3
Energy =   -151.246450973     
    C    0.240225    0.870643    0.000000
    C    0.820217   -0.503169    0.000000
    O   -0.497422   -0.250126    0.000000

FREQUENCIES 3
940.6575
956.3635
1416.1997

SYMMETRY C2V
ELECTRONIC_STATE 1-A1
