3
Energy =   -150.890906368     
    C    1.269251    0.632627    0.000000
    C    0.106473   -0.046889   -0.000000
    O   -0.877982   -0.622971   -0.000000

FREQUENCIES 4
543.7624
543.7624
1151.7185
2080.5158

SYMMETRY C*V
ELECTRONIC_STATE 4-SG
