3
Energy =   -151.315384363     
    C   -0.119305   -0.004998    0.000000
    C   -1.488732   -0.058162   -0.000000
    O    1.045571    0.039985    0.000000

FREQUENCIES 4
420.5365
420.5365
1053.3590
1979.8922

SYMMETRY C*V
ELECTRONIC_STATE 3-SG
