4
Energy =   -188.921966342     
    C    1.621995   -0.990785   -0.212918
    C    0.652652   -0.308739   -0.066790
    C   -1.356116    1.104592    0.236178
    O   -0.405984    0.436095    0.092869

FREQUENCIES 7
172.6457
172.6457
302.5423
302.5423
910.8134
1894.1077
2281.0428

SYMMETRY C*V
ELECTRONIC_STATE 2-SG
