4
Energy =   -189.295773758     
    C    0.008528    1.768506    0.042969
    C    0.282488   -1.940308   -0.022557
    C    0.189336   -0.689983   -0.000334
    O    0.094107    0.603174    0.022488

FREQUENCIES 7
133.9477
133.9477
390.8803
390.8803
859.2211
1860.0945
2013.7260

SYMMETRY C*V
ELECTRONIC_STATE 1-SG
