4
Energy =   -189.463693535     
    C    0.054692   -0.607199    0.027332
    C    0.215689    0.672022   -0.081492
    C    0.373205    1.923867   -0.187797
    O   -0.087974   -1.741580    0.123483

FREQUENCIES 7
139.2289
139.2289
605.2417
605.2417
967.0176
1976.7631
2334.8080

SYMMETRY C*V
ELECTRONIC_STATE 1-SG
