4
Energy =   -188.910773991     
    C    1.057029   -0.815013   -0.097839
    C    1.210573    0.601225    0.022743
    C   -0.130724    0.024452    0.030001
    O   -1.323671    0.148378    0.093790

FREQUENCIES 6
433.4727
461.1410
808.4679
842.5702
1132.2499
1442.5102

SYMMETRY C2V
ELECTRONIC_STATE 4-A2
