9
Energy =   -230.027840652     
    C   -1.297725    0.260705    0.638523
    C    1.125608   -0.418290    0.000000
    O    1.603156    0.689507   -0.000000
    C   -0.333112   -0.719614    0.000000
    C   -1.297725    0.260705   -0.638523
    H   -1.626450    0.637599    1.588267
    H   -0.569663   -1.782131   -0.000000
    H    1.784121   -1.312885   -0.000000
    H   -1.626450    0.637599   -1.588267

FREQUENCIES 21
97.2416
245.6661
316.0943
620.3564
765.6570
766.2601
841.4522
875.7928
974.5092
1000.4952
1019.3997
1075.2006
1111.5782
1358.5714
1414.1571
1757.7313
1792.5779
2861.1568
3072.4561
3263.7527
3313.8643

SYMMETRY CS
ELECTRONIC_STATE 1-A'
