9
Energy =   -229.708009179     
    C   -0.968993    0.683702    0.000000
    C    0.260808   -1.145323    0.000000
    O   -0.920061   -0.814656   -0.000000
    C    1.236155   -0.035557   -0.000000
    C    0.274116    1.127683   -0.000000
    H   -1.976941    1.058218    0.000000
    H    1.891640   -0.099114    0.877557
    H    1.891640   -0.099114   -0.877557
    H    0.573346    2.164137   -0.000000

FREQUENCIES 21
314.6958
489.0407
656.9680
719.9034
793.0168
833.0339
841.6753
922.2980
934.9919
963.9234
1102.0273
1123.0430
1241.4466
1252.4952
1348.7517
1606.5912
1658.1130
3019.5901
3043.2319
3238.0048
3295.1708

SYMMETRY CS
ELECTRONIC_STATE 2-A'
