9
Energy =   -229.718191369     
    C   -0.887930    0.015941    0.343722
    C    2.126758   -0.505066   -0.041686
    O   -1.354432   -0.987249    0.524280
    C    1.363209    0.534860   -0.045655
    C    0.022381    1.128645    0.085265
    H   -0.065911    1.831780    0.923145
    H    1.759466   -1.519735    0.125331
    H    3.197109   -0.412601   -0.209778
    H   -0.323201    1.636102   -0.824287

FREQUENCIES 21
126.2444
151.3500
268.4522
357.8241
400.8309
525.6045
785.1421
888.1009
918.9945
920.9370
943.9882
1224.9744
1256.8854
1386.8202
1391.7331
1792.8284
2266.8393
3000.3655
3037.0672
3049.3916
3139.7133

SYMMETRY CS
ELECTRONIC_STATE 2-A'
