9
Energy =   -230.013158377     
    C   -0.950719    0.656463   -0.000000
    C    0.307637   -1.250997   -0.000000
    O   -0.917699   -0.771400    0.000000
    C    1.202819   -0.035128    0.000000
    C    0.275565    1.144876    0.000000
    H   -1.935803    1.089210   -0.000000
    H    1.866007   -0.089788    0.870477
    H    1.866007   -0.089788   -0.870477
    H    0.547893    2.186527    0.000000

FREQUENCIES 21
295.6063
522.1885
714.9778
810.9553
813.5260
850.7731
868.7571
906.6629
927.3590
954.5292
1102.3721
1120.8941
1188.1692
1250.4603
1336.2214
1385.4239
1652.8591
3022.3569
3043.7039
3240.0155
3270.6117

SYMMETRY CS
ELECTRONIC_STATE 1-A'
