9
Energy =   -230.063354983     
    O   -2.959715    0.997939    0.281014
    C    1.817908   -0.038731    0.000021
    C    0.367703   -0.007995   -0.000609
    C   -0.835844    0.043013    0.006810
    C   -2.273896    0.043540   -0.002282
    H    2.202541    0.152214    1.003478
    H    2.217141    0.733542   -0.659746
    H    2.196678   -1.005303   -0.333688
    H   -2.732616   -0.918218   -0.294999

FREQUENCIES 21
9.1936
131.9948
167.7887
340.9003
399.6023
565.8830
819.5891
1011.8427
1043.9255
1055.6722
1161.5374
1413.4978
1418.8400
1471.7265
1475.0434
1743.8520
2318.2746
2921.9166
3025.9391
3083.0709
3089.9476

SYMMETRY C1
ELECTRONIC_STATE 1-A
