9
Energy =   -229.723605754     
    C   -0.867481    0.681224    0.000027
    C    1.205740   -0.155831   -0.000514
    O    0.367098    1.050203   -0.000505
    C    0.186054   -1.203815   -0.000155
    C   -1.069417   -0.724731    0.000099
    H   -1.607962    1.473676    0.000040
    H    1.833354   -0.121488   -0.894105
    H    1.833798   -0.121244    0.892755
    H   -2.018871   -1.235253    0.000332

FREQUENCIES 21
370.9349
490.1450
798.4602
820.9599
832.8246
866.7029
916.9531
997.9376
1030.6311
1072.1754
1174.5971
1240.6550
1261.2752
1347.3220
1400.1476
1451.2204
1584.2902
3056.3879
3104.4273
3196.6709
3245.9076

SYMMETRY CS
ELECTRONIC_STATE 2-A'
