9
Energy =   -230.074801443     
    O    1.845159   -1.283929    0.005785
    C    0.469370    0.858552   -0.026196
    C    0.821341   -0.665696    0.004767
    C   -0.956225    0.323633    0.005188
    C   -0.635272   -0.980826    0.031106
    H    0.772361    1.382992   -0.933786
    H    0.795944    1.424627    0.847574
    H   -1.906386    0.837845    0.005794
    H   -1.206492   -1.897398    0.059895

FREQUENCIES 21
213.1349
455.7952
530.2817
697.8565
816.5653
858.8160
968.1863
971.3813
1011.5632
1030.9078
1090.8336
1106.9508
1210.0579
1310.9060
1468.3134
1585.3807
1851.9216
3039.8813
3086.4172
3194.2918
3221.7448

SYMMETRY CS
ELECTRONIC_STATE 1-A'
