9
Energy =   -229.715128603     
    O    2.720188    0.863466    0.000000
    C    0.747427   -0.449878   -0.000000
    C    1.511854    0.792293   -0.000000
    C   -0.566424   -0.401273   -0.000000
    C   -1.859579   -0.393678    0.000000
    H    1.320156   -1.370122   -0.000000
    H    0.965668    1.755036    0.000000
    H   -2.419695   -0.397921    0.931214
    H   -2.419695   -0.397922   -0.931214

FREQUENCIES 21
141.1358
177.6166
328.6719
405.4486
432.0614
499.4840
710.3135
772.3180
898.9519
946.5815
951.6785
1105.8441
1178.5402
1267.5095
1379.1193
1467.1963
1898.7629
2904.5909
3103.8234
3163.6019
3185.0310

SYMMETRY CS
ELECTRONIC_STATE 2-A'
