9
Energy =   -230.014639119     
    O    0.064814   -0.487858    0.000453
    C    1.079753    0.464859    0.000028
    C    2.345000    0.091405    0.000048
    C   -1.165554   -0.069274    0.000412
    C   -2.315086    0.264982    0.000395
    H    0.724164    1.485896   -0.000300
    H    3.118260    0.843169   -0.000285
    H    2.631713   -0.950023    0.000390
    H   -3.333862    0.558145    0.000382

FREQUENCIES 21
75.1958
178.7215
434.5514
436.5406
544.9523
578.7761
654.1273
700.0562
857.5507
900.2358
973.2335
1126.5316
1191.3757
1338.6207
1420.0278
1705.2273
2268.4304
3164.5085
3194.6820
3259.1121
3477.0823

SYMMETRY CS
ELECTRONIC_STATE 1-A'
