9
Energy =   -229.723738740     
    O    0.935444    1.416980    0.000000
    C    0.323791    0.262662   -0.000000
    C    1.005257   -0.970490   -0.000000
    C   -1.072425    0.296158    0.000000
    C   -2.279621    0.276547    0.000000
    H    2.087831   -1.013488    0.000000
    H    0.443737   -1.893272    0.000000
    H    1.904840    1.353008    0.000000
    H   -3.348854    0.271995   -0.000000

FREQUENCIES 21
180.3404
227.0903
388.3333
436.9126
588.6135
598.1036
639.7223
737.4339
796.9404
839.7098
915.6693
1008.7216
1166.7802
1417.6284
1475.4519
1501.5160
2186.4482
3143.4114
3263.7933
3400.5103
3718.5599

SYMMETRY CS
ELECTRONIC_STATE 2-A"
