9
Energy =   -230.052878328     
    C    2.156512   -0.464214    0.000000
    C   -1.370627    0.171739    0.000000
    O   -1.463430   -1.021642   -0.000000
    C   -0.072468    0.966507    0.000000
    C    1.149182    0.183670    0.000000
    H   -0.111248    1.633551   -0.869851
    H   -2.272826    0.818127   -0.000000
    H   -0.111248    1.633551    0.869851
    H    3.045796   -1.044314   -0.000000

FREQUENCIES 21
143.9580
149.1541
327.9957
376.3910
686.0282
690.3386
711.7722
736.3232
828.2252
1015.9816
1047.4308
1235.1299
1322.9436
1414.7504
1437.2850
1826.9823
2229.7943
2873.6697
2997.4624
3017.8242
3463.0974

SYMMETRY CS
ELECTRONIC_STATE 1-A'
