2
Energy =   -112.835853047     
    C   -0.714404    0.000000    0.000000
    O    0.393764    0.000000    0.000000

FREQUENCIES 1
2300.5545

SYMMETRY C*V
ELECTRONIC_STATE 2-SG
