2
Energy =   -112.585699788     
    C   -1.096842    0.000000    0.000000
    O    0.767607    0.000000    0.000000

FREQUENCIES 1
485.9328

SYMMETRY C*V
ELECTRONIC_STATE 4-PI
