5
Energy =   -152.523270483     
C  1.474666000  0.415828000 -0.564308000
C  0.429059000 -0.066385000  0.039863000
H  0.960923984 -0.341624332  0.979351209
H -1.264453502 -0.695860127  0.655425603
O -0.888325343 -0.285888721 -0.128415738

FREQUENCIES 9
100.2656
200.1906
604.4022
921.7695
1109.4962
1277.7640
1837.8144
2901.8092
3849.3866

SYMMETRY CS
ELECTRONIC_STATE 1-A'
