5
Energy =   -152.158204817     
    C    0.149140    0.419311    0.001050
    C    1.496492    0.106256   -0.123309
    H    2.116467   -0.741555   -0.392132
    H   -0.146570    1.452760    0.318764
    O   -0.836289   -0.303279   -0.193741

FREQUENCIES 9
470.4699
672.8596
784.3647
817.3104
1133.2883
1191.1138
1464.5341
2775.9141
3200.3406

SYMMETRY CS
ELECTRONIC_STATE 4-A"
