5
Energy =   -152.603818128     
    C    1.264048   -0.126216   -0.277130
    C    0.088793    0.013837   -0.100194
    H    2.305358   -0.243689   -0.436652
    H   -1.545471    0.942104   -0.158748
    O   -1.196229    0.088996    0.125630

FREQUENCIES 9
405.2401
445.0209
547.0993
651.5131
1086.3993
1245.8713
2275.7290
3478.5926
3786.2335

SYMMETRY CS
ELECTRONIC_STATE 1-A'
