5
Energy =   -152.662697637     
    C    0.745686    0.234619   -0.586401
    C   -0.310591   -0.209341    0.044385
    H    1.654883   -0.344690   -0.577945
    H    0.698252    1.176064   -1.109590
    O   -1.246451   -0.602735    0.603300

FREQUENCIES 9
446.3775
552.1423
594.2659
989.6725
1171.4720
1411.4083
2218.3609
3176.2299
3268.4682

SYMMETRY C2V
ELECTRONIC_STATE 1-A1
