6
Energy =   -190.644613244     
    C    0.895018    1.538837   -0.382507
    C   -0.470991   -0.587635    0.275742
    C    0.319132    0.501360   -0.142347
    H    0.548265   -1.701936   -0.931995
    H    1.397174    2.452400   -0.589544
    O   -0.184840   -1.737258   -0.285380

FREQUENCIES 12
221.1436
259.1573
546.9499
635.9779
782.7830
825.8688
898.4095
1311.9838
1343.7740
2106.8713
3449.5944
3511.3780

SYMMETRY CS
ELECTRONIC_STATE 1-A'
