6
Energy =   -190.566680937     
    C   -0.040027   -0.020168   -0.109638
    C   -0.474624    0.950462    0.637688
    C    0.970330    0.949128    0.429375
    H    0.679424   -1.445064   -1.108132
    H    1.596114    1.608434   -0.178693
    O   -0.183166   -1.083585   -0.867421

FREQUENCIES 12
285.4265
383.6192
426.2785
661.2914
934.2721
966.7763
1087.6392
1108.5432
1262.1918
1860.0658
2999.5703
3778.6678

SYMMETRY C1
ELECTRONIC_STATE 3-A
