7
Energy =   -228.359564028     
    C   -0.728640   -0.364700   -0.299193
    C    0.790150    0.954898    0.145627
    O   -0.504879    0.976162   -0.133674
    C    1.104432   -0.424475    0.239797
    C    0.214072   -1.373342   -0.014369
    H    1.387255    1.854028    0.180149
    H    0.094285   -2.444015   -0.013945

FREQUENCIES 15
268.4993
417.3108
539.0438
655.7405
747.6556
766.7737
873.8739
977.0135
1059.4327
1168.9825
1201.1720
1383.4956
1594.0929
3240.9929
3273.2908

SYMMETRY C1
ELECTRONIC_STATE 2-A
