7
Energy =   -228.337084801     
    C   -0.911149    0.699584   -0.216081
    C    0.912129   -0.158256    0.363881
    O    0.377017    1.037903    0.165245
    C    0.186844   -1.166741    0.174804
    C   -1.063375   -0.746656   -0.216656
    H   -1.586906    1.515393   -0.445830
    H   -1.967719   -1.278042   -0.474249

FREQUENCIES 15
264.5045
390.0013
455.1177
695.8097
773.5645
892.9735
948.5439
980.2565
1134.7324
1231.6855
1298.4234
1396.2665
1799.9445
3205.3466
3234.2009

SYMMETRY C1
ELECTRONIC_STATE 2-A
