7
Energy =   -228.369521874     
C -0.601634001  0.892726080  0.098788816
C  1.054572560 -0.523003026 -0.076904218
O  0.758947331  0.807272843  0.015084901
C -0.161229335 -1.219793853 -0.045607843
C -1.101563455 -0.415994125  0.054144300
H -1.030026948  1.880645836  0.179214388
H  2.097413418 -0.792697247 -0.152549474

FREQUENCIES 15
266.0246
470.7214
479.7990
801.0696
823.8871
883.7357
899.6802
1024.8013
1179.2796
1205.4902
1274.6898
1395.6588
1938.2869
3243.6884
3254.4965

SYMMETRY C2V
ELECTRONIC_STATE 2-A2
