4
Energy =   -114.441216780     
    C    0.439381   -0.166329   -0.350993
    H    0.768779   -1.213671   -0.306550
    H    0.461635    0.265901   -1.360974
    O   -0.652002    0.077445    0.308966

FREQUENCIES 6
733.9771
865.2664
1282.4535
1294.1181
2924.0823
3012.4890

SYMMETRY CS
ELECTRONIC_STATE 3-A"
