4
Energy =   -114.293853135     
    C    1.046207    0.103038   -0.018873
    H   -0.761831   -0.949050   -0.502660
    H   -0.963908    0.668130   -0.519561
    O   -0.326103   -0.071959   -0.372706

FREQUENCIES 6
514.4752
561.7286
784.1142
1618.5506
2681.8048
3225.4463

SYMMETRY C2V
ELECTRONIC_STATE 1-A1
