4
Energy =   -114.549477648     
    C    0.113370    0.220665   -0.407617
    H    0.663160   -0.484610   -1.058760
    H    0.351012    1.292654   -0.541879
    O   -0.692574   -0.154744    0.396250

FREQUENCIES 6
1200.4864
1266.0534
1531.9402
1821.6177
2881.9982
2938.2429

SYMMETRY C2V
ELECTRONIC_STATE 1-A1
