4
Energy =   -114.050429995     
    C    0.931251   -0.254281    0.313143
    H   -0.315680    0.621833   -1.115091
    H   -0.663246    1.086507    0.461222
    O   -0.098784    0.549207   -0.150897

FREQUENCIES 6
544.0639
890.5319
931.2812
1610.8388
3392.2840
3473.2984

SYMMETRY C2V
ELECTRONIC_STATE 2-B2
