4
Energy =   -114.133786603     
    C    0.444366    0.211794   -0.449015
    H    0.801788    1.137088   -0.930465
    H   -0.601746    0.761240    1.081045
    O   -0.238472    0.017443    0.529191

FREQUENCIES 6
907.3801
964.5247
1127.4007
1743.4887
3002.9510
3366.1718

SYMMETRY CS
ELECTRONIC_STATE 2-A'
