3
Energy =   -75.9969241006     
    H   -0.696767    0.845401    0.000000
    H   -1.011373   -0.768374    0.000000
    O   -0.287351   -0.071969    0.000000

FREQUENCIES 3
1446.5240
3343.1496
3390.2754

SYMMETRY C2V
ELECTRONIC_STATE 2-B1
