3
Energy =   -75.9969240655     
    H   -0.314728    0.868866    0.000000
    H   -1.286478   -0.457350    0.000000
    O   -0.334655   -0.135652    0.000000

FREQUENCIES 3
1447.1023
3341.6986
3388.6406

SYMMETRY C2V
ELECTRONIC_STATE 2-B1
