6
Energy =   -152.855441622     
    C    0.055862   -0.102027   -0.553329
    C    0.947636   -1.131785   -0.245224
    H    1.976327   -1.062422   -0.574645
    H    0.607608   -1.996543    0.322122
    H   -1.630597    0.788274   -0.560163
    O   -1.158324   -0.015692   -0.256201

FREQUENCIES 12
435.8276
502.2357
647.0138
925.3510
983.0776
1061.9216
1265.1580
1432.2587
1634.2200
3094.7951
3235.1711
3599.9434

SYMMETRY CS
ELECTRONIC_STATE 3-A"
