6
Energy =   -152.776685530     
    C    1.180809    0.622169    0.713349
    C    0.950221   -0.403393   -0.098828
    H    1.676884   -1.126091   -0.452549
    H   -0.902722   -1.330672   -0.197458
    H   -0.590841   -0.382839   -1.487154
    O   -0.421943   -0.549145   -0.537684

FREQUENCIES 12
259.4539
271.8674
601.9059
684.8257
908.0295
1084.5873
1132.1681
1628.7874
1697.4857
3176.4973
3586.1858
3657.9838

SYMMETRY C1
ELECTRONIC_STATE 1-A
