6
Energy =   -152.981509029     
    C    0.799048   -0.720725   -0.057424
    C   -0.503608   -0.246045    0.269912
    H    1.529134   -0.177324    0.553265
    H    0.840808   -1.794368    0.158923
    H    0.976950   -0.536597   -1.123122
    O   -1.520471    0.124481    0.525438

FREQUENCIES 12
423.1381
423.1406
905.5324
1030.1688
1030.1693
1367.8998
1399.7378
1399.7380
2380.6943
2995.6804
3076.0275
3076.0282

SYMMETRY C3V
ELECTRONIC_STATE 1-A1
