7
Energy =   -191.042524065     
    C    1.242875   -0.330020    0.008663
    C    0.610880    0.217022   -1.056293
    C   -0.129016   -0.265750   -0.011414
    H    2.174387   -0.599844    0.483844
    H   -1.300895   -0.882179    1.341379
    H    0.685457    0.688813   -2.024801
    O   -1.293870   -0.454148    0.467321

FREQUENCIES 15
460.1310
497.2840
621.5517
863.5266
868.0683
997.1945
1018.7226
1029.4308
1194.4626
1379.3910
1451.1962
1872.9443
3235.1280
3265.5834
3696.7860

SYMMETRY CS
ELECTRONIC_STATE 1-A'
