7
Energy =   -190.934313690     
    C    0.642000   -0.184644    0.084075
    C    0.250009    1.025979   -0.705570
    C   -0.518050   -1.078949    0.081423
    H    1.504109   -0.729858   -0.338650
    H    0.909654    0.036804    1.132186
    H    1.135825    1.679881   -0.688507
    O   -1.436293   -1.702542    0.035575

FREQUENCIES 15
101.2938
187.0479
353.3652
571.3902
686.2567
717.8606
893.9216
1070.5984
1173.5983
1254.7545
1316.8914
2370.1969
2940.0348
2977.2114
3024.4752

SYMMETRY CS
ELECTRONIC_STATE 1-A'
