8
Energy =   -229.013094688     
    C    0.262906    0.664715   -0.384207
    C   -0.881482   -0.440115   -0.249147
    O   -0.911550    0.697116    0.501935
    C    0.410066   -1.021530   -0.102113
    C    1.354570   -0.167225    0.192466
    H    0.236082    1.215584   -1.316844
    H   -1.678383   -0.714523   -0.929729
    H    2.305545   -0.039908    0.680063

FREQUENCIES 18
445.6250
487.7421
642.6352
661.3281
728.8291
796.4483
906.8981
926.5322
1004.4461
1090.0061
1131.3140
1208.9754
1249.3965
1302.0162
1651.5655
3188.7033
3204.8275
3286.5381

SYMMETRY C1
ELECTRONIC_STATE 1-A
