8
Energy =   -229.380093381     
    C    0.819611   -1.004402   -0.000000
    C   -0.002861    1.097511    0.000000
    O    1.122666    0.357004   -0.000000
    C   -1.131258    0.286585   -0.000000
    C   -0.644315   -1.004464    0.000000
    H    0.111170    2.170624    0.000000
    H   -2.151098    0.633495   -0.000000
    H   -1.223297   -1.914063    0.000000

FREQUENCIES 18
506.7569
704.4461
722.0168
823.9124
867.7638
907.4676
914.4193
936.0568
1011.4398
1033.6833
1100.3948
1137.3261
1339.0882
1406.0947
1480.6991
3222.7075
3229.9040
3247.4947

SYMMETRY CS
ELECTRONIC_STATE 2-A"
