8
Energy =   -229.053800485     
    C   -0.694808    0.850524    0.000100
    C    0.051071   -1.030554    0.236338
    O   -1.094948   -0.427037   -0.108262
    C    1.213468   -0.385498   -0.133364
    C    0.717536    0.916321    0.029302
    H   -1.454787    1.585692    0.226620
    H    2.225622   -0.751296   -0.182472
    H    1.292180    1.802844    0.257884

FREQUENCIES 18
468.4736
534.3343
584.2610
681.8371
792.2730
879.3408
940.8509
956.5649
1071.1147
1083.6661
1179.4502
1226.2227
1290.2940
1416.9465
1444.7859
3215.0149
3232.4540
3263.3011

SYMMETRY C1
ELECTRONIC_STATE 1-A
