5
Energy =   -114.689554659     
    C    0.100341   -0.279063    0.680377
    H    0.322825    0.563561   -1.079256
    H    0.441922   -1.323715    0.931405
    H    0.085016    0.284780    1.656514
    O    0.810531    0.301019   -0.256891

FREQUENCIES 9
629.0518
724.5083
981.4640
1033.9520
1111.2901
1275.3238
2666.7317
2702.6938
3460.9362

SYMMETRY CS
ELECTRONIC_STATE 3-A"
