5
Energy =   -115.099316499     
    C   -0.128341   -0.205121   -0.425033
    H   -0.496559    0.543584    0.288297
    H   -0.453031    0.134747   -1.427656
    H   -0.598719   -1.183827   -0.264201
    O    1.230110   -0.265535   -0.487321

FREQUENCIES 9
682.4363
958.3259
1106.7601
1354.9531
1365.2939
1511.9282
2886.7248
2962.3086
3005.4186

SYMMETRY CS
ELECTRONIC_STATE 2-A'
