5
Energy =   -114.683132695     
C -0.465260253  0.516578834  0.266741827
H  0.896657312  0.125506767 -1.228736744
H  0.766183312 -1.084889233 -0.137064744
H -0.328805066  1.232114048  1.076403351
O  0.665505780 -0.123640162 -0.307957299

FREQUENCIES 9
377.6615
545.3238
980.5478
1031.9443
1098.7906
1653.5615
3129.1119
3544.7611
3611.5314

SYMMETRY CS
ELECTRONIC_STATE 3-A"
