8
Energy =   -191.862119512     
    C   -1.292425    0.825223   -0.019516
    C    0.892173   -0.201819    0.503642
    C   -0.594670   -0.435967    0.221532
    H    1.102079    0.430812    1.388893
    H   -0.670896   -1.107771   -0.636785
    H   -1.682858    1.617968    0.600841
    H   -1.023705   -0.954536    1.094247
    O    1.780667   -0.634707   -0.175734

FREQUENCIES 18
80.3332
171.2712
360.2254
485.7647
720.6759
820.4629
1007.0544
1041.7367
1087.1920
1198.5931
1256.1138
1405.3993
1422.8973
1806.2436
2888.5955
2928.0843
3048.7443
3215.0141

SYMMETRY C1
ELECTRONIC_STATE 3-A
