8
Energy =   -191.938974014     
    C   -0.420351    0.026152   -0.491861
    C    0.790140    0.723207   -0.061402
    C   -1.396395   -0.571746   -0.850042
    H    1.606370   -0.855460    0.757616
    H    1.449256    0.867644   -0.925103
    H    0.533434    1.712587    0.318822
    H   -2.266440   -1.094691   -1.161831
    O    1.476826    0.066714    0.997713

FREQUENCIES 18
199.7977
268.5560
340.3522
561.5909
663.6938
709.7449
911.7616
993.4223
1047.5492
1215.7115
1347.6174
1412.2140
1495.0927
2214.2020
2992.6687
3069.3412
3461.0987
3834.4230

SYMMETRY C1
ELECTRONIC_STATE 1-A
