9
Energy =   -230.105615373     
    C   -0.000000   -1.092662    0.317393
    C    0.000000    1.092662    0.317393
    O   -0.000000   -0.000000    1.127624
    C   -0.000000    0.715900   -0.983578
    C    0.000000   -0.715900   -0.983578
    H   -0.000000   -2.045865    0.813659
    H    0.000000    2.045865    0.813659
    H   -0.000000    1.369869   -1.838147
    H    0.000000   -1.369869   -1.838147

FREQUENCIES 21
614.8004
622.9545
734.9651
758.9407
859.6269
886.5409
888.3005
892.9400
1014.8729
1061.2011
1085.7748
1167.3806
1198.3445
1295.8698
1414.4925
1510.8862
1592.0511
3240.6160
3251.2559
3274.8055
3281.2008

SYMMETRY C2V
ELECTRONIC_STATE 1-A1
