9
Energy =   -230.061995040     
    C    3.125480    3.333131    0.896479
    C    3.194076    1.847134    0.647097
    O    4.188041    1.285105    0.247097
    C    1.971532    1.103842    0.919251
    C    0.955661    0.506232    1.148488
    H    4.084563    3.788436    0.663907
    H    2.861514    3.523972    1.938475
    H    2.339765    3.777852    0.282692
    H    0.065677   -0.040009    1.346040

FREQUENCIES 21
112.5289
174.0535
231.9879
439.8900
595.4852
601.7528
677.1813
738.2989
741.4758
978.6757
1043.7522
1206.3433
1388.6233
1463.8247
1469.1215
1753.5828
2192.7729
3030.2076
3086.7471
3138.2079
3454.4030

SYMMETRY CS
ELECTRONIC_STATE 1-A'
