9
Energy =   -229.697085769     
    C    3.186345    3.397237    0.909388
    C    3.044404    1.940948    0.665941
    O    3.951845    1.257064    0.180480
    C    1.907302    1.145658    0.936397
    C    0.983695    0.392439    1.134822
    H    4.166937    3.758246    0.610914
    H    3.010481    3.571805    1.975820
    H    2.393333    3.903803    0.349700
    H    0.141970   -0.241508    1.326068

FREQUENCIES 21
119.0490
124.6165
215.1027
326.0587
473.7167
554.2532
749.2766
763.8074
798.9480
984.3439
1005.7243
1133.0033
1327.9878
1423.6757
1436.5595
1541.4002
2167.5659
3009.6376
3070.5838
3152.1727
3385.9579

SYMMETRY C1
ELECTRONIC_STATE 2-A
