9
Energy =   -229.783956721     
    C   -0.000000    1.078808    0.364893
    C    0.000000   -1.078808    0.364893
    O    0.000000    0.000000    1.167986
    C   -0.000000   -0.688584   -0.989845
    C    0.000000    0.688584   -0.989845
    H   -0.000000    2.042961    0.851033
    H    0.000000   -2.042961    0.851033
    H   -0.000000   -1.359767   -1.833191
    H    0.000000    1.359767   -1.833191

FREQUENCIES 21
485.0707
499.9262
768.2119
788.2843
859.0311
883.5597
910.5266
971.6368
1008.5636
1036.9873
1066.6918
1117.6214
1168.8654
1306.3819
1408.8482
1447.1059
1517.2950
3239.4696
3247.5523
3250.8031
3262.1091

SYMMETRY C2V
ELECTRONIC_STATE 2-A2
