9
Energy =   -230.068180278     
    O   -3.371784   -1.054765   -0.000000
    C    1.242145    0.733595   -0.000000
    C    0.238219   -0.368318    0.000000
    C   -1.077687   -0.199162    0.000000
    C   -2.247321   -0.740877    0.000000
    H    1.894877    0.646591    0.874009
    H    1.894877    0.646591   -0.874009
    H    0.769652    1.712434    0.000000
    H    0.657223   -1.376190    0.000000

FREQUENCIES 21
112.1462
132.9130
188.2955
432.8751
519.7124
613.5268
817.9164
819.6046
1064.7438
1088.3766
1125.2297
1358.8975
1396.8405
1474.2000
1474.3789
1769.5822
2220.1930
3007.7190
3047.5712
3054.2099
3127.0133

SYMMETRY CS
ELECTRONIC_STATE 1-A'
