6
Energy =   -115.773108332     
    C    0.269803   -0.327679   -0.314140
    H   -1.654504   -0.020385   -0.125994
    H    0.450736    0.408683   -1.102900
    H    1.114140   -0.311935    0.371922
    H    0.207349   -1.323297   -0.763540
    O   -0.886999   -0.015266    0.450615

FREQUENCIES 12
289.2798
1042.4768
1077.5003
1173.2448
1365.8589
1480.8422
1499.2431
1510.7547
2991.4252
3037.6784
3106.8862
3853.2669

SYMMETRY CS
ELECTRONIC_STATE 1-A'
