6
Energy =   -115.379699003     
    C    0.620486   -0.592618   -0.322996
    H    0.756263   -0.890912   -1.402220
    H    0.899943    0.484327   -0.507990
    H   -0.973021   -1.109846    0.728120
    H    1.253445   -1.117992    0.383245
    O   -0.710924   -0.612133   -0.079214

FREQUENCIES 12
299.1345
939.6584
975.0259
1045.5715
1213.2831
1238.0248
1285.9684
1481.0390
2629.1291
2742.8516
3180.5617
3574.9051

SYMMETRY CS
ELECTRONIC_STATE 2-A"
