4
Energy =   -151.789406708     
    C   -0.878014   -0.371355   -0.283850
    C   -0.029422    0.621436    0.341780
    H    0.261972    0.765521    1.380489
    O    0.473999   -0.520360   -0.361093

FREQUENCIES 6
744.1753
925.2600
1008.5868
1056.2184
1365.4423
3085.9112

SYMMETRY C1
ELECTRONIC_STATE 4-A
