4
Energy =   -151.805865559     
    C   -0.302451    0.490156   -0.298535
    C    1.043720    0.978903   -0.459419
    H    0.270270   -0.798877    0.962450
    O   -0.549063   -0.482989    0.515645

FREQUENCIES 6
496.8047
611.8802
1021.3786
1163.1633
1322.8450
3425.7081

SYMMETRY CS
ELECTRONIC_STATE 4-A"
