4
Energy =   -151.788867844     
    C   -1.212459   -0.564792    0.312148
    C    0.879438    0.301220   -0.375705
    H    1.050516   -0.285549   -1.274933
    O   -0.175320    0.215708    0.421097

FREQUENCIES 6
413.7827
463.6713
1010.4169
1108.2310
1156.5183
3115.8423

SYMMETRY CS
ELECTRONIC_STATE 4-A"
