4
Energy =   -151.497407638     
    C    0.222794   -1.505299   -0.238686
    C   -0.021630    1.103109    0.208690
    H   -0.795173    1.216681    1.002684
    O   -0.067641   -0.443313    0.136128

FREQUENCIES 6
188.8111
247.5910
394.4362
1271.2817
1887.0972
2943.4288

SYMMETRY C1
ELECTRONIC_STATE 1-A
