4
Energy =   -151.512704796     
    C    0.286391   -0.404035    0.288782
    C    1.601581   -0.659572    0.365650
    H   -0.979319    0.661873   -0.743470
    O   -0.816402    0.013492   -0.013297

FREQUENCIES 6
336.9849
376.4895
936.7659
961.0464
1825.2457
3465.3076

SYMMETRY CS
ELECTRONIC_STATE 3-A"
