4
Energy =   -151.539002794     
    C   -0.712332   -0.582054   -0.541245
    C   -0.311486    0.199908    0.618266
    H   -0.296896    0.778334    1.543347
    O    0.606977   -0.153201   -0.169015

FREQUENCIES 6
682.9081
932.3180
979.5001
1241.1629
1576.1246
3158.1899

SYMMETRY CS
ELECTRONIC_STATE 1-A'
