5
Energy =   -189.998186655     
    C    0.523860    0.048069   -0.243243
    C   -1.870488   -1.090509   -0.224288
    C   -0.818341   -0.457211   -0.077375
    H    1.113556   -0.375341   -1.069714
    O    0.956462    0.893570    0.500586

FREQUENCIES 9
212.0988
223.7844
514.2856
885.0985
978.9075
1385.3081
1497.0683
1762.3078
2983.3214

SYMMETRY CS
ELECTRONIC_STATE 2-A'
