5
Energy =   -189.611684333     
    C    0.069118    0.416112   -0.157422
    C    0.088220   -0.884730   -0.013259
    C   -0.004351   -2.110179   -0.164477
    H    0.619665    1.669319    1.178373
    O    0.263711    1.557740    0.264441

FREQUENCIES 9
215.0570
215.3548
366.9427
642.7661
938.6301
1129.0687
1776.8053
1999.2409
3463.4222

SYMMETRY CS
ELECTRONIC_STATE 3-A'
