5
Energy =   -189.616804031     
    C    0.159291    0.189667    0.508776
    C    0.033886   -0.922554   -0.187924
    C   -0.091992   -2.097637   -0.544926
    H    0.350282    1.953254    1.162891
    O    0.280958    1.413023    0.345380

FREQUENCIES 9
218.7846
244.1626
444.5614
655.3774
961.5890
1189.3536
1747.7609
1996.5008
3567.4414

SYMMETRY CS
ELECTRONIC_STATE 3-A'
