5
Energy =   -189.709046020     
    C   -1.739739    0.380937    0.145652
    C    0.628292    0.170882   -0.061718
    C   -0.655683   -0.128273   -0.449444
    H   -0.840865   -0.817582   -1.287857
    O    1.667696    0.423185    0.264363

FREQUENCIES 9
217.4445
438.0965
532.6865
639.1012
972.5478
1022.8344
1614.6372
2363.5778
3006.2412

SYMMETRY CS
ELECTRONIC_STATE 1-A'
