6
Energy =   -227.812377446     
    C   -1.064663    0.082078    0.470452
    C    1.023447    0.422763   -1.069821
    C    1.509640   -0.531034   -0.141657
    C    0.169134    0.028241   -0.121866
    H    1.145193    1.063819   -1.933393
    O   -2.071675    0.120029    0.961386

FREQUENCIES 12
184.8755
222.2047
556.5957
605.9695
682.6124
911.3197
972.7195
1058.1705
1162.6347
1680.4922
2323.6667
3228.3120

SYMMETRY CS
ELECTRONIC_STATE 1-A'
