6
Energy =   -227.735055622     
    C   -0.972855   -2.409709   -0.471568
    C    0.601524    1.299604   -0.231792
    C    0.129194   -0.095422   -0.424940
    C   -0.454634   -1.186908   -0.391958
    H    1.452776    1.697593   -0.791572
    O   -0.076794    1.848631    0.585955

FREQUENCIES 12
100.4416
112.8755
227.3291
349.8699
525.4705
808.4970
987.5489
1305.1488
1360.6428
1750.8963
2229.0908
3091.5844

SYMMETRY CS
ELECTRONIC_STATE 1-A'
