6
Energy =   -227.994996224     
    C   -0.083905    0.230066   -0.056493
    C    0.891427   -0.141525    0.901826
    C   -0.852594    1.109264   -0.739262
    C    1.346753   -1.326069    1.228487
    H    1.379089    0.639644    1.497100
    O   -0.835670   -0.454780   -0.913880

FREQUENCIES 12
156.3803
159.7540
285.1176
403.8693
432.3860
679.8877
857.3019
967.6141
1239.5722
1624.1735
1728.8318
3048.0132

SYMMETRY C1
ELECTRONIC_STATE 2-A
