3
Energy =   -113.590438304     
    C   -0.234483   -0.519400   -0.000000
    H   -0.610497   -1.562336   -0.000000
    O    0.140550    0.519060    0.000000

FREQUENCIES 4
912.7913
912.7913
2235.5284
3103.2028

SYMMETRY C*V
ELECTRONIC_STATE 1-SG
