3
Energy =   -113.384468413     
    C   -0.880403   -0.082475    0.000000
    H   -1.431796   -1.050606    0.000000
    O    0.382015   -0.124729    0.000000

FREQUENCIES 3
956.1207
1566.8648
2873.3352

SYMMETRY CS
ELECTRONIC_STATE 3-A'
