3
Energy =   -113.528387134     
    C   -1.072658    0.334215    0.000000
    H    0.620935   -1.015605   -0.000000
    O   -0.167138   -0.387371   -0.000000

FREQUENCIES 4
415.9640
415.9640
1937.6948
3262.1551

SYMMETRY C*V
ELECTRONIC_STATE 1-SG
