2
Energy =   -75.2778881961     
    H   -0.881524    0.000000    0.000000
    O    0.154826    0.000000    0.000000

FREQUENCIES 1
3056.0618

SYMMETRY C*V
ELECTRONIC_STATE 3-SG
