2
Energy =   -75.1678156562     
    H    1.189219    0.000000    0.000000
    O    0.151897    0.000000    0.000000

FREQUENCIES 1
3057.8345

SYMMETRY C*V
ELECTRONIC_STATE 1-SG
