2
Energy =   -75.7656398654     
    H   -0.845108    0.000000    0.000000
    O    0.128927    0.000000    0.000000

FREQUENCIES 1
3720.9318

SYMMETRY C*V
ELECTRONIC_STATE 2-PI
