6
Energy =   -227.949918877     
    C    0.600081   -0.944361    0.000000
    C    1.491727    0.000000    0.000000
    C   -0.717358   -1.195310    0.000000
    C    0.600081    0.944361    0.000000
    C   -1.257172    0.000000    0.000000
    C   -0.717358    1.195310    0.000000

FREQUENCIES 12
405.5300
464.2771
501.8740
540.8788
547.8544
575.1484
1174.5700
1187.0429
1339.4568
1461.1188
1536.0983
1807.0993

SYMMETRY C2V
ELECTRONIC_STATE 2-B2
