7
Energy =   -266.016549160     
    C   -0.000834   -0.057060    3.869839
    C    0.000512    0.175516    2.556078
    C    0.000485    0.127614    1.283194
    C    0.000258    0.106710   -0.000005
    C    0.000386    0.128349   -1.283177
    C    0.000330    0.175651   -2.556062
    C   -0.001137   -0.056778   -3.869868

FREQUENCIES 15
74.2170
130.9435
141.8091
154.1727
268.5162
309.2421
428.3617
551.0666
570.8646
629.3960
987.3944
1326.6869
1666.6776
1877.9860
1948.3295

SYMMETRY C1
ELECTRONIC_STATE 4-A
