7
Energy =   -266.016592516     
    C   -2.636856   -2.316724    1.615191
    C    2.852630    1.986454   -1.686969
    C    1.770667    1.500009   -1.077605
    C   -1.867909   -1.351492    1.109522
    C   -0.954756   -0.652845    0.560908
    C    0.873021    0.778032   -0.533609
    C   -0.036796    0.056564    0.012560

FREQUENCIES 15
74.2674
141.0024
146.5719
154.4157
271.9999
309.4704
432.7976
548.6867
571.5474
629.5086
990.0292
1328.6576
1664.9556
1879.1332
1947.6661

SYMMETRY C1
ELECTRONIC_STATE 4-A
