7
Energy =   -265.893891750     
    C    1.021874   -0.433857   -0.258961
    C    0.373240    1.093165    0.466240
    C   -0.501792   -0.003577   -1.140869
    C    0.078295    1.195752   -0.859038
    C   -0.379834   -0.873851    0.803188
    C   -0.815081   -1.139777   -0.458935
    C    0.223299    0.162145    1.448374

FREQUENCIES 15
217.6926
244.0140
246.3531
343.6623
427.1820
427.9892
566.9145
569.6897
682.2560
809.3212
812.6247
1124.1245
1283.1278
1507.7416
1508.2216

SYMMETRY C1
ELECTRONIC_STATE 2-A
