7
Energy =   -266.102911279     
    C   -0.117195   -1.478757    0.635197
    C    0.484660    0.878514   -0.863980
    C   -0.746804   -0.408075    1.013318
    C   -0.994457    0.856374    0.877751
    C    1.069823   -0.236475   -1.174981
    C    0.645898   -1.160080   -0.366833
    C   -0.341926    1.548498   -0.120471

FREQUENCIES 15
42.1729
381.1672
391.3194
466.3311
473.7606
534.3136
546.2035
560.7031
1049.5323
1235.9340
1251.0282
1531.7796
1587.2854
1739.1987
1757.6410

SYMMETRY C1
ELECTRONIC_STATE 2-A
