7
Energy =   -266.000182658     
    C    1.410864    1.041955    0.458133
    C    0.416527    0.094350    0.044435
    C   -0.854006   -0.193304   -0.091667
    C    1.780494   -0.320370   -0.116800
    C   -2.074949   -0.469186   -0.222103
    C   -3.348518   -0.756968   -0.357937
    C    2.669587    0.603522    0.285939

FREQUENCIES 15
98.7972
105.1489
206.2821
253.6679
340.7128
504.6300
574.0002
578.8182
647.2519
905.8642
993.6076
1284.8647
1646.9695
1741.8970
2189.6809

SYMMETRY C1
ELECTRONIC_STATE 2-A
