3
Energy =   -112.799842724     
    C   -1.524217   -0.009340    0.000000
    C    1.537551    0.002588    0.000000
    C    0.006666   -0.003248    0.000000

FREQUENCIES 4
-69.0390
153.1146
721.4389
1110.5357

SYMMETRY D*H
ELECTRONIC_STATE ??
