6
Energy =   -227.894142384     
    C   -0.263351    1.103072   -0.711390
    C   -1.235530    0.213711   -0.471858
    C   -0.971339   -0.889527    0.239813
    C    0.971339    0.889533   -0.239817
    C    1.235534   -0.213713    0.471860
    C    0.263345   -1.103078    0.711391

FREQUENCIES 12
-1340.0175
-1324.3336
-730.2559
-227.6265
433.8965
434.0696
615.0362
615.0864
1160.0207
1240.4544
1692.9562
1694.7789

SYMMETRY C2H
ELECTRONIC_STATE 4-BU
