6
Energy =   -227.934541904     
    C   -0.000000   -0.000000    3.193106
    C   -0.000000   -0.000000    1.918689
    C   -0.000000    0.000000    0.634799
    C    0.000000    0.000000   -0.634799
    C    0.000000    0.000000   -1.918689
    C   -0.000000   -0.000000   -3.193105

FREQUENCIES 13
-1745.4357
-1745.4346
107.7959
107.7960
434.0898
434.0898
459.1890
459.1890
679.1979
1313.8577
1786.2967
2196.4737
2250.5110

SYMMETRY D*H
ELECTRONIC_STATE 4-SGG
