6
Energy =   -227.876234370     
    C    1.095385   -0.027371    0.641790
    C   -1.221598    0.349733   -0.519385
    C   -0.074725   -0.064973    1.302012
    C   -1.481247    0.072037    1.099929
    C    0.184926    0.212721   -0.317314
    C   -2.391712    0.312130    0.140830

FREQUENCIES 12
-449.6997
284.6850
340.6065
375.9925
411.8056
603.3605
702.9592
1028.0320
1029.9899
1288.5125
1575.6936
1749.9787

SYMMETRY D2H
ELECTRONIC_STATE 4-AU
