6
Energy =   -227.919496655     
    C    0.598304   -0.020074    0.675201
    C   -0.296898    0.009895   -0.334980
    C   -2.007815    0.067476   -2.265982
    C    1.705983    0.498827    1.352992
    C    1.121863   -0.593765    1.838343
    C   -1.121437    0.037642   -1.265572

FREQUENCIES 12
-923.4136
109.0370
110.2848
271.1357
277.9695
546.9414
619.1914
637.4230
1231.4884
1399.9106
1651.8493
2170.1873

SYMMETRY CS
ELECTRONIC_STATE 2-A'
