6
Energy =   -227.876241264     
    C    1.015667    0.413113    0.008338
    C   -0.503375    0.806698   -0.545772
    C   -1.015667   -0.413113   -0.008338
    C    0.503376   -0.806698    0.545772
    C   -0.634561   -1.511339    0.665908
    C    0.634562    1.511339   -0.665908

FREQUENCIES 12
-451.6769
283.7125
341.3681
376.0887
409.8302
603.5338
701.9557
1027.2489
1030.6159
1287.8713
1576.5950
1749.8205

SYMMETRY C2H
ELECTRONIC_STATE 4-AU
