6
Energy =   -227.789390691     
    C   -0.550274   -0.005412   -0.692394
    C    0.337817   -0.887433    0.660087
    C   -1.067285   -0.379638    0.649605
    C    0.518949    0.550282    0.508931
    C    0.030946    1.477880   -0.350703
    C    0.729848   -0.755680   -0.775527

FREQUENCIES 12
-99.6712
334.9452
353.1024
494.2910
645.0795
719.0551
719.2683
828.4945
920.4915
940.0647
1151.2137
1373.4749

SYMMETRY C1
ELECTRONIC_STATE 2-A
