6
Energy =   -227.308332688     
    C   -1.046114   -0.917323   -0.198063
    C    1.044682    0.916061    0.197794
    C   -1.211820    0.374108   -0.251452
    C   -0.180167    1.281482   -0.057472
    C    0.179494   -1.279150    0.057121
    C    1.213925   -0.375179    0.252072

FREQUENCIES 12
-531.3813
203.5617
432.5280
505.5051
538.6659
541.9596
846.3756
1087.2130
1137.9030
1353.8501
1578.1941
1668.3881

SYMMETRY C1
ELECTRONIC_STATE 3-A
