6
Energy =   -227.938921812     
    C   -0.280037    1.043590   -0.681733
    C   -1.264869    0.218782   -0.483068
    C   -0.946228   -0.831448    0.213358
    C    0.946228    0.831448   -0.213358
    C    1.264869   -0.218783    0.483068
    C    0.280036   -1.043591    0.681733

FREQUENCIES 12
-630.6493
37.4605
451.2172
483.1734
534.7704
591.2745
1170.0759
1224.6344
1384.5890
1453.1821
1545.7010
1785.3098

SYMMETRY D2H
ELECTRONIC_STATE 2-B2U
