6
Energy =   -227.774408292     
    C    0.146984   -1.133670   -0.104828
    C    0.673932    0.915486   -0.118626
    C    0.043624    0.120889   -1.143410
    C   -0.769900   -0.408825    0.742331
    C    0.767871   -0.218288    0.820448
    C   -0.862509    0.724407   -0.195915

FREQUENCIES 12
-702.8598
-697.5777
-211.6089
353.3821
543.9518
575.4493
845.7646
846.5762
883.2382
926.7781
1157.1770
1244.4276

SYMMETRY C1
ELECTRONIC_STATE 2-A
