6
Energy =   -227.780550168     
    C   -0.115018    0.015607   -0.111377
    C    1.548350    0.546799    1.494900
    C    0.182922    0.281972    1.244226
    C   -1.040295   -0.279030   -1.004632
    C    1.250359    0.279936    0.139516
    C    2.473209    0.841965    2.388414

FREQUENCIES 12
-303.9264
158.9905
245.6522
393.5964
458.7772
613.6767
647.4100
957.8153
1013.5547
1139.8482
1511.9005
1701.2763

SYMMETRY C1
ELECTRONIC_STATE 4-A
