7
Energy =   -265.798839030     
    C    1.197981    1.126430    0.390422
    C    0.365969   -1.021042   -0.111700
    C   -0.868704   -0.140513    0.244951
    C    0.992102   -0.503593   -1.271960
    C   -2.276276   -0.096235    0.378592
    C    0.087219    0.598253   -0.597633
    C    0.501708    0.036701    0.967327

FREQUENCIES 15
-309.5644
77.0436
160.1315
214.3771
294.1749
547.9573
557.1189
593.5149
610.5688
725.8829
834.1168
986.9618
1062.6928
1171.4422
1306.3635

SYMMETRY C1
ELECTRONIC_STATE 2-A
