7
Energy =   -265.441741864     
    C    1.406216    1.060553    0.483698
    C    0.448921    0.101231    0.048187
    C   -0.857960   -0.194511   -0.090842
    C    1.789494   -0.338114   -0.141948
    C   -2.064210   -0.466951   -0.220071
    C   -3.395541   -0.766732   -0.364706
    C    2.673079    0.604524    0.285682

FREQUENCIES 15
-125.7444
107.4888
157.2486
270.0140
444.1647
538.1155
578.0515
613.1991
789.7322
808.8754
1104.6534
1192.6849
1507.9408
1586.0883
2102.5836

SYMMETRY C1
ELECTRONIC_STATE 3-A
