7
Energy =   -265.370310630     
    C    1.297939    0.403052    0.092733
    C    1.976957   -0.733752    0.243439
    C   -2.461388    0.789651   -0.292840
    C   -0.581933   -0.850525    0.009616
    C   -1.098542    0.454403   -0.139632
    C    0.159245    1.059115   -0.065506
    C    0.707722   -1.121943    0.152190

FREQUENCIES 15
-43.4284
140.1148
337.9891
434.6123
460.8825
491.5861
498.3206
732.2084
862.4247
900.6400
1215.2788
1261.1958
1498.5710
1582.4176
1716.2838

SYMMETRY C1
ELECTRONIC_STATE 1-A
