7
Energy =   -265.288331819     
    C   -1.059609   -1.261447   -0.161385
    C    0.497611   -0.879754   -0.061887
    C    0.257263    1.343155    1.284682
    C    0.675063    0.145265    0.915448
    C   -0.451718    1.032275    0.213428
    C    0.745074   -0.395523   -1.424645
    C   -0.663684    0.016028   -0.765642

FREQUENCIES 15
-116.6124
226.0173
407.2336
452.0232
525.2909
577.0965
603.7183
645.3856
746.5019
847.0122
986.9392
1031.5254
1114.9820
1388.8947
1675.3754

SYMMETRY C1
ELECTRONIC_STATE 1-A
