7
Energy =   -265.855510948     
    C    1.011992   -0.430480   -0.257989
    C    0.437117    1.252825    0.485169
    C   -0.539123    0.030684   -1.307873
    C    0.075663    1.097163   -0.790329
    C   -0.383243   -0.966014    0.868625
    C   -0.788001   -1.103844   -0.395769
    C    0.185597    0.119666    1.398165

FREQUENCIES 15
-128.4582
164.8372
216.3696
337.9019
374.9440
405.5891
607.9555
650.3127
652.5787
984.9854
1013.8915
1115.2851
1130.7671
1349.8449
1510.3351

SYMMETRY C1
ELECTRONIC_STATE 4-A
