7
Energy =   -265.887746170     
    C    1.259990    0.194682   -0.418667
    C    0.616133    0.840006    0.617701
    C   -0.492044   -1.451243    0.254892
    C    0.781577   -1.059158    0.057356
    C   -0.060474    0.801197   -0.906332
    C   -0.848879    1.019241    0.205506
    C   -1.256303   -0.344725    0.189545

FREQUENCIES 15
-239.3968
216.8090
267.2710
446.6940
456.2639
481.5526
563.3899
585.0192
717.5146
798.2725
1044.6659
1202.4460
1251.1871
1304.6534
1409.5268

SYMMETRY C1
ELECTRONIC_STATE 2-A
