7
Energy =   -265.990058450     
    C   -0.680025   -1.758801    1.415429
    C    0.421292    1.088602   -0.876119
    C   -0.290724   -0.750793    0.604280
    C   -0.746012    0.609921    0.682450
    C    1.085484    0.031993   -1.308246
    C    0.647491   -0.863572   -0.478168
    C   -0.437506    1.642650   -0.039625

FREQUENCIES 15
-186.2020
157.1767
271.7268
338.5655
443.4647
448.9721
563.2989
586.8912
696.1279
876.1565
1145.9311
1275.5613
1587.5610
1734.5210
1748.8704

SYMMETRY C1
ELECTRONIC_STATE 2-A
