7
Energy =   -265.932046434     
    C    0.022747    0.652288    2.561325
    C   -0.042552   -0.000699   -0.048699
    C    0.025518   -0.649655    2.562305
    C   -0.738063   -0.003049   -1.263994
    C    0.740901    0.000157   -1.198778
    C    1.981522    0.002435   -1.727970
    C    0.012835    0.000410    1.331243

FREQUENCIES 15
-37.6697
100.0417
142.3432
237.2366
238.7289
508.2513
556.8873
576.1168
744.3450
778.7038
978.3284
1277.7444
1451.7472
1669.6556
1774.7131

SYMMETRY CS
ELECTRONIC_STATE 2-A"
