7
Energy =   -265.995767637     
    C   -2.018319   -0.371491    0.000000
    C    1.015794    0.495032    0.000000
    C   -1.259639    0.672224   -0.000000
    C    0.360781   -1.302108   -0.000000
    C    1.591200   -0.658979   -0.000000
    C   -0.066485    1.292167   -0.000000
    C   -0.902992   -1.195487    0.000000

FREQUENCIES 15
-646.4025
-155.6208
108.2588
346.9082
366.7734
397.3428
455.4002
578.5639
971.4823
1017.5033
1120.9033
1233.0911
1347.9677
1706.1295
1962.1830

SYMMETRY CS
ELECTRONIC_STATE 4-A"
