7
Energy =   -265.309810075     
    C    1.220996    0.170494   -0.337970
    C    0.505392    0.933636    0.642413
    C   -0.471770   -1.390692    0.242334
    C    0.756177   -1.112179   -0.105876
    C    0.079585    0.794631   -0.949346
    C   -0.839077    0.953471    0.144630
    C   -1.251302   -0.349361    0.363816

FREQUENCIES 15
-180.0357
327.0120
367.1010
424.7850
529.0232
637.8417
642.7191
673.9667
762.8797
1149.4471
1194.2521
1196.0675
1230.0419
1550.3876
1583.1737

SYMMETRY C1
ELECTRONIC_STATE 1-A
