7
Energy =   -266.071928193     
    C    0.000000    0.000000    3.867482
    C    0.000000    0.000000    2.549997
    C    0.000000    0.000000    1.277072
    C    0.000000    0.000000    0.000000
    C    0.000000    0.000000   -1.277071
    C    0.000000    0.000000   -2.549997
    C    0.000000    0.000000   -3.867482

FREQUENCIES 16
-830.7032
-754.1068
72.9866
83.0999
159.8622
254.4265
283.8518
535.7324
579.5268
594.6656
651.3596
1063.5102
1490.4238
1863.2093
1931.5225
2133.2818

SYMMETRY D*H
ELECTRONIC_STATE ??
