7
Energy =   -266.102713682     
    C   -1.847285   -0.379563    0.000000
    C    0.950897    0.583845    0.000000
    C   -1.193082    0.758015    0.000000
    C    0.353982   -1.450340    0.000000
    C    1.426224   -0.641279    0.000000
    C   -0.062686    1.385782    0.000000
    C   -0.907710   -1.325102    0.000000

FREQUENCIES 15
-130.4491
322.8808
419.3689
467.4950
477.7881
481.4995
511.0048
523.4000
1074.3378
1178.4037
1202.4580
1389.6555
1673.6836
1739.6951
1909.0926

SYMMETRY CS
ELECTRONIC_STATE 2-A'
