7
Energy =   -265.403858820     
    C    2.944449    0.151541    0.157797
    C    1.654187    0.627446    0.410854
    C   -0.857732   -0.250773   -0.169112
    C    0.175288    0.507452    0.305399
    C   -1.804656   -0.922917   -0.590530
    C   -2.875260   -1.649279   -1.044861
    C    0.763724    1.536528    0.930453

FREQUENCIES 15
-8.1153
82.8763
166.6400
223.6999
299.2298
310.7371
523.6631
562.6126
607.2793
789.5242
950.5056
1222.2500
1388.9793
1703.7264
2147.9700

SYMMETRY C1
ELECTRONIC_STATE 3-A
