7
Energy =   -265.913124057     
    C    0.033440    0.679707    2.556118
    C   -0.095179   -0.000800   -0.049461
    C    0.036395   -0.677039    2.557089
    C   -0.680946   -0.002906   -1.242074
    C    0.718664    0.000079   -1.237199
    C    2.000841    0.002454   -1.731158
    C   -0.010308    0.000391    1.362116

FREQUENCIES 15
-156.2539
117.8449
183.0221
229.2698
264.7880
330.0687
491.2925
552.3533
589.1960
694.1192
883.7372
1244.3325
1309.2147
1653.5554
1778.1623

SYMMETRY CS
ELECTRONIC_STATE 4-A'
