 Entering Gaussian System, Link 0=/home/proyectos/fulerenos/M3C-v1.9/M3C-deps_CCC/g09-AM64L-G09RevC.01/g09
 Initial command:
 /home/proyectos/fulerenos/M3C-v1.9/M3C-deps_CCC/g09-AM64L-G09RevC.01/l1.exe "/scratch/naguirre/gaussian/Gau-1493.inp" -scrdir="/scratch/naguirre/gaussian/"
 Entering Link 1 = /home/proyectos/fulerenos/M3C-v1.9/M3C-deps_CCC/g09-AM64L-G09RevC.01/l1.exe PID=      1499.
  
 Copyright (c) 1988,1990,1992,1993,1995,1998,2003,2009,2015,
            Gaussian, Inc.  All Rights Reserved.
  
 This is part of the Gaussian(R) 09 program.  It is based on
 the Gaussian(R) 03 system (copyright 2003, Gaussian, Inc.),
 the Gaussian(R) 98 system (copyright 1998, Gaussian, Inc.),
 the Gaussian(R) 94 system (copyright 1995, Gaussian, Inc.),
 the Gaussian 92(TM) system (copyright 1992, Gaussian, Inc.),
 the Gaussian 90(TM) system (copyright 1990, Gaussian, Inc.),
 the Gaussian 88(TM) system (copyright 1988, Gaussian, Inc.),
 the Gaussian 86(TM) system (copyright 1986, Carnegie Mellon
 University), and the Gaussian 82(TM) system (copyright 1983,
 Carnegie Mellon University). Gaussian is a federally registered
 trademark of Gaussian, Inc.
  
 This software contains proprietary and confidential information,
 including trade secrets, belonging to Gaussian, Inc.
  
 This software is provided under written license and may be
 used, copied, transmitted, or stored only in accord with that
 written license.
  
 The following legend is applicable only to US Government
 contracts under FAR:
  
                    RESTRICTED RIGHTS LEGEND
  
 Use, reproduction and disclosure by the US Government is
 subject to restrictions as set forth in subparagraphs (a)
 and (c) of the Commercial Computer Software - Restricted
 Rights clause in FAR 52.227-19.
  
 Gaussian, Inc.
 340 Quinnipiac St., Bldg. 40, Wallingford CT 06492
  
  
 ---------------------------------------------------------------
 Warning -- This program may not be used in any manner that
 competes with the business of Gaussian, Inc. or will provide
 assistance to any competitor of Gaussian, Inc.  The licensee
 of this program is prohibited from giving any competitor of
 Gaussian, Inc. access to this program.  By using this program,
 the user acknowledges that Gaussian, Inc. is engaged in the
 business of creating and licensing software in the field of
 computational chemistry and represents and warrants to the
 licensee that it is not a competitor of Gaussian, Inc. and that
 it will not use this program in any manner prohibited above.
 ---------------------------------------------------------------
  

 Cite this work as:
 Gaussian 09, Revision E.01,
 M. J. Frisch, G. W. Trucks, H. B. Schlegel, G. E. Scuseria, 
 M. A. Robb, J. R. Cheeseman, G. Scalmani, V. Barone, B. Mennucci, 
 G. A. Petersson, H. Nakatsuji, M. Caricato, X. Li, H. P. Hratchian, 
 A. F. Izmaylov, J. Bloino, G. Zheng, J. L. Sonnenberg, M. Hada, 
 M. Ehara, K. Toyota, R. Fukuda, J. Hasegawa, M. Ishida, T. Nakajima, 
 Y. Honda, O. Kitao, H. Nakai, T. Vreven, J. A. Montgomery, Jr., 
 J. E. Peralta, F. Ogliaro, M. Bearpark, J. J. Heyd, E. Brothers, 
 K. N. Kudin, V. N. Staroverov, T. Keith, R. Kobayashi, J. Normand, 
 K. Raghavachari, A. Rendell, J. C. Burant, S. S. Iyengar, J. Tomasi, 
 M. Cossi, N. Rega, J. M. Millam, M. Klene, J. E. Knox, J. B. Cross, 
 V. Bakken, C. Adamo, J. Jaramillo, R. Gomperts, R. E. Stratmann, 
 O. Yazyev, A. J. Austin, R. Cammi, C. Pomelli, J. W. Ochterski, 
 R. L. Martin, K. Morokuma, V. G. Zakrzewski, G. A. Voth, 
 P. Salvador, J. J. Dannenberg, S. Dapprich, A. D. Daniels, 
 O. Farkas, J. B. Foresman, J. V. Ortiz, J. Cioslowski, 
 and D. J. Fox, Gaussian, Inc., Wallingford CT, 2013.
 
 ******************************************
 Gaussian 09:  EM64L-G09RevE.01 30-Nov-2015
                16-Jun-2016 
 ******************************************
 %NProcShared=4
 Will use up to    4 processors via shared memory.
 -----------------------------------------
 #p b3lyp/6-311+G(3df) freq symmetry=Loose
 -----------------------------------------
 1/10=4,30=1,38=1/1,3;
 2/12=2,17=4,18=3,40=1/2;
 3/5=4,6=6,7=16,11=2,16=1,25=1,30=1,71=2,74=-5,140=1/1,2,3;
 4//1;
 5/5=2,38=5,98=1/2;
 8/6=4,10=90,11=11/1;
 11/6=1,8=1,9=11,15=111,16=1/1,2,10;
 10/6=1/2;
 6/7=2,8=2,9=2,10=2,18=1,28=1/1;
 7/8=1,10=1,25=1/1,2,3,16;
 1/10=4,30=1/3;
 99//99;
 Leave Link    1 at Thu Jun 16 17:32:23 2016, MaxMem=           0 cpu:         0.2
 (Enter /home/proyectos/fulerenos/M3C-v1.9/M3C-deps_CCC/g09-AM64L-G09RevC.01/l101.exe)
 ---------
 b3lyp opt
 ---------
 Symbolic Z-matrix:
 Charge =  2 Multiplicity = 3
 C                     0.75082   0.        0. 
 C                    -0.75082   0.        0. 
 
 NAtoms=      2 NQM=        2 NQMF=       0 NMMI=      0 NMMIF=      0
                NMic=       0 NMicF=      0.
                    Isotopes and Nuclear Properties:
 (Nuclear quadrupole moments (NQMom) in fm**2, nuclear magnetic moments (NMagM)
  in nuclear magnetons)

  Atom         1           2
 IAtWgt=          12          12
 AtmWgt=  12.0000000  12.0000000
 NucSpn=           0           0
 AtZEff=   0.0000000   0.0000000
 NQMom=    0.0000000   0.0000000
 NMagM=    0.0000000   0.0000000
 AtZNuc=   6.0000000   6.0000000
 Leave Link  101 at Thu Jun 16 17:32:23 2016, MaxMem=    33554432 cpu:         0.4
 (Enter /home/proyectos/fulerenos/M3C-v1.9/M3C-deps_CCC/g09-AM64L-G09RevC.01/l103.exe)

 GradGradGradGradGradGradGradGradGradGradGradGradGradGradGradGradGradGrad
 Berny optimization.
 Initialization pass.
 Trust Radius=3.00D-01 FncErr=1.00D-07 GrdErr=1.00D-07
 Number of steps in this run=      2 maximum allowed number of steps=      2.
 GradGradGradGradGradGradGradGradGradGradGradGradGradGradGradGradGradGrad

 Leave Link  103 at Thu Jun 16 17:32:23 2016, MaxMem=    33554432 cpu:         0.1
 (Enter /home/proyectos/fulerenos/M3C-v1.9/M3C-deps_CCC/g09-AM64L-G09RevC.01/l202.exe)
                          Input orientation:                          
 ---------------------------------------------------------------------
 Center     Atomic      Atomic             Coordinates (Angstroms)
 Number     Number       Type             X           Y           Z
 ---------------------------------------------------------------------
      1          6           0        0.750824    0.000000    0.000000
      2          6           0       -0.750824    0.000000    0.000000
 ---------------------------------------------------------------------
 Stoichiometry    C2(2+,3)
 Framework group  D*H[C*(C.C)]
 Deg. of freedom     1
 Full point group                 D*H     NOp   8
 Largest Abelian subgroup         D2H     NOp   8
 Largest concise Abelian subgroup C2      NOp   2
                         Standard orientation:                         
 ---------------------------------------------------------------------
 Center     Atomic      Atomic             Coordinates (Angstroms)
 Number     Number       Type             X           Y           Z
 ---------------------------------------------------------------------
      1          6           0        0.000000    0.000000    0.750824
      2          6           0        0.000000    0.000000   -0.750824
 ---------------------------------------------------------------------
 Rotational constants (GHZ):      0.0000000     37.3533590     37.3533590
 Leave Link  202 at Thu Jun 16 17:32:23 2016, MaxMem=    33554432 cpu:         0.0
 (Enter /home/proyectos/fulerenos/M3C-v1.9/M3C-deps_CCC/g09-AM64L-G09RevC.01/l301.exe)
 Standard basis: 6-311+G(3df) (5D, 7F)
 Ernie: Thresh=  0.10000D-02 Tol=  0.10000D-05 Strict=F.
 There are    21 symmetry adapted cartesian basis functions of AG  symmetry.
 There are     4 symmetry adapted cartesian basis functions of B1G symmetry.
 There are    10 symmetry adapted cartesian basis functions of B2G symmetry.
 There are    10 symmetry adapted cartesian basis functions of B3G symmetry.
 There are     4 symmetry adapted cartesian basis functions of AU  symmetry.
 There are    21 symmetry adapted cartesian basis functions of B1U symmetry.
 There are    10 symmetry adapted cartesian basis functions of B2U symmetry.
 There are    10 symmetry adapted cartesian basis functions of B3U symmetry.
 There are    17 symmetry adapted basis functions of AG  symmetry.
 There are     4 symmetry adapted basis functions of B1G symmetry.
 There are     9 symmetry adapted basis functions of B2G symmetry.
 There are     9 symmetry adapted basis functions of B3G symmetry.
 There are     4 symmetry adapted basis functions of AU  symmetry.
 There are    17 symmetry adapted basis functions of B1U symmetry.
 There are     9 symmetry adapted basis functions of B2U symmetry.
 There are     9 symmetry adapted basis functions of B3U symmetry.
    78 basis functions,   116 primitive gaussians,    90 cartesian basis functions
     6 alpha electrons        4 beta electrons
       nuclear repulsion energy        12.6863149748 Hartrees.
 IExCor=  402 DFT=T Ex+Corr=B3LYP ExCW=0 ScaHFX=  0.200000
 ScaDFX=  0.800000  0.720000  1.000000  0.810000 ScalE2=  1.000000  1.000000
 IRadAn=      0 IRanWt=     -1 IRanGd=            0 ICorTp=0 IEmpDi=  4
 NAtoms=    2 NActive=    2 NUniq=    1 SFac= 4.00D+00 NAtFMM=   60 NAOKFM=F Big=F
 Integral buffers will be    131072 words long.
 Raffenetti 2 integral format.
 Two-electron integral symmetry is turned on.
 Leave Link  301 at Thu Jun 16 17:32:23 2016, MaxMem=    33554432 cpu:         0.4
 (Enter /home/proyectos/fulerenos/M3C-v1.9/M3C-deps_CCC/g09-AM64L-G09RevC.01/l302.exe)
 NPDir=0 NMtPBC=     1 NCelOv=     1 NCel=       1 NClECP=     1 NCelD=      1
         NCelK=      1 NCelE2=     1 NClLst=     1 CellRange=     0.0.
 One-electron integrals computed using PRISM.
 One-electron integral symmetry used in STVInt
 NBasis=    78 RedAO= T EigKep=  2.67D-04  NBF=    17     4     9     9     4    17     9     9
 NBsUse=    78 1.00D-06 EigRej= -1.00D+00 NBFU=    17     4     9     9     4    17     9     9
 Precomputing XC quadrature grid using
 IXCGrd= 4 IRadAn=           0 IRanWt=          -1 IRanGd=           0 AccXCQ= 0.00D+00.
 Generated NRdTot=       0 NPtTot=           0 NUsed=           0 NTot=          32
 NSgBfM=    90    90    90    90    90 MxSgAt=     2 MxSgA2=     2.
 Leave Link  302 at Thu Jun 16 17:32:23 2016, MaxMem=    33554432 cpu:         1.1
 (Enter /home/proyectos/fulerenos/M3C-v1.9/M3C-deps_CCC/g09-AM64L-G09RevC.01/l303.exe)
 DipDrv:  MaxL=1.
 Leave Link  303 at Thu Jun 16 17:32:23 2016, MaxMem=    33554432 cpu:         0.1
 (Enter /home/proyectos/fulerenos/M3C-v1.9/M3C-deps_CCC/g09-AM64L-G09RevC.01/l401.exe)
 ExpMin= 4.38D-02 ExpMax= 4.56D+03 ExpMxC= 6.82D+02 IAcc=2 IRadAn=         4 AccDes= 0.00D+00
 Harris functional with IExCor=  402 and IRadAn=       4 diagonalized for initial guess.
 HarFok:  IExCor=  402 AccDes= 0.00D+00 IRadAn=         4 IDoV= 1 UseB2=F ITyADJ=14
 ICtDFT=  3500011 ScaDFX=  1.000000  1.000000  1.000000  1.000000
 FoFCou: FMM=F IPFlag=           0 FMFlag=      100000 FMFlg1=           0
         NFxFlg=           0 DoJE=T BraDBF=F KetDBF=T FulRan=T
         wScrn=  0.000000 ICntrl=     500 IOpCl=  0 I1Cent=   200000004 NGrid=           0
         NMat0=    1 NMatS0=      1 NMatT0=    0 NMatD0=    1 NMtDS0=    0 NMtDT0=    0
 Petite list used in FoFCou.
 Harris En= -75.3157737307732    
 JPrj=0 DoOrth=F DoCkMO=F.
 Initial guess orbital symmetries:
 Alpha Orbitals:
       Occupied  (SGU) (SGG) (SGG) (SGU) (SGG) (PIU)
       Virtual   (PIU) (PIG) (PIG) (SGG) (SGU) (PIU) (PIU) (SGG)
                 (PIG) (PIG) (SGU) (SGU) (DLTG) (DLTG) (SGG) (PIU)
                 (PIU) (DLTU) (DLTU) (SGU) (PIG) (PIG) (PIU) (PIU)
                 (SGG) (SGU) (PIG) (PIG) (SGG) (SGU) (PIU) (PIU)
                 (DLTG) (DLTG) (SGG) (DLTU) (DLTU) (PIG) (PIG)
                 (SGU) (DLTG) (DLTG) (PIU) (PIU) (SGG) (PHIU) (PHIU)
                 (PIG) (PIG) (PHIG) (PHIG) (PIU) (PIU) (SGU) (DLTU)
                 (DLTU) (SGG) (PIG) (PIG) (SGU) (DLTG) (DLTG) (PIU)
                 (PIU) (DLTU) (DLTU) (SGU) (PIG) (PIG) (SGG) (SGG)
                 (SGU)
 Beta  Orbitals:
       Occupied  (SGU) (SGG) (SGG) (SGU)
       Virtual   (SGG) (PIU) (PIU) (PIG) (PIG) (SGG) (SGU) (PIU)
                 (PIU) (SGG) (PIG) (PIG) (SGU) (SGU) (DLTG) (DLTG)
                 (SGG) (PIU) (PIU) (DLTU) (DLTU) (SGU) (PIG) (PIG)
                 (PIU) (PIU) (SGG) (SGU) (PIG) (PIG) (SGG) (SGU)
                 (PIU) (PIU) (DLTG) (DLTG) (SGG) (DLTU) (DLTU)
                 (PIG) (PIG) (SGU) (DLTG) (DLTG) (PIU) (PIU) (SGG)
                 (PHIU) (PHIU) (PIG) (PIG) (PHIG) (PHIG) (PIU)
                 (PIU) (SGU) (DLTU) (DLTU) (SGG) (PIG) (PIG) (SGU)
                 (DLTG) (DLTG) (PIU) (PIU) (DLTU) (DLTU) (SGU)
                 (PIG) (PIG) (SGG) (SGG) (SGU)
 Initial guess <Sx>= 0.0000 <Sy>= 0.0000 <Sz>= 1.0000 <S**2>= 2.0000 S= 1.0000
 Leave Link  401 at Thu Jun 16 17:32:24 2016, MaxMem=    33554432 cpu:         1.1
 (Enter /home/proyectos/fulerenos/M3C-v1.9/M3C-deps_CCC/g09-AM64L-G09RevC.01/l502.exe)
 UHF open shell SCF:
 Using DIIS extrapolation, IDIIS=  1040.
 Integral symmetry usage will be decided dynamically.
 Keep R1 and R2 ints in memory in symmetry-blocked form, NReq=6757172.
 IVT=       44262 IEndB=       44262 NGot=    33554432 MDV=    32273369
 LenX=    32273369 LenY=    32264828
 Requested convergence on RMS density matrix=1.00D-08 within 128 cycles.
 Requested convergence on MAX density matrix=1.00D-06.
 Requested convergence on             energy=1.00D-06.
 No special actions if energy rises.
 FoFCou: FMM=F IPFlag=           0 FMFlag=           0 FMFlg1=           0
         NFxFlg=           0 DoJE=F BraDBF=F KetDBF=F FulRan=T
         wScrn=  0.000000 ICntrl=     600 IOpCl=  0 I1Cent=           0 NGrid=           0
         NMat0=    1 NMatS0=   3081 NMatT0=    0 NMatD0=    1 NMtDS0=    0 NMtDT0=    0
 Petite list used in FoFCou.

 Cycle   1  Pass 1  IDiag  1:
 E= -74.5447389586055    
 DIIS: error= 6.74D-02 at cycle   1 NSaved=   1.
 NSaved= 1 IEnMin= 1 EnMin= -74.5447389586055     IErMin= 1 ErrMin= 6.74D-02
 ErrMax= 6.74D-02  0.00D+00 EMaxC= 1.00D-01 BMatC= 2.96D-01 BMatP= 2.96D-01
 IDIUse=3 WtCom= 3.26D-01 WtEn= 6.74D-01
 Coeff-Com:  0.100D+01
 Coeff-En:   0.100D+01
 Coeff:      0.100D+01
 Gap=     0.080 Goal=   None    Shift=    0.000
 Gap=     0.137 Goal=   None    Shift=    0.000
 GapD=    0.080 DampG=0.500 DampE=0.500 DampFc=0.2500 IDamp=-1.
 Damping current iteration by 2.50D-01
 RMSDP=8.48D-03 MaxDP=2.40D-01              OVMax= 2.01D-01

 Cycle   2  Pass 1  IDiag  1:
 E= -74.5793029289266     Delta-E=       -0.034563970321 Rises=F Damp=T
 DIIS: error= 4.76D-02 at cycle   2 NSaved=   2.
 NSaved= 2 IEnMin= 2 EnMin= -74.5793029289266     IErMin= 2 ErrMin= 4.76D-02
 ErrMax= 4.76D-02  0.00D+00 EMaxC= 1.00D-01 BMatC= 1.38D-01 BMatP= 2.96D-01
 IDIUse=3 WtCom= 5.24D-01 WtEn= 4.76D-01
 Coeff-Com: -0.204D+01 0.304D+01
 Coeff-En:   0.000D+00 0.100D+01
 Coeff:     -0.107D+01 0.207D+01
 Gap=     0.097 Goal=   None    Shift=    0.000
 Gap=     0.147 Goal=   None    Shift=    0.000
 RMSDP=6.46D-03 MaxDP=1.44D-01 DE=-3.46D-02 OVMax= 2.73D-02

 Cycle   3  Pass 1  IDiag  1:
 E= -74.6643207357434     Delta-E=       -0.085017806817 Rises=F Damp=F
 DIIS: error= 5.02D-03 at cycle   3 NSaved=   3.
 NSaved= 3 IEnMin= 3 EnMin= -74.6643207357434     IErMin= 3 ErrMin= 5.02D-03
 ErrMax= 5.02D-03  0.00D+00 EMaxC= 1.00D-01 BMatC= 3.92D-03 BMatP= 1.38D-01
 IDIUse=3 WtCom= 9.50D-01 WtEn= 5.02D-02
 Coeff-Com:  0.155D+01-0.209D+01 0.154D+01
 Coeff-En:   0.000D+00 0.000D+00 0.100D+01
 Coeff:      0.147D+01-0.198D+01 0.152D+01
 Gap=     0.104 Goal=   None    Shift=    0.000
 Gap=     0.148 Goal=   None    Shift=    0.000
 RMSDP=2.01D-03 MaxDP=8.05D-02 DE=-8.50D-02 OVMax= 1.35D-02

 Cycle   4  Pass 1  IDiag  1:
 E= -74.6652770836621     Delta-E=       -0.000956347919 Rises=F Damp=F
 DIIS: error= 3.84D-04 at cycle   4 NSaved=   4.
 NSaved= 4 IEnMin= 4 EnMin= -74.6652770836621     IErMin= 4 ErrMin= 3.84D-04
 ErrMax= 3.84D-04  0.00D+00 EMaxC= 1.00D-01 BMatC= 2.42D-05 BMatP= 3.92D-03
 IDIUse=3 WtCom= 9.96D-01 WtEn= 3.84D-03
 Coeff-Com:  0.142D+00-0.197D+00 0.162D+00 0.893D+00
 Coeff-En:   0.000D+00 0.000D+00 0.000D+00 0.100D+01
 Coeff:      0.142D+00-0.196D+00 0.161D+00 0.894D+00
 Gap=     0.105 Goal=   None    Shift=    0.000
 Gap=     0.148 Goal=   None    Shift=    0.000
 RMSDP=1.80D-04 MaxDP=7.07D-03 DE=-9.56D-04 OVMax= 1.09D-03

 Cycle   5  Pass 1  IDiag  1:
 E= -74.6652830894278     Delta-E=       -0.000006005766 Rises=F Damp=F
 DIIS: error= 8.82D-05 at cycle   5 NSaved=   5.
 NSaved= 5 IEnMin= 5 EnMin= -74.6652830894278     IErMin= 5 ErrMin= 8.82D-05
 ErrMax= 8.82D-05  0.00D+00 EMaxC= 1.00D-01 BMatC= 4.74D-07 BMatP= 2.42D-05
 IDIUse=1 WtCom= 1.00D+00 WtEn= 0.00D+00
 Coeff-Com: -0.124D-01 0.165D-01-0.102D-01-0.562D-01 0.106D+01
 Coeff:     -0.124D-01 0.165D-01-0.102D-01-0.562D-01 0.106D+01
 Gap=     0.105 Goal=   None    Shift=    0.000
 Gap=     0.148 Goal=   None    Shift=    0.000
 RMSDP=2.16D-05 MaxDP=8.42D-04 DE=-6.01D-06 OVMax= 4.30D-04

 Cycle   6  Pass 1  IDiag  1:
 E= -74.6652833265055     Delta-E=       -0.000000237078 Rises=F Damp=F
 DIIS: error= 1.92D-05 at cycle   6 NSaved=   6.
 NSaved= 6 IEnMin= 6 EnMin= -74.6652833265055     IErMin= 6 ErrMin= 1.92D-05
 ErrMax= 1.92D-05  0.00D+00 EMaxC= 1.00D-01 BMatC= 2.67D-08 BMatP= 4.74D-07
 IDIUse=1 WtCom= 1.00D+00 WtEn= 0.00D+00
 Coeff-Com: -0.165D-02 0.230D-02-0.474D-02-0.394D-01-0.174D-02 0.105D+01
 Coeff:     -0.165D-02 0.230D-02-0.474D-02-0.394D-01-0.174D-02 0.105D+01
 Gap=     0.105 Goal=   None    Shift=    0.000
 Gap=     0.148 Goal=   None    Shift=    0.000
 RMSDP=3.61D-06 MaxDP=1.06D-04 DE=-2.37D-07 OVMax= 8.63D-05

 Cycle   7  Pass 1  IDiag  1:
 E= -74.6652833382660     Delta-E=       -0.000000011761 Rises=F Damp=F
 DIIS: error= 1.30D-06 at cycle   7 NSaved=   7.
 NSaved= 7 IEnMin= 7 EnMin= -74.6652833382660     IErMin= 7 ErrMin= 1.30D-06
 ErrMax= 1.30D-06  0.00D+00 EMaxC= 1.00D-01 BMatC= 1.84D-10 BMatP= 2.67D-08
 IDIUse=1 WtCom= 1.00D+00 WtEn= 0.00D+00
 Coeff-Com:  0.155D-04-0.222D-04 0.385D-03 0.517D-02 0.139D-02-0.184D+00
 Coeff-Com:  0.118D+01
 Coeff:      0.155D-04-0.222D-04 0.385D-03 0.517D-02 0.139D-02-0.184D+00
 Coeff:      0.118D+01
 Gap=     0.105 Goal=   None    Shift=    0.000
 Gap=     0.148 Goal=   None    Shift=    0.000
 RMSDP=3.41D-07 MaxDP=1.20D-05 DE=-1.18D-08 OVMax= 6.95D-06

 Cycle   8  Pass 1  IDiag  1:
 E= -74.6652833383487     Delta-E=       -0.000000000083 Rises=F Damp=F
 DIIS: error= 6.70D-08 at cycle   8 NSaved=   8.
 NSaved= 8 IEnMin= 8 EnMin= -74.6652833383487     IErMin= 8 ErrMin= 6.70D-08
 ErrMax= 6.70D-08  0.00D+00 EMaxC= 1.00D-01 BMatC= 3.91D-13 BMatP= 1.84D-10
 IDIUse=1 WtCom= 1.00D+00 WtEn= 0.00D+00
 Coeff-Com: -0.792D-05 0.110D-04-0.267D-05 0.387D-04-0.489D-03 0.361D-02
 Coeff-Com: -0.453D-01 0.104D+01
 Coeff:     -0.792D-05 0.110D-04-0.267D-05 0.387D-04-0.489D-03 0.361D-02
 Coeff:     -0.453D-01 0.104D+01
 Gap=     0.105 Goal=   None    Shift=    0.000
 Gap=     0.148 Goal=   None    Shift=    0.000
 RMSDP=2.01D-08 MaxDP=7.12D-07 DE=-8.26D-11 OVMax= 2.56D-07

 Cycle   9  Pass 1  IDiag  1:
 E= -74.6652833383488     Delta-E=       -0.000000000000 Rises=F Damp=F
 DIIS: error= 3.53D-09 at cycle   9 NSaved=   9.
 NSaved= 9 IEnMin= 9 EnMin= -74.6652833383488     IErMin= 9 ErrMin= 3.53D-09
 ErrMax= 3.53D-09  0.00D+00 EMaxC= 1.00D-01 BMatC= 9.14D-16 BMatP= 3.91D-13
 IDIUse=1 WtCom= 1.00D+00 WtEn= 0.00D+00
 Coeff-Com:  0.731D-06-0.102D-05-0.641D-07-0.592D-05 0.268D-04-0.360D-04
 Coeff-Com:  0.208D-03-0.501D-01 0.105D+01
 Coeff:      0.731D-06-0.102D-05-0.641D-07-0.592D-05 0.268D-04-0.360D-04
 Coeff:      0.208D-03-0.501D-01 0.105D+01
 Gap=     0.105 Goal=   None    Shift=    0.000
 Gap=     0.148 Goal=   None    Shift=    0.000
 RMSDP=6.70D-10 MaxDP=2.05D-08 DE=-1.14D-13 OVMax= 1.10D-08

 SCF Done:  E(UB3LYP) =  -74.6652833383     A.U. after    9 cycles
            NFock=  9  Conv=0.67D-09     -V/T= 1.9996
 <Sx>= 0.0000 <Sy>= 0.0000 <Sz>= 1.0000 <S**2>= 2.0063 S= 1.0021
 <L.S>= 0.000000000000E+00
 KE= 7.469802088975D+01 PE=-1.914940116255D+02 EE= 2.944439242266D+01
 Annihilation of the first spin contaminant:
 S**2 before annihilation     2.0063,   after     2.0000
 Leave Link  502 at Thu Jun 16 17:32:25 2016, MaxMem=    33554432 cpu:         3.8
 (Enter /home/proyectos/fulerenos/M3C-v1.9/M3C-deps_CCC/g09-AM64L-G09RevC.01/l801.exe)
 DoSCS=F DFT=T ScalE2(SS,OS)=  1.000000  1.000000
 Range of M.O.s used for correlation:     1    78
 NBasis=    78 NAE=     6 NBE=     4 NFC=     0 NFV=     0
 NROrb=     78 NOA=     6 NOB=     4 NVA=    72 NVB=    74

 **** Warning!!: The largest alpha MO coefficient is  0.27431073D+02


 **** Warning!!: The largest beta MO coefficient is  0.27273487D+02

 Leave Link  801 at Thu Jun 16 17:32:25 2016, MaxMem=    33554432 cpu:         0.1
 (Enter /home/proyectos/fulerenos/M3C-v1.9/M3C-deps_CCC/g09-AM64L-G09RevC.01/l1101.exe)
 Using compressed storage, NAtomX=     2.
 Will process      3 centers per pass.
 Leave Link 1101 at Thu Jun 16 17:32:25 2016, MaxMem=    33554432 cpu:         1.1
 (Enter /home/proyectos/fulerenos/M3C-v1.9/M3C-deps_CCC/g09-AM64L-G09RevC.01/l1102.exe)
 Symmetrizing basis deriv contribution to polar:
 IMax=3 JMax=2 DiffMx= 0.00D+00
 Leave Link 1102 at Thu Jun 16 17:32:25 2016, MaxMem=    33554432 cpu:         0.2
 (Enter /home/proyectos/fulerenos/M3C-v1.9/M3C-deps_CCC/g09-AM64L-G09RevC.01/l1110.exe)
 Forming Gx(P) for the SCF density, NAtomX=     2.
 Integral derivatives from FoFJK, PRISM(SPDF).
 Do as many integral derivatives as possible in FoFJK.
 G2DrvN: MDV=      33554312.
 G2DrvN: will do     3 centers at a time, making    1 passes.
 Calling FoFCou, ICntrl=  3107 FMM=F I1Cent=   0 AccDes= 0.00D+00.
 FoFJK:  IHMeth= 1 ICntrl=    3107 DoSepK=F KAlg= 0 I1Cent=   0 FoldK=F
 IRaf=         0 NMat=   1 IRICut=       1 DoRegI=T DoRafI=F ISym2E= 1.
 FoFCou: FMM=F IPFlag=           0 FMFlag=      100000 FMFlg1=           0
         NFxFlg=           0 DoJE=F BraDBF=F KetDBF=F FulRan=T
         wScrn=  0.000000 ICntrl=    3107 IOpCl=  1 I1Cent=           0 NGrid=           0
         NMat0=    1 NMatS0=      1 NMatT0=    0 NMatD0=    1 NMtDS0=    0 NMtDT0=    0
 Petite list used in FoFCou.
 End of G2Drv F.D. properties file   721 does not exist.
 End of G2Drv F.D. properties file   722 does not exist.
 End of G2Drv F.D. properties file   788 does not exist.
 Leave Link 1110 at Thu Jun 16 17:32:27 2016, MaxMem=    33554432 cpu:         5.8
 (Enter /home/proyectos/fulerenos/M3C-v1.9/M3C-deps_CCC/g09-AM64L-G09RevC.01/l1002.exe)
 Minotr:  UHF open shell wavefunction.
          IDoAtm=11
          Direct CPHF calculation.
          Differentiating once with respect to electric field.
                with respect to dipole field.
          Differentiating once with respect to nuclear coordinates.
          Using symmetry in CPHF.
          Requested convergence is 1.0D-08 RMS, and 1.0D-07 maximum.
          Secondary convergence is 1.0D-12 RMS, and 1.0D-12 maximum.
          NewPWx=T KeepS1=F KeepF1=F KeepIn=T MapXYZ=F SortEE=F KeepMc=T.
          MDV=      33554252 using IRadAn=       2.
 Generate precomputed XC quadrature information.
 Keep R1 and R2 ints in memory in symmetry-blocked form, NReq=6721928.
 FoFCou: FMM=F IPFlag=           0 FMFlag=           0 FMFlg1=           0
         NFxFlg=           0 DoJE=F BraDBF=F KetDBF=F FulRan=T
         wScrn=  0.000000 ICntrl=     600 IOpCl=  0 I1Cent=           0 NGrid=           0
         NMat0=    1 NMatS0=   3081 NMatT0=    0 NMatD0=    1 NMtDS0=    0 NMtDT0=    0
 Petite list used in FoFCou.
          Solving linear equations simultaneously, MaxMat=       0.
          There are     6 degrees of freedom in the 1st order CPHF.  IDoFFX=4 NUNeed=     6.
      6 vectors produced by pass  0 Test12= 1.21D-14 1.67D-08 XBig12= 1.18D+02 9.17D+00.
 AX will form     6 AO Fock derivatives at one time.
      6 vectors produced by pass  1 Test12= 1.21D-14 1.67D-08 XBig12= 3.86D+01 3.74D+00.
      6 vectors produced by pass  2 Test12= 1.21D-14 1.67D-08 XBig12= 4.59D+00 9.26D-01.
      6 vectors produced by pass  3 Test12= 1.21D-14 1.67D-08 XBig12= 1.67D-01 1.98D-01.
      6 vectors produced by pass  4 Test12= 1.21D-14 1.67D-08 XBig12= 4.98D-03 3.71D-02.
      6 vectors produced by pass  5 Test12= 1.21D-14 1.67D-08 XBig12= 3.45D-05 2.77D-03.
      6 vectors produced by pass  6 Test12= 1.21D-14 1.67D-08 XBig12= 3.50D-07 3.17D-04.
      5 vectors produced by pass  7 Test12= 1.21D-14 1.67D-08 XBig12= 2.03D-09 1.82D-05.
      2 vectors produced by pass  8 Test12= 1.21D-14 1.67D-08 XBig12= 6.20D-12 7.09D-07.
      1 vectors produced by pass  9 Test12= 1.21D-14 1.67D-08 XBig12= 2.60D-14 5.82D-08.
 InvSVY:  IOpt=1 It=  1 EMax= 6.22D-15
 Solved reduced A of dimension    50 with     6 vectors.
 FullF1:  Do perturbations    1 to     6.
 Isotropic polarizability for W=    0.000000        6.17 Bohr**3.
 End of Minotr F.D. properties file   721 does not exist.
 End of Minotr F.D. properties file   722 does not exist.
 End of Minotr F.D. properties file   788 does not exist.
 Leave Link 1002 at Thu Jun 16 17:32:32 2016, MaxMem=    33554432 cpu:        19.6
 (Enter /home/proyectos/fulerenos/M3C-v1.9/M3C-deps_CCC/g09-AM64L-G09RevC.01/l601.exe)
 Copying SCF densities to generalized density rwf, IOpCl= 1 IROHF=0.

 **********************************************************************

            Population analysis using the SCF density.

 **********************************************************************

 Orbital symmetries:
 Alpha Orbitals:
       Occupied  (SGG) (SGU) (SGG) (SGU) (PIU) (SGG)
       Virtual   (PIU) (PIG) (PIG) (SGU) (SGG) (PIU) (PIU) (SGU)
                 (?A) (?A) (?A) (PIG) (PIG) (SGU) (PIU) (PIU) (SGG)
                 (DLTU) (DLTU) (PIU) (PIU) (SGU) (PIG) (PIG) (SGG)
                 (SGU) (PIG) (PIG) (SGG) (PIU) (PIU) (SGU) (?B)
                 (?B) (?B) (DLTU) (DLTU) (PIG) (PIG) (SGU) (DLTG)
                 (DLTG) (PIU) (PIU) (SGG) (PHIU) (PHIU) (PIG) (PIG)
                 (PHIG) (PHIG) (PIU) (PIU) (SGU) (DLTU) (DLTU)
                 (SGG) (PIG) (PIG) (SGU) (DLTG) (DLTG) (PIU) (PIU)
                 (?C) (?C) (?C) (PIG) (PIG) (SGG) (SGG) (SGU)
 Beta  Orbitals:
       Occupied  (SGG) (SGU) (SGG) (SGU)
       Virtual   (PIU) (PIU) (SGG) (PIG) (PIG) (SGU) (?A) (PIU)
                 (PIU) (SGU) (?A) (?A) (?A) (PIG) (PIG) (SGU) (PIU)
                 (PIU) (SGG) (DLTU) (DLTU) (PIU) (PIU) (PIG) (SGU)
                 (PIG) (SGG) (SGU) (PIG) (PIG) (SGG) (PIU) (PIU)
                 (SGU) (?B) (?B) (?B) (DLTU) (DLTU) (PIG) (PIG)
                 (SGU) (?C) (?C) (?D) (?D) (?C) (?D) (?D) (?E)
                 (?E) (?E) (?E) (?D) (?D) (?F) (?F) (?F) (SGG)
                 (PIG) (PIG) (SGU) (DLTG) (DLTG) (PIU) (PIU) (?G)
                 (?G) (?G) (PIG) (PIG) (SGG) (SGG) (SGU)
 Unable to determine electronic state:  partially filled degenerate orbitals.
 Alpha  occ. eigenvalues --  -11.17274 -11.17244  -1.56070  -1.20241  -1.07865
 Alpha  occ. eigenvalues --   -1.07827
 Alpha virt. eigenvalues --   -0.97311  -0.82275  -0.78176  -0.51314  -0.39390
 Alpha virt. eigenvalues --   -0.31815  -0.31498  -0.29374  -0.26796  -0.26486
 Alpha virt. eigenvalues --   -0.26275  -0.23077  -0.22958  -0.14517  -0.13713
 Alpha virt. eigenvalues --   -0.13614  -0.06049  -0.05683  -0.05593  -0.01961
 Alpha virt. eigenvalues --   -0.01418   0.02112   0.02622   0.02986   0.04119
 Alpha virt. eigenvalues --    0.07834   0.20338   0.20540   0.32501   0.63348
 Alpha virt. eigenvalues --    0.64148   0.71300   0.75836   0.76212   0.88072
 Alpha virt. eigenvalues --    0.93006   0.93390   1.16938   1.17615   1.30931
 Alpha virt. eigenvalues --    1.77305   1.77507   1.81188   1.82644   1.92366
 Alpha virt. eigenvalues --    1.94597   1.94661   1.98264   1.99602   2.14160
 Alpha virt. eigenvalues --    2.14235   2.14926   2.15396   2.29322   2.54638
 Alpha virt. eigenvalues --    2.54931   2.58106   3.28195   3.28888   3.77527
 Alpha virt. eigenvalues --    6.01291   6.01749   6.04484   6.06272   6.12025
 Alpha virt. eigenvalues --    6.12432   6.47145   6.50459   6.52031   6.59973
 Alpha virt. eigenvalues --   22.44315  23.38307
  Beta  occ. eigenvalues --  -11.15334 -11.15324  -1.50055  -1.09908
  Beta virt. eigenvalues --   -0.95127  -0.91663  -0.90530  -0.75290  -0.71994
  Beta virt. eigenvalues --   -0.44861  -0.38264  -0.31473  -0.30798  -0.28157
  Beta virt. eigenvalues --   -0.26211  -0.25116  -0.25003  -0.23034  -0.22554
  Beta virt. eigenvalues --   -0.14528  -0.11890  -0.10490  -0.05046  -0.04667
  Beta virt. eigenvalues --   -0.04658  -0.01076   0.00162   0.03482   0.04079
  Beta virt. eigenvalues --    0.04448   0.06695   0.08683   0.20828   0.21804
  Beta virt. eigenvalues --    0.34274   0.67648   0.70134   0.73916   0.79891
  Beta virt. eigenvalues --    0.79989   0.94467   0.97475   0.97504   1.22088
  Beta virt. eigenvalues --    1.24439   1.36854   1.82848   1.82948   1.84466
  Beta virt. eigenvalues --    1.86874   1.97625   1.98792   1.98818   2.00854
  Beta virt. eigenvalues --    2.03646   2.18421   2.18444   2.19294   2.21931
  Beta virt. eigenvalues --    2.34691   2.59817   2.59907   2.63481   3.32374
  Beta virt. eigenvalues --    3.35186   3.82785   6.06079   6.06099   6.10702
  Beta virt. eigenvalues --    6.13216   6.16769   6.16838   6.53158   6.56405
  Beta virt. eigenvalues --    6.58995   6.66877  22.46382  23.40548
          Condensed to atoms (all electrons):
               1          2
     1  C    5.906214  -0.906214
     2  C   -0.906214   5.906214
          Atomic-Atomic Spin Densities.
               1          2
     1  C    0.686234   0.313766
     2  C    0.313766   0.686234
 Mulliken charges and spin densities:
               1          2
     1  C    1.000000   1.000000
     2  C    1.000000   1.000000
 Sum of Mulliken charges =   2.00000   2.00000
 Mulliken charges and spin densities with hydrogens summed into heavy atoms:
               1          2
     1  C    1.000000   1.000000
     2  C    1.000000   1.000000
 APT charges:
               1
     1  C    1.000000
     2  C    1.000000
 Sum of APT charges =   2.00000
 APT charges with hydrogens summed into heavy atoms:
               1
     1  C    1.000000
     2  C    1.000000
 Electronic spatial extent (au):  <R**2>=             35.0669
 Charge=              2.0000 electrons
 Dipole moment (field-independent basis, Debye):
    X=              0.0000    Y=             -0.0000    Z=             -0.0000  Tot=              0.0000
 Quadrupole moment (field-independent basis, Debye-Ang):
   XX=             -5.6718   YY=             -7.0969   ZZ=             -1.9045
   XY=             -0.0000   XZ=             -0.0000   YZ=              0.0000
 Traceless Quadrupole moment (field-independent basis, Debye-Ang):
   XX=             -0.7808   YY=             -2.2058   ZZ=              2.9866
   XY=             -0.0000   XZ=             -0.0000   YZ=              0.0000
 Octapole moment (field-independent basis, Debye-Ang**2):
  XXX=             -0.0000  YYY=              0.0000  ZZZ=             -0.0000  XYY=             -0.0000
  XXY=             -0.0000  XXZ=             -0.0000  XZZ=             -0.0000  YZZ=             -0.0000
  YYZ=             -0.0000  XYZ=              0.0000
 Hexadecapole moment (field-independent basis, Debye-Ang**3):
 XXXX=             -3.9027 YYYY=             -5.8495 ZZZZ=            -28.3376 XXXY=             -0.0000
 XXXZ=              0.0000 YYYX=             -0.0000 YYYZ=              0.0000 ZZZX=              0.0000
 ZZZY=              0.0000 XXYY=             -1.6246 XXZZ=             -5.0465 YYZZ=             -5.8224
 XXYZ=              0.0000 YYXZ=              0.0000 ZZXY=             -0.0000
 N-N= 1.268631497477D+01 E-N=-1.914940116002D+02  KE= 7.469802088975D+01
 Symmetry AG   KE= 3.719403192284D+01
 Symmetry B1G  KE= 6.523839110485D-35
 Symmetry B2G  KE= 6.653598949101D-32
 Symmetry B3G  KE= 1.367194025557D-31
 Symmetry AU   KE= 2.843733981922D-34
 Symmetry B1U  KE= 3.607098237621D+01
 Symmetry B2U  KE= 1.433006590709D+00
 Symmetry B3U  KE= 1.337898522980D-32
  Exact polarizability: -17.305   0.000   8.934   0.000   0.000  26.890
 Approx polarizability:  15.935  -0.000  12.368  -0.000  -0.000  53.990
                          Isotropic Fermi Contact Couplings
        Atom                 a.u.       MegaHertz       Gauss      10(-4) cm-1
     1  C(13)              0.24061     135.24532      48.25889      45.11298
     2  C(13)              0.24061     135.24532      48.25889      45.11298
 --------------------------------------------------------
       Center         ----  Spin Dipole Couplings  ----
                      3XX-RR        3YY-RR        3ZZ-RR
 --------------------------------------------------------
     1   Atom       -0.876473      0.372762      0.503711
     2   Atom       -0.876473      0.372762      0.503711
 --------------------------------------------------------
                        XY            XZ            YZ
 --------------------------------------------------------
     1   Atom        0.000000     -0.000000      0.000000
     2   Atom        0.000000     -0.000000      0.000000
 --------------------------------------------------------


 ---------------------------------------------------------------------------------
              Anisotropic Spin Dipole Couplings in Principal Axis System
 ---------------------------------------------------------------------------------

       Atom             a.u.   MegaHertz   Gauss  10(-4) cm-1        Axes

              Baa    -0.8765  -117.614   -41.968   -39.232  1.0000  0.0000  0.0000
     1 C(13)  Bbb     0.3728    50.021    17.849    16.685  0.0000  1.0000  0.0000
              Bcc     0.5037    67.593    24.119    22.547  0.0000  0.0000  1.0000
 
              Baa    -0.8765  -117.614   -41.968   -39.232  1.0000  0.0000  0.0000
     2 C(13)  Bbb     0.3728    50.021    17.849    16.685  0.0000  1.0000  0.0000
              Bcc     0.5037    67.593    24.119    22.547  0.0000  0.0000  1.0000
 

 ---------------------------------------------------------------------------------

 No NMR shielding tensors so no spin-rotation constants.
 Leave Link  601 at Thu Jun 16 17:32:33 2016, MaxMem=    33554432 cpu:         2.5
 (Enter /home/proyectos/fulerenos/M3C-v1.9/M3C-deps_CCC/g09-AM64L-G09RevC.01/l701.exe)
 Compute integral second derivatives.
 ... and contract with generalized density number  0.
 Leave Link  701 at Thu Jun 16 17:32:35 2016, MaxMem=    33554432 cpu:         1.3
 (Enter /home/proyectos/fulerenos/M3C-v1.9/M3C-deps_CCC/g09-AM64L-G09RevC.01/l702.exe)
 L702 exits ... SP integral derivatives will be done elsewhere.
 Leave Link  702 at Thu Jun 16 17:32:35 2016, MaxMem=    33554432 cpu:         0.1
 (Enter /home/proyectos/fulerenos/M3C-v1.9/M3C-deps_CCC/g09-AM64L-G09RevC.01/l703.exe)
 Compute integral second derivatives, UseDBF=F ICtDFT=           0.
 Integral derivatives from FoFJK, PRISM(SPDF).
 Calling FoFJK, ICntrl=    100127 FMM=F ISym2X=1 I1Cent= 0 IOpClX= 1 NMat=1 NMatS=1 NMatT=0.
 FoFJK:  IHMeth= 1 ICntrl=  100127 DoSepK=F KAlg= 0 I1Cent=   0 FoldK=F
 IRaf=         0 NMat=   1 IRICut=       1 DoRegI=T DoRafI=F ISym2E= 1.
 FoFCou: FMM=F IPFlag=           0 FMFlag=      100000 FMFlg1=         800
         NFxFlg=           0 DoJE=F BraDBF=F KetDBF=F FulRan=T
         wScrn=  0.000000 ICntrl=  100127 IOpCl=  1 I1Cent=           0 NGrid=           0
         NMat0=    1 NMatS0=      1 NMatT0=    0 NMatD0=    1 NMtDS0=    0 NMtDT0=    0
 Petite list used in FoFCou.
 Leave Link  703 at Thu Jun 16 17:32:39 2016, MaxMem=    33554432 cpu:        14.3
 (Enter /home/proyectos/fulerenos/M3C-v1.9/M3C-deps_CCC/g09-AM64L-G09RevC.01/l716.exe)
 Dipole        = 1.73759223D-16 1.54074396D-33 1.34115999D-15
 Polarizability=-1.73047034D+01 2.58908010D-09 8.93428386D+00
                 2.49502618D-08 1.90356117D-10 2.68902667D+01
 Full mass-weighted force constant matrix:
 Low frequencies --- -375.5857 -375.5387   -0.0009    0.0004    0.0005 1178.4440
 Diagonal vibrational polarizability:
        0.0000000       0.0000000       0.0000000
 Harmonic frequencies (cm**-1), IR intensities (KM/Mole), Raman scattering
 activities (A**4/AMU), depolarization ratios for plane and unpolarized
 incident light, reduced masses (AMU), force constants (mDyne/A),
 and normal coordinates:
                      1
                     SGG
 Frequencies --   1178.4440
 Red. masses --     12.0000
 Frc consts  --      9.8186
 IR Inten    --      0.0000
  Atom  AN      X      Y      Z
     1   6    -0.00   0.00   0.71
     2   6     0.00   0.00  -0.71

 -------------------
 - Thermochemistry -
 -------------------
 Temperature   298.150 Kelvin.  Pressure   1.00000 Atm.
 Atom     1 has atomic number  6 and mass  12.00000
 Atom     2 has atomic number  6 and mass  12.00000
 Molecular mass:    24.00000 amu.
 Principal axes and moments of inertia in atomic units:
                           1         2         3
     Eigenvalues --     0.00000  48.31537  48.31537
           X           -0.00000   1.00000  -0.00000
           Y            0.00000   0.00000   1.00000
           Z            1.00000   0.00000  -0.00000
 This molecule is a prolate symmetric top.
 Rotational symmetry number  2.
 Rotational temperature (Kelvin)      1.79268
 Rotational constant (GHZ):          37.353359
 Zero-point vibrational energy       7048.7 (Joules/Mol)
                                    1.68467 (Kcal/Mol)
 Vibrational temperatures:   1695.52
          (Kelvin)
 
 Zero-point correction=                           0.002685 (Hartree/Particle)
 Thermal correction to Energy=                    0.005063
 Thermal correction to Enthalpy=                  0.006008
 Thermal correction to Gibbs Free Energy=        -0.017019
 Sum of electronic and zero-point Energies=            -74.662599
 Sum of electronic and thermal Energies=               -74.660220
 Sum of electronic and thermal Enthalpies=             -74.659276
 Sum of electronic and thermal Free Energies=          -74.682303
 
                     E (Thermal)             CV                S
                      KCal/Mol        Cal/Mol-Kelvin    Cal/Mol-Kelvin
 Total                    3.177              5.187             48.465
 Electronic               0.000              0.000              2.183
 Translational            0.889              2.981             35.464
 Rotational               0.592              1.987             10.772
 Vibrational              1.696              0.219              0.045
                       Q            Log10(Q)             Ln(Q)
 Total Bot       0.673598D+08          7.828401         18.025559
 Total V=0       0.115683D+10          9.063271         20.868953
 Vib (Bot)       0.584258D-01         -1.233395         -2.839998
 Vib (V=0)       0.100340D+01          0.001475          0.003396
 Electronic      0.300000D+01          0.477121          1.098612
 Translational   0.462138D+07          6.664772         15.346205
 Rotational      0.831578D+02          1.919903          4.420740
 ***** Axes restored to original set *****
 -------------------------------------------------------------------
 Center     Atomic                   Forces (Hartrees/Bohr)
 Number     Number              X              Y              Z
 -------------------------------------------------------------------
      1        6           0.090856086    0.000000000   -0.000000000
      2        6          -0.090856086   -0.000000000    0.000000000
 -------------------------------------------------------------------
 Cartesian Forces:  Max     0.090856086 RMS     0.052455786
 Z-matrix is all fixed cartesians, so copy forces.
 Force constants in Cartesian coordinates: 
                1             2             3             4             5 
      1  0.315327D+00
      2  0.000000D+00 -0.320223D-01
      3  0.000000D+00  0.000000D+00 -0.320303D-01
      4 -0.315327D+00  0.000000D+00  0.000000D+00  0.315327D+00
      5  0.000000D+00  0.320223D-01  0.000000D+00  0.000000D+00 -0.320223D-01
      6  0.000000D+00  0.000000D+00  0.320303D-01  0.000000D+00  0.000000D+00
                6 
      6 -0.320303D-01
 Leave Link  716 at Thu Jun 16 17:32:41 2016, MaxMem=    33554432 cpu:         0.1
 (Enter /home/proyectos/fulerenos/M3C-v1.9/M3C-deps_CCC/g09-AM64L-G09RevC.01/l103.exe)

 GradGradGradGradGradGradGradGradGradGradGradGradGradGradGradGradGradGrad
 Berny optimization.
 Search for a local minimum.
 Step number   1 out of a maximum of    2
 All quantities printed in internal units (Hartrees-Bohrs-Radians)
 Second derivative matrix not updated -- analytic derivatives used.
 The second derivative matrix:
                          X1        Y1        Z1        X2        Y2
           X1           0.31533
           Y1          -0.00000  -0.03202
           Z1          -0.00000   0.00000  -0.03203
           X2          -0.31533   0.00000   0.00000   0.31533
           Y2          -0.00000   0.03202  -0.00000   0.00000  -0.03202
           Z2           0.00000   0.00000   0.03203  -0.00000  -0.00000
                          Z2
           Z2          -0.03203
 ITU=  0
     Eigenvalues ---    0.63065
 Angle between quadratic step and forces=   0.00 degrees.
 ClnCor:  largest displacement from symmetrization is 8.82D-18 for atom     1.
 Linear search not attempted -- first point.
 ClnCor:  largest displacement from symmetrization is 0.00D+00 for atom     0.
 B after Tr=     0.000000    0.000000    0.000000
         Rot=    1.000000    0.000000    0.000000    0.000000 Ang=   0.00 deg.
 Variable       Old X    -DE/DX   Delta X   Delta X   Delta X     New X
                                 (Linear)    (Quad)   (Total)
    X1        1.41885   0.09086   0.00000   0.14407   0.14407   1.56292
    Y1        0.00000   0.00000   0.00000   0.00000   0.00000   0.00000
    Z1        0.00000  -0.00000   0.00000   0.00000   0.00000   0.00000
    X2       -1.41885  -0.09086   0.00000  -0.14407  -0.14407  -1.56292
    Y2        0.00000  -0.00000   0.00000   0.00000   0.00000   0.00000
    Z2       -0.00000   0.00000   0.00000  -0.00000  -0.00000  -0.00000
         Item               Value     Threshold  Converged?
 Maximum Force            0.090856     0.000450     NO 
 RMS     Force            0.052456     0.000300     NO 
 Maximum Displacement     0.144067     0.001800     NO 
 RMS     Displacement     0.083177     0.001200     NO 
 Predicted change in Energy=-1.308933D-02
 GradGradGradGradGradGradGradGradGradGradGradGradGradGradGradGradGradGrad

 Leave Link  103 at Thu Jun 16 17:32:41 2016, MaxMem=    33554432 cpu:         0.1
 (Enter /home/proyectos/fulerenos/M3C-v1.9/M3C-deps_CCC/g09-AM64L-G09RevC.01/l9999.exe)
 1\1\GINC-BLADI22\Freq\UB3LYP\6-311+G(3df)\C2(2+,3)\ROOT\16-Jun-2016\0\
 \#p b3lyp/6-311+G(3df) freq symmetry=Loose\\b3lyp opt\\2,3\C,0.750824,
 0.,0.\C,-0.750824,0.,0.\\Version=EM64L-G09RevE.01\HF=-74.6652833\S2=2.
 00629\S2-1=0.\S2A=2.000005\RMSD=6.698e-10\RMSF=5.246e-02\ZeroPoint=0.0
 026847\Thermal=0.0050634\Dipole=0.,0.,0.\DipoleDeriv=1.,0.,0.,0.,1.,0.
 ,0.,0.,1.,1.,0.,0.,0.,1.,0.,0.,0.,1.\Polar=26.8902667,0.,8.9342839,0.,
 0.,-17.3047034\PG=D*H [C*(C1.C1)]\NImag=0\\0.31532661,0.,-0.03202226,0
 .,0.,-0.03203029,-0.31532661,0.,0.,0.31532661,0.,0.03202226,0.,0.,-0.0
 3202226,0.,0.,0.03203029,0.,0.,-0.03203029\\-0.09085609,0.,0.,0.090856
 09,0.,0.\\\@


 Sometimes the fool who rushes in gets the job done.
                                    -- Al Bernstein
 Job cpu time:       0 days  0 hours  0 minutes 53.3 seconds.
 File lengths (MBytes):  RWF=      6 Int=      0 D2E=      0 Chk=      2 Scr=      1
 Normal termination of Gaussian 09 at Thu Jun 16 17:32:41 2016.
