 Entering Gaussian System, Link 0=/home/nestor/.gaussian09/g09
 Initial command:
 /home/nestor/.gaussian09/l1.exe /scratch/nestor/gaussian/Gau-9775.inp -scrdir=/scratch/nestor/gaussian/
 Entering Link 1 = /home/nestor/.gaussian09/l1.exe PID=      9777.
  
 Copyright (c) 1988,1990,1992,1993,1995,1998,2003,2009,2011,
            Gaussian, Inc.  All Rights Reserved.
  
 This is part of the Gaussian(R) 09 program.  It is based on
 the Gaussian(R) 03 system (copyright 2003, Gaussian, Inc.),
 the Gaussian(R) 98 system (copyright 1998, Gaussian, Inc.),
 the Gaussian(R) 94 system (copyright 1995, Gaussian, Inc.),
 the Gaussian 92(TM) system (copyright 1992, Gaussian, Inc.),
 the Gaussian 90(TM) system (copyright 1990, Gaussian, Inc.),
 the Gaussian 88(TM) system (copyright 1988, Gaussian, Inc.),
 the Gaussian 86(TM) system (copyright 1986, Carnegie Mellon
 University), and the Gaussian 82(TM) system (copyright 1983,
 Carnegie Mellon University). Gaussian is a federally registered
 trademark of Gaussian, Inc.
  
 This software contains proprietary and confidential information,
 including trade secrets, belonging to Gaussian, Inc.
  
 This software is provided under written license and may be
 used, copied, transmitted, or stored only in accord with that
 written license.
  
 The following legend is applicable only to US Government
 contracts under FAR:
  
                    RESTRICTED RIGHTS LEGEND
  
 Use, reproduction and disclosure by the US Government is
 subject to restrictions as set forth in subparagraphs (a)
 and (c) of the Commercial Computer Software - Restricted
 Rights clause in FAR 52.227-19.
  
 Gaussian, Inc.
 340 Quinnipiac St., Bldg. 40, Wallingford CT 06492
  
  
 ---------------------------------------------------------------
 Warning -- This program may not be used in any manner that
 competes with the business of Gaussian, Inc. or will provide
 assistance to any competitor of Gaussian, Inc.  The licensee
 of this program is prohibited from giving any competitor of
 Gaussian, Inc. access to this program.  By using this program,
 the user acknowledges that Gaussian, Inc. is engaged in the
 business of creating and licensing software in the field of
 computational chemistry and represents and warrants to the
 licensee that it is not a competitor of Gaussian, Inc. and that
 it will not use this program in any manner prohibited above.
 ---------------------------------------------------------------
  

 Cite this work as:
 Gaussian 09, Revision C.01,
 M. J. Frisch, G. W. Trucks, H. B. Schlegel, G. E. Scuseria, 
 M. A. Robb, J. R. Cheeseman, G. Scalmani, V. Barone, B. Mennucci, 
 G. A. Petersson, H. Nakatsuji, M. Caricato, X. Li, H. P. Hratchian, 
 A. F. Izmaylov, J. Bloino, G. Zheng, J. L. Sonnenberg, M. Hada, 
 M. Ehara, K. Toyota, R. Fukuda, J. Hasegawa, M. Ishida, T. Nakajima, 
 Y. Honda, O. Kitao, H. Nakai, T. Vreven, J. A. Montgomery, Jr., 
 J. E. Peralta, F. Ogliaro, M. Bearpark, J. J. Heyd, E. Brothers, 
 K. N. Kudin, V. N. Staroverov, T. Keith, R. Kobayashi, J. Normand, 
 K. Raghavachari, A. Rendell, J. C. Burant, S. S. Iyengar, J. Tomasi, 
 M. Cossi, N. Rega, J. M. Millam, M. Klene, J. E. Knox, J. B. Cross, 
 V. Bakken, C. Adamo, J. Jaramillo, R. Gomperts, R. E. Stratmann, 
 O. Yazyev, A. J. Austin, R. Cammi, C. Pomelli, J. W. Ochterski, 
 R. L. Martin, K. Morokuma, V. G. Zakrzewski, G. A. Voth, 
 P. Salvador, J. J. Dannenberg, S. Dapprich, A. D. Daniels, 
 O. Farkas, J. B. Foresman, J. V. Ortiz, J. Cioslowski, 
 and D. J. Fox, Gaussian, Inc., Wallingford CT, 2010.
 
 ******************************************
 Gaussian 09:  AM64L-G09RevC.01 23-Sep-2011
                 6-Jul-2016 
 ******************************************
 %NProcShared=2
 Will use up to    2 processors via shared memory.
 ---------------------------------------------
 #p b3lyp/6-311++G(3df,2p) freq symmetry=Loose
 ---------------------------------------------
 1/10=4,30=1,38=1/1,3;
 2/12=2,17=4,18=3,40=1/2;
 3/5=4,6=6,7=1216,11=2,16=1,25=1,30=1,71=2,74=-5/1,2,3;
 4//1;
 5/5=2,38=5,98=1/2;
 8/6=4,10=90,11=11/1;
 11/6=1,8=1,9=11,15=111,16=1/1,2,10;
 10/6=1/2;
 6/7=2,8=2,9=2,10=2,18=1,28=1/1;
 7/8=1,10=1,25=1/1,2,3,16;
 1/10=4,30=1/3;
 99//99;
 Leave Link    1 at Wed Jul  6 00:01:42 2016, MaxMem=          0 cpu:       0.0
 (Enter /home/nestor/.gaussian09/l101.exe)
 ---------
 b3lyp opt
 ---------
 Charge =  0 Multiplicity = 3
 Symbolic Z-Matrix:
 C                     0.85619   0.47051   0.1868 
 C                    -0.31189   0.72529  -0.60499 
 C                     0.38471  -0.8822    0.25111 
 C                    -0.92901  -0.3136    0.16708 
 
 NAtoms=      4 NQM=        0 NQMF=       0 NMMI=      4 NMMIF=      0
                NMic=       0 NMicF=      0.
                    Isotopes and Nuclear Properties:
 (Nuclear quadrupole moments (NQMom) in fm**2, nuclear magnetic moments (NMagM)
  in nuclear magnetons)

  Atom         1           2           3           4
 IAtWgt=          12          12          12          12
 AtmWgt=  12.0000000  12.0000000  12.0000000  12.0000000
 NucSpn=           0           0           0           0
 AtZEff=   0.0000000   0.0000000   0.0000000   0.0000000
 NQMom=    0.0000000   0.0000000   0.0000000   0.0000000
 NMagM=    0.0000000   0.0000000   0.0000000   0.0000000
 Leave Link  101 at Wed Jul  6 00:01:43 2016, MaxMem=   33554432 cpu:       0.1
 (Enter /home/nestor/.gaussian09/l103.exe)

 GradGradGradGradGradGradGradGradGradGradGradGradGradGradGradGradGradGrad
 Berny optimization.
 Initialization pass.
 Trust Radius=3.00D-01 FncErr=1.00D-07 GrdErr=1.00D-07
 Number of steps in this run=      2 maximum allowed number of steps=      2.
 GradGradGradGradGradGradGradGradGradGradGradGradGradGradGradGradGradGrad

 Leave Link  103 at Wed Jul  6 00:01:43 2016, MaxMem=   33554432 cpu:       0.1
 (Enter /home/nestor/.gaussian09/l202.exe)
                          Input orientation:                          
 ---------------------------------------------------------------------
 Center     Atomic      Atomic             Coordinates (Angstroms)
 Number     Number       Type             X           Y           Z
 ---------------------------------------------------------------------
      1          6           0        0.856189    0.470510    0.186797
      2          6           0       -0.311889    0.725292   -0.604987
      3          6           0        0.384714   -0.882198    0.251107
      4          6           0       -0.929015   -0.313604    0.167083
 ---------------------------------------------------------------------
                    Distance matrix (angstroms):
                    1          2          3          4
     1  C    0.000000
     2  C    1.433960   0.000000
     3  C    1.433960   1.949917   0.000000
     4  C    1.949917   1.433960   1.433960   0.000000
 Stoichiometry    C4(3)
 Framework group  D2D[2SGD(C2)]
 Deg. of freedom     2
 Full point group                 D2D     NOp   8
 Largest Abelian subgroup         C2V     NOp   4
 Largest concise Abelian subgroup C2V     NOp   4
                         Standard orientation:                         
 ---------------------------------------------------------------------
 Center     Atomic      Atomic             Coordinates (Angstroms)
 Number     Number       Type             X           Y           Z
 ---------------------------------------------------------------------
      1          6           0        0.000000    0.974959    0.196948
      2          6           0       -0.974959    0.000000   -0.196948
      3          6           0        0.974959    0.000000   -0.196948
      4          6           0        0.000000   -0.974959    0.196948
 ---------------------------------------------------------------------
 Rotational constants (GHZ):     20.4814978     20.4814978     11.0765265
 Leave Link  202 at Wed Jul  6 00:01:43 2016, MaxMem=   33554432 cpu:       0.0
 (Enter /home/nestor/.gaussian09/l301.exe)
 Standard basis: 6-311++G(3df,2p) (5D, 7F)
 Ernie: Thresh=  0.10000D-02 Tol=  0.10000D-05 Strict=F.
 There are    52 symmetry adapted basis functions of A1  symmetry.
 There are    26 symmetry adapted basis functions of A2  symmetry.
 There are    39 symmetry adapted basis functions of B1  symmetry.
 There are    39 symmetry adapted basis functions of B2  symmetry.
 Integral buffers will be    131072 words long.
 Raffenetti 2 integral format.
 Two-electron integral symmetry is turned on.
   156 basis functions,   232 primitive gaussians,   180 cartesian basis functions
    13 alpha electrons       11 beta electrons
       nuclear repulsion energy        72.6802863299 Hartrees.
 IExCor=  402 DFT=T Ex+Corr=B3LYP ExCW=0 ScaHFX=  0.200000
 ScaDFX=  0.800000  0.720000  1.000000  0.810000 ScalE2=  1.000000  1.000000
 IRadAn=      0 IRanWt=     -1 IRanGd=            0 ICorTp=0
 NAtoms=    4 NActive=    4 NUniq=    1 SFac= 4.00D+00 NAtFMM=   60 NAOKFM=F Big=F
 Leave Link  301 at Wed Jul  6 00:01:43 2016, MaxMem=   33554432 cpu:       0.1
 (Enter /home/nestor/.gaussian09/l302.exe)
 NPDir=0 NMtPBC=     1 NCelOv=     1 NCel=       1 NClECP=     1 NCelD=      1
         NCelK=      1 NCelE2=     1 NClLst=     1 CellRange=     0.0.
 One-electron integrals computed using PRISM.
 One-electron integral symmetry used in STVInt
 NBasis=   156 RedAO= T  NBF=    52    26    39    39
 NBsUse=   156 1.00D-06 NBFU=    52    26    39    39
 Precomputing XC quadrature grid using
 IXCGrd= 2 IRadAn=           0 IRanWt=          -1 IRanGd=           0 AccXCQ= 0.00D+00.
 NRdTot=     252 NPtTot=       32184 NUsed=       34013 NTot=       34045
 NSgBfM=   180   180   180   180   180 NAtAll=     4     4.
 Leave Link  302 at Wed Jul  6 00:01:43 2016, MaxMem=   33554432 cpu:       0.7
 (Enter /home/nestor/.gaussian09/l303.exe)
 DipDrv:  MaxL=1.
 Leave Link  303 at Wed Jul  6 00:01:44 2016, MaxMem=   33554432 cpu:       0.1
 (Enter /home/nestor/.gaussian09/l401.exe)
 Harris functional with IExCor=  402 diagonalized for initial guess.
 ExpMin= 4.38D-02 ExpMax= 4.56D+03 ExpMxC= 6.82D+02 IAcc=2 IRadAn=         4 AccDes= 0.00D+00
 HarFok:  IExCor=  402 AccDes= 0.00D+00 IRadAn=         4 IDoV= 1
 ScaDFX=  1.000000  1.000000  1.000000  1.000000
 FoFCou: FMM=F IPFlag=           0 FMFlag=      100000 FMFlg1=           0
         NFxFlg=           0 DoJE=T BraDBF=F KetDBF=T FulRan=T
         Omega=  0.000000  0.000000  1.000000  0.000000  0.000000 ICntrl=     500 IOpCl=  0
         NMat0=    1 NMatS0=    1 NMatT0=    0 NMatD0=    1 NMtDS0=    0 NMtDT0=    0
         I1Cent=           4 NGrid=           0.
 Petite list used in FoFCou.
 Harris En= -152.008712340428    
 Initial guess orbital symmetries:
 Alpha Orbitals:
       Occupied  (A1) (E) (E) (B2) (A1) (E) (E) (B1) (B2) (A1)
                 (B2) (E) (E)
       Virtual   (E) (E) (A1) (A1) (E) (E) (B2) (B1) (B2) (E) (E)
                 (A1) (E) (E) (A2) (A1) (B2) (E) (E) (E) (E) (A2)
                 (B2) (A1) (B1) (E) (E) (A2) (B2) (A1) (E) (E)
                 (B2) (E) (E) (A1) (E) (E) (A1) (E) (E) (B2) (B1)
                 (A2) (B2) (A1) (E) (E) (E) (E) (B2) (B1) (A2)
                 (E) (E) (A1) (A1) (B2) (E) (E) (B2) (A2) (E) (E)
                 (B1) (E) (E) (A1) (E) (E) (B1) (B2) (E) (E) (A1)
                 (E) (E) (B2) (A2) (B2) (A1) (B2) (E) (E) (B1)
                 (E) (E) (A1) (A1) (B1) (E) (E) (A2) (E) (E) (B2)
                 (A2) (B2) (E) (E) (B1) (A1) (E) (E) (A1) (E) (E)
                 (A2) (B2) (E) (E) (A1) (B1) (E) (E) (E) (E) (B2)
                 (A2) (B2) (A1) (A2) (E) (E) (B2) (E) (E) (A1)
                 (B1) (E) (E) (A1) (E) (E) (E) (E) (B2) (B1) (A2)
                 (A1) (B2) (E) (E)
 Beta  Orbitals:
       Occupied  (A1) (E) (E) (B2) (A1) (E) (E) (B1) (B2) (A1)
                 (B2)
       Virtual   (E) (E) (E) (E) (A1) (A1) (E) (E) (B2) (B1) (B2)
                 (E) (E) (A1) (E) (E) (A2) (A1) (B2) (E) (E) (E)
                 (E) (A2) (B2) (A1) (B1) (E) (E) (A2) (B2) (A1)
                 (E) (E) (B2) (E) (E) (A1) (E) (E) (A1) (E) (E)
                 (B2) (B1) (A2) (B2) (A1) (E) (E) (E) (E) (B2)
                 (B1) (A2) (E) (E) (A1) (A1) (B2) (E) (E) (B2)
                 (A2) (E) (E) (B1) (E) (E) (A1) (E) (E) (B1) (B2)
                 (E) (E) (A1) (E) (E) (B2) (A2) (B2) (A1) (B2)
                 (E) (E) (B1) (E) (E) (A1) (A1) (B1) (E) (E) (A2)
                 (E) (E) (B2) (A2) (B2) (E) (E) (B1) (A1) (E) (E)
                 (A1) (E) (E) (A2) (B2) (E) (E) (A1) (B1) (E) (E)
                 (E) (E) (B2) (A2) (B2) (A1) (A2) (E) (E) (B2)
                 (E) (E) (A1) (B1) (E) (E) (A1) (E) (E) (E) (E)
                 (B2) (B1) (A2) (A1) (B2) (E) (E)
 The electronic state of the initial guess is 3-A1.
 Initial guess <Sx>= 0.0000 <Sy>= 0.0000 <Sz>= 1.0000 <S**2>= 2.0000 S= 1.0000
 Leave Link  401 at Wed Jul  6 00:01:44 2016, MaxMem=   33554432 cpu:       0.7
 (Enter /home/nestor/.gaussian09/l502.exe)
 UHF open shell SCF:
 Requested convergence on RMS density matrix=1.00D-08 within 128 cycles.
 Requested convergence on MAX density matrix=1.00D-06.
 Requested convergence on             energy=1.00D-06.
 No special actions if energy rises.
 Using DIIS extrapolation, IDIIS=  1040.
 Integral symmetry usage will be decided dynamically.
        33964 words used for storage of precomputed grid.
 IEnd=      152390 IEndB=      152390 NGot=    33554432 MDV=    33451263
 LenX=    33451263 LenY=    33418422
 Fock matrices will be formed incrementally for  20 cycles.

 Cycle   1  Pass 1  IDiag  1:
 FoFCou: FMM=F IPFlag=           0 FMFlag=      100000 FMFlg1=           0
         NFxFlg=           0 DoJE=F BraDBF=F KetDBF=F FulRan=T
         Omega=  0.000000  0.000000  1.000000  0.000000  0.000000 ICntrl=       0 IOpCl=  1
         NMat0=    1 NMatS0=    1 NMatT0=    0 NMatD0=    1 NMtDS0=    0 NMtDT0=    0
         I1Cent=           0 NGrid=           0.
 Petite list used in FoFCou.
 E= -152.055943150396    
 DIIS: error= 1.34D-02 at cycle   1 NSaved=   1.
 NSaved= 1 IEnMin= 1 EnMin= -152.055943150396     IErMin= 1 ErrMin= 1.34D-02
 ErrMax= 1.34D-02 EMaxC= 1.00D-01 BMatC= 7.17D-02 BMatP= 7.17D-02
 IDIUse=3 WtCom= 8.66D-01 WtEn= 1.34D-01
 Coeff-Com:  0.100D+01
 Coeff-En:   0.100D+01
 Coeff:      0.100D+01
 Gap=     0.190 Goal=   None    Shift=    0.000
 Gap=     0.111 Goal=   None    Shift=    0.000
 GapD=    0.111 DampG=1.000 DampE=0.500 DampFc=0.5000 IDamp=-1.
 Damping current iteration by 5.00D-01
 RMSDP=3.49D-03 MaxDP=1.11D-01              OVMax= 6.44D-02

 Cycle   2  Pass 1  IDiag  1:
 RMSU=  9.04D-04    CP:  9.47D-01
 E= -152.064292641488     Delta-E=       -0.008349491093 Rises=F Damp=T
 DIIS: error= 5.17D-03 at cycle   2 NSaved=   2.
 NSaved= 2 IEnMin= 2 EnMin= -152.064292641488     IErMin= 2 ErrMin= 5.17D-03
 ErrMax= 5.17D-03 EMaxC= 1.00D-01 BMatC= 1.15D-02 BMatP= 7.17D-02
 IDIUse=3 WtCom= 9.48D-01 WtEn= 5.17D-02
 Coeff-Com: -0.388D+00 0.139D+01
 Coeff-En:   0.000D+00 0.100D+01
 Coeff:     -0.368D+00 0.137D+01
 Gap=     0.188 Goal=   None    Shift=    0.000
 Gap=     0.108 Goal=   None    Shift=    0.000
 RMSDP=1.70D-03 MaxDP=6.18D-02 DE=-8.35D-03 OVMax= 2.48D-02

 Cycle   3  Pass 1  IDiag  1:
 RMSU=  8.27D-04    CP:  9.02D-01  1.73D+00
 E= -152.072506094332     Delta-E=       -0.008213452843 Rises=F Damp=F
 DIIS: error= 3.60D-03 at cycle   3 NSaved=   3.
 NSaved= 3 IEnMin= 3 EnMin= -152.072506094332     IErMin= 3 ErrMin= 3.60D-03
 ErrMax= 3.60D-03 EMaxC= 1.00D-01 BMatC= 1.88D-03 BMatP= 1.15D-02
 IDIUse=3 WtCom= 9.64D-01 WtEn= 3.60D-02
 Coeff-Com: -0.220D+00 0.444D+00 0.776D+00
 Coeff-En:   0.000D+00 0.000D+00 0.100D+01
 Coeff:     -0.212D+00 0.428D+00 0.784D+00
 Gap=     0.191 Goal=   None    Shift=    0.000
 Gap=     0.112 Goal=   None    Shift=    0.000
 RMSDP=3.68D-04 MaxDP=1.07D-02 DE=-8.21D-03 OVMax= 8.74D-03

 Cycle   4  Pass 1  IDiag  1:
 RMSU=  1.37D-04    CP:  8.96D-01  1.90D+00  8.35D-01
 E= -152.073045161810     Delta-E=       -0.000539067478 Rises=F Damp=F
 DIIS: error= 6.24D-04 at cycle   4 NSaved=   4.
 NSaved= 4 IEnMin= 4 EnMin= -152.073045161810     IErMin= 4 ErrMin= 6.24D-04
 ErrMax= 6.24D-04 EMaxC= 1.00D-01 BMatC= 5.86D-05 BMatP= 1.88D-03
 IDIUse=3 WtCom= 9.94D-01 WtEn= 6.24D-03
 Coeff-Com: -0.210D-02-0.299D-01 0.100D+00 0.932D+00
 Coeff-En:   0.000D+00 0.000D+00 0.000D+00 0.100D+01
 Coeff:     -0.209D-02-0.298D-01 0.996D-01 0.932D+00
 Gap=     0.192 Goal=   None    Shift=    0.000
 Gap=     0.113 Goal=   None    Shift=    0.000
 RMSDP=1.10D-04 MaxDP=3.26D-03 DE=-5.39D-04 OVMax= 3.28D-03

 Cycle   5  Pass 1  IDiag  1:
 RMSU=  4.95D-05    CP:  8.98D-01  1.93D+00  8.33D-01  1.27D+00
 E= -152.073074014145     Delta-E=       -0.000028852335 Rises=F Damp=F
 DIIS: error= 1.12D-04 at cycle   5 NSaved=   5.
 NSaved= 5 IEnMin= 5 EnMin= -152.073074014145     IErMin= 5 ErrMin= 1.12D-04
 ErrMax= 1.12D-04 EMaxC= 1.00D-01 BMatC= 3.47D-06 BMatP= 5.86D-05
 IDIUse=3 WtCom= 9.99D-01 WtEn= 1.12D-03
 Coeff-Com:  0.211D-01-0.407D-01-0.697D-01-0.740D-02 0.110D+01
 Coeff-En:   0.000D+00 0.000D+00 0.000D+00 0.000D+00 0.100D+01
 Coeff:      0.211D-01-0.406D-01-0.696D-01-0.739D-02 0.110D+01
 Gap=     0.192 Goal=   None    Shift=    0.000
 Gap=     0.113 Goal=   None    Shift=    0.000
 RMSDP=2.72D-05 MaxDP=7.88D-04 DE=-2.89D-05 OVMax= 1.46D-03

 Cycle   6  Pass 1  IDiag  1:
 RMSU=  7.87D-06    CP:  8.98D-01  1.93D+00  8.39D-01  1.37D+00  1.15D+00
 E= -152.073077004561     Delta-E=       -0.000002990416 Rises=F Damp=F
 DIIS: error= 2.66D-05 at cycle   6 NSaved=   6.
 NSaved= 6 IEnMin= 6 EnMin= -152.073077004561     IErMin= 6 ErrMin= 2.66D-05
 ErrMax= 2.66D-05 EMaxC= 1.00D-01 BMatC= 1.39D-07 BMatP= 3.47D-06
 IDIUse=1 WtCom= 1.00D+00 WtEn= 0.00D+00
 Coeff-Com: -0.299D-02 0.672D-02 0.591D-02-0.325D-02-0.242D+00 0.124D+01
 Coeff:     -0.299D-02 0.672D-02 0.591D-02-0.325D-02-0.242D+00 0.124D+01
 Gap=     0.192 Goal=   None    Shift=    0.000
 Gap=     0.113 Goal=   None    Shift=    0.000
 RMSDP=5.38D-06 MaxDP=1.31D-04 DE=-2.99D-06 OVMax= 5.01D-04

 Cycle   7  Pass 1  IDiag  1:
 RMSU=  1.44D-06    CP:  8.98D-01  1.93D+00  8.39D-01  1.38D+00  1.15D+00
                    CP:  1.51D+00
 E= -152.073077173292     Delta-E=       -0.000000168731 Rises=F Damp=F
 DIIS: error= 5.42D-06 at cycle   7 NSaved=   7.
 NSaved= 7 IEnMin= 7 EnMin= -152.073077173292     IErMin= 7 ErrMin= 5.42D-06
 ErrMax= 5.42D-06 EMaxC= 1.00D-01 BMatC= 7.58D-09 BMatP= 1.39D-07
 IDIUse=1 WtCom= 1.00D+00 WtEn= 0.00D+00
 Coeff-Com: -0.587D-03 0.108D-02 0.323D-02 0.104D-02-0.255D-01-0.233D+00
 Coeff-Com:  0.125D+01
 Coeff:     -0.587D-03 0.108D-02 0.323D-02 0.104D-02-0.255D-01-0.233D+00
 Coeff:      0.125D+01
 Gap=     0.192 Goal=   None    Shift=    0.000
 Gap=     0.113 Goal=   None    Shift=    0.000
 RMSDP=1.92D-06 MaxDP=3.81D-05 DE=-1.69D-07 OVMax= 1.75D-04

 Cycle   8  Pass 1  IDiag  1:
 RMSU=  1.93D-07    CP:  8.98D-01  1.93D+00  8.39D-01  1.38D+00  1.15D+00
                    CP:  1.68D+00  1.37D+00
 E= -152.073077185272     Delta-E=       -0.000000011980 Rises=F Damp=F
 DIIS: error= 1.03D-06 at cycle   8 NSaved=   8.
 NSaved= 8 IEnMin= 8 EnMin= -152.073077185272     IErMin= 8 ErrMin= 1.03D-06
 ErrMax= 1.03D-06 EMaxC= 1.00D-01 BMatC= 2.98D-10 BMatP= 7.58D-09
 IDIUse=1 WtCom= 1.00D+00 WtEn= 0.00D+00
 Coeff-Com:  0.253D-03-0.524D-03-0.483D-03 0.454D-04 0.153D-01-0.679D-01
 Coeff-Com:  0.314D-01 0.102D+01
 Coeff:      0.253D-03-0.524D-03-0.483D-03 0.454D-04 0.153D-01-0.679D-01
 Coeff:      0.314D-01 0.102D+01
 Gap=     0.192 Goal=   None    Shift=    0.000
 Gap=     0.113 Goal=   None    Shift=    0.000
 RMSDP=2.40D-07 MaxDP=5.94D-06 DE=-1.20D-08 OVMax= 2.31D-05

 Cycle   9  Pass 1  IDiag  1:
 RMSU=  6.46D-08    CP:  8.98D-01  1.93D+00  8.39D-01  1.38D+00  1.15D+00
                    CP:  1.70D+00  1.43D+00  1.07D+00
 E= -152.073077185528     Delta-E=       -0.000000000256 Rises=F Damp=F
 DIIS: error= 2.45D-07 at cycle   9 NSaved=   9.
 NSaved= 9 IEnMin= 9 EnMin= -152.073077185528     IErMin= 9 ErrMin= 2.45D-07
 ErrMax= 2.45D-07 EMaxC= 1.00D-01 BMatC= 1.24D-11 BMatP= 2.98D-10
 IDIUse=1 WtCom= 1.00D+00 WtEn= 0.00D+00
 Coeff-Com: -0.578D-05 0.216D-04-0.966D-04 0.117D-03-0.184D-02 0.228D-01
 Coeff-Com: -0.606D-01-0.240D+00 0.128D+01
 Coeff:     -0.578D-05 0.216D-04-0.966D-04 0.117D-03-0.184D-02 0.228D-01
 Coeff:     -0.606D-01-0.240D+00 0.128D+01
 Gap=     0.192 Goal=   None    Shift=    0.000
 Gap=     0.113 Goal=   None    Shift=    0.000
 RMSDP=6.31D-08 MaxDP=2.66D-06 DE=-2.56D-10 OVMax= 5.46D-06

 Cycle  10  Pass 1  IDiag  1:
 RMSU=  1.14D-08    CP:  8.98D-01  1.93D+00  8.39D-01  1.38D+00  1.15D+00
                    CP:  1.70D+00  1.44D+00  1.11D+00  1.38D+00
 E= -152.073077185541     Delta-E=       -0.000000000013 Rises=F Damp=F
 DIIS: error= 3.75D-08 at cycle  10 NSaved=  10.
 NSaved=10 IEnMin=10 EnMin= -152.073077185541     IErMin=10 ErrMin= 3.75D-08
 ErrMax= 3.75D-08 EMaxC= 1.00D-01 BMatC= 1.72D-13 BMatP= 1.24D-11
 IDIUse=1 WtCom= 1.00D+00 WtEn= 0.00D+00
 Coeff-Com: -0.485D-05 0.872D-05 0.165D-04-0.385D-05-0.890D-04-0.136D-02
 Coeff-Com:  0.679D-02 0.115D-01-0.156D+00 0.114D+01
 Coeff:     -0.485D-05 0.872D-05 0.165D-04-0.385D-05-0.890D-04-0.136D-02
 Coeff:      0.679D-02 0.115D-01-0.156D+00 0.114D+01
 Gap=     0.192 Goal=   None    Shift=    0.000
 Gap=     0.113 Goal=   None    Shift=    0.000
 RMSDP=4.13D-09 MaxDP=1.45D-07 DE=-1.26D-11 OVMax= 1.96D-07

 SCF Done:  E(UB3LYP) =  -152.073077186     A.U. after   10 cycles
             Convg  =    0.4135D-08             -V/T =  2.0041
 <Sx>= 0.0000 <Sy>= 0.0000 <Sz>= 1.0000 <S**2>= 2.0214 S= 1.0071
 <L.S>= 0.000000000000E+00
 KE= 1.514497909139D+02 PE=-4.978241367398D+02 EE= 1.216209823105D+02
 Annihilation of the first spin contaminant:
 S**2 before annihilation     2.0214,   after     2.0001
 Leave Link  502 at Wed Jul  6 00:01:56 2016, MaxMem=   33554432 cpu:      21.3
 (Enter /home/nestor/.gaussian09/l801.exe)
 Range of M.O.s used for correlation:     1   156
 NBasis=   156 NAE=    13 NBE=    11 NFC=     0 NFV=     0
 NROrb=    156 NOA=    13 NOB=    11 NVA=   143 NVB=   145

 **** Warning!!: The largest alpha MO coefficient is  0.47867380D+02


 **** Warning!!: The largest beta MO coefficient is  0.48034871D+02

 Leave Link  801 at Wed Jul  6 00:01:56 2016, MaxMem=   33554432 cpu:       0.1
 (Enter /home/nestor/.gaussian09/l1101.exe)
 Using compressed storage, NAtomX=     4.
 Will process   5 centers per pass.
 Leave Link 1101 at Wed Jul  6 00:01:56 2016, MaxMem=   33554432 cpu:       0.5
 (Enter /home/nestor/.gaussian09/l1102.exe)
 Symmetrizing basis deriv contribution to polar:
 IMax=3 JMax=2 DiffMx= 0.00D+00
 Leave Link 1102 at Wed Jul  6 00:01:56 2016, MaxMem=   33554432 cpu:       0.1
 (Enter /home/nestor/.gaussian09/l1110.exe)
 Forming Gx(P) for the SCF density, NAtomX=     4.
 Integral derivatives from FoFDir/FoFCou, PRISM(SPDF).
 Do as many integral derivatives as possible in FoFDir.
 G2DrvN: MDV=      33554296.
 G2DrvN: will do     5 centers at a time, making    1 passes doing MaxLOS=3.
 Calling FoFCou, ICntrl=  3107 FMM=F I1Cent=   0 AccDes= 0.00D+00.
 FoFCou: FMM=F IPFlag=           0 FMFlag=      100000 FMFlg1=           0
         NFxFlg=           0 DoJE=F BraDBF=F KetDBF=F FulRan=T
         Omega=  0.000000  0.000000  1.000000  0.000000  0.000000 ICntrl=    3107 IOpCl=  1
         NMat0=    1 NMatS0=    1 NMatT0=    0 NMatD0=    1 NMtDS0=    0 NMtDT0=    0
         I1Cent=           0 NGrid=           0.
 Petite list used in FoFCou.
 FoFDir/FoFCou used for L=0 through L=3.
 End of G2Drv Frequency-dependent properties file   721 does not exist.
 End of G2Drv Frequency-dependent properties file   722 does not exist.
 Leave Link 1110 at Wed Jul  6 00:02:05 2016, MaxMem=   33554432 cpu:      14.4
 (Enter /home/nestor/.gaussian09/l1002.exe)
 Minotr:  UHF open shell wavefunction.
          IDoAtm=1111
          Direct CPHF calculation.
          Differentiating once with respect to electric field.
                with respect to dipole field.
          Differentiating once with respect to nuclear coordinates.
          Using symmetry in CPHF.
          Requested convergence is 1.0D-08 RMS, and 1.0D-07 maximum.
          Secondary convergence is 1.0D-12 RMS, and 1.0D-12 maximum.
          NewPWx=T KeepS1=F KeepF1=F KeepIn=T MapXYZ=F SortEE=F KeepMc=T.
          MDV=      33554388 using IRadAn=       2.
 Generate precomputed XC quadrature information.
          Solving linear equations simultaneously, MaxMat=       0.
 Integrals replicated using symmetry in FoFDir.
 MinBra= 0 MaxBra= 3 Meth= 1.
 IRaf=       0 NMat=   6 IRICut=       1 DoRegI=T DoRafI=F ISym2E= 2 JSym2E=2.
          There are     6 degrees of freedom in the 1st order CPHF.  IDoFFX=4.
      6 vectors produced by pass  0 Test12= 5.76D-14 1.67D-08 XBig12= 3.37D+02 1.19D+01.
 AX will form     6 AO Fock derivatives at one time.
      6 vectors produced by pass  1 Test12= 5.76D-14 1.67D-08 XBig12= 2.51D+02 4.74D+00.
      6 vectors produced by pass  2 Test12= 5.76D-14 1.67D-08 XBig12= 3.04D+01 2.05D+00.
      6 vectors produced by pass  3 Test12= 5.76D-14 1.67D-08 XBig12= 3.12D+00 6.70D-01.
      6 vectors produced by pass  4 Test12= 5.76D-14 1.67D-08 XBig12= 1.71D-01 1.64D-01.
      6 vectors produced by pass  5 Test12= 5.76D-14 1.67D-08 XBig12= 8.33D-03 3.14D-02.
      6 vectors produced by pass  6 Test12= 5.76D-14 1.67D-08 XBig12= 3.66D-04 7.08D-03.
      6 vectors produced by pass  7 Test12= 5.76D-14 1.67D-08 XBig12= 7.15D-06 6.39D-04.
      6 vectors produced by pass  8 Test12= 5.76D-14 1.67D-08 XBig12= 7.07D-08 8.74D-05.
      5 vectors produced by pass  9 Test12= 5.76D-14 1.67D-08 XBig12= 1.30D-09 1.31D-05.
      4 vectors produced by pass 10 Test12= 5.76D-14 1.67D-08 XBig12= 1.12D-11 9.21D-07.
      2 vectors produced by pass 11 Test12= 5.76D-14 1.67D-08 XBig12= 1.65D-13 1.38D-07.
      2 vectors produced by pass 12 Test12= 5.76D-14 1.67D-08 XBig12= 1.29D-14 3.09D-08.
 Inverted reduced A of dimension    67 with in-core refinement.
 FullF1:  Do perturbations    1 to     6.
 Isotropic polarizability for W=    0.000000       49.82 Bohr**3.
 End of Minotr Frequency-dependent properties file   721 does not exist.
 End of Minotr Frequency-dependent properties file   722 does not exist.
 Leave Link 1002 at Wed Jul  6 00:11:30 2016, MaxMem=   33554432 cpu:     574.6
 (Enter /home/nestor/.gaussian09/l601.exe)
 Copying SCF densities to generalized density rwf, IOpCl= 1 IROHF=0.

 **********************************************************************

            Population analysis using the SCF density.

 **********************************************************************

 Orbital symmetries:
 Alpha Orbitals:
       Occupied  (A1) (E) (E) (B2) (A1) (E) (E) (B2) (B1) (A1)
                 (B2) (E) (E)
       Virtual   (E) (E) (A1) (A1) (B2) (E) (E) (B1) (B2) (E) (E)
                 (A1) (E) (E) (A2) (A1) (B2) (E) (E) (E) (E) (A2)
                 (B2) (A1) (B1) (E) (E) (A2) (B2) (E) (E) (A1)
                 (B2) (E) (E) (E) (E) (A1) (A1) (E) (E) (B2) (B1)
                 (A2) (A1) (B2) (E) (E) (E) (E) (B2) (A2) (B1)
                 (E) (E) (A1) (A1) (B2) (E) (E) (B2) (A2) (E) (E)
                 (B1) (E) (E) (A1) (E) (E) (B1) (B2) (E) (E) (A1)
                 (E) (E) (B2) (A2) (B2) (A1) (B2) (E) (E) (E) (E)
                 (B1) (A1) (A1) (B1) (E) (E) (A2) (B2) (E) (E)
                 (A2) (B2) (E) (E) (B1) (A1) (E) (E) (A1) (E) (E)
                 (A2) (B2) (E) (E) (A1) (B1) (E) (E) (E) (E) (B2)
                 (A2) (B2) (A1) (A2) (E) (E) (B2) (E) (E) (A1)
                 (B1) (E) (E) (A1) (E) (E) (E) (E) (B2) (B1) (A2)
                 (A1) (B2) (E) (E)
 Beta  Orbitals:
       Occupied  (A1) (E) (E) (B2) (A1) (E) (E) (B1) (B2) (A1)
                 (B2)
       Virtual   (E) (E) (E) (E) (A1) (A1) (B2) (E) (E) (B1) (B2)
                 (E) (E) (A1) (E) (E) (A2) (A1) (B2) (E) (E) (E)
                 (E) (A2) (B2) (A1) (B1) (E) (E) (A2) (B2) (A1)
                 (E) (E) (B2) (E) (E) (E) (E) (A1) (A1) (B2) (E)
                 (E) (B1) (A2) (A1) (E) (E) (B2) (E) (E) (B2) (A2)
                 (B1) (E) (E) (A1) (A1) (B2) (E) (E) (B2) (A2)
                 (E) (E) (B1) (E) (E) (A1) (E) (E) (B1) (B2) (E)
                 (E) (A1) (E) (E) (B2) (A2) (B2) (A1) (B2) (E)
                 (E) (B1) (E) (E) (A1) (B1) (A1) (E) (E) (A2) (B2)
                 (E) (E) (A2) (E) (E) (B2) (B1) (A1) (E) (E) (A1)
                 (E) (E) (A2) (B2) (E) (E) (A1) (B1) (E) (E) (E)
                 (E) (B2) (A2) (B2) (A1) (A2) (E) (E) (B2) (E)
                 (E) (A1) (B1) (E) (E) (A1) (E) (E) (E) (E) (B2)
                 (B1) (A2) (A1) (B2) (E) (E)
 The electronic state is 3-A1.
 Alpha  occ. eigenvalues --  -10.29235 -10.29196 -10.29196 -10.29152  -1.00624
 Alpha  occ. eigenvalues --   -0.66303  -0.66303  -0.47698  -0.45302  -0.41350
 Alpha  occ. eigenvalues --   -0.32563  -0.29888  -0.29888
 Alpha virt. eigenvalues --   -0.10702  -0.10702  -0.03521   0.03005   0.04114
 Alpha virt. eigenvalues --    0.04132   0.04132   0.08297   0.08557   0.09429
 Alpha virt. eigenvalues --    0.09429   0.10137   0.12523   0.12523   0.13767
 Alpha virt. eigenvalues --    0.14483   0.15885   0.16683   0.16683   0.22289
 Alpha virt. eigenvalues --    0.22289   0.24449   0.32550   0.33654   0.38145
 Alpha virt. eigenvalues --    0.41059   0.41059   0.43202   0.43224   0.46305
 Alpha virt. eigenvalues --    0.46305   0.46855   0.47165   0.49452   0.49452
 Alpha virt. eigenvalues --    0.52463   0.52463   0.52658   0.57713   0.60646
 Alpha virt. eigenvalues --    0.60646   0.60737   0.61104   0.65563   0.69177
 Alpha virt. eigenvalues --    0.69714   0.70784   0.70784   0.75991   0.75991
 Alpha virt. eigenvalues --    0.78265   0.89122   0.89906   0.93705   0.93705
 Alpha virt. eigenvalues --    1.11371   1.14716   1.19514   1.30155   1.30155
 Alpha virt. eigenvalues --    1.31928   1.37877   1.38527   1.38527   1.58089
 Alpha virt. eigenvalues --    1.67413   1.67413   1.72006   1.80241   1.80241
 Alpha virt. eigenvalues --    1.87754   1.89830   1.95177   1.95177   1.95473
 Alpha virt. eigenvalues --    2.04605   2.04605   2.13643   2.23948   2.48087
 Alpha virt. eigenvalues --    2.56140   2.64828   2.66511   2.66511   2.70259
 Alpha virt. eigenvalues --    2.70259   2.70777   2.71717   2.85172   2.85335
 Alpha virt. eigenvalues --    2.90880   2.90880   2.94723   3.00486   3.01592
 Alpha virt. eigenvalues --    3.01592   3.17194   3.28178   3.28325   3.28325
 Alpha virt. eigenvalues --    3.36641   3.43413   3.50827   3.50827   3.59461
 Alpha virt. eigenvalues --    3.65966   3.65966   4.03368   4.05166   4.08553
 Alpha virt. eigenvalues --    4.08553   4.14422   4.16867   4.27670   4.27670
 Alpha virt. eigenvalues --    4.59687   4.59687   4.64861   5.66542   6.91295
 Alpha virt. eigenvalues --    6.97389   6.97884   6.98978   6.98978   7.01562
 Alpha virt. eigenvalues --    7.11892   7.11892   7.26069   7.35608   7.42047
 Alpha virt. eigenvalues --    7.42047   7.48221   7.67430   7.67430   7.78146
 Alpha virt. eigenvalues --    7.78146   7.94908   7.98962   8.86262  23.74855
 Alpha virt. eigenvalues --   24.83014  24.91913  24.91913
  Beta  occ. eigenvalues --  -10.28309 -10.28271 -10.28271 -10.28235  -0.98551
  Beta  occ. eigenvalues --   -0.63611  -0.63611  -0.43268  -0.42734  -0.36664
  Beta  occ. eigenvalues --   -0.28721
  Beta virt. eigenvalues --   -0.17403  -0.17403  -0.09611  -0.09611  -0.00907
  Beta virt. eigenvalues --    0.04103   0.04358   0.04456   0.04456   0.08383
  Beta virt. eigenvalues --    0.08677   0.09833   0.09833   0.11330   0.12754
  Beta virt. eigenvalues --    0.12754   0.14301   0.14639   0.16039   0.17031
  Beta virt. eigenvalues --    0.17031   0.23705   0.23705   0.27507   0.33538
  Beta virt. eigenvalues --    0.34312   0.38792   0.42616   0.42616   0.43317
  Beta virt. eigenvalues --    0.44074   0.47530   0.47700   0.47700   0.48891
  Beta virt. eigenvalues --    0.50107   0.50107   0.53751   0.53751   0.54280
  Beta virt. eigenvalues --    0.59480   0.61920   0.61982   0.61982   0.62082
  Beta virt. eigenvalues --    0.66898   0.69255   0.71393   0.71393   0.72112
  Beta virt. eigenvalues --    0.76799   0.76799   0.79062   0.89695   0.90382
  Beta virt. eigenvalues --    0.94405   0.94405   1.12487   1.16176   1.22165
  Beta virt. eigenvalues --    1.32160   1.32160   1.33925   1.39076   1.41310
  Beta virt. eigenvalues --    1.41310   1.61235   1.69554   1.69554   1.74263
  Beta virt. eigenvalues --    1.82665   1.82665   1.90752   1.92558   1.97522
  Beta virt. eigenvalues --    1.97522   1.98772   2.07316   2.07316   2.17118
  Beta virt. eigenvalues --    2.26858   2.49358   2.58192   2.66462   2.69258
  Beta virt. eigenvalues --    2.69258   2.71968   2.72997   2.72997   2.75405
  Beta virt. eigenvalues --    2.85992   2.86287   2.92601   2.92601   2.97167
  Beta virt. eigenvalues --    3.02191   3.03935   3.03935   3.19499   3.30641
  Beta virt. eigenvalues --    3.30641   3.31230   3.39089   3.46105   3.52828
  Beta virt. eigenvalues --    3.52828   3.61385   3.67798   3.67798   4.05460
  Beta virt. eigenvalues --    4.07680   4.10501   4.10501   4.17045   4.19469
  Beta virt. eigenvalues --    4.30051   4.30051   4.61989   4.61989   4.67283
  Beta virt. eigenvalues --    5.69128   6.94115   6.99207   6.99636   7.01698
  Beta virt. eigenvalues --    7.01698   7.04363   7.14126   7.14126   7.28950
  Beta virt. eigenvalues --    7.37197   7.45610   7.45610   7.52233   7.69648
  Beta virt. eigenvalues --    7.69648   7.81079   7.81079   7.97798   8.02454
  Beta virt. eigenvalues --    8.88794  23.75846  24.84076  24.93000  24.93000
          Condensed to atoms (all electrons):
              1          2          3          4
     1  C    7.712376  -1.123071  -1.123071   0.533766
     2  C   -1.123071   7.712376   0.533766  -1.123071
     3  C   -1.123071   0.533766   7.712376  -1.123071
     4  C    0.533766  -1.123071  -1.123071   7.712376
 Mulliken atomic charges:
              1
     1  C    0.000000
     2  C    0.000000
     3  C    0.000000
     4  C    0.000000
 Sum of Mulliken atomic charges =   0.00000
 Mulliken charges with hydrogens summed into heavy atoms:
              1
     1  C    0.000000
     2  C    0.000000
     3  C    0.000000
     4  C    0.000000
 Sum of Mulliken charges with hydrogens summed into heavy atoms =   0.00000
          Atomic-Atomic Spin Densities.
              1          2          3          4
     1  C    0.693265   0.044125   0.044125  -0.281514
     2  C    0.044125   0.693265  -0.281514   0.044125
     3  C    0.044125  -0.281514   0.693265   0.044125
     4  C   -0.281514   0.044125   0.044125   0.693265
 Mulliken atomic spin densities:
              1
     1  C    0.500000
     2  C    0.500000
     3  C    0.500000
     4  C    0.500000
 Sum of Mulliken atomic spin densities =   2.00000
 APT atomic charges:
              1
     1  C    0.000000
     2  C    0.000000
     3  C    0.000000
     4  C    0.000000
 Sum of APT charges=   0.00000
 APT Atomic charges with hydrogens summed into heavy atoms:
              1
     1  C    0.000000
     2  C    0.000000
     3  C    0.000000
     4  C    0.000000
 Sum of APT charges=   0.00000
 Electronic spatial extent (au):  <R**2>=            138.1399
 Charge=              0.0000 electrons
 Dipole moment (field-independent basis, Debye):
    X=              0.0000    Y=              0.0000    Z=              0.0000  Tot=              0.0000
 Quadrupole moment (field-independent basis, Debye-Ang):
   XX=            -24.6846   YY=            -24.6846   ZZ=            -22.3864
   XY=              0.0000   XZ=              0.0000   YZ=              0.0000
 Traceless Quadrupole moment (field-independent basis, Debye-Ang):
   XX=             -0.7661   YY=             -0.7661   ZZ=              1.5321
   XY=              0.0000   XZ=              0.0000   YZ=              0.0000
 Octapole moment (field-independent basis, Debye-Ang**2):
  XXX=              0.0000  YYY=              0.0000  ZZZ=              0.0000  XYY=              0.0000
  XXY=              0.0000  XXZ=              1.9209  XZZ=              0.0000  YZZ=              0.0000
  YYZ=             -1.9209  XYZ=              0.0000
 Hexadecapole moment (field-independent basis, Debye-Ang**3):
 XXXX=           -102.4743 YYYY=           -102.4743 ZZZZ=            -31.5260 XXXY=              0.0000
 XXXZ=              0.0000 YYYX=              0.0000 YYYZ=              0.0000 ZZZX=              0.0000
 ZZZY=              0.0000 XXYY=            -31.5319 XXZZ=            -21.8941 YYZZ=            -21.8941
 XXYZ=              0.0000 YYXZ=              0.0000 ZZXY=              0.0000
 N-N= 7.268028632991D+01 E-N=-7.362256480781D+02  KE= 2.256078146347D+02
 Symmetry A1   KE= 1.121721991276D+02
 Symmetry A2   KE= 4.297186333018D+00
 Symmetry B1   KE= 5.456921458704D+01
 Symmetry B2   KE= 5.456921458704D+01
  Exact polarizability:  61.143   0.000  61.143   0.000   0.000  27.179
 Approx polarizability: 136.649   0.000 136.649   0.000   0.000  41.842
                          Isotropic Fermi Contact Couplings
        Atom                 a.u.       MegaHertz       Gauss      10(-4) cm-1
     1  C(13)              0.14741      82.85874      29.56606      27.63870
     2  C(13)              0.14741      82.85874      29.56606      27.63870
     3  C(13)              0.14741      82.85874      29.56606      27.63870
     4  C(13)              0.14741      82.85874      29.56606      27.63870
 --------------------------------------------------------
       Center         ----  Spin Dipole Couplings  ----
                      3XX-RR        3YY-RR        3ZZ-RR
 --------------------------------------------------------
     1   Atom       -0.179236     -0.008479      0.187716
     2   Atom       -0.008479     -0.179236      0.187716
     3   Atom       -0.008479     -0.179236      0.187716
     4   Atom       -0.179236     -0.008479      0.187716
 --------------------------------------------------------
                        XY            XZ            YZ
 --------------------------------------------------------
     1   Atom        0.000000      0.000000      0.524434
     2   Atom        0.000000      0.524434      0.000000
     3   Atom        0.000000     -0.524434      0.000000
     4   Atom        0.000000      0.000000     -0.524434
 --------------------------------------------------------


 ---------------------------------------------------------------------------------
              Anisotropic Spin Dipole Couplings in Principal Axis System
 ---------------------------------------------------------------------------------

       Atom             a.u.   MegaHertz   Gauss  10(-4) cm-1        Axes

              Baa    -0.4439   -59.569   -21.256   -19.870  0.0000  0.7694 -0.6388
     1 C(13)  Bbb    -0.1792   -24.052    -8.582    -8.023  1.0000  0.0000  0.0000
              Bcc     0.6231    83.621    29.838    27.893  0.0000  0.6388  0.7694
 
              Baa    -0.4439   -59.569   -21.256   -19.870  0.7694  0.0000 -0.6388
     2 C(13)  Bbb    -0.1792   -24.052    -8.582    -8.023  0.0000  1.0000  0.0000
              Bcc     0.6231    83.621    29.838    27.893  0.6388  0.0000  0.7694
 
              Baa    -0.4439   -59.569   -21.256   -19.870  0.7694  0.0000  0.6388
     3 C(13)  Bbb    -0.1792   -24.052    -8.582    -8.023  0.0000  1.0000  0.0000
              Bcc     0.6231    83.621    29.838    27.893 -0.6388  0.0000  0.7694
 
              Baa    -0.4439   -59.569   -21.256   -19.870  0.0000  0.7694  0.6388
     4 C(13)  Bbb    -0.1792   -24.052    -8.582    -8.023  1.0000  0.0000  0.0000
              Bcc     0.6231    83.621    29.838    27.893  0.0000 -0.6388  0.7694
 

 ---------------------------------------------------------------------------------

 No NMR shielding tensors so no spin-rotation constants.
 Leave Link  601 at Wed Jul  6 00:11:31 2016, MaxMem=   33554432 cpu:       1.0
 (Enter /home/nestor/.gaussian09/l701.exe)
 Compute integral second derivatives.
 ... and contract with generalized density number  0.
 Leave Link  701 at Wed Jul  6 00:11:32 2016, MaxMem=   33554432 cpu:       0.8
 (Enter /home/nestor/.gaussian09/l702.exe)
 L702 exits ... SP integral derivatives will be done elsewhere.
 Leave Link  702 at Wed Jul  6 00:11:32 2016, MaxMem=   33554432 cpu:       0.1
 (Enter /home/nestor/.gaussian09/l703.exe)
 Compute integral second derivatives, UseDBF=F ICtDFT=           0.
 Integral derivatives from FoFDir, PRISM(SPDF).
 Calling FoFJK, ICntrl=    100127 FMM=F ISym2X=1 I1Cent= 0 IOpClX= 1 NMat=1 NMatS=1 NMatT=0.
 FoFCou: FMM=F IPFlag=           0 FMFlag=      100000 FMFlg1=         800
         NFxFlg=           0 DoJE=F BraDBF=F KetDBF=F FulRan=T
         Omega=  0.000000  0.000000  1.000000  0.000000  0.000000 ICntrl=  100127 IOpCl=  1
         NMat0=    1 NMatS0=    1 NMatT0=    0 NMatD0=    1 NMtDS0=    0 NMtDT0=    0
         I1Cent=           0 NGrid=           0.
 Petite list used in FoFCou.
 Leave Link  703 at Wed Jul  6 00:12:08 2016, MaxMem=   33554432 cpu:      37.0
 (Enter /home/nestor/.gaussian09/l716.exe)
 Dipole        = 9.56776078D-17 1.06890679D-14-1.12007910D-15
 Polarizability= 6.11427706D+01 4.62338480D-07 6.11427706D+01
                 8.17858484D-08 1.03585611D-07 2.71787791D+01
 Full mass-weighted force constant matrix:
 Low frequencies ---   -5.9266   -0.0014   -0.0013   -0.0008   10.1944   10.1944
 Low frequencies ---  615.2535  636.4419  643.2312
 Harmonic frequencies (cm**-1), IR intensities (KM/Mole), Raman scattering
 activities (A**4/AMU), depolarization ratios for plane and unpolarized
 incident light, reduced masses (AMU), force constants (mDyne/A),
 and normal coordinates:
                     1                      2                      3
                    A1                     B2                     B1
 Frequencies --   615.2535               636.4419               643.2312
 Red. masses --    12.0000                12.0000                12.0000
 Frc consts  --     2.6763                 2.8638                 2.9253
 IR Inten    --     0.0000                 9.7016                 0.0000
  Atom  AN      X      Y      Z        X      Y      Z        X      Y      Z
     1   6     0.00  -0.22   0.45     0.00   0.50   0.00     0.50   0.00   0.00
     2   6     0.22   0.00  -0.45     0.50   0.00   0.00     0.00  -0.50   0.00
     3   6    -0.22   0.00  -0.45    -0.50   0.00   0.00     0.00   0.50   0.00
     4   6     0.00   0.22   0.45     0.00  -0.50   0.00    -0.50   0.00   0.00
                     4                      5                      6
                     E                      E                     A1
 Frequencies --   705.9973               705.9973              1318.2655
 Red. masses --    12.0000                12.0000                12.0000
 Frc consts  --     3.5240                 3.5240                12.2868
 IR Inten    --   294.7546               294.7546                 0.0000
  Atom  AN      X      Y      Z        X      Y      Z        X      Y      Z
     1   6     0.34  -0.34  -0.14    -0.34  -0.34  -0.14     0.00  -0.45  -0.22
     2   6    -0.34   0.34  -0.14     0.34   0.34   0.14     0.45   0.00   0.22
     3   6    -0.34   0.34   0.14     0.34   0.34  -0.14    -0.45   0.00   0.22
     4   6     0.34  -0.34   0.14    -0.34  -0.34   0.14     0.00   0.45  -0.22

 -------------------
 - Thermochemistry -
 -------------------
 Temperature   298.150 Kelvin.  Pressure   1.00000 Atm.
 Atom     1 has atomic number  6 and mass  12.00000
 Atom     2 has atomic number  6 and mass  12.00000
 Atom     3 has atomic number  6 and mass  12.00000
 Atom     4 has atomic number  6 and mass  12.00000
 Molecular mass:    48.00000 amu.
 Principal axes and moments of inertia in atomic units:
                           1         2         3
     Eigenvalues --    88.11568  88.11568 162.93386
           X            0.91188   0.41046   0.00000
           Y           -0.41046   0.91188   0.00000
           Z            0.00000   0.00000   1.00000
 This molecule is an oblate symmetric top.
 Rotational symmetry number  4.
 Rotational temperatures (Kelvin)      0.98296     0.98296     0.53159
 Rotational constants (GHZ):          20.48150    20.48150    11.07653
 Zero-point vibrational energy      27664.8 (Joules/Mol)
                                    6.61204 (Kcal/Mol)
 Warning -- explicit consideration of   1 degrees of freedom as
           vibrations may cause significant error
 Vibrational temperatures:    885.21   915.70   925.47  1015.77  1015.77
          (Kelvin)           1896.69
 
 Zero-point correction=                           0.010537 (Hartree/Particle)
 Thermal correction to Energy=                    0.014031
 Thermal correction to Enthalpy=                  0.014975
 Thermal correction to Gibbs Free Energy=        -0.013790
 Sum of electronic and zero-point Energies=           -152.062540
 Sum of electronic and thermal Energies=              -152.059046
 Sum of electronic and thermal Enthalpies=            -152.058102
 Sum of electronic and thermal Free Energies=         -152.086868
 
                     E (Thermal)             CV                S
                      KCal/Mol        Cal/Mol-Kelvin    Cal/Mol-Kelvin
 Total                    8.804             10.633             60.542
 Electronic               0.000              0.000              2.183
 Translational            0.889              2.981             37.530
 Rotational               0.889              2.981             19.009
 Vibrational              7.027              4.672              1.820
 Vibration     1          0.975              1.000              0.424
                       Q            Log10(Q)             Ln(Q)
 Total Bot       0.220348D+07          6.343109         14.605548
 Total V=0       0.154796D+12         11.189759         25.765373
 Vib (Bot)       0.176533D-04         -4.753175        -10.944589
 Vib (Bot)    1  0.238882D+00         -0.621817         -1.431787
 Vib (V=0)       0.124015D+01          0.093476          0.215236
 Vib (V=0)    1  0.105413D+01          0.022896          0.052719
 Electronic      0.300000D+01          0.477121          1.098612
 Translational   0.130712D+08          7.116317         16.385926
 Rotational      0.318306D+04          3.502845          8.065599
 
                                                              b3lyp opt
                                                             IR Spectrum
 
     1                                                                                                                               
     3                                                          7     66 6                                                           
     1                                                          0     43 1                                                           
     8                                                          6     36 5                                                           
 
                                                                X      X                                                             
                                                                X                                                                    
                                                                X                                                                    
                                                                X                                                                    
                                                                X                                                                    
                                                                X                                                                    
                                                                X                                                                    
                                                                X                                                                    
                                                                X                                                                    
                                                                X                                                                    
                                                                X                                                                    
                                                                X                                                                    
                                                                X                                                                    
                                                                X                                                                    
                                                                X                                                                    
                                                                X                                                                    
                                                                X                                                                    
                                                                X                                                                    
                                                                X                                                                    
                                                                X                                                                    
 
 ***** Axes restored to original set *****
 -------------------------------------------------------------------
 Center     Atomic                   Forces (Hartrees/Bohr)
 Number     Number              X              Y              Z
 -------------------------------------------------------------------
      1        6          -0.000007870   -0.000010008   -0.000012389
      2        6           0.000001531   -0.000003919    0.000017260
      3        6          -0.000006583    0.000014803    0.000007289
      4        6           0.000012922   -0.000000876   -0.000012160
 -------------------------------------------------------------------
 Cartesian Forces:  Max     0.000017260 RMS     0.000010257
 Z-matrix is all fixed cartesians, so copy forces.
 Force constants in Cartesian coordinates: 
                1             2             3             4             5 
      1  0.211454D+00
      2  0.866414D-01  0.149421D+00
      3  0.714189D-01  0.236317D-01  0.855497D-01
      4 -0.892599D-01  0.429189D-02 -0.509478D-01  0.109271D+00
      5  0.545296D-01  0.144153D-01  0.187454D-01 -0.239534D-01  0.156675D+00
      6 -0.974983D-01 -0.449259D-01 -0.101657D+00  0.488947D-01 -0.113360D+00
      7  0.108111D-01 -0.787311D-02  0.229098D-01 -0.140353D-01  0.454370D-01
      8 -0.924138D-01 -0.151310D+00 -0.484795D-01  0.446471D-01 -0.992406D-01
      9  0.504964D-02 -0.127205D-01 -0.360027D-01 -0.201772D-01  0.455732D-01
     10 -0.133005D+00 -0.830602D-01 -0.433809D-01 -0.597585D-02 -0.760132D-01
     11 -0.487573D-01 -0.125267D-01  0.610241D-02 -0.249855D-01 -0.718498D-01
     12  0.210298D-01  0.340147D-01  0.521097D-01  0.222303D-01  0.490419D-01
                6             7             8             9            10 
      6  0.180479D+00
      7 -0.515960D-01  0.130755D+00
      8  0.117105D+00 -0.718864D-01  0.263491D+00
      9  0.198536D-01  0.989714D-02 -0.213485D-01  0.521784D-01
     10  0.100200D+00 -0.127531D+00  0.119653D+00  0.523042D-02  0.266512D+00
     11  0.411816D-01  0.343225D-01 -0.129410D-01 -0.115041D-01  0.394203D-01
     12 -0.986757D-01  0.187890D-01 -0.472766D-01 -0.360293D-01 -0.620492D-01
               11            12 
     11  0.973175D-01
     12 -0.357799D-01  0.825953D-01
 Leave Link  716 at Wed Jul  6 00:12:08 2016, MaxMem=   33554432 cpu:       0.0
 (Enter /home/nestor/.gaussian09/l103.exe)

 GradGradGradGradGradGradGradGradGradGradGradGradGradGradGradGradGradGrad
 Berny optimization.
 Search for a local minimum.
 Step number   1 out of a maximum of    2
 All quantities printed in internal units (Hartrees-Bohrs-Radians)
 Second derivative matrix not updated -- analytic derivatives used.
 The second derivative matrix:
                          X1        Y1        Z1        X2        Y2
           X1           0.21145
           Y1           0.08664   0.14942
           Z1           0.07142   0.02363   0.08555
           X2          -0.08926   0.00429  -0.05095   0.10927
           Y2           0.05453   0.01442   0.01875  -0.02395   0.15668
           Z2          -0.09750  -0.04493  -0.10166   0.04889  -0.11336
           X3           0.01081  -0.00787   0.02291  -0.01404   0.04544
           Y3          -0.09241  -0.15131  -0.04848   0.04465  -0.09924
           Z3           0.00505  -0.01272  -0.03600  -0.02018   0.04557
           X4          -0.13301  -0.08306  -0.04338  -0.00598  -0.07601
           Y4          -0.04876  -0.01253   0.00610  -0.02499  -0.07185
           Z4           0.02103   0.03401   0.05211   0.02223   0.04904
                          Z2        X3        Y3        Z3        X4
           Z2           0.18048
           X3          -0.05160   0.13076
           Y3           0.11710  -0.07189   0.26349
           Z3           0.01985   0.00990  -0.02135   0.05218
           X4           0.10020  -0.12753   0.11965   0.00523   0.26651
           Y4           0.04118   0.03432  -0.01294  -0.01150   0.03942
           Z4          -0.09868   0.01879  -0.04728  -0.03603  -0.06205
                          Y4        Z4
           Y4           0.09732
           Z4          -0.03578   0.08260
 ITU=  0
     Eigenvalues ---    0.17190   0.18395   0.18789   0.22635   0.22635
     Eigenvalues ---    0.78918
 Angle between quadratic step and forces=  39.96 degrees.
 ClnCor:  largest displacement from symmetrization is 9.99D-14 for atom     3.
 Linear search not attempted -- first point.
 ClnCor:  largest displacement from symmetrization is 1.09D-15 for atom     1.
 TrRot=  0.000000  0.000000  0.000000  0.000000  0.000000  0.000000
 Variable       Old X    -DE/DX   Delta X   Delta X   Delta X     New X
                                 (Linear)    (Quad)   (Total)
    X1        1.61796  -0.00001   0.00000   0.00001   0.00001   1.61797
    Y1        0.88913  -0.00001   0.00000  -0.00002  -0.00002   0.88912
    Z1        0.35299  -0.00001   0.00000  -0.00004  -0.00004   0.35295
    X2       -0.58939   0.00000   0.00000  -0.00001  -0.00001  -0.58939
    Y2        1.37060   0.00000   0.00000   0.00002   0.00002   1.37062
    Z2       -1.14326   0.00002   0.00000   0.00004   0.00004  -1.14322
    X3        0.72700  -0.00001   0.00000  -0.00001  -0.00001   0.72700
    Y3       -1.66711   0.00001   0.00000   0.00002   0.00002  -1.66709
    Z3        0.47452   0.00001   0.00000   0.00004   0.00004   0.47457
    X4       -1.75558   0.00001   0.00000   0.00001   0.00001  -1.75558
    Y4       -0.59263   0.00000   0.00000  -0.00002  -0.00002  -0.59265
    Z4        0.31574  -0.00001   0.00000  -0.00004  -0.00004   0.31570
         Item               Value     Threshold  Converged?
 Maximum Force            0.000017     0.000450     YES
 RMS     Force            0.000010     0.000300     YES
 Maximum Displacement     0.000043     0.001800     YES
 RMS     Displacement     0.000028     0.001200     YES
 Predicted change in Energy=-1.298812D-09
 Optimization completed.
    -- Stationary point found.
 GradGradGradGradGradGradGradGradGradGradGradGradGradGradGradGradGradGrad

 Leave Link  103 at Wed Jul  6 00:12:08 2016, MaxMem=   33554432 cpu:       0.0
 (Enter /home/nestor/.gaussian09/l9999.exe)
 1\1\GINC-HAL9000\Freq\UB3LYP\6-311++G(3df,2p)\C4(3)\NESTOR\06-Jul-2016
 \0\\#p b3lyp/6-311++G(3df,2p) freq symmetry=Loose\\b3lyp opt\\0,3\C,0.
 8561891771,0.4705097017,0.1867965592\C,-0.3118892708,0.725292455,-0.60
 49865799\C,0.384714004,-0.882197717,0.251107148\C,-0.9290149093,-0.313
 6044397,0.1670828728\\Version=AM64L-G09RevC.01\State=3-A1\HF=-152.0730
 772\S2=2.02138\S2-1=0.\S2A=2.000142\RMSD=4.135e-09\RMSF=1.026e-05\Zero
 Point=0.010537\Thermal=0.0140308\Dipole=0.,0.,0.\DipoleDeriv=-0.617344
 6,-0.5163346,0.2779693,-0.7546035,0.4427084,-0.274243,-0.1694291,-0.46
 81224,0.1746364,0.6637333,0.5750576,-0.0496751,0.5805443,-0.4095497,0.
 1425101,-0.2679108,0.6393701,-0.2541836,0.6376923,0.6386439,-0.2206417
 ,0.6331572,-0.539022,0.5278425,-0.0024063,0.0309823,-0.0986703,-0.6840
 81,-0.697367,-0.0076525,-0.4590979,0.5058633,-0.3961096,0.4397461,-0.2
 022301,0.1782175\Polar=59.9818006,2.5013629,55.7534702,5.6414997,-12.1
 54866,33.7290495\PG=D02D [2SGD(C2)]\NImag=0\\0.21145406,0.08664138,0.1
 4942127,0.07141889,0.02363170,0.08554973,-0.08925992,0.00429189,-0.050
 94780,0.10927104,0.05452965,0.01441534,0.01874539,-0.02395339,0.156675
 00,-0.09749832,-0.04492587,-0.10165682,0.04889468,-0.11336044,0.180479
 02,0.01081113,-0.00787311,0.02290979,-0.01403527,0.04543696,-0.0515959
 6,0.13075526,-0.09241376,-0.15130987,-0.04847950,0.04464705,-0.0992405
 5,0.11710468,-0.07188637,0.26349142,0.00504964,-0.01272051,-0.03600265
 ,-0.02017721,0.04557317,0.01985355,0.00989714,-0.02134852,0.05217838,-
 0.13300529,-0.08306016,-0.04338088,-0.00597585,-0.07601321,0.10019960,
 -0.12753111,0.11965308,0.00523042,0.26651225,-0.04875725,-0.01252673,0
 .00610241,-0.02498555,-0.07184980,0.04118161,0.03432252,-0.01294099,-0
 .01150414,0.03942028,0.09731752,0.02102980,0.03401468,0.05210974,0.022
 23033,0.04904186,-0.09867574,0.01878902,-0.04727664,-0.03602929,-0.062
 04916,-0.03577990,0.08259529\\0.00000787,0.00001001,0.00001239,-0.0000
 0153,0.00000392,-0.00001726,0.00000658,-0.00001480,-0.00000729,-0.0000
 1292,0.00000088,0.00001216\\\@


 WHEN YOU'VE SEEN ONE NUCLEAR WAR YOU'VE SEEN THEM ALL.
 Job cpu time:  0 days  0 hours 10 minutes 52.4 seconds.
 File lengths (MBytes):  RWF=     29 Int=      0 D2E=      0 Chk=      3 Scr=      1
 Normal termination of Gaussian 09 at Wed Jul  6 00:12:08 2016.
