 Entering Gaussian System, Link 0=/home/nestor/.gaussian09/g09
 Initial command:
 /home/nestor/.gaussian09/l1.exe /scratch/nestor/gaussian/Gau-1217.inp -scrdir=/scratch/nestor/gaussian/
 Entering Link 1 = /home/nestor/.gaussian09/l1.exe PID=      1219.
  
 Copyright (c) 1988,1990,1992,1993,1995,1998,2003,2009,2011,
            Gaussian, Inc.  All Rights Reserved.
  
 This is part of the Gaussian(R) 09 program.  It is based on
 the Gaussian(R) 03 system (copyright 2003, Gaussian, Inc.),
 the Gaussian(R) 98 system (copyright 1998, Gaussian, Inc.),
 the Gaussian(R) 94 system (copyright 1995, Gaussian, Inc.),
 the Gaussian 92(TM) system (copyright 1992, Gaussian, Inc.),
 the Gaussian 90(TM) system (copyright 1990, Gaussian, Inc.),
 the Gaussian 88(TM) system (copyright 1988, Gaussian, Inc.),
 the Gaussian 86(TM) system (copyright 1986, Carnegie Mellon
 University), and the Gaussian 82(TM) system (copyright 1983,
 Carnegie Mellon University). Gaussian is a federally registered
 trademark of Gaussian, Inc.
  
 This software contains proprietary and confidential information,
 including trade secrets, belonging to Gaussian, Inc.
  
 This software is provided under written license and may be
 used, copied, transmitted, or stored only in accord with that
 written license.
  
 The following legend is applicable only to US Government
 contracts under FAR:
  
                    RESTRICTED RIGHTS LEGEND
  
 Use, reproduction and disclosure by the US Government is
 subject to restrictions as set forth in subparagraphs (a)
 and (c) of the Commercial Computer Software - Restricted
 Rights clause in FAR 52.227-19.
  
 Gaussian, Inc.
 340 Quinnipiac St., Bldg. 40, Wallingford CT 06492
  
  
 ---------------------------------------------------------------
 Warning -- This program may not be used in any manner that
 competes with the business of Gaussian, Inc. or will provide
 assistance to any competitor of Gaussian, Inc.  The licensee
 of this program is prohibited from giving any competitor of
 Gaussian, Inc. access to this program.  By using this program,
 the user acknowledges that Gaussian, Inc. is engaged in the
 business of creating and licensing software in the field of
 computational chemistry and represents and warrants to the
 licensee that it is not a competitor of Gaussian, Inc. and that
 it will not use this program in any manner prohibited above.
 ---------------------------------------------------------------
  

 Cite this work as:
 Gaussian 09, Revision C.01,
 M. J. Frisch, G. W. Trucks, H. B. Schlegel, G. E. Scuseria, 
 M. A. Robb, J. R. Cheeseman, G. Scalmani, V. Barone, B. Mennucci, 
 G. A. Petersson, H. Nakatsuji, M. Caricato, X. Li, H. P. Hratchian, 
 A. F. Izmaylov, J. Bloino, G. Zheng, J. L. Sonnenberg, M. Hada, 
 M. Ehara, K. Toyota, R. Fukuda, J. Hasegawa, M. Ishida, T. Nakajima, 
 Y. Honda, O. Kitao, H. Nakai, T. Vreven, J. A. Montgomery, Jr., 
 J. E. Peralta, F. Ogliaro, M. Bearpark, J. J. Heyd, E. Brothers, 
 K. N. Kudin, V. N. Staroverov, T. Keith, R. Kobayashi, J. Normand, 
 K. Raghavachari, A. Rendell, J. C. Burant, S. S. Iyengar, J. Tomasi, 
 M. Cossi, N. Rega, J. M. Millam, M. Klene, J. E. Knox, J. B. Cross, 
 V. Bakken, C. Adamo, J. Jaramillo, R. Gomperts, R. E. Stratmann, 
 O. Yazyev, A. J. Austin, R. Cammi, C. Pomelli, J. W. Ochterski, 
 R. L. Martin, K. Morokuma, V. G. Zakrzewski, G. A. Voth, 
 P. Salvador, J. J. Dannenberg, S. Dapprich, A. D. Daniels, 
 O. Farkas, J. B. Foresman, J. V. Ortiz, J. Cioslowski, 
 and D. J. Fox, Gaussian, Inc., Wallingford CT, 2010.
 
 ******************************************
 Gaussian 09:  AM64L-G09RevC.01 23-Sep-2011
                 6-Jul-2016 
 ******************************************
 %NProcShared=2
 Will use up to    2 processors via shared memory.
 ---------------------------------------------
 #p b3lyp/6-311++G(3df,2p) freq symmetry=Loose
 ---------------------------------------------
 1/10=4,30=1,38=1/1,3;
 2/12=2,17=4,18=3,40=1/2;
 3/5=4,6=6,7=1216,11=2,16=1,25=1,30=1,71=2,74=-5/1,2,3;
 4//1;
 5/5=2,38=5,98=1/2;
 8/6=4,10=90,11=11/1;
 11/6=1,8=1,9=11,15=111,16=1/1,2,10;
 10/6=1/2;
 6/7=2,8=2,9=2,10=2,18=1,28=1/1;
 7/8=1,10=1,25=1/1,2,3,16;
 1/10=4,30=1/3;
 99//99;
 Leave Link    1 at Wed Jul  6 05:19:24 2016, MaxMem=          0 cpu:       0.0
 (Enter /home/nestor/.gaussian09/l101.exe)
 ---------
 b3lyp opt
 ---------
 Charge =  0 Multiplicity = 1
 Symbolic Z-Matrix:
 C                     0.04423   0.66478   2.55375 
 C                    -0.0741   -0.00075  -0.03478 
 C                     0.04707  -0.66206   2.5547 
 C                    -0.71932  -0.00301  -1.25542 
 C                     0.74008   0.00013  -1.23669 
 C                     1.97035   0.00245  -1.66877 
 C                    -0.00539   0.00035   1.30265 
 
 NAtoms=      7 NQM=        0 NQMF=       0 NMMI=      7 NMMIF=      0
                NMic=       0 NMicF=      0.
                    Isotopes and Nuclear Properties:
 (Nuclear quadrupole moments (NQMom) in fm**2, nuclear magnetic moments (NMagM)
  in nuclear magnetons)

  Atom         1           2           3           4           5           6           7
 IAtWgt=          12          12          12          12          12          12          12
 AtmWgt=  12.0000000  12.0000000  12.0000000  12.0000000  12.0000000  12.0000000  12.0000000
 NucSpn=           0           0           0           0           0           0           0
 AtZEff=   0.0000000   0.0000000   0.0000000   0.0000000   0.0000000   0.0000000   0.0000000
 NQMom=    0.0000000   0.0000000   0.0000000   0.0000000   0.0000000   0.0000000   0.0000000
 NMagM=    0.0000000   0.0000000   0.0000000   0.0000000   0.0000000   0.0000000   0.0000000
 Leave Link  101 at Wed Jul  6 05:19:24 2016, MaxMem=   33554432 cpu:       0.1
 (Enter /home/nestor/.gaussian09/l103.exe)

 GradGradGradGradGradGradGradGradGradGradGradGradGradGradGradGradGradGrad
 Berny optimization.
 Initialization pass.
 Trust Radius=3.00D-01 FncErr=1.00D-07 GrdErr=1.00D-07
 Number of steps in this run=      2 maximum allowed number of steps=      2.
 GradGradGradGradGradGradGradGradGradGradGradGradGradGradGradGradGradGrad

 Leave Link  103 at Wed Jul  6 05:19:25 2016, MaxMem=   33554432 cpu:       0.1
 (Enter /home/nestor/.gaussian09/l202.exe)
                          Input orientation:                          
 ---------------------------------------------------------------------
 Center     Atomic      Atomic             Coordinates (Angstroms)
 Number     Number       Type             X           Y           Z
 ---------------------------------------------------------------------
      1          6           0        0.044229    0.664776    2.553747
      2          6           0       -0.074098   -0.000753   -0.034782
      3          6           0        0.047066   -0.662057    2.554698
      4          6           0       -0.719320   -0.003007   -1.255423
      5          6           0        0.740076    0.000127   -1.236689
      6          6           0        1.970348    0.002448   -1.668772
      7          6           0       -0.005394    0.000353    1.302653
 ---------------------------------------------------------------------
                    Distance matrix (angstroms):
                    1          2          3          4          5
     1  C    0.000000
     2  C    2.675334   0.000000
     3  C    1.326836   2.675334   0.000000
     4  C    3.941918   1.380682   3.941918   0.000000
     5  C    3.910673   1.451710   3.910673   1.459520   0.000000
     6  C    4.688100   2.617192   4.688100   2.721251   1.303944
     7  C    1.417447   1.339199   1.417447   2.655834   2.646504
                    6          7
     6  C    0.000000
     7  C    3.568323   0.000000
 Stoichiometry    C7
 Framework group  CS[SG(C5),X(C2)]
 Deg. of freedom    10
 Full point group                 CS      NOp   2
 Largest Abelian subgroup         CS      NOp   2
 Largest concise Abelian subgroup CS      NOp   2
                         Standard orientation:                         
 ---------------------------------------------------------------------
 Center     Atomic      Atomic             Coordinates (Angstroms)
 Number     Number       Type             X           Y           Z
 ---------------------------------------------------------------------
      1          6           0       -0.676315   -2.146596    0.663418
      2          6           0       -0.284024    0.415316    0.000000
      3          6           0       -0.676315   -2.146596   -0.663418
      4          6           0       -0.676315    1.739095    0.000000
      5          6           0        0.750836    1.433415    0.000000
      6          6           0        2.042097    1.614838    0.000000
      7          6           0       -0.479963   -0.909471    0.000000
 ---------------------------------------------------------------------
 Rotational constants (GHZ):      9.5142484      1.9449607      1.7317440
 Leave Link  202 at Wed Jul  6 05:19:25 2016, MaxMem=   33554432 cpu:       0.0
 (Enter /home/nestor/.gaussian09/l301.exe)
 Standard basis: 6-311++G(3df,2p) (5D, 7F)
 Ernie: Thresh=  0.10000D-02 Tol=  0.10000D-05 Strict=F.
 There are   169 symmetry adapted basis functions of A'  symmetry.
 There are   104 symmetry adapted basis functions of A"  symmetry.
 Integral buffers will be    131072 words long.
 Raffenetti 2 integral format.
 Two-electron integral symmetry is turned on.
   273 basis functions,   406 primitive gaussians,   315 cartesian basis functions
    21 alpha electrons       21 beta electrons
       nuclear repulsion energy       185.8121806378 Hartrees.
 IExCor=  402 DFT=T Ex+Corr=B3LYP ExCW=0 ScaHFX=  0.200000
 ScaDFX=  0.800000  0.720000  1.000000  0.810000 ScalE2=  1.000000  1.000000
 IRadAn=      0 IRanWt=     -1 IRanGd=            0 ICorTp=0
 NAtoms=    7 NActive=    7 NUniq=    6 SFac= 1.36D+00 NAtFMM=   60 NAOKFM=F Big=F
 Leave Link  301 at Wed Jul  6 05:19:25 2016, MaxMem=   33554432 cpu:       0.1
 (Enter /home/nestor/.gaussian09/l302.exe)
 NPDir=0 NMtPBC=     1 NCelOv=     1 NCel=       1 NClECP=     1 NCelD=      1
         NCelK=      1 NCelE2=     1 NClLst=     1 CellRange=     0.0.
 One-electron integrals computed using PRISM.
 One-electron integral symmetry used in STVInt
 NBasis=   273 RedAO= T  NBF=   169   104
 NBsUse=   273 1.00D-06 NBFU=   169   104
 Precomputing XC quadrature grid using
 IXCGrd= 2 IRadAn=           0 IRanWt=          -1 IRanGd=           0 AccXCQ= 0.00D+00.
 NRdTot=     447 NPtTot=       56760 NUsed=       59993 NTot=       60025
 NSgBfM=   315   315   315   315   315 NAtAll=     7     7.
 Leave Link  302 at Wed Jul  6 05:19:26 2016, MaxMem=   33554432 cpu:       1.4
 (Enter /home/nestor/.gaussian09/l303.exe)
 DipDrv:  MaxL=1.
 Leave Link  303 at Wed Jul  6 05:19:26 2016, MaxMem=   33554432 cpu:       0.1
 (Enter /home/nestor/.gaussian09/l401.exe)
 Harris functional with IExCor=  402 diagonalized for initial guess.
 ExpMin= 4.38D-02 ExpMax= 4.56D+03 ExpMxC= 6.82D+02 IAcc=2 IRadAn=         4 AccDes= 0.00D+00
 HarFok:  IExCor=  402 AccDes= 0.00D+00 IRadAn=         4 IDoV= 1
 ScaDFX=  1.000000  1.000000  1.000000  1.000000
 FoFCou: FMM=F IPFlag=           0 FMFlag=      100000 FMFlg1=           0
         NFxFlg=           0 DoJE=T BraDBF=F KetDBF=T FulRan=T
         Omega=  0.000000  0.000000  1.000000  0.000000  0.000000 ICntrl=     500 IOpCl=  0
         NMat0=    1 NMatS0=    1 NMatT0=    0 NMatD0=    1 NMtDS0=    0 NMtDT0=    0
         I1Cent=           4 NGrid=           0.
 Petite list used in FoFCou.
 Harris En= -266.284950591942    
 Initial guess orbital symmetries:
       Occupied  (A') (A') (A') (A') (A") (A') (A') (A') (A') (A')
                 (A') (A") (A') (A') (A') (A") (A') (A') (A') (A')
                 (A")
       Virtual   (A") (A') (A') (A") (A") (A") (A') (A') (A') (A")
                 (A') (A') (A') (A") (A') (A") (A') (A") (A') (A')
                 (A") (A') (A') (A") (A') (A") (A') (A") (A') (A')
                 (A") (A') (A') (A') (A') (A') (A") (A') (A') (A")
                 (A") (A') (A') (A") (A') (A') (A') (A') (A') (A')
                 (A") (A') (A") (A') (A") (A') (A') (A') (A") (A")
                 (A") (A') (A') (A") (A') (A") (A") (A') (A') (A')
                 (A") (A') (A") (A') (A") (A') (A') (A") (A') (A')
                 (A") (A") (A') (A") (A") (A') (A") (A') (A') (A")
                 (A') (A') (A") (A') (A') (A') (A") (A') (A') (A')
                 (A") (A') (A') (A') (A") (A') (A") (A') (A') (A')
                 (A') (A") (A') (A') (A") (A") (A") (A") (A') (A')
                 (A') (A') (A") (A') (A") (A') (A') (A") (A") (A')
                 (A') (A") (A") (A') (A") (A') (A') (A") (A') (A')
                 (A") (A') (A") (A") (A') (A') (A") (A") (A') (A')
                 (A") (A') (A') (A") (A") (A') (A') (A") (A') (A")
                 (A') (A") (A') (A') (A') (A') (A") (A') (A') (A")
                 (A") (A') (A') (A') (A") (A") (A') (A") (A') (A")
                 (A') (A") (A') (A') (A") (A') (A') (A') (A') (A")
                 (A') (A") (A') (A") (A") (A') (A") (A') (A") (A')
                 (A') (A") (A') (A") (A') (A") (A') (A") (A') (A')
                 (A") (A") (A') (A") (A') (A') (A') (A") (A') (A")
                 (A') (A") (A') (A') (A") (A') (A") (A") (A') (A")
                 (A') (A') (A") (A") (A') (A') (A") (A') (A') (A")
                 (A') (A') (A') (A") (A') (A') (A') (A') (A') (A")
                 (A') (A')
 The electronic state of the initial guess is 1-A'.
 Leave Link  401 at Wed Jul  6 05:19:27 2016, MaxMem=   33554432 cpu:       2.2
 (Enter /home/nestor/.gaussian09/l502.exe)
 Closed shell SCF:
 Requested convergence on RMS density matrix=1.00D-08 within 128 cycles.
 Requested convergence on MAX density matrix=1.00D-06.
 Requested convergence on             energy=1.00D-06.
 No special actions if energy rises.
 Using DIIS extrapolation, IDIIS=  1040.
 Integral symmetry usage will be decided dynamically.
        59917 words used for storage of precomputed grid.
 IEnd=      380204 IEndB=      380204 NGot=    33554432 MDV=    33290409
 LenX=    33290409 LenY=    33190743
 Fock matrices will be formed incrementally for  20 cycles.

 Cycle   1  Pass 1  IDiag  1:
 FoFCou: FMM=F IPFlag=           0 FMFlag=      100000 FMFlg1=           0
         NFxFlg=           0 DoJE=F BraDBF=F KetDBF=F FulRan=T
         Omega=  0.000000  0.000000  1.000000  0.000000  0.000000 ICntrl=       0 IOpCl=  0
         NMat0=    1 NMatS0=    1 NMatT0=    0 NMatD0=    1 NMtDS0=    0 NMtDT0=    0
         I1Cent=           0 NGrid=           0.
 Petite list used in FoFCou.
 E= -266.244017936743    
 DIIS: error= 1.49D-02 at cycle   1 NSaved=   1.
 NSaved= 1 IEnMin= 1 EnMin= -266.244017936743     IErMin= 1 ErrMin= 1.49D-02
 ErrMax= 1.49D-02 EMaxC= 1.00D-01 BMatC= 6.61D-02 BMatP= 6.61D-02
 IDIUse=3 WtCom= 8.51D-01 WtEn= 1.49D-01
 Coeff-Com:  0.100D+01
 Coeff-En:   0.100D+01
 Coeff:      0.100D+01
 Gap=     0.087 Goal=   None    Shift=    0.000
 GapD=    0.087 DampG=0.500 DampE=0.500 DampFc=0.2500 IDamp=-1.
 Damping current iteration by 2.50D-01
 RMSDP=1.70D-02 MaxDP=1.80D+00              OVMax= 1.18D-01

 Cycle   2  Pass 1  IDiag  1:
 RMSU=  1.80D-03    CP:  9.44D-01
 E= -266.262681402827     Delta-E=       -0.018663466084 Rises=F Damp=T
 DIIS: error= 9.52D-03 at cycle   2 NSaved=   2.
 NSaved= 2 IEnMin= 2 EnMin= -266.262681402827     IErMin= 2 ErrMin= 9.52D-03
 ErrMax= 9.52D-03 EMaxC= 1.00D-01 BMatC= 2.38D-02 BMatP= 6.61D-02
 IDIUse=3 WtCom= 9.05D-01 WtEn= 9.52D-02
 Coeff-Com: -0.109D+01 0.209D+01
 Coeff-En:   0.000D+00 0.100D+01
 Coeff:     -0.989D+00 0.199D+01
 Gap=     0.086 Goal=   None    Shift=    0.000
 RMSDP=1.16D-02 MaxDP=1.42D+00 DE=-1.87D-02 OVMax= 1.56D-01

 Cycle   3  Pass 1  IDiag  1:
 RMSU=  2.05D-03    CP:  7.69D-01  2.49D+00
 E= -266.276954499065     Delta-E=       -0.014273096238 Rises=F Damp=F
 DIIS: error= 1.15D-02 at cycle   3 NSaved=   3.
 NSaved= 3 IEnMin= 3 EnMin= -266.276954499065     IErMin= 2 ErrMin= 9.52D-03
 ErrMax= 1.15D-02 EMaxC= 1.00D-01 BMatC= 1.75D-02 BMatP= 2.38D-02
 IDIUse=3 WtCom= 8.85D-01 WtEn= 1.15D-01
 Coeff-Com: -0.839D+00 0.143D+01 0.414D+00
 Coeff-En:   0.000D+00 0.192D+00 0.808D+00
 Coeff:     -0.743D+00 0.128D+01 0.459D+00
 Gap=     0.082 Goal=   None    Shift=    0.000
 RMSDP=2.51D-03 MaxDP=1.60D-01 DE=-1.43D-02 OVMax= 2.29D-01

 Cycle   4  Pass 1  IDiag  1:
 RMSU=  1.49D-03    CP:  7.71D-01  2.30D+00  5.66D-01
 E= -266.275952763655     Delta-E=        0.001001735409 Rises=F Damp=F
 DIIS: error= 1.13D-02 at cycle   4 NSaved=   4.
 NSaved= 4 IEnMin= 3 EnMin= -266.276954499065     IErMin= 2 ErrMin= 9.52D-03
 ErrMax= 1.13D-02 EMaxC= 1.00D-01 BMatC= 1.45D-02 BMatP= 1.75D-02
 IDIUse=3 WtCom= 8.87D-01 WtEn= 1.13D-01
 Coeff-Com: -0.519D+00 0.851D+00 0.404D+00 0.264D+00
 Coeff-En:   0.000D+00 0.000D+00 0.507D+00 0.493D+00
 Coeff:     -0.460D+00 0.755D+00 0.415D+00 0.290D+00
 Gap=     0.083 Goal=   None    Shift=    0.000
 RMSDP=1.89D-03 MaxDP=1.19D-01 DE= 1.00D-03 OVMax= 1.63D-01

 Cycle   5  Pass 1  IDiag  1:
 RMSU=  5.50D-04    CP:  7.78D-01  2.52D+00  6.07D-01  2.55D-01
 E= -266.297227277160     Delta-E=       -0.021274513505 Rises=F Damp=F
 DIIS: error= 4.76D-03 at cycle   5 NSaved=   5.
 NSaved= 5 IEnMin= 5 EnMin= -266.297227277160     IErMin= 5 ErrMin= 4.76D-03
 ErrMax= 4.76D-03 EMaxC= 1.00D-01 BMatC= 2.25D-03 BMatP= 1.45D-02
 IDIUse=3 WtCom= 9.52D-01 WtEn= 4.76D-02
 Coeff-Com: -0.166D+00 0.254D+00 0.254D+00 0.268D+00 0.390D+00
 Coeff-En:   0.000D+00 0.000D+00 0.000D+00 0.168D+00 0.832D+00
 Coeff:     -0.158D+00 0.242D+00 0.242D+00 0.263D+00 0.411D+00
 Gap=     0.086 Goal=   None    Shift=    0.000
 RMSDP=8.40D-04 MaxDP=5.73D-02 DE=-2.13D-02 OVMax= 4.20D-02

 Cycle   6  Pass 1  IDiag  1:
 RMSU=  1.96D-04    CP:  7.72D-01  2.40D+00  6.84D-01  4.40D-01  3.79D-01
 E= -266.299916301108     Delta-E=       -0.002689023947 Rises=F Damp=F
 DIIS: error= 1.61D-03 at cycle   6 NSaved=   6.
 NSaved= 6 IEnMin= 6 EnMin= -266.299916301108     IErMin= 6 ErrMin= 1.61D-03
 ErrMax= 1.61D-03 EMaxC= 1.00D-01 BMatC= 3.50D-04 BMatP= 2.25D-03
 IDIUse=3 WtCom= 9.84D-01 WtEn= 1.61D-02
 Coeff-Com: -0.370D-01 0.486D-01 0.114D+00 0.151D+00 0.328D+00 0.395D+00
 Coeff-En:   0.000D+00 0.000D+00 0.000D+00 0.000D+00 0.169D+00 0.831D+00
 Coeff:     -0.364D-01 0.478D-01 0.112D+00 0.149D+00 0.325D+00 0.402D+00
 Gap=     0.086 Goal=   None    Shift=    0.000
 RMSDP=2.39D-04 MaxDP=1.57D-02 DE=-2.69D-03 OVMax= 9.58D-03

 Cycle   7  Pass 1  IDiag  1:
 RMSU=  9.29D-05    CP:  7.71D-01  2.43D+00  6.73D-01  4.03D-01  4.99D-01
                    CP:  5.43D-01
 E= -266.300315127403     Delta-E=       -0.000398826296 Rises=F Damp=F
 DIIS: error= 3.12D-04 at cycle   7 NSaved=   7.
 NSaved= 7 IEnMin= 7 EnMin= -266.300315127403     IErMin= 7 ErrMin= 3.12D-04
 ErrMax= 3.12D-04 EMaxC= 1.00D-01 BMatC= 1.48D-05 BMatP= 3.50D-04
 IDIUse=3 WtCom= 9.97D-01 WtEn= 3.12D-03
 Coeff-Com: -0.113D-02-0.173D-02 0.224D-01 0.389D-01 0.120D+00 0.226D+00
 Coeff-Com:  0.596D+00
 Coeff-En:   0.000D+00 0.000D+00 0.000D+00 0.000D+00 0.000D+00 0.000D+00
 Coeff-En:   0.100D+01
 Coeff:     -0.113D-02-0.172D-02 0.223D-01 0.388D-01 0.120D+00 0.225D+00
 Coeff:      0.597D+00
 Gap=     0.087 Goal=   None    Shift=    0.000
 RMSDP=7.42D-05 MaxDP=5.10D-03 DE=-3.99D-04 OVMax= 2.23D-03

 Cycle   8  Pass 1  IDiag  1:
 RMSU=  3.49D-05    CP:  7.71D-01  2.43D+00  6.79D-01  4.02D-01  4.96D-01
                    CP:  6.19D-01  6.67D-01
 E= -266.300327312559     Delta-E=       -0.000012185156 Rises=F Damp=F
 DIIS: error= 1.49D-04 at cycle   8 NSaved=   8.
 NSaved= 8 IEnMin= 8 EnMin= -266.300327312559     IErMin= 8 ErrMin= 1.49D-04
 ErrMax= 1.49D-04 EMaxC= 1.00D-01 BMatC= 4.26D-06 BMatP= 1.48D-05
 IDIUse=3 WtCom= 9.99D-01 WtEn= 1.49D-03
 Coeff-Com:  0.428D-02-0.759D-02-0.402D-02 0.160D-02 0.273D-01 0.854D-01
 Coeff-Com:  0.408D+00 0.485D+00
 Coeff-En:   0.000D+00 0.000D+00 0.000D+00 0.000D+00 0.000D+00 0.000D+00
 Coeff-En:   0.244D+00 0.756D+00
 Coeff:      0.428D-02-0.758D-02-0.402D-02 0.160D-02 0.273D-01 0.852D-01
 Coeff:      0.408D+00 0.485D+00
 Gap=     0.087 Goal=   None    Shift=    0.000
 RMSDP=2.82D-05 MaxDP=1.79D-03 DE=-1.22D-05 OVMax= 8.94D-04

 Cycle   9  Pass 1  IDiag  1:
 RMSU=  7.84D-06    CP:  7.71D-01  2.43D+00  6.76D-01  4.04D-01  5.00D-01
                    CP:  6.17D-01  7.69D-01  7.03D-01
 E= -266.300332130787     Delta-E=       -0.000004818228 Rises=F Damp=F
 DIIS: error= 1.96D-05 at cycle   9 NSaved=   9.
 NSaved= 9 IEnMin= 9 EnMin= -266.300332130787     IErMin= 9 ErrMin= 1.96D-05
 ErrMax= 1.96D-05 EMaxC= 1.00D-01 BMatC= 3.81D-08 BMatP= 4.26D-06
 IDIUse=1 WtCom= 1.00D+00 WtEn= 0.00D+00
 Coeff-Com:  0.854D-03-0.125D-02-0.199D-02-0.223D-02 0.109D-02 0.888D-02
 Coeff-Com:  0.596D-01 0.106D+00 0.829D+00
 Coeff:      0.854D-03-0.125D-02-0.199D-02-0.223D-02 0.109D-02 0.888D-02
 Coeff:      0.596D-01 0.106D+00 0.829D+00
 Gap=     0.087 Goal=   None    Shift=    0.000
 RMSDP=4.48D-06 MaxDP=5.13D-04 DE=-4.82D-06 OVMax= 2.02D-04

 Cycle  10  Pass 1  IDiag  1:
 RMSU=  1.57D-06    CP:  7.71D-01  2.43D+00  6.77D-01  4.04D-01  5.03D-01
                    CP:  6.18D-01  7.64D-01  7.23D-01  1.08D+00
 E= -266.300332191169     Delta-E=       -0.000000060382 Rises=F Damp=F
 DIIS: error= 3.75D-06 at cycle  10 NSaved=  10.
 NSaved=10 IEnMin=10 EnMin= -266.300332191169     IErMin=10 ErrMin= 3.75D-06
 ErrMax= 3.75D-06 EMaxC= 1.00D-01 BMatC= 4.26D-09 BMatP= 3.81D-08
 IDIUse=1 WtCom= 1.00D+00 WtEn= 0.00D+00
 Coeff-Com:  0.215D-03-0.282D-03-0.688D-03-0.103D-02-0.859D-03 0.967D-03
 Coeff-Com:  0.499D-02 0.164D-01 0.311D+00 0.670D+00
 Coeff:      0.215D-03-0.282D-03-0.688D-03-0.103D-02-0.859D-03 0.967D-03
 Coeff:      0.499D-02 0.164D-01 0.311D+00 0.670D+00
 Gap=     0.087 Goal=   None    Shift=    0.000
 RMSDP=9.91D-07 MaxDP=6.45D-05 DE=-6.04D-08 OVMax= 2.85D-05

 Cycle  11  Pass 1  IDiag  1:
 RMSU=  3.82D-07    CP:  7.71D-01  2.43D+00  6.77D-01  4.04D-01  5.03D-01
                    CP:  6.19D-01  7.64D-01  7.26D-01  1.13D+00  1.03D+00
 E= -266.300332195115     Delta-E=       -0.000000003946 Rises=F Damp=F
 DIIS: error= 1.60D-06 at cycle  11 NSaved=  11.
 NSaved=11 IEnMin=11 EnMin= -266.300332195115     IErMin=11 ErrMin= 1.60D-06
 ErrMax= 1.60D-06 EMaxC= 1.00D-01 BMatC= 8.36D-10 BMatP= 4.26D-09
 IDIUse=1 WtCom= 1.00D+00 WtEn= 0.00D+00
 Coeff-Com: -0.271D-04 0.527D-04-0.569D-05-0.191D-03-0.607D-03-0.725D-03
 Coeff-Com: -0.864D-02-0.113D-01 0.299D-01 0.361D+00 0.630D+00
 Coeff:     -0.271D-04 0.527D-04-0.569D-05-0.191D-03-0.607D-03-0.725D-03
 Coeff:     -0.864D-02-0.113D-01 0.299D-01 0.361D+00 0.630D+00
 Gap=     0.087 Goal=   None    Shift=    0.000
 RMSDP=6.45D-07 MaxDP=4.86D-05 DE=-3.95D-09 OVMax= 1.34D-05

 Cycle  12  Pass 1  IDiag  1:
 RMSU=  1.59D-07    CP:  7.71D-01  2.43D+00  6.77D-01  4.04D-01  5.03D-01
                    CP:  6.20D-01  7.64D-01  7.30D-01  1.15D+00  1.05D+00
                    CP:  8.11D-01
 E= -266.300332196005     Delta-E=       -0.000000000890 Rises=F Damp=F
 DIIS: error= 3.85D-07 at cycle  12 NSaved=  12.
 NSaved=12 IEnMin=12 EnMin= -266.300332196005     IErMin=12 ErrMin= 3.85D-07
 ErrMax= 3.85D-07 EMaxC= 1.00D-01 BMatC= 2.72D-11 BMatP= 8.36D-10
 IDIUse=1 WtCom= 1.00D+00 WtEn= 0.00D+00
 Coeff-Com: -0.148D-04 0.230D-04 0.392D-04-0.470D-06-0.503D-04-0.238D-03
 Coeff-Com: -0.219D-02-0.336D-02-0.125D-01 0.269D-01 0.126D+00 0.865D+00
 Coeff:     -0.148D-04 0.230D-04 0.392D-04-0.470D-06-0.503D-04-0.238D-03
 Coeff:     -0.219D-02-0.336D-02-0.125D-01 0.269D-01 0.126D+00 0.865D+00
 Gap=     0.087 Goal=   None    Shift=    0.000
 RMSDP=1.35D-07 MaxDP=1.42D-05 DE=-8.90D-10 OVMax= 3.24D-06

 Cycle  13  Pass 1  IDiag  1:
 RMSU=  3.58D-08    CP:  7.71D-01  2.43D+00  6.77D-01  4.04D-01  5.03D-01
                    CP:  6.20D-01  7.64D-01  7.30D-01  1.15D+00  1.07D+00
                    CP:  8.72D-01  1.06D+00
 E= -266.300332196047     Delta-E=       -0.000000000043 Rises=F Damp=F
 DIIS: error= 5.98D-08 at cycle  13 NSaved=  13.
 NSaved=13 IEnMin=13 EnMin= -266.300332196047     IErMin=13 ErrMin= 5.98D-08
 ErrMax= 5.98D-08 EMaxC= 1.00D-01 BMatC= 1.07D-12 BMatP= 2.72D-11
 IDIUse=1 WtCom= 1.00D+00 WtEn= 0.00D+00
 Coeff-Com: -0.307D-05 0.427D-05 0.133D-04 0.641D-05 0.176D-04-0.262D-04
 Coeff-Com: -0.243D-03-0.414D-03-0.464D-02-0.589D-02 0.127D-01 0.252D+00
 Coeff-Com:  0.747D+00
 Coeff:     -0.307D-05 0.427D-05 0.133D-04 0.641D-05 0.176D-04-0.262D-04
 Coeff:     -0.243D-03-0.414D-03-0.464D-02-0.589D-02 0.127D-01 0.252D+00
 Coeff:      0.747D+00
 Gap=     0.087 Goal=   None    Shift=    0.000
 RMSDP=3.42D-08 MaxDP=4.14D-06 DE=-4.27D-11 OVMax= 6.66D-07

 Cycle  14  Pass 1  IDiag  1:
 RMSU=  1.09D-08    CP:  7.71D-01  2.43D+00  6.77D-01  4.04D-01  5.03D-01
                    CP:  6.20D-01  7.64D-01  7.30D-01  1.15D+00  1.07D+00
                    CP:  8.85D-01  1.09D+00  9.44D-01
 E= -266.300332196049     Delta-E=       -0.000000000002 Rises=F Damp=F
 DIIS: error= 2.60D-08 at cycle  14 NSaved=  14.
 NSaved=14 IEnMin=14 EnMin= -266.300332196049     IErMin=14 ErrMin= 2.60D-08
 ErrMax= 2.60D-08 EMaxC= 1.00D-01 BMatC= 9.40D-14 BMatP= 1.07D-12
 IDIUse=1 WtCom= 1.00D+00 WtEn= 0.00D+00
 Coeff-Com:  0.112D-07-0.200D-06 0.811D-06 0.153D-05 0.715D-05 0.159D-04
 Coeff-Com:  0.115D-03 0.202D-03-0.110D-03-0.321D-02-0.730D-02-0.264D-01
 Coeff-Com:  0.173D+00 0.864D+00
 Coeff:      0.112D-07-0.200D-06 0.811D-06 0.153D-05 0.715D-05 0.159D-04
 Coeff:      0.115D-03 0.202D-03-0.110D-03-0.321D-02-0.730D-02-0.264D-01
 Coeff:      0.173D+00 0.864D+00
 Gap=     0.087 Goal=   None    Shift=    0.000
 RMSDP=7.43D-09 MaxDP=4.40D-07 DE=-1.71D-12 OVMax= 2.28D-07

 SCF Done:  E(RB3LYP) =  -266.300332196     A.U. after   14 cycles
             Convg  =    0.7433D-08             -V/T =  2.0044
 KE= 2.651400888902D+02 PE=-9.879348009987D+02 EE= 2.706821992747D+02
 Leave Link  502 at Wed Jul  6 05:27:12 2016, MaxMem=   33554432 cpu:     484.2
 (Enter /home/nestor/.gaussian09/l801.exe)
 Range of M.O.s used for correlation:     1   273
 NBasis=   273 NAE=    21 NBE=    21 NFC=     0 NFV=     0
 NROrb=    273 NOA=    21 NOB=    21 NVA=   252 NVB=   252

 **** Warning!!: The largest alpha MO coefficient is  0.39150102D+03


 **** Warning!!: The smallest alpha delta epsilon is  0.86848465D-01

 Leave Link  801 at Wed Jul  6 05:27:12 2016, MaxMem=   33554432 cpu:       0.1
 (Enter /home/nestor/.gaussian09/l1101.exe)
 Using compressed storage, NAtomX=     7.
 Will process   8 centers per pass.
 Leave Link 1101 at Wed Jul  6 05:27:13 2016, MaxMem=   33554432 cpu:       1.1
 (Enter /home/nestor/.gaussian09/l1102.exe)
 Symmetrizing basis deriv contribution to polar:
 IMax=3 JMax=2 DiffMx= 0.00D+00
 Leave Link 1102 at Wed Jul  6 05:27:13 2016, MaxMem=   33554432 cpu:       0.1
 (Enter /home/nestor/.gaussian09/l1110.exe)
 Forming Gx(P) for the SCF density, NAtomX=     7.
 Integral derivatives from FoFDir/FoFCou, PRISM(SPDF).
 Do as many integral derivatives as possible in FoFDir.
 G2DrvN: MDV=      33554272.
 G2DrvN: will do     8 centers at a time, making    1 passes doing MaxLOS=3.
 Calling FoFCou, ICntrl=  3107 FMM=F I1Cent=   0 AccDes= 0.00D+00.
 FoFCou: FMM=F IPFlag=           0 FMFlag=      100000 FMFlg1=           0
         NFxFlg=           0 DoJE=F BraDBF=F KetDBF=F FulRan=T
         Omega=  0.000000  0.000000  1.000000  0.000000  0.000000 ICntrl=    3107 IOpCl=  0
         NMat0=    1 NMatS0=    1 NMatT0=    0 NMatD0=    1 NMtDS0=    0 NMtDT0=    0
         I1Cent=           0 NGrid=           0.
 Petite list used in FoFCou.
 FoFDir/FoFCou used for L=0 through L=3.
 End of G2Drv Frequency-dependent properties file   721 does not exist.
 End of G2Drv Frequency-dependent properties file   722 does not exist.
 Leave Link 1110 at Wed Jul  6 05:31:57 2016, MaxMem=   33554432 cpu:     281.2
 (Enter /home/nestor/.gaussian09/l1002.exe)
 Minotr:  Closed shell wavefunction.
          IDoAtm=1111111
          Direct CPHF calculation.
          Differentiating once with respect to electric field.
                with respect to dipole field.
          Differentiating once with respect to nuclear coordinates.
          Using symmetry in CPHF.
          Requested convergence is 1.0D-08 RMS, and 1.0D-07 maximum.
          Secondary convergence is 1.0D-12 RMS, and 1.0D-12 maximum.
          NewPWx=T KeepS1=F KeepF1=F KeepIn=T MapXYZ=F SortEE=F KeepMc=T.
          MDV=      33554358 using IRadAn=       2.
 Generate precomputed XC quadrature information.
          Solving linear equations simultaneously, MaxMat=       0.
 Integrals replicated using symmetry in FoFDir.
 MinBra= 0 MaxBra= 3 Meth= 1.
 IRaf=       0 NMat=  21 IRICut=       1 DoRegI=T DoRafI=F ISym2E= 2 JSym2E=2.
          There are    21 degrees of freedom in the 1st order CPHF.  IDoFFX=4.
     21 vectors produced by pass  0 Test12= 2.52D-14 4.76D-09 XBig12= 1.12D+03 3.15D+01.
 AX will form    21 AO Fock derivatives at one time.
     21 vectors produced by pass  1 Test12= 2.52D-14 4.76D-09 XBig12= 2.71D+02 5.59D+00.
     21 vectors produced by pass  2 Test12= 2.52D-14 4.76D-09 XBig12= 1.19D+01 8.16D-01.
     21 vectors produced by pass  3 Test12= 2.52D-14 4.76D-09 XBig12= 2.65D-01 1.47D-01.
     21 vectors produced by pass  4 Test12= 2.52D-14 4.76D-09 XBig12= 1.28D-03 5.85D-03.
     21 vectors produced by pass  5 Test12= 2.52D-14 4.76D-09 XBig12= 4.77D-06 4.32D-04.
     20 vectors produced by pass  6 Test12= 2.52D-14 4.76D-09 XBig12= 1.22D-08 1.86D-05.
      5 vectors produced by pass  7 Test12= 2.52D-14 4.76D-09 XBig12= 2.60D-11 7.30D-07.
      3 vectors produced by pass  8 Test12= 2.52D-14 4.76D-09 XBig12= 3.78D-12 8.07D-07.
      3 vectors produced by pass  9 Test12= 2.52D-14 4.76D-09 XBig12= 1.02D-12 3.55D-07.
      3 vectors produced by pass 10 Test12= 2.52D-14 4.76D-09 XBig12= 4.69D-14 5.47D-08.
      2 vectors produced by pass 11 Test12= 2.52D-14 4.76D-09 XBig12= 1.45D-15 7.73D-09.
      1 vectors produced by pass 12 Test12= 2.52D-14 4.76D-09 XBig12= 9.91D-16 5.77D-09.
 Inverted reduced A of dimension   163 with in-core refinement.
 FullF1:  Do perturbations    1 to    21.
 Isotropic polarizability for W=    0.000000       98.76 Bohr**3.
 End of Minotr Frequency-dependent properties file   721 does not exist.
 End of Minotr Frequency-dependent properties file   722 does not exist.
 Leave Link 1002 at Wed Jul  6 06:25:11 2016, MaxMem=   33554432 cpu:    3108.3
 (Enter /home/nestor/.gaussian09/l601.exe)
 Copying SCF densities to generalized density rwf, IOpCl= 0 IROHF=0.

 **********************************************************************

            Population analysis using the SCF density.

 **********************************************************************

 Orbital symmetries:
       Occupied  (A') (A') (A') (A') (A') (A") (A') (A') (A') (A')
                 (A') (A") (A') (A') (A') (A") (A') (A') (A') (A')
                 (A")
       Virtual   (A") (A') (A') (A") (A") (A") (A') (A') (A') (A")
                 (A') (A') (A') (A") (A') (A") (A') (A") (A') (A")
                 (A') (A') (A") (A') (A") (A') (A') (A') (A") (A')
                 (A') (A") (A') (A') (A') (A") (A') (A') (A") (A')
                 (A') (A") (A') (A") (A') (A') (A') (A') (A') (A')
                 (A") (A') (A") (A') (A") (A') (A') (A") (A') (A')
                 (A") (A") (A') (A') (A") (A") (A") (A') (A') (A")
                 (A') (A') (A") (A") (A') (A') (A") (A') (A') (A")
                 (A') (A") (A') (A") (A") (A') (A") (A') (A") (A')
                 (A') (A') (A") (A') (A') (A') (A") (A') (A') (A')
                 (A") (A') (A') (A') (A") (A') (A") (A') (A') (A')
                 (A") (A') (A') (A') (A") (A") (A") (A") (A') (A')
                 (A') (A') (A") (A') (A") (A') (A") (A') (A") (A')
                 (A') (A") (A") (A') (A") (A') (A") (A') (A') (A')
                 (A") (A') (A") (A") (A') (A") (A') (A") (A') (A')
                 (A") (A") (A') (A') (A') (A") (A") (A') (A') (A")
                 (A") (A') (A') (A') (A') (A") (A') (A') (A') (A")
                 (A") (A') (A') (A") (A') (A") (A') (A") (A') (A")
                 (A') (A") (A') (A') (A") (A') (A') (A') (A") (A')
                 (A') (A") (A') (A") (A") (A') (A') (A") (A") (A')
                 (A') (A") (A') (A") (A') (A") (A') (A") (A') (A')
                 (A") (A') (A") (A") (A') (A') (A') (A") (A') (A")
                 (A') (A") (A') (A') (A") (A') (A") (A") (A') (A')
                 (A") (A') (A") (A") (A') (A') (A") (A') (A') (A")
                 (A') (A') (A') (A") (A') (A') (A') (A') (A') (A')
                 (A") (A')
 The electronic state is 1-A'.
 Alpha  occ. eigenvalues --  -10.33714 -10.30450 -10.30115 -10.28750 -10.26949
 Alpha  occ. eigenvalues --  -10.26857 -10.26416  -1.00260  -0.97797  -0.79284
 Alpha  occ. eigenvalues --   -0.76682  -0.54130  -0.53540  -0.50206  -0.45701
 Alpha  occ. eigenvalues --   -0.44429  -0.42964  -0.34533  -0.32098  -0.31741
 Alpha  occ. eigenvalues --   -0.29720
 Alpha virt. eigenvalues --   -0.21035  -0.16244  -0.08604  -0.07167  -0.04227
 Alpha virt. eigenvalues --    0.00250   0.00831   0.02968   0.03388   0.03814
 Alpha virt. eigenvalues --    0.04677   0.05839   0.06169   0.07036   0.08117
 Alpha virt. eigenvalues --    0.08690   0.09152   0.09440   0.09717   0.12220
 Alpha virt. eigenvalues --    0.12348   0.13119   0.14688   0.15235   0.15499
 Alpha virt. eigenvalues --    0.16487   0.16962   0.17248   0.17398   0.19059
 Alpha virt. eigenvalues --    0.19814   0.21033   0.21351   0.22478   0.23248
 Alpha virt. eigenvalues --    0.23780   0.24523   0.25309   0.29189   0.30459
 Alpha virt. eigenvalues --    0.32955   0.33958   0.34313   0.38077   0.38782
 Alpha virt. eigenvalues --    0.39545   0.41040   0.42372   0.43092   0.43621
 Alpha virt. eigenvalues --    0.43762   0.44794   0.45325   0.46303   0.47646
 Alpha virt. eigenvalues --    0.48109   0.48816   0.49085   0.49764   0.50949
 Alpha virt. eigenvalues --    0.51232   0.51869   0.52172   0.54080   0.54156
 Alpha virt. eigenvalues --    0.54652   0.55432   0.56674   0.57621   0.61829
 Alpha virt. eigenvalues --    0.61886   0.65133   0.67440   0.68950   0.69027
 Alpha virt. eigenvalues --    0.70587   0.73984   0.74132   0.76007   0.76038
 Alpha virt. eigenvalues --    0.79684   0.79984   0.81066   0.82182   0.83353
 Alpha virt. eigenvalues --    0.85562   0.87677   0.89529   0.91281   0.92660
 Alpha virt. eigenvalues --    1.00544   1.05739   1.06093   1.06860   1.10795
 Alpha virt. eigenvalues --    1.13832   1.18983   1.19450   1.21860   1.25379
 Alpha virt. eigenvalues --    1.30331   1.30747   1.32446   1.33338   1.35720
 Alpha virt. eigenvalues --    1.38901   1.39364   1.39458   1.45750   1.46757
 Alpha virt. eigenvalues --    1.50298   1.50583   1.56365   1.60188   1.60257
 Alpha virt. eigenvalues --    1.61167   1.62093   1.68490   1.69028   1.72459
 Alpha virt. eigenvalues --    1.80092   1.83307   1.83415   1.88010   1.89320
 Alpha virt. eigenvalues --    1.93257   1.96821   1.97081   2.01762   2.02797
 Alpha virt. eigenvalues --    2.07131   2.09651   2.17003   2.20532   2.21710
 Alpha virt. eigenvalues --    2.34016   2.44447   2.44654   2.48873   2.51068
 Alpha virt. eigenvalues --    2.51642   2.57097   2.59299   2.66158   2.67124
 Alpha virt. eigenvalues --    2.67762   2.69372   2.71337   2.72613   2.76024
 Alpha virt. eigenvalues --    2.77246   2.78991   2.79111   2.81948   2.85069
 Alpha virt. eigenvalues --    2.85552   2.88913   2.89377   2.92173   2.93222
 Alpha virt. eigenvalues --    2.96553   2.97636   3.02202   3.04712   3.07578
 Alpha virt. eigenvalues --    3.10921   3.11241   3.13922   3.16352   3.16789
 Alpha virt. eigenvalues --    3.18630   3.22039   3.27723   3.28156   3.28917
 Alpha virt. eigenvalues --    3.36749   3.39898   3.43327   3.45670   3.46066
 Alpha virt. eigenvalues --    3.47054   3.54335   3.56447   3.60505   3.62653
 Alpha virt. eigenvalues --    3.73821   3.81574   3.85982   3.92239   3.92254
 Alpha virt. eigenvalues --    4.00418   4.03388   4.11152   4.11197   4.26369
 Alpha virt. eigenvalues --    4.34509   4.42813   4.44376   4.48277   4.48468
 Alpha virt. eigenvalues --    4.72921   4.73469   5.00211   5.02614   5.15909
 Alpha virt. eigenvalues --    5.22391   5.51130   6.26027   6.32470   6.40230
 Alpha virt. eigenvalues --    6.88645   6.93608   6.93740   6.96964   6.97604
 Alpha virt. eigenvalues --    6.99867   7.01693   7.02727   7.04258   7.04291
 Alpha virt. eigenvalues --    7.15077   7.16109   7.18352   7.21173   7.25730
 Alpha virt. eigenvalues --    7.26996   7.28016   7.28314   7.29046   7.31135
 Alpha virt. eigenvalues --    7.31341   7.40996   7.46825   7.50191   7.53082
 Alpha virt. eigenvalues --    7.61763   7.63456   8.00803   8.06465   8.10951
 Alpha virt. eigenvalues --    8.28871   8.35525   8.46397   8.68679   8.74022
 Alpha virt. eigenvalues --   23.81553  24.24683  24.81950  25.24263  25.69839
 Alpha virt. eigenvalues --   25.70228  25.91516
          Condensed to atoms (all electrons):
              1          2          3          4          5          6
     1  C    8.863051  -0.503883  -1.760496  -0.003260  -0.004202  -0.014270
     2  C   -0.503883  13.973117  -0.503883  -0.874666   0.726324  -1.279648
     3  C   -1.760496  -0.503883   8.863051  -0.003260  -0.004202  -0.014270
     4  C   -0.003260  -0.874666  -0.003260  10.976197   0.109826  -0.725124
     5  C   -0.004202   0.726324  -0.004202   0.109826  10.201341  -4.027323
     6  C   -0.014270  -1.279648  -0.014270  -0.725124  -4.027323  14.675625
     7  C   -0.344407  -6.061307  -0.344407  -3.090045  -1.874058  -1.898017
              7
     1  C   -0.344407
     2  C   -6.061307
     3  C   -0.344407
     4  C   -3.090045
     5  C   -1.874058
     6  C   -1.898017
     7  C   19.436778
 Mulliken atomic charges:
              1
     1  C   -0.232533
     2  C    0.523947
     3  C   -0.232533
     4  C   -0.389668
     5  C    0.872295
     6  C   -0.716973
     7  C    0.175464
 Sum of Mulliken atomic charges =   0.00000
 Mulliken charges with hydrogens summed into heavy atoms:
              1
     1  C   -0.232533
     2  C    0.523947
     3  C   -0.232533
     4  C   -0.389668
     5  C    0.872295
     6  C   -0.716973
     7  C    0.175464
 Sum of Mulliken charges with hydrogens summed into heavy atoms =   0.00000
 APT atomic charges:
              1
     1  C   -0.203143
     2  C   -0.184068
     3  C   -0.203143
     4  C    0.420197
     5  C   -0.667233
     6  C    0.263862
     7  C    0.573528
 Sum of APT charges=   0.00000
 APT Atomic charges with hydrogens summed into heavy atoms:
              1
     1  C   -0.203143
     2  C   -0.184068
     3  C   -0.203143
     4  C    0.420197
     5  C   -0.667233
     6  C    0.263862
     7  C    0.573528
 Sum of APT charges=   0.00000
 Electronic spatial extent (au):  <R**2>=            638.2392
 Charge=              0.0000 electrons
 Dipole moment (field-independent basis, Debye):
    X=             -0.6941    Y=             -0.4259    Z=              0.0000  Tot=              0.8143
 Quadrupole moment (field-independent basis, Debye-Ang):
   XX=            -45.2141   YY=            -45.1301   ZZ=            -41.8759
   XY=             -1.2970   XZ=              0.0000   YZ=              0.0000
 Traceless Quadrupole moment (field-independent basis, Debye-Ang):
   XX=             -1.1407   YY=             -1.0567   ZZ=              2.1975
   XY=             -1.2970   XZ=              0.0000   YZ=              0.0000
 Octapole moment (field-independent basis, Debye-Ang**2):
  XXX=            -20.2313  YYY=             -4.3755  ZZZ=              0.0000  XYY=              2.5283
  XXY=            -13.2495  XXZ=              0.0000  XZZ=              1.0255  YZZ=              7.5079
  YYZ=              0.0000  XYZ=              0.0000
 Hexadecapole moment (field-independent basis, Debye-Ang**3):
 XXXX=           -337.7781 YYYY=           -694.5167 ZZZZ=            -88.2300 XXXY=           -138.3729
 XXXZ=              0.0000 YYYX=           -106.5594 YYYZ=              0.0000 ZZZX=              0.0000
 ZZZY=              0.0000 XXYY=           -179.5295 XXZZ=            -62.5213 YYZZ=           -139.4937
 XXYZ=              0.0000 YYXZ=              0.0000 ZZXY=            -42.7523
 N-N= 1.858121806378D+02 E-N=-9.879348003339D+02  KE= 2.651400888902D+02
 Symmetry A'   KE= 2.252990097872D+02
 Symmetry A"   KE= 3.984107910296D+01
  Exact polarizability:  90.657  39.374 147.634   0.000   0.000  58.003
 Approx polarizability: 263.578 203.578 485.877   0.000   0.000 103.729
 No NMR shielding tensors so no spin-rotation constants.
 Leave Link  601 at Wed Jul  6 06:25:12 2016, MaxMem=   33554432 cpu:       1.1
 (Enter /home/nestor/.gaussian09/l701.exe)
 Compute integral second derivatives.
 ... and contract with generalized density number  0.
 Leave Link  701 at Wed Jul  6 06:25:13 2016, MaxMem=   33554432 cpu:       1.1
 (Enter /home/nestor/.gaussian09/l702.exe)
 L702 exits ... SP integral derivatives will be done elsewhere.
 Leave Link  702 at Wed Jul  6 06:25:13 2016, MaxMem=   33554432 cpu:       0.0
 (Enter /home/nestor/.gaussian09/l703.exe)
 Compute integral second derivatives, UseDBF=F ICtDFT=           0.
 Integral derivatives from FoFDir, PRISM(SPDF).
 Calling FoFJK, ICntrl=    100127 FMM=F ISym2X=1 I1Cent= 0 IOpClX= 0 NMat=1 NMatS=1 NMatT=0.
 FoFCou: FMM=F IPFlag=           0 FMFlag=      100000 FMFlg1=         800
         NFxFlg=           0 DoJE=F BraDBF=F KetDBF=F FulRan=T
         Omega=  0.000000  0.000000  1.000000  0.000000  0.000000 ICntrl=  100127 IOpCl=  0
         NMat0=    1 NMatS0=    1 NMatT0=    0 NMatD0=    1 NMtDS0=    0 NMtDT0=    0
         I1Cent=           0 NGrid=           0.
 Petite list used in FoFCou.
 Leave Link  703 at Wed Jul  6 06:40:55 2016, MaxMem=   33554432 cpu:     909.2
 (Enter /home/nestor/.gaussian09/l716.exe)
 Dipole        =-2.73062599D-01-1.67545169D-01-1.18029729D-14
 Polarizability= 9.06574248D+01 3.93738406D+01 1.47634277D+02
                 2.29768831D-08-1.51363175D-07 5.80032148D+01
 Full mass-weighted force constant matrix:
 Low frequencies ---   -4.8205    0.0009    0.0012    0.0013    6.4624    9.9232
 Low frequencies ---  102.6945  103.2957  142.7707
 Harmonic frequencies (cm**-1), IR intensities (KM/Mole), Raman scattering
 activities (A**4/AMU), depolarization ratios for plane and unpolarized
 incident light, reduced masses (AMU), force constants (mDyne/A),
 and normal coordinates:
                     1                      2                      3
                    A"                     A'                     A"
 Frequencies --   102.6936               103.2957               142.7706
 Red. masses --    12.0000                12.0000                12.0000
 Frc consts  --     0.0746                 0.0754                 0.1441
 IR Inten    --    38.6561                 5.9989                 0.2429
  Atom  AN      X      Y      Z        X      Y      Z        X      Y      Z
     1   6     0.11   0.18   0.26     0.31   0.08   0.00     0.61  -0.08  -0.01
     2   6     0.00   0.00  -0.41    -0.26   0.16   0.00     0.00   0.00  -0.04
     3   6    -0.11  -0.18   0.26     0.31   0.08   0.00    -0.61   0.08  -0.01
     4   6     0.00   0.00   0.36    -0.09   0.20   0.00     0.00   0.00  -0.27
     5   6     0.00   0.00   0.06    -0.16   0.13   0.00     0.00   0.00  -0.13
     6   6     0.00   0.00   0.13    -0.04  -0.77   0.00     0.00   0.00   0.37
     7   6     0.00   0.00  -0.68    -0.06   0.13   0.00     0.00   0.00   0.09
                     4                      5                      6
                    A'                     A"                     A"
 Frequencies --   239.3459               322.2809               432.4155
 Red. masses --    12.0000                12.0000                12.0000
 Frc consts  --     0.4050                 0.7343                 1.3220
 IR Inten    --    11.3402                 0.1398                44.6394
  Atom  AN      X      Y      Z        X      Y      Z        X      Y      Z
     1   6    -0.22   0.04   0.00    -0.12   0.03  -0.04    -0.06  -0.22   0.11
     2   6     0.41  -0.07   0.00     0.00   0.00  -0.19     0.00   0.00   0.67
     3   6    -0.22   0.04   0.00     0.12  -0.03  -0.04     0.06   0.22   0.11
     4   6    -0.24  -0.26   0.00     0.00   0.00   0.41     0.00   0.00  -0.11
     5   6    -0.14   0.57   0.00     0.00   0.00  -0.75     0.00   0.00  -0.37
     6   6    -0.02  -0.27   0.00     0.00   0.00   0.35     0.00   0.00   0.11
     7   6     0.43  -0.06   0.00     0.00   0.00   0.27     0.00   0.00  -0.52
                     7                      8                      9
                    A'                     A"                     A'
 Frequencies --   556.9833               578.4264               583.4102
 Red. masses --    12.0000                12.0000                12.0000
 Frc consts  --     2.1934                 2.3655                 2.4065
 IR Inten    --     1.3459                29.3287                10.2462
  Atom  AN      X      Y      Z        X      Y      Z        X      Y      Z
     1   6    -0.04   0.35   0.02     0.08   0.62  -0.16    -0.15  -0.27  -0.02
     2   6    -0.09   0.00   0.00     0.00   0.00   0.41    -0.35   0.07   0.00
     3   6    -0.04   0.35  -0.02    -0.08  -0.62  -0.16    -0.15  -0.27   0.02
     4   6    -0.18  -0.09   0.00     0.00   0.00   0.00     0.31   0.50   0.00
     5   6    -0.04  -0.60   0.00     0.00   0.00  -0.07    -0.10   0.12   0.00
     6   6    -0.17  -0.06   0.00     0.00   0.00   0.02    -0.10   0.03   0.00
     7   6     0.57   0.04   0.00     0.00   0.00  -0.03     0.53  -0.18   0.00
                    10                     11                     12
                    A'                     A'                     A'
 Frequencies --   835.9333               903.7703              1259.4008
 Red. masses --    12.0000                12.0000                12.0000
 Frc consts  --     4.9405                 5.7749                11.2140
 IR Inten    --    78.4293                40.3130               154.6581
  Atom  AN      X      Y      Z        X      Y      Z        X      Y      Z
     1   6     0.04   0.13   0.02    -0.02  -0.22  -0.05     0.04   0.21   0.35
     2   6     0.31  -0.25   0.00     0.61   0.23   0.00     0.08  -0.28   0.00
     3   6     0.04   0.13  -0.02    -0.02  -0.22   0.05     0.04   0.21  -0.35
     4   6     0.61   0.02   0.00    -0.32   0.48   0.00    -0.15   0.38   0.00
     5   6    -0.35  -0.01   0.00    -0.06  -0.31   0.00    -0.08   0.04   0.00
     6   6    -0.54  -0.05   0.00    -0.15  -0.07   0.00     0.19   0.03   0.00
     7   6    -0.12   0.04   0.00    -0.05   0.10   0.00    -0.11  -0.59   0.00
                    13                     14                     15
                    A'                     A'                     A'
 Frequencies --  1484.8255              1669.3323              1799.8992
 Red. masses --    12.0000                12.0000                12.0000
 Frc consts  --    15.5877                19.7023                22.9049
 IR Inten    --    67.7144               802.5932               142.4792
  Atom  AN      X      Y      Z        X      Y      Z        X      Y      Z
     1   6    -0.02  -0.09   0.47     0.02   0.14  -0.36    -0.01  -0.04   0.15
     2   6     0.01   0.57   0.00     0.00   0.20   0.00    -0.08  -0.51   0.00
     3   6    -0.02  -0.09  -0.47     0.02   0.14   0.36    -0.01  -0.04  -0.15
     4   6     0.11  -0.25   0.00    -0.03   0.02   0.00    -0.17   0.18   0.00
     5   6     0.21   0.00   0.00     0.44   0.10   0.00     0.59   0.13   0.00
     6   6    -0.30  -0.04   0.00    -0.37  -0.05   0.00    -0.37  -0.05   0.00
     7   6    -0.01  -0.10   0.00    -0.09  -0.55   0.00     0.04   0.34   0.00

 -------------------
 - Thermochemistry -
 -------------------
 Temperature   298.150 Kelvin.  Pressure   1.00000 Atm.
 Atom     1 has atomic number  6 and mass  12.00000
 Atom     2 has atomic number  6 and mass  12.00000
 Atom     3 has atomic number  6 and mass  12.00000
 Atom     4 has atomic number  6 and mass  12.00000
 Atom     5 has atomic number  6 and mass  12.00000
 Atom     6 has atomic number  6 and mass  12.00000
 Atom     7 has atomic number  6 and mass  12.00000
 Molecular mass:    84.00000 amu.
 Principal axes and moments of inertia in atomic units:
                           1         2         3
     Eigenvalues --   189.68826 927.906231042.15240
           X            0.40823   0.91288   0.00000
           Y            0.91288  -0.40823   0.00000
           Z            0.00000   0.00000   1.00000
 This molecule is an asymmetric top.
 Rotational symmetry number  1.
 Rotational temperatures (Kelvin)      0.45661     0.09334     0.08311
 Rotational constants (GHZ):           9.51425     1.94496     1.73174
 Zero-point vibrational energy      65883.0 (Joules/Mol)
                                   15.74642 (Kcal/Mol)
 Warning -- explicit consideration of   9 degrees of freedom as
           vibrations may cause significant error
 Vibrational temperatures:    147.75   148.62   205.41   344.36   463.69
          (Kelvin)            622.15   801.37   832.23   839.40  1202.72
                             1300.32  1811.99  2136.33  2401.79  2589.65
 
 Zero-point correction=                           0.025094 (Hartree/Particle)
 Thermal correction to Energy=                    0.031885
 Thermal correction to Enthalpy=                  0.032829
 Thermal correction to Gibbs Free Energy=        -0.005796
 Sum of electronic and zero-point Energies=           -266.275239
 Sum of electronic and thermal Energies=              -266.268448
 Sum of electronic and thermal Enthalpies=            -266.267503
 Sum of electronic and thermal Free Energies=         -266.306128
 
                     E (Thermal)             CV                S
                      KCal/Mol        Cal/Mol-Kelvin    Cal/Mol-Kelvin
 Total                   20.008             21.249             81.293
 Electronic               0.000              0.000              0.000
 Translational            0.889              2.981             39.198
 Rotational               0.889              2.981             26.709
 Vibrational             18.230             15.287             15.386
 Vibration     1          0.605              1.947              3.403
 Vibration     2          0.605              1.947              3.391
 Vibration     3          0.616              1.910              2.766
 Vibration     4          0.657              1.780              1.808
 Vibration     5          0.707              1.631              1.299
 Vibration     6          0.793              1.400              0.851
 Vibration     7          0.912              1.124              0.530
 Vibration     8          0.935              1.078              0.488
 Vibration     9          0.940              1.067              0.479
                       Q            Log10(Q)             Ln(Q)
 Total Bot       0.463431D+03          2.665986          6.138659
 Total V=0       0.161503D+15         14.208180         32.715544
 Vib (Bot)       0.998912D-10        -10.000473        -23.026940
 Vib (Bot)    1  0.199739D+01          0.300464          0.691843
 Vib (Bot)    2  0.198551D+01          0.297873          0.685877
 Vib (Bot)    3  0.142314D+01          0.153247          0.352865
 Vib (Bot)    4  0.819480D+00         -0.086462         -0.199085
 Vib (Bot)    5  0.582491D+00         -0.234711         -0.540442
 Vib (Bot)    6  0.402183D+00         -0.395577         -0.910849
 Vib (Bot)    7  0.279863D+00         -0.553055         -1.273457
 Vib (Bot)    8  0.263858D+00         -0.578630         -1.332345
 Vib (Bot)    9  0.260300D+00         -0.584527         -1.345922
 Vib (V=0)       0.348114D+02          1.541722          3.549945
 Vib (V=0)    1  0.255902D+01          0.408074          0.939626
 Vib (V=0)    2  0.254750D+01          0.406114          0.935113
 Vib (V=0)    3  0.200842D+01          0.302854          0.697348
 Vib (V=0)    4  0.145997D+01          0.164345          0.378418
 Vib (V=0)    5  0.126766D+01          0.103001          0.237169
 Vib (V=0)    6  0.114168D+01          0.057544          0.132499
 Vib (V=0)    7  0.107299D+01          0.030598          0.070454
 Vib (V=0)    8  0.106535D+01          0.027492          0.063304
 Vib (V=0)    9  0.106370D+01          0.026818          0.061752
 Electronic      0.100000D+01          0.000000          0.000000
 Translational   0.302604D+08          7.480874         17.225349
 Rotational      0.153315D+06          5.185584         11.940249
 
                                                              b3lyp opt
                                                             IR Spectrum
 
     1         1            1               1                                                                                        
     8         6            4               2                        9    8                555        4       3     2     1 11       
     0         6            8               5                        0    3                875        3       2     3     4 00       
     0         9            5               9                        4    6                387        2       2     9     3 33       
 
     X         X            X               X                        X    X                XXX        X       X     X     X XX       
     X         X            X               X                             X                                                          
     X         X                            X                                                                                        
     X         X                            X                                                                                        
               X                                                                                                                     
               X                                                                                                                     
               X                                                                                                                     
               X                                                                                                                     
               X                                                                                                                     
               X                                                                                                                     
               X                                                                                                                     
               X                                                                                                                     
               X                                                                                                                     
               X                                                                                                                     
               X                                                                                                                     
               X                                                                                                                     
               X                                                                                                                     
               X                                                                                                                     
               X                                                                                                                     
               X                                                                                                                     
 
 ***** Axes restored to original set *****
 -------------------------------------------------------------------
 Center     Atomic                   Forces (Hartrees/Bohr)
 Number     Number              X              Y              Z
 -------------------------------------------------------------------
      1        6          -0.000032439   -0.000014137   -0.000004530
      2        6          -0.000094540   -0.000000249   -0.000065687
      3        6          -0.000032499    0.000013992   -0.000004550
      4        6          -0.000045670   -0.000000094    0.000005403
      5        6           0.000099048    0.000000207   -0.000006331
      6        6          -0.000029742   -0.000000048    0.000021901
      7        6           0.000135842    0.000000329    0.000053794
 -------------------------------------------------------------------
 Cartesian Forces:  Max     0.000135842 RMS     0.000049026
 Z-matrix is all fixed cartesians, so copy forces.
 Force constants in Cartesian coordinates: 
                1             2             3             4             5 
      1  0.963680D-02
      2  0.280295D-02  0.515423D+00
      3  0.793894D-02  0.743898D-01  0.185649D+00
      4  0.106581D-01  0.239550D-02 -0.473242D-02  0.205371D+00
      5 -0.277328D-02 -0.385973D-02 -0.253435D-01  0.341093D-03  0.653429D-01
      6 -0.100153D-02  0.171439D-01 -0.576293D-01  0.581590D-01  0.693944D-03
      7  0.533967D-03  0.268801D-02  0.154405D-02  0.106562D-01  0.283394D-02
      8 -0.527218D-03 -0.504263D+00 -0.396653D-01 -0.234031D-02 -0.384624D-02
      9  0.137499D-02  0.404797D-01  0.595026D-01 -0.483719D-02  0.252459D-01
     10 -0.252106D-03 -0.296856D-02 -0.991067D-03 -0.723676D-01 -0.266228D-03
     11 -0.358464D-02 -0.127246D-02 -0.200719D-02 -0.223464D-03 -0.106802D-01
     12  0.141911D-03  0.196152D-02  0.106058D-01 -0.127749D+00 -0.446748D-03
     13  0.467048D-03  0.951573D-02  0.486867D-03 -0.624273D-01  0.231205D-04
     14  0.462440D-02 -0.280234D-03 -0.481433D-03 -0.450611D-04 -0.187156D-01
     15 -0.142062D-02  0.478151D-03  0.650689D-02  0.675300D-01  0.497732D-04
     16 -0.625526D-03 -0.612750D-02  0.201342D-02 -0.282278D-01 -0.680990D-04
     17 -0.135092D-03  0.261572D-05 -0.742631D-04 -0.530491D-04  0.383023D-02
     18  0.203535D-03  0.873693D-03 -0.172516D-04  0.216208D-01  0.365922D-04
     19 -0.204183D-01 -0.830613D-02 -0.625979D-02 -0.636630D-01 -0.905517D-04
     20 -0.407136D-03 -0.575062D-02 -0.681812D-02 -0.747105D-04 -0.320714D-01
     21 -0.723723D-02 -0.135327D+00 -0.204618D+00 -0.999132D-02 -0.236005D-03
                6             7             8             9            10 
      6  0.860032D+00
      7 -0.932062D-03  0.966997D-02
      8 -0.172251D-01 -0.495367D-02  0.515176D+00
      9 -0.576409D-01  0.826356D-02 -0.748275D-01  0.185863D+00
     10 -0.187413D+00 -0.280146D-03  0.297137D-02 -0.100394D-02  0.307901D+00
     11 -0.574320D-03  0.358908D-02 -0.124434D-02  0.201993D-02  0.743905D-03
     12 -0.252883D+00  0.145120D-03 -0.194390D-02  0.106057D-01  0.149694D+00
     13  0.162656D+00  0.527506D-03 -0.951157D-02  0.498421D-03 -0.204425D+00
     14  0.253171D-03 -0.462298D-02 -0.340674D-03  0.493312D-03 -0.392327D-03
     15 -0.150726D+00 -0.141196D-02 -0.474434D-03  0.650687D-02  0.308211D-01
     16  0.623953D-03 -0.652304D-03  0.612758D-02  0.200430D-02 -0.305928D-01
     17 -0.830414D-05  0.132588D-03  0.282527D-04  0.828086D-04 -0.797843D-04
     18 -0.961539D-02  0.207077D-03 -0.872862D-03 -0.161118D-04 -0.521334D-02
     19 -0.320928D-01 -0.204552D-01  0.823381D-02 -0.630014D-02  0.160780D-04
     20 -0.283256D-03  0.333031D-03 -0.551036D-02  0.650587D-02 -0.838137D-05
     21 -0.331537D+00 -0.781578D-02  0.135009D+00 -0.204821D+00  0.141064D-01
               11            12            13            14            15 
     11  0.101665D-01
     12  0.518165D-03  0.286544D+00
     13 -0.438045D-03 -0.329637D-01  0.753837D+00
     14 -0.106070D-01 -0.529750D-04  0.131610D-02  0.396354D-01
     15  0.834085D-04  0.138202D-01 -0.294371D+00 -0.495930D-03  0.225873D+00
     16 -0.606813D-04  0.214392D-01 -0.484214D+00 -0.875573D-03  0.174126D+00
     17  0.497420D-02  0.365078D-04 -0.877257D-03 -0.163508D-01  0.343362D-03
     18 -0.204798D-04 -0.804680D-02  0.171777D+00  0.338341D-03 -0.567390D-01
     19 -0.261637D-04 -0.107073D-01 -0.376575D-02 -0.456734D-05  0.247264D-01
     20  0.866335D-02 -0.725712D-04 -0.280807D-04  0.665896D-02  0.156693D-04
     21 -0.195147D-04 -0.606457D-01 -0.808457D-02 -0.544853D-04 -0.452418D-01
               16            17            18            19            20 
     16  0.538608D+00
     17  0.999870D-03  0.801904D-02
     18 -0.187829D+00 -0.355542D-03  0.722918D-01
     19  0.570470D-02  0.127244D-04 -0.766714D-03  0.102581D+00
     20  0.439921D-05 -0.503545D-03  0.000000D+00  0.180878D-03  0.285136D-01
     21 -0.123778D-01 -0.245692D-04  0.214282D-02  0.314003D-01  0.652151D-03
               21 
     21  0.844721D+00
 Leave Link  716 at Wed Jul  6 06:40:55 2016, MaxMem=   33554432 cpu:       0.1
 (Enter /home/nestor/.gaussian09/l103.exe)

 GradGradGradGradGradGradGradGradGradGradGradGradGradGradGradGradGradGrad
 Berny optimization.
 Search for a local minimum.
 Step number   1 out of a maximum of    2
 All quantities printed in internal units (Hartrees-Bohrs-Radians)
 Second derivative matrix not updated -- analytic derivatives used.
 ITU=  0
     Eigenvalues ---    0.00479   0.00485   0.00926   0.02602   0.04717
     Eigenvalues ---    0.08491   0.14088   0.15194   0.15457   0.31733
     Eigenvalues ---    0.37093   0.72028   1.00121   1.26549   1.47119
 Angle between quadratic step and forces=  49.39 degrees.
 ClnCor:  largest displacement from symmetrization is 1.82D-10 for atom     3.
 Linear search not attempted -- first point.
 ClnCor:  largest displacement from symmetrization is 4.47D-15 for atom     1.
 TrRot=  0.000000  0.000000  0.000000  0.000000  0.000000  0.000000
 Variable       Old X    -DE/DX   Delta X   Delta X   Delta X     New X
                                 (Linear)    (Quad)   (Total)
    X1        0.08358  -0.00003   0.00000  -0.00041  -0.00041   0.08317
    Y1        1.25624  -0.00001   0.00000   0.00000   0.00000   1.25624
    Z1        4.82588   0.00000   0.00000  -0.00001  -0.00001   4.82587
    X2       -0.14003  -0.00009   0.00000   0.00001   0.00001  -0.14002
    Y2       -0.00142   0.00000   0.00000   0.00000   0.00000  -0.00142
    Z2       -0.06573  -0.00007   0.00000  -0.00008  -0.00008  -0.06581
    X3        0.08894  -0.00003   0.00000  -0.00041  -0.00041   0.08853
    Y3       -1.25111   0.00001   0.00000   0.00000   0.00000  -1.25111
    Z3        4.82768   0.00000   0.00000  -0.00001  -0.00001   4.82767
    X4       -1.35932  -0.00005   0.00000  -0.00032  -0.00032  -1.35964
    Y4       -0.00568   0.00000   0.00000   0.00000   0.00000  -0.00568
    Z4       -2.37241   0.00001   0.00000   0.00017   0.00017  -2.37223
    X5        1.39854   0.00010   0.00000  -0.00008  -0.00008   1.39846
    Y5        0.00024   0.00000   0.00000   0.00000   0.00000   0.00024
    Z5       -2.33700  -0.00001   0.00000  -0.00024  -0.00024  -2.33724
    X6        3.72342  -0.00003   0.00000  -0.00003  -0.00003   3.72339
    Y6        0.00463   0.00000   0.00000   0.00000   0.00000   0.00463
    Z6       -3.15352   0.00002   0.00000   0.00019   0.00019  -3.15333
    X7       -0.01019   0.00014   0.00000   0.00124   0.00124  -0.00895
    Y7        0.00067   0.00000   0.00000   0.00000   0.00000   0.00067
    Z7        2.46166   0.00005   0.00000  -0.00002  -0.00002   2.46163
         Item               Value     Threshold  Converged?
 Maximum Force            0.000136     0.000450     YES
 RMS     Force            0.000049     0.000300     YES
 Maximum Displacement     0.001239     0.001800     YES
 RMS     Displacement     0.000317     0.001200     YES
 Predicted change in Energy=-1.061608D-07
 Optimization completed.
    -- Stationary point found.
 GradGradGradGradGradGradGradGradGradGradGradGradGradGradGradGradGradGrad

 Leave Link  103 at Wed Jul  6 06:40:55 2016, MaxMem=   33554432 cpu:       0.1
 (Enter /home/nestor/.gaussian09/l9999.exe)
 1\1\GINC-HAL9000\Freq\RB3LYP\6-311++G(3df,2p)\C7\NESTOR\06-Jul-2016\0\
 \#p b3lyp/6-311++G(3df,2p) freq symmetry=Loose\\b3lyp opt\\0,1\C,0.044
 228887,0.664775618,2.553746962\C,-0.074098074,-0.0007525733,-0.0347820
 25\C,0.0470658875,-0.6620573823,2.5546979621\C,-0.719320496,-0.0030070
 591,-1.255423166\C,0.740076092,0.000126813,-1.236688969\C,1.970348488,
 0.0024476571,-1.668771836\C,-0.005393786,0.0003529276,1.302653072\\Ver
 sion=AM64L-G09RevC.01\State=1-A'\HF=-266.3003322\RMSD=7.433e-09\RMSF=4
 .903e-05\ZeroPoint=0.0250935\Thermal=0.0318846\Dipole=-0.2347339,-0.00
 03456,0.218024\DipoleDeriv=-0.0846862,-0.0097502,0.0068581,0.2089369,-
 0.3545489,-1.0443684,0.0333303,-0.4079053,-0.1701936,0.418873,0.000069
 3,-1.0227541,0.0008808,0.0436311,-0.0029454,0.1094907,-0.0005244,-1.01
 47088,-0.0838394,0.01091,0.0023767,-0.207737,-0.3533133,1.0446501,0.03
 18837,0.4083066,-0.1722759,0.3832513,0.0012129,0.0061653,0.0010894,-0.
 1819432,0.0009028,-0.1660896,0.0005345,1.0592819,-1.6148745,-0.0024009
 ,2.0813959,-0.0034992,0.2056807,0.0038783,0.5489422,0.0006016,-0.59250
 47,0.8669333,0.0015116,-1.0543008,0.0019532,-0.193423,-0.002031,-0.438
 1306,-0.0007135,0.118076,0.1143425,-0.0015527,-0.019741,-0.0016242,0.8
 339165,-0.0000864,-0.1194266,-0.0002995,0.7723251\Polar=77.6660617,0.0
 238916,58.0032798,-25.3243472,0.0194063,160.625575\PG=CS [SG(C5),X(C2)
 ]\NImag=0\\0.00963680,0.00280295,0.51542310,0.00793894,0.07438976,0.18
 564919,0.01065809,0.00239550,-0.00473242,0.20537134,-0.00277328,-0.003
 85973,-0.02534348,0.00034109,0.06534294,-0.00100153,0.01714390,-0.0576
 2929,0.05815900,0.00069394,0.86003185,0.00053397,0.00268801,0.00154405
 ,0.01065622,0.00283394,-0.00093206,0.00966997,-0.00052722,-0.50426267,
 -0.03966528,-0.00234031,-0.00384624,-0.01722513,-0.00495367,0.51517603
 ,0.00137499,0.04047968,0.05950259,-0.00483719,0.02524592,-0.05764091,0
 .00826356,-0.07482752,0.18586309,-0.00025211,-0.00296856,-0.00099107,-
 0.07236762,-0.00026623,-0.18741279,-0.00028015,0.00297137,-0.00100394,
 0.30790109,-0.00358464,-0.00127246,-0.00200719,-0.00022346,-0.01068017
 ,-0.00057432,0.00358908,-0.00124434,0.00201993,0.00074390,0.01016646,0
 .00014191,0.00196152,0.01060577,-0.12774890,-0.00044675,-0.25288312,0.
 00014512,-0.00194390,0.01060568,0.14969371,0.00051816,0.28654392,0.000
 46705,0.00951573,0.00048687,-0.06242732,0.00002312,0.16265622,0.000527
 51,-0.00951157,0.00049842,-0.20442454,-0.00043804,-0.03296372,0.753837
 03,0.00462440,-0.00028023,-0.00048143,-0.00004506,-0.01871563,0.000253
 17,-0.00462298,-0.00034067,0.00049331,-0.00039233,-0.01060704,-0.00005
 297,0.00131610,0.03963540,-0.00142062,0.00047815,0.00650689,0.06753003
 ,0.00004977,-0.15072622,-0.00141196,-0.00047443,0.00650687,0.03082107,
 0.00008341,0.01382025,-0.29437055,-0.00049593,0.22587303,-0.00062553,-
 0.00612750,0.00201342,-0.02822776,-0.00006810,0.00062395,-0.00065230,0
 .00612758,0.00200430,-0.03059275,-0.00006068,0.02143921,-0.48421398,-0
 .00087557,0.17412559,0.53860763,-0.00013509,0.00000262,-0.00007426,-0.
 00005305,0.00383023,-0.00000830,0.00013259,0.00002825,0.00008281,-0.00
 007978,0.00497420,0.00003651,-0.00087726,-0.01635079,0.00034336,0.0009
 9987,0.00801904,0.00020354,0.00087369,-0.00001725,0.02162079,0.0000365
 9,-0.00961539,0.00020708,-0.00087286,-0.00001611,-0.00521334,-0.000020
 48,-0.00804680,0.17177732,0.00033834,-0.05673905,-0.18782868,-0.000355
 54,0.07229177,-0.02041827,-0.00830613,-0.00625979,-0.06366295,-0.00009
 055,-0.03209279,-0.02045522,0.00823381,-0.00630014,0.00001608,-0.00002
 616,-0.01070733,-0.00376575,-0.00000457,0.02472643,0.00570470,0.000012
 72,-0.00076671,0.10258141,-0.00040714,-0.00575062,-0.00681812,-0.00007
 471,-0.03207140,-0.00028326,0.00033303,-0.00551036,0.00650587,-0.00000
 838,0.00866335,-0.00007257,-0.00002808,0.00665896,0.00001567,0.0000044
 0,-0.00050355,0.00000026,0.00018088,0.02851362,-0.00723723,-0.13532671
 ,-0.20461790,-0.00999132,-0.00023600,-0.33153693,-0.00781578,0.1350091
 3,-0.20482121,0.01410635,-0.00001951,-0.06064570,-0.00808457,-0.000054
 49,-0.04524177,-0.01237779,-0.00002457,0.00214282,0.03140033,0.0006521
 5,0.84472069\\0.00003244,0.00001414,0.00000453,0.00009454,0.00000025,0
 .00006569,0.00003250,-0.00001399,0.00000455,0.00004567,0.00000009,-0.0
 0000540,-0.00009905,-0.00000021,0.00000633,0.00002974,0.00000005,-0.00
 002190,-0.00013584,-0.00000033,-0.00005379\\\@


 YOU CAN WIPE THE SLATE CLEAN, BUT YOU'LL STILL
 HAVE TO EAT A LITTLE CHALK DUST.
 Job cpu time:  0 days  1 hours 19 minutes 51.1 seconds.
 File lengths (MBytes):  RWF=     50 Int=      0 D2E=      0 Chk=      5 Scr=      1
 Normal termination of Gaussian 09 at Wed Jul  6 06:40:55 2016.
