 Entering Gaussian System, Link 0=/home/proyectos/fulerenos/M3C-v2.0/M3C-deps_CCC/g09-AM64L-G09RevC.01/g09
 Initial command:
 /home/proyectos/fulerenos/M3C-v2.0/M3C-deps_CCC/g09-AM64L-G09RevC.01/l1.exe "/scratch/naguirre/gaussian/Gau-13316.inp" -scrdir="/scratch/naguirre/gaussian/"
 Entering Link 1 = /home/proyectos/fulerenos/M3C-v2.0/M3C-deps_CCC/g09-AM64L-G09RevC.01/l1.exe PID=     13320.
  
 Copyright (c) 1988,1990,1992,1993,1995,1998,2003,2009,2015,
            Gaussian, Inc.  All Rights Reserved.
  
 This is part of the Gaussian(R) 09 program.  It is based on
 the Gaussian(R) 03 system (copyright 2003, Gaussian, Inc.),
 the Gaussian(R) 98 system (copyright 1998, Gaussian, Inc.),
 the Gaussian(R) 94 system (copyright 1995, Gaussian, Inc.),
 the Gaussian 92(TM) system (copyright 1992, Gaussian, Inc.),
 the Gaussian 90(TM) system (copyright 1990, Gaussian, Inc.),
 the Gaussian 88(TM) system (copyright 1988, Gaussian, Inc.),
 the Gaussian 86(TM) system (copyright 1986, Carnegie Mellon
 University), and the Gaussian 82(TM) system (copyright 1983,
 Carnegie Mellon University). Gaussian is a federally registered
 trademark of Gaussian, Inc.
  
 This software contains proprietary and confidential information,
 including trade secrets, belonging to Gaussian, Inc.
  
 This software is provided under written license and may be
 used, copied, transmitted, or stored only in accord with that
 written license.
  
 The following legend is applicable only to US Government
 contracts under FAR:
  
                    RESTRICTED RIGHTS LEGEND
  
 Use, reproduction and disclosure by the US Government is
 subject to restrictions as set forth in subparagraphs (a)
 and (c) of the Commercial Computer Software - Restricted
 Rights clause in FAR 52.227-19.
  
 Gaussian, Inc.
 340 Quinnipiac St., Bldg. 40, Wallingford CT 06492
  
  
 ---------------------------------------------------------------
 Warning -- This program may not be used in any manner that
 competes with the business of Gaussian, Inc. or will provide
 assistance to any competitor of Gaussian, Inc.  The licensee
 of this program is prohibited from giving any competitor of
 Gaussian, Inc. access to this program.  By using this program,
 the user acknowledges that Gaussian, Inc. is engaged in the
 business of creating and licensing software in the field of
 computational chemistry and represents and warrants to the
 licensee that it is not a competitor of Gaussian, Inc. and that
 it will not use this program in any manner prohibited above.
 ---------------------------------------------------------------
  

 Cite this work as:
 Gaussian 09, Revision E.01,
 M. J. Frisch, G. W. Trucks, H. B. Schlegel, G. E. Scuseria, 
 M. A. Robb, J. R. Cheeseman, G. Scalmani, V. Barone, B. Mennucci, 
 G. A. Petersson, H. Nakatsuji, M. Caricato, X. Li, H. P. Hratchian, 
 A. F. Izmaylov, J. Bloino, G. Zheng, J. L. Sonnenberg, M. Hada, 
 M. Ehara, K. Toyota, R. Fukuda, J. Hasegawa, M. Ishida, T. Nakajima, 
 Y. Honda, O. Kitao, H. Nakai, T. Vreven, J. A. Montgomery, Jr., 
 J. E. Peralta, F. Ogliaro, M. Bearpark, J. J. Heyd, E. Brothers, 
 K. N. Kudin, V. N. Staroverov, T. Keith, R. Kobayashi, J. Normand, 
 K. Raghavachari, A. Rendell, J. C. Burant, S. S. Iyengar, J. Tomasi, 
 M. Cossi, N. Rega, J. M. Millam, M. Klene, J. E. Knox, J. B. Cross, 
 V. Bakken, C. Adamo, J. Jaramillo, R. Gomperts, R. E. Stratmann, 
 O. Yazyev, A. J. Austin, R. Cammi, C. Pomelli, J. W. Ochterski, 
 R. L. Martin, K. Morokuma, V. G. Zakrzewski, G. A. Voth, 
 P. Salvador, J. J. Dannenberg, S. Dapprich, A. D. Daniels, 
 O. Farkas, J. B. Foresman, J. V. Ortiz, J. Cioslowski, 
 and D. J. Fox, Gaussian, Inc., Wallingford CT, 2013.
 
 ******************************************
 Gaussian 09:  EM64L-G09RevE.01 30-Nov-2015
                 1-Nov-2016 
 ******************************************
 %NProcShared=4
 Will use up to    4 processors via shared memory.
 -----------------------------------------
 #p b3lyp/6-311+G(3df) freq symmetry=Loose
 -----------------------------------------
 1/10=4,30=1,38=1/1,3;
 2/12=2,17=4,18=3,40=1/2;
 3/5=4,6=6,7=16,11=2,16=1,25=1,30=1,71=2,74=-5,140=1/1,2,3;
 4//1;
 5/5=2,38=5,98=1/2;
 8/6=4,10=90,11=11/1;
 11/6=1,8=1,9=11,15=111,16=1/1,2,10;
 10/6=1/2;
 6/7=2,8=2,9=2,10=2,18=1,28=1/1;
 7/8=1,10=1,25=1/1,2,3,16;
 1/10=4,30=1/3;
 99//99;
 Leave Link    1 at Tue Nov  1 19:45:39 2016, MaxMem=           0 cpu:         0.2
 (Enter /home/proyectos/fulerenos/M3C-v2.0/M3C-deps_CCC/g09-AM64L-G09RevC.01/l101.exe)
 ---------
 b3lyp opt
 ---------
 Symbolic Z-matrix:
 Charge =  1 Multiplicity = 2
 C                     1.03059   0.95789   0.94826 
 C                     1.85743   1.72656   1.70925 
 C                    -0.29708   0.55711   0.73009 
 C                     0.95579   0.05495  -0.12414 
 C                    -0.38569  -0.35864  -0.355 
 C                    -1.18443  -1.10099  -1.08997 
 C                    -1.9766   -1.83688  -1.81849 
 
 NAtoms=      7 NQM=        7 NQMF=       0 NMMI=      0 NMMIF=      0
                NMic=       0 NMicF=      0.
                    Isotopes and Nuclear Properties:
 (Nuclear quadrupole moments (NQMom) in fm**2, nuclear magnetic moments (NMagM)
  in nuclear magnetons)

  Atom         1           2           3           4           5           6           7
 IAtWgt=          12          12          12          12          12          12          12
 AtmWgt=  12.0000000  12.0000000  12.0000000  12.0000000  12.0000000  12.0000000  12.0000000
 NucSpn=           0           0           0           0           0           0           0
 AtZEff=   0.0000000   0.0000000   0.0000000   0.0000000   0.0000000   0.0000000   0.0000000
 NQMom=    0.0000000   0.0000000   0.0000000   0.0000000   0.0000000   0.0000000   0.0000000
 NMagM=    0.0000000   0.0000000   0.0000000   0.0000000   0.0000000   0.0000000   0.0000000
 AtZNuc=   6.0000000   6.0000000   6.0000000   6.0000000   6.0000000   6.0000000   6.0000000
 Leave Link  101 at Tue Nov  1 19:45:39 2016, MaxMem=    33554432 cpu:         0.2
 (Enter /home/proyectos/fulerenos/M3C-v2.0/M3C-deps_CCC/g09-AM64L-G09RevC.01/l103.exe)

 GradGradGradGradGradGradGradGradGradGradGradGradGradGradGradGradGradGrad
 Berny optimization.
 Initialization pass.
 Trust Radius=3.00D-01 FncErr=1.00D-07 GrdErr=1.00D-07
 Number of steps in this run=      2 maximum allowed number of steps=      2.
 GradGradGradGradGradGradGradGradGradGradGradGradGradGradGradGradGradGrad

 Leave Link  103 at Tue Nov  1 19:45:39 2016, MaxMem=    33554432 cpu:         0.0
 (Enter /home/proyectos/fulerenos/M3C-v2.0/M3C-deps_CCC/g09-AM64L-G09RevC.01/l202.exe)
                          Input orientation:                          
 ---------------------------------------------------------------------
 Center     Atomic      Atomic             Coordinates (Angstroms)
 Number     Number       Type             X           Y           Z
 ---------------------------------------------------------------------
      1          6           0        1.030591    0.957894    0.948262
      2          6           0        1.857428    1.726559    1.709246
      3          6           0       -0.297084    0.557109    0.730091
      4          6           0        0.955785    0.054953   -0.124140
      5          6           0       -0.385688   -0.358639   -0.355001
      6          6           0       -1.184431   -1.100994   -1.089967
      7          6           0       -1.976601   -1.836880   -1.818490
 ---------------------------------------------------------------------
                    Distance matrix (angstroms):
                    1          2          3          4          5
     1  C    0.000000
     2  C    1.361471   0.000000
     3  C    1.403905   2.639750   0.000000
     4  C    1.403903   2.639798   1.597358   0.000000
     5  C    2.331866   3.693337   1.422628   1.422640   0.000000
     6  C    3.646878   5.008349   2.617117   2.617166   1.315012
     7  C    4.950645   6.312115   3.879075   3.879271   2.618778
                    6          7
     6  C    0.000000
     7  C    1.303767   0.000000
 Stoichiometry    C7(1+,2)
 Framework group  CS[SG(C7)]
 Deg. of freedom    11
 Full point group                 CS      NOp   2
 Largest Abelian subgroup         CS      NOp   2
 Largest concise Abelian subgroup C1      NOp   1
                         Standard orientation:                         
 ---------------------------------------------------------------------
 Center     Atomic      Atomic             Coordinates (Angstroms)
 Number     Number       Type             X           Y           Z
 ---------------------------------------------------------------------
      1          6           0        0.000103   -1.696726   -0.000000
      2          6           0        0.000031   -3.058196   -0.000000
      3          6           0       -0.798584   -0.542149   -0.000000
      4          6           0        0.798774   -0.542140   -0.000000
      5          6           0        0.000077    0.635140    0.000000
      6          6           0        0.000000    1.950152    0.000000
      7          6           0       -0.000401    3.253919    0.000000
 ---------------------------------------------------------------------
 Rotational constants (GHZ):     33.0112137      1.5251419      1.4577909
 Leave Link  202 at Tue Nov  1 19:45:39 2016, MaxMem=    33554432 cpu:         0.0
 (Enter /home/proyectos/fulerenos/M3C-v2.0/M3C-deps_CCC/g09-AM64L-G09RevC.01/l301.exe)
 Standard basis: 6-311+G(3df) (5D, 7F)
 Ernie: Thresh=  0.10000D-02 Tol=  0.10000D-05 Strict=F.
 There are   217 symmetry adapted cartesian basis functions of A'  symmetry.
 There are    98 symmetry adapted cartesian basis functions of A"  symmetry.
 There are   182 symmetry adapted basis functions of A'  symmetry.
 There are    91 symmetry adapted basis functions of A"  symmetry.
   273 basis functions,   406 primitive gaussians,   315 cartesian basis functions
    21 alpha electrons       20 beta electrons
       nuclear repulsion energy       184.2474602836 Hartrees.
 IExCor=  402 DFT=T Ex+Corr=B3LYP ExCW=0 ScaHFX=  0.200000
 ScaDFX=  0.800000  0.720000  1.000000  0.810000 ScalE2=  1.000000  1.000000
 IRadAn=      0 IRanWt=     -1 IRanGd=            0 ICorTp=0 IEmpDi=  4
 NAtoms=    7 NActive=    7 NUniq=    7 SFac= 1.00D+00 NAtFMM=   60 NAOKFM=F Big=F
 Integral buffers will be    131072 words long.
 Raffenetti 2 integral format.
 Two-electron integral symmetry is turned on.
 Leave Link  301 at Tue Nov  1 19:45:39 2016, MaxMem=    33554432 cpu:         0.2
 (Enter /home/proyectos/fulerenos/M3C-v2.0/M3C-deps_CCC/g09-AM64L-G09RevC.01/l302.exe)
 NPDir=0 NMtPBC=     1 NCelOv=     1 NCel=       1 NClECP=     1 NCelD=      1
         NCelK=      1 NCelE2=     1 NClLst=     1 CellRange=     0.0.
 One-electron integrals computed using PRISM.
 NBasis=   273 RedAO= T EigKep=  1.66D-06  NBF=   182    91
 NBsUse=   272 1.00D-06 EigRej=  2.45D-08 NBFU=   181    91
 Precomputing XC quadrature grid using
 IXCGrd= 4 IRadAn=           0 IRanWt=          -1 IRanGd=           0 AccXCQ= 0.00D+00.
 Generated NRdTot=       0 NPtTot=           0 NUsed=           0 NTot=          32
 NSgBfM=   315   315   315   315   315 MxSgAt=     7 MxSgA2=     7.
 Leave Link  302 at Tue Nov  1 19:45:40 2016, MaxMem=    33554432 cpu:         1.0
 (Enter /home/proyectos/fulerenos/M3C-v2.0/M3C-deps_CCC/g09-AM64L-G09RevC.01/l303.exe)
 DipDrv:  MaxL=1.
 Leave Link  303 at Tue Nov  1 19:45:40 2016, MaxMem=    33554432 cpu:         0.1
 (Enter /home/proyectos/fulerenos/M3C-v2.0/M3C-deps_CCC/g09-AM64L-G09RevC.01/l401.exe)
 ExpMin= 4.38D-02 ExpMax= 4.56D+03 ExpMxC= 6.82D+02 IAcc=2 IRadAn=         4 AccDes= 0.00D+00
 Harris functional with IExCor=  402 and IRadAn=       4 diagonalized for initial guess.
 HarFok:  IExCor=  402 AccDes= 0.00D+00 IRadAn=         4 IDoV= 1 UseB2=F ITyADJ=14
 ICtDFT=  3500011 ScaDFX=  1.000000  1.000000  1.000000  1.000000
 FoFCou: FMM=F IPFlag=           0 FMFlag=      100000 FMFlg1=           0
         NFxFlg=           0 DoJE=T BraDBF=F KetDBF=T FulRan=T
         wScrn=  0.000000 ICntrl=     500 IOpCl=  0 I1Cent=   200000004 NGrid=           0
         NMat0=    1 NMatS0=      1 NMatT0=    0 NMatD0=    1 NMtDS0=    0 NMtDT0=    0
 Petite list used in FoFCou.
 Harris En= -266.036478542082    
 JPrj=0 DoOrth=F DoCkMO=F.
 Initial guess orbital symmetries:
 Alpha Orbitals:
       Occupied  (A') (A') (A') (A') (A') (A') (A') (A') (A') (A')
                 (A') (A') (A') (A') (A") (A") (A') (A') (A') (A')
                 (A")
       Virtual   (A') (A") (A") (A') (A') (A") (A') (A') (A") (A')
                 (A") (A') (A') (A') (A') (A") (A") (A') (A') (A")
                 (A') (A') (A') (A") (A') (A') (A") (A') (A') (A')
                 (A') (A') (A") (A') (A') (A") (A') (A') (A') (A')
                 (A") (A') (A') (A") (A') (A') (A") (A') (A') (A')
                 (A') (A') (A') (A") (A") (A') (A") (A') (A') (A')
                 (A") (A') (A") (A') (A") (A") (A") (A') (A") (A')
                 (A') (A') (A') (A") (A') (A") (A') (A') (A") (A')
                 (A') (A') (A") (A") (A') (A") (A') (A') (A') (A")
                 (A') (A') (A") (A') (A') (A') (A') (A') (A') (A')
                 (A") (A') (A") (A') (A') (A") (A') (A') (A') (A")
                 (A") (A') (A') (A") (A") (A') (A') (A") (A') (A')
                 (A") (A') (A") (A") (A') (A') (A') (A') (A') (A")
                 (A') (A") (A') (A") (A') (A') (A") (A") (A") (A')
                 (A') (A") (A') (A") (A') (A') (A') (A") (A") (A')
                 (A') (A") (A") (A') (A") (A') (A') (A") (A") (A')
                 (A') (A") (A') (A") (A") (A') (A") (A') (A') (A')
                 (A") (A') (A') (A') (A") (A') (A') (A') (A") (A')
                 (A') (A') (A") (A') (A') (A") (A') (A") (A') (A')
                 (A') (A') (A') (A") (A') (A") (A') (A") (A") (A')
                 (A') (A") (A') (A') (A') (A') (A") (A') (A') (A")
                 (A') (A") (A') (A") (A") (A') (A") (A') (A') (A')
                 (A") (A') (A") (A") (A") (A') (A') (A') (A') (A")
                 (A") (A') (A") (A") (A') (A") (A') (A') (A') (A')
                 (A') (A') (A') (A') (A') (A') (A') (A') (A') (A')
                 (A')
 Beta  Orbitals:
       Occupied  (A') (A') (A') (A') (A') (A') (A') (A') (A') (A')
                 (A') (A') (A') (A') (A") (A") (A') (A') (A') (A')
       Virtual   (A") (A') (A") (A") (A') (A') (A") (A') (A') (A")
                 (A') (A") (A') (A') (A') (A') (A") (A") (A') (A')
                 (A") (A') (A') (A') (A") (A') (A') (A") (A') (A')
                 (A') (A') (A') (A") (A') (A') (A") (A') (A') (A')
                 (A') (A") (A') (A') (A") (A') (A') (A") (A') (A')
                 (A') (A') (A') (A') (A") (A") (A') (A") (A') (A')
                 (A') (A") (A') (A") (A') (A") (A") (A") (A') (A")
                 (A') (A') (A') (A') (A") (A') (A") (A') (A') (A")
                 (A') (A') (A') (A") (A") (A') (A") (A') (A') (A')
                 (A") (A') (A') (A") (A') (A') (A') (A') (A') (A')
                 (A') (A") (A') (A") (A') (A') (A") (A') (A') (A')
                 (A") (A") (A') (A') (A") (A") (A') (A') (A") (A')
                 (A') (A") (A') (A") (A") (A') (A') (A') (A') (A')
                 (A") (A') (A") (A') (A") (A') (A') (A") (A") (A")
                 (A') (A') (A") (A') (A") (A') (A') (A') (A") (A")
                 (A') (A') (A") (A") (A') (A") (A') (A') (A") (A")
                 (A') (A') (A") (A') (A") (A") (A') (A") (A') (A')
                 (A') (A") (A') (A') (A') (A") (A') (A') (A') (A")
                 (A') (A') (A') (A") (A') (A') (A") (A') (A") (A')
                 (A') (A') (A') (A') (A") (A') (A") (A') (A") (A")
                 (A') (A') (A") (A') (A') (A') (A') (A") (A') (A')
                 (A") (A') (A") (A') (A") (A") (A') (A") (A') (A')
                 (A') (A") (A') (A") (A") (A") (A') (A') (A') (A')
                 (A") (A") (A') (A") (A") (A') (A") (A') (A') (A')
                 (A') (A') (A') (A') (A') (A') (A') (A') (A') (A')
                 (A') (A')
 The electronic state of the initial guess is 2-A".
 Initial guess <Sx>= 0.0000 <Sy>= 0.0000 <Sz>= 0.5000 <S**2>= 0.7500 S= 0.5000
 Leave Link  401 at Tue Nov  1 19:45:40 2016, MaxMem=    33554432 cpu:         2.3
 (Enter /home/proyectos/fulerenos/M3C-v2.0/M3C-deps_CCC/g09-AM64L-G09RevC.01/l502.exe)
 UHF open shell SCF:
 Using DIIS extrapolation, IDIIS=  1040.
 Integral symmetry usage will be decided dynamically.
 IVT=      320422 IEndB=      320422 NGot=    33554432 MDV=    33350191
 LenX=    33350191 LenY=    33250525
 Requested convergence on RMS density matrix=1.00D-08 within 128 cycles.
 Requested convergence on MAX density matrix=1.00D-06.
 Requested convergence on             energy=1.00D-06.
 No special actions if energy rises.
 Fock matrices will be formed incrementally for  20 cycles.

 Cycle   1  Pass 1  IDiag  1:
 FoFJK:  IHMeth= 1 ICntrl=       0 DoSepK=F KAlg= 0 I1Cent=   0 FoldK=F
 IRaf= 940000000 NMat=   1 IRICut=       1 DoRegI=T DoRafI=F ISym2E= 1.
 FoFCou: FMM=F IPFlag=           0 FMFlag=      100000 FMFlg1=           0
         NFxFlg=           0 DoJE=F BraDBF=F KetDBF=F FulRan=T
         wScrn=  0.000000 ICntrl=       0 IOpCl=  1 I1Cent=           0 NGrid=           0
         NMat0=    1 NMatS0=      1 NMatT0=    0 NMatD0=    1 NMtDS0=    0 NMtDT0=    0
 Petite list used in FoFCou.
 E= -265.780573930250    
 DIIS: error= 4.93D-02 at cycle   1 NSaved=   1.
 NSaved= 1 IEnMin= 1 EnMin= -265.780573930250     IErMin= 1 ErrMin= 4.93D-02
 ErrMax= 4.93D-02  0.00D+00 EMaxC= 1.00D-01 BMatC= 4.60D-01 BMatP= 4.60D-01
 IDIUse=3 WtCom= 5.07D-01 WtEn= 4.93D-01
 Coeff-Com:  0.100D+01
 Coeff-En:   0.100D+01
 Coeff:      0.100D+01
 Gap=    -0.015 Goal=   None    Shift=    0.000
 Gap=    -0.330 Goal=   None    Shift=    0.000
 GapD=   -0.330 DampG=0.250 DampE=0.500 DampFc=0.2500 IDamp=-1.
 Damping current iteration by 2.50D-01
 RMSDP=2.34D-02 MaxDP=1.47D+00              OVMax= 9.70D-01

 Cycle   2  Pass 1  IDiag  1:
 RMSU=  5.85D-03    CP:  1.01D+00
 E= -265.629957225189     Delta-E=        0.150616705061 Rises=F Damp=T
 DIIS: error= 3.39D-02 at cycle   2 NSaved=   2.
 NSaved= 2 IEnMin= 1 EnMin= -265.780573930250     IErMin= 2 ErrMin= 3.39D-02
 ErrMax= 3.39D-02  0.00D+00 EMaxC= 1.00D-01 BMatC= 2.35D-01 BMatP= 4.60D-01
 IDIUse=3 WtCom= 6.61D-01 WtEn= 3.39D-01
 Coeff-Com:  0.370D+00 0.630D+00
 Coeff-En:   0.663D+00 0.337D+00
 Coeff:      0.470D+00 0.530D+00
 Gap=     0.021 Goal=   None    Shift=    0.000
 Gap=     0.023 Goal=   None    Shift=    0.000
 RMSDP=7.84D-03 MaxDP=4.04D-01 DE= 1.51D-01 OVMax= 9.85D-01

 Cycle   3  Pass 1  IDiag  1:
 RMSU=  5.90D-03    CP:  1.16D+00  9.79D-01
 E= -265.883835435282     Delta-E=       -0.253878210093 Rises=F Damp=F
 DIIS: error= 3.45D-02 at cycle   3 NSaved=   3.
 NSaved= 3 IEnMin= 3 EnMin= -265.883835435282     IErMin= 2 ErrMin= 3.39D-02
 ErrMax= 3.45D-02  0.00D+00 EMaxC= 1.00D-01 BMatC= 1.42D-01 BMatP= 2.35D-01
 IDIUse=3 WtCom= 6.55D-01 WtEn= 3.45D-01
 Coeff-Com: -0.515D-02 0.430D+00 0.575D+00
 Coeff-En:   0.000D+00 0.104D+00 0.896D+00
 Coeff:     -0.337D-02 0.318D+00 0.686D+00
 Gap=     0.084 Goal=   None    Shift=    0.000
 Gap=     0.037 Goal=   None    Shift=    0.000
 RMSDP=5.95D-03 MaxDP=3.02D-01 DE=-2.54D-01 OVMax= 2.15D-01

 Cycle   4  Pass 1  IDiag  1:
 RMSU=  4.05D-03    CP:  1.06D+00  7.16D-01  5.95D-01
 E= -265.927840230264     Delta-E=       -0.044004794982 Rises=F Damp=F
 DIIS: error= 1.47D-02 at cycle   4 NSaved=   4.
 NSaved= 4 IEnMin= 4 EnMin= -265.927840230264     IErMin= 4 ErrMin= 1.47D-02
 ErrMax= 1.47D-02  0.00D+00 EMaxC= 1.00D-01 BMatC= 7.14D-02 BMatP= 1.42D-01
 IDIUse=3 WtCom= 8.53D-01 WtEn= 1.47D-01
 Coeff-Com: -0.523D-01 0.189D+00 0.465D+00 0.399D+00
 Coeff-En:   0.000D+00 0.000D+00 0.281D+00 0.719D+00
 Coeff:     -0.446D-01 0.161D+00 0.438D+00 0.446D+00
 Gap=     0.102 Goal=   None    Shift=    0.000
 Gap=     0.062 Goal=   None    Shift=    0.000
 RMSDP=2.85D-03 MaxDP=1.57D-01 DE=-4.40D-02 OVMax= 1.09D-01

 Cycle   5  Pass 1  IDiag  1:
 RMSU=  1.85D-03    CP:  1.10D+00  8.13D-01  8.12D-01  7.29D-01
 E= -265.941479412892     Delta-E=       -0.013639182628 Rises=F Damp=F
 DIIS: error= 1.25D-02 at cycle   5 NSaved=   5.
 NSaved= 5 IEnMin= 5 EnMin= -265.941479412892     IErMin= 5 ErrMin= 1.25D-02
 ErrMax= 1.25D-02  0.00D+00 EMaxC= 1.00D-01 BMatC= 1.86D-02 BMatP= 7.14D-02
 IDIUse=3 WtCom= 8.75D-01 WtEn= 1.25D-01
 Coeff-Com: -0.774D-01 0.109D+00 0.198D+00 0.283D+00 0.487D+00
 Coeff-En:   0.000D+00 0.000D+00 0.000D+00 0.293D+00 0.707D+00
 Coeff:     -0.678D-01 0.958D-01 0.173D+00 0.284D+00 0.514D+00
 Gap=     0.100 Goal=   None    Shift=    0.000
 Gap=     0.067 Goal=   None    Shift=    0.000
 RMSDP=9.03D-04 MaxDP=4.75D-02 DE=-1.36D-02 OVMax= 5.64D-02

 Cycle   6  Pass 1  IDiag  1:
 RMSU=  5.90D-04    CP:  1.09D+00  8.09D-01  7.39D-01  7.98D-01  8.61D-01
 E= -265.948014125690     Delta-E=       -0.006534712798 Rises=F Damp=F
 DIIS: error= 4.75D-03 at cycle   6 NSaved=   6.
 NSaved= 6 IEnMin= 6 EnMin= -265.948014125690     IErMin= 6 ErrMin= 4.75D-03
 ErrMax= 4.75D-03  0.00D+00 EMaxC= 1.00D-01 BMatC= 4.50D-03 BMatP= 1.86D-02
 IDIUse=3 WtCom= 9.52D-01 WtEn= 4.75D-02
 Coeff-Com: -0.568D-01 0.560D-01-0.180D-01 0.775D-01 0.396D+00 0.545D+00
 Coeff-En:   0.000D+00 0.000D+00 0.000D+00 0.000D+00 0.000D+00 0.100D+01
 Coeff:     -0.541D-01 0.534D-01-0.172D-01 0.738D-01 0.377D+00 0.567D+00
 Gap=     0.098 Goal=   None    Shift=    0.000
 Gap=     0.066 Goal=   None    Shift=    0.000
 RMSDP=5.53D-04 MaxDP=3.20D-02 DE=-6.53D-03 OVMax= 2.43D-02

 Cycle   7  Pass 1  IDiag  1:
 RMSU=  2.98D-04    CP:  1.09D+00  8.06D-01  7.65D-01  8.51D-01  1.03D+00
                    CP:  6.86D-01
 E= -265.949608455120     Delta-E=       -0.001594329430 Rises=F Damp=F
 DIIS: error= 3.50D-03 at cycle   7 NSaved=   7.
 NSaved= 7 IEnMin= 7 EnMin= -265.949608455120     IErMin= 7 ErrMin= 3.50D-03
 ErrMax= 3.50D-03  0.00D+00 EMaxC= 1.00D-01 BMatC= 1.02D-03 BMatP= 4.50D-03
 IDIUse=3 WtCom= 9.65D-01 WtEn= 3.50D-02
 Coeff-Com: -0.901D-02 0.183D-01-0.501D-01-0.552D-01-0.127D+00 0.976D-01
 Coeff-Com:  0.113D+01
 Coeff-En:   0.000D+00 0.000D+00 0.000D+00 0.000D+00 0.000D+00 0.000D+00
 Coeff-En:   0.100D+01
 Coeff:     -0.870D-02 0.176D-01-0.483D-01-0.533D-01-0.122D+00 0.942D-01
 Coeff:      0.112D+01
 Gap=     0.100 Goal=   None    Shift=    0.000
 Gap=     0.068 Goal=   None    Shift=    0.000
 RMSDP=2.41D-04 MaxDP=1.32D-02 DE=-1.59D-03 OVMax= 3.12D-02

 Cycle   8  Pass 1  IDiag  1:
 RMSU=  1.41D-04    CP:  1.09D+00  8.18D-01  7.79D-01  8.66D-01  1.09D+00
                    CP:  7.58D-01  1.30D+00
 E= -265.950210435501     Delta-E=       -0.000601980381 Rises=F Damp=F
 DIIS: error= 1.25D-03 at cycle   8 NSaved=   8.
 NSaved= 8 IEnMin= 8 EnMin= -265.950210435501     IErMin= 8 ErrMin= 1.25D-03
 ErrMax= 1.25D-03  0.00D+00 EMaxC= 1.00D-01 BMatC= 2.47D-04 BMatP= 1.02D-03
 IDIUse=3 WtCom= 9.87D-01 WtEn= 1.25D-02
 Coeff-Com:  0.464D-02 0.977D-03-0.196D-01-0.450D-01-0.200D+00-0.123D+00
 Coeff-Com:  0.710D+00 0.672D+00
 Coeff-En:   0.000D+00 0.000D+00 0.000D+00 0.000D+00 0.000D+00 0.000D+00
 Coeff-En:   0.000D+00 0.100D+01
 Coeff:      0.458D-02 0.965D-03-0.193D-01-0.444D-01-0.198D+00-0.121D+00
 Coeff:      0.701D+00 0.677D+00
 Gap=     0.099 Goal=   None    Shift=    0.000
 Gap=     0.068 Goal=   None    Shift=    0.000
 RMSDP=2.19D-04 MaxDP=9.14D-03 DE=-6.02D-04 OVMax= 1.38D-02

 Cycle   9  Pass 1  IDiag  1:
 RMSU=  5.96D-05    CP:  1.09D+00  8.08D-01  7.73D-01  8.93D-01  1.16D+00
                    CP:  7.70D-01  1.58D+00  9.83D-01
 E= -265.950350449533     Delta-E=       -0.000140014032 Rises=F Damp=F
 DIIS: error= 2.08D-04 at cycle   9 NSaved=   9.
 NSaved= 9 IEnMin= 9 EnMin= -265.950350449533     IErMin= 9 ErrMin= 2.08D-04
 ErrMax= 2.08D-04  0.00D+00 EMaxC= 1.00D-01 BMatC= 2.45D-05 BMatP= 2.47D-04
 IDIUse=3 WtCom= 9.98D-01 WtEn= 2.08D-03
 Coeff-Com:  0.409D-02-0.338D-02 0.868D-02-0.395D-02-0.638D-01-0.996D-01
 Coeff-Com:  0.291D-01 0.353D+00 0.776D+00
 Coeff-En:   0.000D+00 0.000D+00 0.000D+00 0.000D+00 0.000D+00 0.000D+00
 Coeff-En:   0.000D+00 0.000D+00 0.100D+01
 Coeff:      0.408D-02-0.337D-02 0.867D-02-0.395D-02-0.637D-01-0.994D-01
 Coeff:      0.290D-01 0.352D+00 0.777D+00
 Gap=     0.099 Goal=   None    Shift=    0.000
 Gap=     0.069 Goal=   None    Shift=    0.000
 RMSDP=8.34D-05 MaxDP=5.08D-03 DE=-1.40D-04 OVMax= 7.11D-03

 Cycle  10  Pass 1  IDiag  1:
 RMSU=  3.07D-05    CP:  1.09D+00  8.15D-01  7.78D-01  8.93D-01  1.16D+00
                    CP:  7.71D-01  1.68D+00  1.13D+00  9.43D-01
 E= -265.950358020804     Delta-E=       -0.000007571272 Rises=F Damp=F
 DIIS: error= 3.15D-04 at cycle  10 NSaved=  10.
 NSaved=10 IEnMin=10 EnMin= -265.950358020804     IErMin= 9 ErrMin= 2.08D-04
 ErrMax= 3.15D-04  0.00D+00 EMaxC= 1.00D-01 BMatC= 1.24D-05 BMatP= 2.45D-05
 IDIUse=3 WtCom= 9.98D-01 WtEn= 2.08D-03
 Coeff-Com:  0.156D-02-0.243D-02 0.939D-03 0.118D-03 0.181D-01 0.130D-01
 Coeff-Com: -0.228D-01-0.513D-01 0.287D-02 0.104D+01
 Coeff-En:   0.000D+00 0.000D+00 0.000D+00 0.000D+00 0.000D+00 0.000D+00
 Coeff-En:   0.000D+00 0.000D+00 0.000D+00 0.100D+01
 Coeff:      0.156D-02-0.243D-02 0.937D-03 0.117D-03 0.181D-01 0.130D-01
 Coeff:     -0.227D-01-0.512D-01 0.287D-02 0.104D+01
 Gap=     0.099 Goal=   None    Shift=    0.000
 Gap=     0.069 Goal=   None    Shift=    0.000
 RMSDP=2.73D-05 MaxDP=1.59D-03 DE=-7.57D-06 OVMax= 1.04D-03

 Cycle  11  Pass 1  IDiag  1:
 RMSU=  1.34D-05    CP:  1.09D+00  8.13D-01  7.77D-01  8.90D-01  1.16D+00
                    CP:  7.60D-01  1.67D+00  1.12D+00  1.09D+00  9.80D-01
 E= -265.950362621230     Delta-E=       -0.000004600426 Rises=F Damp=F
 DIIS: error= 1.54D-04 at cycle  11 NSaved=  11.
 NSaved=11 IEnMin=11 EnMin= -265.950362621230     IErMin=11 ErrMin= 1.54D-04
 ErrMax= 1.54D-04  0.00D+00 EMaxC= 1.00D-01 BMatC= 3.03D-06 BMatP= 1.24D-05
 IDIUse=3 WtCom= 9.98D-01 WtEn= 1.54D-03
 Coeff-Com:  0.451D-03-0.533D-03-0.147D-02-0.121D-02 0.933D-02 0.142D-01
 Coeff-Com:  0.718D-02-0.443D-01-0.146D+00-0.262D+00 0.142D+01
 Coeff-En:   0.000D+00 0.000D+00 0.000D+00 0.000D+00 0.000D+00 0.000D+00
 Coeff-En:   0.000D+00 0.000D+00 0.000D+00 0.000D+00 0.100D+01
 Coeff:      0.450D-03-0.532D-03-0.147D-02-0.121D-02 0.932D-02 0.142D-01
 Coeff:      0.717D-02-0.442D-01-0.145D+00-0.262D+00 0.142D+01
 Gap=     0.100 Goal=   None    Shift=    0.000
 Gap=     0.069 Goal=   None    Shift=    0.000
 RMSDP=1.87D-05 MaxDP=7.74D-04 DE=-4.60D-06 OVMax= 9.89D-04

 Cycle  12  Pass 1  IDiag  1:
 RMSU=  6.55D-06    CP:  1.09D+00  8.13D-01  7.78D-01  8.87D-01  1.16D+00
                    CP:  7.55D-01  1.66D+00  1.15D+00  1.15D+00  1.10D+00
                    CP:  1.34D+00
 E= -265.950364105539     Delta-E=       -0.000001484309 Rises=F Damp=F
 DIIS: error= 1.60D-05 at cycle  12 NSaved=  12.
 NSaved=12 IEnMin=12 EnMin= -265.950364105539     IErMin=12 ErrMin= 1.60D-05
 ErrMax= 1.60D-05  0.00D+00 EMaxC= 1.00D-01 BMatC= 1.30D-07 BMatP= 3.03D-06
 IDIUse=1 WtCom= 1.00D+00 WtEn= 0.00D+00
 Coeff-Com:  0.126D-03-0.199D-04-0.708D-03-0.796D-03 0.694D-03 0.356D-02
 Coeff-Com:  0.881D-02-0.110D-01-0.606D-01-0.279D+00 0.695D+00 0.644D+00
 Coeff:      0.126D-03-0.199D-04-0.708D-03-0.796D-03 0.694D-03 0.356D-02
 Coeff:      0.881D-02-0.110D-01-0.606D-01-0.279D+00 0.695D+00 0.644D+00
 Gap=     0.100 Goal=   None    Shift=    0.000
 Gap=     0.069 Goal=   None    Shift=    0.000
 RMSDP=5.89D-06 MaxDP=3.12D-04 DE=-1.48D-06 OVMax= 1.95D-04

 Cycle  13  Pass 1  IDiag  1:
 RMSU=  2.18D-06    CP:  1.09D+00  8.12D-01  7.78D-01  8.87D-01  1.16D+00
                    CP:  7.55D-01  1.65D+00  1.15D+00  1.17D+00  1.07D+00
                    CP:  1.49D+00  1.20D+00
 E= -265.950364147315     Delta-E=       -0.000000041776 Rises=F Damp=F
 DIIS: error= 1.14D-05 at cycle  13 NSaved=  13.
 NSaved=13 IEnMin=13 EnMin= -265.950364147315     IErMin=13 ErrMin= 1.14D-05
 ErrMax= 1.14D-05  0.00D+00 EMaxC= 1.00D-01 BMatC= 2.70D-08 BMatP= 1.30D-07
 IDIUse=1 WtCom= 1.00D+00 WtEn= 0.00D+00
 Coeff-Com: -0.321D-05 0.518D-05 0.711D-04 0.151D-04-0.174D-02-0.202D-02
 Coeff-Com:  0.140D-02 0.268D-02 0.955D-02-0.204D-01-0.362D-01 0.217D+00
 Coeff-Com:  0.829D+00
 Coeff:     -0.321D-05 0.518D-05 0.711D-04 0.151D-04-0.174D-02-0.202D-02
 Coeff:      0.140D-02 0.268D-02 0.955D-02-0.204D-01-0.362D-01 0.217D+00
 Coeff:      0.829D+00
 Gap=     0.100 Goal=   None    Shift=    0.000
 Gap=     0.069 Goal=   None    Shift=    0.000
 RMSDP=1.97D-06 MaxDP=9.17D-05 DE=-4.18D-08 OVMax= 1.41D-04

 Cycle  14  Pass 1  IDiag  1:
 RMSU=  1.07D-06    CP:  1.09D+00  8.12D-01  7.78D-01  8.87D-01  1.16D+00
                    CP:  7.55D-01  1.66D+00  1.15D+00  1.17D+00  1.06D+00
                    CP:  1.48D+00  1.25D+00  1.14D+00
 E= -265.950364159172     Delta-E=       -0.000000011857 Rises=F Damp=F
 DIIS: error= 4.54D-06 at cycle  14 NSaved=  14.
 NSaved=14 IEnMin=14 EnMin= -265.950364159172     IErMin=14 ErrMin= 4.54D-06
 ErrMax= 4.54D-06  0.00D+00 EMaxC= 1.00D-01 BMatC= 7.16D-09 BMatP= 2.70D-08
 IDIUse=1 WtCom= 1.00D+00 WtEn= 0.00D+00
 Coeff-Com: -0.129D-04 0.723D-05 0.101D-03 0.716D-04-0.115D-02-0.164D-02
 Coeff-Com:  0.297D-03 0.231D-02 0.104D-01 0.829D-02-0.743D-01 0.973D-01
 Coeff-Com:  0.543D+00 0.415D+00
 Coeff:     -0.129D-04 0.723D-05 0.101D-03 0.716D-04-0.115D-02-0.164D-02
 Coeff:      0.297D-03 0.231D-02 0.104D-01 0.829D-02-0.743D-01 0.973D-01
 Coeff:      0.543D+00 0.415D+00
 Gap=     0.100 Goal=   None    Shift=    0.000
 Gap=     0.069 Goal=   None    Shift=    0.000
 RMSDP=6.60D-07 MaxDP=3.99D-05 DE=-1.19D-08 OVMax= 2.47D-05

 Cycle  15  Pass 1  IDiag  1:
 RMSU=  5.30D-07    CP:  1.09D+00  8.12D-01  7.78D-01  8.87D-01  1.16D+00
                    CP:  7.55D-01  1.66D+00  1.15D+00  1.17D+00  1.06D+00
                    CP:  1.48D+00  1.26D+00  1.24D+00  7.56D-01
 E= -265.950364160893     Delta-E=       -0.000000001721 Rises=F Damp=F
 DIIS: error= 2.16D-06 at cycle  15 NSaved=  15.
 NSaved=15 IEnMin=15 EnMin= -265.950364160893     IErMin=15 ErrMin= 2.16D-06
 ErrMax= 2.16D-06  0.00D+00 EMaxC= 1.00D-01 BMatC= 1.76D-09 BMatP= 7.16D-09
 IDIUse=1 WtCom= 1.00D+00 WtEn= 0.00D+00
 Coeff-Com: -0.119D-04 0.939D-05 0.368D-04 0.475D-04 0.167D-03-0.154D-03
 Coeff-Com: -0.521D-03-0.381D-04 0.217D-02 0.186D-01-0.356D-01-0.442D-01
 Coeff-Com: -0.532D-01 0.345D+00 0.767D+00
 Coeff:     -0.119D-04 0.939D-05 0.368D-04 0.475D-04 0.167D-03-0.154D-03
 Coeff:     -0.521D-03-0.381D-04 0.217D-02 0.186D-01-0.356D-01-0.442D-01
 Coeff:     -0.532D-01 0.345D+00 0.767D+00
 Gap=     0.100 Goal=   None    Shift=    0.000
 Gap=     0.069 Goal=   None    Shift=    0.000
 RMSDP=4.19D-07 MaxDP=2.43D-05 DE=-1.72D-09 OVMax= 1.78D-05

 Cycle  16  Pass 1  IDiag  1:
 RMSU=  1.87D-07    CP:  1.09D+00  8.12D-01  7.78D-01  8.87D-01  1.16D+00
                    CP:  7.55D-01  1.66D+00  1.15D+00  1.17D+00  1.06D+00
                    CP:  1.47D+00  1.28D+00  1.29D+00  9.93D-01  9.09D-01
 E= -265.950364161553     Delta-E=       -0.000000000659 Rises=F Damp=F
 DIIS: error= 5.50D-07 at cycle  16 NSaved=  16.
 NSaved=16 IEnMin=16 EnMin= -265.950364161553     IErMin=16 ErrMin= 5.50D-07
 ErrMax= 5.50D-07  0.00D+00 EMaxC= 1.00D-01 BMatC= 4.47D-11 BMatP= 1.76D-09
 IDIUse=1 WtCom= 1.00D+00 WtEn= 0.00D+00
 Coeff-Com: -0.418D-06-0.301D-06-0.200D-04-0.908D-05 0.125D-03 0.222D-03
 Coeff-Com: -0.132D-04-0.370D-03-0.125D-02-0.285D-02 0.113D-01-0.324D-02
 Coeff-Com: -0.557D-01-0.588D-01-0.306D-01 0.114D+01
 Coeff:     -0.418D-06-0.301D-06-0.200D-04-0.908D-05 0.125D-03 0.222D-03
 Coeff:     -0.132D-04-0.370D-03-0.125D-02-0.285D-02 0.113D-01-0.324D-02
 Coeff:     -0.557D-01-0.588D-01-0.306D-01 0.114D+01
 Gap=     0.100 Goal=   None    Shift=    0.000
 Gap=     0.069 Goal=   None    Shift=    0.000
 RMSDP=1.57D-07 MaxDP=9.32D-06 DE=-6.59D-10 OVMax= 1.12D-05

 Cycle  17  Pass 1  IDiag  1:
 RMSU=  7.98D-08    CP:  1.09D+00  8.12D-01  7.78D-01  8.87D-01  1.16D+00
                    CP:  7.55D-01  1.66D+00  1.15D+00  1.17D+00  1.06D+00
                    CP:  1.47D+00  1.27D+00  1.29D+00  1.03D+00  1.00D+00
                    CP:  1.31D+00
 E= -265.950364161614     Delta-E=       -0.000000000062 Rises=F Damp=F
 DIIS: error= 1.92D-07 at cycle  17 NSaved=  17.
 NSaved=17 IEnMin=17 EnMin= -265.950364161614     IErMin=17 ErrMin= 1.92D-07
 ErrMax= 1.92D-07  0.00D+00 EMaxC= 1.00D-01 BMatC= 5.66D-12 BMatP= 4.47D-11
 IDIUse=1 WtCom= 1.00D+00 WtEn= 0.00D+00
 Coeff-Com:  0.224D-06 0.442D-06-0.335D-06-0.136D-06-0.268D-04 0.715D-05
 Coeff-Com:  0.439D-04 0.252D-04-0.222D-04-0.184D-02 0.240D-02 0.439D-02
 Coeff-Com:  0.947D-02-0.330D-01-0.851D-01-0.214D+00 0.132D+01
 Coeff:      0.224D-06 0.442D-06-0.335D-06-0.136D-06-0.268D-04 0.715D-05
 Coeff:      0.439D-04 0.252D-04-0.222D-04-0.184D-02 0.240D-02 0.439D-02
 Coeff:      0.947D-02-0.330D-01-0.851D-01-0.214D+00 0.132D+01
 Gap=     0.100 Goal=   None    Shift=    0.000
 Gap=     0.069 Goal=   None    Shift=    0.000
 RMSDP=7.88D-08 MaxDP=4.41D-06 DE=-6.15D-11 OVMax= 6.59D-06

 Cycle  18  Pass 1  IDiag  1:
 RMSU=  2.63D-08    CP:  1.09D+00  8.12D-01  7.78D-01  8.87D-01  1.16D+00
                    CP:  7.55D-01  1.66D+00  1.15D+00  1.17D+00  1.06D+00
                    CP:  1.47D+00  1.28D+00  1.29D+00  1.04D+00  1.03D+00
                    CP:  1.53D+00  1.58D+00
 E= -265.950364161627     Delta-E=       -0.000000000013 Rises=F Damp=F
 DIIS: error= 5.76D-08 at cycle  18 NSaved=  18.
 NSaved=18 IEnMin=18 EnMin= -265.950364161627     IErMin=18 ErrMin= 5.76D-08
 ErrMax= 5.76D-08  0.00D+00 EMaxC= 1.00D-01 BMatC= 5.66D-13 BMatP= 5.66D-12
 IDIUse=1 WtCom= 1.00D+00 WtEn= 0.00D+00
 Coeff-Com: -0.161D-06 0.114D-07 0.652D-06-0.367D-06-0.490D-05-0.198D-04
 Coeff-Com:  0.455D-05 0.128D-05 0.714D-04 0.500D-03-0.134D-02-0.351D-03
 Coeff-Com:  0.317D-02 0.123D-01 0.209D-01-0.577D-01-0.318D+00 0.134D+01
 Coeff:     -0.161D-06 0.114D-07 0.652D-06-0.367D-06-0.490D-05-0.198D-04
 Coeff:      0.455D-05 0.128D-05 0.714D-04 0.500D-03-0.134D-02-0.351D-03
 Coeff:      0.317D-02 0.123D-01 0.209D-01-0.577D-01-0.318D+00 0.134D+01
 Gap=     0.100 Goal=   None    Shift=    0.000
 Gap=     0.069 Goal=   None    Shift=    0.000
 RMSDP=3.04D-08 MaxDP=1.52D-06 DE=-1.27D-11 OVMax= 2.30D-06

 Cycle  19  Pass 1  IDiag  1:
 RMSU=  1.02D-08    CP:  1.09D+00  8.12D-01  7.78D-01  8.87D-01  1.16D+00
                    CP:  7.55D-01  1.66D+00  1.15D+00  1.17D+00  1.06D+00
                    CP:  1.47D+00  1.28D+00  1.29D+00  1.04D+00  1.04D+00
                    CP:  1.59D+00  1.82D+00  1.52D+00
 E= -265.950364161629     Delta-E=       -0.000000000002 Rises=F Damp=F
 DIIS: error= 2.02D-08 at cycle  19 NSaved=  19.
 NSaved=19 IEnMin=19 EnMin= -265.950364161629     IErMin=19 ErrMin= 2.02D-08
 ErrMax= 2.02D-08  0.00D+00 EMaxC= 1.00D-01 BMatC= 8.21D-14 BMatP= 5.66D-13
 IDIUse=1 WtCom= 1.00D+00 WtEn= 0.00D+00
 Coeff-Com: -0.284D-07 0.111D-06 0.284D-06 0.259D-06 0.225D-05 0.291D-05
 Coeff-Com: -0.707D-05 0.469D-06-0.135D-04 0.130D-03-0.378D-04-0.380D-03
 Coeff-Com: -0.119D-02 0.747D-03 0.389D-02 0.383D-01-0.872D-01-0.273D+00
 Coeff-Com:  0.132D+01
 Coeff:     -0.284D-07 0.111D-06 0.284D-06 0.259D-06 0.225D-05 0.291D-05
 Coeff:     -0.707D-05 0.469D-06-0.135D-04 0.130D-03-0.378D-04-0.380D-03
 Coeff:     -0.119D-02 0.747D-03 0.389D-02 0.383D-01-0.872D-01-0.273D+00
 Coeff:      0.132D+01
 Gap=     0.100 Goal=   None    Shift=    0.000
 Gap=     0.069 Goal=   None    Shift=    0.000
 RMSDP=1.15D-08 MaxDP=6.00D-07 DE=-2.16D-12 OVMax= 9.49D-07

 Cycle  20  Pass 1  IDiag  1:
 RMSU=  2.37D-09    CP:  1.09D+00  8.12D-01  7.78D-01  8.87D-01  1.16D+00
                    CP:  7.55D-01  1.66D+00  1.15D+00  1.17D+00  1.06D+00
                    CP:  1.47D+00  1.28D+00  1.30D+00  1.04D+00  1.04D+00
                    CP:  1.60D+00  1.89D+00  1.76D+00  1.49D+00
 E= -265.950364161625     Delta-E=        0.000000000004 Rises=F Damp=F
 DIIS: error= 1.26D-08 at cycle  20 NSaved=  20.
 NSaved=20 IEnMin=19 EnMin= -265.950364161629     IErMin=20 ErrMin= 1.26D-08
 ErrMax= 1.26D-08  0.00D+00 EMaxC= 1.00D-01 BMatC= 1.65D-14 BMatP= 8.21D-14
 IDIUse=1 WtCom= 1.00D+00 WtEn= 0.00D+00
 Large coefficients: NSaved= 20 BigCof=    0.00 CofMax=   10.00 Det=-8.33D-15
 Inversion failed.  Reducing to 19 matrices.
 Large coefficients: NSaved= 19 BigCof=    0.00 CofMax=   10.00 Det=-8.63D-15
 Inversion failed.  Reducing to 18 matrices.
 Large coefficients: NSaved= 18 BigCof=    0.00 CofMax=   10.00 Det=-8.67D-15
 Inversion failed.  Reducing to 17 matrices.
 Large coefficients: NSaved= 17 BigCof=    0.00 CofMax=   10.00 Det=-8.80D-15
 Inversion failed.  Reducing to 16 matrices.
 Large coefficients: NSaved= 16 BigCof=    0.00 CofMax=   10.00 Det=-8.92D-15
 Inversion failed.  Reducing to 15 matrices.
 Coeff-Com: -0.145D-06 0.246D-06 0.841D-06-0.720D-05-0.208D-04 0.909D-04
 Coeff-Com:  0.697D-04 0.171D-03-0.787D-03-0.195D-02-0.381D-02 0.324D-01
 Coeff-Com: -0.516D-01-0.229D+00 0.125D+01
 Coeff:     -0.145D-06 0.246D-06 0.841D-06-0.720D-05-0.208D-04 0.909D-04
 Coeff:      0.697D-04 0.171D-03-0.787D-03-0.195D-02-0.381D-02 0.324D-01
 Coeff:     -0.516D-01-0.229D+00 0.125D+01
 Gap=     0.100 Goal=   None    Shift=    0.000
 Gap=     0.069 Goal=   None    Shift=    0.000
 RMSDP=3.99D-09 MaxDP=2.10D-07 DE= 4.49D-12 OVMax= 2.34D-07

 SCF Done:  E(UB3LYP) =  -265.950364162     A.U. after   20 cycles
            NFock= 20  Conv=0.40D-08     -V/T= 2.0043
 <Sx>= 0.0000 <Sy>= 0.0000 <Sz>= 0.5000 <S**2>= 0.7912 S= 0.5204
 <L.S>= 0.000000000000E+00
 KE= 2.648196072808D+02 PE=-9.750719280643D+02 EE= 2.600544963383D+02
 Annihilation of the first spin contaminant:
 S**2 before annihilation     0.7912,   after     0.7502
 Leave Link  502 at Tue Nov  1 19:50:08 2016, MaxMem=    33554432 cpu:      1070.5
 (Enter /home/proyectos/fulerenos/M3C-v2.0/M3C-deps_CCC/g09-AM64L-G09RevC.01/l801.exe)
 DoSCS=F DFT=T ScalE2(SS,OS)=  1.000000  1.000000
 Range of M.O.s used for correlation:     1   272
 NBasis=   273 NAE=    21 NBE=    20 NFC=     0 NFV=     0
 NROrb=    272 NOA=    21 NOB=    20 NVA=   251 NVB=   252

 **** Warning!!: The largest alpha MO coefficient is  0.21329777D+03


 **** Warning!!: The smallest alpha delta epsilon is  0.99577008D-01


 **** Warning!!: The largest beta MO coefficient is  0.21082218D+03


 **** Warning!!: The smallest beta delta epsilon is  0.69080464D-01

 Leave Link  801 at Tue Nov  1 19:50:09 2016, MaxMem=    33554432 cpu:         1.5
 (Enter /home/proyectos/fulerenos/M3C-v2.0/M3C-deps_CCC/g09-AM64L-G09RevC.01/l1101.exe)
 Using compressed storage, NAtomX=     7.
 Will process      8 centers per pass.
 Leave Link 1101 at Tue Nov  1 19:50:09 2016, MaxMem=    33554432 cpu:         1.3
 (Enter /home/proyectos/fulerenos/M3C-v2.0/M3C-deps_CCC/g09-AM64L-G09RevC.01/l1102.exe)
 Symmetrizing basis deriv contribution to polar:
 IMax=3 JMax=2 DiffMx= 0.00D+00
 Leave Link 1102 at Tue Nov  1 19:50:09 2016, MaxMem=    33554432 cpu:         0.1
 (Enter /home/proyectos/fulerenos/M3C-v2.0/M3C-deps_CCC/g09-AM64L-G09RevC.01/l1110.exe)
 Forming Gx(P) for the SCF density, NAtomX=     7.
 Integral derivatives from FoFJK, PRISM(SPDF).
 Do as many integral derivatives as possible in FoFJK.
 G2DrvN: MDV=      33554272.
 G2DrvN: will do     8 centers at a time, making    1 passes.
 Calling FoFCou, ICntrl=  3107 FMM=F I1Cent=   0 AccDes= 0.00D+00.
 FoFJK:  IHMeth= 1 ICntrl=    3107 DoSepK=F KAlg= 0 I1Cent=   0 FoldK=F
 IRaf=         0 NMat=   1 IRICut=       1 DoRegI=T DoRafI=F ISym2E= 1.
 FoFCou: FMM=F IPFlag=           0 FMFlag=      100000 FMFlg1=           0
         NFxFlg=           0 DoJE=F BraDBF=F KetDBF=F FulRan=T
         wScrn=  0.000000 ICntrl=    3107 IOpCl=  1 I1Cent=           0 NGrid=           0
         NMat0=    1 NMatS0=      1 NMatT0=    0 NMatD0=    1 NMtDS0=    0 NMtDT0=    0
 Petite list used in FoFCou.
 End of G2Drv F.D. properties file   721 does not exist.
 End of G2Drv F.D. properties file   722 does not exist.
 End of G2Drv F.D. properties file   788 does not exist.
 Leave Link 1110 at Tue Nov  1 19:51:57 2016, MaxMem=    33554432 cpu:       430.7
 (Enter /home/proyectos/fulerenos/M3C-v2.0/M3C-deps_CCC/g09-AM64L-G09RevC.01/l1002.exe)
 Minotr:  UHF open shell wavefunction.
          IDoAtm=1111111
          Direct CPHF calculation.
          Differentiating once with respect to electric field.
                with respect to dipole field.
          Differentiating once with respect to nuclear coordinates.
          Using symmetry in CPHF.
          Requested convergence is 1.0D-08 RMS, and 1.0D-07 maximum.
          Secondary convergence is 1.0D-12 RMS, and 1.0D-12 maximum.
          NewPWx=T KeepS1=F KeepF1=F KeepIn=T MapXYZ=F SortEE=F KeepMc=T.
          MDV=      33553814 using IRadAn=       2.
 Generate precomputed XC quadrature information.
          Solving linear equations simultaneously, MaxMat=       0.
 FoFJK:  IHMeth= 1 ICntrl=       0 DoSepK=F KAlg= 0 I1Cent=   0 FoldK=F
 IRaf= 940000000 NMat=  24 IRICut=      60 DoRegI=T DoRafI=T ISym2E= 2.
 FoFCou: FMM=F IPFlag=           0 FMFlag=      100000 FMFlg1=           0
         NFxFlg=           0 DoJE=F BraDBF=F KetDBF=F FulRan=T
         wScrn=  0.000000 ICntrl=       0 IOpCl=  1 I1Cent=           0 NGrid=           0
         NMat0=   24 NMatS0=     24 NMatT0=    0 NMatD0=   24 NMtDS0=    0 NMtDT0=    0
 Integrals replicated using symmetry in FoFCou.
          There are    24 degrees of freedom in the 1st order CPHF.  IDoFFX=6 NUNeed=     3.
     21 vectors produced by pass  0 Test12= 4.30D-14 4.17D-09 XBig12= 1.65D+03 2.09D+01.
 AX will form    21 AO Fock derivatives at one time.
     21 vectors produced by pass  1 Test12= 4.30D-14 4.17D-09 XBig12= 4.64D+02 4.26D+00.
     21 vectors produced by pass  2 Test12= 4.30D-14 4.17D-09 XBig12= 1.02D+01 1.10D+00.
     21 vectors produced by pass  3 Test12= 4.30D-14 4.17D-09 XBig12= 2.85D-01 1.81D-01.
     21 vectors produced by pass  4 Test12= 4.30D-14 4.17D-09 XBig12= 9.46D-03 3.98D-02.
     21 vectors produced by pass  5 Test12= 4.30D-14 4.17D-09 XBig12= 3.59D-04 6.30D-03.
     21 vectors produced by pass  6 Test12= 4.30D-14 4.17D-09 XBig12= 2.47D-06 2.75D-04.
     21 vectors produced by pass  7 Test12= 4.30D-14 4.17D-09 XBig12= 1.94D-08 1.79D-05.
     10 vectors produced by pass  8 Test12= 4.30D-14 4.17D-09 XBig12= 1.65D-10 1.94D-06.
      5 vectors produced by pass  9 Test12= 4.30D-14 4.17D-09 XBig12= 5.27D-12 4.72D-07.
      5 vectors produced by pass 10 Test12= 4.30D-14 4.17D-09 XBig12= 7.55D-12 5.16D-07.
      2 vectors produced by pass 11 Test12= 4.30D-14 4.17D-09 XBig12= 8.91D-13 1.73D-07.
      2 vectors produced by pass 12 Test12= 4.30D-14 4.17D-09 XBig12= 4.17D-14 3.32D-08.
      1 vectors produced by pass 13 Test12= 4.30D-14 4.17D-09 XBig12= 1.64D-15 7.34D-09.
 InvSVY:  IOpt=1 It=  1 EMax= 7.11D-15
 Solved reduced A of dimension   193 with    24 vectors.
 FullF1:  Do perturbations    1 to     3.
 Isotropic polarizability for W=    0.000000       87.73 Bohr**3.
 End of Minotr F.D. properties file   721 does not exist.
 End of Minotr F.D. properties file   722 does not exist.
 End of Minotr F.D. properties file   788 does not exist.
 Leave Link 1002 at Tue Nov  1 20:00:22 2016, MaxMem=    33554432 cpu:      2020.0
 (Enter /home/proyectos/fulerenos/M3C-v2.0/M3C-deps_CCC/g09-AM64L-G09RevC.01/l601.exe)
 Copying SCF densities to generalized density rwf, IOpCl= 1 IROHF=0.

 **********************************************************************

            Population analysis using the SCF density.

 **********************************************************************

 Orbital symmetries:
 Alpha Orbitals:
       Occupied  (A') (A') (A') (A') (A') (A') (A') (A') (A') (A')
                 (A') (A') (A') (A') (A") (A") (A') (A') (A') (A")
                 (A')
       Virtual   (A') (A") (A") (A') (A") (A') (A') (A') (A") (A")
                 (A') (A') (A') (A') (A") (A') (A") (A') (A') (A')
                 (A") (A') (A') (A') (A") (A") (A') (A') (A') (A")
                 (A') (A') (A") (A') (A') (A') (A') (A') (A') (A')
                 (A") (A') (A') (A") (A') (A") (A') (A') (A') (A')
                 (A') (A') (A") (A') (A") (A') (A") (A") (A') (A')
                 (A') (A') (A") (A") (A") (A") (A') (A') (A") (A')
                 (A') (A") (A') (A') (A') (A") (A') (A") (A') (A')
                 (A") (A') (A') (A") (A") (A') (A') (A') (A') (A")
                 (A') (A') (A") (A') (A') (A') (A') (A') (A") (A')
                 (A') (A") (A') (A') (A') (A") (A') (A') (A') (A")
                 (A') (A") (A') (A") (A") (A') (A') (A") (A') (A")
                 (A') (A') (A") (A") (A') (A') (A') (A') (A") (A')
                 (A') (A") (A') (A") (A') (A') (A") (A") (A") (A')
                 (A') (A") (A') (A") (A') (A") (A') (A") (A') (A')
                 (A") (A") (A') (A') (A") (A') (A') (A") (A") (A')
                 (A") (A') (A") (A') (A") (A") (A') (A') (A') (A')
                 (A") (A') (A') (A") (A') (A') (A') (A') (A") (A')
                 (A') (A') (A') (A") (A') (A") (A') (A") (A') (A')
                 (A') (A') (A") (A') (A') (A") (A') (A") (A") (A')
                 (A') (A") (A') (A') (A') (A') (A") (A') (A') (A")
                 (A') (A") (A') (A") (A") (A') (A') (A") (A') (A')
                 (A") (A") (A') (A") (A') (A') (A") (A') (A') (A")
                 (A") (A") (A') (A") (A') (A") (A') (A') (A') (A')
                 (A') (A') (A') (A') (A') (A') (A') (A') (A') (A')
                 (A')
 Beta  Orbitals:
       Occupied  (A') (A') (A') (A') (A') (A') (A') (A') (A') (A')
                 (A') (A') (A') (A') (A") (A') (A") (A') (A') (A')
       Virtual   (A") (A') (A") (A") (A') (A') (A") (A') (A') (A")
                 (A') (A') (A") (A') (A') (A") (A') (A") (A') (A')
                 (A') (A") (A') (A') (A') (A") (A") (A') (A') (A')
                 (A") (A') (A') (A") (A') (A') (A') (A') (A') (A')
                 (A') (A") (A') (A') (A") (A') (A") (A') (A') (A')
                 (A') (A') (A') (A") (A') (A") (A') (A") (A') (A")
                 (A') (A') (A') (A") (A") (A") (A') (A") (A') (A")
                 (A') (A') (A") (A') (A') (A') (A") (A') (A") (A')
                 (A') (A") (A') (A') (A") (A") (A') (A') (A') (A')
                 (A") (A') (A') (A") (A') (A') (A') (A') (A') (A")
                 (A') (A') (A") (A') (A') (A') (A") (A') (A') (A')
                 (A') (A") (A") (A') (A") (A") (A') (A') (A") (A')
                 (A') (A") (A') (A") (A") (A') (A') (A') (A') (A")
                 (A') (A') (A") (A') (A") (A') (A') (A") (A") (A")
                 (A') (A') (A") (A') (A") (A') (A') (A") (A") (A')
                 (A') (A") (A") (A') (A') (A") (A') (A') (A") (A")
                 (A') (A') (A") (A") (A') (A") (A') (A") (A') (A')
                 (A') (A") (A') (A') (A") (A') (A') (A') (A') (A")
                 (A') (A') (A') (A') (A") (A') (A") (A') (A") (A')
                 (A') (A') (A') (A") (A') (A') (A") (A') (A") (A")
                 (A') (A') (A") (A') (A') (A') (A') (A") (A') (A')
                 (A") (A') (A") (A') (A") (A") (A') (A') (A") (A')
                 (A") (A') (A') (A") (A") (A') (A') (A") (A') (A')
                 (A") (A") (A") (A') (A") (A') (A") (A') (A') (A')
                 (A') (A') (A') (A') (A') (A') (A') (A') (A') (A')
                 (A') (A')
 The electronic state is 2-A".
 Alpha  occ. eigenvalues --  -10.57516 -10.57499 -10.55534 -10.54801 -10.52134
 Alpha  occ. eigenvalues --  -10.46677 -10.44239  -1.29513  -1.08208  -1.02931
 Alpha  occ. eigenvalues --   -0.94726  -0.85761  -0.85458  -0.73251  -0.73123
 Alpha  occ. eigenvalues --   -0.59992  -0.59757  -0.57104  -0.52452  -0.52099
 Alpha  occ. eigenvalues --   -0.50948
 Alpha virt. eigenvalues --   -0.40991  -0.36969  -0.35919  -0.29960  -0.21812
 Alpha virt. eigenvalues --   -0.20481  -0.15183  -0.12557  -0.11942  -0.09511
 Alpha virt. eigenvalues --   -0.09004  -0.08846  -0.07230  -0.06891  -0.06161
 Alpha virt. eigenvalues --   -0.05494  -0.05267  -0.04156  -0.02861  -0.02334
 Alpha virt. eigenvalues --   -0.02126  -0.01331   0.00354   0.01776   0.01808
 Alpha virt. eigenvalues --    0.02806   0.03301   0.04181   0.04751   0.06233
 Alpha virt. eigenvalues --    0.06381   0.06814   0.07973   0.08022   0.09007
 Alpha virt. eigenvalues --    0.10074   0.12115   0.13273   0.13380   0.13914
 Alpha virt. eigenvalues --    0.13991   0.16041   0.18046   0.19272   0.22583
 Alpha virt. eigenvalues --    0.23102   0.24390   0.25949   0.26329   0.27904
 Alpha virt. eigenvalues --    0.28529   0.29191   0.29227   0.29430   0.29768
 Alpha virt. eigenvalues --    0.30328   0.32111   0.32663   0.32752   0.34732
 Alpha virt. eigenvalues --    0.35321   0.36190   0.36245   0.37284   0.38741
 Alpha virt. eigenvalues --    0.39278   0.39845   0.41581   0.43861   0.45421
 Alpha virt. eigenvalues --    0.48142   0.48283   0.49831   0.50117   0.52206
 Alpha virt. eigenvalues --    0.52234   0.57493   0.57569   0.59397   0.62052
 Alpha virt. eigenvalues --    0.63328   0.63996   0.64157   0.67944   0.68956
 Alpha virt. eigenvalues --    0.69300   0.75237   0.78898   0.79458   0.82794
 Alpha virt. eigenvalues --    0.87394   0.89464   0.90912   0.92554   0.98153
 Alpha virt. eigenvalues --    0.99089   0.99564   1.05382   1.07716   1.07854
 Alpha virt. eigenvalues --    1.10749   1.12682   1.13890   1.14813   1.18387
 Alpha virt. eigenvalues --    1.22887   1.24734   1.28293   1.30785   1.31372
 Alpha virt. eigenvalues --    1.32614   1.33928   1.36661   1.41972   1.42275
 Alpha virt. eigenvalues --    1.46073   1.46146   1.49878   1.51422   1.51867
 Alpha virt. eigenvalues --    1.51945   1.57166   1.63051   1.67567   1.68294
 Alpha virt. eigenvalues --    1.73065   1.80022   1.83467   1.84604   1.88534
 Alpha virt. eigenvalues --    1.88854   1.89791   2.01445   2.13313   2.15413
 Alpha virt. eigenvalues --    2.18882   2.24639   2.32563   2.32733   2.36000
 Alpha virt. eigenvalues --    2.37961   2.39235   2.41531   2.42258   2.48591
 Alpha virt. eigenvalues --    2.49547   2.50005   2.50359   2.50490   2.51316
 Alpha virt. eigenvalues --    2.55767   2.56710   2.59094   2.59908   2.61174
 Alpha virt. eigenvalues --    2.62449   2.63708   2.66134   2.71087   2.74092
 Alpha virt. eigenvalues --    2.76234   2.77290   2.77292   2.78292   2.80395
 Alpha virt. eigenvalues --    2.83985   2.84086   2.88798   2.92704   2.94280
 Alpha virt. eigenvalues --    2.95948   2.97648   3.05028   3.06042   3.08346
 Alpha virt. eigenvalues --    3.10785   3.16728   3.19101   3.20826   3.29687
 Alpha virt. eigenvalues --    3.31690   3.36272   3.44141   3.44419   3.51364
 Alpha virt. eigenvalues --    3.53110   3.62622   3.66775   3.73702   3.78108
 Alpha virt. eigenvalues --    3.79724   3.84379   3.85590   3.88887   4.08541
 Alpha virt. eigenvalues --    4.20336   4.25810   4.34903   4.35059   4.57839
 Alpha virt. eigenvalues --    4.58294   4.71645   4.87448   4.92795   5.29816
 Alpha virt. eigenvalues --    5.39452   5.50029   6.04428   6.10650   6.64141
 Alpha virt. eigenvalues --    6.66811   6.68123   6.70516   6.72446   6.74149
 Alpha virt. eigenvalues --    6.80226   6.82525   6.82968   6.87512   6.90386
 Alpha virt. eigenvalues --    6.90982   6.92369   6.92912   6.97736   7.04595
 Alpha virt. eigenvalues --    7.05628   7.06872   7.10907   7.11157   7.13537
 Alpha virt. eigenvalues --    7.17575   7.22191   7.28680   7.37008   7.41262
 Alpha virt. eigenvalues --    7.50783   7.65158   7.70006   7.89814   8.02740
 Alpha virt. eigenvalues --    8.07360   8.29998   8.34232   8.42547  23.61386
 Alpha virt. eigenvalues --   24.25165  24.55197  24.94505  25.29334  25.68492
 Alpha virt. eigenvalues --   25.72927
  Beta  occ. eigenvalues --  -10.57367 -10.57350 -10.55077 -10.54886 -10.52176
  Beta  occ. eigenvalues --  -10.46351 -10.43696  -1.29295  -1.07604  -1.01129
  Beta  occ. eigenvalues --   -0.93470  -0.85208  -0.85204  -0.73306  -0.72461
  Beta  occ. eigenvalues --   -0.59237  -0.57168  -0.56237  -0.51776  -0.50228
  Beta virt. eigenvalues --   -0.43320  -0.40346  -0.35831  -0.32838  -0.29822
  Beta virt. eigenvalues --   -0.20097  -0.19203  -0.15112  -0.12367  -0.11690
  Beta virt. eigenvalues --   -0.08990  -0.08765  -0.07847  -0.06975  -0.06860
  Beta virt. eigenvalues --   -0.05648  -0.05273  -0.05138  -0.04143  -0.02743
  Beta virt. eigenvalues --   -0.02295  -0.01748  -0.01218   0.00404   0.01792
  Beta virt. eigenvalues --    0.01917   0.02949   0.03301   0.04467   0.04800
  Beta virt. eigenvalues --    0.06576   0.06813   0.06842   0.08148   0.08156
  Beta virt. eigenvalues --    0.09028   0.10454   0.12197   0.13414   0.13617
  Beta virt. eigenvalues --    0.13933   0.14722   0.16486   0.18281   0.19661
  Beta virt. eigenvalues --    0.23106   0.23408   0.24830   0.26153   0.26399
  Beta virt. eigenvalues --    0.27904   0.28715   0.29251   0.29548   0.29615
  Beta virt. eigenvalues --    0.30375   0.30673   0.32836   0.32865   0.33299
  Beta virt. eigenvalues --    0.34971   0.35413   0.36324   0.36708   0.37477
  Beta virt. eigenvalues --    0.39778   0.39961   0.40289   0.41624   0.44155
  Beta virt. eigenvalues --    0.45486   0.48254   0.48533   0.50024   0.50149
  Beta virt. eigenvalues --    0.52549   0.53016   0.57668   0.57878   0.59331
  Beta virt. eigenvalues --    0.62083   0.63797   0.64087   0.64569   0.68320
  Beta virt. eigenvalues --    0.69072   0.69757   0.75243   0.79169   0.79622
  Beta virt. eigenvalues --    0.83499   0.87838   0.89598   0.92043   0.93043
  Beta virt. eigenvalues --    0.98221   0.99416   0.99656   1.05487   1.07852
  Beta virt. eigenvalues --    1.08024   1.11084   1.13122   1.14413   1.15048
  Beta virt. eigenvalues --    1.19039   1.24296   1.25645   1.29448   1.30907
  Beta virt. eigenvalues --    1.33296   1.33341   1.34882   1.37741   1.42951
  Beta virt. eigenvalues --    1.43601   1.46401   1.47278   1.51057   1.52164
  Beta virt. eigenvalues --    1.52528   1.53227   1.58074   1.63788   1.68287
  Beta virt. eigenvalues --    1.68558   1.72921   1.80160   1.84258   1.84777
  Beta virt. eigenvalues --    1.88589   1.89595   1.90713   2.01837   2.14272
  Beta virt. eigenvalues --    2.15499   2.18903   2.24896   2.33413   2.33981
  Beta virt. eigenvalues --    2.36202   2.38257   2.40990   2.43219   2.44000
  Beta virt. eigenvalues --    2.49264   2.50055   2.51301   2.51710   2.52122
  Beta virt. eigenvalues --    2.52389   2.57044   2.57706   2.59618   2.60414
  Beta virt. eigenvalues --    2.62254   2.63187   2.64046   2.67239   2.72565
  Beta virt. eigenvalues --    2.75628   2.77572   2.77645   2.78618   2.78798
  Beta virt. eigenvalues --    2.81680   2.84416   2.84533   2.89496   2.92928
  Beta virt. eigenvalues --    2.94860   2.96212   2.98160   3.05617   3.07026
  Beta virt. eigenvalues --    3.08490   3.11241   3.16880   3.19687   3.22116
  Beta virt. eigenvalues --    3.29969   3.32906   3.36228   3.44362   3.45350
  Beta virt. eigenvalues --    3.51675   3.53762   3.63319   3.67945   3.74104
  Beta virt. eigenvalues --    3.78223   3.80224   3.84533   3.86039   3.89509
  Beta virt. eigenvalues --    4.08759   4.20808   4.25952   4.35190   4.36012
  Beta virt. eigenvalues --    4.57984   4.58409   4.72562   4.87590   4.93037
  Beta virt. eigenvalues --    5.30149   5.39584   5.51388   6.04597   6.10734
  Beta virt. eigenvalues --    6.65953   6.69037   6.70391   6.72757   6.73159
  Beta virt. eigenvalues --    6.75321   6.81519   6.84200   6.84914   6.88176
  Beta virt. eigenvalues --    6.90823   6.91314   6.92686   6.94265   6.98860
  Beta virt. eigenvalues --    7.04789   7.06342   7.08834   7.11008   7.11348
  Beta virt. eigenvalues --    7.14191   7.18628   7.22440   7.28942   7.37791
  Beta virt. eigenvalues --    7.41560   7.51163   7.65217   7.70084   7.89993
  Beta virt. eigenvalues --    8.02721   8.07627   8.30505   8.34253   8.42605
  Beta virt. eigenvalues --   23.61674  24.25555  24.55550  24.94674  25.29488
  Beta virt. eigenvalues --   25.68416  25.73506
          Condensed to atoms (all electrons):
               1          2          3          4          5          6
     1  C   10.885464  -3.115693  -2.359106  -2.357372   1.995223   0.563265
     2  C   -3.115693  11.283377  -0.670869  -0.670603  -0.357519   0.068504
     3  C   -2.359106  -0.670869  12.188860  -0.557186  -2.529592  -1.163725
     4  C   -2.357372  -0.670603  -0.557186  12.185781  -2.531459  -1.164689
     5  C    1.995223  -0.357519  -2.529592  -2.531459  10.083211   1.214843
     6  C    0.563265   0.068504  -1.163725  -1.164689   1.214843  12.232784
     7  C    0.053972   0.087023   0.208536   0.212033  -1.055039  -6.290865
               7
     1  C    0.053972
     2  C    0.087023
     3  C    0.208536
     4  C    0.212033
     5  C   -1.055039
     6  C   -6.290865
     7  C   12.981155
          Atomic-Atomic Spin Densities.
               1          2          3          4          5          6
     1  C    0.064240  -0.171117   0.017163   0.017162   0.109458  -0.012383
     2  C   -0.171117   0.281870   0.150001   0.149985  -0.071268  -0.017622
     3  C    0.017163   0.150001   0.026056  -0.063423  -0.049411  -0.002586
     4  C    0.017162   0.149985  -0.063423   0.025954  -0.049351  -0.002552
     5  C    0.109458  -0.071268  -0.049411  -0.049351  -0.010323  -0.014150
     6  C   -0.012383  -0.017622  -0.002586  -0.002552  -0.014150   0.578305
     7  C   -0.009287   0.000383   0.017105   0.017151   0.033739  -0.151318
               7
     1  C   -0.009287
     2  C    0.000383
     3  C    0.017105
     4  C    0.017151
     5  C    0.033739
     6  C   -0.151318
     7  C    0.238540
 Mulliken charges and spin densities:
               1          2
     1  C    0.334246   0.015235
     2  C   -0.624220   0.322233
     3  C    0.883081   0.094906
     4  C    0.883495   0.094926
     5  C   -0.819668  -0.051306
     6  C    0.539882   0.377693
     7  C   -0.196816   0.146312
 Sum of Mulliken charges =   1.00000   1.00000
 Mulliken charges and spin densities with hydrogens summed into heavy atoms:
               1          2
     1  C    0.334246   0.015235
     2  C   -0.624220   0.322233
     3  C    0.883081   0.094906
     4  C    0.883495   0.094926
     5  C   -0.819668  -0.051306
     6  C    0.539882   0.377693
     7  C   -0.196816   0.146312
 APT charges:
               1
     1  C   -0.387097
     2  C    0.621075
     3  C    0.111937
     4  C    0.111958
     5  C    0.631938
     6  C   -0.872939
     7  C    0.783128
 Sum of APT charges =   1.00000
 APT charges with hydrogens summed into heavy atoms:
               1
     1  C   -0.387097
     2  C    0.621075
     3  C    0.111937
     4  C    0.111958
     5  C    0.631938
     6  C   -0.872939
     7  C    0.783128
 Electronic spatial extent (au):  <R**2>=            692.0562
 Charge=              1.0000 electrons
 Dipole moment (field-independent basis, Debye):
    X=              0.0005    Y=             -2.8661    Z=             -0.0000  Tot=              2.8661
 Quadrupole moment (field-independent basis, Debye-Ang):
   XX=            -35.1554   YY=            -28.4930   ZZ=            -34.6166
   XY=              0.0001   XZ=              0.0000   YZ=             -0.0000
 Traceless Quadrupole moment (field-independent basis, Debye-Ang):
   XX=             -2.4004   YY=              4.2620   ZZ=             -1.8616
   XY=              0.0001   XZ=              0.0000   YZ=             -0.0000
 Octapole moment (field-independent basis, Debye-Ang**2):
  XXX=              0.0011  YYY=            -25.5505  ZZZ=              0.0000  XYY=              0.0061
  XXY=             -4.6640  XXZ=             -0.0000  XZZ=              0.0002  YZZ=              0.7243
  YYZ=             -0.0000  XYZ=              0.0000
 Hexadecapole moment (field-independent basis, Debye-Ang**3):
 XXXX=            -78.8373 YYYY=          -1053.0189 ZZZZ=            -35.6778 XXXY=              0.0265
 XXXZ=             -0.0000 YYYX=              0.0424 YYYZ=             -0.0000 ZZZX=             -0.0000
 ZZZY=             -0.0000 XXYY=           -162.7135 XXZZ=            -18.2668 YYZZ=           -156.7688
 XXYZ=             -0.0000 YYXZ=              0.0000 ZZXY=              0.0084
 N-N= 1.842474602836D+02 E-N=-9.750719281753D+02  KE= 2.648196072808D+02
 Symmetry A'   KE= 2.590204669583D+02
 Symmetry A"   KE= 5.799140322579D+00
  Exact polarizability:  51.825  -0.008 175.589  -0.000  -0.000  35.777
 Approx polarizability: 109.973  -0.022 482.519   0.000   0.000  61.051
                          Isotropic Fermi Contact Couplings
        Atom                 a.u.       MegaHertz       Gauss      10(-4) cm-1
     1  C(13)             -0.01505     -16.91632      -6.03616      -5.64268
     2  C(13)              0.01346      15.12600       5.39733       5.04549
     3  C(13)              0.00961      10.79988       3.85366       3.60245
     4  C(13)              0.00961      10.80168       3.85431       3.60305
     5  C(13)             -0.02666     -29.97421     -10.69554      -9.99832
     6  C(13)              0.01777      19.97860       7.12886       6.66414
     7  C(13)              0.00419       4.71292       1.68169       1.57206
 --------------------------------------------------------
       Center         ----  Spin Dipole Couplings  ----
                      3XX-RR        3YY-RR        3ZZ-RR
 --------------------------------------------------------
     1   Atom       -0.021461      0.035290     -0.013829
     2   Atom       -0.299073     -0.291769      0.590843
     3   Atom       -0.059866     -0.057145      0.117011
     4   Atom       -0.059870     -0.057154      0.117024
     5   Atom        0.069673      0.130210     -0.199883
     6   Atom       -0.235952     -0.222093      0.458045
     7   Atom       -0.169830     -0.147154      0.316984
 --------------------------------------------------------
                        XY            XZ            YZ
 --------------------------------------------------------
     1   Atom        0.000003      0.000000     -0.000000
     2   Atom       -0.000000      0.000000     -0.000000
     3   Atom        0.000129     -0.000000     -0.000000
     4   Atom       -0.000131      0.000000      0.000000
     5   Atom       -0.000005     -0.000000      0.000000
     6   Atom       -0.000008      0.000000     -0.000000
     7   Atom       -0.000000      0.000000     -0.000000
 --------------------------------------------------------


 ---------------------------------------------------------------------------------
              Anisotropic Spin Dipole Couplings in Principal Axis System
 ---------------------------------------------------------------------------------

       Atom             a.u.   MegaHertz   Gauss  10(-4) cm-1        Axes

              Baa    -0.0215    -2.880    -1.028    -0.961  1.0000 -0.0001 -0.0000
     1 C(13)  Bbb    -0.0138    -1.856    -0.662    -0.619  0.0000  0.0000  1.0000
              Bcc     0.0353     4.736     1.690     1.580  0.0001  1.0000 -0.0000
 
              Baa    -0.2991   -40.133   -14.320   -13.387  1.0000  0.0000  0.0000
     2 C(13)  Bbb    -0.2918   -39.153   -13.971   -13.060 -0.0000  1.0000  0.0000
              Bcc     0.5908    79.285    28.291    26.447  0.0000  0.0000  1.0000
 
              Baa    -0.0599    -8.034    -2.867    -2.680  0.9989 -0.0474 -0.0000
     3 C(13)  Bbb    -0.0571    -7.668    -2.736    -2.558  0.0474  0.9989 -0.0000
              Bcc     0.1170    15.702     5.603     5.238  0.0000  0.0000  1.0000
 
              Baa    -0.0599    -8.035    -2.867    -2.680  0.9988  0.0480 -0.0000
     4 C(13)  Bbb    -0.0571    -7.669    -2.736    -2.558 -0.0480  0.9988 -0.0000
              Bcc     0.1170    15.704     5.603     5.238  0.0000  0.0000  1.0000
 
              Baa    -0.1999   -26.822    -9.571    -8.947  0.0000  0.0000  1.0000
     5 C(13)  Bbb     0.0697     9.350     3.336     3.119  1.0000  0.0001  0.0000
              Bcc     0.1302    17.473     6.235     5.828 -0.0001  1.0000 -0.0000
 
              Baa    -0.2360   -31.662   -11.298   -10.561  1.0000  0.0006 -0.0000
     6 C(13)  Bbb    -0.2221   -29.803   -10.634    -9.941 -0.0006  1.0000 -0.0000
              Bcc     0.4580    61.465    21.932    20.503  0.0000  0.0000  1.0000
 
              Baa    -0.1698   -22.790    -8.132    -7.602  1.0000  0.0000  0.0000
     7 C(13)  Bbb    -0.1472   -19.747    -7.046    -6.587 -0.0000  1.0000  0.0000
              Bcc     0.3170    42.536    15.178    14.189  0.0000  0.0000  1.0000
 

 ---------------------------------------------------------------------------------

 No NMR shielding tensors so no spin-rotation constants.
 Leave Link  601 at Tue Nov  1 20:00:22 2016, MaxMem=    33554432 cpu:         2.3
 (Enter /home/proyectos/fulerenos/M3C-v2.0/M3C-deps_CCC/g09-AM64L-G09RevC.01/l701.exe)
 Compute integral second derivatives.
 ... and contract with generalized density number  0.
 Leave Link  701 at Tue Nov  1 20:00:23 2016, MaxMem=    33554432 cpu:         1.6
 (Enter /home/proyectos/fulerenos/M3C-v2.0/M3C-deps_CCC/g09-AM64L-G09RevC.01/l702.exe)
 L702 exits ... SP integral derivatives will be done elsewhere.
 Leave Link  702 at Tue Nov  1 20:00:23 2016, MaxMem=    33554432 cpu:         0.1
 (Enter /home/proyectos/fulerenos/M3C-v2.0/M3C-deps_CCC/g09-AM64L-G09RevC.01/l703.exe)
 Compute integral second derivatives, UseDBF=F ICtDFT=           0.
 Integral derivatives from FoFJK, PRISM(SPDF).
 Calling FoFJK, ICntrl=    100127 FMM=F ISym2X=1 I1Cent= 0 IOpClX= 1 NMat=1 NMatS=1 NMatT=0.
 FoFJK:  IHMeth= 1 ICntrl=  100127 DoSepK=F KAlg= 0 I1Cent=   0 FoldK=F
 IRaf=         0 NMat=   1 IRICut=       1 DoRegI=T DoRafI=F ISym2E= 1.
 FoFCou: FMM=F IPFlag=           0 FMFlag=      100000 FMFlg1=         800
         NFxFlg=           0 DoJE=F BraDBF=F KetDBF=F FulRan=T
         wScrn=  0.000000 ICntrl=  100127 IOpCl=  1 I1Cent=           0 NGrid=           0
         NMat0=    1 NMatS0=      1 NMatT0=    0 NMatD0=    1 NMtDS0=    0 NMtDT0=    0
 Petite list used in FoFCou.
 Leave Link  703 at Tue Nov  1 20:03:58 2016, MaxMem=    33554432 cpu:       861.5
 (Enter /home/proyectos/fulerenos/M3C-v2.0/M3C-deps_CCC/g09-AM64L-G09RevC.01/l716.exe)
 Dipole        = 2.02931385D-04-1.12761641D+00-2.05641379D-17
 Polarizability= 5.18249415D+01-7.79341337D-03 1.75589430D+02
                -1.96534414D-05-5.07726949D-07 3.57772412D+01
 Full mass-weighted force constant matrix:
 Low frequencies ---  -14.1699   -0.0004    0.0002    0.0004    3.1584    3.3774
 Low frequencies ---  114.5690  117.6189  205.0125
 Diagonal vibrational polarizability:
       17.3486281      16.4032425      10.0981468
 Harmonic frequencies (cm**-1), IR intensities (KM/Mole), Raman scattering
 activities (A**4/AMU), depolarization ratios for plane and unpolarized
 incident light, reduced masses (AMU), force constants (mDyne/A),
 and normal coordinates:
                      1                      2                      3
                     A"                     A'                     A'
 Frequencies --    114.5689               117.6189               205.0125
 Red. masses --     12.0000                12.0000                12.0000
 Frc consts  --      0.0928                 0.0978                 0.2972
 IR Inten    --      4.5895                 5.9520                 4.4440
  Atom  AN      X      Y      Z        X      Y      Z        X      Y      Z
     1   6     0.00   0.00  -0.09    -0.08  -0.00  -0.00    -0.51   0.00  -0.00
     2   6    -0.00  -0.00   0.61     0.50  -0.00   0.00     0.53  -0.00   0.00
     3   6     0.00   0.00  -0.32    -0.21  -0.09  -0.00    -0.20   0.21  -0.00
     4   6     0.00  -0.00  -0.32    -0.21   0.09  -0.00    -0.20  -0.21  -0.00
     5   6     0.00   0.00  -0.37    -0.35  -0.00  -0.00     0.16   0.00  -0.00
     6   6     0.00   0.00  -0.05    -0.30  -0.00  -0.00     0.46   0.00  -0.00
     7   6    -0.00  -0.00   0.52     0.65   0.00   0.00    -0.24  -0.00   0.00
                      4                      5                      6
                     A"                     A"                     A'
 Frequencies --    272.9081               499.1097               499.4795
 Red. masses --     12.0000                12.0000                12.0000
 Frc consts  --      0.5266                 1.7613                 1.7639
 IR Inten    --      0.8436                 2.0894                 1.1744
  Atom  AN      X      Y      Z        X      Y      Z        X      Y      Z
     1   6     0.00   0.00   0.60     0.00  -0.00   0.61     0.39   0.00  -0.00
     2   6    -0.00   0.00  -0.36    -0.00  -0.00  -0.10    -0.04   0.00   0.00
     3   6     0.00  -0.00   0.13    -0.00  -0.00  -0.42    -0.23  -0.27   0.00
     4   6     0.00   0.00   0.13    -0.00   0.00  -0.42    -0.23   0.27   0.00
     5   6    -0.00   0.00  -0.42    -0.00   0.00   0.07    -0.44  -0.00  -0.00
     6   6    -0.00  -0.00  -0.42     0.00   0.00   0.47     0.63  -0.00  -0.00
     7   6     0.00  -0.00   0.35    -0.00   0.00  -0.21    -0.08  -0.00   0.00
                      7                      8                      9
                     A'                     A'                     A"
 Frequencies --    567.8267               635.3301               640.8193
 Red. masses --     12.0000                12.0000                12.0000
 Frc consts  --      2.2796                 2.8538                 2.9034
 IR Inten    --      0.1134                39.0539                 2.4137
  Atom  AN      X      Y      Z        X      Y      Z        X      Y      Z
     1   6    -0.00   0.36   0.00     0.27  -0.00  -0.00    -0.00  -0.00   0.10
     2   6     0.00   0.52  -0.00     0.00  -0.00  -0.00    -0.00  -0.00   0.01
     3   6    -0.26   0.10  -0.00    -0.43  -0.16  -0.00     0.00   0.00  -0.23
     4   6     0.26   0.10  -0.00    -0.43   0.16  -0.00     0.00  -0.00  -0.23
     5   6     0.00  -0.19   0.00     0.70   0.00   0.00    -0.00   0.00   0.72
     6   6    -0.00  -0.39  -0.00    -0.14   0.00  -0.00     0.00   0.00  -0.57
     7   6     0.00  -0.51   0.00     0.03   0.00   0.00    -0.00   0.00   0.19
                     10                     11                     12
                     A'                     A'                     A'
 Frequencies --    885.9212               955.7936              1016.3348
 Red. masses --     12.0000                12.0000                12.0000
 Frc consts  --      5.5491                 6.4589                 7.3031
 IR Inten    --     19.2865                 6.6042               148.5492
  Atom  AN      X      Y      Z        X      Y      Z        X      Y      Z
     1   6    -0.00  -0.00  -0.00    -0.51   0.00  -0.00    -0.00  -0.05   0.00
     2   6     0.00  -0.01  -0.00    -0.01  -0.00  -0.00     0.00   0.67  -0.00
     3   6     0.58   0.24   0.00     0.16  -0.58   0.00     0.28  -0.36  -0.00
     4   6    -0.58   0.24   0.00     0.16   0.58   0.00    -0.28  -0.36  -0.00
     5   6    -0.00   0.13  -0.00     0.15   0.00   0.00     0.00  -0.23  -0.00
     6   6    -0.00  -0.18   0.00     0.05   0.00  -0.00     0.00   0.06   0.00
     7   6     0.00  -0.41  -0.00    -0.00   0.00   0.00    -0.00   0.27  -0.00
                     13                     14                     15
                     A'                     A'                     A'
 Frequencies --   1377.9769              1627.2155              1928.1478
 Red. masses --     12.0000                12.0000                12.0000
 Frc consts  --     13.4250                18.7207                26.2852
 IR Inten    --     39.3594               208.2891              1269.2491
  Atom  AN      X      Y      Z        X      Y      Z        X      Y      Z
     1   6    -0.00   0.21  -0.00     0.00   0.81  -0.00     0.00   0.17  -0.00
     2   6     0.00   0.01  -0.00    -0.00  -0.36  -0.00    -0.00  -0.07   0.00
     3   6    -0.03  -0.37   0.00     0.14  -0.14   0.00     0.02  -0.04   0.00
     4   6     0.03  -0.37   0.00    -0.14  -0.14   0.00    -0.02  -0.04   0.00
     5   6    -0.00   0.76   0.00     0.00  -0.22   0.00     0.00  -0.36   0.00
     6   6    -0.00   0.09   0.00     0.00  -0.19  -0.00    -0.00   0.79  -0.00
     7   6     0.00  -0.31  -0.00    -0.00   0.24   0.00     0.00  -0.45   0.00

 -------------------
 - Thermochemistry -
 -------------------
 Temperature   298.150 Kelvin.  Pressure   1.00000 Atm.
 Atom     1 has atomic number  6 and mass  12.00000
 Atom     2 has atomic number  6 and mass  12.00000
 Atom     3 has atomic number  6 and mass  12.00000
 Atom     4 has atomic number  6 and mass  12.00000
 Atom     5 has atomic number  6 and mass  12.00000
 Atom     6 has atomic number  6 and mass  12.00000
 Atom     7 has atomic number  6 and mass  12.00000
 Molecular mass:    84.00000 amu.
 Principal axes and moments of inertia in atomic units:
                           1         2         3
     Eigenvalues --    54.670551183.326721237.99727
           X           -0.00006   1.00000  -0.00000
           Y            1.00000   0.00006  -0.00000
           Z            0.00000   0.00000   1.00000
 This molecule is an asymmetric top.
 Rotational symmetry number  1.
 Rotational temperatures (Kelvin)      1.58429     0.07320     0.06996
 Rotational constants (GHZ):          33.01121     1.52514     1.45779
 Zero-point vibrational energy      67852.6 (Joules/Mol)
                                   16.21715 (Kcal/Mol)
 Warning -- explicit consideration of   7 degrees of freedom as
           vibrations may cause significant error
 Vibrational temperatures:    164.84   169.23   294.97   392.65   718.11
          (Kelvin)            718.64   816.98   914.10   921.99  1274.64
                             1375.17  1462.28  1982.60  2341.20  2774.17
 
 Zero-point correction=                           0.025844 (Hartree/Particle)
 Thermal correction to Energy=                    0.032148
 Thermal correction to Enthalpy=                  0.033092
 Thermal correction to Gibbs Free Energy=        -0.004651
 Sum of electronic and zero-point Energies=           -265.924520
 Sum of electronic and thermal Energies=              -265.918216
 Sum of electronic and thermal Enthalpies=            -265.917272
 Sum of electronic and thermal Free Energies=         -265.955015
 
                     E (Thermal)             CV                S
                      KCal/Mol        Cal/Mol-Kelvin    Cal/Mol-Kelvin
 Total                   20.173             20.383             79.436
 Electronic               0.000              0.000              1.377
 Translational            0.889              2.981             39.198
 Rotational               0.889              2.981             25.885
 Vibrational             18.396             14.421             12.975
 Vibration     1          0.608              1.937              3.190
 Vibration     2          0.608              1.935              3.139
 Vibration     3          0.640              1.833              2.088
 Vibration     4          0.676              1.723              1.578
 Vibration     5          0.855              1.252              0.660
 Vibration     6          0.855              1.251              0.659
 Vibration     7          0.924              1.101              0.508
                       Q            Log10(Q)             Ln(Q)
 Total Bot       0.137749D+03          2.139090          4.925437
 Total V=0       0.106251D+15         14.026331         32.296822
 Vib (Bot)       0.224673D-10        -10.648449        -24.518961
 Vib (Bot)    1  0.178590D+01          0.251858          0.579924
 Vib (Bot)    2  0.173840D+01          0.240151          0.552968
 Vib (Bot)    3  0.970717D+00         -0.012907         -0.029721
 Vib (Bot)    4  0.707102D+00         -0.150518         -0.346581
 Vib (Bot)    5  0.329553D+00         -0.482075         -1.110019
 Vib (Bot)    6  0.329201D+00         -0.482539         -1.111087
 Vib (Bot)    7  0.271624D+00         -0.566031         -1.303335
 Vib (V=0)       0.173297D+02          1.238792          2.852424
 Vib (V=0)    1  0.235457D+01          0.371913          0.856360
 Vib (V=0)    2  0.230888D+01          0.363402          0.836763
 Vib (V=0)    3  0.159192D+01          0.201921          0.464941
 Vib (V=0)    4  0.136602D+01          0.135458          0.311902
 Vib (V=0)    5  0.109884D+01          0.040933          0.094252
 Vib (V=0)    6  0.109864D+01          0.040856          0.094076
 Vib (V=0)    7  0.106902D+01          0.028984          0.066739
 Electronic      0.200000D+01          0.301030          0.693147
 Translational   0.302604D+08          7.480874         17.225349
 Rotational      0.101306D+06          5.005635         11.525901
 
                                                              b3lyp opt
                                                             IR Spectrum
 
     1                   1                1                       1                                                                  
     9                   6                3                       0   9   8               66   5   44              2   2    11       
     2                   2                7                       1   5   8               43   6   99              7   0    11       
     8                   7                8                       6   6   6               15   8   99              3   5    85       
 
     X                   X                X                       X   X   X               XX   X   XX              X   X    XX       
     X                   X                                        X                                                                  
     X                   X                                                                                                           
     X                                                                                                                               
     X                                                                                                                               
     X                                                                                                                               
     X                                                                                                                               
     X                                                                                                                               
     X                                                                                                                               
     X                                                                                                                               
     X                                                                                                                               
     X                                                                                                                               
     X                                                                                                                               
     X                                                                                                                               
     X                                                                                                                               
     X                                                                                                                               
     X                                                                                                                               
     X                                                                                                                               
     X                                                                                                                               
     X                                                                                                                               
 
 ***** Axes restored to original set *****
 -------------------------------------------------------------------
 Center     Atomic                   Forces (Hartrees/Bohr)
 Number     Number              X              Y              Z
 -------------------------------------------------------------------
      1        6           0.000062994    0.000059057    0.000058574
      2        6          -0.000040283   -0.000038655   -0.000038527
      3        6          -0.000026649   -0.000018622   -0.000017118
      4        6          -0.000024405   -0.000025712   -0.000026104
      5        6           0.000029171    0.000026428    0.000026016
      6        6          -0.000045353   -0.000040996   -0.000040337
      7        6           0.000044525    0.000038500    0.000037496
 -------------------------------------------------------------------
 Cartesian Forces:  Max     0.000062994 RMS     0.000038568
 Z-matrix is all fixed cartesians, so copy forces.
 Force constants in Cartesian coordinates: 
                1             2             3             4             5 
      1  0.417729D+00
      2  0.263627D+00  0.330404D+00
      3  0.245505D+00  0.277508D+00  0.341661D+00
      4 -0.134769D+00 -0.119642D+00 -0.120075D+00  0.158147D+00
      5 -0.119640D+00 -0.122424D+00 -0.106452D+00  0.140275D+00  0.138007D+00
      6 -0.120073D+00 -0.106451D+00 -0.118522D+00  0.138985D+00  0.128857D+00
      7 -0.214776D+00 -0.800574D-01 -0.597462D-01 -0.235623D-01 -0.166030D-01
      8 -0.723049D-01 -0.499081D-01 -0.875253D-02 -0.164471D-01 -0.116968D-01
      9 -0.504104D-01 -0.720865D-02 -0.293243D-01 -0.148152D-01 -0.125862D-01
     10 -0.121756D-01 -0.187424D-01 -0.262569D-01 -0.125387D-01 -0.135346D-01
     11 -0.264991D-01 -0.125391D+00 -0.108770D+00 -0.136863D-01 -0.158056D-01
     12 -0.355977D-01 -0.110315D+00 -0.156443D+00 -0.136858D-01 -0.181438D-01
     13 -0.797900D-01 -0.617397D-01 -0.563755D-01  0.226413D-01  0.189446D-01
     14 -0.617333D-01 -0.558026D-01 -0.675070D-01  0.189403D-01  0.211542D-01
     15 -0.563679D-01 -0.675058D-01 -0.596038D-01  0.191577D-01  0.165141D-01
     16  0.177964D-01  0.106375D-01  0.117728D-01 -0.617261D-02 -0.596017D-02
     17  0.106360D-01  0.201540D-01  0.699349D-02 -0.596047D-02 -0.614155D-02
     18  0.117711D-01  0.699320D-02  0.186650D-01 -0.616747D-02 -0.488537D-02
     19  0.598550D-02  0.591706D-02  0.517533D-02 -0.374577D-02 -0.348226D-02
     20  0.591439D-02  0.296687D-02  0.697992D-02 -0.347996D-02 -0.309308D-02
     21  0.517213D-02  0.697939D-02  0.356756D-02 -0.339965D-02 -0.330409D-02
                6             7             8             9            10 
      6  0.135303D+00
      7 -0.150028D-01  0.325113D+00
      8 -0.126173D-01  0.772290D-01  0.149608D+00
      9 -0.107060D-01  0.343883D-01  0.127704D+00  0.177730D+00
     10 -0.135033D-01 -0.553700D-01  0.589776D-01  0.882020D-01  0.253515D+00
     11 -0.181135D-01  0.567362D-01  0.293416D-01 -0.131599D-01  0.582964D-01
     12 -0.176248D-01  0.855022D-01 -0.136065D-01 -0.252646D-02  0.258490D-01
     13  0.191629D-01 -0.213830D-01 -0.282903D-01 -0.368135D-01 -0.120587D+00
     14  0.165149D-01 -0.147356D-01 -0.853075D-01 -0.574482D-01 -0.545193D-01
     15  0.203797D-01 -0.204903D-01 -0.547487D-01 -0.970163D-01 -0.486411D-01
     16 -0.616711D-02 -0.108023D-01 -0.205934D-01 -0.225877D-01 -0.553165D-01
     17 -0.488531D-02 -0.232845D-01 -0.351270D-01 -0.380315D-01 -0.323503D-01
     18 -0.575402D-02 -0.258283D-01 -0.385674D-01 -0.409962D-01 -0.278840D-01
     19 -0.340241D-02  0.780320D-03  0.142905D-02  0.203653D-02  0.247240D-02
     20 -0.330455D-02  0.715349D-03  0.308995D-02  0.730432D-03  0.187263D-02
     21 -0.307540D-02  0.117707D-02  0.588321D-03  0.283914D-02  0.223426D-02
               11            12            13            14            15 
     11  0.176278D+00
     12  0.163581D+00  0.222644D+00
     13 -0.409592D-01 -0.323113D-01  0.373804D+00
     14 -0.483338D-01 -0.501099D-02  0.237269D+00  0.330754D+00
     15 -0.771164D-02 -0.347561D-01  0.232250D+00  0.224289D+00  0.329114D+00
     16 -0.350507D-01 -0.311357D-01 -0.168657D+00 -0.113550D+00 -0.116567D+00
     17 -0.185497D-01 -0.162427D-01 -0.113553D+00 -0.165118D+00 -0.951186D-01
     18 -0.157050D-01 -0.130713D-01 -0.116571D+00 -0.951192D-01 -0.158685D+00
     19  0.116273D-02  0.137938D-02 -0.602909D-02 -0.116709D-01 -0.934177D-02
     20  0.246002D-02 -0.261798D-03 -0.116712D-01  0.265340D-02 -0.157179D-01
     21 -0.120440D-03  0.177777D-02 -0.934210D-02 -0.157180D-01  0.567770D-03
               16            17            18            19            20 
     16  0.457716D+00
     17  0.370619D+00  0.423518D+00
     18  0.373318D+00  0.326421D+00  0.409912D+00
     19 -0.234564D+00 -0.206107D+00 -0.208639D+00  0.235101D+00
     20 -0.206103D+00 -0.218735D+00 -0.179137D+00  0.212752D+00  0.210658D+00
     21 -0.208633D+00 -0.179136D+00 -0.210071D+00  0.212792D+00  0.190711D+00
               21 
     21  0.204394D+00
 Leave Link  716 at Tue Nov  1 20:03:58 2016, MaxMem=    33554432 cpu:         0.1
 (Enter /home/proyectos/fulerenos/M3C-v2.0/M3C-deps_CCC/g09-AM64L-G09RevC.01/l103.exe)

 GradGradGradGradGradGradGradGradGradGradGradGradGradGradGradGradGradGrad
 Berny optimization.
 Search for a local minimum.
 Step number   1 out of a maximum of    2
 All quantities printed in internal units (Hartrees-Bohrs-Radians)
 Second derivative matrix not updated -- analytic derivatives used.
 ITU=  0
     Eigenvalues ---    0.00596   0.00628   0.01909   0.03382   0.11313
     Eigenvalues ---    0.11329   0.14642   0.18330   0.18648   0.35642
     Eigenvalues ---    0.41486   0.46908   0.86230   1.20244   1.68831
 Angle between quadratic step and forces=  73.41 degrees.
 ClnCor:  largest displacement from symmetrization is 8.40D-11 for atom     2.
 Linear search not attempted -- first point.
 ClnCor:  largest displacement from symmetrization is 8.48D-15 for atom     7.
 B after Tr=     0.000000   -0.000000   -0.000000
         Rot=    1.000000   -0.000000   -0.000000    0.000000 Ang=   0.00 deg.
 Variable       Old X    -DE/DX   Delta X   Delta X   Delta X     New X
                                 (Linear)    (Quad)   (Total)
    X1        1.94754   0.00006   0.00000   0.00002   0.00002   1.94756
    Y1        1.81013   0.00006   0.00000   0.00003   0.00003   1.81015
    Z1        1.79198   0.00006   0.00000   0.00003   0.00003   1.79201
    X2        3.51004  -0.00004   0.00000   0.00012   0.00012   3.51016
    Y2        3.26268  -0.00004   0.00000  -0.00017  -0.00017   3.26252
    Z2        3.23004  -0.00004   0.00000  -0.00022  -0.00022   3.22982
    X3       -0.56141  -0.00003   0.00000  -0.00009  -0.00009  -0.56150
    Y3        1.05281  -0.00002   0.00000   0.00005   0.00005   1.05286
    Z3        1.37965  -0.00002   0.00000   0.00008   0.00008   1.37973
    X4        1.80617  -0.00002   0.00000  -0.00017  -0.00017   1.80600
    Y4        0.10387  -0.00003   0.00000  -0.00004  -0.00004   0.10383
    Z4       -0.23461  -0.00003   0.00000  -0.00002  -0.00002  -0.23463
    X5       -0.72886   0.00003   0.00000  -0.00012  -0.00012  -0.72898
    Y5       -0.67766   0.00003   0.00000   0.00011   0.00011  -0.67755
    Z5       -0.67091   0.00003   0.00000   0.00015   0.00015  -0.67076
    X6       -2.23825  -0.00005   0.00000  -0.00015  -0.00015  -2.23841
    Y6       -2.08056  -0.00004   0.00000   0.00008   0.00008  -2.08048
    Z6       -2.05975  -0.00004   0.00000   0.00012   0.00012  -2.05963
    X7       -3.73522   0.00004   0.00000   0.00040   0.00040  -3.73482
    Y7       -3.47127   0.00004   0.00000  -0.00006  -0.00006  -3.47133
    Z7       -3.43639   0.00004   0.00000  -0.00015  -0.00015  -3.43654
         Item               Value     Threshold  Converged?
 Maximum Force            0.000063     0.000450     YES
 RMS     Force            0.000039     0.000300     YES
 Maximum Displacement     0.000399     0.001800     YES
 RMS     Displacement     0.000142     0.001200     YES
 Predicted change in Energy=-1.636773D-08
 Optimization completed.
    -- Stationary point found.
 GradGradGradGradGradGradGradGradGradGradGradGradGradGradGradGradGradGrad

 Leave Link  103 at Tue Nov  1 20:03:58 2016, MaxMem=    33554432 cpu:         0.1
 (Enter /home/proyectos/fulerenos/M3C-v2.0/M3C-deps_CCC/g09-AM64L-G09RevC.01/l9999.exe)
 1\1\GINC-BELVIS8\Freq\UB3LYP\6-311+G(3df)\C7(1+,2)\ROOT\01-Nov-2016\0\
 \#p b3lyp/6-311+G(3df) freq symmetry=Loose\\b3lyp opt\\1,2\C,1.0305937
 143,0.957877587,0.9482756293\C,1.8574316591,1.726536874,1.7092643734\C
 ,-0.2970863842,0.5571234167,0.7300790284\C,0.9557826196,0.0549673937,-
 0.1241519524\C,-0.3856942698,-0.3586010874,-0.3550324824\C,-1.18443255
 59,-1.1009845915,-1.0899748128\C,-1.9765947832,-1.8369175924,-1.818458
 7835\\Version=EM64L-G09RevE.01\State=2-A"\HF=-265.9503642\S2=0.791217\
 S2-1=0.\S2A=0.750249\RMSD=3.993e-09\RMSF=3.857e-05\ZeroPoint=0.0258437
 \Thermal=0.032148\Dipole=0.6850214,0.6365473,0.6301365\DipoleDeriv=-0.
 3194411,-0.892006,-0.9743972,-0.8920828,-0.4767172,-0.6152031,-0.97448
 86,-0.6152188,-0.3651314,0.6584124,0.6525096,0.663239,0.6525733,0.6174
 173,0.5616743,0.6633163,0.5616868,0.5873951,0.0891818,0.1337769,0.1974
 122,0.0421782,0.1707185,-0.1297846,0.0871077,-0.1480237,0.0759103,-0.0
 902099,-0.0052628,0.0657068,0.0863083,0.2375799,-0.0580894,0.1759751,-
 0.0398545,0.1885038,0.7399191,0.1841276,0.1316078,0.1841409,0.5532757,
 0.2835478,0.1316242,0.2835503,0.6026186,-0.9194323,-0.8778904,-0.89476
 01,-0.8776341,-0.8712671,-0.7494447,-0.8944506,-0.7493942,-0.8281171,0
 .84157,0.8047451,0.8111915,0.8045161,0.7689929,0.7072997,0.810916,0.70
 7254,0.7388207\Polar=97.2308365,43.9852809,81.92301,40.730533,46.81110
 9,84.0377664\PG=CS [SG(C7)]\NImag=0\\0.41772917,0.26362690,0.33040407,
 0.24550538,0.27750846,0.34166091,-0.13476933,-0.11964196,-0.12007497,0
 .15814747,-0.11964004,-0.12242370,-0.10645187,0.14027542,0.13800657,-0
 .12007267,-0.10645149,-0.11852227,0.13898539,0.12885725,0.13530282,-0.
 21477621,-0.08005737,-0.05974618,-0.02356227,-0.01660296,-0.01500276,0
 .32511344,-0.07230488,-0.04990808,-0.00875253,-0.01644706,-0.01169683,
 -0.01261730,0.07722896,0.14960784,-0.05041037,-0.00720865,-0.02932425,
 -0.01481520,-0.01258623,-0.01070600,0.03438827,0.12770413,0.17773000,-
 0.01217556,-0.01874240,-0.02625686,-0.01253875,-0.01353458,-0.01350330
 ,-0.05537002,0.05897757,0.08820198,0.25351513,-0.02649907,-0.12539051,
 -0.10877043,-0.01368632,-0.01580557,-0.01811354,0.05673619,0.02934161,
 -0.01315992,0.05829639,0.17627795,-0.03559767,-0.11031515,-0.15644312,
 -0.01368584,-0.01814379,-0.01762484,0.08550216,-0.01360653,-0.00252646
 ,0.02584896,0.16358098,0.22264409,-0.07978998,-0.06173972,-0.05637555,
 0.02264126,0.01894460,0.01916287,-0.02138296,-0.02829026,-0.03681348,-
 0.12058666,-0.04095919,-0.03231130,0.37380432,-0.06173334,-0.05580262,
 -0.06750704,0.01894035,0.02115416,0.01651495,-0.01473565,-0.08530745,-
 0.05744822,-0.05451931,-0.04833382,-0.00501099,0.23726871,0.33075438,-
 0.05636789,-0.06750576,-0.05960379,0.01915774,0.01651410,0.02037971,-0
 .02049026,-0.05474869,-0.09701626,-0.04864109,-0.00771164,-0.03475610,
 0.23225046,0.22428851,0.32911358,0.01779640,0.01063750,0.01177284,-0.0
 0617261,-0.00596017,-0.00616711,-0.01080230,-0.02059337,-0.02258773,-0
 .05531654,-0.03505074,-0.03113569,-0.16865689,-0.11354986,-0.11656719,
 0.45771619,0.01063604,0.02015397,0.00699349,-0.00596047,-0.00614155,-0
 .00488531,-0.02328452,-0.03512704,-0.03803154,-0.03235030,-0.01854967,
 -0.01624274,-0.11355296,-0.16511804,-0.09511860,0.37061937,0.42351756,
 0.01177108,0.00699320,0.01866497,-0.00616747,-0.00488537,-0.00575402,-
 0.02582829,-0.03856741,-0.04099617,-0.02788395,-0.01570502,-0.01307134
 ,-0.11657090,-0.09511922,-0.15868490,0.37331828,0.32642084,0.40991231,
 0.00598550,0.00591706,0.00517533,-0.00374577,-0.00348226,-0.00340241,0
 .00078032,0.00142905,0.00203653,0.00247240,0.00116273,0.00137938,-0.00
 602909,-0.01167091,-0.00934177,-0.23456425,-0.20610717,-0.20863875,0.2
 3510089,0.00591439,0.00296687,0.00697992,-0.00347996,-0.00309308,-0.00
 330455,0.00071535,0.00308995,0.00073043,0.00187263,0.00246002,-0.00026
 180,-0.01167118,0.00265340,-0.01571793,-0.20610273,-0.21873522,-0.1791
 3701,0.21275150,0.21065806,0.00517213,0.00697939,0.00356756,-0.0033996
 5,-0.00330409,-0.00307540,0.00117707,0.00058832,0.00283914,0.00223426,
 -0.00012044,0.00177777,-0.00934210,-0.01571799,0.00056777,-0.20863341,
 -0.17913613,-0.21007085,0.21279170,0.19071095,0.20439402\\-0.00006299,
 -0.00005906,-0.00005857,0.00004028,0.00003865,0.00003853,0.00002665,0.
 00001862,0.00001712,0.00002440,0.00002571,0.00002610,-0.00002917,-0.00
 002643,-0.00002602,0.00004535,0.00004100,0.00004034,-0.00004453,-0.000
 03850,-0.00003750\\\@


 MARY HAD A LITTLE LAMB
      HIS FEET WERE BLACK AS SOOT,
           AND EVERYWHERE THAT MARY WENT
                HIS SOOTY FOOT HE PUT.

                    -- NONAME
 Job cpu time:       0 days  1 hours 13 minutes 14.5 seconds.
 File lengths (MBytes):  RWF=     92 Int=      0 D2E=      0 Chk=      7 Scr=      1
 Normal termination of Gaussian 09 at Tue Nov  1 20:03:58 2016.
