 Entering Gaussian System, Link 0=/home/proyectos/fulerenos/M3C-v2.0/M3C-deps_CCC/g09-AM64L-G09RevC.01/g09
 Initial command:
 /home/proyectos/fulerenos/M3C-v2.0/M3C-deps_CCC/g09-AM64L-G09RevC.01/l1.exe "/scratch/naguirre/gaussian/Gau-5956.inp" -scrdir="/scratch/naguirre/gaussian/"
 Entering Link 1 = /home/proyectos/fulerenos/M3C-v2.0/M3C-deps_CCC/g09-AM64L-G09RevC.01/l1.exe PID=      5962.
  
 Copyright (c) 1988,1990,1992,1993,1995,1998,2003,2009,2015,
            Gaussian, Inc.  All Rights Reserved.
  
 This is part of the Gaussian(R) 09 program.  It is based on
 the Gaussian(R) 03 system (copyright 2003, Gaussian, Inc.),
 the Gaussian(R) 98 system (copyright 1998, Gaussian, Inc.),
 the Gaussian(R) 94 system (copyright 1995, Gaussian, Inc.),
 the Gaussian 92(TM) system (copyright 1992, Gaussian, Inc.),
 the Gaussian 90(TM) system (copyright 1990, Gaussian, Inc.),
 the Gaussian 88(TM) system (copyright 1988, Gaussian, Inc.),
 the Gaussian 86(TM) system (copyright 1986, Carnegie Mellon
 University), and the Gaussian 82(TM) system (copyright 1983,
 Carnegie Mellon University). Gaussian is a federally registered
 trademark of Gaussian, Inc.
  
 This software contains proprietary and confidential information,
 including trade secrets, belonging to Gaussian, Inc.
  
 This software is provided under written license and may be
 used, copied, transmitted, or stored only in accord with that
 written license.
  
 The following legend is applicable only to US Government
 contracts under FAR:
  
                    RESTRICTED RIGHTS LEGEND
  
 Use, reproduction and disclosure by the US Government is
 subject to restrictions as set forth in subparagraphs (a)
 and (c) of the Commercial Computer Software - Restricted
 Rights clause in FAR 52.227-19.
  
 Gaussian, Inc.
 340 Quinnipiac St., Bldg. 40, Wallingford CT 06492
  
  
 ---------------------------------------------------------------
 Warning -- This program may not be used in any manner that
 competes with the business of Gaussian, Inc. or will provide
 assistance to any competitor of Gaussian, Inc.  The licensee
 of this program is prohibited from giving any competitor of
 Gaussian, Inc. access to this program.  By using this program,
 the user acknowledges that Gaussian, Inc. is engaged in the
 business of creating and licensing software in the field of
 computational chemistry and represents and warrants to the
 licensee that it is not a competitor of Gaussian, Inc. and that
 it will not use this program in any manner prohibited above.
 ---------------------------------------------------------------
  

 Cite this work as:
 Gaussian 09, Revision E.01,
 M. J. Frisch, G. W. Trucks, H. B. Schlegel, G. E. Scuseria, 
 M. A. Robb, J. R. Cheeseman, G. Scalmani, V. Barone, B. Mennucci, 
 G. A. Petersson, H. Nakatsuji, M. Caricato, X. Li, H. P. Hratchian, 
 A. F. Izmaylov, J. Bloino, G. Zheng, J. L. Sonnenberg, M. Hada, 
 M. Ehara, K. Toyota, R. Fukuda, J. Hasegawa, M. Ishida, T. Nakajima, 
 Y. Honda, O. Kitao, H. Nakai, T. Vreven, J. A. Montgomery, Jr., 
 J. E. Peralta, F. Ogliaro, M. Bearpark, J. J. Heyd, E. Brothers, 
 K. N. Kudin, V. N. Staroverov, T. Keith, R. Kobayashi, J. Normand, 
 K. Raghavachari, A. Rendell, J. C. Burant, S. S. Iyengar, J. Tomasi, 
 M. Cossi, N. Rega, J. M. Millam, M. Klene, J. E. Knox, J. B. Cross, 
 V. Bakken, C. Adamo, J. Jaramillo, R. Gomperts, R. E. Stratmann, 
 O. Yazyev, A. J. Austin, R. Cammi, C. Pomelli, J. W. Ochterski, 
 R. L. Martin, K. Morokuma, V. G. Zakrzewski, G. A. Voth, 
 P. Salvador, J. J. Dannenberg, S. Dapprich, A. D. Daniels, 
 O. Farkas, J. B. Foresman, J. V. Ortiz, J. Cioslowski, 
 and D. J. Fox, Gaussian, Inc., Wallingford CT, 2013.
 
 ******************************************
 Gaussian 09:  EM64L-G09RevE.01 30-Nov-2015
                23-Oct-2016 
 ******************************************
 %NProcShared=4
 Will use up to    4 processors via shared memory.
 -----------------------------------------
 #p b3lyp/6-311+G(3df) freq symmetry=Loose
 -----------------------------------------
 1/10=4,30=1,38=1/1,3;
 2/12=2,17=4,18=3,40=1/2;
 3/5=4,6=6,7=16,11=2,16=1,25=1,30=1,71=2,74=-5,140=1/1,2,3;
 4//1;
 5/5=2,38=5,98=1/2;
 8/6=4,10=90,11=11/1;
 11/6=1,8=1,9=11,15=111,16=1/1,2,10;
 10/6=1/2;
 6/7=2,8=2,9=2,10=2,18=1,28=1/1;
 7/8=1,10=1,25=1/1,2,3,16;
 1/10=4,30=1/3;
 99//99;
 Leave Link    1 at Sun Oct 23 12:25:28 2016, MaxMem=           0 cpu:         0.2
 (Enter /home/proyectos/fulerenos/M3C-v2.0/M3C-deps_CCC/g09-AM64L-G09RevC.01/l101.exe)
 ---------
 b3lyp opt
 ---------
 Symbolic Z-matrix:
 Charge =  2 Multiplicity = 3
 C                     1.01349   0.94199   0.93255 
 C                     1.86902   1.73716   1.71975 
 C                    -0.31797   0.55301   0.72929 
 C                     0.95775   0.04163  -0.14061 
 C                    -0.38069  -0.35383  -0.35029 
 C                    -1.19569  -1.11133  -1.10019 
 C                    -1.94591  -1.80862  -1.7905 
 
 NAtoms=      7 NQM=        7 NQMF=       0 NMMI=      0 NMMIF=      0
                NMic=       0 NMicF=      0.
                    Isotopes and Nuclear Properties:
 (Nuclear quadrupole moments (NQMom) in fm**2, nuclear magnetic moments (NMagM)
  in nuclear magnetons)

  Atom         1           2           3           4           5           6           7
 IAtWgt=          12          12          12          12          12          12          12
 AtmWgt=  12.0000000  12.0000000  12.0000000  12.0000000  12.0000000  12.0000000  12.0000000
 NucSpn=           0           0           0           0           0           0           0
 AtZEff=   0.0000000   0.0000000   0.0000000   0.0000000   0.0000000   0.0000000   0.0000000
 NQMom=    0.0000000   0.0000000   0.0000000   0.0000000   0.0000000   0.0000000   0.0000000
 NMagM=    0.0000000   0.0000000   0.0000000   0.0000000   0.0000000   0.0000000   0.0000000
 AtZNuc=   6.0000000   6.0000000   6.0000000   6.0000000   6.0000000   6.0000000   6.0000000
 Leave Link  101 at Sun Oct 23 12:25:28 2016, MaxMem=    33554432 cpu:         0.2
 (Enter /home/proyectos/fulerenos/M3C-v2.0/M3C-deps_CCC/g09-AM64L-G09RevC.01/l103.exe)

 GradGradGradGradGradGradGradGradGradGradGradGradGradGradGradGradGradGrad
 Berny optimization.
 Initialization pass.
 Trust Radius=3.00D-01 FncErr=1.00D-07 GrdErr=1.00D-07
 Number of steps in this run=      2 maximum allowed number of steps=      2.
 GradGradGradGradGradGradGradGradGradGradGradGradGradGradGradGradGradGrad

 Leave Link  103 at Sun Oct 23 12:25:28 2016, MaxMem=    33554432 cpu:         0.1
 (Enter /home/proyectos/fulerenos/M3C-v2.0/M3C-deps_CCC/g09-AM64L-G09RevC.01/l202.exe)
                          Input orientation:                          
 ---------------------------------------------------------------------
 Center     Atomic      Atomic             Coordinates (Angstroms)
 Number     Number       Type             X           Y           Z
 ---------------------------------------------------------------------
      1          6           0        1.013493    0.941991    0.932550
      2          6           0        1.869021    1.737160    1.719749
      3          6           0       -0.317972    0.553011    0.729286
      4          6           0        0.957748    0.041629   -0.140606
      5          6           0       -0.380693   -0.353835   -0.350288
      6          6           0       -1.195687   -1.111330   -1.100192
      7          6           0       -1.945910   -1.808624   -1.790497
 ---------------------------------------------------------------------
                    Distance matrix (angstroms):
                    1          2          3          4          5
     1  C    0.000000
     2  C    1.408512   0.000000
     3  C    1.401935   2.676970   0.000000
     4  C    1.401935   2.676970   1.626556   0.000000
     5  C    2.295342   3.703853   1.411305   1.411305   0.000000
     6  C    3.637121   5.045632   2.624386   2.624386   1.341779
     7  C    4.872261   6.280773   3.817958   3.817958   2.576919
                    6          7
     6  C    0.000000
     7  C    1.235141   0.000000
 Stoichiometry    C7(2+,3)
 Framework group  C2V[C2(CCCCC),SGV(C2)]
 Deg. of freedom     6
 Full point group                 C2V     NOp   4
 Largest Abelian subgroup         C2V     NOp   4
 Largest concise Abelian subgroup C2      NOp   2
                         Standard orientation:                         
 ---------------------------------------------------------------------
 Center     Atomic      Atomic             Coordinates (Angstroms)
 Number     Number       Type             X           Y           Z
 ---------------------------------------------------------------------
      1          6           0        0.000000    0.000000   -1.668581
      2          6           0        0.000000    0.000000   -3.077093
      3          6           0        0.000000   -0.813278   -0.526653
      4          6           0       -0.000000    0.813278   -0.526653
      5          6           0       -0.000000   -0.000000    0.626760
      6          6           0       -0.000000   -0.000000    1.968539
      7          6           0       -0.000000   -0.000000    3.203680
 ---------------------------------------------------------------------
 Rotational constants (GHZ):     31.8367038      1.5404742      1.4693759
 Leave Link  202 at Sun Oct 23 12:25:28 2016, MaxMem=    33554432 cpu:         0.0
 (Enter /home/proyectos/fulerenos/M3C-v2.0/M3C-deps_CCC/g09-AM64L-G09RevC.01/l301.exe)
 Standard basis: 6-311+G(3df) (5D, 7F)
 Ernie: Thresh=  0.10000D-02 Tol=  0.10000D-05 Strict=F.
 There are   136 symmetry adapted cartesian basis functions of A1  symmetry.
 There are    34 symmetry adapted cartesian basis functions of A2  symmetry.
 There are    64 symmetry adapted cartesian basis functions of B1  symmetry.
 There are    81 symmetry adapted cartesian basis functions of B2  symmetry.
 There are   111 symmetry adapted basis functions of A1  symmetry.
 There are    33 symmetry adapted basis functions of A2  symmetry.
 There are    58 symmetry adapted basis functions of B1  symmetry.
 There are    71 symmetry adapted basis functions of B2  symmetry.
   273 basis functions,   406 primitive gaussians,   315 cartesian basis functions
    21 alpha electrons       19 beta electrons
       nuclear repulsion energy       184.5551430261 Hartrees.
 IExCor=  402 DFT=T Ex+Corr=B3LYP ExCW=0 ScaHFX=  0.200000
 ScaDFX=  0.800000  0.720000  1.000000  0.810000 ScalE2=  1.000000  1.000000
 IRadAn=      0 IRanWt=     -1 IRanGd=            0 ICorTp=0 IEmpDi=  4
 NAtoms=    7 NActive=    7 NUniq=    6 SFac= 1.36D+00 NAtFMM=   60 NAOKFM=F Big=F
 Integral buffers will be    131072 words long.
 Raffenetti 2 integral format.
 Two-electron integral symmetry is turned on.
 Leave Link  301 at Sun Oct 23 12:25:28 2016, MaxMem=    33554432 cpu:         0.2
 (Enter /home/proyectos/fulerenos/M3C-v2.0/M3C-deps_CCC/g09-AM64L-G09RevC.01/l302.exe)
 NPDir=0 NMtPBC=     1 NCelOv=     1 NCel=       1 NClECP=     1 NCelD=      1
         NCelK=      1 NCelE2=     1 NClLst=     1 CellRange=     0.0.
 One-electron integrals computed using PRISM.
 One-electron integral symmetry used in STVInt
 NBasis=   273 RedAO= T EigKep=  2.00D-06  NBF=   111    33    58    71
 NBsUse=   272 1.00D-06 EigRej=  3.61D-08 NBFU=   110    33    58    71
 Precomputing XC quadrature grid using
 IXCGrd= 4 IRadAn=           0 IRanWt=          -1 IRanGd=           0 AccXCQ= 0.00D+00.
 Generated NRdTot=       0 NPtTot=           0 NUsed=           0 NTot=          32
 NSgBfM=   315   315   315   315   315 MxSgAt=     7 MxSgA2=     7.
 Leave Link  302 at Sun Oct 23 12:25:29 2016, MaxMem=    33554432 cpu:         1.1
 (Enter /home/proyectos/fulerenos/M3C-v2.0/M3C-deps_CCC/g09-AM64L-G09RevC.01/l303.exe)
 DipDrv:  MaxL=1.
 Leave Link  303 at Sun Oct 23 12:25:29 2016, MaxMem=    33554432 cpu:         0.1
 (Enter /home/proyectos/fulerenos/M3C-v2.0/M3C-deps_CCC/g09-AM64L-G09RevC.01/l401.exe)
 ExpMin= 4.38D-02 ExpMax= 4.56D+03 ExpMxC= 6.82D+02 IAcc=2 IRadAn=         4 AccDes= 0.00D+00
 Harris functional with IExCor=  402 and IRadAn=       4 diagonalized for initial guess.
 HarFok:  IExCor=  402 AccDes= 0.00D+00 IRadAn=         4 IDoV= 1 UseB2=F ITyADJ=14
 ICtDFT=  3500011 ScaDFX=  1.000000  1.000000  1.000000  1.000000
 FoFCou: FMM=F IPFlag=           0 FMFlag=      100000 FMFlg1=           0
         NFxFlg=           0 DoJE=T BraDBF=F KetDBF=T FulRan=T
         wScrn=  0.000000 ICntrl=     500 IOpCl=  0 I1Cent=   200000004 NGrid=           0
         NMat0=    1 NMatS0=      1 NMatT0=    0 NMatD0=    1 NMtDS0=    0 NMtDT0=    0
 Petite list used in FoFCou.
 Harris En= -265.730867737574    
 JPrj=0 DoOrth=F DoCkMO=F.
 Initial guess orbital symmetries:
 Alpha Orbitals:
       Occupied  (A1) (A1) (A1) (B2) (A1) (A1) (A1) (A1) (A1) (A1)
                 (A1) (A1) (B2) (B2) (B1) (B1) (B2) (A1) (A1) (A1)
                 (B1)
       Virtual   (B2) (B1) (A2) (B2) (B2) (B1) (A1) (A1) (B1) (B2)
                 (B1) (A1) (B2) (A1) (A1) (B1) (A2) (A1) (B2) (B1)
                 (A1) (B2) (A1) (B1) (A1) (B2) (B1) (A1) (B2) (B2)
                 (A1) (A1) (B1) (B2) (A1) (A2) (A1) (B2) (B2) (A1)
                 (A2) (A1) (A1) (B1) (A1) (A1) (A2) (B2) (A1) (A1)
                 (A1) (B2) (B1) (A1) (B1) (B2) (A2) (A1) (B2) (A1)
                 (B1) (B2) (B1) (B2) (B1) (A2) (B1) (A1) (B1) (B2)
                 (A1) (B2) (A1) (A2) (A1) (B1) (A1) (A2) (A1) (B2)
                 (B1) (B2) (A1) (B1) (A1) (A2) (B2) (A1) (B2) (B1)
                 (A1) (B2) (B1) (A1) (A1) (B2) (A1) (B2) (A1) (A1)
                 (A2) (A1) (B1) (B2) (A1) (A2) (A1) (A1) (B2) (A1)
                 (A2) (B1) (A1) (B1) (A2) (B2) (B1) (A1) (B2) (A2)
                 (A1) (A1) (A2) (B1) (B2) (A1) (A1) (B2) (A2) (B2)
                 (A1) (B1) (A1) (B2) (B1) (A1) (B1) (B1) (A1) (A2)
                 (B1) (B2) (B1) (B2) (B2) (A1) (A1) (A2) (B2) (B1)
                 (B1) (B1) (A2) (B2) (A1) (A1) (B2) (B1) (B1) (B2)
                 (B2) (B1) (A1) (B1) (B1) (B2) (A2) (B2) (A1) (B2)
                 (B1) (A1) (A1) (A2) (B2) (A1) (B2) (A1) (B1) (A1)
                 (B2) (B2) (A1) (A2) (A1) (A2) (A1) (B1) (A1) (A1)
                 (B2) (A1) (B2) (B1) (A1) (A2) (B2) (A2) (B1) (A1)
                 (B2) (B1) (B2) (A1) (A1) (B2) (B1) (A1) (B2) (A2)
                 (A1) (A2) (A1) (A2) (B1) (A1) (A2) (A1) (A1) (B2)
                 (A2) (A1) (B1) (B1) (B1) (B2) (B2) (A1) (B1) (A2)
                 (A1) (B2) (A2) (B1) (A1) (B1) (B2) (A1) (A1) (B2)
                 (A1) (A1) (B2) (B2) (A1) (A1) (A1) (B2) (A1) (A1)
                 (A1)
 Beta  Orbitals:
       Occupied  (A1) (A1) (A1) (B2) (A1) (A1) (A1) (A1) (A1) (A1)
                 (A1) (A1) (B2) (B2) (B1) (B1) (B2) (A1) (A1)
       Virtual   (A1) (B1) (B2) (B1) (A2) (B2) (B2) (B1) (A1) (A1)
                 (B1) (B2) (B1) (A1) (B2) (A1) (A1) (B1) (A2) (A1)
                 (B2) (B1) (A1) (B2) (A1) (B1) (A1) (B2) (B1) (A1)
                 (B2) (B2) (A1) (A1) (B1) (B2) (A1) (A2) (A1) (B2)
                 (B2) (A1) (A2) (A1) (A1) (B1) (A1) (A1) (A2) (B2)
                 (A1) (A1) (A1) (B2) (B1) (A1) (B1) (B2) (A2) (A1)
                 (B2) (A1) (B1) (B2) (B1) (B2) (B1) (A2) (B1) (A1)
                 (B1) (B2) (A1) (B2) (A1) (A2) (A1) (B1) (A1) (A2)
                 (A1) (B2) (B1) (B2) (A1) (B1) (A1) (A2) (B2) (A1)
                 (B2) (B1) (A1) (B2) (B1) (A1) (A1) (B2) (A1) (B2)
                 (A1) (A1) (A2) (A1) (B1) (B2) (A1) (A2) (A1) (A1)
                 (B2) (A1) (A2) (B1) (A1) (B1) (A2) (B2) (B1) (A1)
                 (B2) (A2) (A1) (A1) (A2) (B1) (B2) (A1) (A1) (B2)
                 (A2) (B2) (A1) (B1) (A1) (B2) (B1) (A1) (B1) (B1)
                 (A1) (A2) (B1) (B2) (B1) (B2) (B2) (A1) (A1) (A2)
                 (B2) (B1) (B1) (B1) (A2) (B2) (A1) (A1) (B2) (B1)
                 (B1) (B2) (B2) (B1) (A1) (B1) (B1) (B2) (A2) (B2)
                 (A1) (B2) (B1) (A1) (A1) (A2) (B2) (A1) (B2) (A1)
                 (B1) (A1) (B2) (B2) (A1) (A2) (A1) (A2) (A1) (B1)
                 (A1) (A1) (B2) (A1) (B2) (B1) (A1) (A2) (B2) (A2)
                 (B1) (A1) (B2) (B1) (B2) (A1) (A1) (B2) (B1) (A1)
                 (B2) (A2) (A1) (A2) (A1) (A2) (B1) (A1) (A2) (A1)
                 (A1) (B2) (A2) (A1) (B1) (B1) (B1) (B2) (B2) (A1)
                 (B1) (A2) (A1) (B2) (A2) (B1) (A1) (B1) (B2) (A1)
                 (A1) (B2) (A1) (A1) (B2) (B2) (A1) (A1) (A1) (B2)
                 (A1) (A1) (A1)
 The electronic state of the initial guess is 3-B1.
 Initial guess <Sx>= 0.0000 <Sy>= 0.0000 <Sz>= 1.0000 <S**2>= 2.0000 S= 1.0000
 Leave Link  401 at Sun Oct 23 12:25:29 2016, MaxMem=    33554432 cpu:         2.6
 (Enter /home/proyectos/fulerenos/M3C-v2.0/M3C-deps_CCC/g09-AM64L-G09RevC.01/l502.exe)
 UHF open shell SCF:
 Using DIIS extrapolation, IDIIS=  1040.
 Integral symmetry usage will be decided dynamically.
 IVT=      320829 IEndB=      320829 NGot=    33554432 MDV=    33349784
 LenX=    33349784 LenY=    33250118
 Requested convergence on RMS density matrix=1.00D-08 within 128 cycles.
 Requested convergence on MAX density matrix=1.00D-06.
 Requested convergence on             energy=1.00D-06.
 No special actions if energy rises.
 Fock matrices will be formed incrementally for  20 cycles.

 Cycle   1  Pass 1  IDiag  1:
 FoFJK:  IHMeth= 1 ICntrl=       0 DoSepK=F KAlg= 0 I1Cent=   0 FoldK=F
 IRaf= 950000000 NMat=   1 IRICut=       1 DoRegI=T DoRafI=F ISym2E= 1.
 FoFCou: FMM=F IPFlag=           0 FMFlag=      100000 FMFlg1=           0
         NFxFlg=           0 DoJE=F BraDBF=F KetDBF=F FulRan=T
         wScrn=  0.000000 ICntrl=       0 IOpCl=  1 I1Cent=           0 NGrid=           0
         NMat0=    1 NMatS0=      1 NMatT0=    0 NMatD0=    1 NMtDS0=    0 NMtDT0=    0
 Petite list used in FoFCou.
 E= -264.818523465127    
 DIIS: error= 1.00D-01 at cycle   1 NSaved=   1.
 NSaved= 1 IEnMin= 1 EnMin= -264.818523465127     IErMin= 1 ErrMin= 1.00D-01
 ErrMax= 1.00D-01  0.00D+00 EMaxC= 1.00D-01 BMatC= 1.01D+00 BMatP= 1.01D+00
 IDIUse=3 WtCom= 0.00D+00 WtEn= 1.00D+00
 Coeff-Com:  0.100D+01
 Coeff-En:   0.100D+01
 Coeff:      0.100D+01
 Gap=    -0.615 Goal=   None    Shift=    0.000
 Gap=     0.125 Goal=   None    Shift=    0.000
 GapD=   -0.615 DampG=0.250 DampE=0.250 DampFc=0.2500 IDamp=-1.
 Damping current iteration by 2.50D-01
 RMSDP=3.50D-02 MaxDP=2.11D+00              OVMax= 8.28D-01

 Cycle   2  Pass 1  IDiag  1:
 RMSU=  8.74D-03    CP:  9.96D-01
 E= -264.541344032373     Delta-E=        0.277179432754 Rises=F Damp=T
 DIIS: error= 4.36D-02 at cycle   2 NSaved=   2.
 NSaved= 2 IEnMin= 1 EnMin= -264.818523465127     IErMin= 2 ErrMin= 4.36D-02
 ErrMax= 4.36D-02  0.00D+00 EMaxC= 1.00D-01 BMatC= 3.69D-01 BMatP= 1.01D+00
 IDIUse=3 WtCom= 5.64D-01 WtEn= 4.36D-01
 Coeff-Com:  0.345D+00 0.655D+00
 Coeff-En:   0.618D+00 0.382D+00
 Coeff:      0.464D+00 0.536D+00
 Gap=     0.041 Goal=   None    Shift=    0.000
 Gap=     0.047 Goal=   None    Shift=    0.000
 RMSDP=2.05D-02 MaxDP=1.48D+00 DE= 2.77D-01 OVMax= 9.52D-01

 Cycle   3  Pass 1  IDiag  1:
 RMSU=  1.61D-02    CP:  1.05D+00  2.43D+00
 E= -264.340758734933     Delta-E=        0.200585297440 Rises=F Damp=F
 DIIS: error= 1.09D-01 at cycle   3 NSaved=   3.
 NSaved= 3 IEnMin= 1 EnMin= -264.818523465127     IErMin= 2 ErrMin= 4.36D-02
 ErrMax= 1.09D-01  0.00D+00 EMaxC= 1.00D-01 BMatC= 1.69D+00 BMatP= 3.69D-01
 IDIUse=2 WtCom= 0.00D+00 WtEn= 1.00D+00
 EnCoef did   100 forward-backward iterations
 Coeff-En:   0.599D+00 0.707D-02 0.394D+00
 Coeff:      0.599D+00 0.707D-02 0.394D+00
 Gap=     0.022 Goal=   None    Shift=    0.000
 Gap=     0.037 Goal=   None    Shift=    0.000
 RMSDP=2.59D-02 MaxDP=2.35D+00 DE= 2.01D-01 OVMax= 2.71D-01

 Cycle   4  Pass 1  IDiag  1:
 RMSU=  1.54D-02    CP:  1.29D+00  2.01D+00 -1.62D-01
 E= -264.991585341038     Delta-E=       -0.650826606105 Rises=F Damp=F
 DIIS: error= 5.37D-02 at cycle   4 NSaved=   4.
 NSaved= 4 IEnMin= 4 EnMin= -264.991585341038     IErMin= 2 ErrMin= 4.36D-02
 ErrMax= 5.37D-02  0.00D+00 EMaxC= 1.00D-01 BMatC= 1.06D+00 BMatP= 3.69D-01
 IDIUse=2 WtCom= 0.00D+00 WtEn= 1.00D+00
 EnCoef did     3 forward-backward iterations
 Coeff-En:   0.468D+00 0.000D+00 0.254D+00 0.278D+00
 Coeff:      0.468D+00 0.000D+00 0.254D+00 0.278D+00
 Gap=     0.051 Goal=   None    Shift=    0.000
 Gap=     0.021 Goal=   None    Shift=    0.000
 RMSDP=1.98D-02 MaxDP=2.30D+00 DE=-6.51D-01 OVMax= 3.68D-01

 Cycle   5  Pass 1  IDiag  1:
 RMSU=  1.07D-02    CP:  1.18D+00  1.83D+00  5.27D-01  2.43D-01
 E= -265.326831230986     Delta-E=       -0.335245889948 Rises=F Damp=F
 DIIS: error= 2.94D-02 at cycle   5 NSaved=   5.
 NSaved= 5 IEnMin= 5 EnMin= -265.326831230986     IErMin= 5 ErrMin= 2.94D-02
 ErrMax= 2.94D-02  0.00D+00 EMaxC= 1.00D-01 BMatC= 1.69D-01 BMatP= 3.69D-01
 IDIUse=3 WtCom= 7.06D-01 WtEn= 2.94D-01
 Coeff-Com:  0.237D+00 0.762D-01 0.321D-01 0.169D+00 0.486D+00
 Coeff-En:   0.680D-01 0.000D+00 0.000D+00 0.000D+00 0.932D+00
 Coeff:      0.188D+00 0.538D-01 0.227D-01 0.119D+00 0.617D+00
 Gap=     0.113 Goal=   None    Shift=    0.000
 Gap=     0.050 Goal=   None    Shift=    0.000
 RMSDP=7.98D-03 MaxDP=6.76D-01 DE=-3.35D-01 OVMax= 1.65D-01

 Cycle   6  Pass 1  IDiag  1:
 RMSU=  6.60D-03    CP:  1.10D+00  1.56D+00  4.42D-01  3.27D-01  8.10D-01
 E= -265.366125020978     Delta-E=       -0.039293789992 Rises=F Damp=F
 DIIS: error= 2.17D-02 at cycle   6 NSaved=   6.
 NSaved= 6 IEnMin= 6 EnMin= -265.366125020978     IErMin= 6 ErrMin= 2.17D-02
 ErrMax= 2.17D-02  0.00D+00 EMaxC= 1.00D-01 BMatC= 7.41D-02 BMatP= 1.69D-01
 IDIUse=3 WtCom= 7.83D-01 WtEn= 2.17D-01
 Coeff-Com:  0.941D-01 0.242D-01 0.129D-01 0.593D-01 0.373D+00 0.436D+00
 Coeff-En:   0.000D+00 0.000D+00 0.000D+00 0.000D+00 0.277D+00 0.723D+00
 Coeff:      0.737D-01 0.189D-01 0.101D-01 0.464D-01 0.352D+00 0.499D+00
 Gap=     0.132 Goal=   None    Shift=    0.000
 Gap=     0.097 Goal=   None    Shift=    0.000
 RMSDP=3.52D-03 MaxDP=1.91D-01 DE=-3.93D-02 OVMax= 1.00D-01

 Cycle   7  Pass 1  IDiag  1:
 RMSU=  2.55D-03    CP:  1.15D+00  1.73D+00  4.64D-01  3.85D-01  8.32D-01
                    CP:  1.08D+00
 E= -265.383384515122     Delta-E=       -0.017259494144 Rises=F Damp=F
 DIIS: error= 1.01D-02 at cycle   7 NSaved=   7.
 NSaved= 7 IEnMin= 7 EnMin= -265.383384515122     IErMin= 7 ErrMin= 1.01D-02
 ErrMax= 1.01D-02  0.00D+00 EMaxC= 1.00D-01 BMatC= 1.57D-02 BMatP= 7.41D-02
 IDIUse=3 WtCom= 8.99D-01 WtEn= 1.01D-01
 Coeff-Com:  0.120D-01 0.166D-01 0.150D-01 0.107D-01-0.146D-01 0.278D+00
 Coeff-Com:  0.683D+00
 Coeff-En:   0.000D+00 0.000D+00 0.000D+00 0.000D+00 0.000D+00 0.201D+00
 Coeff-En:   0.799D+00
 Coeff:      0.108D-01 0.149D-01 0.135D-01 0.958D-02-0.132D-01 0.270D+00
 Coeff:      0.694D+00
 Gap=     0.128 Goal=   None    Shift=    0.000
 Gap=     0.103 Goal=   None    Shift=    0.000
 RMSDP=1.73D-03 MaxDP=1.30D-01 DE=-1.73D-02 OVMax= 4.48D-02

 Cycle   8  Pass 1  IDiag  1:
 RMSU=  7.66D-04    CP:  1.14D+00  1.70D+00  4.45D-01  3.97D-01  7.99D-01
                    CP:  1.30D+00  1.01D+00
 E= -265.387955346942     Delta-E=       -0.004570831819 Rises=F Damp=F
 DIIS: error= 3.20D-03 at cycle   8 NSaved=   8.
 NSaved= 8 IEnMin= 8 EnMin= -265.387955346942     IErMin= 8 ErrMin= 3.20D-03
 ErrMax= 3.20D-03  0.00D+00 EMaxC= 1.00D-01 BMatC= 2.23D-03 BMatP= 1.57D-02
 IDIUse=3 WtCom= 9.68D-01 WtEn= 3.20D-02
 Coeff-Com: -0.962D-02 0.778D-02 0.126D-01 0.481D-02-0.808D-01 0.306D-01
 Coeff-Com:  0.360D+00 0.674D+00
 Coeff-En:   0.000D+00 0.000D+00 0.000D+00 0.000D+00 0.000D+00 0.000D+00
 Coeff-En:   0.000D+00 0.100D+01
 Coeff:     -0.932D-02 0.753D-02 0.122D-01 0.466D-02-0.782D-01 0.296D-01
 Coeff:      0.349D+00 0.685D+00
 Gap=     0.130 Goal=   None    Shift=    0.000
 Gap=     0.102 Goal=   None    Shift=    0.000
 RMSDP=5.62D-04 MaxDP=4.48D-02 DE=-4.57D-03 OVMax= 2.28D-02

 Cycle   9  Pass 1  IDiag  1:
 RMSU=  2.21D-04    CP:  1.14D+00  1.69D+00  4.42D-01  4.02D-01  7.92D-01
                    CP:  1.36D+00  1.11D+00  1.14D+00
 E= -265.388713761155     Delta-E=       -0.000758414213 Rises=F Damp=F
 DIIS: error= 2.03D-03 at cycle   9 NSaved=   9.
 NSaved= 9 IEnMin= 9 EnMin= -265.388713761155     IErMin= 9 ErrMin= 2.03D-03
 ErrMax= 2.03D-03  0.00D+00 EMaxC= 1.00D-01 BMatC= 4.66D-04 BMatP= 2.23D-03
 IDIUse=3 WtCom= 9.80D-01 WtEn= 2.03D-02
 Coeff-Com: -0.320D-02 0.762D-02 0.154D-02 0.535D-02 0.358D-01-0.358D-01
 Coeff-Com: -0.139D+00 0.632D-01 0.106D+01
 Coeff-En:   0.000D+00 0.000D+00 0.000D+00 0.000D+00 0.000D+00 0.000D+00
 Coeff-En:   0.000D+00 0.000D+00 0.100D+01
 Coeff:     -0.313D-02 0.747D-02 0.151D-02 0.524D-02 0.350D-01-0.350D-01
 Coeff:     -0.137D+00 0.619D-01 0.106D+01
 Gap=     0.131 Goal=   None    Shift=    0.000
 Gap=     0.102 Goal=   None    Shift=    0.000
 RMSDP=3.18D-04 MaxDP=2.56D-02 DE=-7.58D-04 OVMax= 1.52D-02

 Cycle  10  Pass 1  IDiag  1:
 RMSU=  1.85D-04    CP:  1.14D+00  1.70D+00  4.43D-01  3.97D-01  7.97D-01
                    CP:  1.33D+00  1.10D+00  1.20D+00  1.42D+00
 E= -265.389017422977     Delta-E=       -0.000303661822 Rises=F Damp=F
 DIIS: error= 7.55D-04 at cycle  10 NSaved=  10.
 NSaved=10 IEnMin=10 EnMin= -265.389017422977     IErMin=10 ErrMin= 7.55D-04
 ErrMax= 7.55D-04  0.00D+00 EMaxC= 1.00D-01 BMatC= 9.41D-05 BMatP= 4.66D-04
 IDIUse=3 WtCom= 9.92D-01 WtEn= 7.55D-03
 Coeff-Com: -0.260D-02-0.364D-03 0.159D-03 0.367D-02 0.248D-01-0.225D-01
 Coeff-Com: -0.127D+00-0.784D-01 0.476D+00 0.727D+00
 Coeff-En:   0.000D+00 0.000D+00 0.000D+00 0.000D+00 0.000D+00 0.000D+00
 Coeff-En:   0.000D+00 0.000D+00 0.000D+00 0.100D+01
 Coeff:     -0.258D-02-0.362D-03 0.158D-03 0.364D-02 0.246D-01-0.223D-01
 Coeff:     -0.127D+00-0.778D-01 0.472D+00 0.729D+00
 Gap=     0.131 Goal=   None    Shift=    0.000
 Gap=     0.102 Goal=   None    Shift=    0.000
 RMSDP=1.29D-04 MaxDP=5.75D-03 DE=-3.04D-04 OVMax= 8.37D-03

 Cycle  11  Pass 1  IDiag  1:
 RMSU=  6.86D-05    CP:  1.14D+00  1.70D+00  4.42D-01  3.97D-01  7.96D-01
                    CP:  1.34D+00  1.11D+00  1.27D+00  1.68D+00  1.24D+00
 E= -265.389093281475     Delta-E=       -0.000075858498 Rises=F Damp=F
 DIIS: error= 3.01D-04 at cycle  11 NSaved=  11.
 NSaved=11 IEnMin=11 EnMin= -265.389093281475     IErMin=11 ErrMin= 3.01D-04
 ErrMax= 3.01D-04  0.00D+00 EMaxC= 1.00D-01 BMatC= 2.17D-05 BMatP= 9.41D-05
 IDIUse=3 WtCom= 9.97D-01 WtEn= 3.01D-03
 Coeff-Com:  0.946D-03-0.129D-02-0.884D-04-0.171D-03 0.301D-02-0.143D-02
 Coeff-Com: -0.305D-01-0.614D-01-0.128D+00 0.353D+00 0.866D+00
 Coeff-En:   0.000D+00 0.000D+00 0.000D+00 0.000D+00 0.000D+00 0.000D+00
 Coeff-En:   0.000D+00 0.000D+00 0.000D+00 0.000D+00 0.100D+01
 Coeff:      0.943D-03-0.128D-02-0.881D-04-0.171D-03 0.300D-02-0.143D-02
 Coeff:     -0.304D-01-0.612D-01-0.128D+00 0.352D+00 0.867D+00
 Gap=     0.132 Goal=   None    Shift=    0.000
 Gap=     0.103 Goal=   None    Shift=    0.000
 RMSDP=8.57D-05 MaxDP=4.16D-03 DE=-7.59D-05 OVMax= 6.90D-03

 Cycle  12  Pass 1  IDiag  1:
 RMSU=  4.04D-05    CP:  1.14D+00  1.70D+00  4.42D-01  3.96D-01  7.97D-01
                    CP:  1.33D+00  1.10D+00  1.29D+00  1.87D+00  1.49D+00
                    CP:  1.25D+00
 E= -265.389114709216     Delta-E=       -0.000021427741 Rises=F Damp=F
 DIIS: error= 2.58D-04 at cycle  12 NSaved=  12.
 NSaved=12 IEnMin=12 EnMin= -265.389114709216     IErMin=12 ErrMin= 2.58D-04
 ErrMax= 2.58D-04  0.00D+00 EMaxC= 1.00D-01 BMatC= 9.91D-06 BMatP= 2.17D-05
 IDIUse=3 WtCom= 9.97D-01 WtEn= 2.58D-03
 Coeff-Com:  0.189D-02-0.148D-02-0.443D-03-0.650D-03-0.340D-02 0.336D-02
 Coeff-Com:  0.233D-01 0.252D-01-0.138D+00-0.691D-01 0.207D+00 0.953D+00
 Coeff-En:   0.000D+00 0.000D+00 0.000D+00 0.000D+00 0.000D+00 0.000D+00
 Coeff-En:   0.000D+00 0.000D+00 0.000D+00 0.000D+00 0.000D+00 0.100D+01
 Coeff:      0.188D-02-0.148D-02-0.441D-03-0.648D-03-0.339D-02 0.335D-02
 Coeff:      0.232D-01 0.252D-01-0.138D+00-0.690D-01 0.206D+00 0.953D+00
 Gap=     0.132 Goal=   None    Shift=    0.000
 Gap=     0.103 Goal=   None    Shift=    0.000
 RMSDP=5.42D-05 MaxDP=4.42D-03 DE=-2.14D-05 OVMax= 1.93D-03

 Cycle  13  Pass 1  IDiag  1:
 RMSU=  1.26D-05    CP:  1.14D+00  1.70D+00  4.42D-01  3.95D-01  7.98D-01
                    CP:  1.33D+00  1.10D+00  1.28D+00  1.91D+00  1.60D+00
                    CP:  1.53D+00  1.36D+00
 E= -265.389117661992     Delta-E=       -0.000002952776 Rises=F Damp=F
 DIIS: error= 2.56D-04 at cycle  13 NSaved=  13.
 NSaved=13 IEnMin=13 EnMin= -265.389117661992     IErMin=13 ErrMin= 2.56D-04
 ErrMax= 2.56D-04  0.00D+00 EMaxC= 1.00D-01 BMatC= 6.67D-06 BMatP= 9.91D-06
 IDIUse=3 WtCom= 9.97D-01 WtEn= 2.56D-03
 Coeff-Com:  0.756D-03-0.110D-02-0.484D-03-0.117D-03-0.101D-02-0.167D-02
 Coeff-Com:  0.738D-03 0.170D-01 0.439D-01-0.306D-02-0.190D+00-0.324D+00
 Coeff-Com:  0.146D+01
 Coeff-En:   0.000D+00 0.000D+00 0.000D+00 0.000D+00 0.000D+00 0.000D+00
 Coeff-En:   0.000D+00 0.000D+00 0.000D+00 0.000D+00 0.000D+00 0.000D+00
 Coeff-En:   0.100D+01
 Coeff:      0.754D-03-0.110D-02-0.483D-03-0.117D-03-0.101D-02-0.166D-02
 Coeff:      0.736D-03 0.170D-01 0.438D-01-0.306D-02-0.189D+00-0.323D+00
 Coeff:      0.146D+01
 Gap=     0.132 Goal=   None    Shift=    0.000
 Gap=     0.103 Goal=   None    Shift=    0.000
 RMSDP=2.22D-05 MaxDP=9.95D-04 DE=-2.95D-06 OVMax= 1.22D-03

 Cycle  14  Pass 1  IDiag  1:
 RMSU=  8.63D-06    CP:  1.14D+00  1.70D+00  4.42D-01  3.94D-01  7.99D-01
                    CP:  1.33D+00  1.10D+00  1.28D+00  1.92D+00  1.63D+00
                    CP:  1.60D+00  1.72D+00  1.41D+00
 E= -265.389120141166     Delta-E=       -0.000002479174 Rises=F Damp=F
 DIIS: error= 1.49D-04 at cycle  14 NSaved=  14.
 NSaved=14 IEnMin=14 EnMin= -265.389120141166     IErMin=14 ErrMin= 1.49D-04
 ErrMax= 1.49D-04  0.00D+00 EMaxC= 1.00D-01 BMatC= 2.03D-06 BMatP= 6.67D-06
 IDIUse=3 WtCom= 9.99D-01 WtEn= 1.49D-03
 Coeff-Com:  0.401D-03-0.281D-03-0.168D-03-0.497D-04 0.800D-03-0.250D-03
 Coeff-Com: -0.708D-02-0.834D-02 0.241D-01 0.366D-01 0.128D-01-0.241D+00
 Coeff-Com: -0.707D-01 0.125D+01
 Coeff-En:   0.000D+00 0.000D+00 0.000D+00 0.000D+00 0.000D+00 0.000D+00
 Coeff-En:   0.000D+00 0.000D+00 0.000D+00 0.000D+00 0.000D+00 0.000D+00
 Coeff-En:   0.000D+00 0.100D+01
 Coeff:      0.400D-03-0.281D-03-0.167D-03-0.496D-04 0.799D-03-0.249D-03
 Coeff:     -0.707D-02-0.833D-02 0.241D-01 0.365D-01 0.128D-01-0.241D+00
 Coeff:     -0.706D-01 0.125D+01
 Gap=     0.132 Goal=   None    Shift=    0.000
 Gap=     0.103 Goal=   None    Shift=    0.000
 RMSDP=1.42D-05 MaxDP=9.58D-04 DE=-2.48D-06 OVMax= 7.69D-04

 Cycle  15  Pass 1  IDiag  1:
 RMSU=  3.90D-06    CP:  1.14D+00  1.70D+00  4.42D-01  3.94D-01  7.99D-01
                    CP:  1.33D+00  1.10D+00  1.27D+00  1.93D+00  1.64D+00
                    CP:  1.61D+00  1.81D+00  1.67D+00  1.26D+00
 E= -265.389121193189     Delta-E=       -0.000001052023 Rises=F Damp=F
 DIIS: error= 4.37D-05 at cycle  15 NSaved=  15.
 NSaved=15 IEnMin=15 EnMin= -265.389121193189     IErMin=15 ErrMin= 4.37D-05
 ErrMax= 4.37D-05  0.00D+00 EMaxC= 1.00D-01 BMatC= 1.71D-07 BMatP= 2.03D-06
 IDIUse=1 WtCom= 1.00D+00 WtEn= 0.00D+00
 Coeff-Com:  0.352D-04-0.274D-04-0.458D-04 0.738D-04-0.189D-03 0.450D-03
 Coeff-Com:  0.225D-02-0.242D-02-0.220D-01-0.818D-02 0.501D-01 0.182D+00
 Coeff-Com: -0.276D+00-0.388D+00 0.146D+01
 Coeff:      0.352D-04-0.274D-04-0.458D-04 0.738D-04-0.189D-03 0.450D-03
 Coeff:      0.225D-02-0.242D-02-0.220D-01-0.818D-02 0.501D-01 0.182D+00
 Coeff:     -0.276D+00-0.388D+00 0.146D+01
 Gap=     0.132 Goal=   None    Shift=    0.000
 Gap=     0.103 Goal=   None    Shift=    0.000
 RMSDP=5.37D-06 MaxDP=2.38D-04 DE=-1.05D-06 OVMax= 5.11D-04

 Cycle  16  Pass 1  IDiag  1:
 RMSU=  2.25D-06    CP:  1.14D+00  1.70D+00  4.42D-01  3.94D-01  7.99D-01
                    CP:  1.33D+00  1.10D+00  1.28D+00  1.94D+00  1.64D+00
                    CP:  1.60D+00  1.83D+00  1.59D+00  1.45D+00  1.53D+00
 E= -265.389121359150     Delta-E=       -0.000000165961 Rises=F Damp=F
 DIIS: error= 5.97D-06 at cycle  16 NSaved=  16.
 NSaved=16 IEnMin=16 EnMin= -265.389121359150     IErMin=16 ErrMin= 5.97D-06
 ErrMax= 5.97D-06  0.00D+00 EMaxC= 1.00D-01 BMatC= 1.32D-08 BMatP= 1.71D-07
 IDIUse=1 WtCom= 1.00D+00 WtEn= 0.00D+00
 Coeff-Com: -0.845D-05-0.405D-05 0.214D-04 0.215D-04-0.546D-04 0.570D-04
 Coeff-Com:  0.358D-03 0.102D-02 0.223D-02-0.841D-02-0.135D-01 0.149D-01
 Coeff-Com:  0.892D-01-0.138D+00-0.217D+00 0.127D+01
 Coeff:     -0.845D-05-0.405D-05 0.214D-04 0.215D-04-0.546D-04 0.570D-04
 Coeff:      0.358D-03 0.102D-02 0.223D-02-0.841D-02-0.135D-01 0.149D-01
 Coeff:      0.892D-01-0.138D+00-0.217D+00 0.127D+01
 Gap=     0.132 Goal=   None    Shift=    0.000
 Gap=     0.103 Goal=   None    Shift=    0.000
 RMSDP=2.48D-06 MaxDP=1.55D-04 DE=-1.66D-07 OVMax= 1.41D-04

 Cycle  17  Pass 1  IDiag  1:
 RMSU=  9.79D-07    CP:  1.14D+00  1.70D+00  4.42D-01  3.94D-01  7.99D-01
                    CP:  1.33D+00  1.10D+00  1.28D+00  1.94D+00  1.65D+00
                    CP:  1.60D+00  1.85D+00  1.57D+00  1.42D+00  1.68D+00
                    CP:  1.39D+00
 E= -265.389121372234     Delta-E=       -0.000000013084 Rises=F Damp=F
 DIIS: error= 3.06D-06 at cycle  17 NSaved=  17.
 NSaved=17 IEnMin=17 EnMin= -265.389121372234     IErMin=17 ErrMin= 3.06D-06
 ErrMax= 3.06D-06  0.00D+00 EMaxC= 1.00D-01 BMatC= 1.75D-09 BMatP= 1.32D-08
 IDIUse=1 WtCom= 1.00D+00 WtEn= 0.00D+00
 Coeff-Com: -0.298D-05 0.240D-05 0.572D-05 0.761D-05 0.576D-04-0.195D-04
 Coeff-Com: -0.319D-03-0.345D-03 0.195D-02 0.225D-02-0.270D-02-0.231D-01
 Coeff-Com:  0.119D-01 0.776D-01-0.111D+00-0.226D+00 0.127D+01
 Coeff:     -0.298D-05 0.240D-05 0.572D-05 0.761D-05 0.576D-04-0.195D-04
 Coeff:     -0.319D-03-0.345D-03 0.195D-02 0.225D-02-0.270D-02-0.231D-01
 Coeff:      0.119D-01 0.776D-01-0.111D+00-0.226D+00 0.127D+01
 Gap=     0.132 Goal=   None    Shift=    0.000
 Gap=     0.103 Goal=   None    Shift=    0.000
 RMSDP=8.77D-07 MaxDP=4.14D-05 DE=-1.31D-08 OVMax= 5.06D-05

 Cycle  18  Pass 1  IDiag  1:
 RMSU=  2.89D-07    CP:  1.14D+00  1.70D+00  4.42D-01  3.94D-01  7.99D-01
                    CP:  1.33D+00  1.10D+00  1.28D+00  1.94D+00  1.65D+00
                    CP:  1.60D+00  1.86D+00  1.57D+00  1.41D+00  1.68D+00
                    CP:  1.47D+00  1.44D+00
 E= -265.389121373676     Delta-E=       -0.000000001441 Rises=F Damp=F
 DIIS: error= 1.21D-06 at cycle  18 NSaved=  18.
 NSaved=18 IEnMin=18 EnMin= -265.389121373676     IErMin=18 ErrMin= 1.21D-06
 ErrMax= 1.21D-06  0.00D+00 EMaxC= 1.00D-01 BMatC= 2.38D-10 BMatP= 1.75D-09
 IDIUse=1 WtCom= 1.00D+00 WtEn= 0.00D+00
 Coeff-Com: -0.139D-06 0.203D-05-0.366D-07-0.677D-07-0.879D-05 0.174D-05
 Coeff-Com: -0.241D-04-0.153D-03-0.136D-03 0.687D-03 0.897D-03-0.183D-02
 Coeff-Com: -0.795D-02 0.197D-01 0.186D-01-0.138D+00-0.145D-01 0.112D+01
 Coeff:     -0.139D-06 0.203D-05-0.366D-07-0.677D-07-0.879D-05 0.174D-05
 Coeff:     -0.241D-04-0.153D-03-0.136D-03 0.687D-03 0.897D-03-0.183D-02
 Coeff:     -0.795D-02 0.197D-01 0.186D-01-0.138D+00-0.145D-01 0.112D+01
 Gap=     0.132 Goal=   None    Shift=    0.000
 Gap=     0.103 Goal=   None    Shift=    0.000
 RMSDP=2.78D-07 MaxDP=1.26D-05 DE=-1.44D-09 OVMax= 1.43D-05

 Cycle  19  Pass 1  IDiag  1:
 RMSU=  7.52D-08    CP:  1.14D+00  1.70D+00  4.42D-01  3.94D-01  7.99D-01
                    CP:  1.33D+00  1.10D+00  1.28D+00  1.94D+00  1.65D+00
                    CP:  1.60D+00  1.86D+00  1.57D+00  1.41D+00  1.68D+00
                    CP:  1.48D+00  1.55D+00  1.30D+00
 E= -265.389121373827     Delta-E=       -0.000000000151 Rises=F Damp=F
 DIIS: error= 3.22D-07 at cycle  19 NSaved=  19.
 NSaved=19 IEnMin=19 EnMin= -265.389121373827     IErMin=19 ErrMin= 3.22D-07
 ErrMax= 3.22D-07  0.00D+00 EMaxC= 1.00D-01 BMatC= 1.40D-11 BMatP= 2.38D-10
 IDIUse=1 WtCom= 1.00D+00 WtEn= 0.00D+00
 Coeff-Com: -0.599D-07 0.643D-06-0.614D-06-0.587D-07-0.721D-05 0.328D-05
 Coeff-Com:  0.339D-04 0.278D-04-0.129D-03-0.268D-03 0.174D-03 0.209D-02
 Coeff-Com: -0.714D-03-0.531D-02 0.611D-02 0.255D-01-0.105D+00-0.742D-01
 Coeff-Com:  0.115D+01
 Coeff:     -0.599D-07 0.643D-06-0.614D-06-0.587D-07-0.721D-05 0.328D-05
 Coeff:      0.339D-04 0.278D-04-0.129D-03-0.268D-03 0.174D-03 0.209D-02
 Coeff:     -0.714D-03-0.531D-02 0.611D-02 0.255D-01-0.105D+00-0.742D-01
 Coeff:      0.115D+01
 Gap=     0.132 Goal=   None    Shift=    0.000
 Gap=     0.103 Goal=   None    Shift=    0.000
 RMSDP=7.45D-08 MaxDP=4.33D-06 DE=-1.51D-10 OVMax= 3.10D-06

 Cycle  20  Pass 1  IDiag  1:
 RMSU=  1.81D-08    CP:  1.14D+00  1.70D+00  4.42D-01  3.94D-01  7.99D-01
                    CP:  1.33D+00  1.10D+00  1.28D+00  1.94D+00  1.65D+00
                    CP:  1.60D+00  1.86D+00  1.56D+00  1.41D+00  1.68D+00
                    CP:  1.48D+00  1.56D+00  1.40D+00  1.26D+00
 E= -265.389121373840     Delta-E=       -0.000000000013 Rises=F Damp=F
 DIIS: error= 4.81D-08 at cycle  20 NSaved=  20.
 NSaved=20 IEnMin=20 EnMin= -265.389121373840     IErMin=20 ErrMin= 4.81D-08
 ErrMax= 4.81D-08  0.00D+00 EMaxC= 1.00D-01 BMatC= 5.63D-13 BMatP= 1.40D-11
 IDIUse=1 WtCom= 1.00D+00 WtEn= 0.00D+00
 Coeff-Com:  0.374D-07 0.714D-07-0.804D-07-0.141D-07 0.416D-06 0.482D-06
 Coeff-Com:  0.106D-05 0.221D-05 0.269D-04-0.313D-04-0.228D-04-0.132D-03
 Coeff-Com:  0.223D-03 0.125D-03-0.203D-02 0.419D-02 0.140D-01-0.506D-01
 Coeff-Com: -0.155D+00 0.119D+01
 Coeff:      0.374D-07 0.714D-07-0.804D-07-0.141D-07 0.416D-06 0.482D-06
 Coeff:      0.106D-05 0.221D-05 0.269D-04-0.313D-04-0.228D-04-0.132D-03
 Coeff:      0.223D-03 0.125D-03-0.203D-02 0.419D-02 0.140D-01-0.506D-01
 Coeff:     -0.155D+00 0.119D+01
 Gap=     0.132 Goal=   None    Shift=    0.000
 Gap=     0.103 Goal=   None    Shift=    0.000
 RMSDP=1.81D-08 MaxDP=9.18D-07 DE=-1.34D-11 OVMax= 8.59D-07

 Cycle  21  Pass 1  IDiag  1:
 Restarting incremental Fock formation.
 E= -265.389121373759     Delta-E=        0.000000000081 Rises=F Damp=F
 DIIS: error= 1.27D-08 at cycle  21 NSaved=  20.
 NSaved=20 IEnMin=19 EnMin= -265.389121373840     IErMin=20 ErrMin= 1.27D-08
 ErrMax= 1.27D-08  0.00D+00 EMaxC= 1.00D-01 BMatC= 1.00D-13 BMatP= 5.63D-13
 IDIUse=1 WtCom= 1.00D+00 WtEn= 0.00D+00
 Coeff-Com: -0.144D-07 0.244D-07-0.252D-08 0.233D-07 0.756D-07 0.387D-07
 Coeff-Com: -0.214D-05 0.116D-04 0.589D-05-0.185D-04-0.106D-03 0.662D-04
 Coeff-Com:  0.285D-03-0.877D-03 0.892D-04 0.755D-02-0.714D-02-0.897D-01
 Coeff-Com:  0.280D+00 0.810D+00
 Coeff:     -0.144D-07 0.244D-07-0.252D-08 0.233D-07 0.756D-07 0.387D-07
 Coeff:     -0.214D-05 0.116D-04 0.589D-05-0.185D-04-0.106D-03 0.662D-04
 Coeff:      0.285D-03-0.877D-03 0.892D-04 0.755D-02-0.714D-02-0.897D-01
 Coeff:      0.280D+00 0.810D+00
 Gap=     0.132 Goal=   None    Shift=    0.000
 Gap=     0.103 Goal=   None    Shift=    0.000
 RMSDP=2.45D-07 MaxDP=1.62D-05 DE= 8.14D-11 OVMax= 2.54D-07

 Cycle  22  Pass 1  IDiag  1:
 RMSU=  1.86D-07    CP:  1.00D+00
 E= -265.389121373760     Delta-E=       -0.000000000001 Rises=F Damp=F
 DIIS: error= 1.05D-08 at cycle  22 NSaved=  20.
 NSaved=20 IEnMin=18 EnMin= -265.389121373840     IErMin=20 ErrMin= 1.05D-08
 ErrMax= 1.05D-08  0.00D+00 EMaxC= 1.00D-01 BMatC= 1.96D-14 BMatP= 1.00D-13
 IDIUse=1 WtCom= 1.00D+00 WtEn= 0.00D+00
 Coeff-Com: -0.142D-07-0.229D-09-0.482D-07 0.920D-08 0.381D-07-0.147D-05
 Coeff-Com: -0.133D-05 0.606D-05-0.446D-05 0.814D-05-0.137D-04 0.529D-04
 Coeff-Com:  0.120D-03-0.416D-03-0.129D-02 0.514D-02 0.840D-02-0.101D+00
 Coeff-Com: -0.333D+00 0.142D+01
 Coeff:     -0.142D-07-0.229D-09-0.482D-07 0.920D-08 0.381D-07-0.147D-05
 Coeff:     -0.133D-05 0.606D-05-0.446D-05 0.814D-05-0.137D-04 0.529D-04
 Coeff:      0.120D-03-0.416D-03-0.129D-02 0.514D-02 0.840D-02-0.101D+00
 Coeff:     -0.333D+00 0.142D+01
 Gap=     0.132 Goal=   None    Shift=    0.000
 Gap=     0.103 Goal=   None    Shift=    0.000
 RMSDP=9.22D-08 MaxDP=5.76D-06 DE=-1.25D-12 OVMax= 1.84D-07

 Cycle  23  Pass 1  IDiag  1:
 RMSU=  3.58D-09    CP:  1.00D+00  1.38D+00
 E= -265.389121373758     Delta-E=        0.000000000002 Rises=F Damp=F
 DIIS: error= 3.31D-09 at cycle  23 NSaved=  20.
 NSaved=20 IEnMin=17 EnMin= -265.389121373840     IErMin=20 ErrMin= 3.31D-09
 ErrMax= 3.31D-09  0.00D+00 EMaxC= 1.00D-01 BMatC= 1.84D-15 BMatP= 1.96D-14
 IDIUse=1 WtCom= 1.00D+00 WtEn= 0.00D+00
 Large coefficients: NSaved= 20 BigCof=    0.00 CofMax=   10.00 Det=-2.26D-16
 Inversion failed.  Reducing to 19 matrices.
 Large coefficients: NSaved= 19 BigCof=    0.00 CofMax=   10.00 Det=-2.32D-16
 Inversion failed.  Reducing to 18 matrices.
 Large coefficients: NSaved= 18 BigCof=    0.00 CofMax=   10.00 Det=-2.33D-16
 Inversion failed.  Reducing to 17 matrices.
 Large coefficients: NSaved= 17 BigCof=    0.00 CofMax=   10.00 Det=-2.33D-16
 Inversion failed.  Reducing to 16 matrices.
 Large coefficients: NSaved= 16 BigCof=    0.00 CofMax=   10.00 Det=-2.36D-16
 Inversion failed.  Reducing to 15 matrices.
 Coeff-Com:  0.131D-05 0.498D-06-0.184D-06-0.162D-04 0.710D-05 0.354D-04
 Coeff-Com: -0.123D-03-0.384D-05 0.943D-03-0.440D-03-0.967D-02 0.206D-01
 Coeff-Com:  0.376D+00-0.112D+01 0.173D+01
 Coeff:      0.131D-05 0.498D-06-0.184D-06-0.162D-04 0.710D-05 0.354D-04
 Coeff:     -0.123D-03-0.384D-05 0.943D-03-0.440D-03-0.967D-02 0.206D-01
 Coeff:      0.376D+00-0.112D+01 0.173D+01
 Gap=     0.132 Goal=   None    Shift=    0.000
 Gap=     0.103 Goal=   None    Shift=    0.000
 RMSDP=3.00D-08 MaxDP=1.89D-06 DE= 1.82D-12 OVMax= 6.86D-08

 Cycle  24  Pass 1  IDiag  1:
 RMSU=  1.26D-09    CP:  1.00D+00  1.26D+00  9.37D-01
 E= -265.389121373759     Delta-E=       -0.000000000000 Rises=F Damp=F
 DIIS: error= 4.33D-10 at cycle  24 NSaved=  16.
 NSaved=16 IEnMin=12 EnMin= -265.389121373840     IErMin=16 ErrMin= 4.33D-10
 ErrMax= 4.33D-10  0.00D+00 EMaxC= 1.00D-01 BMatC= 9.77D-17 BMatP= 1.84D-15
 IDIUse=1 WtCom= 1.00D+00 WtEn= 0.00D+00
 Large coefficients: NSaved= 16 BigCof=    0.00 CofMax=   10.00 Det=-7.54D-17
 Inversion failed.  Reducing to 15 matrices.
 Coeff-Com: -0.420D-06 0.134D-05 0.171D-05-0.637D-05-0.393D-05 0.101D-04
 Coeff-Com:  0.194D-04-0.181D-04-0.755D-04 0.514D-03 0.657D-02 0.101D+00
 Coeff-Com: -0.352D+00 0.445D+00 0.799D+00
 Coeff:     -0.420D-06 0.134D-05 0.171D-05-0.637D-05-0.393D-05 0.101D-04
 Coeff:      0.194D-04-0.181D-04-0.755D-04 0.514D-03 0.657D-02 0.101D+00
 Coeff:     -0.352D+00 0.445D+00 0.799D+00
 Gap=     0.132 Goal=   None    Shift=    0.000
 Gap=     0.103 Goal=   None    Shift=    0.000
 RMSDP=1.39D-09 MaxDP=8.83D-08 DE=-4.55D-13 OVMax= 6.03D-09

 SCF Done:  E(UB3LYP) =  -265.389121374     A.U. after   24 cycles
            NFock= 24  Conv=0.14D-08     -V/T= 2.0042
 <Sx>= 0.0000 <Sy>= 0.0000 <Sz>= 1.0000 <S**2>= 2.0734 S= 1.0243
 <L.S>= 0.000000000000E+00
 KE= 2.642875524860D+02 PE=-9.661340381652D+02 EE= 2.519022212794D+02
 Annihilation of the first spin contaminant:
 S**2 before annihilation     2.0734,   after     2.0020
 Leave Link  502 at Sun Oct 23 12:29:24 2016, MaxMem=    33554432 cpu:       938.4
 (Enter /home/proyectos/fulerenos/M3C-v2.0/M3C-deps_CCC/g09-AM64L-G09RevC.01/l801.exe)
 DoSCS=F DFT=T ScalE2(SS,OS)=  1.000000  1.000000
 Range of M.O.s used for correlation:     1   272
 NBasis=   273 NAE=    21 NBE=    19 NFC=     0 NFV=     0
 NROrb=    272 NOA=    21 NOB=    19 NVA=   251 NVB=   253

 **** Warning!!: The largest alpha MO coefficient is  0.31821456D+03


 **** Warning!!: The largest beta MO coefficient is  0.30384166D+03

 Leave Link  801 at Sun Oct 23 12:29:24 2016, MaxMem=    33554432 cpu:         0.1
 (Enter /home/proyectos/fulerenos/M3C-v2.0/M3C-deps_CCC/g09-AM64L-G09RevC.01/l1101.exe)
 Using compressed storage, NAtomX=     7.
 Will process      8 centers per pass.
 Leave Link 1101 at Sun Oct 23 12:29:24 2016, MaxMem=    33554432 cpu:         1.3
 (Enter /home/proyectos/fulerenos/M3C-v2.0/M3C-deps_CCC/g09-AM64L-G09RevC.01/l1102.exe)
 Symmetrizing basis deriv contribution to polar:
 IMax=3 JMax=2 DiffMx= 0.00D+00
 Leave Link 1102 at Sun Oct 23 12:29:24 2016, MaxMem=    33554432 cpu:         0.1
 (Enter /home/proyectos/fulerenos/M3C-v2.0/M3C-deps_CCC/g09-AM64L-G09RevC.01/l1110.exe)
 Forming Gx(P) for the SCF density, NAtomX=     7.
 Integral derivatives from FoFJK, PRISM(SPDF).
 Do as many integral derivatives as possible in FoFJK.
 G2DrvN: MDV=      33554272.
 G2DrvN: will do     8 centers at a time, making    1 passes.
 Calling FoFCou, ICntrl=  3107 FMM=F I1Cent=   0 AccDes= 0.00D+00.
 FoFJK:  IHMeth= 1 ICntrl=    3107 DoSepK=F KAlg= 0 I1Cent=   0 FoldK=F
 IRaf=         0 NMat=   1 IRICut=       1 DoRegI=T DoRafI=F ISym2E= 1.
 FoFCou: FMM=F IPFlag=           0 FMFlag=      100000 FMFlg1=           0
         NFxFlg=           0 DoJE=F BraDBF=F KetDBF=F FulRan=T
         wScrn=  0.000000 ICntrl=    3107 IOpCl=  1 I1Cent=           0 NGrid=           0
         NMat0=    1 NMatS0=      1 NMatT0=    0 NMatD0=    1 NMtDS0=    0 NMtDT0=    0
 Petite list used in FoFCou.
 End of G2Drv F.D. properties file   721 does not exist.
 End of G2Drv F.D. properties file   722 does not exist.
 End of G2Drv F.D. properties file   788 does not exist.
 Leave Link 1110 at Sun Oct 23 12:30:27 2016, MaxMem=    33554432 cpu:       249.3
 (Enter /home/proyectos/fulerenos/M3C-v2.0/M3C-deps_CCC/g09-AM64L-G09RevC.01/l1002.exe)
 Minotr:  UHF open shell wavefunction.
          IDoAtm=1111111
          Direct CPHF calculation.
          Differentiating once with respect to electric field.
                with respect to dipole field.
          Differentiating once with respect to nuclear coordinates.
          Using symmetry in CPHF.
          Requested convergence is 1.0D-08 RMS, and 1.0D-07 maximum.
          Secondary convergence is 1.0D-12 RMS, and 1.0D-12 maximum.
          NewPWx=T KeepS1=F KeepF1=F KeepIn=T MapXYZ=F SortEE=F KeepMc=T.
          MDV=      33553814 using IRadAn=       2.
 Generate precomputed XC quadrature information.
          Solving linear equations simultaneously, MaxMat=       0.
 FoFJK:  IHMeth= 1 ICntrl=       0 DoSepK=F KAlg= 0 I1Cent=   0 FoldK=F
 IRaf= 950000000 NMat=  21 IRICut=      52 DoRegI=T DoRafI=T ISym2E= 2.
 FoFCou: FMM=F IPFlag=           0 FMFlag=      100000 FMFlg1=           0
         NFxFlg=           0 DoJE=F BraDBF=F KetDBF=F FulRan=T
         wScrn=  0.000000 ICntrl=       0 IOpCl=  1 I1Cent=           0 NGrid=           0
         NMat0=   21 NMatS0=     21 NMatT0=    0 NMatD0=   21 NMtDS0=    0 NMtDT0=    0
 Integrals replicated using symmetry in FoFCou.
          There are    21 degrees of freedom in the 1st order CPHF.  IDoFFX=4 NUNeed=    21.
     21 vectors produced by pass  0 Test12= 4.80D-14 4.76D-09 XBig12= 1.15D+03 2.29D+01.
 AX will form    21 AO Fock derivatives at one time.
     21 vectors produced by pass  1 Test12= 4.80D-14 4.76D-09 XBig12= 1.93D+02 4.48D+00.
     21 vectors produced by pass  2 Test12= 4.80D-14 4.76D-09 XBig12= 1.36D+01 1.56D+00.
     21 vectors produced by pass  3 Test12= 4.80D-14 4.76D-09 XBig12= 3.74D-01 1.43D-01.
     21 vectors produced by pass  4 Test12= 4.80D-14 4.76D-09 XBig12= 5.95D-03 2.24D-02.
     21 vectors produced by pass  5 Test12= 4.80D-14 4.76D-09 XBig12= 1.19D-04 2.33D-03.
     21 vectors produced by pass  6 Test12= 4.80D-14 4.76D-09 XBig12= 9.70D-07 2.18D-04.
     21 vectors produced by pass  7 Test12= 4.80D-14 4.76D-09 XBig12= 4.71D-09 1.50D-05.
     11 vectors produced by pass  8 Test12= 4.80D-14 4.76D-09 XBig12= 3.80D-11 1.53D-06.
      8 vectors produced by pass  9 Test12= 4.80D-14 4.76D-09 XBig12= 3.51D-12 4.70D-07.
      5 vectors produced by pass 10 Test12= 4.80D-14 4.76D-09 XBig12= 5.81D-13 1.30D-07.
      3 vectors produced by pass 11 Test12= 4.80D-14 4.76D-09 XBig12= 3.28D-14 2.85D-08.
      3 vectors produced by pass 12 Test12= 4.80D-14 4.76D-09 XBig12= 1.78D-15 8.34D-09.
      1 vectors produced by pass 13 Test12= 4.80D-14 4.76D-09 XBig12= 4.90D-16 4.80D-09.
 InvSVY:  IOpt=1 It=  1 EMax= 2.29D-15
 Solved reduced A of dimension   199 with    21 vectors.
 FullF1:  Do perturbations    1 to    21.
 Isotropic polarizability for W=    0.000000       79.52 Bohr**3.
 End of Minotr F.D. properties file   721 does not exist.
 End of Minotr F.D. properties file   722 does not exist.
 End of Minotr F.D. properties file   788 does not exist.
 Leave Link 1002 at Sun Oct 23 12:37:43 2016, MaxMem=    33554432 cpu:      1746.2
 (Enter /home/proyectos/fulerenos/M3C-v2.0/M3C-deps_CCC/g09-AM64L-G09RevC.01/l601.exe)
 Copying SCF densities to generalized density rwf, IOpCl= 1 IROHF=0.

 **********************************************************************

            Population analysis using the SCF density.

 **********************************************************************

 Orbital symmetries:
 Alpha Orbitals:
       Occupied  (A1) (A1) (B2) (A1) (A1) (A1) (A1) (A1) (A1) (A1)
                 (A1) (A1) (B2) (B2) (B1) (A1) (B1) (A1) (B2) (A1)
                 (B1)
       Virtual   (B2) (B1) (A2) (B2) (B1) (B2) (B1) (A1) (A1) (A1)
                 (B1) (B2) (A1) (B2) (B1) (A1) (A1) (A2) (B2) (A1)
                 (B1) (A1) (B2) (A1) (A2) (B2) (A1) (B1) (B2) (B1)
                 (A1) (B2) (A1) (B2) (B1) (A2) (B2) (A1) (A1) (A1)
                 (A1) (B2) (A1) (B1) (A2) (A1) (A1) (B2) (A1) (A1)
                 (B2) (A2) (B2) (A1) (B1) (B1) (A1) (B1) (A1) (B2)
                 (A1) (B1) (A2) (B2) (B1) (B1) (B2) (A1) (B1) (B2)
                 (A1) (A2) (B2) (A1) (A1) (B1) (A1) (A2) (B2) (A1)
                 (B1) (B2) (A1) (B1) (A2) (A1) (B2) (A1) (B2) (B1)
                 (A1) (B2) (B1) (A1) (A1) (B2) (A1) (B2) (A2) (A1)
                 (A1) (A1) (B1) (B2) (A1) (A2) (A1) (A1) (B2) (A2)
                 (A1) (B1) (A1) (A2) (B1) (B2) (B1) (A1) (B2) (A2)
                 (A1) (A1) (A2) (B1) (B2) (A1) (B2) (A1) (A2) (A1)
                 (B2) (B1) (A1) (B2) (B1) (A1) (B1) (B1) (A2) (A1)
                 (B2) (B1) (B1) (B2) (A1) (A2) (A1) (B2) (B1) (B2)
                 (B1) (A2) (B2) (A1) (B1) (A1) (B2) (B1) (B1) (B2)
                 (B1) (B2) (B1) (B1) (A1) (A2) (B2) (A1) (B2) (B2)
                 (B1) (A1) (A1) (A2) (B2) (A1) (B2) (A1) (B1) (A1)
                 (B2) (B2) (A1) (A2) (A2) (A1) (A1) (B1) (A1) (A1)
                 (B2) (A1) (B2) (B1) (A1) (A2) (B2) (A2) (B1) (A1)
                 (B2) (B1) (B2) (A1) (A1) (B2) (B1) (A1) (B2) (A2)
                 (A2) (A1) (A1) (A2) (B1) (A1) (A1) (A2) (A1) (B2)
                 (B1) (A2) (A1) (B1) (B1) (B2) (B2) (A1) (A2) (B1)
                 (A1) (A2) (B2) (B1) (A1) (B1) (B2) (A1) (A1) (B2)
                 (A1) (A1) (B2) (B2) (A1) (A1) (A1) (B2) (A1) (A1)
                 (A1)
 Beta  Orbitals:
       Occupied  (A1) (A1) (B2) (A1) (A1) (A1) (A1) (A1) (A1) (A1)
                 (A1) (B2) (A1) (B2) (B1) (A1) (B1) (A1) (B2)
       Virtual   (B1) (A1) (B2) (A2) (B1) (B2) (B2) (B1) (A1) (A1)
                 (B1) (A1) (B1) (B2) (A1) (B2) (B1) (A1) (A1) (A2)
                 (B2) (A1) (B2) (B1) (A1) (A1) (A2) (B2) (B2) (A1)
                 (B1) (B1) (A1) (B2) (A1) (B2) (B1) (B2) (A1) (A2)
                 (A1) (A1) (A1) (B2) (A1) (B1) (A2) (A1) (A1) (B2)
                 (A1) (B2) (A2) (B2) (A1) (A1) (B1) (A1) (B1) (B1)
                 (A1) (B2) (A1) (B1) (A2) (B2) (B1) (B2) (B1) (A1)
                 (B1) (B2) (A2) (A1) (B2) (A1) (A1) (B1) (A1) (A2)
                 (B2) (A1) (B1) (B2) (A1) (B1) (A2) (A1) (B2) (A1)
                 (B2) (B1) (A1) (B2) (A1) (B1) (A1) (B2) (A1) (B2)
                 (A2) (A1) (A1) (A1) (B1) (B2) (A1) (A2) (A1) (A1)
                 (B2) (A2) (A1) (B1) (A1) (A2) (B1) (B2) (A1) (B1)
                 (B2) (A2) (A1) (A1) (A2) (B2) (B1) (A1) (B2) (A1)
                 (A2) (B1) (B2) (A1) (A1) (B2) (B1) (A1) (B1) (B1)
                 (A2) (A1) (B2) (B1) (B1) (B2) (A1) (B2) (A2) (A1)
                 (B2) (B1) (B1) (A2) (B2) (B1) (A1) (A1) (B2) (B1)
                 (B1) (B2) (B2) (B1) (B1) (A1) (B1) (A2) (B2) (A1)
                 (B2) (B2) (B1) (A1) (A2) (A1) (B2) (A1) (B2) (A1)
                 (B1) (A1) (B2) (B2) (A1) (A2) (A2) (A1) (A1) (B1)
                 (A1) (B2) (A1) (A1) (B2) (B1) (A1) (A2) (B2) (A2)
                 (B1) (B2) (A1) (B1) (B2) (A1) (A1) (B2) (B1) (A1)
                 (B2) (A2) (A1) (A2) (A1) (B1) (A2) (A1) (A1) (A2)
                 (B2) (A1) (A2) (B1) (A1) (B1) (B2) (A1) (B1) (B2)
                 (A2) (B1) (A1) (A2) (B2) (B1) (A1) (B1) (B2) (A1)
                 (A1) (B2) (A1) (A1) (B2) (B2) (A1) (A1) (A1) (B2)
                 (A1) (A1) (A1)
 The electronic state is 3-B1.
 Alpha  occ. eigenvalues --  -10.78575 -10.77580 -10.77565 -10.76041 -10.75453
 Alpha  occ. eigenvalues --  -10.73164 -10.67961  -1.49178  -1.28701  -1.24692
 Alpha  occ. eigenvalues --   -1.16748  -1.06102  -1.05399  -0.93426  -0.92515
 Alpha  occ. eigenvalues --   -0.85164  -0.81115  -0.78715  -0.76661  -0.76118
 Alpha  occ. eigenvalues --   -0.73681
 Alpha virt. eigenvalues --   -0.60482  -0.57726  -0.55793  -0.50538  -0.42977
 Alpha virt. eigenvalues --   -0.42295  -0.30892  -0.30786  -0.29349  -0.25230
 Alpha virt. eigenvalues --   -0.25089  -0.23313  -0.22803  -0.20345  -0.19953
 Alpha virt. eigenvalues --   -0.19711  -0.19007  -0.18455  -0.17548  -0.16815
 Alpha virt. eigenvalues --   -0.15068  -0.14707  -0.14626  -0.12569  -0.11035
 Alpha virt. eigenvalues --   -0.10607  -0.10470  -0.10366  -0.10313  -0.10113
 Alpha virt. eigenvalues --   -0.08565  -0.08046  -0.06068  -0.05347  -0.04796
 Alpha virt. eigenvalues --   -0.03023  -0.02917  -0.02871  -0.01762  -0.00807
 Alpha virt. eigenvalues --    0.00391   0.01505   0.02508   0.03189   0.05637
 Alpha virt. eigenvalues --    0.06990   0.09262   0.10350   0.10404   0.12045
 Alpha virt. eigenvalues --    0.12477   0.13487   0.13524   0.13540   0.13634
 Alpha virt. eigenvalues --    0.14490   0.14554   0.16601   0.17562   0.17928
 Alpha virt. eigenvalues --    0.18912   0.19529   0.20426   0.20766   0.21581
 Alpha virt. eigenvalues --    0.22577   0.22676   0.25285   0.25875   0.29539
 Alpha virt. eigenvalues --    0.31264   0.31306   0.32822   0.33155   0.34329
 Alpha virt. eigenvalues --    0.34400   0.40104   0.41059   0.42752   0.45131
 Alpha virt. eigenvalues --    0.46196   0.47209   0.47306   0.49802   0.51607
 Alpha virt. eigenvalues --    0.51707   0.57964   0.60902   0.62174   0.63983
 Alpha virt. eigenvalues --    0.69278   0.70431   0.72938   0.74494   0.79893
 Alpha virt. eigenvalues --    0.80966   0.81012   0.88176   0.88592   0.88927
 Alpha virt. eigenvalues --    0.89617   0.92400   0.94797   0.96551   0.99907
 Alpha virt. eigenvalues --    1.01341   1.04306   1.08142   1.10835   1.11292
 Alpha virt. eigenvalues --    1.13655   1.14530   1.18031   1.21360   1.22403
 Alpha virt. eigenvalues --    1.26849   1.27416   1.28012   1.29893   1.31503
 Alpha virt. eigenvalues --    1.31943   1.38512   1.43709   1.46798   1.47940
 Alpha virt. eigenvalues --    1.52767   1.60656   1.60791   1.65373   1.66485
 Alpha virt. eigenvalues --    1.67860   1.67886   1.81612   1.92858   1.93722
 Alpha virt. eigenvalues --    1.96653   2.03617   2.11903   2.12763   2.14118
 Alpha virt. eigenvalues --    2.17182   2.17435   2.19305   2.19622   2.28920
 Alpha virt. eigenvalues --    2.29731   2.29755   2.29972   2.30724   2.31020
 Alpha virt. eigenvalues --    2.34837   2.36712   2.38397   2.39978   2.40742
 Alpha virt. eigenvalues --    2.42371   2.42778   2.45499   2.48424   2.53316
 Alpha virt. eigenvalues --    2.55713   2.56263   2.57894   2.59758   2.61031
 Alpha virt. eigenvalues --    2.63320   2.63501   2.65383   2.69746   2.73968
 Alpha virt. eigenvalues --    2.75670   2.78927   2.83003   2.83502   2.86063
 Alpha virt. eigenvalues --    2.88674   2.98082   2.99106   3.01525   3.07899
 Alpha virt. eigenvalues --    3.09908   3.15892   3.23789   3.25997   3.29878
 Alpha virt. eigenvalues --    3.31521   3.42060   3.47941   3.53107   3.56126
 Alpha virt. eigenvalues --    3.58068   3.61798   3.62757   3.64573   3.89167
 Alpha virt. eigenvalues --    3.97817   4.08795   4.16054   4.18184   4.32333
 Alpha virt. eigenvalues --    4.32489   4.41509   4.57439   4.69802   5.16234
 Alpha virt. eigenvalues --    5.21987   5.33891   5.90142   5.92032   6.42118
 Alpha virt. eigenvalues --    6.43876   6.43906   6.45041   6.51306   6.52195
 Alpha virt. eigenvalues --    6.57186   6.59802   6.60613   6.67717   6.68096
 Alpha virt. eigenvalues --    6.69054   6.70259   6.73103   6.76722   6.78853
 Alpha virt. eigenvalues --    6.80943   6.83317   6.86592   6.92500   6.94570
 Alpha virt. eigenvalues --    6.96983   7.02866   7.04748   7.15751   7.20683
 Alpha virt. eigenvalues --    7.28365   7.47090   7.53807   7.64316   7.82337
 Alpha virt. eigenvalues --    7.84834   8.06695   8.14208   8.16574  23.36852
 Alpha virt. eigenvalues --   23.93771  24.23089  24.79724  24.90919  25.25302
 Alpha virt. eigenvalues --   26.02507
  Beta  occ. eigenvalues --  -10.78023 -10.77573 -10.77558 -10.75995 -10.72980
  Beta  occ. eigenvalues --  -10.72366 -10.67736  -1.48915  -1.27660  -1.22032
  Beta  occ. eigenvalues --   -1.14523  -1.05348  -1.05315  -0.93444  -0.91532
  Beta  occ. eigenvalues --   -0.78399  -0.77274  -0.75515  -0.74599
  Beta virt. eigenvalues --   -0.64282  -0.60776  -0.59768  -0.55455  -0.52863
  Beta virt. eigenvalues --   -0.49786  -0.39812  -0.38795  -0.30598  -0.28960
  Beta virt. eigenvalues --   -0.28060  -0.24904  -0.24784  -0.23280  -0.22491
  Beta virt. eigenvalues --   -0.20237  -0.19457  -0.19144  -0.18714  -0.18401
  Beta virt. eigenvalues --   -0.17259  -0.16145  -0.14459  -0.14423  -0.14283
  Beta virt. eigenvalues --   -0.11539  -0.10756  -0.10601  -0.10221  -0.10184
  Beta virt. eigenvalues --   -0.10172  -0.09971  -0.08160  -0.07547  -0.05568
  Beta virt. eigenvalues --   -0.05298  -0.04527  -0.02936  -0.02447  -0.02234
  Beta virt. eigenvalues --   -0.01521   0.00011   0.00783   0.01584   0.02921
  Beta virt. eigenvalues --    0.03519   0.06293   0.07767   0.10269   0.10594
  Beta virt. eigenvalues --    0.10905   0.12582   0.13630   0.13642   0.13898
  Beta virt. eigenvalues --    0.14557   0.14706   0.14982   0.15565   0.17272
  Beta virt. eigenvalues --    0.17820   0.18823   0.19824   0.20287   0.20723
  Beta virt. eigenvalues --    0.20865   0.23006   0.23180   0.23888   0.25437
  Beta virt. eigenvalues --    0.26872   0.29703   0.31559   0.31653   0.33333
  Beta virt. eigenvalues --    0.33463   0.34798   0.35352   0.40265   0.41281
  Beta virt. eigenvalues --    0.42771   0.45546   0.46615   0.47494   0.47932
  Beta virt. eigenvalues --    0.50544   0.51765   0.54448   0.58146   0.61550
  Beta virt. eigenvalues --    0.63006   0.64597   0.70328   0.70544   0.75010
  Beta virt. eigenvalues --    0.75173   0.80306   0.80921   0.81571   0.88503
  Beta virt. eigenvalues --    0.88955   0.89221   0.92827   0.94980   0.95127
  Beta virt. eigenvalues --    0.97098   1.01019   1.03451   1.06045   1.09515
  Beta virt. eigenvalues --    1.11323   1.13769   1.14320   1.16981   1.19270
  Beta virt. eigenvalues --    1.22928   1.23603   1.27681   1.29087   1.30613
  Beta virt. eigenvalues --    1.32663   1.33578   1.34457   1.39195   1.44303
  Beta virt. eigenvalues --    1.48203   1.49628   1.53608   1.61029   1.61593
  Beta virt. eigenvalues --    1.65829   1.69088   1.69179   1.74362   1.82564
  Beta virt. eigenvalues --    1.93061   1.96361   1.97661   2.04178   2.13428
  Beta virt. eigenvalues --    2.14488   2.15171   2.19394   2.19810   2.21594
  Beta virt. eigenvalues --    2.21768   2.29845   2.30394   2.31700   2.32446
  Beta virt. eigenvalues --    2.32833   2.32999   2.36498   2.37273   2.39593
  Beta virt. eigenvalues --    2.41827   2.41846   2.43213   2.43591   2.47454
  Beta virt. eigenvalues --    2.51246   2.56166   2.57301   2.58230   2.59162
  Beta virt. eigenvalues --    2.61876   2.63048   2.65409   2.65444   2.66518
  Beta virt. eigenvalues --    2.69486   2.74407   2.76389   2.79918   2.84483
  Beta virt. eigenvalues --    2.84500   2.86290   2.90793   2.99504   3.01290
  Beta virt. eigenvalues --    3.04226   3.09132   3.10998   3.16158   3.24518
  Beta virt. eigenvalues --    3.26871   3.31423   3.32261   3.43239   3.50466
  Beta virt. eigenvalues --    3.56825   3.58568   3.60263   3.62730   3.63107
  Beta virt. eigenvalues --    3.65298   3.89729   3.98388   4.09779   4.16681
  Beta virt. eigenvalues --    4.20492   4.32786   4.32915   4.42621   4.57626
  Beta virt. eigenvalues --    4.70393   5.16818   5.22816   5.36241   5.90839
  Beta virt. eigenvalues --    5.92366   6.44649   6.46980   6.47666   6.48974
  Beta virt. eigenvalues --    6.52512   6.53551   6.59082   6.61599   6.62141
  Beta virt. eigenvalues --    6.68406   6.69920   6.70710   6.71302   6.74042
  Beta virt. eigenvalues --    6.78163   6.82747   6.87264   6.87478   6.88604
  Beta virt. eigenvalues --    6.92708   6.95588   6.98214   7.03147   7.05137
  Beta virt. eigenvalues --    7.17074   7.22459   7.29243   7.47194   7.54228
  Beta virt. eigenvalues --    7.65805   7.82344   7.86371   8.08409   8.14222
  Beta virt. eigenvalues --    8.16618  23.37809  23.94718  24.23464  24.79740
  Beta virt. eigenvalues --   24.91151  25.25461  26.04948
          Condensed to atoms (all electrons):
               1          2          3          4          5          6
     1  C   10.092051  -2.408834  -2.008510  -2.008510   1.563320   0.738474
     2  C   -2.408834  10.087293  -0.598671  -0.598671  -0.326199   0.028695
     3  C   -2.008510  -0.598671  12.661747  -1.408898  -2.647896  -1.753990
     4  C   -2.008510  -0.598671  -1.408898  12.661747  -2.647896  -1.753990
     5  C    1.563320  -0.326199  -2.647896  -2.647896  10.435159   1.609467
     6  C    0.738474   0.028695  -1.753990  -1.753990   1.609467  13.078979
     7  C   -0.164570   0.071811   0.672046   0.672046  -1.087778  -5.917178
               7
     1  C   -0.164570
     2  C    0.071811
     3  C    0.672046
     4  C    0.672046
     5  C   -1.087778
     6  C   -5.917178
     7  C   10.934490
          Atomic-Atomic Spin Densities.
               1          2          3          4          5          6
     1  C    0.130937  -0.175214  -0.054002  -0.054002   0.298808   0.034409
     2  C   -0.175214   0.167467   0.210578   0.210578  -0.133174  -0.029510
     3  C   -0.054002   0.210578  -0.095785   0.471969  -0.393570  -0.147966
     4  C   -0.054002   0.210578   0.471969  -0.095785  -0.393570  -0.147966
     5  C    0.298808  -0.133174  -0.393570  -0.393570   0.569661   0.251026
     6  C    0.034409  -0.029510  -0.147966  -0.147966   0.251026   1.328560
     7  C   -0.030173   0.001367  -0.000769  -0.000769  -0.158998  -1.148071
               7
     1  C   -0.030173
     2  C    0.001367
     3  C   -0.000769
     4  C   -0.000769
     5  C   -0.158998
     6  C   -1.148071
     7  C    2.772984
 Mulliken charges and spin densities:
               1          2
     1  C    0.196579   0.150762
     2  C   -0.255424   0.252093
     3  C    1.084172  -0.009545
     4  C    1.084172  -0.009545
     5  C   -0.898176   0.040183
     6  C   -0.030457   0.140482
     7  C    0.819133   1.435571
 Sum of Mulliken charges =   2.00000   2.00000
 Mulliken charges and spin densities with hydrogens summed into heavy atoms:
               1          2
     1  C    0.196579   0.150762
     2  C   -0.255424   0.252093
     3  C    1.084172  -0.009545
     4  C    1.084172  -0.009545
     5  C   -0.898176   0.040183
     6  C   -0.030457   0.140482
     7  C    0.819133   1.435571
 APT charges:
               1
     1  C   -0.239923
     2  C    0.911926
     3  C    0.164151
     4  C    0.164151
     5  C    0.439363
     6  C   -0.388688
     7  C    0.949019
 Sum of APT charges =   2.00000
 APT charges with hydrogens summed into heavy atoms:
               1
     1  C   -0.239923
     2  C    0.911926
     3  C    0.164151
     4  C    0.164151
     5  C    0.439363
     6  C   -0.388688
     7  C    0.949019
 Electronic spatial extent (au):  <R**2>=            647.0920
 Charge=              2.0000 electrons
 Dipole moment (field-independent basis, Debye):
    X=             -0.0000    Y=             -0.0000    Z=              1.2485  Tot=              1.2485
 Quadrupole moment (field-independent basis, Debye-Ang):
   XX=            -31.8597   YY=            -31.1328   ZZ=             18.6419
   XY=              0.0000   XZ=             -0.0000   YZ=              0.0000
 Traceless Quadrupole moment (field-independent basis, Debye-Ang):
   XX=            -17.0762   YY=            -16.3493   ZZ=             33.4254
   XY=              0.0000   XZ=             -0.0000   YZ=              0.0000
 Octapole moment (field-independent basis, Debye-Ang**2):
  XXX=              0.0000  YYY=             -0.0000  ZZZ=             64.0891  XYY=              0.0000
  XXY=             -0.0000  XXZ=              1.3635  XZZ=             -0.0000  YZZ=             -0.0000
  YYZ=             -2.9940  XYZ=              0.0000
 Hexadecapole moment (field-independent basis, Debye-Ang**3):
 XXXX=            -30.4554 YYYY=            -69.8156 ZZZZ=           -326.0917 XXXY=              0.0000
 XXXZ=              0.0000 YYYX=              0.0000 YYYZ=              0.0000 ZZZX=              0.0000
 ZZZY=              0.0000 XXYY=            -16.0972 XXZZ=           -132.5258 YYZZ=           -137.6346
 XXYZ=              0.0000 YYXZ=              0.0000 ZZXY=              0.0000
 N-N= 1.845551430261D+02 E-N=-9.661340381807D+02  KE= 2.642875524860D+02
 Symmetry A1   KE= 2.173901489546D+02
 Symmetry A2   KE= 7.742030895977D-19
 Symmetry B1   KE= 5.964401225668D+00
 Symmetry B2   KE= 4.093300230572D+01
  Exact polarizability:  32.532  -0.000  45.839   0.000  -0.000 160.177
 Approx polarizability:  49.431  -0.000 105.682  -0.000  -0.000 375.838
                          Isotropic Fermi Contact Couplings
        Atom                 a.u.       MegaHertz       Gauss      10(-4) cm-1
     1  C(13)              0.00079       0.44508       0.15881       0.14846
     2  C(13)              0.01254       7.04897       2.51525       2.35128
     3  C(13)             -0.02617     -14.71113      -5.24930      -4.90711
     4  C(13)             -0.02617     -14.71113      -5.24930      -4.90711
     5  C(13)              0.02036      11.44540       4.08400       3.81777
     6  C(13)              0.20164     113.33906      40.44219      37.80584
     7  C(13)              1.26468     710.86967     253.65597     237.12060
 --------------------------------------------------------
       Center         ----  Spin Dipole Couplings  ----
                      3XX-RR        3YY-RR        3ZZ-RR
 --------------------------------------------------------
     1   Atom        0.179064     -0.119228     -0.059836
     2   Atom        0.523812     -0.269893     -0.253919
     3   Atom        0.036053     -0.023848     -0.012205
     4   Atom        0.036053     -0.023848     -0.012205
     5   Atom        0.003039     -0.029835      0.026796
     6   Atom        0.095628     -0.355263      0.259635
     7   Atom        0.032608     -0.539775      0.507167
 --------------------------------------------------------
                        XY            XZ            YZ
 --------------------------------------------------------
     1   Atom       -0.000000      0.000000     -0.000000
     2   Atom       -0.000000      0.000000     -0.000000
     3   Atom        0.000000      0.000000      0.011510
     4   Atom       -0.000000     -0.000000     -0.011510
     5   Atom        0.000000     -0.000000      0.000000
     6   Atom        0.000000     -0.000000     -0.000000
     7   Atom        0.000000     -0.000000     -0.000000
 --------------------------------------------------------


 ---------------------------------------------------------------------------------
              Anisotropic Spin Dipole Couplings in Principal Axis System
 ---------------------------------------------------------------------------------

       Atom             a.u.   MegaHertz   Gauss  10(-4) cm-1        Axes

              Baa    -0.1192   -15.999    -5.709    -5.337 -0.0000  1.0000  0.0000
     1 C(13)  Bbb    -0.0598    -8.029    -2.865    -2.678 -0.0000 -0.0000  1.0000
              Bcc     0.1791    24.029     8.574     8.015  1.0000 -0.0000  0.0000
 
              Baa    -0.2699   -36.217   -12.923   -12.081  0.0000  1.0000 -0.0000
     2 C(13)  Bbb    -0.2539   -34.073   -12.158   -11.366 -0.0000  0.0000  1.0000
              Bcc     0.5238    70.291    25.081    23.446  1.0000 -0.0000  0.0000
 
              Baa    -0.0309    -4.150    -1.481    -1.384  0.0000  0.8519 -0.5238
     3 C(13)  Bbb    -0.0051    -0.688    -0.246    -0.230 -0.0000  0.5238  0.8519
              Bcc     0.0361     4.838     1.726     1.614  1.0000  0.0000  0.0000
 
              Baa    -0.0309    -4.150    -1.481    -1.384  0.0000  0.8519  0.5238
     4 C(13)  Bbb    -0.0051    -0.688    -0.246    -0.230  0.0000 -0.5238  0.8519
              Bcc     0.0361     4.838     1.726     1.614  1.0000 -0.0000 -0.0000
 
              Baa    -0.0298    -4.004    -1.429    -1.335 -0.0000  1.0000 -0.0000
     5 C(13)  Bbb     0.0030     0.408     0.146     0.136  1.0000  0.0000  0.0000
              Bcc     0.0268     3.596     1.283     1.199 -0.0000  0.0000  1.0000
 
              Baa    -0.3553   -47.673   -17.011   -15.902 -0.0000  1.0000 -0.0000
     6 C(13)  Bbb     0.0956    12.832     4.579     4.280  1.0000  0.0000 -0.0000
              Bcc     0.2596    34.840    12.432    11.622  0.0000  0.0000  1.0000
 
              Baa    -0.5398   -72.433   -25.846   -24.161  0.0000  1.0000 -0.0000
     7 C(13)  Bbb     0.0326     4.376     1.561     1.460  1.0000 -0.0000 -0.0000
              Bcc     0.5072    68.057    24.284    22.701  0.0000  0.0000  1.0000
 

 ---------------------------------------------------------------------------------

 No NMR shielding tensors so no spin-rotation constants.
 Leave Link  601 at Sun Oct 23 12:37:44 2016, MaxMem=    33554432 cpu:         2.1
 (Enter /home/proyectos/fulerenos/M3C-v2.0/M3C-deps_CCC/g09-AM64L-G09RevC.01/l701.exe)
 Compute integral second derivatives.
 ... and contract with generalized density number  0.
 Leave Link  701 at Sun Oct 23 12:37:44 2016, MaxMem=    33554432 cpu:         1.1
 (Enter /home/proyectos/fulerenos/M3C-v2.0/M3C-deps_CCC/g09-AM64L-G09RevC.01/l702.exe)
 L702 exits ... SP integral derivatives will be done elsewhere.
 Leave Link  702 at Sun Oct 23 12:37:44 2016, MaxMem=    33554432 cpu:         0.1
 (Enter /home/proyectos/fulerenos/M3C-v2.0/M3C-deps_CCC/g09-AM64L-G09RevC.01/l703.exe)
 Compute integral second derivatives, UseDBF=F ICtDFT=           0.
 Integral derivatives from FoFJK, PRISM(SPDF).
 Calling FoFJK, ICntrl=    100127 FMM=F ISym2X=1 I1Cent= 0 IOpClX= 1 NMat=1 NMatS=1 NMatT=0.
 FoFJK:  IHMeth= 1 ICntrl=  100127 DoSepK=F KAlg= 0 I1Cent=   0 FoldK=F
 IRaf=         0 NMat=   1 IRICut=       1 DoRegI=T DoRafI=F ISym2E= 1.
 FoFCou: FMM=F IPFlag=           0 FMFlag=      100000 FMFlg1=         800
         NFxFlg=           0 DoJE=F BraDBF=F KetDBF=F FulRan=T
         wScrn=  0.000000 ICntrl=  100127 IOpCl=  1 I1Cent=           0 NGrid=           0
         NMat0=    1 NMatS0=      1 NMatT0=    0 NMatD0=    1 NMtDS0=    0 NMtDT0=    0
 Petite list used in FoFCou.
 Leave Link  703 at Sun Oct 23 12:38:55 2016, MaxMem=    33554432 cpu:       284.1
 (Enter /home/proyectos/fulerenos/M3C-v2.0/M3C-deps_CCC/g09-AM64L-G09RevC.01/l716.exe)
 Dipole        =-1.96474721D-16 9.94967192D-15 4.91191284D-01
 Polarizability= 3.25323686D+01-7.76474670D-07 4.58391020D+01
                 8.89599821D-08-4.91013109D-07 1.60176901D+02
 Full mass-weighted force constant matrix:
 Low frequencies ---  -30.4249   -9.0033   -5.5989   -0.0007    0.0003    0.0017
 Low frequencies ---  112.7581  135.4319  225.0976
 Diagonal vibrational polarizability:
        3.6977084       6.3998411      16.2666794
 Harmonic frequencies (cm**-1), IR intensities (KM/Mole), Raman scattering
 activities (A**4/AMU), depolarization ratios for plane and unpolarized
 incident light, reduced masses (AMU), force constants (mDyne/A),
 and normal coordinates:
                      1                      2                      3
                     B1                     B2                     B2
 Frequencies --    112.7579               135.4318               225.0976
 Red. masses --     12.0000                12.0000                12.0000
 Frc consts  --      0.0899                 0.1297                 0.3582
 IR Inten    --      0.2521                 0.2137                 7.4308
  Atom  AN      X      Y      Z        X      Y      Z        X      Y      Z
     1   6    -0.19   0.00  -0.00    -0.00  -0.16   0.00     0.00   0.49   0.00
     2   6     0.65  -0.00  -0.00     0.00   0.58  -0.00    -0.00  -0.44  -0.00
     3   6    -0.31   0.00   0.00    -0.00  -0.25  -0.06     0.00   0.15  -0.24
     4   6    -0.31   0.00  -0.00    -0.00  -0.25   0.06     0.00   0.15   0.24
     5   6    -0.32   0.00  -0.00    -0.00  -0.33   0.00    -0.00  -0.24   0.00
     6   6    -0.01   0.00  -0.00    -0.00  -0.19  -0.00    -0.00  -0.47  -0.00
     7   6     0.50  -0.00   0.00     0.00   0.60   0.00     0.00   0.35   0.00
                      4                      5                      6
                     B1                     B1                     B2
 Frequencies --    238.9894               448.6882               501.5403
 Red. masses --     12.0000                12.0000                12.0000
 Frc consts  --      0.4038                 1.4234                 1.7785
 IR Inten    --      6.4134                 0.8424                 1.7022
  Atom  AN      X      Y      Z        X      Y      Z        X      Y      Z
     1   6     0.60  -0.00  -0.00     0.50   0.00   0.00    -0.00   0.38   0.00
     2   6    -0.29   0.00  -0.00    -0.06  -0.00   0.00     0.00  -0.05   0.00
     3   6     0.07  -0.00   0.00    -0.29  -0.00  -0.00     0.00  -0.24  -0.26
     4   6     0.07  -0.00  -0.00    -0.29  -0.00   0.00     0.00  -0.24   0.26
     5   6    -0.43   0.00  -0.00    -0.26  -0.00  -0.00     0.00  -0.39   0.00
     6   6    -0.44   0.00   0.00     0.66   0.00  -0.00    -0.00   0.66  -0.00
     7   6     0.41  -0.00  -0.00    -0.25   0.00  -0.00     0.00  -0.12  -0.00
                      7                      8                      9
                     A1                     B1                     B2
 Frequencies --    561.4263               631.2492               720.4315
 Red. masses --     12.0000                12.0000                12.0000
 Frc consts  --      2.2285                 2.8173                 3.6696
 IR Inten    --      7.0838                 0.4400                36.7263
  Atom  AN      X      Y      Z        X      Y      Z        X      Y      Z
     1   6    -0.00  -0.00   0.34     0.32   0.00  -0.00    -0.00   0.36   0.00
     2   6     0.00   0.00   0.57    -0.01   0.00  -0.00    -0.00  -0.01  -0.00
     3   6    -0.00  -0.26   0.08    -0.40  -0.00  -0.00     0.00  -0.44  -0.06
     4   6    -0.00   0.26   0.08    -0.40  -0.00   0.00     0.00  -0.44   0.06
     5   6     0.00   0.00  -0.20     0.70   0.00   0.00    -0.00   0.67   0.00
     6   6    -0.00  -0.00  -0.40    -0.29  -0.00   0.00     0.00  -0.17  -0.00
     7   6     0.00   0.00  -0.46     0.07   0.00   0.00    -0.00   0.04   0.00
                     10                     11                     12
                     A1                     A1                     B2
 Frequencies --    883.2435               958.5542               992.7426
 Red. masses --     12.0000                12.0000                12.0000
 Frc consts  --      5.5156                 6.4963                 6.9679
 IR Inten    --      4.9629               285.5122                 1.9516
  Atom  AN      X      Y      Z        X      Y      Z        X      Y      Z
     1   6    -0.00   0.00   0.02     0.00  -0.00  -0.12    -0.00   0.47  -0.00
     2   6     0.00   0.00   0.01    -0.00  -0.00   0.67     0.00   0.01   0.00
     3   6     0.00   0.57   0.24    -0.00   0.28  -0.38     0.00  -0.09   0.59
     4   6     0.00  -0.57   0.24    -0.00  -0.28  -0.38     0.00  -0.09  -0.59
     5   6    -0.00  -0.00   0.13     0.00   0.00  -0.14    -0.00  -0.27  -0.00
     6   6    -0.00  -0.00  -0.24     0.00   0.00   0.11    -0.00  -0.03   0.00
     7   6     0.00   0.00  -0.40    -0.00   0.00   0.24     0.00  -0.00   0.00
                     13                     14                     15
                     A1                     A1                     A1
 Frequencies --   1544.2040              1628.1091              2128.9934
 Red. masses --     12.0000                12.0000                12.0000
 Frc consts  --     16.8593                18.7412                32.0465
 IR Inten    --     36.3653               385.4334               472.4335
  Atom  AN      X      Y      Z        X      Y      Z        X      Y      Z
     1   6    -0.00  -0.00   0.16     0.00  -0.00   0.84    -0.00   0.00   0.03
     2   6     0.00   0.00  -0.02    -0.00   0.00  -0.30     0.00  -0.00  -0.00
     3   6     0.00  -0.06  -0.33    -0.00   0.14  -0.20    -0.00   0.01   0.00
     4   6     0.00   0.06  -0.33    -0.00  -0.14  -0.20    -0.00  -0.01   0.00
     5   6    -0.00   0.00   0.80     0.00   0.00  -0.26     0.00  -0.00  -0.29
     6   6    -0.00  -0.00   0.06     0.00  -0.00  -0.03     0.00   0.00   0.79
     7   6     0.00   0.00  -0.33    -0.00  -0.00   0.15     0.00   0.00  -0.54

 -------------------
 - Thermochemistry -
 -------------------
 Temperature   298.150 Kelvin.  Pressure   1.00000 Atm.
 Atom     1 has atomic number  6 and mass  12.00000
 Atom     2 has atomic number  6 and mass  12.00000
 Atom     3 has atomic number  6 and mass  12.00000
 Atom     4 has atomic number  6 and mass  12.00000
 Atom     5 has atomic number  6 and mass  12.00000
 Atom     6 has atomic number  6 and mass  12.00000
 Atom     7 has atomic number  6 and mass  12.00000
 Molecular mass:    84.00000 amu.
 Principal axes and moments of inertia in atomic units:
                           1         2         3
     Eigenvalues --    56.687441171.549151228.23659
           X           -0.00000   0.00000   1.00000
           Y           -0.00000   1.00000  -0.00000
           Z            1.00000   0.00000   0.00000
 This molecule is an asymmetric top.
 Rotational symmetry number  2.
 Rotational temperatures (Kelvin)      1.52792     0.07393     0.07052
 Rotational constants (GHZ):          31.83670     1.54047     1.46938
 Zero-point vibrational energy      70050.1 (Joules/Mol)
                                   16.74237 (Kcal/Mol)
 Warning -- explicit consideration of   7 degrees of freedom as
           vibrations may cause significant error
 Vibrational temperatures:    162.23   194.86   323.86   343.85   645.56
          (Kelvin)            721.60   807.77   908.23  1036.54  1270.79
                             1379.14  1428.33  2221.76  2342.48  3063.14
 
 Zero-point correction=                           0.026681 (Hartree/Particle)
 Thermal correction to Energy=                    0.032982
 Thermal correction to Enthalpy=                  0.033926
 Thermal correction to Gibbs Free Energy=        -0.003493
 Sum of electronic and zero-point Energies=           -265.362441
 Sum of electronic and thermal Energies=              -265.356140
 Sum of electronic and thermal Enthalpies=            -265.355195
 Sum of electronic and thermal Free Energies=         -265.392614
 
                     E (Thermal)             CV                S
                      KCal/Mol        Cal/Mol-Kelvin    Cal/Mol-Kelvin
 Total                   20.696             20.337             78.754
 Electronic               0.000              0.000              2.183
 Translational            0.889              2.981             39.198
 Rotational               0.889              2.981             24.526
 Vibrational             18.919             14.375             12.847
 Vibration     1          0.607              1.939              3.221
 Vibration     2          0.613              1.918              2.867
 Vibration     3          0.650              1.803              1.918
 Vibration     4          0.657              1.781              1.810
 Vibration     5          0.808              1.364              0.800
 Vibration     6          0.857              1.247              0.654
 Vibration     7          0.917              1.115              0.521
                       Q            Log10(Q)             Ln(Q)
 Total Bot       0.404062D+02          1.606448          3.698983
 Total V=0       0.756270D+14         13.878677         31.956834
 Vib (Bot)       0.870706D-11        -11.060128        -25.466887
 Vib (Bot)    1  0.181531D+01          0.258950          0.596255
 Vib (Bot)    2  0.150321D+01          0.177019          0.407602
 Vib (Bot)    3  0.876850D+00         -0.057074         -0.131419
 Vib (Bot)    4  0.820836D+00         -0.085744         -0.197432
 Vib (Bot)    5  0.382604D+00         -0.417251         -0.960756
 Vib (Bot)    6  0.327248D+00         -0.485122         -1.117035
 Vib (Bot)    7  0.276450D+00         -0.558383         -1.285724
 Vib (V=0)       0.162967D+02          1.212100          2.790964
 Vib (V=0)    1  0.238291D+01          0.377107          0.868321
 Vib (V=0)    2  0.208418D+01          0.318936          0.734377
 Vib (V=0)    3  0.150939D+01          0.178801          0.411705
 Vib (V=0)    4  0.146113D+01          0.164689          0.379210
 Vib (V=0)    5  0.112959D+01          0.052921          0.121856
 Vib (V=0)    6  0.109757D+01          0.040433          0.093100
 Vib (V=0)    7  0.107134D+01          0.029926          0.068906
 Electronic      0.300000D+01          0.477121          1.098612
 Translational   0.302604D+08          7.480874         17.225349
 Rotational      0.511189D+05          4.708581         10.841909
 
                                                              b3lyp opt
                                                             IR Spectrum
 
     2                             1    1                                                                                            
     1                             6    5                                9 9    8         7    6   5   5  4           22    1 1      
     2                             2    4                                9 5    8         2    3   6   0  4           32    3 1      
     9                             8    4                                3 9    3         0    1   1   2  9           95    5 3      
 
     X                             X    X                                X X    X         X    X   X   X  X           XX    X X      
     X                             X    X                                  X              X                                          
     X                             X                                       X                                                         
     X                             X                                       X                                                         
     X                             X                                       X                                                         
     X                             X                                       X                                                         
     X                             X                                       X                                                         
     X                             X                                       X                                                         
     X                             X                                       X                                                         
     X                             X                                       X                                                         
     X                             X                                       X                                                         
     X                             X                                       X                                                         
     X                             X                                                                                                 
     X                             X                                                                                                 
     X                             X                                                                                                 
     X                             X                                                                                                 
     X                                                                                                                               
     X                                                                                                                               
     X                                                                                                                               
     X                                                                                                                               
 
 ***** Axes restored to original set *****
 -------------------------------------------------------------------
 Center     Atomic                   Forces (Hartrees/Bohr)
 Number     Number              X              Y              Z
 -------------------------------------------------------------------
      1        6           0.000107557    0.000099969    0.000098967
      2        6           0.000035724    0.000033203    0.000032871
      3        6          -0.000520446    0.000082481    0.000202975
      4        6           0.000330799   -0.000258747   -0.000377475
      5        6           0.000221723    0.000206080    0.000204015
      6        6          -0.000118348   -0.000109999   -0.000108896
      7        6          -0.000057009   -0.000052987   -0.000052456
 -------------------------------------------------------------------
 Cartesian Forces:  Max     0.000520446 RMS     0.000201491
 Z-matrix is all fixed cartesians, so copy forces.
 Force constants in Cartesian coordinates: 
                1             2             3             4             5 
      1  0.424629D+00
      2  0.265141D+00  0.330679D+00
      3  0.244988D+00  0.283381D+00  0.343984D+00
      4 -0.119875D+00 -0.105073D+00 -0.104353D+00  0.130862D+00
      5 -0.105073D+00 -0.105533D+00 -0.959330D-01  0.114993D+00  0.112656D+00
      6 -0.104353D+00 -0.959330D-01 -0.103239D+00  0.113407D+00  0.106784D+00
      7 -0.229176D+00 -0.904911D-01 -0.703644D-01 -0.143918D-01 -0.893145D-02
      8 -0.855149D-01 -0.625292D-01 -0.157509D-01 -0.799098D-02 -0.403523D-02
      9 -0.643718D-01 -0.147599D-01 -0.402625D-01 -0.665630D-02 -0.368938D-02
     10 -0.223021D-01 -0.308391D-01 -0.397279D-01 -0.200062D-02 -0.471604D-02
     11 -0.358153D-01 -0.139605D+00 -0.118467D+00 -0.565651D-02 -0.865191D-02
     12 -0.457205D-01 -0.119458D+00 -0.170060D+00 -0.631273D-02 -0.100885D-01
     13 -0.640918D-01 -0.452423D-01 -0.372576D-01  0.858847D-02  0.712599D-02
     14 -0.452423D-01 -0.337387D-01 -0.585963D-01  0.712599D-02  0.853602D-02
     15 -0.372576D-01 -0.585963D-01 -0.407431D-01  0.736919D-02  0.584805D-02
     16  0.497689D-02  0.121274D-02  0.176166D-02  0.348236D-02  0.278211D-02
     17  0.121272D-02  0.656696D-02 -0.148193D-03  0.278212D-02  0.272804D-02
     18  0.176165D-02 -0.148185D-03  0.596015D-02  0.264414D-02  0.280796D-02
     19  0.583877D-02  0.529228D-02  0.495272D-02 -0.666519D-02 -0.617990D-02
     20  0.529229D-02  0.416099D-02  0.551512D-02 -0.617991D-02 -0.570007D-02
     21  0.495272D-02  0.551511D-02  0.436128D-02 -0.609892D-02 -0.572926D-02
                6             7             8             9            10 
      6  0.110976D+00
      7 -0.778884D-02  0.324261D+00
      8 -0.387667D-02  0.828442D-01  0.169096D+00
      9 -0.261186D-02  0.425627D-01  0.142539D+00  0.200208D+00
     10 -0.518019D-02 -0.487691D-01  0.563775D-01  0.850637D-01  0.281901D+00
     11 -0.990120D-02  0.582135D-01  0.356143D-01 -0.138070D-01  0.716487D-01
     12 -0.103864D-01  0.872746D-01 -0.134414D-01  0.388491D-02  0.375165D-01
     13  0.736918D-02 -0.290635D-01 -0.368210D-01 -0.471975D-01 -0.174910D+00
     14  0.584805D-02 -0.254349D-01 -0.119042D+00 -0.860212D-01 -0.753677D-01
     15  0.807627D-02 -0.334858D-01 -0.837537D-01 -0.137595D+00 -0.645716D-01
     16  0.264414D-02 -0.420517D-02 -0.105085D-01 -0.113394D-01 -0.358026D-01
     17  0.280797D-02 -0.176551D-01 -0.214844D-01 -0.252460D-01 -0.188595D-01
     18  0.279113D-02 -0.199457D-01 -0.266694D-01 -0.257446D-01 -0.151035D-01
     19 -0.609892D-02  0.134425D-02  0.161361D-02  0.193872D-02  0.188371D-02
     20 -0.572927D-02  0.145479D-02  0.237998D-02  0.984229D-03  0.175616D-02
     21 -0.560536D-02  0.174751D-02  0.952667D-03  0.212120D-02  0.200300D-02
               11            12            13            14            15 
     11  0.184879D+00
     12  0.163775D+00  0.226786D+00
     13 -0.639816D-01 -0.508599D-01  0.450235D+00
     14 -0.647028D-01 -0.106393D-01  0.278093D+00  0.377573D+00
     15 -0.129069D-01 -0.460876D-01  0.265170D+00  0.278719D+00  0.382973D+00
     16 -0.260061D-01 -0.237098D-01 -0.183455D+00 -0.124930D+00 -0.123482D+00
     17 -0.971185D-02 -0.108292D-01 -0.124930D+00 -0.164541D+00 -0.115394D+00
     18 -0.940594D-02 -0.591967D-02 -0.123482D+00 -0.115394D+00 -0.162429D+00
     19  0.159733D-02  0.181181D-02 -0.730219D-02 -0.142443D-01 -0.137422D-01
     20  0.217893D-02  0.682216D-03 -0.142443D-01 -0.408405D-02 -0.139161D-01
     21  0.713795D-03  0.178277D-02 -0.137422D-01 -0.139161D-01 -0.419417D-02
               16            17            18            19            20 
     16  0.532498D+00
     17  0.437421D+00  0.467594D+00
     18  0.432770D+00  0.403087D+00  0.459763D+00
     19 -0.317494D+00 -0.279971D+00 -0.278644D+00  0.322395D+00
     20 -0.279971D+00 -0.281151D+00 -0.254277D+00  0.291892D+00  0.282215D+00
     21 -0.278644D+00 -0.254277D+00 -0.274421D+00  0.289782D+00  0.266741D+00
               21 
     21  0.275955D+00
 Leave Link  716 at Sun Oct 23 12:38:55 2016, MaxMem=    33554432 cpu:         0.1
 (Enter /home/proyectos/fulerenos/M3C-v2.0/M3C-deps_CCC/g09-AM64L-G09RevC.01/l103.exe)

 GradGradGradGradGradGradGradGradGradGradGradGradGradGradGradGradGradGrad
 Berny optimization.
 Search for a local minimum.
 Step number   1 out of a maximum of    2
 All quantities printed in internal units (Hartrees-Bohrs-Radians)
 Second derivative matrix not updated -- analytic derivatives used.
 ITU=  0
     Eigenvalues ---    0.00577   0.00833   0.02301   0.02594   0.09142
     Eigenvalues ---    0.11423   0.14314   0.18096   0.23570   0.35427
     Eigenvalues ---    0.41726   0.44755   1.08288   1.20376   2.05836
 Angle between quadratic step and forces=  27.47 degrees.
 ClnCor:  largest displacement from symmetrization is 1.23D-10 for atom     2.
 Linear search not attempted -- first point.
 ClnCor:  largest displacement from symmetrization is 8.48D-15 for atom     2.
 B after Tr=    -0.000000   -0.000000   -0.000000
         Rot=    1.000000    0.000000    0.000000    0.000000 Ang=   0.00 deg.
 Variable       Old X    -DE/DX   Delta X   Delta X   Delta X     New X
                                 (Linear)    (Quad)   (Total)
    X1        1.91522   0.00011   0.00000  -0.00014  -0.00014   1.91508
    Y1        1.78010   0.00010   0.00000  -0.00013  -0.00013   1.77997
    Z1        1.76226   0.00010   0.00000  -0.00013  -0.00013   1.76213
    X2        3.53194   0.00004   0.00000  -0.00010  -0.00010   3.53184
    Y2        3.28276   0.00003   0.00000  -0.00009  -0.00009   3.28266
    Z2        3.24986   0.00003   0.00000  -0.00009  -0.00009   3.24976
    X3       -0.60088  -0.00052   0.00000  -0.00136  -0.00136  -0.60224
    Y3        1.04504   0.00008   0.00000   0.00046   0.00046   1.04550
    Z3        1.37815   0.00020   0.00000   0.00083   0.00083   1.37898
    X4        1.80988   0.00033   0.00000   0.00123   0.00123   1.81112
    Y4        0.07867  -0.00026   0.00000  -0.00058  -0.00058   0.07809
    Z4       -0.26571  -0.00038   0.00000  -0.00094  -0.00094  -0.26665
    X5       -0.71941   0.00022   0.00000   0.00038   0.00038  -0.71903
    Y5       -0.66865   0.00021   0.00000   0.00035   0.00035  -0.66830
    Z5       -0.66195   0.00020   0.00000   0.00035   0.00035  -0.66160
    X6       -2.25952  -0.00012   0.00000   0.00002   0.00002  -2.25950
    Y6       -2.10011  -0.00011   0.00000   0.00002   0.00002  -2.10009
    Z6       -2.07906  -0.00011   0.00000   0.00002   0.00002  -2.07904
    X7       -3.67724  -0.00006   0.00000  -0.00003  -0.00003  -3.67727
    Y7       -3.41780  -0.00005   0.00000  -0.00003  -0.00003  -3.41783
    Z7       -3.38355  -0.00005   0.00000  -0.00003  -0.00003  -3.38358
         Item               Value     Threshold  Converged?
 Maximum Force            0.000520     0.000450     NO 
 RMS     Force            0.000201     0.000300     YES
 Maximum Displacement     0.001362     0.001800     YES
 RMS     Displacement     0.000533     0.001200     YES
 Predicted change in Energy=-1.001144D-06
 GradGradGradGradGradGradGradGradGradGradGradGradGradGradGradGradGradGrad

 Leave Link  103 at Sun Oct 23 12:38:55 2016, MaxMem=    33554432 cpu:         0.1
 (Enter /home/proyectos/fulerenos/M3C-v2.0/M3C-deps_CCC/g09-AM64L-G09RevC.01/l9999.exe)
 1\1\GINC-BELVIS17\Freq\UB3LYP\6-311+G(3df)\C7(2+,3)\ROOT\23-Oct-2016\0
 \\#p b3lyp/6-311+G(3df) freq symmetry=Loose\\b3lyp opt\\2,3\C,1.013493
 3962,0.9419906548,0.93254973\C,1.869020962,1.73715997,1.719749488\C,-0
 .317971912,0.5530105169,0.7292857411\C,0.9577478075,0.041628891,-0.140
 605798\C,-0.3806932177,-0.3538348209,-0.3502883794\C,-1.1956873462,-1.
 1113303697,-1.1001919551\C,-1.9459096899,-1.8086238423,-1.7904968278\\
 Version=EM64L-G09RevE.01\State=3-B1\HF=-265.3891214\S2=2.073403\S2-1=0
 .\S2A=2.00195\RMSD=1.395e-09\RMSF=2.015e-04\ZeroPoint=0.0266807\Therma
 l=0.0329819\Dipole=-0.2983487,-0.2773,-0.2745207\DipoleDeriv=-0.198455
 3,-0.8622255,-0.9282945,-0.8622256,-0.3075503,-0.6250454,-0.9282947,-0
 .6250455,-0.2137624,0.9681294,0.756736,0.761905,0.7567361,0.8974789,0.
 6675661,0.7619051,0.6675662,0.8701695,0.0776461,0.0252215,0.0830688,0.
 0613778,0.2449399,-0.1294054,0.12661,-0.1222048,0.1698679,0.0287999,0.
 048468,0.1207911,0.0123116,0.2631389,-0.0977177,0.0772499,-0.1049185,0
 .2005151,0.5758146,0.0715755,-0.0027346,0.0715754,0.3334798,0.2316577,
 -0.0027348,0.2316578,0.4087933,-0.445691,-0.5360758,-0.5299332,-0.5360
 756,-0.3647541,-0.4949955,-0.5299331,-0.4949956,-0.3556181,0.9937563,0
 .4963002,0.4951975,0.4963002,0.9332669,0.4479402,0.4951976,0.4479403,0
 .9200348\Polar=87.8100874,40.4886277,74.5295017,37.7496174,42.5115045,
 76.2087821\PG=C02V [C2(C1C1C1C1C1),SGV(C2)]\NImag=0\\0.42462918,0.2651
 4082,0.33067871,0.24498810,0.28338069,0.34398354,-0.11987519,-0.105073
 39,-0.10435257,0.13086199,-0.10507339,-0.10553328,-0.09593297,0.114992
 69,0.11265643,-0.10435258,-0.09593297,-0.10323946,0.11340721,0.1067841
 0,0.11097567,-0.22917571,-0.09049111,-0.07036440,-0.01439183,-0.008931
 45,-0.00778884,0.32426108,-0.08551491,-0.06252923,-0.01575092,-0.00799
 098,-0.00403523,-0.00387667,0.08284422,0.16909645,-0.06437184,-0.01475
 989,-0.04026251,-0.00665630,-0.00368938,-0.00261186,0.04256267,0.14253
 935,0.20020823,-0.02230214,-0.03083908,-0.03972794,-0.00200062,-0.0047
 1604,-0.00518019,-0.04876911,0.05637752,0.08506365,0.28190121,-0.03581
 527,-0.13960546,-0.11846746,-0.00565651,-0.00865191,-0.00990120,0.0582
 1352,0.03561433,-0.01380700,0.07164869,0.18487877,-0.04572051,-0.11945
 848,-0.17005985,-0.00631273,-0.01008849,-0.01038639,0.08727463,-0.0134
 4137,0.00388491,0.03751652,0.16377473,0.22678579,-0.06409179,-0.045242
 27,-0.03725756,0.00858847,0.00712599,0.00736918,-0.02906351,-0.0368210
 0,-0.04719752,-0.17491040,-0.06398163,-0.05085991,0.45023479,-0.045242
 26,-0.03373867,-0.05859629,0.00712599,0.00853602,0.00584805,-0.0254349
 0,-0.11904195,-0.08602125,-0.07536774,-0.06470283,-0.01063933,0.278093
 39,0.37757259,-0.03725755,-0.05859629,-0.04074314,0.00736919,0.0058480
 5,0.00807627,-0.03348584,-0.08375369,-0.13759534,-0.06457158,-0.012906
 91,-0.04608758,0.26517013,0.27871889,0.38297327,0.00497689,0.00121274,
 0.00176166,0.00348236,0.00278211,0.00264414,-0.00420517,-0.01050846,-0
 .01133939,-0.03580265,-0.02600614,-0.02370981,-0.18345537,-0.12493019,
 -0.12348212,0.53249777,0.00121272,0.00656696,-0.00014819,0.00278212,0.
 00272804,0.00280797,-0.01765508,-0.02148437,-0.02524604,-0.01885951,-0
 .00971185,-0.01082925,-0.12493019,-0.16454108,-0.11539397,0.43742051,0
 .46759351,0.00176165,-0.00014818,0.00596015,0.00264414,0.00280796,0.00
 279113,-0.01994573,-0.02666935,-0.02574464,-0.01510346,-0.00940594,-0.
 00591967,-0.12348212,-0.11539398,-0.16242928,0.43276956,0.40308673,0.4
 5976286,0.00583877,0.00529228,0.00495272,-0.00666519,-0.00617990,-0.00
 609892,0.00134425,0.00161361,0.00193872,0.00188371,0.00159733,0.001811
 81,-0.00730219,-0.01424429,-0.01374222,-0.31749384,-0.27997057,-0.2786
 4404,0.32239450,0.00529229,0.00416099,0.00551512,-0.00617991,-0.005700
 07,-0.00572927,0.00145479,0.00237998,0.00098423,0.00175616,0.00217893,
 0.00068222,-0.01424429,-0.00408405,-0.01391612,-0.27997056,-0.28115118
 ,-0.25427724,0.29189152,0.28221539,0.00495272,0.00551511,0.00436128,-0
 .00609892,-0.00572926,-0.00560536,0.00174751,0.00095267,0.00212120,0.0
 0200300,0.00071380,0.00178277,-0.01374222,-0.01391613,-0.00419417,-0.2
 7864403,-0.25427724,-0.27442053,0.28978194,0.26674108,0.27595479\\-0.0
 0010756,-0.00009997,-0.00009897,-0.00003572,-0.00003320,-0.00003287,0.
 00052045,-0.00008248,-0.00020297,-0.00033080,0.00025875,0.00037747,-0.
 00022172,-0.00020608,-0.00020401,0.00011835,0.00011000,0.00010890,0.00
 005701,0.00005299,0.00005246\\\@


 KNOWLEDGE IS OF TWO KINDS:  WE KNOW A SUBJECT OURSELVES OR WE KNOW 
 WHERE WE CAN FIND INFORMATION UPON IT.

                                    -- SAMUEL JOHNSON
 Job cpu time:       0 days  0 hours 53 minutes 47.8 seconds.
 File lengths (MBytes):  RWF=     83 Int=      0 D2E=      0 Chk=      7 Scr=      1
 Normal termination of Gaussian 09 at Sun Oct 23 12:38:55 2016.
