 Entering Gaussian System, Link 0=/home/proyectos/fulerenos/M3C-v2.0/M3C-deps_CCC/g09-AM64L-G09RevC.01/g09
 Initial command:
 /home/proyectos/fulerenos/M3C-v2.0/M3C-deps_CCC/g09-AM64L-G09RevC.01/l1.exe "/scratch/naguirre/gaussian/Gau-5136.inp" -scrdir="/scratch/naguirre/gaussian/"
 Entering Link 1 = /home/proyectos/fulerenos/M3C-v2.0/M3C-deps_CCC/g09-AM64L-G09RevC.01/l1.exe PID=      5143.
  
 Copyright (c) 1988,1990,1992,1993,1995,1998,2003,2009,2015,
            Gaussian, Inc.  All Rights Reserved.
  
 This is part of the Gaussian(R) 09 program.  It is based on
 the Gaussian(R) 03 system (copyright 2003, Gaussian, Inc.),
 the Gaussian(R) 98 system (copyright 1998, Gaussian, Inc.),
 the Gaussian(R) 94 system (copyright 1995, Gaussian, Inc.),
 the Gaussian 92(TM) system (copyright 1992, Gaussian, Inc.),
 the Gaussian 90(TM) system (copyright 1990, Gaussian, Inc.),
 the Gaussian 88(TM) system (copyright 1988, Gaussian, Inc.),
 the Gaussian 86(TM) system (copyright 1986, Carnegie Mellon
 University), and the Gaussian 82(TM) system (copyright 1983,
 Carnegie Mellon University). Gaussian is a federally registered
 trademark of Gaussian, Inc.
  
 This software contains proprietary and confidential information,
 including trade secrets, belonging to Gaussian, Inc.
  
 This software is provided under written license and may be
 used, copied, transmitted, or stored only in accord with that
 written license.
  
 The following legend is applicable only to US Government
 contracts under FAR:
  
                    RESTRICTED RIGHTS LEGEND
  
 Use, reproduction and disclosure by the US Government is
 subject to restrictions as set forth in subparagraphs (a)
 and (c) of the Commercial Computer Software - Restricted
 Rights clause in FAR 52.227-19.
  
 Gaussian, Inc.
 340 Quinnipiac St., Bldg. 40, Wallingford CT 06492
  
  
 ---------------------------------------------------------------
 Warning -- This program may not be used in any manner that
 competes with the business of Gaussian, Inc. or will provide
 assistance to any competitor of Gaussian, Inc.  The licensee
 of this program is prohibited from giving any competitor of
 Gaussian, Inc. access to this program.  By using this program,
 the user acknowledges that Gaussian, Inc. is engaged in the
 business of creating and licensing software in the field of
 computational chemistry and represents and warrants to the
 licensee that it is not a competitor of Gaussian, Inc. and that
 it will not use this program in any manner prohibited above.
 ---------------------------------------------------------------
  

 Cite this work as:
 Gaussian 09, Revision E.01,
 M. J. Frisch, G. W. Trucks, H. B. Schlegel, G. E. Scuseria, 
 M. A. Robb, J. R. Cheeseman, G. Scalmani, V. Barone, B. Mennucci, 
 G. A. Petersson, H. Nakatsuji, M. Caricato, X. Li, H. P. Hratchian, 
 A. F. Izmaylov, J. Bloino, G. Zheng, J. L. Sonnenberg, M. Hada, 
 M. Ehara, K. Toyota, R. Fukuda, J. Hasegawa, M. Ishida, T. Nakajima, 
 Y. Honda, O. Kitao, H. Nakai, T. Vreven, J. A. Montgomery, Jr., 
 J. E. Peralta, F. Ogliaro, M. Bearpark, J. J. Heyd, E. Brothers, 
 K. N. Kudin, V. N. Staroverov, T. Keith, R. Kobayashi, J. Normand, 
 K. Raghavachari, A. Rendell, J. C. Burant, S. S. Iyengar, J. Tomasi, 
 M. Cossi, N. Rega, J. M. Millam, M. Klene, J. E. Knox, J. B. Cross, 
 V. Bakken, C. Adamo, J. Jaramillo, R. Gomperts, R. E. Stratmann, 
 O. Yazyev, A. J. Austin, R. Cammi, C. Pomelli, J. W. Ochterski, 
 R. L. Martin, K. Morokuma, V. G. Zakrzewski, G. A. Voth, 
 P. Salvador, J. J. Dannenberg, S. Dapprich, A. D. Daniels, 
 O. Farkas, J. B. Foresman, J. V. Ortiz, J. Cioslowski, 
 and D. J. Fox, Gaussian, Inc., Wallingford CT, 2013.
 
 ******************************************
 Gaussian 09:  EM64L-G09RevE.01 30-Nov-2015
                23-Oct-2016 
 ******************************************
 %NProcShared=4
 Will use up to    4 processors via shared memory.
 -----------------------------------------
 #p b3lyp/6-311+G(3df) freq symmetry=Loose
 -----------------------------------------
 1/10=4,30=1,38=1/1,3;
 2/12=2,17=4,18=3,40=1/2;
 3/5=4,6=6,7=16,11=2,16=1,25=1,30=1,71=2,74=-5,140=1/1,2,3;
 4//1;
 5/5=2,38=5,98=1/2;
 8/6=4,10=90,11=11/1;
 11/6=1,8=1,9=11,15=111,16=1/1,2,10;
 10/6=1/2;
 6/7=2,8=2,9=2,10=2,18=1,28=1/1;
 7/8=1,10=1,25=1/1,2,3,16;
 1/10=4,30=1/3;
 99//99;
 Leave Link    1 at Sun Oct 23 12:15:05 2016, MaxMem=           0 cpu:         0.2
 (Enter /home/proyectos/fulerenos/M3C-v2.0/M3C-deps_CCC/g09-AM64L-G09RevC.01/l101.exe)
 ---------
 b3lyp opt
 ---------
 Symbolic Z-matrix:
 Charge =  2 Multiplicity = 1
 C                     0.17221   0.74237   0.7501 
 C                     0.90673  -0.51794  -0.23018 
 C                    -0.30047  -0.67204   0.63887 
 C                    -0.23864  -0.30326  -1.11985 
 C                    -1.45968  -0.5522   -0.38381 
 C                    -0.85914   0.76141  -0.29175 
 C                     1.77899   0.54165   0.63662 
 
 NAtoms=      7 NQM=        7 NQMF=       0 NMMI=      0 NMMIF=      0
                NMic=       0 NMicF=      0.
                    Isotopes and Nuclear Properties:
 (Nuclear quadrupole moments (NQMom) in fm**2, nuclear magnetic moments (NMagM)
  in nuclear magnetons)

  Atom         1           2           3           4           5           6           7
 IAtWgt=          12          12          12          12          12          12          12
 AtmWgt=  12.0000000  12.0000000  12.0000000  12.0000000  12.0000000  12.0000000  12.0000000
 NucSpn=           0           0           0           0           0           0           0
 AtZEff=   0.0000000   0.0000000   0.0000000   0.0000000   0.0000000   0.0000000   0.0000000
 NQMom=    0.0000000   0.0000000   0.0000000   0.0000000   0.0000000   0.0000000   0.0000000
 NMagM=    0.0000000   0.0000000   0.0000000   0.0000000   0.0000000   0.0000000   0.0000000
 AtZNuc=   6.0000000   6.0000000   6.0000000   6.0000000   6.0000000   6.0000000   6.0000000
 Leave Link  101 at Sun Oct 23 12:15:05 2016, MaxMem=    33554432 cpu:         0.2
 (Enter /home/proyectos/fulerenos/M3C-v2.0/M3C-deps_CCC/g09-AM64L-G09RevC.01/l103.exe)

 GradGradGradGradGradGradGradGradGradGradGradGradGradGradGradGradGradGrad
 Berny optimization.
 Initialization pass.
 Trust Radius=3.00D-01 FncErr=1.00D-07 GrdErr=1.00D-07
 Number of steps in this run=      2 maximum allowed number of steps=      2.
 GradGradGradGradGradGradGradGradGradGradGradGradGradGradGradGradGradGrad

 Leave Link  103 at Sun Oct 23 12:15:05 2016, MaxMem=    33554432 cpu:         0.1
 (Enter /home/proyectos/fulerenos/M3C-v2.0/M3C-deps_CCC/g09-AM64L-G09RevC.01/l202.exe)
                          Input orientation:                          
 ---------------------------------------------------------------------
 Center     Atomic      Atomic             Coordinates (Angstroms)
 Number     Number       Type             X           Y           Z
 ---------------------------------------------------------------------
      1          6           0        0.172208    0.742366    0.750098
      2          6           0        0.906735   -0.517937   -0.230179
      3          6           0       -0.300465   -0.672038    0.638872
      4          6           0       -0.238637   -0.303257   -1.119852
      5          6           0       -1.459685   -0.552195   -0.383814
      6          6           0       -0.859142    0.761407   -0.291745
      7          6           0        1.778987    0.541654    0.636621
 ---------------------------------------------------------------------
                    Distance matrix (angstroms):
                    1          2          3          4          5
     1  C    0.000000
     2  C    1.757508   0.000000
     3  C    1.495436   1.495436   0.000000
     4  C    2.181475   1.466112   1.798036   0.000000
     5  C    2.371649   2.371649   1.550496   1.447301   0.000000
     6  C    1.466112   2.181475   1.798036   1.484688   1.447301
     7  C    1.623238   1.623238   2.407732   2.805331   3.567463
                    6          7
     6  C    0.000000
     7  C    2.805331   0.000000
 Stoichiometry    C7(2+)
 Framework group  CS[SG(C3),X(C4)]
 Deg. of freedom     9
 Full point group                 CS      NOp   2
 Largest Abelian subgroup         CS      NOp   2
 Largest concise Abelian subgroup CS      NOp   2
                         Standard orientation:                         
 ---------------------------------------------------------------------
 Center     Atomic      Atomic             Coordinates (Angstroms)
 Number     Number       Type             X           Y           Z
 ---------------------------------------------------------------------
      1          6           0       -0.227429    0.565222    0.878754
      2          6           0       -0.227429    0.565222   -0.878754
      3          6           0        0.941456    0.252451   -0.000000
      4          6           0       -0.227429   -0.894530   -0.742344
      5          6           0        0.947641   -1.298033   -0.000000
      6          6           0       -0.227429   -0.894530    0.742344
      7          6           0       -0.979379    1.704197    0.000000
 ---------------------------------------------------------------------
 Rotational constants (GHZ):      9.6256652      4.2788102      3.9138334
 Leave Link  202 at Sun Oct 23 12:15:05 2016, MaxMem=    33554432 cpu:         0.0
 (Enter /home/proyectos/fulerenos/M3C-v2.0/M3C-deps_CCC/g09-AM64L-G09RevC.01/l301.exe)
 Standard basis: 6-311+G(3df) (5D, 7F)
 Ernie: Thresh=  0.10000D-02 Tol=  0.10000D-05 Strict=F.
 There are   183 symmetry adapted cartesian basis functions of A'  symmetry.
 There are   132 symmetry adapted cartesian basis functions of A"  symmetry.
 There are   156 symmetry adapted basis functions of A'  symmetry.
 There are   117 symmetry adapted basis functions of A"  symmetry.
   273 basis functions,   406 primitive gaussians,   315 cartesian basis functions
    20 alpha electrons       20 beta electrons
       nuclear repulsion energy       218.7750792040 Hartrees.
 IExCor=  402 DFT=T Ex+Corr=B3LYP ExCW=0 ScaHFX=  0.200000
 ScaDFX=  0.800000  0.720000  1.000000  0.810000 ScalE2=  1.000000  1.000000
 IRadAn=      0 IRanWt=     -1 IRanGd=            0 ICorTp=0 IEmpDi=  4
 NAtoms=    7 NActive=    7 NUniq=    5 SFac= 1.96D+00 NAtFMM=   60 NAOKFM=F Big=F
 Integral buffers will be    131072 words long.
 Raffenetti 2 integral format.
 Two-electron integral symmetry is turned on.
 Leave Link  301 at Sun Oct 23 12:15:05 2016, MaxMem=    33554432 cpu:         0.3
 (Enter /home/proyectos/fulerenos/M3C-v2.0/M3C-deps_CCC/g09-AM64L-G09RevC.01/l302.exe)
 NPDir=0 NMtPBC=     1 NCelOv=     1 NCel=       1 NClECP=     1 NCelD=      1
         NCelK=      1 NCelE2=     1 NClLst=     1 CellRange=     0.0.
 One-electron integrals computed using PRISM.
 One-electron integral symmetry used in STVInt
 NBasis=   273 RedAO= T EigKep=  6.24D-06  NBF=   156   117
 NBsUse=   273 1.00D-06 EigRej= -1.00D+00 NBFU=   156   117
 Precomputing XC quadrature grid using
 IXCGrd= 4 IRadAn=           0 IRanWt=          -1 IRanGd=           0 AccXCQ= 0.00D+00.
 Generated NRdTot=       0 NPtTot=           0 NUsed=           0 NTot=          32
 NSgBfM=   315   315   315   315   315 MxSgAt=     7 MxSgA2=     7.
 Leave Link  302 at Sun Oct 23 12:15:05 2016, MaxMem=    33554432 cpu:         1.3
 (Enter /home/proyectos/fulerenos/M3C-v2.0/M3C-deps_CCC/g09-AM64L-G09RevC.01/l303.exe)
 DipDrv:  MaxL=1.
 Leave Link  303 at Sun Oct 23 12:15:06 2016, MaxMem=    33554432 cpu:         0.2
 (Enter /home/proyectos/fulerenos/M3C-v2.0/M3C-deps_CCC/g09-AM64L-G09RevC.01/l401.exe)
 ExpMin= 4.38D-02 ExpMax= 4.56D+03 ExpMxC= 6.82D+02 IAcc=2 IRadAn=         4 AccDes= 0.00D+00
 Harris functional with IExCor=  402 and IRadAn=       4 diagonalized for initial guess.
 HarFok:  IExCor=  402 AccDes= 0.00D+00 IRadAn=         4 IDoV= 1 UseB2=F ITyADJ=14
 ICtDFT=  3500011 ScaDFX=  1.000000  1.000000  1.000000  1.000000
 FoFCou: FMM=F IPFlag=           0 FMFlag=      100000 FMFlg1=           0
         NFxFlg=           0 DoJE=T BraDBF=F KetDBF=T FulRan=T
         wScrn=  0.000000 ICntrl=     500 IOpCl=  0 I1Cent=   200000004 NGrid=           0
         NMat0=    1 NMatS0=      1 NMatT0=    0 NMatD0=    1 NMtDS0=    0 NMtDT0=    0
 Petite list used in FoFCou.
 Harris En= -265.612778217845    
 JPrj=0 DoOrth=F DoCkMO=F.
 Initial guess orbital symmetries:
       Occupied  (A') (A") (A') (A') (A') (A") (A') (A') (A') (A")
                 (A') (A') (A') (A") (A') (A") (A") (A') (A') (A')
       Virtual   (A') (A') (A") (A') (A") (A") (A') (A") (A') (A')
                 (A') (A") (A') (A") (A') (A") (A') (A') (A') (A")
                 (A') (A') (A") (A') (A") (A") (A') (A") (A') (A')
                 (A") (A') (A") (A') (A") (A') (A') (A") (A") (A')
                 (A') (A') (A") (A') (A') (A") (A') (A') (A") (A')
                 (A") (A') (A") (A') (A') (A") (A') (A') (A') (A")
                 (A') (A") (A") (A') (A") (A') (A') (A") (A") (A')
                 (A") (A') (A') (A') (A") (A") (A') (A") (A') (A')
                 (A") (A') (A") (A') (A") (A') (A') (A') (A") (A")
                 (A') (A") (A') (A") (A') (A') (A") (A") (A') (A")
                 (A') (A") (A') (A') (A') (A') (A") (A') (A") (A")
                 (A') (A') (A") (A') (A') (A") (A") (A') (A") (A')
                 (A') (A") (A') (A') (A") (A') (A") (A') (A') (A')
                 (A") (A") (A') (A") (A") (A') (A") (A') (A') (A")
                 (A") (A') (A') (A") (A') (A') (A') (A") (A') (A")
                 (A') (A') (A') (A") (A") (A') (A') (A") (A') (A')
                 (A") (A') (A") (A') (A') (A") (A") (A') (A") (A')
                 (A") (A') (A") (A') (A") (A') (A') (A') (A") (A")
                 (A') (A") (A') (A") (A') (A") (A") (A') (A") (A')
                 (A") (A") (A') (A") (A') (A') (A") (A') (A') (A")
                 (A") (A') (A") (A') (A') (A") (A') (A") (A') (A")
                 (A") (A') (A') (A") (A") (A') (A') (A') (A') (A')
                 (A") (A") (A') (A') (A") (A") (A') (A") (A') (A")
                 (A') (A") (A') (A') (A') (A') (A") (A') (A") (A')
                 (A") (A") (A") (A') (A") (A") (A') (A') (A') (A")
                 (A') (A") (A')
 The electronic state of the initial guess is 1-A'.
 Leave Link  401 at Sun Oct 23 12:15:06 2016, MaxMem=    33554432 cpu:         3.1
 (Enter /home/proyectos/fulerenos/M3C-v2.0/M3C-deps_CCC/g09-AM64L-G09RevC.01/l502.exe)
 Closed shell SCF:
 Using DIIS extrapolation, IDIIS=  1040.
 Integral symmetry usage will be decided dynamically.
 IVT=      320695 IEndB=      320695 NGot=    33554432 MDV=    33349918
 LenX=    33349918 LenY=    33250252
 Requested convergence on RMS density matrix=1.00D-08 within 128 cycles.
 Requested convergence on MAX density matrix=1.00D-06.
 Requested convergence on             energy=1.00D-06.
 No special actions if energy rises.
 Fock matrices will be formed incrementally for  20 cycles.

 Cycle   1  Pass 1  IDiag  1:
 FoFJK:  IHMeth= 1 ICntrl=       0 DoSepK=F KAlg= 0 I1Cent=   0 FoldK=F
 IRaf= 990000000 NMat=   1 IRICut=       1 DoRegI=T DoRafI=F ISym2E= 1.
 FoFCou: FMM=F IPFlag=           0 FMFlag=      100000 FMFlg1=           0
         NFxFlg=           0 DoJE=F BraDBF=F KetDBF=F FulRan=T
         wScrn=  0.000000 ICntrl=       0 IOpCl=  0 I1Cent=           0 NGrid=           0
         NMat0=    1 NMatS0=      1 NMatT0=    0 NMatD0=    1 NMtDS0=    0 NMtDT0=    0
 Petite list used in FoFCou.
 E= -265.152192876123    
 DIIS: error= 2.04D-02 at cycle   1 NSaved=   1.
 NSaved= 1 IEnMin= 1 EnMin= -265.152192876123     IErMin= 1 ErrMin= 2.04D-02
 ErrMax= 2.04D-02  0.00D+00 EMaxC= 1.00D-01 BMatC= 6.67D-02 BMatP= 6.67D-02
 IDIUse=3 WtCom= 7.96D-01 WtEn= 2.04D-01
 Coeff-Com:  0.100D+01
 Coeff-En:   0.100D+01
 Coeff:      0.100D+01
 Gap=     0.086 Goal=   None    Shift=    0.000
 GapD=    0.086 DampG=0.500 DampE=0.500 DampFc=0.2500 IDamp=-1.
 Damping current iteration by 2.50D-01
 RMSDP=7.43D-03 MaxDP=6.39D-01              OVMax= 5.67D-01

 Cycle   2  Pass 1  IDiag  1:
 RMSU=  1.84D-03    CP:  9.85D-01
 E= -265.172024272312     Delta-E=       -0.019831396189 Rises=F Damp=T
 DIIS: error= 6.71D-03 at cycle   2 NSaved=   2.
 NSaved= 2 IEnMin= 2 EnMin= -265.172024272312     IErMin= 2 ErrMin= 6.71D-03
 ErrMax= 6.71D-03  0.00D+00 EMaxC= 1.00D-01 BMatC= 1.69D-02 BMatP= 6.67D-02
 IDIUse=3 WtCom= 9.33D-01 WtEn= 6.71D-02
 Coeff-Com: -0.644D-01 0.106D+01
 Coeff-En:   0.244D+00 0.756D+00
 Coeff:     -0.437D-01 0.104D+01
 Gap=     0.100 Goal=   None    Shift=    0.000
 RMSDP=3.31D-03 MaxDP=2.11D-01 DE=-1.98D-02 OVMax= 3.70D-01

 Cycle   3  Pass 1  IDiag  1:
 RMSU=  3.16D-03    CP:  9.92D-01  1.53D+00
 E= -265.217114120555     Delta-E=       -0.045089848243 Rises=F Damp=F
 DIIS: error= 7.93D-03 at cycle   3 NSaved=   3.
 NSaved= 3 IEnMin= 3 EnMin= -265.217114120555     IErMin= 2 ErrMin= 6.71D-03
 ErrMax= 7.93D-03  0.00D+00 EMaxC= 1.00D-01 BMatC= 1.54D-02 BMatP= 1.69D-02
 IDIUse=3 WtCom= 9.21D-01 WtEn= 7.93D-02
 Coeff-Com: -0.331D+00 0.672D+00 0.658D+00
 Coeff-En:   0.000D+00 0.000D+00 0.100D+01
 Coeff:     -0.304D+00 0.619D+00 0.686D+00
 Gap=     0.092 Goal=   None    Shift=    0.000
 RMSDP=1.47D-03 MaxDP=7.11D-02 DE=-4.51D-02 OVMax= 1.16D-01

 Cycle   4  Pass 1  IDiag  1:
 RMSU=  1.01D-03    CP:  1.01D+00  1.96D+00  7.90D-01
 E= -265.231989749675     Delta-E=       -0.014875629120 Rises=F Damp=F
 DIIS: error= 3.67D-03 at cycle   4 NSaved=   4.
 NSaved= 4 IEnMin= 4 EnMin= -265.231989749675     IErMin= 4 ErrMin= 3.67D-03
 ErrMax= 3.67D-03  0.00D+00 EMaxC= 1.00D-01 BMatC= 2.36D-03 BMatP= 1.54D-02
 IDIUse=3 WtCom= 9.63D-01 WtEn= 3.67D-02
 Coeff-Com: -0.965D-01 0.160D+00 0.358D+00 0.578D+00
 Coeff-En:   0.000D+00 0.000D+00 0.172D+00 0.828D+00
 Coeff:     -0.929D-01 0.154D+00 0.351D+00 0.587D+00
 Gap=     0.097 Goal=   None    Shift=    0.000
 RMSDP=4.35D-04 MaxDP=1.82D-02 DE=-1.49D-02 OVMax= 2.78D-02

 Cycle   5  Pass 1  IDiag  1:
 RMSU=  2.27D-04    CP:  1.01D+00  1.84D+00  8.51D-01  7.74D-01
 E= -265.234164437846     Delta-E=       -0.002174688172 Rises=F Damp=F
 DIIS: error= 1.29D-03 at cycle   5 NSaved=   5.
 NSaved= 5 IEnMin= 5 EnMin= -265.234164437846     IErMin= 5 ErrMin= 1.29D-03
 ErrMax= 1.29D-03  0.00D+00 EMaxC= 1.00D-01 BMatC= 2.37D-04 BMatP= 2.36D-03
 IDIUse=3 WtCom= 9.87D-01 WtEn= 1.29D-02
 Coeff-Com: -0.412D-01 0.631D-01 0.173D+00 0.350D+00 0.455D+00
 Coeff-En:   0.000D+00 0.000D+00 0.000D+00 0.351D-01 0.965D+00
 Coeff:     -0.407D-01 0.623D-01 0.171D+00 0.346D+00 0.461D+00
 Gap=     0.096 Goal=   None    Shift=    0.000
 RMSDP=1.41D-04 MaxDP=5.34D-03 DE=-2.17D-03 OVMax= 1.01D-02

 Cycle   6  Pass 1  IDiag  1:
 RMSU=  1.01D-04    CP:  1.00D+00  1.86D+00  8.60D-01  7.87D-01  6.20D-01
 E= -265.234333824418     Delta-E=       -0.000169386571 Rises=F Damp=F
 DIIS: error= 6.62D-04 at cycle   6 NSaved=   6.
 NSaved= 6 IEnMin= 6 EnMin= -265.234333824418     IErMin= 6 ErrMin= 6.62D-04
 ErrMax= 6.62D-04  0.00D+00 EMaxC= 1.00D-01 BMatC= 8.11D-05 BMatP= 2.37D-04
 IDIUse=3 WtCom= 9.93D-01 WtEn= 6.62D-03
 Coeff-Com: -0.139D-01 0.180D-01 0.510D-01 0.119D+00 0.355D+00 0.471D+00
 Coeff-En:   0.000D+00 0.000D+00 0.000D+00 0.000D+00 0.292D+00 0.708D+00
 Coeff:     -0.138D-01 0.179D-01 0.506D-01 0.118D+00 0.355D+00 0.473D+00
 Gap=     0.097 Goal=   None    Shift=    0.000
 RMSDP=6.31D-05 MaxDP=2.61D-03 DE=-1.69D-04 OVMax= 3.97D-03

 Cycle   7  Pass 1  IDiag  1:
 RMSU=  4.47D-05    CP:  1.00D+00  1.88D+00  8.58D-01  7.96D-01  7.07D-01
                    CP:  7.20D-01
 E= -265.234410363989     Delta-E=       -0.000076539571 Rises=F Damp=F
 DIIS: error= 1.91D-04 at cycle   7 NSaved=   7.
 NSaved= 7 IEnMin= 7 EnMin= -265.234410363989     IErMin= 7 ErrMin= 1.91D-04
 ErrMax= 1.91D-04  0.00D+00 EMaxC= 1.00D-01 BMatC= 1.00D-05 BMatP= 8.11D-05
 IDIUse=3 WtCom= 9.98D-01 WtEn= 1.91D-03
 Coeff-Com: -0.285D-02 0.192D-02 0.881D-02 0.241D-01 0.178D+00 0.328D+00
 Coeff-Com:  0.462D+00
 Coeff-En:   0.000D+00 0.000D+00 0.000D+00 0.000D+00 0.000D+00 0.879D-01
 Coeff-En:   0.912D+00
 Coeff:     -0.285D-02 0.192D-02 0.880D-02 0.241D-01 0.177D+00 0.327D+00
 Coeff:      0.463D+00
 Gap=     0.097 Goal=   None    Shift=    0.000
 RMSDP=1.72D-05 MaxDP=7.08D-04 DE=-7.65D-05 OVMax= 1.07D-03

 Cycle   8  Pass 1  IDiag  1:
 RMSU=  1.42D-05    CP:  1.00D+00  1.88D+00  8.58D-01  7.96D-01  7.15D-01
                    CP:  7.61D-01  8.35D-01
 E= -265.234420354377     Delta-E=       -0.000009990388 Rises=F Damp=F
 DIIS: error= 4.08D-05 at cycle   8 NSaved=   8.
 NSaved= 8 IEnMin= 8 EnMin= -265.234420354377     IErMin= 8 ErrMin= 4.08D-05
 ErrMax= 4.08D-05  0.00D+00 EMaxC= 1.00D-01 BMatC= 4.36D-07 BMatP= 1.00D-05
 IDIUse=1 WtCom= 1.00D+00 WtEn= 0.00D+00
 Coeff-Com:  0.149D-02-0.197D-02-0.411D-02-0.175D-01 0.145D-02 0.348D-01
 Coeff-Com:  0.115D+00 0.871D+00
 Coeff:      0.149D-02-0.197D-02-0.411D-02-0.175D-01 0.145D-02 0.348D-01
 Coeff:      0.115D+00 0.871D+00
 Gap=     0.097 Goal=   None    Shift=    0.000
 RMSDP=8.03D-06 MaxDP=3.54D-04 DE=-9.99D-06 OVMax= 5.49D-04

 Cycle   9  Pass 1  IDiag  1:
 RMSU=  4.70D-06    CP:  1.00D+00  1.88D+00  8.58D-01  7.95D-01  7.15D-01
                    CP:  7.90D-01  9.50D-01  1.12D+00
 E= -265.234420862307     Delta-E=       -0.000000507931 Rises=F Damp=F
 DIIS: error= 1.62D-05 at cycle   9 NSaved=   9.
 NSaved= 9 IEnMin= 9 EnMin= -265.234420862307     IErMin= 9 ErrMin= 1.62D-05
 ErrMax= 1.62D-05  0.00D+00 EMaxC= 1.00D-01 BMatC= 7.03D-08 BMatP= 4.36D-07
 IDIUse=1 WtCom= 1.00D+00 WtEn= 0.00D+00
 Coeff-Com:  0.126D-02-0.158D-02-0.147D-02-0.626D-02-0.937D-02-0.112D-01
 Coeff-Com: -0.117D-01 0.146D+00 0.894D+00
 Coeff:      0.126D-02-0.158D-02-0.147D-02-0.626D-02-0.937D-02-0.112D-01
 Coeff:     -0.117D-01 0.146D+00 0.894D+00
 Gap=     0.097 Goal=   None    Shift=    0.000
 RMSDP=2.68D-06 MaxDP=9.60D-05 DE=-5.08D-07 OVMax= 1.61D-04

 Cycle  10  Pass 1  IDiag  1:
 RMSU=  1.31D-06    CP:  1.00D+00  1.88D+00  8.58D-01  7.94D-01  7.14D-01
                    CP:  7.98D-01  9.84D-01  1.19D+00  1.14D+00
 E= -265.234420944474     Delta-E=       -0.000000082167 Rises=F Damp=F
 DIIS: error= 3.94D-06 at cycle  10 NSaved=  10.
 NSaved=10 IEnMin=10 EnMin= -265.234420944474     IErMin=10 ErrMin= 3.94D-06
 ErrMax= 3.94D-06  0.00D+00 EMaxC= 1.00D-01 BMatC= 5.01D-09 BMatP= 7.03D-08
 IDIUse=1 WtCom= 1.00D+00 WtEn= 0.00D+00
 Coeff-Com:  0.381D-03-0.491D-03 0.907D-04-0.267D-05-0.151D-02-0.477D-02
 Coeff-Com: -0.865D-02-0.426D-01 0.230D+00 0.828D+00
 Coeff:      0.381D-03-0.491D-03 0.907D-04-0.267D-05-0.151D-02-0.477D-02
 Coeff:     -0.865D-02-0.426D-01 0.230D+00 0.828D+00
 Gap=     0.097 Goal=   None    Shift=    0.000
 RMSDP=5.40D-07 MaxDP=2.96D-05 DE=-8.22D-08 OVMax= 3.90D-05

 Cycle  11  Pass 1  IDiag  1:
 RMSU=  3.56D-07    CP:  1.00D+00  1.88D+00  8.58D-01  7.94D-01  7.14D-01
                    CP:  7.99D-01  9.88D-01  1.20D+00  1.19D+00  9.42D-01
 E= -265.234420949287     Delta-E=       -0.000000004813 Rises=F Damp=F
 DIIS: error= 2.32D-06 at cycle  11 NSaved=  11.
 NSaved=11 IEnMin=11 EnMin= -265.234420949287     IErMin=11 ErrMin= 2.32D-06
 ErrMax= 2.32D-06  0.00D+00 EMaxC= 1.00D-01 BMatC= 8.03D-10 BMatP= 5.01D-09
 IDIUse=1 WtCom= 1.00D+00 WtEn= 0.00D+00
 Coeff-Com:  0.160D-03-0.205D-03 0.110D-03 0.252D-03 0.228D-03-0.634D-03
 Coeff-Com: -0.454D-03-0.248D-01 0.502D-01 0.466D+00 0.509D+00
 Coeff:      0.160D-03-0.205D-03 0.110D-03 0.252D-03 0.228D-03-0.634D-03
 Coeff:     -0.454D-03-0.248D-01 0.502D-01 0.466D+00 0.509D+00
 Gap=     0.097 Goal=   None    Shift=    0.000
 RMSDP=2.52D-07 MaxDP=1.36D-05 DE=-4.81D-09 OVMax= 1.23D-05

 Cycle  12  Pass 1  IDiag  1:
 RMSU=  1.63D-07    CP:  1.00D+00  1.88D+00  8.58D-01  7.94D-01  7.14D-01
                    CP:  7.99D-01  9.90D-01  1.20D+00  1.19D+00  1.00D+00
                    CP:  8.23D-01
 E= -265.234420950121     Delta-E=       -0.000000000834 Rises=F Damp=F
 DIIS: error= 8.40D-07 at cycle  12 NSaved=  12.
 NSaved=12 IEnMin=12 EnMin= -265.234420950121     IErMin=12 ErrMin= 8.40D-07
 ErrMax= 8.40D-07  0.00D+00 EMaxC= 1.00D-01 BMatC= 1.35D-10 BMatP= 8.03D-10
 IDIUse=1 WtCom= 1.00D+00 WtEn= 0.00D+00
 Coeff-Com:  0.244D-04-0.335D-04 0.872D-04 0.273D-03 0.386D-03 0.258D-03
 Coeff-Com:  0.109D-02-0.117D-01-0.245D-01 0.123D+00 0.249D+00 0.662D+00
 Coeff:      0.244D-04-0.335D-04 0.872D-04 0.273D-03 0.386D-03 0.258D-03
 Coeff:      0.109D-02-0.117D-01-0.245D-01 0.123D+00 0.249D+00 0.662D+00
 Gap=     0.097 Goal=   None    Shift=    0.000
 RMSDP=8.43D-08 MaxDP=6.12D-06 DE=-8.34D-10 OVMax= 5.03D-06

 Cycle  13  Pass 1  IDiag  1:
 RMSU=  4.25D-08    CP:  1.00D+00  1.88D+00  8.58D-01  7.94D-01  7.14D-01
                    CP:  7.99D-01  9.91D-01  1.20D+00  1.20D+00  1.01D+00
                    CP:  8.89D-01  7.93D-01
 E= -265.234420950272     Delta-E=       -0.000000000151 Rises=F Damp=F
 DIIS: error= 1.42D-07 at cycle  13 NSaved=  13.
 NSaved=13 IEnMin=13 EnMin= -265.234420950272     IErMin=13 ErrMin= 1.42D-07
 ErrMax= 1.42D-07  0.00D+00 EMaxC= 1.00D-01 BMatC= 4.38D-12 BMatP= 1.35D-10
 IDIUse=1 WtCom= 1.00D+00 WtEn= 0.00D+00
 Coeff-Com: -0.283D-05 0.263D-05 0.119D-04 0.398D-04 0.870D-04 0.172D-03
 Coeff-Com:  0.542D-03-0.712D-03-0.121D-01-0.535D-02 0.629D-02 0.176D+00
 Coeff-Com:  0.835D+00
 Coeff:     -0.283D-05 0.263D-05 0.119D-04 0.398D-04 0.870D-04 0.172D-03
 Coeff:      0.542D-03-0.712D-03-0.121D-01-0.535D-02 0.629D-02 0.176D+00
 Coeff:      0.835D+00
 Gap=     0.097 Goal=   None    Shift=    0.000
 RMSDP=2.87D-08 MaxDP=1.55D-06 DE=-1.51D-10 OVMax= 1.81D-06

 Cycle  14  Pass 1  IDiag  1:
 RMSU=  1.19D-08    CP:  1.00D+00  1.88D+00  8.58D-01  7.94D-01  7.14D-01
                    CP:  7.99D-01  9.91D-01  1.20D+00  1.20D+00  1.02D+00
                    CP:  9.06D-01  8.64D-01  9.36D-01
 E= -265.234420950282     Delta-E=       -0.000000000010 Rises=F Damp=F
 DIIS: error= 3.05D-08 at cycle  14 NSaved=  14.
 NSaved=14 IEnMin=14 EnMin= -265.234420950282     IErMin=14 ErrMin= 3.05D-08
 ErrMax= 3.05D-08  0.00D+00 EMaxC= 1.00D-01 BMatC= 2.05D-13 BMatP= 4.38D-12
 IDIUse=1 WtCom= 1.00D+00 WtEn= 0.00D+00
 Coeff-Com: -0.128D-05 0.152D-05-0.168D-05-0.529D-05 0.707D-06 0.250D-04
 Coeff-Com:  0.916D-04 0.371D-03-0.110D-02-0.375D-02-0.137D-01 0.408D-02
 Coeff-Com:  0.249D+00 0.765D+00
 Coeff:     -0.128D-05 0.152D-05-0.168D-05-0.529D-05 0.707D-06 0.250D-04
 Coeff:      0.916D-04 0.371D-03-0.110D-02-0.375D-02-0.137D-01 0.408D-02
 Coeff:      0.249D+00 0.765D+00
 Gap=     0.097 Goal=   None    Shift=    0.000
 RMSDP=4.75D-09 MaxDP=3.79D-07 DE=-9.89D-12 OVMax= 4.18D-07

 SCF Done:  E(RB3LYP) =  -265.234420950     A.U. after   14 cycles
            NFock= 14  Conv=0.48D-08     -V/T= 2.0042
 KE= 2.641351546557D+02 PE=-1.031372782041D+03 EE= 2.832281272314D+02
 Leave Link  502 at Sun Oct 23 12:17:20 2016, MaxMem=    33554432 cpu:       532.0
 (Enter /home/proyectos/fulerenos/M3C-v2.0/M3C-deps_CCC/g09-AM64L-G09RevC.01/l801.exe)
 DoSCS=F DFT=T ScalE2(SS,OS)=  1.000000  1.000000
 Range of M.O.s used for correlation:     1   273
 NBasis=   273 NAE=    20 NBE=    20 NFC=     0 NFV=     0
 NROrb=    273 NOA=    20 NOB=    20 NVA=   253 NVB=   253

 **** Warning!!: The largest alpha MO coefficient is  0.83533377D+02


 **** Warning!!: The smallest alpha delta epsilon is  0.96948522D-01

 Leave Link  801 at Sun Oct 23 12:17:20 2016, MaxMem=    33554432 cpu:         0.1
 (Enter /home/proyectos/fulerenos/M3C-v2.0/M3C-deps_CCC/g09-AM64L-G09RevC.01/l1101.exe)
 Using compressed storage, NAtomX=     7.
 Will process      8 centers per pass.
 Leave Link 1101 at Sun Oct 23 12:17:20 2016, MaxMem=    33554432 cpu:         1.2
 (Enter /home/proyectos/fulerenos/M3C-v2.0/M3C-deps_CCC/g09-AM64L-G09RevC.01/l1102.exe)
 Symmetrizing basis deriv contribution to polar:
 IMax=3 JMax=2 DiffMx= 0.00D+00
 Leave Link 1102 at Sun Oct 23 12:17:20 2016, MaxMem=    33554432 cpu:         0.1
 (Enter /home/proyectos/fulerenos/M3C-v2.0/M3C-deps_CCC/g09-AM64L-G09RevC.01/l1110.exe)
 Forming Gx(P) for the SCF density, NAtomX=     7.
 Integral derivatives from FoFJK, PRISM(SPDF).
 Do as many integral derivatives as possible in FoFJK.
 G2DrvN: MDV=      33554272.
 G2DrvN: will do     8 centers at a time, making    1 passes.
 Calling FoFCou, ICntrl=  3107 FMM=F I1Cent=   0 AccDes= 0.00D+00.
 FoFJK:  IHMeth= 1 ICntrl=    3107 DoSepK=F KAlg= 0 I1Cent=   0 FoldK=F
 IRaf=         0 NMat=   1 IRICut=       1 DoRegI=T DoRafI=F ISym2E= 1.
 FoFCou: FMM=F IPFlag=           0 FMFlag=      100000 FMFlg1=           0
         NFxFlg=           0 DoJE=F BraDBF=F KetDBF=F FulRan=T
         wScrn=  0.000000 ICntrl=    3107 IOpCl=  0 I1Cent=           0 NGrid=           0
         NMat0=    1 NMatS0=      1 NMatT0=    0 NMatD0=    1 NMtDS0=    0 NMtDT0=    0
 Petite list used in FoFCou.
 End of G2Drv F.D. properties file   721 does not exist.
 End of G2Drv F.D. properties file   722 does not exist.
 End of G2Drv F.D. properties file   788 does not exist.
 Leave Link 1110 at Sun Oct 23 12:18:33 2016, MaxMem=    33554432 cpu:       289.3
 (Enter /home/proyectos/fulerenos/M3C-v2.0/M3C-deps_CCC/g09-AM64L-G09RevC.01/l1002.exe)
 Minotr:  Closed shell wavefunction.
          IDoAtm=1111111
          Direct CPHF calculation.
          Differentiating once with respect to electric field.
                with respect to dipole field.
          Differentiating once with respect to nuclear coordinates.
          Using symmetry in CPHF.
          Requested convergence is 1.0D-08 RMS, and 1.0D-07 maximum.
          Secondary convergence is 1.0D-12 RMS, and 1.0D-12 maximum.
          NewPWx=T KeepS1=F KeepF1=F KeepIn=T MapXYZ=F SortEE=F KeepMc=T.
          MDV=      33554085 using IRadAn=       2.
 Generate precomputed XC quadrature information.
          Solving linear equations simultaneously, MaxMat=       0.
 FoFJK:  IHMeth= 1 ICntrl=       0 DoSepK=F KAlg= 0 I1Cent=   0 FoldK=F
 IRaf= 990000000 NMat=  18 IRICut=      45 DoRegI=T DoRafI=T ISym2E= 2.
 FoFCou: FMM=F IPFlag=           0 FMFlag=      100000 FMFlg1=           0
         NFxFlg=           0 DoJE=F BraDBF=F KetDBF=F FulRan=T
         wScrn=  0.000000 ICntrl=       0 IOpCl=  0 I1Cent=           0 NGrid=           0
         NMat0=   18 NMatS0=     18 NMatT0=    0 NMatD0=   18 NMtDS0=    0 NMtDT0=    0
 Integrals replicated using symmetry in FoFCou.
          There are    18 degrees of freedom in the 1st order CPHF.  IDoFFX=4 NUNeed=    18.
     18 vectors produced by pass  0 Test12= 2.81D-14 5.56D-09 XBig12= 1.40D+02 7.21D+00.
 AX will form    18 AO Fock derivatives at one time.
     18 vectors produced by pass  1 Test12= 2.81D-14 5.56D-09 XBig12= 9.57D+01 2.94D+00.
     18 vectors produced by pass  2 Test12= 2.81D-14 5.56D-09 XBig12= 7.05D+00 5.40D-01.
     18 vectors produced by pass  3 Test12= 2.81D-14 5.56D-09 XBig12= 1.06D-01 7.22D-02.
     18 vectors produced by pass  4 Test12= 2.81D-14 5.56D-09 XBig12= 6.36D-04 5.87D-03.
     18 vectors produced by pass  5 Test12= 2.81D-14 5.56D-09 XBig12= 3.47D-06 3.63D-04.
     18 vectors produced by pass  6 Test12= 2.81D-14 5.56D-09 XBig12= 1.48D-08 1.87D-05.
      8 vectors produced by pass  7 Test12= 2.81D-14 5.56D-09 XBig12= 4.12D-11 1.12D-06.
      3 vectors produced by pass  8 Test12= 2.81D-14 5.56D-09 XBig12= 1.05D-13 5.35D-08.
      3 vectors produced by pass  9 Test12= 2.81D-14 5.56D-09 XBig12= 1.92D-14 2.76D-08.
 InvSVY:  IOpt=1 It=  1 EMax= 6.22D-15
 Solved reduced A of dimension   140 with    18 vectors.
 FullF1:  Do perturbations    1 to    18.
 Isotropic polarizability for W=    0.000000       51.43 Bohr**3.
 End of Minotr F.D. properties file   721 does not exist.
 End of Minotr F.D. properties file   722 does not exist.
 End of Minotr F.D. properties file   788 does not exist.
 Leave Link 1002 at Sun Oct 23 12:23:25 2016, MaxMem=    33554432 cpu:      1170.2
 (Enter /home/proyectos/fulerenos/M3C-v2.0/M3C-deps_CCC/g09-AM64L-G09RevC.01/l601.exe)
 Copying SCF densities to generalized density rwf, IOpCl= 0 IROHF=0.

 **********************************************************************

            Population analysis using the SCF density.

 **********************************************************************

 Orbital symmetries:
       Occupied  (A') (A") (A') (A') (A') (A") (A') (A') (A') (A")
                 (A') (A') (A') (A") (A') (A") (A") (A') (A') (A')
       Virtual   (A') (A') (A") (A") (A') (A") (A') (A") (A') (A')
                 (A") (A') (A") (A') (A') (A") (A') (A") (A') (A')
                 (A") (A') (A') (A") (A') (A') (A") (A') (A") (A')
                 (A') (A") (A') (A") (A') (A") (A') (A") (A') (A")
                 (A') (A') (A') (A") (A') (A") (A') (A') (A") (A")
                 (A') (A') (A") (A') (A') (A") (A') (A") (A') (A')
                 (A") (A') (A') (A") (A") (A') (A") (A') (A") (A')
                 (A") (A') (A') (A') (A") (A") (A') (A") (A') (A')
                 (A") (A') (A") (A') (A") (A') (A') (A') (A") (A')
                 (A") (A") (A') (A') (A") (A') (A") (A') (A") (A")
                 (A') (A") (A') (A') (A') (A') (A") (A") (A') (A")
                 (A') (A') (A") (A') (A") (A') (A") (A') (A") (A')
                 (A') (A") (A') (A") (A') (A') (A") (A') (A') (A")
                 (A') (A") (A') (A") (A") (A') (A") (A') (A') (A")
                 (A") (A') (A') (A') (A") (A') (A") (A') (A') (A")
                 (A') (A') (A") (A') (A") (A') (A') (A") (A') (A')
                 (A') (A") (A") (A') (A") (A') (A") (A') (A") (A')
                 (A") (A') (A") (A') (A") (A') (A') (A') (A") (A")
                 (A') (A") (A') (A") (A') (A") (A") (A') (A") (A")
                 (A') (A') (A") (A") (A') (A') (A") (A') (A') (A")
                 (A") (A') (A") (A') (A') (A") (A') (A") (A') (A")
                 (A") (A') (A') (A") (A") (A') (A') (A') (A') (A")
                 (A') (A') (A") (A') (A") (A") (A') (A") (A') (A")
                 (A') (A") (A') (A') (A') (A') (A") (A') (A") (A')
                 (A") (A") (A") (A') (A") (A") (A') (A') (A') (A")
                 (A') (A") (A')
 The electronic state is 1-A'.
 Alpha  occ. eigenvalues --  -10.84216 -10.84187 -10.83929 -10.83023 -10.81927
 Alpha  occ. eigenvalues --  -10.81921 -10.80162  -1.63810  -1.39197  -1.26154
 Alpha  occ. eigenvalues --   -1.19722  -1.15998  -1.00967  -0.98595  -0.93815
 Alpha  occ. eigenvalues --   -0.91719  -0.88465  -0.86688  -0.83554  -0.76187
 Alpha virt. eigenvalues --   -0.66492  -0.65168  -0.63451  -0.56939  -0.56845
 Alpha virt. eigenvalues --   -0.43548  -0.40908  -0.37910  -0.36151  -0.30829
 Alpha virt. eigenvalues --   -0.29441  -0.28338  -0.26772  -0.24250  -0.23471
 Alpha virt. eigenvalues --   -0.23041  -0.22567  -0.21682  -0.20943  -0.20251
 Alpha virt. eigenvalues --   -0.19798  -0.18934  -0.17752  -0.15372  -0.14875
 Alpha virt. eigenvalues --   -0.14698  -0.14514  -0.13828  -0.13282  -0.12819
 Alpha virt. eigenvalues --   -0.10000  -0.09783  -0.09215  -0.07875  -0.07591
 Alpha virt. eigenvalues --   -0.07436  -0.06737  -0.06444  -0.06288  -0.05578
 Alpha virt. eigenvalues --   -0.04947  -0.04044  -0.02535  -0.02474   0.01036
 Alpha virt. eigenvalues --    0.02667   0.05023   0.05113   0.05703   0.06507
 Alpha virt. eigenvalues --    0.07097   0.08599   0.09880   0.10512   0.12644
 Alpha virt. eigenvalues --    0.13250   0.14248   0.15829   0.16452   0.17070
 Alpha virt. eigenvalues --    0.17114   0.18364   0.19946   0.20536   0.21978
 Alpha virt. eigenvalues --    0.22110   0.23501   0.24174   0.25454   0.26367
 Alpha virt. eigenvalues --    0.27116   0.27520   0.28071   0.29127   0.29669
 Alpha virt. eigenvalues --    0.30677   0.34261   0.36367   0.38412   0.38508
 Alpha virt. eigenvalues --    0.40284   0.42365   0.45762   0.45964   0.49568
 Alpha virt. eigenvalues --    0.50330   0.56034   0.56604   0.58620   0.60404
 Alpha virt. eigenvalues --    0.60691   0.62832   0.63759   0.64643   0.64812
 Alpha virt. eigenvalues --    0.68456   0.70650   0.72609   0.72908   0.77856
 Alpha virt. eigenvalues --    0.80200   0.83546   0.84127   0.86229   0.94132
 Alpha virt. eigenvalues --    0.96761   0.98497   1.00859   1.01945   1.02869
 Alpha virt. eigenvalues --    1.05355   1.07784   1.09037   1.10522   1.14505
 Alpha virt. eigenvalues --    1.15162   1.22533   1.23174   1.24187   1.29437
 Alpha virt. eigenvalues --    1.31365   1.32770   1.36408   1.41243   1.41656
 Alpha virt. eigenvalues --    1.46875   1.46968   1.48019   1.54218   1.54457
 Alpha virt. eigenvalues --    1.54590   1.56808   1.63858   1.64748   1.69700
 Alpha virt. eigenvalues --    1.72933   1.76868   1.78369   1.81238   1.83058
 Alpha virt. eigenvalues --    1.87302   1.94633   2.11615   2.17064   2.17589
 Alpha virt. eigenvalues --    2.19811   2.24652   2.25308   2.28922   2.29456
 Alpha virt. eigenvalues --    2.32308   2.33827   2.36600   2.36621   2.38339
 Alpha virt. eigenvalues --    2.39314   2.44146   2.48459   2.48630   2.50513
 Alpha virt. eigenvalues --    2.53744   2.53874   2.56029   2.64204   2.68241
 Alpha virt. eigenvalues --    2.69907   2.71115   2.74957   2.78037   2.80329
 Alpha virt. eigenvalues --    2.81232   2.84300   2.86369   2.88876   2.90994
 Alpha virt. eigenvalues --    2.92709   2.97605   3.01475   3.04483   3.09782
 Alpha virt. eigenvalues --    3.12266   3.15399   3.21704   3.22588   3.37943
 Alpha virt. eigenvalues --    3.39995   3.55415   3.55883   3.59365   3.62819
 Alpha virt. eigenvalues --    3.62952   3.66396   3.66637   3.69780   3.71908
 Alpha virt. eigenvalues --    3.75303   3.75580   3.78711   3.84820   3.93934
 Alpha virt. eigenvalues --    4.00622   4.05852   4.07256   4.13771   4.25209
 Alpha virt. eigenvalues --    4.29846   4.52860   4.60419   4.81113   4.88091
 Alpha virt. eigenvalues --    4.98584   6.43561   6.45015   6.47321   6.51460
 Alpha virt. eigenvalues --    6.54593   6.58201   6.64346   6.65640   6.74977
 Alpha virt. eigenvalues --    6.75096   6.78262   6.79727   6.84956   6.85679
 Alpha virt. eigenvalues --    6.89634   6.93815   7.00077   7.01640   7.11910
 Alpha virt. eigenvalues --    7.13629   7.24294   7.27097   7.29383   7.36108
 Alpha virt. eigenvalues --    7.38536   7.45335   7.49270   7.51153   7.69358
 Alpha virt. eigenvalues --    7.71725   7.81889   8.10521   8.23918   8.28919
 Alpha virt. eigenvalues --    8.61032  23.33282  23.76474  23.99308  24.11145
 Alpha virt. eigenvalues --   24.15082  24.25470  24.41597
          Condensed to atoms (all electrons):
               1          2          3          4          5          6
     1  C    7.311661  -0.228759  -0.678434   0.109479   0.129833  -0.360077
     2  C   -0.228759   7.311661  -0.678434  -0.360077   0.129833   0.109479
     3  C   -0.678434  -0.678434   7.492594  -0.097302  -0.308268  -0.097302
     4  C    0.109479  -0.360077  -0.097302   7.497565  -0.609571  -1.124440
     5  C    0.129833   0.129833  -0.308268  -0.609571   7.334242  -0.609571
     6  C   -0.360077   0.109479  -0.097302  -1.124440  -0.609571   7.497565
     7  C   -0.477488  -0.477488  -0.035215  -0.016702   0.083873  -0.016702
               7
     1  C   -0.477488
     2  C   -0.477488
     3  C   -0.035215
     4  C   -0.016702
     5  C    0.083873
     6  C   -0.016702
     7  C    6.781379
 Mulliken charges:
               1
     1  C    0.193785
     2  C    0.193785
     3  C    0.402362
     4  C    0.601048
     5  C   -0.150370
     6  C    0.601048
     7  C    0.158341
 Sum of Mulliken charges =   2.00000
 Mulliken charges with hydrogens summed into heavy atoms:
               1
     1  C    0.193785
     2  C    0.193785
     3  C    0.402362
     4  C    0.601048
     5  C   -0.150370
     6  C    0.601048
     7  C    0.158341
 APT charges:
               1
     1  C   -0.040324
     2  C   -0.040324
     3  C    0.150577
     4  C    0.434159
     5  C    0.179149
     6  C    0.434159
     7  C    0.882605
 Sum of APT charges =   2.00000
 APT charges with hydrogens summed into heavy atoms:
               1
     1  C   -0.040324
     2  C   -0.040324
     3  C    0.150577
     4  C    0.434159
     5  C    0.179149
     6  C    0.434159
     7  C    0.882605
 Electronic spatial extent (au):  <R**2>=            323.9866
 Charge=              2.0000 electrons
 Dipole moment (field-independent basis, Debye):
    X=             -0.6993    Y=             -0.3986    Z=             -0.0000  Tot=              0.8049
 Quadrupole moment (field-independent basis, Debye-Ang):
   XX=            -27.4283   YY=            -22.1031   ZZ=            -26.3115
   XY=             -1.6086   XZ=             -0.0000   YZ=              0.0000
 Traceless Quadrupole moment (field-independent basis, Debye-Ang):
   XX=             -2.1473   YY=              3.1778   ZZ=             -1.0305
   XY=             -1.6086   XZ=             -0.0000   YZ=              0.0000
 Octapole moment (field-independent basis, Debye-Ang**2):
  XXX=              0.2172  YYY=             -3.7518  ZZZ=              0.0000  XYY=             -0.9287
  XXY=              0.0210  XXZ=              0.0000  XZZ=             -1.7534  YZZ=             -2.2370
  YYZ=              0.0000  XYZ=              0.0000
 Hexadecapole moment (field-independent basis, Debye-Ang**3):
 XXXX=           -105.7578 YYYY=           -213.5195 ZZZZ=            -90.6672 XXXY=             34.2164
 XXXZ=              0.0000 YYYX=             38.3246 YYYZ=             -0.0000 ZZZX=              0.0000
 ZZZY=              0.0000 XXYY=            -52.2588 XXZZ=            -34.7495 YYZZ=            -50.3808
 XXYZ=             -0.0000 YYXZ=              0.0000 ZZXY=             14.1587
 N-N= 2.187750792040D+02 E-N=-1.031372783557D+03  KE= 2.641351546557D+02
 Symmetry A'   KE= 1.873700034178D+02
 Symmetry A"   KE= 7.676515123797D+01
  Exact polarizability:  48.093 -11.357  62.125  -0.000   0.000  44.078
 Approx polarizability: 125.685 -30.896 162.661  -0.000  -0.000 118.873
 No NMR shielding tensors so no spin-rotation constants.
 Leave Link  601 at Sun Oct 23 12:23:26 2016, MaxMem=    33554432 cpu:         1.2
 (Enter /home/proyectos/fulerenos/M3C-v2.0/M3C-deps_CCC/g09-AM64L-G09RevC.01/l701.exe)
 Compute integral second derivatives.
 ... and contract with generalized density number  0.
 Leave Link  701 at Sun Oct 23 12:23:26 2016, MaxMem=    33554432 cpu:         1.1
 (Enter /home/proyectos/fulerenos/M3C-v2.0/M3C-deps_CCC/g09-AM64L-G09RevC.01/l702.exe)
 L702 exits ... SP integral derivatives will be done elsewhere.
 Leave Link  702 at Sun Oct 23 12:23:26 2016, MaxMem=    33554432 cpu:         0.1
 (Enter /home/proyectos/fulerenos/M3C-v2.0/M3C-deps_CCC/g09-AM64L-G09RevC.01/l703.exe)
 Compute integral second derivatives, UseDBF=F ICtDFT=           0.
 Integral derivatives from FoFJK, PRISM(SPDF).
 Calling FoFJK, ICntrl=    100127 FMM=F ISym2X=1 I1Cent= 0 IOpClX= 0 NMat=1 NMatS=1 NMatT=0.
 FoFJK:  IHMeth= 1 ICntrl=  100127 DoSepK=F KAlg= 0 I1Cent=   0 FoldK=F
 IRaf=         0 NMat=   1 IRICut=       1 DoRegI=T DoRafI=F ISym2E= 1.
 FoFCou: FMM=F IPFlag=           0 FMFlag=      100000 FMFlg1=         800
         NFxFlg=           0 DoJE=F BraDBF=F KetDBF=F FulRan=T
         wScrn=  0.000000 ICntrl=  100127 IOpCl=  0 I1Cent=           0 NGrid=           0
         NMat0=    1 NMatS0=      1 NMatT0=    0 NMatD0=    1 NMtDS0=    0 NMtDT0=    0
 Petite list used in FoFCou.
 Leave Link  703 at Sun Oct 23 12:25:12 2016, MaxMem=    33554432 cpu:       426.6
 (Enter /home/proyectos/fulerenos/M3C-v2.0/M3C-deps_CCC/g09-AM64L-G09RevC.01/l716.exe)
 Dipole        =-2.75112440D-01-1.56827293D-01-5.79286461D-14
 Polarizability= 4.80928049D+01-1.13572988D+01 6.21247466D+01
                -1.36227432D-08 4.08022195D-09 4.40778492D+01
 Full mass-weighted force constant matrix:
 Low frequencies ---  -20.1050   -9.0477    0.0003    0.0010    0.0012    2.8652
 Low frequencies ---  190.6597  278.0957  516.4720
 Diagonal vibrational polarizability:
       16.4171197      13.9774342      16.1526723
 Harmonic frequencies (cm**-1), IR intensities (KM/Mole), Raman scattering
 activities (A**4/AMU), depolarization ratios for plane and unpolarized
 incident light, reduced masses (AMU), force constants (mDyne/A),
 and normal coordinates:
                      1                      2                      3
                     A'                     A"                     A'
 Frequencies --    190.6575               278.0942               516.4714
 Red. masses --     12.0000                12.0000                12.0000
 Frc consts  --      0.2570                 0.5468                 1.8859
 IR Inten    --     14.8968                37.2824                51.7060
  Atom  AN      X      Y      Z        X      Y      Z        X      Y      Z
     1   6    -0.36  -0.17   0.00    -0.12   0.06  -0.37     0.23   0.03   0.41
     2   6    -0.36  -0.17  -0.00     0.12  -0.06  -0.37     0.23   0.03  -0.41
     3   6    -0.26   0.11  -0.00     0.00  -0.00  -0.25    -0.27   0.20   0.00
     4   6     0.08  -0.15   0.02     0.15  -0.11  -0.00    -0.19  -0.16   0.09
     5   6     0.25   0.17   0.00     0.00  -0.00   0.32    -0.03   0.39   0.00
     6   6     0.08  -0.15  -0.02    -0.15   0.11  -0.00    -0.19  -0.16  -0.09
     7   6     0.57   0.36   0.00    -0.00  -0.00   0.68     0.22  -0.34   0.00
                      4                      5                      6
                     A"                     A'                     A"
 Frequencies --    521.7393               552.4211               597.7737
 Red. masses --     12.0000                12.0000                12.0000
 Frc consts  --      1.9246                 2.1576                 2.5264
 IR Inten    --     20.8299                28.5315                 3.4012
  Atom  AN      X      Y      Z        X      Y      Z        X      Y      Z
     1   6     0.40   0.17   0.21    -0.05  -0.12  -0.07     0.33   0.09  -0.30
     2   6    -0.40  -0.17   0.21    -0.05  -0.12   0.07    -0.33  -0.09  -0.30
     3   6     0.00   0.00  -0.02     0.24   0.76   0.00    -0.00  -0.00   0.34
     4   6     0.34  -0.17  -0.31     0.07  -0.06  -0.03     0.07   0.47   0.10
     5   6    -0.00  -0.00   0.20    -0.45  -0.24  -0.00     0.00   0.00   0.07
     6   6    -0.34   0.17  -0.31     0.07  -0.06   0.03    -0.07  -0.47   0.10
     7   6    -0.00   0.00   0.02     0.15  -0.16   0.00    -0.00   0.00  -0.01
                      7                      8                      9
                     A'                     A'                     A"
 Frequencies --    664.2340               775.1439               785.0684
 Red. masses --     12.0000                12.0000                12.0000
 Frc consts  --      3.1194                 4.2481                 4.3576
 IR Inten    --      1.7034               129.9641                 1.3053
  Atom  AN      X      Y      Z        X      Y      Z        X      Y      Z
     1   6    -0.24  -0.02   0.33     0.09  -0.01   0.39    -0.03   0.31  -0.13
     2   6    -0.24  -0.02  -0.33     0.09  -0.01  -0.39     0.03  -0.31  -0.13
     3   6    -0.04  -0.14   0.00    -0.14   0.11  -0.00    -0.00  -0.00   0.62
     4   6     0.17   0.41  -0.01     0.17  -0.13   0.02    -0.12  -0.28  -0.07
     5   6    -0.02  -0.28   0.00    -0.05  -0.37   0.00    -0.00  -0.00  -0.40
     6   6     0.17   0.41   0.01     0.17  -0.13  -0.02     0.12   0.28  -0.07
     7   6     0.19  -0.36  -0.00    -0.32   0.55  -0.00    -0.00   0.00   0.18
                     10                     11                     12
                     A'                     A"                     A'
 Frequencies --    921.2424               937.4513              1006.8822
 Red. masses --     12.0000                12.0000                12.0000
 Frc consts  --      6.0004                 6.2134                 7.1678
 IR Inten    --     30.2926                 3.3207                86.1245
  Atom  AN      X      Y      Z        X      Y      Z        X      Y      Z
     1   6     0.02  -0.05  -0.05     0.09  -0.13  -0.05    -0.10  -0.30   0.22
     2   6     0.02  -0.05   0.05    -0.09   0.13  -0.05    -0.10  -0.30  -0.22
     3   6     0.04   0.23   0.00    -0.00  -0.00   0.18     0.68  -0.08  -0.00
     4   6    -0.26   0.11   0.47    -0.47  -0.04  -0.31    -0.17   0.07   0.01
     5   6     0.46  -0.35   0.00    -0.00   0.00   0.54    -0.02   0.35   0.00
     6   6    -0.26   0.11  -0.47     0.47   0.04  -0.31    -0.17   0.07  -0.01
     7   6    -0.02  -0.00   0.00     0.00  -0.00   0.00    -0.12   0.20  -0.00
                     13                     14                     15
                     A"                     A'                     A'
 Frequencies --   1104.6365              1217.7587              1250.6924
 Red. masses --     12.0000                12.0000                12.0000
 Frc consts  --      8.6272                10.4846                11.0594
 IR Inten    --     31.9746                76.3800                62.5334
  Atom  AN      X      Y      Z        X      Y      Z        X      Y      Z
     1   6    -0.22   0.50   0.19    -0.22   0.42   0.13    -0.14   0.19  -0.00
     2   6     0.22  -0.50   0.19    -0.22   0.42  -0.13    -0.14   0.19   0.00
     3   6     0.00   0.00  -0.22     0.38   0.03   0.00     0.15  -0.22  -0.00
     4   6    -0.12   0.31  -0.15    -0.13  -0.27  -0.16     0.24  -0.15   0.49
     5   6    -0.00   0.00   0.08     0.25  -0.21  -0.00    -0.38   0.17   0.00
     6   6     0.12  -0.31  -0.15    -0.13  -0.27   0.16     0.24  -0.15  -0.49
     7   6     0.00  -0.00   0.06     0.07  -0.11  -0.00     0.01  -0.03   0.00

 -------------------
 - Thermochemistry -
 -------------------
 Temperature   298.150 Kelvin.  Pressure   1.00000 Atm.
 Atom     1 has atomic number  6 and mass  12.00000
 Atom     2 has atomic number  6 and mass  12.00000
 Atom     3 has atomic number  6 and mass  12.00000
 Atom     4 has atomic number  6 and mass  12.00000
 Atom     5 has atomic number  6 and mass  12.00000
 Atom     6 has atomic number  6 and mass  12.00000
 Atom     7 has atomic number  6 and mass  12.00000
 Molecular mass:    84.00000 amu.
 Principal axes and moments of inertia in atomic units:
                           1         2         3
     Eigenvalues --   187.49262 421.78575 461.11856
           X           -0.43742   0.00000   0.89926
           Y            0.89926  -0.00000   0.43742
           Z            0.00000   1.00000   0.00000
 This molecule is an asymmetric top.
 Rotational symmetry number  1.
 Rotational temperatures (Kelvin)      0.46196     0.20535     0.18783
 Rotational constants (GHZ):           9.62567     4.27881     3.91383
 Zero-point vibrational energy      67710.2 (Joules/Mol)
                                   16.18313 (Kcal/Mol)
 Warning -- explicit consideration of   6 degrees of freedom as
           vibrations may cause significant error
 Vibrational temperatures:    274.31   400.12   743.09   750.67   794.81
          (Kelvin)            860.06   955.68  1115.26  1129.54  1325.46
                             1348.78  1448.68  1589.32  1752.08  1799.47
 
 Zero-point correction=                           0.025789 (Hartree/Particle)
 Thermal correction to Energy=                    0.030899
 Thermal correction to Enthalpy=                  0.031843
 Thermal correction to Gibbs Free Energy=        -0.002156
 Sum of electronic and zero-point Energies=           -265.208631
 Sum of electronic and thermal Energies=              -265.203522
 Sum of electronic and thermal Enthalpies=            -265.202578
 Sum of electronic and thermal Free Energies=         -265.236577
 
                     E (Thermal)             CV                S
                      KCal/Mol        Cal/Mol-Kelvin    Cal/Mol-Kelvin
 Total                   19.389             18.318             71.558
 Electronic               0.000              0.000              0.000
 Translational            0.889              2.981             39.198
 Rotational               0.889              2.981             25.103
 Vibrational             17.612             12.356              7.256
 Vibration     1          0.634              1.853              2.221
 Vibration     2          0.679              1.714              1.545
 Vibration     3          0.871              1.214              0.618
 Vibration     4          0.877              1.202              0.606
 Vibration     5          0.908              1.134              0.539
 Vibration     6          0.956              1.037              0.454
                       Q            Log10(Q)             Ln(Q)
 Total Bot       0.981559D+01          0.991917          2.283972
 Total V=0       0.714861D+13         12.854222         29.597940
 Vib (Bot)       0.474517D-11        -11.323748        -26.073894
 Vib (Bot)    1  0.104949D+01          0.020977          0.048301
 Vib (Bot)    2  0.692048D+00         -0.159864         -0.368100
 Vib (Bot)    3  0.313542D+00         -0.503704         -1.159822
 Vib (Bot)    4  0.308883D+00         -0.510206         -1.174793
 Vib (Bot)    5  0.283421D+00         -0.547568         -1.260823
 Vib (Bot)    6  0.250365D+00         -0.601426         -1.384836
 Vib (V=0)       0.345587D+01          0.538557          1.240073
 Vib (V=0)    1  0.166251D+01          0.220763          0.508327
 Vib (V=0)    2  0.135377D+01          0.131546          0.302897
 Vib (V=0)    3  0.109018D+01          0.037497          0.086340
 Vib (V=0)    4  0.108771D+01          0.036515          0.084079
 Vib (V=0)    5  0.107474D+01          0.031304          0.072080
 Vib (V=0)    6  0.105918D+01          0.024970          0.057495
 Electronic      0.100000D+01          0.000000          0.000000
 Translational   0.302604D+08          7.480874         17.225349
 Rotational      0.683582D+05          4.834791         11.132517
 
                                                              b3lyp opt
                                                             IR Spectrum
 
     1   1          1         1                                                                                                      
     2   2          1         0      9 9             77          6      5   5  55                       2        1                   
     5   1          0         0      3 2             87          6      9   5  21                       7        9                   
     1   8          5         7      7 1             55          4      8   2  26                       8        1                   
 
     X   X          X         X      X X             XX          X      X   X  XX                       X        X                   
     X   X          X         X        X              X                     X  XX                       X        X                   
     X   X          X         X        X              X                     X  XX                       X                            
     X   X          X         X        X              X                     X   X                       X                            
     X   X          X         X        X              X                         X                       X                            
     X   X                    X                       X                         X                       X                            
     X   X                    X                       X                         X                                                    
     X   X                    X                       X                         X                                                    
     X   X                    X                       X                                                                              
     X   X                    X                       X                                                                              
         X                    X                       X                                                                              
         X                    X                       X                                                                              
                              X                       X                                                                              
                                                      X                                                                              
                                                      X                                                                              
                                                      X                                                                              
                                                      X                                                                              
                                                      X                                                                              
                                                      X                                                                              
                                                      X                                                                              
 
 ***** Axes restored to original set *****
 -------------------------------------------------------------------
 Center     Atomic                   Forces (Hartrees/Bohr)
 Number     Number              X              Y              Z
 -------------------------------------------------------------------
      1        6           0.000147433   -0.000059328   -0.000071458
      2        6           0.000027052    0.000147223    0.000089199
      3        6           0.000092733   -0.000019033    0.000093955
      4        6          -0.000085427   -0.000094801    0.000025069
      5        6           0.000159585    0.000174635   -0.000104943
      6        6          -0.000100720   -0.000068561    0.000045479
      7        6          -0.000240658   -0.000080135   -0.000077300
 -------------------------------------------------------------------
 Cartesian Forces:  Max     0.000240658 RMS     0.000109029
 Z-matrix is all fixed cartesians, so copy forces.
 Force constants in Cartesian coordinates: 
                1             2             3             4             5 
      1  0.312914D+00
      2  0.695269D-01  0.190324D+00
      3  0.135541D+00  0.814974D-01  0.177578D+00
      4  0.230402D-02  0.560864D-02 -0.566571D-02  0.421467D+00
      5  0.463048D-01 -0.335173D-01 -0.919014D-02  0.342829D-02  0.975704D-01
      6  0.449853D-01 -0.417855D-01 -0.209701D-01  0.690246D-01  0.352687D-01
      7 -0.515625D-01 -0.502849D-01  0.447580D-02 -0.110789D+00 -0.213216D-01
      8 -0.388083D-01 -0.137907D+00 -0.140287D-01 -0.300605D-01 -0.282497D-01
      9 -0.560305D-03  0.405652D-02 -0.141078D-01  0.611309D-01 -0.482649D-02
     10 -0.290106D-01  0.993557D-02 -0.305212D-02 -0.162329D+00 -0.115130D-01
     11  0.554363D-02 -0.249700D-02 -0.402109D-01  0.201266D-01 -0.136915D-01
     12 -0.243990D-01 -0.952132D-02 -0.349252D-01 -0.688991D-01  0.152739D-01
     13 -0.275234D-01 -0.722743D-02 -0.446727D-01 -0.717466D-01  0.184694D-02
     14 -0.339486D-01 -0.593937D-02 -0.137289D-01  0.171575D-01  0.209952D-01
     15 -0.522965D-01 -0.118346D-01 -0.245773D-01 -0.143054D-01  0.121347D-01
     16 -0.111988D+00 -0.320683D-01 -0.720508D-01 -0.369585D-01  0.177385D-01
     17 -0.477124D-01 -0.102283D-01 -0.119737D-01  0.221660D-01 -0.210075D-01
     18 -0.961883D-01 -0.257454D-01 -0.853536D-01 -0.768413D-02 -0.304147D-01
     19 -0.951335D-01  0.450944D-02 -0.145756D-01 -0.419476D-01 -0.364840D-01
     20 -0.906153D-03 -0.235305D-03  0.763495D-02 -0.384264D-01 -0.220997D-01
     21 -0.708237D-02  0.333287D-02  0.235559D-02 -0.336011D-01 -0.182460D-01
                6             7             8             9            10 
      6  0.161779D+00
      7  0.596145D-01  0.224532D+00
      8  0.153101D-01  0.770188D-01  0.252636D+00
      9 -0.645383D-01 -0.565021D-01 -0.513740D-01  0.191501D+00
     10 -0.724719D-01  0.504384D-01 -0.823593D-02  0.842761D-02  0.310189D+00
     11  0.134876D-01 -0.330440D-01 -0.253069D-01  0.504257D-01 -0.404681D-01
     12 -0.315491D-01  0.222726D-01 -0.310738D-03 -0.988145D-01 -0.794509D-01
     13 -0.365994D-01 -0.100775D+00 -0.706272D-02 -0.362761D-01 -0.116077D+00
     14  0.547908D-02 -0.441718D-02 -0.789010D-02 -0.449059D-01 -0.781236D-02
     15 -0.728865D-02 -0.396773D-01 -0.468882D-01 -0.969205D-02  0.100129D+00
     16 -0.289854D-01 -0.199906D-02  0.228994D-01  0.235302D-01 -0.369468D-01
     17  0.301423D-03  0.448509D-01 -0.580067D-01  0.406307D-01  0.591856D-01
     18 -0.846678D-02  0.133577D-01  0.935076D-01 -0.136773D-01  0.532908D-01
     19 -0.355678D-01 -0.984418D-02 -0.157508D-01  0.249806D-03 -0.162642D-01
     20 -0.280615D-01 -0.128022D-01  0.472463D-02  0.599349D-02 -0.109175D-02
     21 -0.289660D-01 -0.354117D-02  0.378405D-02  0.932934D-02 -0.687234D-02
               11            12            13            14            15 
     11  0.178226D+00
     12  0.477288D-01  0.309495D+00
     13 -0.175661D-01  0.947224D-01  0.326128D+00
     14 -0.269894D-01  0.274990D-01  0.861912D-01  0.200054D+00
     15  0.250600D-01 -0.666011D-01  0.320630D-02  0.310369D-01  0.136461D+00
     16  0.652276D-01  0.483311D-01 -0.941696D-02 -0.641642D-01  0.577708D-02
     17 -0.110482D+00 -0.749664D-01 -0.572916D-01 -0.176144D+00 -0.427045D-02
     18 -0.915397D-01 -0.663838D-01  0.148876D-01 -0.455065D-02 -0.241063D-01
     19  0.180379D-03  0.742290D-02 -0.588824D-03  0.699362D-02 -0.283292D-02
     20  0.740632D-03 -0.570327D-02  0.110958D-02 -0.408661D-02 -0.523839D-02
     21 -0.495161D-02 -0.112213D-01  0.473195D-02 -0.829456D-03 -0.419569D-02
               16            17            18            19            20 
     16  0.209534D+00
     17 -0.156485D-01  0.389383D+00
     18  0.291146D-01  0.588152D-01  0.198994D+00
     19 -0.122245D-01 -0.555008D-02 -0.677826D-02  0.176003D+00
     20  0.601545D-02 -0.135144D-01 -0.722884D-04  0.461015D-01  0.344708D-01
     21 -0.571685D-02 -0.853685D-02 -0.100595D-02  0.520819D-01  0.254470D-01
               21 
     21  0.337040D-01
 Leave Link  716 at Sun Oct 23 12:25:13 2016, MaxMem=    33554432 cpu:         0.1
 (Enter /home/proyectos/fulerenos/M3C-v2.0/M3C-deps_CCC/g09-AM64L-G09RevC.01/l103.exe)

 GradGradGradGradGradGradGradGradGradGradGradGradGradGradGradGradGradGrad
 Berny optimization.
 Search for a local minimum.
 Step number   1 out of a maximum of    2
 All quantities printed in internal units (Hartrees-Bohrs-Radians)
 Second derivative matrix not updated -- analytic derivatives used.
 ITU=  0
     Eigenvalues ---    0.01651   0.03512   0.12113   0.12362   0.13858
     Eigenvalues ---    0.16227   0.20036   0.27286   0.27989   0.38541
     Eigenvalues ---    0.39909   0.46039   0.55413   0.67343   0.71035
 Angle between quadratic step and forces=  31.35 degrees.
 ClnCor:  largest displacement from symmetrization is 8.56D-11 for atom     2.
 Linear search not attempted -- first point.
 ClnCor:  largest displacement from symmetrization is 3.58D-15 for atom     7.
 B after Tr=     0.000000    0.000000   -0.000000
         Rot=    1.000000    0.000000   -0.000000   -0.000000 Ang=   0.00 deg.
 Variable       Old X    -DE/DX   Delta X   Delta X   Delta X     New X
                                 (Linear)    (Quad)   (Total)
    X1        0.32543   0.00015   0.00000   0.00039   0.00039   0.32582
    Y1        1.40287  -0.00006   0.00000  -0.00006  -0.00006   1.40281
    Z1        1.41748  -0.00007   0.00000  -0.00071  -0.00071   1.41677
    X2        1.71348   0.00003   0.00000  -0.00012  -0.00012   1.71336
    Y2       -0.97876   0.00015   0.00000   0.00081   0.00081  -0.97795
    Z2       -0.43497   0.00009   0.00000  -0.00004  -0.00004  -0.43501
    X3       -0.56780   0.00009   0.00000   0.00091   0.00091  -0.56689
    Y3       -1.26997  -0.00002   0.00000  -0.00032  -0.00032  -1.27028
    Z3        1.20729   0.00009   0.00000   0.00109   0.00109   1.20838
    X4       -0.45096  -0.00009   0.00000  -0.00023  -0.00023  -0.45119
    Y4       -0.57307  -0.00009   0.00000  -0.00040  -0.00040  -0.57347
    Z4       -2.11621   0.00003   0.00000  -0.00001  -0.00001  -2.11623
    X5       -2.75840   0.00016   0.00000   0.00045   0.00045  -2.75796
    Y5       -1.04350   0.00017   0.00000   0.00075   0.00075  -1.04274
    Z5       -0.72530  -0.00010   0.00000  -0.00063  -0.00063  -0.72594
    X6       -1.62354  -0.00010   0.00000  -0.00039  -0.00039  -1.62394
    Y6        1.43885  -0.00007   0.00000  -0.00012  -0.00012   1.43874
    Z6       -0.55132   0.00005   0.00000   0.00021   0.00021  -0.55111
    X7        3.36180  -0.00024   0.00000  -0.00101  -0.00101   3.36079
    Y7        1.02358  -0.00008   0.00000  -0.00067  -0.00067   1.02291
    Z7        1.20304  -0.00008   0.00000   0.00011   0.00011   1.20315
         Item               Value     Threshold  Converged?
 Maximum Force            0.000241     0.000450     YES
 RMS     Force            0.000109     0.000300     YES
 Maximum Displacement     0.001086     0.001800     YES
 RMS     Displacement     0.000556     0.001200     YES
 Predicted change in Energy=-5.436192D-07
 Optimization completed.
    -- Stationary point found.
 GradGradGradGradGradGradGradGradGradGradGradGradGradGradGradGradGradGrad

 Leave Link  103 at Sun Oct 23 12:25:13 2016, MaxMem=    33554432 cpu:         0.1
 (Enter /home/proyectos/fulerenos/M3C-v2.0/M3C-deps_CCC/g09-AM64L-G09RevC.01/l9999.exe)
 1\1\GINC-BELVIS17\Freq\RB3LYP\6-311+G(3df)\C7(2+)\ROOT\23-Oct-2016\0\\
 #p b3lyp/6-311+G(3df) freq symmetry=Loose\\b3lyp opt\\2,1\C,0.17220824
 8,0.742365535,0.750097738\C,0.9067346021,-0.5179373082,-0.2301787801\C
 ,-0.3004651658,-0.6720376124,0.6388720727\C,-0.238637461,-0.303257357,
 -1.119852192\C,-1.4596849059,-0.5521954142,-0.3838137652\C,-0.85914238
 94,0.7614071321,-0.2917451985\C,1.7789870711,0.5416540249,0.6366211249
 \\Version=EM64L-G09RevE.01\State=1-A'\HF=-265.234421\RMSD=4.751e-09\RM
 SF=1.090e-04\ZeroPoint=0.0257895\Thermal=0.0308987\Dipole=0.0258771,0.
 203032,-0.2416403\DipoleDeriv=-0.6960938,0.0921503,0.0541694,0.2069665
 ,0.3613085,0.0850499,-0.3334973,-0.3190977,0.2138118,-0.1518922,-0.442
 6692,-0.2577754,0.0124867,0.0105235,-0.3663123,-0.6028994,-0.3892478,0
 .0203952,0.1720732,0.3814748,-0.2897367,0.0939274,0.1977821,-0.3070523
 ,0.0799517,-0.0915915,0.081875,0.5565324,0.2440047,0.2508201,-0.079166
 7,0.2357748,0.2450014,0.1490956,0.32621,0.51017,-0.2865656,-0.2813098,
 -0.1483565,-0.3196466,0.3334287,-0.1615117,-0.0990684,-0.1327857,0.490
 5837,0.7764417,-0.2208856,0.024392,-0.05528,0.3450413,0.0980677,0.3286
 926,0.1349239,0.1809942,1.6295041,0.2272349,0.366487,0.1407128,0.51614
 11,0.4067573,0.4777251,0.4715888,0.5021701\Polar=63.9825509,5.756557,4
 4.8591284,7.5137196,3.3089586,45.4537213\PG=CS [SG(C3),X(C4)]\NImag=0\
 \0.31291387,0.06952694,0.19032402,0.13554111,0.08149742,0.17757841,0.0
 0230402,0.00560864,-0.00566571,0.42146692,0.04630481,-0.03351727,-0.00
 919014,0.00342829,0.09757043,0.04498534,-0.04178552,-0.02097010,0.0690
 2462,0.03526870,0.16177894,-0.05156249,-0.05028487,0.00447580,-0.11078
 905,-0.02132157,0.05961446,0.22453159,-0.03880828,-0.13790678,-0.01402
 875,-0.03006051,-0.02824968,0.01531012,0.07701884,0.25263553,-0.000560
 31,0.00405652,-0.01410778,0.06113087,-0.00482649,-0.06453833,-0.056502
 10,-0.05137401,0.19150059,-0.02901057,0.00993557,-0.00305212,-0.162329
 23,-0.01151301,-0.07247189,0.05043836,-0.00823593,0.00842761,0.3101891
 9,0.00554363,-0.00249700,-0.04021086,0.02012655,-0.01369148,0.01348765
 ,-0.03304400,-0.02530692,0.05042571,-0.04046814,0.17822586,-0.02439898
 ,-0.00952132,-0.03492521,-0.06889914,0.01527389,-0.03154910,0.02227264
 ,-0.00031074,-0.09881447,-0.07945087,0.04772882,0.30949491,-0.02752338
 ,-0.00722743,-0.04467274,-0.07174661,0.00184694,-0.03659936,-0.1007751
 6,-0.00706272,-0.03627608,-0.11607678,-0.01756605,0.09472237,0.3261277
 3,-0.03394857,-0.00593937,-0.01372894,0.01715748,0.02099520,0.00547908
 ,-0.00441718,-0.00789010,-0.04490594,-0.00781236,-0.02698944,0.0274989
 9,0.08619125,0.20005441,-0.05229653,-0.01183457,-0.02457730,-0.0143054
 2,0.01213473,-0.00728865,-0.03967734,-0.04688825,-0.00969205,0.1001288
 3,0.02506002,-0.06660108,0.00320630,0.03103691,0.13646104,-0.11198791,
 -0.03206829,-0.07205076,-0.03695848,0.01773854,-0.02898536,-0.00199906
 ,0.02289941,0.02353020,-0.03694677,0.06522763,0.04833109,-0.00941696,-
 0.06416423,0.00577708,0.20953368,-0.04771237,-0.01022828,-0.01197368,0
 .02216597,-0.02100751,0.00030142,0.04485095,-0.05800667,0.04063070,0.0
 5918561,-0.11048165,-0.07496637,-0.05729157,-0.17614409,-0.00427045,-0
 .01564852,0.38938261,-0.09618826,-0.02574541,-0.08535361,-0.00768413,-
 0.03041471,-0.00846678,0.01335770,0.09350757,-0.01367730,0.05329078,-0
 .09153973,-0.06638376,0.01488756,-0.00455065,-0.02410626,0.02911460,0.
 05881522,0.19899367,-0.09513355,0.00450944,-0.01457558,-0.04194758,-0.
 03648400,-0.03556781,-0.00984418,-0.01575082,0.00024981,-0.01626422,0.
 00018038,0.00742290,-0.00058882,0.00699362,-0.00283292,-0.01222451,-0.
 00555008,-0.00677826,0.17600285,-0.00090615,-0.00023530,0.00763495,-0.
 03842643,-0.02209969,-0.02806146,-0.01280216,0.00472463,0.00599349,-0.
 00109175,0.00074063,-0.00570327,0.00110958,-0.00408661,-0.00523839,0.0
 0601545,-0.01351441,-0.00007229,0.04610145,0.03447076,-0.00708237,0.00
 333287,0.00235559,-0.03360109,-0.01824598,-0.02896598,-0.00354117,0.00
 378405,0.00932934,-0.00687234,-0.00495161,-0.01122130,0.00473195,-0.00
 082946,-0.00419569,-0.00571685,-0.00853685,-0.00100595,0.05208187,0.02
 544696,0.03370400\\-0.00014743,0.00005933,0.00007146,-0.00002705,-0.00
 014722,-0.00008920,-0.00009273,0.00001903,-0.00009396,0.00008543,0.000
 09480,-0.00002507,-0.00015959,-0.00017464,0.00010494,0.00010072,0.0000
 6856,-0.00004548,0.00024066,0.00008013,0.00007730\\\@


 DO NOT LET SELFISH MEN OR GREEDY INTERESTS SKIN YOUR COUNTRY OF ITS
 BEAUTY, ITS RICHES, OR ITS ROMANCE. -- THEODORE ROOSEVELT
 Job cpu time:       0 days  0 hours 40 minutes 28.0 seconds.
 File lengths (MBytes):  RWF=     46 Int=      0 D2E=      0 Chk=      5 Scr=      1
 Normal termination of Gaussian 09 at Sun Oct 23 12:25:13 2016.
