 Entering Gaussian System, Link 0=/home/proyectos/fulerenos/M3C-v1.9/M3C-deps_CCC/g09-AM64L-G09RevC.01/g09
 Initial command:
 /home/proyectos/fulerenos/M3C-v1.9/M3C-deps_CCC/g09-AM64L-G09RevC.01/l1.exe "/scratch/naguirre/gaussian/Gau-12007.inp" -scrdir="/scratch/naguirre/gaussian/"
 Entering Link 1 = /home/proyectos/fulerenos/M3C-v1.9/M3C-deps_CCC/g09-AM64L-G09RevC.01/l1.exe PID=     12014.
  
 Copyright (c) 1988,1990,1992,1993,1995,1998,2003,2009,2015,
            Gaussian, Inc.  All Rights Reserved.
  
 This is part of the Gaussian(R) 09 program.  It is based on
 the Gaussian(R) 03 system (copyright 2003, Gaussian, Inc.),
 the Gaussian(R) 98 system (copyright 1998, Gaussian, Inc.),
 the Gaussian(R) 94 system (copyright 1995, Gaussian, Inc.),
 the Gaussian 92(TM) system (copyright 1992, Gaussian, Inc.),
 the Gaussian 90(TM) system (copyright 1990, Gaussian, Inc.),
 the Gaussian 88(TM) system (copyright 1988, Gaussian, Inc.),
 the Gaussian 86(TM) system (copyright 1986, Carnegie Mellon
 University), and the Gaussian 82(TM) system (copyright 1983,
 Carnegie Mellon University). Gaussian is a federally registered
 trademark of Gaussian, Inc.
  
 This software contains proprietary and confidential information,
 including trade secrets, belonging to Gaussian, Inc.
  
 This software is provided under written license and may be
 used, copied, transmitted, or stored only in accord with that
 written license.
  
 The following legend is applicable only to US Government
 contracts under FAR:
  
                    RESTRICTED RIGHTS LEGEND
  
 Use, reproduction and disclosure by the US Government is
 subject to restrictions as set forth in subparagraphs (a)
 and (c) of the Commercial Computer Software - Restricted
 Rights clause in FAR 52.227-19.
  
 Gaussian, Inc.
 340 Quinnipiac St., Bldg. 40, Wallingford CT 06492
  
  
 ---------------------------------------------------------------
 Warning -- This program may not be used in any manner that
 competes with the business of Gaussian, Inc. or will provide
 assistance to any competitor of Gaussian, Inc.  The licensee
 of this program is prohibited from giving any competitor of
 Gaussian, Inc. access to this program.  By using this program,
 the user acknowledges that Gaussian, Inc. is engaged in the
 business of creating and licensing software in the field of
 computational chemistry and represents and warrants to the
 licensee that it is not a competitor of Gaussian, Inc. and that
 it will not use this program in any manner prohibited above.
 ---------------------------------------------------------------
  

 Cite this work as:
 Gaussian 09, Revision E.01,
 M. J. Frisch, G. W. Trucks, H. B. Schlegel, G. E. Scuseria, 
 M. A. Robb, J. R. Cheeseman, G. Scalmani, V. Barone, B. Mennucci, 
 G. A. Petersson, H. Nakatsuji, M. Caricato, X. Li, H. P. Hratchian, 
 A. F. Izmaylov, J. Bloino, G. Zheng, J. L. Sonnenberg, M. Hada, 
 M. Ehara, K. Toyota, R. Fukuda, J. Hasegawa, M. Ishida, T. Nakajima, 
 Y. Honda, O. Kitao, H. Nakai, T. Vreven, J. A. Montgomery, Jr., 
 J. E. Peralta, F. Ogliaro, M. Bearpark, J. J. Heyd, E. Brothers, 
 K. N. Kudin, V. N. Staroverov, T. Keith, R. Kobayashi, J. Normand, 
 K. Raghavachari, A. Rendell, J. C. Burant, S. S. Iyengar, J. Tomasi, 
 M. Cossi, N. Rega, J. M. Millam, M. Klene, J. E. Knox, J. B. Cross, 
 V. Bakken, C. Adamo, J. Jaramillo, R. Gomperts, R. E. Stratmann, 
 O. Yazyev, A. J. Austin, R. Cammi, C. Pomelli, J. W. Ochterski, 
 R. L. Martin, K. Morokuma, V. G. Zakrzewski, G. A. Voth, 
 P. Salvador, J. J. Dannenberg, S. Dapprich, A. D. Daniels, 
 O. Farkas, J. B. Foresman, J. V. Ortiz, J. Cioslowski, 
 and D. J. Fox, Gaussian, Inc., Wallingford CT, 2013.
 
 ******************************************
 Gaussian 09:  EM64L-G09RevE.01 30-Nov-2015
                19-Jun-2016 
 ******************************************
 %NProcShared=4
 Will use up to    4 processors via shared memory.
 ---------------------------------------------
 #p b3lyp/6-311++G(3df,2p) freq symmetry=Loose
 ---------------------------------------------
 1/10=4,30=1,38=1/1,3;
 2/12=2,17=4,18=3,40=1/2;
 3/5=4,6=6,7=1216,11=2,16=1,25=1,30=1,71=2,74=-5,140=1/1,2,3;
 4//1;
 5/5=2,38=5,98=1/2;
 8/6=4,10=90,11=11/1;
 11/6=1,8=1,9=11,15=111,16=1/1,2,10;
 10/6=1/2;
 6/7=2,8=2,9=2,10=2,18=1,28=1/1;
 7/8=1,10=1,25=1/1,2,3,16;
 1/10=4,30=1/3;
 99//99;
 Leave Link    1 at Sun Jun 19 01:25:23 2016, MaxMem=           0 cpu:         0.3
 (Enter /home/proyectos/fulerenos/M3C-v1.9/M3C-deps_CCC/g09-AM64L-G09RevC.01/l101.exe)
 ---------
 b3lyp opt
 ---------
 Symbolic Z-matrix:
 Charge =  0 Multiplicity = 1
 C                     1.61423  -0.1913    1.60458 
 C                     0.11591   0.19403  -0.62793 
 C                     2.94737   0.27239   1.5596 
 C                     2.29506  -0.05765   0.3534 
 C                     0.65328  -0.28307  -1.84285 
 C                    -0.41588   0.21825   0.6225 
 C                     0.25661  -0.20201   1.62245 
 C                     1.52789   0.04751  -0.78573 
 
 NAtoms=      8 NQM=        8 NQMF=       0 NMMI=      0 NMMIF=      0
                NMic=       0 NMicF=      0.
                    Isotopes and Nuclear Properties:
 (Nuclear quadrupole moments (NQMom) in fm**2, nuclear magnetic moments (NMagM)
  in nuclear magnetons)

  Atom         1           2           3           4           5           6           7           8
 IAtWgt=          12          12          12          12          12          12          12          12
 AtmWgt=  12.0000000  12.0000000  12.0000000  12.0000000  12.0000000  12.0000000  12.0000000  12.0000000
 NucSpn=           0           0           0           0           0           0           0           0
 AtZEff=   0.0000000   0.0000000   0.0000000   0.0000000   0.0000000   0.0000000   0.0000000   0.0000000
 NQMom=    0.0000000   0.0000000   0.0000000   0.0000000   0.0000000   0.0000000   0.0000000   0.0000000
 NMagM=    0.0000000   0.0000000   0.0000000   0.0000000   0.0000000   0.0000000   0.0000000   0.0000000
 AtZNuc=   6.0000000   6.0000000   6.0000000   6.0000000   6.0000000   6.0000000   6.0000000   6.0000000
 Leave Link  101 at Sun Jun 19 01:25:23 2016, MaxMem=    33554432 cpu:         0.2
 (Enter /home/proyectos/fulerenos/M3C-v1.9/M3C-deps_CCC/g09-AM64L-G09RevC.01/l103.exe)

 GradGradGradGradGradGradGradGradGradGradGradGradGradGradGradGradGradGrad
 Berny optimization.
 Initialization pass.
 Trust Radius=3.00D-01 FncErr=1.00D-07 GrdErr=1.00D-07
 Number of steps in this run=      2 maximum allowed number of steps=      2.
 GradGradGradGradGradGradGradGradGradGradGradGradGradGradGradGradGradGrad

 Leave Link  103 at Sun Jun 19 01:25:23 2016, MaxMem=    33554432 cpu:         0.0
 (Enter /home/proyectos/fulerenos/M3C-v1.9/M3C-deps_CCC/g09-AM64L-G09RevC.01/l202.exe)
                          Input orientation:                          
 ---------------------------------------------------------------------
 Center     Atomic      Atomic             Coordinates (Angstroms)
 Number     Number       Type             X           Y           Z
 ---------------------------------------------------------------------
      1          6           0        1.614227   -0.191300    1.604583
      2          6           0        0.115912    0.194034   -0.627930
      3          6           0        2.947365    0.272390    1.559601
      4          6           0        2.295059   -0.057652    0.353396
      5          6           0        0.653279   -0.283071   -1.842851
      6          6           0       -0.415881    0.218246    0.622496
      7          6           0        0.256614   -0.202014    1.622452
      8          6           0        1.527890    0.047508   -0.785731
 ---------------------------------------------------------------------
                    Distance matrix (angstroms):
                    1          2          3          4          5
     1  C    0.000000
     2  C    2.716164   0.000000
     3  C    1.412193   3.578905   0.000000
     4  C    1.430686   2.403129   1.410447   0.000000
     5  C    3.580034   1.411533   4.141020   2.751319   0.000000
     6  C    2.292065   1.359027   3.491779   2.738198   2.733561
     7  C    1.357773   2.289295   2.732975   2.405536   3.488873
     8  C    2.403765   1.428304   2.750648   1.377395   1.411286
                    6          7          8
     6  C    0.000000
     7  C    1.276237   0.000000
     8  C    2.406346   2.734547   0.000000
 Stoichiometry    C8
 Framework group  C1[X(C8)]
 Deg. of freedom    18
 Full point group                 C1      NOp   1
 Largest Abelian subgroup         C1      NOp   1
 Largest concise Abelian subgroup C1      NOp   1
                         Standard orientation:                         
 ---------------------------------------------------------------------
 Center     Atomic      Atomic             Coordinates (Angstroms)
 Number     Number       Type             X           Y           Z
 ---------------------------------------------------------------------
      1          6           0        1.340061    0.314268    0.222563
      2          6           0       -1.339443    0.311378   -0.222173
      3          6           0        2.057992   -0.813743   -0.231812
      4          6           0        0.686231   -0.948756    0.067194
      5          6           0       -2.056888   -0.815899    0.232739
      6          6           0       -0.599468    1.451286   -0.223502
      7          6           0        0.595997    1.450012    0.223310
      8          6           0       -0.684482   -0.948545   -0.068320
 ---------------------------------------------------------------------
 Rotational constants (GHZ):      5.3663014      3.0026756      1.9826038
 Leave Link  202 at Sun Jun 19 01:25:23 2016, MaxMem=    33554432 cpu:         0.0
 (Enter /home/proyectos/fulerenos/M3C-v1.9/M3C-deps_CCC/g09-AM64L-G09RevC.01/l301.exe)
 Standard basis: 6-311++G(3df,2p) (5D, 7F)
 Ernie: Thresh=  0.10000D-02 Tol=  0.10000D-05 Strict=F.
 There are   360 symmetry adapted cartesian basis functions of A   symmetry.
 There are   312 symmetry adapted basis functions of A   symmetry.
   312 basis functions,   464 primitive gaussians,   360 cartesian basis functions
    24 alpha electrons       24 beta electrons
       nuclear repulsion energy       260.6601030126 Hartrees.
 IExCor=  402 DFT=T Ex+Corr=B3LYP ExCW=0 ScaHFX=  0.200000
 ScaDFX=  0.800000  0.720000  1.000000  0.810000 ScalE2=  1.000000  1.000000
 IRadAn=      0 IRanWt=     -1 IRanGd=            0 ICorTp=0 IEmpDi=  4
 NAtoms=    8 NActive=    8 NUniq=    8 SFac= 1.00D+00 NAtFMM=   60 NAOKFM=F Big=F
 Integral buffers will be    131072 words long.
 Raffenetti 2 integral format.
 Two-electron integral symmetry is turned on.
 Leave Link  301 at Sun Jun 19 01:25:23 2016, MaxMem=    33554432 cpu:         0.2
 (Enter /home/proyectos/fulerenos/M3C-v1.9/M3C-deps_CCC/g09-AM64L-G09RevC.01/l302.exe)
 NPDir=0 NMtPBC=     1 NCelOv=     1 NCel=       1 NClECP=     1 NCelD=      1
         NCelK=      1 NCelE2=     1 NClLst=     1 CellRange=     0.0.
 One-electron integrals computed using PRISM.
 NBasis=   312 RedAO= T EigKep=  2.74D-06  NBF=   312
 NBsUse=   312 1.00D-06 EigRej= -1.00D+00 NBFU=   312
 Precomputing XC quadrature grid using
 IXCGrd= 4 IRadAn=           0 IRanWt=          -1 IRanGd=           0 AccXCQ= 0.00D+00.
 Generated NRdTot=       0 NPtTot=           0 NUsed=           0 NTot=          32
 NSgBfM=   360   360   360   360   360 MxSgAt=     8 MxSgA2=     8.
 Leave Link  302 at Sun Jun 19 01:25:24 2016, MaxMem=    33554432 cpu:         1.5
 (Enter /home/proyectos/fulerenos/M3C-v1.9/M3C-deps_CCC/g09-AM64L-G09RevC.01/l303.exe)
 DipDrv:  MaxL=1.
 Leave Link  303 at Sun Jun 19 01:25:24 2016, MaxMem=    33554432 cpu:         0.2
 (Enter /home/proyectos/fulerenos/M3C-v1.9/M3C-deps_CCC/g09-AM64L-G09RevC.01/l401.exe)
 ExpMin= 4.38D-02 ExpMax= 4.56D+03 ExpMxC= 6.82D+02 IAcc=2 IRadAn=         4 AccDes= 0.00D+00
 Harris functional with IExCor=  402 and IRadAn=       4 diagonalized for initial guess.
 HarFok:  IExCor=  402 AccDes= 0.00D+00 IRadAn=         4 IDoV= 1 UseB2=F ITyADJ=14
 ICtDFT=  3500011 ScaDFX=  1.000000  1.000000  1.000000  1.000000
 FoFCou: FMM=F IPFlag=           0 FMFlag=      100000 FMFlg1=           0
         NFxFlg=           0 DoJE=T BraDBF=F KetDBF=T FulRan=T
         wScrn=  0.000000 ICntrl=     500 IOpCl=  0 I1Cent=   200000004 NGrid=           0
         NMat0=    1 NMatS0=      1 NMatT0=    0 NMatD0=    1 NMtDS0=    0 NMtDT0=    0
 Petite list used in FoFCou.
 Harris En= -304.462492175056    
 JPrj=0 DoOrth=F DoCkMO=F.
 Leave Link  401 at Sun Jun 19 01:25:26 2016, MaxMem=    33554432 cpu:         6.7
 (Enter /home/proyectos/fulerenos/M3C-v1.9/M3C-deps_CCC/g09-AM64L-G09RevC.01/l502.exe)
 Closed shell SCF:
 Using DIIS extrapolation, IDIIS=  1040.
 Integral symmetry usage will be decided dynamically.
 IVT=      412070 IEndB=      412070 NGot=    33554432 MDV=    33288963
 LenX=    33288963 LenY=    33158922
 Requested convergence on RMS density matrix=1.00D-08 within 128 cycles.
 Requested convergence on MAX density matrix=1.00D-06.
 Requested convergence on             energy=1.00D-06.
 No special actions if energy rises.
 Fock matrices will be formed incrementally for  20 cycles.

 Cycle   1  Pass 1  IDiag  1:
 FoFJK:  IHMeth= 1 ICntrl=       0 DoSepK=F KAlg= 0 I1Cent=   0 FoldK=F
 IRaf= 990000000 NMat=   1 IRICut=       1 DoRegI=T DoRafI=F ISym2E= 0.
 FoFCou: FMM=F IPFlag=           0 FMFlag=      100000 FMFlg1=           0
         NFxFlg=           0 DoJE=F BraDBF=F KetDBF=F FulRan=T
         wScrn=  0.000000 ICntrl=       0 IOpCl=  0 I1Cent=           0 NGrid=           0
         NMat0=    1 NMatS0=      1 NMatT0=    0 NMatD0=    1 NMtDS0=    0 NMtDT0=    0
 Symmetry not used in FoFCou.
 E= -304.365067782486    
 DIIS: error= 1.47D-02 at cycle   1 NSaved=   1.
 NSaved= 1 IEnMin= 1 EnMin= -304.365067782486     IErMin= 1 ErrMin= 1.47D-02
 ErrMax= 1.47D-02  0.00D+00 EMaxC= 1.00D-01 BMatC= 1.01D-01 BMatP= 1.01D-01
 IDIUse=3 WtCom= 8.53D-01 WtEn= 1.47D-01
 Coeff-Com:  0.100D+01
 Coeff-En:   0.100D+01
 Coeff:      0.100D+01
 Gap=     0.098 Goal=   None    Shift=    0.000
 GapD=    0.098 DampG=0.500 DampE=0.500 DampFc=0.2500 IDamp=-1.
 Damping current iteration by 2.50D-01
 RMSDP=9.70D-03 MaxDP=5.36D-01              OVMax= 1.47D-01

 Cycle   2  Pass 1  IDiag  1:
 RMSU=  2.36D-03    CP:  9.75D-01
 E= -304.395737287864     Delta-E=       -0.030669505379 Rises=F Damp=T
 DIIS: error= 8.43D-03 at cycle   2 NSaved=   2.
 NSaved= 2 IEnMin= 2 EnMin= -304.395737287864     IErMin= 2 ErrMin= 8.43D-03
 ErrMax= 8.43D-03  0.00D+00 EMaxC= 1.00D-01 BMatC= 3.67D-02 BMatP= 1.01D-01
 IDIUse=3 WtCom= 9.16D-01 WtEn= 8.43D-02
 Coeff-Com: -0.129D+01 0.229D+01
 Coeff-En:   0.000D+00 0.100D+01
 Coeff:     -0.118D+01 0.218D+01
 Gap=     0.108 Goal=   None    Shift=    0.000
 RMSDP=3.94D-03 MaxDP=1.64D-01 DE=-3.07D-02 OVMax= 1.11D-01

 Cycle   3  Pass 1  IDiag  1:
 RMSU=  2.32D-03    CP:  9.13D-01  2.21D+00
 E= -304.441090729467     Delta-E=       -0.045353441602 Rises=F Damp=F
 DIIS: error= 1.15D-02 at cycle   3 NSaved=   3.
 NSaved= 3 IEnMin= 3 EnMin= -304.441090729467     IErMin= 2 ErrMin= 8.43D-03
 ErrMax= 1.15D-02  0.00D+00 EMaxC= 1.00D-01 BMatC= 1.29D-02 BMatP= 3.67D-02
 IDIUse=3 WtCom= 8.85D-01 WtEn= 1.15D-01
 Coeff-Com: -0.855D+00 0.144D+01 0.416D+00
 Coeff-En:   0.000D+00 0.000D+00 0.100D+01
 Coeff:     -0.757D+00 0.127D+01 0.483D+00
 Gap=     0.115 Goal=   None    Shift=    0.000
 RMSDP=2.21D-03 MaxDP=1.42D-01 DE=-4.54D-02 OVMax= 1.02D-01

 Cycle   4  Pass 1  IDiag  1:
 RMSU=  1.78D-03    CP:  8.98D-01  2.12D+00  4.62D-01
 E= -304.445355181561     Delta-E=       -0.004264452094 Rises=F Damp=F
 DIIS: error= 9.31D-03 at cycle   4 NSaved=   4.
 NSaved= 4 IEnMin= 4 EnMin= -304.445355181561     IErMin= 2 ErrMin= 8.43D-03
 ErrMax= 9.31D-03  0.00D+00 EMaxC= 1.00D-01 BMatC= 8.73D-03 BMatP= 1.29D-02
 IDIUse=3 WtCom= 9.07D-01 WtEn= 9.31D-02
 Coeff-Com: -0.278D+00 0.438D+00 0.421D+00 0.419D+00
 Coeff-En:   0.000D+00 0.000D+00 0.441D+00 0.559D+00
 Coeff:     -0.252D+00 0.397D+00 0.423D+00 0.432D+00
 Gap=     0.109 Goal=   None    Shift=    0.000
 RMSDP=1.19D-03 MaxDP=6.86D-02 DE=-4.26D-03 OVMax= 5.67D-02

 Cycle   5  Pass 1  IDiag  1:
 RMSU=  3.92D-04    CP:  9.01D-01  2.26D+00  6.56D-01  4.55D-01
 E= -304.455378382073     Delta-E=       -0.010023200513 Rises=F Damp=F
 DIIS: error= 1.15D-03 at cycle   5 NSaved=   5.
 NSaved= 5 IEnMin= 5 EnMin= -304.455378382073     IErMin= 5 ErrMin= 1.15D-03
 ErrMax= 1.15D-03  0.00D+00 EMaxC= 1.00D-01 BMatC= 3.44D-04 BMatP= 8.73D-03
 IDIUse=3 WtCom= 9.88D-01 WtEn= 1.15D-02
 Coeff-Com: -0.105D+00 0.155D+00 0.248D+00 0.283D+00 0.418D+00
 Coeff-En:   0.000D+00 0.000D+00 0.000D+00 0.000D+00 0.100D+01
 Coeff:     -0.103D+00 0.153D+00 0.245D+00 0.280D+00 0.425D+00
 Gap=     0.111 Goal=   None    Shift=    0.000
 RMSDP=2.85D-04 MaxDP=1.27D-02 DE=-1.00D-02 OVMax= 1.06D-02

 Cycle   6  Pass 1  IDiag  1:
 RMSU=  1.70D-04    CP:  9.00D-01  2.22D+00  6.37D-01  4.93D-01  5.25D-01
 E= -304.455728598480     Delta-E=       -0.000350216406 Rises=F Damp=F
 DIIS: error= 3.96D-04 at cycle   6 NSaved=   6.
 NSaved= 6 IEnMin= 6 EnMin= -304.455728598480     IErMin= 6 ErrMin= 3.96D-04
 ErrMax= 3.96D-04  0.00D+00 EMaxC= 1.00D-01 BMatC= 2.66D-05 BMatP= 3.44D-04
 IDIUse=3 WtCom= 9.96D-01 WtEn= 3.96D-03
 Coeff-Com: -0.121D-01 0.144D-01 0.574D-01 0.702D-01 0.251D+00 0.619D+00
 Coeff-En:   0.000D+00 0.000D+00 0.000D+00 0.000D+00 0.838D-01 0.916D+00
 Coeff:     -0.121D-01 0.143D-01 0.572D-01 0.699D-01 0.250D+00 0.620D+00
 Gap=     0.111 Goal=   None    Shift=    0.000
 RMSDP=8.10D-05 MaxDP=4.43D-03 DE=-3.50D-04 OVMax= 2.23D-03

 Cycle   7  Pass 1  IDiag  1:
 RMSU=  2.88D-05    CP:  8.99D-01  2.23D+00  6.51D-01  4.90D-01  6.11D-01
                    CP:  7.25D-01
 E= -304.455757706275     Delta-E=       -0.000029107796 Rises=F Damp=F
 DIIS: error= 4.57D-05 at cycle   7 NSaved=   7.
 NSaved= 7 IEnMin= 7 EnMin= -304.455757706275     IErMin= 7 ErrMin= 4.57D-05
 ErrMax= 4.57D-05  0.00D+00 EMaxC= 1.00D-01 BMatC= 5.02D-07 BMatP= 2.66D-05
 IDIUse=1 WtCom= 1.00D+00 WtEn= 0.00D+00
 Coeff-Com: -0.101D-02 0.270D-03 0.120D-01 0.161D-01 0.809D-01 0.222D+00
 Coeff-Com:  0.670D+00
 Coeff:     -0.101D-02 0.270D-03 0.120D-01 0.161D-01 0.809D-01 0.222D+00
 Coeff:      0.670D+00
 Gap=     0.111 Goal=   None    Shift=    0.000
 RMSDP=1.32D-05 MaxDP=7.36D-04 DE=-2.91D-05 OVMax= 4.46D-04

 Cycle   8  Pass 1  IDiag  1:
 RMSU=  1.10D-05    CP:  9.00D-01  2.23D+00  6.50D-01  4.91D-01  6.13D-01
                    CP:  7.08D-01  8.45D-01
 E= -304.455758017634     Delta-E=       -0.000000311359 Rises=F Damp=F
 DIIS: error= 3.36D-05 at cycle   8 NSaved=   8.
 NSaved= 8 IEnMin= 8 EnMin= -304.455758017634     IErMin= 8 ErrMin= 3.36D-05
 ErrMax= 3.36D-05  0.00D+00 EMaxC= 1.00D-01 BMatC= 2.54D-07 BMatP= 5.02D-07
 IDIUse=1 WtCom= 1.00D+00 WtEn= 0.00D+00
 Coeff-Com:  0.912D-03-0.162D-02 0.137D-03 0.112D-02 0.171D-01 0.500D-01
 Coeff-Com:  0.422D+00 0.510D+00
 Coeff:      0.912D-03-0.162D-02 0.137D-03 0.112D-02 0.171D-01 0.500D-01
 Coeff:      0.422D+00 0.510D+00
 Gap=     0.111 Goal=   None    Shift=    0.000
 RMSDP=6.20D-06 MaxDP=3.89D-04 DE=-3.11D-07 OVMax= 1.60D-04

 Cycle   9  Pass 1  IDiag  1:
 RMSU=  3.63D-06    CP:  9.00D-01  2.23D+00  6.50D-01  4.91D-01  6.20D-01
                    CP:  7.14D-01  9.14D-01  7.04D-01
 E= -304.455758238820     Delta-E=       -0.000000221186 Rises=F Damp=F
 DIIS: error= 1.24D-05 at cycle   9 NSaved=   9.
 NSaved= 9 IEnMin= 9 EnMin= -304.455758238820     IErMin= 9 ErrMin= 1.24D-05
 ErrMax= 1.24D-05  0.00D+00 EMaxC= 1.00D-01 BMatC= 2.76D-08 BMatP= 2.54D-07
 IDIUse=1 WtCom= 1.00D+00 WtEn= 0.00D+00
 Coeff-Com:  0.656D-03-0.102D-02-0.941D-03-0.802D-03 0.256D-02 0.829D-02
 Coeff-Com:  0.194D+00 0.308D+00 0.490D+00
 Coeff:      0.656D-03-0.102D-02-0.941D-03-0.802D-03 0.256D-02 0.829D-02
 Coeff:      0.194D+00 0.308D+00 0.490D+00
 Gap=     0.111 Goal=   None    Shift=    0.000
 RMSDP=2.62D-06 MaxDP=2.07D-04 DE=-2.21D-07 OVMax= 1.24D-04

 Cycle  10  Pass 1  IDiag  1:
 RMSU=  1.99D-06    CP:  9.00D-01  2.23D+00  6.50D-01  4.91D-01  6.19D-01
                    CP:  7.15D-01  9.33D-01  7.43D-01  6.04D-01
 E= -304.455758253568     Delta-E=       -0.000000014747 Rises=F Damp=F
 DIIS: error= 1.02D-05 at cycle  10 NSaved=  10.
 NSaved=10 IEnMin=10 EnMin= -304.455758253568     IErMin=10 ErrMin= 1.02D-05
 ErrMax= 1.02D-05  0.00D+00 EMaxC= 1.00D-01 BMatC= 1.57D-08 BMatP= 2.76D-08
 IDIUse=1 WtCom= 1.00D+00 WtEn= 0.00D+00
 Coeff-Com:  0.337D-03-0.464D-03-0.844D-03-0.104D-02-0.260D-02-0.709D-02
 Coeff-Com:  0.545D-01 0.126D+00 0.419D+00 0.412D+00
 Coeff:      0.337D-03-0.464D-03-0.844D-03-0.104D-02-0.260D-02-0.709D-02
 Coeff:      0.545D-01 0.126D+00 0.419D+00 0.412D+00
 Gap=     0.111 Goal=   None    Shift=    0.000
 RMSDP=1.32D-06 MaxDP=1.13D-04 DE=-1.47D-08 OVMax= 5.99D-05

 Cycle  11  Pass 1  IDiag  1:
 RMSU=  6.35D-07    CP:  9.00D-01  2.23D+00  6.50D-01  4.91D-01  6.19D-01
                    CP:  7.15D-01  9.42D-01  7.46D-01  7.59D-01  5.50D-01
 E= -304.455758271466     Delta-E=       -0.000000017899 Rises=F Damp=F
 DIIS: error= 1.42D-06 at cycle  11 NSaved=  11.
 NSaved=11 IEnMin=11 EnMin= -304.455758271466     IErMin=11 ErrMin= 1.42D-06
 ErrMax= 1.42D-06  0.00D+00 EMaxC= 1.00D-01 BMatC= 3.60D-10 BMatP= 1.57D-08
 IDIUse=1 WtCom= 1.00D+00 WtEn= 0.00D+00
 Coeff-Com:  0.190D-04-0.154D-04-0.810D-04-0.228D-03-0.107D-02-0.360D-02
 Coeff-Com: -0.104D-01-0.123D-01 0.534D-01 0.142D+00 0.833D+00
 Coeff:      0.190D-04-0.154D-04-0.810D-04-0.228D-03-0.107D-02-0.360D-02
 Coeff:     -0.104D-01-0.123D-01 0.534D-01 0.142D+00 0.833D+00
 Gap=     0.111 Goal=   None    Shift=    0.000
 RMSDP=4.02D-07 MaxDP=1.70D-05 DE=-1.79D-08 OVMax= 1.98D-05

 Cycle  12  Pass 1  IDiag  1:
 RMSU=  1.49D-07    CP:  9.00D-01  2.23D+00  6.50D-01  4.91D-01  6.19D-01
                    CP:  7.15D-01  9.46D-01  7.55D-01  7.89D-01  6.28D-01
                    CP:  9.81D-01
 E= -304.455758272027     Delta-E=       -0.000000000561 Rises=F Damp=F
 DIIS: error= 1.93D-07 at cycle  12 NSaved=  12.
 NSaved=12 IEnMin=12 EnMin= -304.455758272027     IErMin=12 ErrMin= 1.93D-07
 ErrMax= 1.93D-07  0.00D+00 EMaxC= 1.00D-01 BMatC= 1.14D-11 BMatP= 3.60D-10
 IDIUse=1 WtCom= 1.00D+00 WtEn= 0.00D+00
 Coeff-Com: -0.108D-04 0.167D-04 0.187D-04 0.103D-05-0.571D-04-0.531D-03
 Coeff-Com: -0.531D-02-0.112D-01-0.191D-01-0.584D-03 0.150D+00 0.886D+00
 Coeff:     -0.108D-04 0.167D-04 0.187D-04 0.103D-05-0.571D-04-0.531D-03
 Coeff:     -0.531D-02-0.112D-01-0.191D-01-0.584D-03 0.150D+00 0.886D+00
 Gap=     0.111 Goal=   None    Shift=    0.000
 RMSDP=1.10D-07 MaxDP=4.94D-06 DE=-5.61D-10 OVMax= 5.72D-06

 Cycle  13  Pass 1  IDiag  1:
 RMSU=  5.38D-08    CP:  9.00D-01  2.23D+00  6.50D-01  4.91D-01  6.19D-01
                    CP:  7.15D-01  9.47D-01  7.56D-01  7.95D-01  6.52D-01
                    CP:  1.03D+00  1.11D+00
 E= -304.455758272064     Delta-E=       -0.000000000037 Rises=F Damp=F
 DIIS: error= 1.01D-07 at cycle  13 NSaved=  13.
 NSaved=13 IEnMin=13 EnMin= -304.455758272064     IErMin=13 ErrMin= 1.01D-07
 ErrMax= 1.01D-07  0.00D+00 EMaxC= 1.00D-01 BMatC= 4.63D-12 BMatP= 1.14D-11
 IDIUse=1 WtCom= 1.00D+00 WtEn= 0.00D+00
 Coeff-Com: -0.812D-05 0.115D-04 0.180D-04 0.197D-04 0.431D-04-0.572D-04
 Coeff-Com: -0.257D-02-0.623D-02-0.163D-01-0.115D-01 0.370D-01 0.547D+00
 Coeff-Com:  0.453D+00
 Coeff:     -0.812D-05 0.115D-04 0.180D-04 0.197D-04 0.431D-04-0.572D-04
 Coeff:     -0.257D-02-0.623D-02-0.163D-01-0.115D-01 0.370D-01 0.547D+00
 Coeff:      0.453D+00
 Gap=     0.111 Goal=   None    Shift=    0.000
 RMSDP=3.53D-08 MaxDP=1.48D-06 DE=-3.69D-11 OVMax= 1.19D-06

 Cycle  14  Pass 1  IDiag  1:
 RMSU=  1.99D-08    CP:  9.00D-01  2.23D+00  6.50D-01  4.91D-01  6.19D-01
                    CP:  7.15D-01  9.47D-01  7.56D-01  7.98D-01  6.49D-01
                    CP:  1.04D+00  1.19D+00  6.12D-01
 E= -304.455758272080     Delta-E=       -0.000000000016 Rises=F Damp=F
 DIIS: error= 4.55D-08 at cycle  14 NSaved=  14.
 NSaved=14 IEnMin=14 EnMin= -304.455758272080     IErMin=14 ErrMin= 4.55D-08
 ErrMax= 4.55D-08  0.00D+00 EMaxC= 1.00D-01 BMatC= 4.41D-13 BMatP= 4.63D-12
 IDIUse=1 WtCom= 1.00D+00 WtEn= 0.00D+00
 Coeff-Com: -0.150D-05 0.175D-05 0.501D-05 0.123D-04 0.323D-04 0.119D-03
 Coeff-Com:  0.582D-05-0.362D-03-0.375D-02-0.538D-02-0.116D-01 0.586D-01
 Coeff-Com:  0.173D+00 0.790D+00
 Coeff:     -0.150D-05 0.175D-05 0.501D-05 0.123D-04 0.323D-04 0.119D-03
 Coeff:      0.582D-05-0.362D-03-0.375D-02-0.538D-02-0.116D-01 0.586D-01
 Coeff:      0.173D+00 0.790D+00
 Gap=     0.111 Goal=   None    Shift=    0.000
 RMSDP=1.42D-08 MaxDP=6.86D-07 DE=-1.60D-11 OVMax= 7.91D-07

 Cycle  15  Pass 1  IDiag  1:
 RMSU=  7.31D-09    CP:  9.00D-01  2.23D+00  6.50D-01  4.91D-01  6.19D-01
                    CP:  7.15D-01  9.47D-01  7.56D-01  7.98D-01  6.51D-01
                    CP:  1.05D+00  1.24D+00  7.65D-01  1.05D+00
 E= -304.455758272056     Delta-E=        0.000000000024 Rises=F Damp=F
 DIIS: error= 2.20D-08 at cycle  15 NSaved=  15.
 NSaved=15 IEnMin=14 EnMin= -304.455758272080     IErMin=15 ErrMin= 2.20D-08
 ErrMax= 2.20D-08  0.00D+00 EMaxC= 1.00D-01 BMatC= 1.49D-13 BMatP= 4.41D-13
 IDIUse=1 WtCom= 1.00D+00 WtEn= 0.00D+00
 Coeff-Com:  0.295D-06-0.670D-06 0.353D-06 0.554D-05 0.134D-04 0.928D-04
 Coeff-Com:  0.409D-03 0.754D-03-0.143D-04-0.190D-02-0.125D-01-0.453D-01
 Coeff-Com:  0.397D-01 0.499D+00 0.520D+00
 Coeff:      0.295D-06-0.670D-06 0.353D-06 0.554D-05 0.134D-04 0.928D-04
 Coeff:      0.409D-03 0.754D-03-0.143D-04-0.190D-02-0.125D-01-0.453D-01
 Coeff:      0.397D-01 0.499D+00 0.520D+00
 Gap=     0.111 Goal=   None    Shift=    0.000
 RMSDP=5.39D-09 MaxDP=2.82D-07 DE= 2.41D-11 OVMax= 2.57D-07

 SCF Done:  E(RB3LYP) =  -304.455758272     A.U. after   15 cycles
            NFock= 15  Conv=0.54D-08     -V/T= 2.0044
 KE= 3.031123336698D+02 PE=-1.225930644871D+03 EE= 3.577024499166D+02
 Leave Link  502 at Sun Jun 19 01:32:09 2016, MaxMem=    33554432 cpu:      1591.5
 (Enter /home/proyectos/fulerenos/M3C-v1.9/M3C-deps_CCC/g09-AM64L-G09RevC.01/l801.exe)
 DoSCS=F DFT=T ScalE2(SS,OS)=  1.000000  1.000000
 Range of M.O.s used for correlation:     1   312
 NBasis=   312 NAE=    24 NBE=    24 NFC=     0 NFV=     0
 NROrb=    312 NOA=    24 NOB=    24 NVA=   288 NVB=   288

 **** Warning!!: The largest alpha MO coefficient is  0.18791309D+03

 Leave Link  801 at Sun Jun 19 01:32:09 2016, MaxMem=    33554432 cpu:         0.1
 (Enter /home/proyectos/fulerenos/M3C-v1.9/M3C-deps_CCC/g09-AM64L-G09RevC.01/l1101.exe)
 Using compressed storage, NAtomX=     8.
 Will process      9 centers per pass.
 Leave Link 1101 at Sun Jun 19 01:32:10 2016, MaxMem=    33554432 cpu:         1.9
 (Enter /home/proyectos/fulerenos/M3C-v1.9/M3C-deps_CCC/g09-AM64L-G09RevC.01/l1102.exe)
 Symmetrizing basis deriv contribution to polar:
 IMax=3 JMax=2 DiffMx= 0.00D+00
 Leave Link 1102 at Sun Jun 19 01:32:10 2016, MaxMem=    33554432 cpu:         0.3
 (Enter /home/proyectos/fulerenos/M3C-v1.9/M3C-deps_CCC/g09-AM64L-G09RevC.01/l1110.exe)
 Forming Gx(P) for the SCF density, NAtomX=     8.
 Integral derivatives from FoFJK, PRISM(SPDF).
 Do as many integral derivatives as possible in FoFJK.
 G2DrvN: MDV=      33554264.
 G2DrvN: will do     9 centers at a time, making    1 passes.
 Calling FoFCou, ICntrl=  3107 FMM=F I1Cent=   0 AccDes= 0.00D+00.
 FoFJK:  IHMeth= 1 ICntrl=    3107 DoSepK=F KAlg= 0 I1Cent=   0 FoldK=F
 IRaf=         0 NMat=   1 IRICut=       1 DoRegI=T DoRafI=F ISym2E= 0.
 FoFCou: FMM=F IPFlag=           0 FMFlag=      100000 FMFlg1=           0
         NFxFlg=           0 DoJE=F BraDBF=F KetDBF=F FulRan=T
         wScrn=  0.000000 ICntrl=    3107 IOpCl=  0 I1Cent=           0 NGrid=           0
         NMat0=    1 NMatS0=      1 NMatT0=    0 NMatD0=    1 NMtDS0=    0 NMtDT0=    0
 Symmetry not used in FoFCou.
 End of G2Drv F.D. properties file   721 does not exist.
 End of G2Drv F.D. properties file   722 does not exist.
 End of G2Drv F.D. properties file   788 does not exist.
 Leave Link 1110 at Sun Jun 19 01:35:52 2016, MaxMem=    33554432 cpu:       867.4
 (Enter /home/proyectos/fulerenos/M3C-v1.9/M3C-deps_CCC/g09-AM64L-G09RevC.01/l1002.exe)
 Minotr:  Closed shell wavefunction.
          IDoAtm=11111111
          Direct CPHF calculation.
          Differentiating once with respect to electric field.
                with respect to dipole field.
          Differentiating once with respect to nuclear coordinates.
          Requested convergence is 1.0D-08 RMS, and 1.0D-07 maximum.
          Secondary convergence is 1.0D-12 RMS, and 1.0D-12 maximum.
          NewPWx=T KeepS1=F KeepF1=F KeepIn=T MapXYZ=F SortEE=F KeepMc=T.
          MDV=      33554036 using IRadAn=       2.
 Generate precomputed XC quadrature information.
          Solving linear equations simultaneously, MaxMat=       0.
 FoFJK:  IHMeth= 1 ICntrl=       0 DoSepK=F KAlg= 0 I1Cent=   0 FoldK=F
 IRaf= 990000000 NMat=  27 IRICut=      67 DoRegI=T DoRafI=T ISym2E= 2.
 FoFCou: FMM=F IPFlag=           0 FMFlag=      100000 FMFlg1=           0
         NFxFlg=           0 DoJE=F BraDBF=F KetDBF=F FulRan=T
         wScrn=  0.000000 ICntrl=       0 IOpCl=  0 I1Cent=           0 NGrid=           0
         NMat0=   27 NMatS0=     27 NMatT0=    0 NMatD0=   27 NMtDS0=    0 NMtDT0=    0
 Integrals replicated using symmetry in FoFCou.
          There are    27 degrees of freedom in the 1st order CPHF.  IDoFFX=6 NUNeed=     3.
     24 vectors produced by pass  0 Test12= 2.56D-14 3.70D-09 XBig12= 2.76D+02 9.79D+00.
 AX will form    24 AO Fock derivatives at one time.
     24 vectors produced by pass  1 Test12= 2.56D-14 3.70D-09 XBig12= 1.71D+02 3.40D+00.
     24 vectors produced by pass  2 Test12= 2.56D-14 3.70D-09 XBig12= 2.98D+00 3.59D-01.
     24 vectors produced by pass  3 Test12= 2.56D-14 3.70D-09 XBig12= 4.55D-02 3.30D-02.
     24 vectors produced by pass  4 Test12= 2.56D-14 3.70D-09 XBig12= 5.10D-04 3.41D-03.
     24 vectors produced by pass  5 Test12= 2.56D-14 3.70D-09 XBig12= 2.43D-06 3.28D-04.
     24 vectors produced by pass  6 Test12= 2.56D-14 3.70D-09 XBig12= 6.70D-09 1.11D-05.
      6 vectors produced by pass  7 Test12= 2.56D-14 3.70D-09 XBig12= 1.51D-11 5.68D-07.
      3 vectors produced by pass  8 Test12= 2.56D-14 3.70D-09 XBig12= 6.53D-13 3.22D-07.
      3 vectors produced by pass  9 Test12= 2.56D-14 3.70D-09 XBig12= 5.36D-14 5.80D-08.
      2 vectors produced by pass 10 Test12= 2.56D-14 3.70D-09 XBig12= 5.07D-15 1.29D-08.
      2 vectors produced by pass 11 Test12= 2.56D-14 3.70D-09 XBig12= 1.10D-15 7.85D-09.
      1 vectors produced by pass 12 Test12= 2.56D-14 3.70D-09 XBig12= 4.98D-16 6.18D-09.
 InvSVY:  IOpt=1 It=  1 EMax= 6.22D-15
 Solved reduced A of dimension   185 with    27 vectors.
 FullF1:  Do perturbations    1 to     3.
 Isotropic polarizability for W=    0.000000       84.63 Bohr**3.
 End of Minotr F.D. properties file   721 does not exist.
 End of Minotr F.D. properties file   722 does not exist.
 End of Minotr F.D. properties file   788 does not exist.
 Leave Link 1002 at Sun Jun 19 01:46:14 2016, MaxMem=    33554432 cpu:      2492.9
 (Enter /home/proyectos/fulerenos/M3C-v1.9/M3C-deps_CCC/g09-AM64L-G09RevC.01/l601.exe)
 Copying SCF densities to generalized density rwf, IOpCl= 0 IROHF=0.

 **********************************************************************

            Population analysis using the SCF density.

 **********************************************************************

 Orbital symmetries:
       Occupied  (A) (A) (A) (A) (A) (A) (A) (A) (A) (A) (A) (A)
                 (A) (A) (A) (A) (A) (A) (A) (A) (A) (A) (A) (A)
       Virtual   (A) (A) (A) (A) (A) (A) (A) (A) (A) (A) (A) (A)
                 (A) (A) (A) (A) (A) (A) (A) (A) (A) (A) (A) (A)
                 (A) (A) (A) (A) (A) (A) (A) (A) (A) (A) (A) (A)
                 (A) (A) (A) (A) (A) (A) (A) (A) (A) (A) (A) (A)
                 (A) (A) (A) (A) (A) (A) (A) (A) (A) (A) (A) (A)
                 (A) (A) (A) (A) (A) (A) (A) (A) (A) (A) (A) (A)
                 (A) (A) (A) (A) (A) (A) (A) (A) (A) (A) (A) (A)
                 (A) (A) (A) (A) (A) (A) (A) (A) (A) (A) (A) (A)
                 (A) (A) (A) (A) (A) (A) (A) (A) (A) (A) (A) (A)
                 (A) (A) (A) (A) (A) (A) (A) (A) (A) (A) (A) (A)
                 (A) (A) (A) (A) (A) (A) (A) (A) (A) (A) (A) (A)
                 (A) (A) (A) (A) (A) (A) (A) (A) (A) (A) (A) (A)
                 (A) (A) (A) (A) (A) (A) (A) (A) (A) (A) (A) (A)
                 (A) (A) (A) (A) (A) (A) (A) (A) (A) (A) (A) (A)
                 (A) (A) (A) (A) (A) (A) (A) (A) (A) (A) (A) (A)
                 (A) (A) (A) (A) (A) (A) (A) (A) (A) (A) (A) (A)
                 (A) (A) (A) (A) (A) (A) (A) (A) (A) (A) (A) (A)
                 (A) (A) (A) (A) (A) (A) (A) (A) (A) (A) (A) (A)
                 (A) (A) (A) (A) (A) (A) (A) (A) (A) (A) (A) (A)
                 (A) (A) (A) (A) (A) (A) (A) (A) (A) (A) (A) (A)
                 (A) (A) (A) (A) (A) (A) (A) (A) (A) (A) (A) (A)
                 (A) (A) (A) (A) (A) (A) (A) (A) (A) (A) (A) (A)
                 (A) (A) (A) (A) (A) (A) (A) (A) (A) (A) (A) (A)
                 (A) (A) (A) (A) (A) (A) (A) (A) (A) (A) (A) (A)
 The electronic state is 1-A.
 Alpha  occ. eigenvalues --  -10.29307 -10.29280 -10.29038 -10.28974 -10.26735
 Alpha  occ. eigenvalues --  -10.26723 -10.25826 -10.25694  -1.01493  -0.95960
 Alpha  occ. eigenvalues --   -0.86454  -0.73909  -0.71931  -0.61633  -0.50904
 Alpha  occ. eigenvalues --   -0.50453  -0.47390  -0.44037  -0.43237  -0.41761
 Alpha  occ. eigenvalues --   -0.35706  -0.33883  -0.27192  -0.26708
 Alpha virt. eigenvalues --   -0.15655  -0.12818  -0.11193  -0.05364  -0.03080
 Alpha virt. eigenvalues --    0.01361   0.01703   0.02338   0.03256   0.03648
 Alpha virt. eigenvalues --    0.04913   0.05778   0.05927   0.06834   0.07800
 Alpha virt. eigenvalues --    0.08889   0.09361   0.10443   0.10796   0.10951
 Alpha virt. eigenvalues --    0.11579   0.12076   0.13133   0.13898   0.14721
 Alpha virt. eigenvalues --    0.15573   0.16084   0.16918   0.17577   0.17831
 Alpha virt. eigenvalues --    0.18140   0.18881   0.19242   0.20526   0.20920
 Alpha virt. eigenvalues --    0.21816   0.22344   0.22361   0.22840   0.23556
 Alpha virt. eigenvalues --    0.24976   0.25342   0.31838   0.32160   0.33523
 Alpha virt. eigenvalues --    0.34995   0.37718   0.38399   0.38789   0.39222
 Alpha virt. eigenvalues --    0.40578   0.41240   0.43026   0.43241   0.43703
 Alpha virt. eigenvalues --    0.45201   0.46565   0.47070   0.47195   0.48093
 Alpha virt. eigenvalues --    0.48459   0.49732   0.49914   0.50280   0.51043
 Alpha virt. eigenvalues --    0.52041   0.54099   0.55384   0.56498   0.57349
 Alpha virt. eigenvalues --    0.57470   0.57879   0.60691   0.61199   0.61767
 Alpha virt. eigenvalues --    0.62816   0.63371   0.64743   0.65598   0.65906
 Alpha virt. eigenvalues --    0.69246   0.69665   0.70742   0.72512   0.74808
 Alpha virt. eigenvalues --    0.75232   0.77384   0.78881   0.79404   0.79700
 Alpha virt. eigenvalues --    0.82801   0.85692   0.87527   0.88093   0.88425
 Alpha virt. eigenvalues --    0.89723   0.93882   0.93921   0.97784   0.99663
 Alpha virt. eigenvalues --    1.01219   1.04165   1.04181   1.05635   1.08035
 Alpha virt. eigenvalues --    1.08746   1.11041   1.13433   1.15738   1.15773
 Alpha virt. eigenvalues --    1.20678   1.21289   1.24887   1.25908   1.26929
 Alpha virt. eigenvalues --    1.27911   1.32149   1.32231   1.36334   1.36914
 Alpha virt. eigenvalues --    1.37065   1.40559   1.44759   1.45452   1.46378
 Alpha virt. eigenvalues --    1.46458   1.49176   1.51918   1.55328   1.59044
 Alpha virt. eigenvalues --    1.61666   1.64560   1.65222   1.71605   1.76097
 Alpha virt. eigenvalues --    1.77372   1.81386   1.82786   1.83933   1.86951
 Alpha virt. eigenvalues --    1.89233   1.91757   1.92722   1.97807   1.98443
 Alpha virt. eigenvalues --    2.04061   2.07438   2.07902   2.11324   2.14832
 Alpha virt. eigenvalues --    2.19599   2.26903   2.28999   2.34908   2.34929
 Alpha virt. eigenvalues --    2.39805   2.45278   2.49529   2.54048   2.58304
 Alpha virt. eigenvalues --    2.59951   2.61823   2.64382   2.64692   2.70194
 Alpha virt. eigenvalues --    2.71128   2.75865   2.76998   2.79571   2.79788
 Alpha virt. eigenvalues --    2.81688   2.83435   2.84848   2.85741   2.88974
 Alpha virt. eigenvalues --    2.90790   2.91934   2.95338   2.97883   2.97970
 Alpha virt. eigenvalues --    3.01592   3.02586   3.03824   3.05558   3.11115
 Alpha virt. eigenvalues --    3.11718   3.14606   3.14994   3.16658   3.20597
 Alpha virt. eigenvalues --    3.21743   3.22134   3.25585   3.27316   3.29165
 Alpha virt. eigenvalues --    3.31106   3.34021   3.39776   3.42664   3.44200
 Alpha virt. eigenvalues --    3.46045   3.50246   3.52290   3.59321   3.61317
 Alpha virt. eigenvalues --    3.61436   3.67238   3.76196   3.77823   3.84175
 Alpha virt. eigenvalues --    3.89577   3.90607   3.93679   3.95621   3.97149
 Alpha virt. eigenvalues --    4.06306   4.13698   4.16091   4.21805   4.23736
 Alpha virt. eigenvalues --    4.24005   4.33027   4.44272   4.47374   4.57684
 Alpha virt. eigenvalues --    4.57898   4.65845   4.67489   4.77509   4.86540
 Alpha virt. eigenvalues --    4.93302   5.01040   5.11619   5.28504   5.44245
 Alpha virt. eigenvalues --    5.56394   5.75978   5.96392   6.09804   6.89558
 Alpha virt. eigenvalues --    6.95442   6.97410   6.98547   7.00495   7.01196
 Alpha virt. eigenvalues --    7.05413   7.07677   7.07911   7.09179   7.09274
 Alpha virt. eigenvalues --    7.14263   7.17789   7.19231   7.22731   7.25586
 Alpha virt. eigenvalues --    7.28545   7.29755   7.32655   7.34584   7.35533
 Alpha virt. eigenvalues --    7.38480   7.41829   7.43839   7.51329   7.53755
 Alpha virt. eigenvalues --    7.59950   7.66447   7.70747   7.80244   7.92478
 Alpha virt. eigenvalues --    7.92556   8.00663   8.09017   8.26043   8.36968
 Alpha virt. eigenvalues --    8.46017   8.48583   8.67165   8.91256   9.37788
 Alpha virt. eigenvalues --   23.84343  24.83530  24.92570  25.22721  25.29691
 Alpha virt. eigenvalues --   25.49076  25.52823  26.27574
          Condensed to atoms (all electrons):
               1          2          3          4          5          6
     1  C    9.079169  -0.000833  -0.827306  -0.662796  -0.051273   0.054162
     2  C   -0.000833   9.079996  -0.045754   0.145183  -0.844218  -2.098949
     3  C   -0.827306  -0.045754  10.771527  -1.912536  -0.120913   0.244068
     4  C   -0.662796   0.145183  -1.912536  10.412753  -0.172511  -0.285375
     5  C   -0.051273  -0.844218  -0.120913  -0.172511  10.760885  -1.359012
     6  C    0.054162  -2.098949   0.244068  -0.285375  -1.359012  10.909075
     7  C   -2.119364   0.057135  -1.365275   0.160510   0.246780  -1.420398
     8  C    0.144748  -0.670777  -0.185277  -2.058350  -1.900064   0.149414
               7          8
     1  C   -2.119364   0.144748
     2  C    0.057135  -0.670777
     3  C   -1.365275  -0.185277
     4  C    0.160510  -2.058350
     5  C    0.246780  -1.900064
     6  C   -1.420398   0.149414
     7  C   10.910117  -0.273500
     8  C   -0.273500  10.421442
 Mulliken charges:
               1
     1  C    0.383493
     2  C    0.378215
     3  C   -0.558533
     4  C    0.373122
     5  C   -0.559674
     6  C   -0.192985
     7  C   -0.196004
     8  C    0.372365
 Sum of Mulliken charges =  -0.00000
 Mulliken charges with hydrogens summed into heavy atoms:
               1
     1  C    0.383493
     2  C    0.378215
     3  C   -0.558533
     4  C    0.373122
     5  C   -0.559674
     6  C   -0.192985
     7  C   -0.196004
     8  C    0.372365
 APT charges:
               1
     1  C    0.107738
     2  C    0.112506
     3  C   -0.064250
     4  C    0.077550
     5  C   -0.063876
     6  C   -0.125975
     7  C   -0.118125
     8  C    0.074433
 Sum of APT charges =   0.00000
 APT charges with hydrogens summed into heavy atoms:
               1
     1  C    0.107738
     2  C    0.112506
     3  C   -0.064250
     4  C    0.077550
     5  C   -0.063876
     6  C   -0.125975
     7  C   -0.118125
     8  C    0.074433
 Electronic spatial extent (au):  <R**2>=            571.4964
 Charge=             -0.0000 electrons
 Dipole moment (field-independent basis, Debye):
    X=              0.0063    Y=              0.9559    Z=              0.0000  Tot=              0.9559
 Quadrupole moment (field-independent basis, Debye-Ang):
   XX=            -56.0149   YY=            -47.7839   ZZ=            -43.5976
   XY=              0.0091   XZ=              3.6904   YZ=              0.0183
 Traceless Quadrupole moment (field-independent basis, Debye-Ang):
   XX=             -6.8828   YY=              1.3483   ZZ=              5.5345
   XY=              0.0091   XZ=              3.6904   YZ=              0.0183
 Octapole moment (field-independent basis, Debye-Ang**2):
  XXX=             -0.0527  YYY=             -1.2409  ZZZ=             -0.0062  XYY=              0.0700
  XXY=             17.5365  XXZ=             -0.0113  XZZ=              0.0101  YZZ=              0.1077
  YYZ=              0.0081  XYZ=             -4.7663
 Hexadecapole moment (field-independent basis, Debye-Ang**3):
 XXXX=           -650.4590 YYYY=           -326.6000 ZZZZ=            -61.6101 XXXY=              0.0260
 XXXZ=             30.7436 YYYX=              0.0592 YYYZ=              0.0859 ZZZX=              5.6885
 ZZZY=              0.0266 XXYY=           -162.6628 XXZZ=           -103.2226 YYZZ=            -64.1072
 XXYZ=              0.0566 YYXZ=              4.3240 ZZXY=             -0.0014
 N-N= 2.606601030126D+02 E-N=-1.225930644938D+03  KE= 3.031123336698D+02
  Exact polarizability: 112.443  -0.079  92.189   0.359  -0.003  49.269
 Approx polarizability: 246.693  -0.505 233.191  12.556  -0.001  84.145
 No NMR shielding tensors so no spin-rotation constants.
 Leave Link  601 at Sun Jun 19 01:46:15 2016, MaxMem=    33554432 cpu:         1.0
 (Enter /home/proyectos/fulerenos/M3C-v1.9/M3C-deps_CCC/g09-AM64L-G09RevC.01/l701.exe)
 Compute integral second derivatives.
 ... and contract with generalized density number  0.
 Leave Link  701 at Sun Jun 19 01:46:15 2016, MaxMem=    33554432 cpu:         1.2
 (Enter /home/proyectos/fulerenos/M3C-v1.9/M3C-deps_CCC/g09-AM64L-G09RevC.01/l702.exe)
 L702 exits ... SP integral derivatives will be done elsewhere.
 Leave Link  702 at Sun Jun 19 01:46:15 2016, MaxMem=    33554432 cpu:         0.1
 (Enter /home/proyectos/fulerenos/M3C-v1.9/M3C-deps_CCC/g09-AM64L-G09RevC.01/l703.exe)
 Compute integral second derivatives, UseDBF=F ICtDFT=           0.
 Integral derivatives from FoFJK, PRISM(SPDF).
 Calling FoFJK, ICntrl=    100127 FMM=F ISym2X=0 I1Cent= 0 IOpClX= 0 NMat=1 NMatS=1 NMatT=0.
 FoFJK:  IHMeth= 1 ICntrl=  100127 DoSepK=F KAlg= 0 I1Cent=   0 FoldK=F
 IRaf=         0 NMat=   1 IRICut=       1 DoRegI=T DoRafI=F ISym2E= 0.
 FoFCou: FMM=F IPFlag=           0 FMFlag=      100000 FMFlg1=         800
         NFxFlg=           0 DoJE=F BraDBF=F KetDBF=F FulRan=T
         wScrn=  0.000000 ICntrl=  100127 IOpCl=  0 I1Cent=           0 NGrid=           0
         NMat0=    1 NMatS0=      1 NMatT0=    0 NMatD0=    1 NMtDS0=    0 NMtDT0=    0
 Symmetry not used in FoFCou.
 Leave Link  703 at Sun Jun 19 01:50:54 2016, MaxMem=    33554432 cpu:      1116.3
 (Enter /home/proyectos/fulerenos/M3C-v1.9/M3C-deps_CCC/g09-AM64L-G09RevC.01/l716.exe)
 Dipole        = 2.48171355D-03 3.76073750D-01 1.84038531D-05
 Polarizability= 1.12442655D+02-7.89163835D-02 9.21893491D+01
                 3.58599970D-01-2.54979928D-03 4.92690917D+01
 Full mass-weighted force constant matrix:
 Low frequencies ---  -14.8816   -8.1309    0.0004    0.0005    0.0006    7.5500
 Low frequencies ---  209.1712  218.0293  404.3034
 Diagonal vibrational polarizability:
       11.1610244       2.6827944      13.8501946
 Harmonic frequencies (cm**-1), IR intensities (KM/Mole), Raman scattering
 activities (A**4/AMU), depolarization ratios for plane and unpolarized
 incident light, reduced masses (AMU), force constants (mDyne/A),
 and normal coordinates:
                      1                      2                      3
                      A                      A                      A
 Frequencies --    209.1693               218.0272               404.3028
 Red. masses --     12.0000                12.0000                12.0000
 Frc consts  --      0.3093                 0.3361                 1.1557
 IR Inten    --     20.0481                 0.0239                56.0006
  Atom  AN      X      Y      Z        X      Y      Z        X      Y      Z
     1   6    -0.04  -0.03  -0.07    -0.09  -0.01   0.34    -0.24  -0.14   0.08
     2   6    -0.04   0.03  -0.05     0.09  -0.01  -0.35    -0.23   0.14   0.08
     3   6     0.18  -0.12   0.49    -0.18   0.21  -0.33     0.05   0.18   0.10
     4   6    -0.00  -0.02  -0.42    -0.01  -0.10   0.04    -0.13   0.01  -0.15
     5   6     0.17   0.10   0.47     0.19   0.22   0.37     0.05  -0.18   0.10
     6   6    -0.14   0.14   0.01     0.12  -0.10  -0.36     0.32  -0.48  -0.03
     7   6    -0.13  -0.13  -0.01    -0.12  -0.11   0.36     0.32   0.48  -0.03
     8   6    -0.00   0.03  -0.42     0.01  -0.10  -0.07    -0.13  -0.01  -0.15
                      4                      5                      6
                      A                      A                      A
 Frequencies --    457.0775               497.7125               514.0078
 Red. masses --     12.0000                12.0000                12.0000
 Frc consts  --      1.4771                 1.7514                 1.8680
 IR Inten    --      0.2269                 5.2181                18.5256
  Atom  AN      X      Y      Z        X      Y      Z        X      Y      Z
     1   6    -0.09  -0.09   0.22    -0.25  -0.11  -0.16    -0.06  -0.15   0.45
     2   6     0.09  -0.09  -0.22     0.25  -0.11   0.15    -0.05   0.16   0.45
     3   6    -0.03   0.29  -0.04     0.29   0.29   0.11     0.03   0.22  -0.07
     4   6    -0.06  -0.25   0.12     0.09  -0.23  -0.36     0.03  -0.25  -0.08
     5   6     0.03   0.29   0.04    -0.30   0.30  -0.11     0.03  -0.21  -0.07
     6   6    -0.16   0.04   0.49     0.05   0.04  -0.15    -0.01   0.25  -0.30
     7   6     0.16   0.04  -0.49    -0.05   0.04   0.15    -0.01  -0.24  -0.30
     8   6     0.06  -0.25  -0.12    -0.08  -0.23   0.36     0.03   0.24  -0.08
                      7                      8                      9
                      A                      A                      A
 Frequencies --    586.1996               605.3803               716.5963
 Red. masses --     12.0000                12.0000                12.0000
 Frc consts  --      2.4295                 2.5911                 3.6306
 IR Inten    --      9.8593                 8.2608                 2.6763
  Atom  AN      X      Y      Z        X      Y      Z        X      Y      Z
     1   6    -0.35   0.07  -0.24    -0.24  -0.23  -0.30    -0.10  -0.15  -0.19
     2   6     0.34   0.07   0.22    -0.26   0.23  -0.30     0.10  -0.15   0.19
     3   6    -0.38  -0.11   0.09     0.23   0.08  -0.01     0.30   0.07  -0.12
     4   6    -0.10  -0.23   0.13     0.09  -0.41   0.20     0.16   0.03   0.53
     5   6     0.39  -0.11  -0.09     0.22  -0.08  -0.01    -0.30   0.07   0.12
     6   6    -0.03   0.26  -0.09    -0.07   0.03   0.12     0.07   0.06  -0.07
     7   6     0.03   0.26   0.09    -0.07  -0.04   0.11    -0.07   0.06   0.07
     8   6     0.10  -0.22  -0.13     0.09   0.42   0.20    -0.16   0.02  -0.53
                     10                     11                     12
                      A                      A                      A
 Frequencies --    792.4479               873.0341               952.1486
 Red. masses --     12.0000                12.0000                12.0000
 Frc consts  --      4.4399                 5.3888                 6.4097
 IR Inten    --      0.7216                 5.8090                20.6697
  Atom  AN      X      Y      Z        X      Y      Z        X      Y      Z
     1   6    -0.28  -0.30   0.25    -0.14  -0.12   0.21    -0.10  -0.31  -0.07
     2   6     0.27  -0.29  -0.24    -0.14   0.13   0.22    -0.07   0.29  -0.05
     3   6     0.09  -0.27  -0.14     0.23  -0.39  -0.16     0.25   0.13  -0.03
     4   6     0.04   0.24  -0.14     0.17   0.10   0.00    -0.22   0.46   0.11
     5   6    -0.08  -0.26   0.13     0.24   0.41  -0.17     0.28  -0.10  -0.05
     6   6     0.01   0.32   0.07    -0.27  -0.25  -0.05     0.04   0.21  -0.01
     7   6    -0.02   0.32  -0.07    -0.27   0.23  -0.05     0.03  -0.27  -0.02
     8   6    -0.03   0.22   0.15     0.18  -0.10   0.00    -0.20  -0.43   0.11
                     13                     14                     15
                      A                      A                      A
 Frequencies --    980.9577              1245.6296              1356.4671
 Red. masses --     12.0000                12.0000                12.0000
 Frc consts  --      6.8035                10.9701                13.0092
 IR Inten    --      3.9411                 3.3922                 7.2094
  Atom  AN      X      Y      Z        X      Y      Z        X      Y      Z
     1   6    -0.27  -0.18  -0.13    -0.39   0.01  -0.03    -0.32   0.39   0.09
     2   6     0.29  -0.21   0.14    -0.40  -0.01  -0.03     0.32   0.39  -0.09
     3   6    -0.20   0.17   0.09    -0.24  -0.04   0.04     0.06  -0.16  -0.05
     4   6    -0.13   0.34  -0.00     0.43   0.18  -0.02     0.36  -0.01  -0.01
     5   6     0.16   0.18  -0.08    -0.23   0.05   0.04    -0.06  -0.16   0.05
     6   6     0.09  -0.36   0.09     0.20   0.18   0.00     0.08  -0.22   0.15
     7   6    -0.09  -0.34  -0.09     0.20  -0.17   0.01    -0.07  -0.22  -0.15
     8   6     0.16   0.40  -0.01     0.43  -0.18  -0.02    -0.35  -0.01   0.01
                     16                     17                     18
                      A                      A                      A
 Frequencies --   1574.3181              1604.6990              1712.7330
 Red. masses --     12.0000                12.0000                12.0000
 Frc consts  --     17.5233                18.2062                20.7401
 IR Inten    --      6.9266                23.4218                74.4913
  Atom  AN      X      Y      Z        X      Y      Z        X      Y      Z
     1   6    -0.26   0.45   0.07    -0.12   0.21   0.03    -0.14   0.07   0.03
     2   6    -0.26  -0.45   0.07     0.12   0.22  -0.03     0.13   0.06  -0.03
     3   6     0.29  -0.14  -0.10     0.28  -0.11  -0.10     0.12  -0.03  -0.04
     4   6    -0.22  -0.07   0.02    -0.54  -0.06   0.03    -0.09   0.08   0.03
     5   6     0.28   0.14  -0.10    -0.28  -0.12   0.10    -0.12  -0.03   0.04
     6   6     0.20   0.15   0.01     0.18  -0.04   0.04    -0.63  -0.11  -0.18
     7   6     0.19  -0.15   0.01    -0.19  -0.04  -0.04     0.63  -0.11   0.18
     8   6    -0.21   0.07   0.02     0.55  -0.06  -0.03     0.09   0.08  -0.02

 -------------------
 - Thermochemistry -
 -------------------
 Temperature   298.150 Kelvin.  Pressure   1.00000 Atm.
 Atom     1 has atomic number  6 and mass  12.00000
 Atom     2 has atomic number  6 and mass  12.00000
 Atom     3 has atomic number  6 and mass  12.00000
 Atom     4 has atomic number  6 and mass  12.00000
 Atom     5 has atomic number  6 and mass  12.00000
 Atom     6 has atomic number  6 and mass  12.00000
 Atom     7 has atomic number  6 and mass  12.00000
 Atom     8 has atomic number  6 and mass  12.00000
 Molecular mass:    96.00000 amu.
 Principal axes and moments of inertia in atomic units:
                           1         2         3
     Eigenvalues --   336.31007 601.04435 910.28839
           X            1.00000   0.00000   0.00000
           Y           -0.00000   1.00000   0.00000
           Z            0.00000  -0.00000   1.00000
 This molecule is an asymmetric top.
 Rotational symmetry number  1.
 Rotational temperatures (Kelvin)      0.25754     0.14411     0.09515
 Rotational constants (GHZ):           5.36630     3.00268     1.98260
 Zero-point vibrational energy      91519.8 (Joules/Mol)
                                   21.87375 (Kcal/Mol)
 Warning -- explicit consideration of   8 degrees of freedom as
           vibrations may cause significant error
 Vibrational temperatures:    300.95   313.69   581.70   657.63   716.10
          (Kelvin)            739.54   843.41   871.01  1031.02  1140.15
                             1256.10  1369.93  1411.38  1792.18  1951.65
                             2265.09  2308.80  2464.24
 
 Zero-point correction=                           0.034858 (Hartree/Particle)
 Thermal correction to Energy=                    0.040460
 Thermal correction to Enthalpy=                  0.041404
 Thermal correction to Gibbs Free Energy=         0.005671
 Sum of electronic and zero-point Energies=           -304.420900
 Sum of electronic and thermal Energies=              -304.415299
 Sum of electronic and thermal Enthalpies=            -304.414354
 Sum of electronic and thermal Free Energies=         -304.450087
 
                     E (Thermal)             CV                S
                      KCal/Mol        Cal/Mol-Kelvin    Cal/Mol-Kelvin
 Total                   25.389             20.238             75.205
 Electronic               0.000              0.000              0.000
 Translational            0.889              2.981             39.596
 Rotational               0.889              2.981             26.712
 Vibrational             23.611             14.276              8.897
 Vibration     1          0.642              1.827              2.051
 Vibration     2          0.646              1.814              1.975
 Vibration     3          0.769              1.461              0.947
 Vibration     4          0.815              1.345              0.775
 Vibration     5          0.853              1.255              0.664
 Vibration     6          0.869              1.219              0.624
 Vibration     7          0.943              1.061              0.474
 Vibration     8          0.964              1.020              0.440
                       Q            Log10(Q)             Ln(Q)
 Total Bot       0.246228D-02         -2.608663         -6.006668
 Total V=0       0.266002D+14         13.424886         30.911942
 Vib (Bot)       0.433727D-15        -15.362784        -35.374117
 Vib (Bot)    1  0.949863D+00         -0.022339         -0.051437
 Vib (Bot)    2  0.907991D+00         -0.041919         -0.096521
 Vib (Bot)    3  0.439456D+00         -0.357085         -0.822218
 Vib (Bot)    4  0.373019D+00         -0.428269         -0.986126
 Vib (Bot)    5  0.330887D+00         -0.480321         -1.105979
 Vib (Bot)    6  0.315752D+00         -0.500654         -1.152799
 Vib (Bot)    7  0.258334D+00         -0.587819         -1.353504
 Vib (Bot)    8  0.245289D+00         -0.610323         -1.405320
 Vib (V=0)       0.468559D+01          0.670764          1.544492
 Vib (V=0)    1  0.157342D+01          0.196846          0.453255
 Vib (V=0)    2  0.153656D+01          0.186548          0.429543
 Vib (V=0)    3  0.116567D+01          0.066577          0.153299
 Vib (V=0)    4  0.112381D+01          0.050694          0.116728
 Vib (V=0)    5  0.109957D+01          0.041224          0.094921
 Vib (V=0)    6  0.109135D+01          0.037966          0.087419
 Vib (V=0)    7  0.106279D+01          0.026449          0.060901
 Vib (V=0)    8  0.105693D+01          0.024045          0.055365
 Electronic      0.100000D+01          0.000000          0.000000
 Translational   0.369711D+08          7.567862         17.425646
 Rotational      0.153553D+06          5.186259         11.941803
 
                                                              b3lyp opt
                                                             IR Spectrum
 
     1        1 1               1       1                                                                                            
     7        6 5               3       2                   9 9     8     7    7        65    5 4  4   4            22               
     1        0 7               5       4                   8 5     7     9    1        08    1 9  5   0            10               
     3        5 4               6       6                   1 2     3     2    7        56    4 8  7   4            89               
 
     X        X X               X       X                   X X     X     X    X        XX    X X  X   X             X               
     X        X X               X                             X     X                   XX    X        X             X               
     X        X                                               X                          X    X        X             X               
     X        X                                               X                               X        X             X               
     X        X                                               X                               X        X             X               
     X        X                                               X                                        X                             
     X                                                                                                 X                             
     X                                                                                                 X                             
     X                                                                                                 X                             
     X                                                                                                 X                             
     X                                                                                                 X                             
     X                                                                                                 X                             
     X                                                                                                 X                             
     X                                                                                                 X                             
     X                                                                                                 X                             
     X                                                                                                                               
     X                                                                                                                               
     X                                                                                                                               
     X                                                                                                                               
     X                                                                                                                               
 
 ***** Axes restored to original set *****
 -------------------------------------------------------------------
 Center     Atomic                   Forces (Hartrees/Bohr)
 Number     Number              X              Y              Z
 -------------------------------------------------------------------
      1        6           0.000252549    0.000158885   -0.000458026
      2        6          -0.000376305    0.000063041    0.000146453
      3        6          -0.000141844   -0.000058585    0.000061836
      4        6          -0.000171977   -0.000082770    0.000467186
      5        6           0.000045031    0.000026955    0.000039870
      6        6           0.000026713    0.000010062   -0.000109099
      7        6           0.000077137   -0.000063704    0.000146616
      8        6           0.000288695   -0.000053884   -0.000294838
 -------------------------------------------------------------------
 Cartesian Forces:  Max     0.000467186 RMS     0.000201003
 Z-matrix is all fixed cartesians, so copy forces.
 Force constants in Cartesian coordinates: 
                1             2             3             4             5 
      1  0.679367D+00
      2  0.770949D-01  0.125384D+00
      3  0.282648D-01 -0.996267D-02  0.262569D+00
      4 -0.345378D-01 -0.354140D-02  0.130825D-01  0.306146D+00
      5  0.900362D-03  0.371072D-02 -0.367352D-02 -0.410425D-01  0.127292D+00
      6  0.322475D-01 -0.723649D-03 -0.163063D-01 -0.124924D+00  0.727080D-01
      7 -0.282485D+00 -0.962768D-01  0.424398D-02 -0.591381D-02  0.516570D-02
      8 -0.930862D-01 -0.509560D-01 -0.362574D-02  0.329523D-02  0.191465D-02
      9 -0.564968D-01 -0.267767D-02  0.131653D-01  0.870314D-02 -0.497553D-02
     10 -0.152102D-01 -0.277602D-02  0.572531D-01 -0.511831D-01  0.818072D-02
     11  0.533787D-02 -0.434640D-01  0.126153D-01  0.954707D-02  0.137673D-01
     12  0.977075D-01  0.417453D-03 -0.160670D+00 -0.802975D-01  0.197217D-01
     13 -0.958907D-03 -0.636722D-02  0.106097D-01 -0.102477D-01  0.338820D-01
     14  0.147676D-02  0.199833D-02  0.382983D-02  0.320229D-01 -0.529859D-01
     15  0.507692D-02  0.295662D-02 -0.251735D-03  0.113961D+00 -0.933183D-01
     16 -0.931030D-01  0.147656D-01  0.264309D-01 -0.225844D-01 -0.211158D-01
     17  0.459601D-01 -0.184542D-02 -0.544771D-03  0.566855D-02 -0.487506D-01
     18 -0.862313D-01  0.179344D-01  0.105809D-01  0.136919D-01 -0.811758D-02
     19 -0.275232D+00  0.215826D-02 -0.896104D-01  0.162791D-01  0.108829D-01
     20 -0.293491D-01 -0.486513D-01 -0.549930D-02 -0.173879D-01 -0.145761D-02
     21 -0.240569D-01 -0.222447D-01 -0.268268D-01  0.708613D-01  0.194141D-01
     22  0.221607D-01  0.149427D-01 -0.502747D-01 -0.197959D+00  0.314664D-02
     23 -0.833475D-02  0.138236D-01  0.686089D-02  0.114381D-01 -0.434908D-01
     24  0.348809D-02  0.143002D-01 -0.822605D-01 -0.150779D-01 -0.175896D-02
                6             7             8             9            10 
      6  0.637530D+00
      7  0.315527D-02  0.339900D+00
      8  0.277222D-02  0.126326D+00  0.655354D-01
      9  0.468599D-02  0.120650D+00  0.597513D-01  0.213063D+00
     10 -0.265846D-01 -0.726225D-01 -0.372575D-01 -0.110657D+00  0.357143D+00
     11 -0.517884D-02 -0.268996D-01 -0.296942D-01 -0.531919D-01  0.249749D-01
     12 -0.924583D-02 -0.153201D+00 -0.670928D-01 -0.204327D+00  0.189796D+00
     13  0.535135D-01 -0.732337D-03 -0.160656D-02 -0.419528D-03 -0.180913D-01
     14 -0.898067D-01 -0.431404D-02 -0.447438D-02 -0.345648D-02  0.738580D-02
     15 -0.258339D+00  0.277390D-02 -0.539750D-02  0.193485D-03  0.100363D-02
     16  0.783343D-01 -0.106931D-01 -0.139491D-01 -0.198356D-01  0.990599D-02
     17 -0.314232D-01  0.302849D-02  0.549263D-02  0.226695D-01 -0.279572D-01
     18 -0.277059D+00 -0.133574D-01 -0.526164D-02 -0.133661D-01  0.223218D-01
     19 -0.414480D-01  0.106450D-01  0.838758D-02  0.665938D-01 -0.972728D-01
     20  0.419687D-01 -0.426280D-02  0.408800D-02 -0.188050D-01  0.221511D-01
     21 -0.992114D-01  0.184783D-01  0.785400D-02  0.772006D-02 -0.340331D-02
     22  0.257060D-01  0.219019D-01  0.789067D-02 -0.853769D-02 -0.112670D+00
     23  0.968338D-02 -0.276679D-02  0.809391D-02  0.685684D-03  0.529817D-02
     24  0.179459D-01  0.172572D-01  0.110002D-01 -0.211342D-01 -0.129730D+00
               11            12            13            14            15 
     11  0.112164D+00
     12  0.357730D-01  0.593193D+00
     13  0.170131D-02 -0.246676D-01  0.146449D+00
     14  0.807624D-02  0.119165D-01  0.719334D-02  0.675934D-01
     15 -0.217016D-02  0.188696D-01  0.424186D-01  0.141951D+00  0.404394D+00
     16  0.146025D-01 -0.118054D-01 -0.214634D-01  0.432596D-02  0.489474D-02
     17 -0.226667D-02 -0.211907D-01 -0.151617D-01  0.418294D-02 -0.106489D-01
     18  0.561354D-02 -0.551021D-01  0.532753D-01  0.102266D-01  0.394135D-01
     19 -0.214989D-01  0.618826D-01 -0.135045D-02  0.360144D-03 -0.919556D-02
     20  0.151211D-01  0.267071D-01  0.197319D-01  0.532308D-02  0.111172D-01
     21  0.361251D-02  0.146008D-01 -0.159792D-01 -0.148419D-01 -0.223884D-01
     22 -0.776523D-02 -0.794148D-01 -0.936045D-01 -0.484508D-01 -0.160933D+00
     23 -0.737036D-01 -0.625223D-02 -0.393731D-01 -0.297137D-01 -0.444897D-01
     24  0.292650D-02 -0.197318D+00 -0.118751D+00 -0.598186D-01 -0.181891D+00
               16            17            18            19            20 
     16  0.283187D+00
     17 -0.103773D+00  0.108641D+00
     18  0.149345D+00 -0.120373D+00  0.678379D+00
     19 -0.123402D+00  0.748311D-01 -0.231303D+00  0.519844D+00
     20  0.931473D-01 -0.804442D-01  0.119603D+00 -0.751130D-01  0.108338D+00
     21 -0.254903D+00  0.131800D+00 -0.322291D+00  0.245010D+00 -0.141417D+00
     22 -0.218467D-01  0.174035D-01  0.922575D-01 -0.495108D-01 -0.891754D-02
     23  0.119964D-01  0.149906D-01 -0.196249D-01 -0.813258D-05 -0.231751D-02
     24  0.275384D-01  0.297113D-01 -0.605552D-01 -0.192913D-02 -0.336747D-01
               21            22            23            24 
     21  0.444550D+00
     22 -0.360072D-01  0.431528D+00
     23  0.158229D-01  0.217500D-01  0.112318D+00
     24  0.384624D-02  0.217204D+00  0.373140D-01  0.521367D+00
 Leave Link  716 at Sun Jun 19 01:50:54 2016, MaxMem=    33554432 cpu:         0.1
 (Enter /home/proyectos/fulerenos/M3C-v1.9/M3C-deps_CCC/g09-AM64L-G09RevC.01/l103.exe)

 GradGradGradGradGradGradGradGradGradGradGradGradGradGradGradGradGradGrad
 Berny optimization.
 Search for a local minimum.
 Step number   1 out of a maximum of    2
 All quantities printed in internal units (Hartrees-Bohrs-Radians)
 Second derivative matrix not updated -- analytic derivatives used.
 ITU=  0
     Eigenvalues ---    0.01987   0.02159   0.07423   0.09488   0.11249
     Eigenvalues ---    0.11998   0.15605   0.16643   0.23320   0.28518
     Eigenvalues ---    0.34613   0.41170   0.43699   0.70461   0.83559
     Eigenvalues ---    1.12553   1.16939   1.33215
 Angle between quadratic step and forces=  54.09 degrees.
 Linear search not attempted -- first point.
 B after Tr=    -0.000000    0.000000    0.000000
         Rot=    1.000000    0.000000    0.000000    0.000000 Ang=   0.00 deg.
 Variable       Old X    -DE/DX   Delta X   Delta X   Delta X     New X
                                 (Linear)    (Quad)   (Total)
    X1        3.05045   0.00025   0.00000   0.00012   0.00012   3.05056
    Y1       -0.36150   0.00016   0.00000   0.00059   0.00059  -0.36091
    Z1        3.03222  -0.00046   0.00000  -0.00183  -0.00183   3.03039
    X2        0.21904  -0.00038   0.00000  -0.00102  -0.00102   0.21802
    Y2        0.36667   0.00006   0.00000   0.00005   0.00005   0.36672
    Z2       -1.18662   0.00015   0.00000   0.00001   0.00001  -1.18660
    X3        5.56971  -0.00014   0.00000  -0.00081  -0.00081   5.56890
    Y3        0.51474  -0.00006   0.00000   0.00085   0.00085   0.51559
    Z3        2.94722   0.00006   0.00000   0.00069   0.00069   2.94791
    X4        4.33703  -0.00017   0.00000  -0.00077  -0.00077   4.33627
    Y4       -0.10895  -0.00008   0.00000  -0.00097  -0.00097  -0.10991
    Z4        0.66782   0.00047   0.00000   0.00033   0.00033   0.66815
    X5        1.23452   0.00005   0.00000   0.00021   0.00021   1.23473
    Y5       -0.53493   0.00003   0.00000   0.00105   0.00105  -0.53388
    Z5       -3.48248   0.00004   0.00000  -0.00027  -0.00027  -3.48276
    X6       -0.78590   0.00003   0.00000   0.00236   0.00236  -0.78355
    Y6        0.41243   0.00001   0.00000  -0.00012  -0.00012   0.41231
    Z6        1.17635  -0.00011   0.00000   0.00002   0.00002   1.17637
    X7        0.48493   0.00008   0.00000  -0.00088  -0.00088   0.48405
    Y7       -0.38175  -0.00006   0.00000  -0.00040  -0.00040  -0.38215
    Z7        3.06599   0.00015   0.00000   0.00232   0.00232   3.06831
    X8        2.88729   0.00029   0.00000   0.00080   0.00080   2.88809
    Y8        0.08978  -0.00005   0.00000  -0.00105  -0.00105   0.08873
    Z8       -1.48482  -0.00029   0.00000  -0.00127  -0.00127  -1.48609
         Item               Value     Threshold  Converged?
 Maximum Force            0.000467     0.000450     NO 
 RMS     Force            0.000201     0.000300     YES
 Maximum Displacement     0.002355     0.001800     NO 
 RMS     Displacement     0.001014     0.001200     YES
 Predicted change in Energy=-1.435228D-06
 GradGradGradGradGradGradGradGradGradGradGradGradGradGradGradGradGradGrad

 Leave Link  103 at Sun Jun 19 01:50:54 2016, MaxMem=    33554432 cpu:         0.1
 (Enter /home/proyectos/fulerenos/M3C-v1.9/M3C-deps_CCC/g09-AM64L-G09RevC.01/l9999.exe)
 1\1\GINC-BELVIS25\Freq\RB3LYP\6-311++G(3df,2p)\C8\NAGUIRRE\19-Jun-2016
 \0\\#p b3lyp/6-311++G(3df,2p) freq symmetry=Loose\\b3lyp opt\\0,1\C,1.
 614227,-0.1913,1.604583\C,0.115912,0.194034,-0.62793\C,2.947365,0.2723
 9,1.559601\C,2.295059,-0.057652,0.353396\C,0.653279,-0.283071,-1.84285
 1\C,-0.415881,0.218246,0.622496\C,0.256614,-0.202014,1.622452\C,1.5278
 9,0.047508,-0.785731\\Version=EM64L-G09RevE.01\State=1-A\HF=-304.45575
 83\RMSD=5.394e-09\RMSF=2.010e-04\ZeroPoint=0.034858\Thermal=0.0404597\
 Dipole=-0.3104775,0.0021859,0.2122182\DipoleDeriv=0.0501131,-0.0275438
 ,-0.0146992,-0.0790154,0.0970451,-0.1827617,-0.0742069,-0.1524428,0.17
 60553,0.1971477,-0.1319781,-0.0151955,-0.1416011,0.0973988,-0.1446497,
 0.0383223,-0.0849215,0.0429723,-0.0313437,0.3264342,0.1484317,0.013821
 9,-0.2037629,0.1651661,-0.0486131,0.2142174,0.0423556,0.0245242,-0.109
 1851,-0.2060781,0.0712314,0.12406,-0.1476622,0.073227,-0.0940125,0.084
 0659,-0.002008,0.0734937,-0.0360056,0.1465271,-0.2020057,0.0788703,0.1
 5893,0.3834753,0.0123851,-0.83512,0.0268923,-0.1972282,0.2999733,-0.02
 2102,-0.0349456,-0.3197674,-0.1061696,0.4792963,0.4821692,-0.1135135,0
 .211212,-0.1478848,-0.0155487,0.2571359,0.3374889,-0.0246383,-0.820995
 ,0.1145176,-0.0445996,0.1095629,-0.1630524,0.1249155,0.008847,-0.16538
 09,-0.1355081,-0.0161355\Polar=98.587442,0.3762396,49.285552,9.4115559
 ,0.9985493,106.0281023\PG=C01 [X(C8)]\NImag=0\\0.67936661,0.07709489,0
 .12538411,0.02826485,-0.00996267,0.26256910,-0.03453782,-0.00354140,0.
 01308254,0.30614647,0.00090036,0.00371072,-0.00367352,-0.04104252,0.12
 729217,0.03224755,-0.00072365,-0.01630632,-0.12492401,0.07270801,0.637
 53011,-0.28248542,-0.09627678,0.00424398,-0.00591381,0.00516570,0.0031
 5527,0.33990027,-0.09308618,-0.05095603,-0.00362574,0.00329523,0.00191
 465,0.00277222,0.12632586,0.06553540,-0.05649679,-0.00267767,0.0131652
 7,0.00870314,-0.00497553,0.00468599,0.12065000,0.05975130,0.21306285,-
 0.01521015,-0.00277602,0.05725309,-0.05118311,0.00818072,-0.02658463,-
 0.07262251,-0.03725754,-0.11065728,0.35714337,0.00533787,-0.04346396,0
 .01261529,0.00954707,0.01376732,-0.00517884,-0.02689962,-0.02969417,-0
 .05319188,0.02497493,0.11216369,0.09770754,0.00041745,-0.16067001,-0.0
 8029755,0.01972174,-0.00924583,-0.15320117,-0.06709281,-0.20432741,0.1
 8979643,0.03577304,0.59319256,-0.00095891,-0.00636722,0.01060974,-0.01
 024770,0.03388199,0.05351348,-0.00073234,-0.00160656,-0.00041953,-0.01
 809129,0.00170131,-0.02466761,0.14644857,0.00147676,0.00199833,0.00382
 983,0.03202287,-0.05298594,-0.08980669,-0.00431404,-0.00447438,-0.0034
 5648,0.00738580,0.00807624,0.01191649,0.00719334,0.06759343,0.00507692
 ,0.00295662,-0.00025173,0.11396062,-0.09331828,-0.25833895,0.00277390,
 -0.00539750,0.00019349,0.00100363,-0.00217016,0.01886965,0.04241860,0.
 14195071,0.40439365,-0.09310300,0.01476557,0.02643090,-0.02258441,-0.0
 2111577,0.07833431,-0.01069310,-0.01394907,-0.01983562,0.00990599,0.01
 460253,-0.01180538,-0.02146335,0.00432596,0.00489474,0.28318707,0.0459
 6010,-0.00184542,-0.00054477,0.00566855,-0.04875055,-0.03142316,0.0030
 2849,0.00549263,0.02266954,-0.02795717,-0.00226667,-0.02119075,-0.0151
 6168,0.00418294,-0.01064887,-0.10377290,0.10864070,-0.08623128,0.01793
 440,0.01058093,0.01369187,-0.00811758,-0.27705948,-0.01335744,-0.00526
 164,-0.01336607,0.02232180,0.00561354,-0.05510206,0.05327533,0.0102266
 2,0.03941349,0.14934514,-0.12037343,0.67837902,-0.27523206,0.00215826,
 -0.08961041,0.01627906,0.01088287,-0.04144795,0.01064503,0.00838758,0.
 06659377,-0.09727277,-0.02149886,0.06188257,-0.00135045,0.00036014,-0.
 00919556,-0.12340245,0.07483109,-0.23130290,0.51984447,-0.02934905,-0.
 04865131,-0.00549930,-0.01738792,-0.00145761,0.04196873,-0.00426280,0.
 00408800,-0.01880497,0.02215110,0.01512115,0.02670706,0.01973188,0.005
 32308,0.01111718,0.09314728,-0.08044423,0.11960299,-0.07511296,0.10833
 842,-0.02405688,-0.02224470,-0.02682678,0.07086127,0.01941411,-0.09921
 141,0.01847826,0.00785400,0.00772006,-0.00340331,0.00361251,0.01460076
 ,-0.01597921,-0.01484192,-0.02238838,-0.25490251,0.13180009,-0.3222905
 9,0.24500963,-0.14141701,0.44455009,0.02216075,0.01494272,-0.05027468,
 -0.19795867,0.00314664,0.02570598,0.02190187,0.00789067,-0.00853769,-0
 .11266954,-0.00776523,-0.07941483,-0.09360454,-0.04845083,-0.16093286,
 -0.02184674,0.01740353,0.09225749,-0.04951082,-0.00891754,-0.03600724,
 0.43152769,-0.00833475,0.01382356,0.00686089,0.01143812,-0.04349077,0.
 00968338,-0.00276679,0.00809391,0.00068568,0.00529817,-0.07370360,-0.0
 0625223,-0.03937306,-0.02971370,-0.04448970,0.01199641,0.01499060,-0.0
 1962490,-0.00000813,-0.00231751,0.01582292,0.02175004,0.11231751,0.003
 48809,0.01430022,-0.08226045,-0.01507788,-0.00175896,0.01794587,0.0172
 5721,0.01100017,-0.02113418,-0.12972974,0.00292650,-0.19731765,-0.1187
 5080,-0.05981856,-0.18189122,0.02753841,0.02971134,-0.06055525,-0.0019
 2913,-0.03367467,0.00384624,0.21720384,0.03731396,0.52136663\\-0.00025
 255,-0.00015889,0.00045803,0.00037631,-0.00006304,-0.00014645,0.000141
 84,0.00005858,-0.00006184,0.00017198,0.00008277,-0.00046719,-0.0000450
 3,-0.00002696,-0.00003987,-0.00002671,-0.00001006,0.00010910,-0.000077
 14,0.00006370,-0.00014662,-0.00028870,0.00005388,0.00029484\\\@


 I DON'T PRETEND TO UNDERSTAND THE UNIVERSE --
 IT'S A GREAT DEAL BIGGER THAN I AM.
       -- ATTR. TO WILLIAM ALLINGHAM (1828-89)
 Job cpu time:       0 days  1 hours 41 minutes 22.8 seconds.
 File lengths (MBytes):  RWF=     75 Int=      0 D2E=      0 Chk=      7 Scr=      1
 Normal termination of Gaussian 09 at Sun Jun 19 01:50:54 2016.
