 Entering Gaussian System, Link 0=/home/proyectos/fulerenos/M3C-v1.9/M3C-deps_CCC/g09-AM64L-G09RevC.01/g09
 Initial command:
 /home/proyectos/fulerenos/M3C-v1.9/M3C-deps_CCC/g09-AM64L-G09RevC.01/l1.exe "/scratch/naguirre/gaussian/Gau-13791.inp" -scrdir="/scratch/naguirre/gaussian/"
 Entering Link 1 = /home/proyectos/fulerenos/M3C-v1.9/M3C-deps_CCC/g09-AM64L-G09RevC.01/l1.exe PID=     13798.
  
 Copyright (c) 1988,1990,1992,1993,1995,1998,2003,2009,2015,
            Gaussian, Inc.  All Rights Reserved.
  
 This is part of the Gaussian(R) 09 program.  It is based on
 the Gaussian(R) 03 system (copyright 2003, Gaussian, Inc.),
 the Gaussian(R) 98 system (copyright 1998, Gaussian, Inc.),
 the Gaussian(R) 94 system (copyright 1995, Gaussian, Inc.),
 the Gaussian 92(TM) system (copyright 1992, Gaussian, Inc.),
 the Gaussian 90(TM) system (copyright 1990, Gaussian, Inc.),
 the Gaussian 88(TM) system (copyright 1988, Gaussian, Inc.),
 the Gaussian 86(TM) system (copyright 1986, Carnegie Mellon
 University), and the Gaussian 82(TM) system (copyright 1983,
 Carnegie Mellon University). Gaussian is a federally registered
 trademark of Gaussian, Inc.
  
 This software contains proprietary and confidential information,
 including trade secrets, belonging to Gaussian, Inc.
  
 This software is provided under written license and may be
 used, copied, transmitted, or stored only in accord with that
 written license.
  
 The following legend is applicable only to US Government
 contracts under FAR:
  
                    RESTRICTED RIGHTS LEGEND
  
 Use, reproduction and disclosure by the US Government is
 subject to restrictions as set forth in subparagraphs (a)
 and (c) of the Commercial Computer Software - Restricted
 Rights clause in FAR 52.227-19.
  
 Gaussian, Inc.
 340 Quinnipiac St., Bldg. 40, Wallingford CT 06492
  
  
 ---------------------------------------------------------------
 Warning -- This program may not be used in any manner that
 competes with the business of Gaussian, Inc. or will provide
 assistance to any competitor of Gaussian, Inc.  The licensee
 of this program is prohibited from giving any competitor of
 Gaussian, Inc. access to this program.  By using this program,
 the user acknowledges that Gaussian, Inc. is engaged in the
 business of creating and licensing software in the field of
 computational chemistry and represents and warrants to the
 licensee that it is not a competitor of Gaussian, Inc. and that
 it will not use this program in any manner prohibited above.
 ---------------------------------------------------------------
  

 Cite this work as:
 Gaussian 09, Revision E.01,
 M. J. Frisch, G. W. Trucks, H. B. Schlegel, G. E. Scuseria, 
 M. A. Robb, J. R. Cheeseman, G. Scalmani, V. Barone, B. Mennucci, 
 G. A. Petersson, H. Nakatsuji, M. Caricato, X. Li, H. P. Hratchian, 
 A. F. Izmaylov, J. Bloino, G. Zheng, J. L. Sonnenberg, M. Hada, 
 M. Ehara, K. Toyota, R. Fukuda, J. Hasegawa, M. Ishida, T. Nakajima, 
 Y. Honda, O. Kitao, H. Nakai, T. Vreven, J. A. Montgomery, Jr., 
 J. E. Peralta, F. Ogliaro, M. Bearpark, J. J. Heyd, E. Brothers, 
 K. N. Kudin, V. N. Staroverov, T. Keith, R. Kobayashi, J. Normand, 
 K. Raghavachari, A. Rendell, J. C. Burant, S. S. Iyengar, J. Tomasi, 
 M. Cossi, N. Rega, J. M. Millam, M. Klene, J. E. Knox, J. B. Cross, 
 V. Bakken, C. Adamo, J. Jaramillo, R. Gomperts, R. E. Stratmann, 
 O. Yazyev, A. J. Austin, R. Cammi, C. Pomelli, J. W. Ochterski, 
 R. L. Martin, K. Morokuma, V. G. Zakrzewski, G. A. Voth, 
 P. Salvador, J. J. Dannenberg, S. Dapprich, A. D. Daniels, 
 O. Farkas, J. B. Foresman, J. V. Ortiz, J. Cioslowski, 
 and D. J. Fox, Gaussian, Inc., Wallingford CT, 2013.
 
 ******************************************
 Gaussian 09:  EM64L-G09RevE.01 30-Nov-2015
                19-Jun-2016 
 ******************************************
 %NProcShared=4
 Will use up to    4 processors via shared memory.
 ---------------------------------------------
 #p b3lyp/6-311++G(3df,2p) freq symmetry=Loose
 ---------------------------------------------
 1/10=4,30=1,38=1/1,3;
 2/12=2,17=4,18=3,40=1/2;
 3/5=4,6=6,7=1216,11=2,16=1,25=1,30=1,71=2,74=-5,140=1/1,2,3;
 4//1;
 5/5=2,38=5,98=1/2;
 8/6=4,10=90,11=11/1;
 11/6=1,8=1,9=11,15=111,16=1/1,2,10;
 10/6=1/2;
 6/7=2,8=2,9=2,10=2,18=1,28=1/1;
 7/8=1,10=1,25=1/1,2,3,16;
 1/10=4,30=1/3;
 99//99;
 Leave Link    1 at Sun Jun 19 02:40:21 2016, MaxMem=           0 cpu:         0.3
 (Enter /home/proyectos/fulerenos/M3C-v1.9/M3C-deps_CCC/g09-AM64L-G09RevC.01/l101.exe)
 ---------
 b3lyp opt
 ---------
 Symbolic Z-matrix:
 Charge =  0 Multiplicity = 1
 C                     0.        0.        5.10648 
 C                     0.        0.        3.82577 
 C                     0.        0.        2.53986 
 C                     0.        0.        1.27307 
 C                     0.        0.        0. 
 C                     0.        0.       -1.27307 
 C                     0.        0.       -2.53986 
 C                     0.        0.       -3.82577 
 C                     0.        0.       -5.10648 
 
 NAtoms=      9 NQM=        9 NQMF=       0 NMMI=      0 NMMIF=      0
                NMic=       0 NMicF=      0.
                    Isotopes and Nuclear Properties:
 (Nuclear quadrupole moments (NQMom) in fm**2, nuclear magnetic moments (NMagM)
  in nuclear magnetons)

  Atom         1           2           3           4           5           6           7           8           9
 IAtWgt=          12          12          12          12          12          12          12          12          12
 AtmWgt=  12.0000000  12.0000000  12.0000000  12.0000000  12.0000000  12.0000000  12.0000000  12.0000000  12.0000000
 NucSpn=           0           0           0           0           0           0           0           0           0
 AtZEff=   0.0000000   0.0000000   0.0000000   0.0000000   0.0000000   0.0000000   0.0000000   0.0000000   0.0000000
 NQMom=    0.0000000   0.0000000   0.0000000   0.0000000   0.0000000   0.0000000   0.0000000   0.0000000   0.0000000
 NMagM=    0.0000000   0.0000000   0.0000000   0.0000000   0.0000000   0.0000000   0.0000000   0.0000000   0.0000000
 AtZNuc=   6.0000000   6.0000000   6.0000000   6.0000000   6.0000000   6.0000000   6.0000000   6.0000000   6.0000000
 Leave Link  101 at Sun Jun 19 02:40:21 2016, MaxMem=    33554432 cpu:         0.2
 (Enter /home/proyectos/fulerenos/M3C-v1.9/M3C-deps_CCC/g09-AM64L-G09RevC.01/l103.exe)

 GradGradGradGradGradGradGradGradGradGradGradGradGradGradGradGradGradGrad
 Berny optimization.
 Initialization pass.
 Trust Radius=3.00D-01 FncErr=1.00D-07 GrdErr=1.00D-07
 Number of steps in this run=      2 maximum allowed number of steps=      2.
 GradGradGradGradGradGradGradGradGradGradGradGradGradGradGradGradGradGrad

 Leave Link  103 at Sun Jun 19 02:40:21 2016, MaxMem=    33554432 cpu:         0.1
 (Enter /home/proyectos/fulerenos/M3C-v1.9/M3C-deps_CCC/g09-AM64L-G09RevC.01/l202.exe)
                          Input orientation:                          
 ---------------------------------------------------------------------
 Center     Atomic      Atomic             Coordinates (Angstroms)
 Number     Number       Type             X           Y           Z
 ---------------------------------------------------------------------
      1          6           0        0.000000    0.000000    5.106476
      2          6           0        0.000000    0.000000    3.825772
      3          6           0        0.000000    0.000000    2.539861
      4          6           0        0.000000    0.000000    1.273074
      5          6           0        0.000000    0.000000    0.000000
      6          6           0        0.000000    0.000000   -1.273074
      7          6           0        0.000000    0.000000   -2.539861
      8          6           0        0.000000    0.000000   -3.825772
      9          6           0        0.000000    0.000000   -5.106476
 ---------------------------------------------------------------------
                    Distance matrix (angstroms):
                    1          2          3          4          5
     1  C    0.000000
     2  C    1.280704   0.000000
     3  C    2.566615   1.285911   0.000000
     4  C    3.833402   2.552698   1.266787   0.000000
     5  C    5.106476   3.825772   2.539861   1.273074   0.000000
     6  C    6.379550   5.098846   3.812935   2.546148   1.273074
     7  C    7.646337   6.365633   5.079722   3.812935   2.539861
     8  C    8.932248   7.651544   6.365633   5.098846   3.825772
     9  C   10.212952   8.932248   7.646337   6.379550   5.106476
                    6          7          8          9
     6  C    0.000000
     7  C    1.266787   0.000000
     8  C    2.552698   1.285911   0.000000
     9  C    3.833402   2.566615   1.280704   0.000000
 Stoichiometry    C9
 Framework group  D*H[O(C),C*(CCCC.CCCC)]
 Deg. of freedom     4
 Full point group                 D*H     NOp   8
 Largest Abelian subgroup         D2H     NOp   8
 Largest concise Abelian subgroup C2      NOp   2
                         Standard orientation:                         
 ---------------------------------------------------------------------
 Center     Atomic      Atomic             Coordinates (Angstroms)
 Number     Number       Type             X           Y           Z
 ---------------------------------------------------------------------
      1          6           0        0.000000    0.000000    5.106476
      2          6           0        0.000000    0.000000    3.825772
      3          6           0        0.000000    0.000000    2.539861
      4          6           0        0.000000    0.000000    1.273074
      5          6           0        0.000000    0.000000    0.000000
      6          6           0        0.000000    0.000000   -1.273074
      7          6           0        0.000000    0.000000   -2.539861
      8          6           0        0.000000    0.000000   -3.825772
      9          6           0        0.000000    0.000000   -5.106476
 ---------------------------------------------------------------------
 Rotational constants (GHZ):      0.0000000      0.4316447      0.4316447
 Leave Link  202 at Sun Jun 19 02:40:21 2016, MaxMem=    33554432 cpu:         0.0
 (Enter /home/proyectos/fulerenos/M3C-v1.9/M3C-deps_CCC/g09-AM64L-G09RevC.01/l301.exe)
 Standard basis: 6-311++G(3df,2p) (5D, 7F)
 Ernie: Thresh=  0.10000D-02 Tol=  0.10000D-05 Strict=F.
 There are    98 symmetry adapted cartesian basis functions of AG  symmetry.
 There are    19 symmetry adapted cartesian basis functions of B1G symmetry.
 There are    43 symmetry adapted cartesian basis functions of B2G symmetry.
 There are    43 symmetry adapted cartesian basis functions of B3G symmetry.
 There are    17 symmetry adapted cartesian basis functions of AU  symmetry.
 There are    91 symmetry adapted cartesian basis functions of B1U symmetry.
 There are    47 symmetry adapted cartesian basis functions of B2U symmetry.
 There are    47 symmetry adapted cartesian basis functions of B3U symmetry.
 There are    79 symmetry adapted basis functions of AG  symmetry.
 There are    19 symmetry adapted basis functions of B1G symmetry.
 There are    39 symmetry adapted basis functions of B2G symmetry.
 There are    39 symmetry adapted basis functions of B3G symmetry.
 There are    17 symmetry adapted basis functions of AU  symmetry.
 There are    74 symmetry adapted basis functions of B1U symmetry.
 There are    42 symmetry adapted basis functions of B2U symmetry.
 There are    42 symmetry adapted basis functions of B3U symmetry.
   351 basis functions,   522 primitive gaussians,   405 cartesian basis functions
    27 alpha electrons       27 beta electrons
       nuclear repulsion energy       245.7734554804 Hartrees.
 IExCor=  402 DFT=T Ex+Corr=B3LYP ExCW=0 ScaHFX=  0.200000
 ScaDFX=  0.800000  0.720000  1.000000  0.810000 ScalE2=  1.000000  1.000000
 IRadAn=      0 IRanWt=     -1 IRanGd=            0 ICorTp=0 IEmpDi=  4
 NAtoms=    9 NActive=    9 NUniq=    5 SFac= 3.24D+00 NAtFMM=   60 NAOKFM=F Big=F
 Integral buffers will be    131072 words long.
 Raffenetti 2 integral format.
 Two-electron integral symmetry is turned on.
 Leave Link  301 at Sun Jun 19 02:40:21 2016, MaxMem=    33554432 cpu:         0.2
 (Enter /home/proyectos/fulerenos/M3C-v1.9/M3C-deps_CCC/g09-AM64L-G09RevC.01/l302.exe)
 NPDir=0 NMtPBC=     1 NCelOv=     1 NCel=       1 NClECP=     1 NCelD=      1
         NCelK=      1 NCelE2=     1 NClLst=     1 CellRange=     0.0.
 One-electron integrals computed using PRISM.
 One-electron integral symmetry used in STVInt
 NBasis=   351 RedAO= T EigKep=  1.54D-06  NBF=    79    19    39    39    17    74    42    42
 NBsUse=   344 1.00D-06 EigRej=  4.21D-07 NBFU=    76    19    39    39    17    70    42    42
 Precomputing XC quadrature grid using
 IXCGrd= 4 IRadAn=           0 IRanWt=          -1 IRanGd=           0 AccXCQ= 0.00D+00.
 Generated NRdTot=       0 NPtTot=           0 NUsed=           0 NTot=          32
 NSgBfM=   394   394   394   394   394 MxSgAt=     9 MxSgA2=     9.
 Leave Link  302 at Sun Jun 19 02:40:22 2016, MaxMem=    33554432 cpu:         1.5
 (Enter /home/proyectos/fulerenos/M3C-v1.9/M3C-deps_CCC/g09-AM64L-G09RevC.01/l303.exe)
 DipDrv:  MaxL=1.
 Leave Link  303 at Sun Jun 19 02:40:22 2016, MaxMem=    33554432 cpu:         0.2
 (Enter /home/proyectos/fulerenos/M3C-v1.9/M3C-deps_CCC/g09-AM64L-G09RevC.01/l401.exe)
 ExpMin= 4.38D-02 ExpMax= 4.56D+03 ExpMxC= 6.82D+02 IAcc=2 IRadAn=         4 AccDes= 0.00D+00
 Harris functional with IExCor=  402 and IRadAn=       4 diagonalized for initial guess.
 HarFok:  IExCor=  402 AccDes= 0.00D+00 IRadAn=         4 IDoV= 1 UseB2=F ITyADJ=14
 ICtDFT=  3500011 ScaDFX=  1.000000  1.000000  1.000000  1.000000
 FoFCou: FMM=F IPFlag=           0 FMFlag=      100000 FMFlg1=           0
         NFxFlg=           0 DoJE=T BraDBF=F KetDBF=T FulRan=T
         wScrn=  0.000000 ICntrl=     500 IOpCl=  0 I1Cent=   200000004 NGrid=           0
         NMat0=    1 NMatS0=      1 NMatT0=    0 NMatD0=    1 NMtDS0=    0 NMtDT0=    0
 Petite list used in FoFCou.
 Harris En= -342.694412035787    
 JPrj=0 DoOrth=F DoCkMO=F.
 Initial guess orbital symmetries:
       Occupied  (SGG) (SGU) (SGG) (SGU) (SGG) (SGU) (SGG) (SGU)
                 (SGG) (SGG) (SGU) (SGG) (SGU) (SGG) (SGU) (SGG)
                 (SGU) (PIU) (PIU) (PIG) (PIG) (PIU) (PIU) (SGG)
                 (SGU) (PIG) (PIG)
       Virtual   (PIU) (PIU) (PIG) (PIG) (PIU) (PIU) (SGG) (SGU)
                 (PIG) (PIG) (SGG) (PIU) (PIU) (SGU) (PIG) (PIG)
                 (SGG) (PIU) (PIU) (SGG) (SGU) (PIG) (PIG) (PIU)
                 (PIU) (SGU) (SGG) (PIU) (PIU) (SGU) (SGG) (PIG)
                 (PIG) (DLTG) (DLTG) (DLTU) (DLTU) (SGU) (SGG)
                 (PIU) (PIU) (SGG) (DLTG) (DLTG) (SGU) (SGG) (DLTU)
                 (DLTU) (PIG) (PIG) (PIG) (PIG) (SGU) (PIU) (PIU)
                 (DLTG) (DLTG) (SGU) (SGG) (PIU) (PIU) (SGG) (SGU)
                 (PIU) (PIU) (SGG) (PIG) (PIG) (DLTU) (DLTU) (PIU)
                 (PIU) (PIG) (PIG) (SGU) (DLTG) (DLTG) (PIU) (PIU)
                 (SGU) (SGG) (PIG) (PIG) (PIG) (PIG) (SGG) (DLTU)
                 (DLTU) (SGG) (SGU) (PIU) (PIU) (SGU) (SGG) (PIG)
                 (PIG) (SGU) (PIU) (PIU) (DLTG) (DLTG) (SGU) (PIG)
                 (PIG) (PIU) (PIU) (SGG) (PIU) (PIU) (PIG) (PIG)
                 (SGG) (SGU) (PIG) (PIG) (SGG) (PIU) (PIU) (SGU)
                 (SGG) (SGU) (SGU) (DLTG) (DLTG) (SGG) (DLTU) (DLTU)
                 (DLTG) (DLTG) (DLTU) (DLTU) (SGG) (SGU) (PIG)
                 (PIG) (DLTG) (DLTG) (PIU) (PIU) (SGG) (DLTU) (DLTU)
                 (PIG) (PIG) (DLTG) (DLTG) (SGU) (PIU) (PIU) (DLTU)
                 (DLTU) (PIG) (PIG) (SGG) (DLTG) (DLTG) (PIU) (PIU)
                 (SGU) (SGG) (PIG) (PIG) (DLTU) (DLTU) (SGG) (PHIU)
                 (PHIU) (PIU) (PIU) (DLTG) (DLTG) (PHIG) (PHIG)
                 (SGU) (SGU) (PIU) (PIU) (PHIU) (PHIU) (PHIG) (PHIG)
                 (DLTU) (DLTU) (SGG) (PHIU) (PHIU) (PIG) (PIG)
                 (SGG) (PIU) (PIU) (PIG) (PIG) (PIG) (PIG) (PHIG)
                 (PHIG) (PIU) (PIU) (DLTG) (DLTG) (SGU) (PIU) (PIU)
                 (PHIU) (PHIU) (SGU) (PIG) (PIG) (PHIG) (PHIG)
                 (SGG) (PHIU) (PHIU) (PIU) (PIU) (PIG) (PIG) (DLTU)
                 (DLTU) (SGG) (PIU) (PIU) (SGU) (SGU) (DLTG) (DLTG)
                 (SGG) (SGU) (PIG) (PIG) (SGG) (DLTU) (DLTU) (SGG)
                 (SGU) (SGG) (PIU) (PIU) (SGU) (DLTG) (DLTG) (PIG)
                 (PIG) (DLTU) (DLTU) (PIU) (PIU) (SGU) (SGG) (SGG)
                 (SGU) (SGU) (PIG) (PIG) (PIU) (PIU) (SGG) (PIG)
                 (PIG) (DLTG) (DLTG) (DLTU) (DLTU) (DLTG) (DLTG)
                 (DLTU) (DLTU) (DLTG) (DLTG) (DLTU) (DLTU) (DLTG)
                 (DLTG) (SGG) (DLTU) (DLTU) (DLTG) (DLTG) (SGU)
                 (PIU) (PIU) (PIG) (PIG) (PIU) (PIU) (PIG) (PIG)
                 (PIG) (PIG) (PIU) (PIU) (PIU) (PIU) (PIG) (PIG)
                 (SGG) (PIU) (PIU) (SGU) (PIG) (PIG) (SGU) (SGG)
                 (SGG) (SGU) (SGG) (SGU) (SGG) (SGU) (SGG) (SGU)
                 (SGG) (SGG) (SGU) (SGU) (SGG)
 The electronic state of the initial guess is 1-SGG.
 Leave Link  401 at Sun Jun 19 02:40:22 2016, MaxMem=    33554432 cpu:         2.4
 (Enter /home/proyectos/fulerenos/M3C-v1.9/M3C-deps_CCC/g09-AM64L-G09RevC.01/l502.exe)
 Closed shell SCF:
 Using DIIS extrapolation, IDIIS=  1040.
 Integral symmetry usage will be decided dynamically.
 IVT=      516881 IEndB=      516881 NGot=    33554432 MDV=    33218622
 LenX=    33218622 LenY=    33054156
 Requested convergence on RMS density matrix=1.00D-08 within 128 cycles.
 Requested convergence on MAX density matrix=1.00D-06.
 Requested convergence on             energy=1.00D-06.
 No special actions if energy rises.
 Fock matrices will be formed incrementally for  20 cycles.

 Cycle   1  Pass 1  IDiag  1:
 FoFJK:  IHMeth= 1 ICntrl=       0 DoSepK=F KAlg= 0 I1Cent=   0 FoldK=F
 IRaf= 830000000 NMat=   1 IRICut=       1 DoRegI=T DoRafI=F ISym2E= 1.
 FoFCou: FMM=F IPFlag=           0 FMFlag=      100000 FMFlg1=           0
         NFxFlg=           0 DoJE=F BraDBF=F KetDBF=F FulRan=T
         wScrn=  0.000000 ICntrl=       0 IOpCl=  0 I1Cent=           0 NGrid=           0
         NMat0=    1 NMatS0=      1 NMatT0=    0 NMatD0=    1 NMtDS0=    0 NMtDT0=    0
 Petite list used in FoFCou.
 E= -342.489709972871    
 DIIS: error= 2.40D-02 at cycle   1 NSaved=   1.
 NSaved= 1 IEnMin= 1 EnMin= -342.489709972871     IErMin= 1 ErrMin= 2.40D-02
 ErrMax= 2.40D-02  0.00D+00 EMaxC= 1.00D-01 BMatC= 1.56D-01 BMatP= 1.56D-01
 IDIUse=3 WtCom= 7.60D-01 WtEn= 2.40D-01
 Coeff-Com:  0.100D+01
 Coeff-En:   0.100D+01
 Coeff:      0.100D+01
 Gap=     0.077 Goal=   None    Shift=    0.000
 GapD=    0.077 DampG=0.500 DampE=0.500 DampFc=0.2500 IDamp=-1.
 Damping current iteration by 2.50D-01
 RMSDP=1.45D-02 MaxDP=1.09D+00              OVMax= 2.99D-01

 Cycle   2  Pass 1  IDiag  1:
 RMSU=  3.61D-03    CP:  9.94D-01
 E= -342.534046829045     Delta-E=       -0.044336856174 Rises=F Damp=T
 DIIS: error= 1.46D-02 at cycle   2 NSaved=   2.
 NSaved= 2 IEnMin= 2 EnMin= -342.534046829045     IErMin= 2 ErrMin= 1.46D-02
 ErrMax= 1.46D-02  0.00D+00 EMaxC= 1.00D-01 BMatC= 5.39D-02 BMatP= 1.56D-01
 IDIUse=3 WtCom= 8.54D-01 WtEn= 1.46D-01
 Coeff-Com: -0.767D+00 0.177D+01
 Coeff-En:   0.000D+00 0.100D+01
 Coeff:     -0.655D+00 0.165D+01
 Gap=     0.098 Goal=   None    Shift=    0.000
 RMSDP=9.09D-03 MaxDP=5.91D-01 DE=-4.43D-02 OVMax= 3.52D-01

 Cycle   3  Pass 1  IDiag  1:
 RMSU=  4.39D-03    CP:  9.88D-01  3.00D+00
 E= -342.431807857324     Delta-E=        0.102238971721 Rises=F Damp=F
 DIIS: error= 5.59D-02 at cycle   3 NSaved=   3.
 NSaved= 3 IEnMin= 2 EnMin= -342.534046829045     IErMin= 2 ErrMin= 1.46D-02
 ErrMax= 5.59D-02  0.00D+00 EMaxC= 1.00D-01 BMatC= 1.44D-01 BMatP= 5.39D-02
 IDIUse=2 WtCom= 0.00D+00 WtEn= 1.00D+00
 Coeff-En:   0.000D+00 0.752D+00 0.248D+00
 Coeff:      0.000D+00 0.752D+00 0.248D+00
 Gap=     0.091 Goal=   None    Shift=    0.000
 RMSDP=3.70D-03 MaxDP=2.07D-01 DE= 1.02D-01 OVMax= 3.05D-01

 Cycle   4  Pass 1  IDiag  1:
 RMSU=  2.29D-03    CP:  9.51D-01  3.00D+00  3.77D-01
 E= -342.506492881605     Delta-E=       -0.074685024280 Rises=F Damp=F
 DIIS: error= 4.93D-02 at cycle   4 NSaved=   4.
 NSaved= 4 IEnMin= 2 EnMin= -342.534046829045     IErMin= 2 ErrMin= 1.46D-02
 ErrMax= 4.93D-02  0.00D+00 EMaxC= 1.00D-01 BMatC= 9.21D-02 BMatP= 5.39D-02
 IDIUse=2 WtCom= 0.00D+00 WtEn= 1.00D+00
 Coeff-En:   0.000D+00 0.000D+00 0.424D+00 0.576D+00
 Coeff:      0.000D+00 0.000D+00 0.424D+00 0.576D+00
 Gap=     0.103 Goal=   None    Shift=    0.000
 RMSDP=3.37D-03 MaxDP=2.57D-01 DE=-7.47D-02 OVMax= 1.69D-01

 Cycle   5  Pass 1  IDiag  1:
 RMSU=  1.78D-03    CP:  9.38D-01  2.84D+00  7.26D-01  2.53D-01
 E= -342.625064117580     Delta-E=       -0.118571235976 Rises=F Damp=F
 DIIS: error= 6.24D-03 at cycle   5 NSaved=   5.
 NSaved= 5 IEnMin= 5 EnMin= -342.625064117580     IErMin= 5 ErrMin= 6.24D-03
 ErrMax= 6.24D-03  0.00D+00 EMaxC= 1.00D-01 BMatC= 8.13D-03 BMatP= 5.39D-02
 IDIUse=3 WtCom= 9.38D-01 WtEn= 6.24D-02
 Coeff-Com: -0.816D+00 0.113D+01 0.832D-01-0.171D+00 0.773D+00
 Coeff-En:   0.000D+00 0.000D+00 0.000D+00 0.310D-01 0.969D+00
 Coeff:     -0.765D+00 0.106D+01 0.780D-01-0.158D+00 0.785D+00
 Gap=     0.098 Goal=   None    Shift=    0.000
 RMSDP=8.81D-04 MaxDP=4.96D-02 DE=-1.19D-01 OVMax= 2.95D-02

 Cycle   6  Pass 1  IDiag  1:
 RMSU=  2.67D-04    CP:  9.50D-01  2.94D+00  6.20D-01  1.45D-01  7.65D-01
 E= -342.632838905559     Delta-E=       -0.007774787979 Rises=F Damp=F
 DIIS: error= 8.38D-04 at cycle   6 NSaved=   6.
 NSaved= 6 IEnMin= 6 EnMin= -342.632838905559     IErMin= 6 ErrMin= 8.38D-04
 ErrMax= 8.38D-04  0.00D+00 EMaxC= 1.00D-01 BMatC= 1.17D-04 BMatP= 8.13D-03
 IDIUse=3 WtCom= 9.92D-01 WtEn= 8.38D-03
 Coeff-Com: -0.260D+00 0.348D+00 0.205D-01-0.443D-01 0.326D+00 0.609D+00
 Coeff-En:   0.000D+00 0.000D+00 0.000D+00 0.000D+00 0.000D+00 0.100D+01
 Coeff:     -0.257D+00 0.345D+00 0.204D-01-0.440D-01 0.323D+00 0.613D+00
 Gap=     0.099 Goal=   None    Shift=    0.000
 RMSDP=1.08D-04 MaxDP=6.42D-03 DE=-7.77D-03 OVMax= 3.94D-03

 Cycle   7  Pass 1  IDiag  1:
 RMSU=  5.26D-05    CP:  9.50D-01  2.96D+00  6.27D-01  1.50D-01  7.74D-01
                    CP:  8.27D-01
 E= -342.632937926016     Delta-E=       -0.000099020457 Rises=F Damp=F
 DIIS: error= 6.19D-04 at cycle   7 NSaved=   7.
 NSaved= 7 IEnMin= 7 EnMin= -342.632937926016     IErMin= 7 ErrMin= 6.19D-04
 ErrMax= 6.19D-04  0.00D+00 EMaxC= 1.00D-01 BMatC= 2.37D-05 BMatP= 1.17D-04
 IDIUse=3 WtCom= 9.94D-01 WtEn= 6.19D-03
 Coeff-Com: -0.865D-01 0.112D+00 0.417D-02-0.867D-02 0.134D+00 0.387D+00
 Coeff-Com:  0.458D+00
 Coeff-En:   0.000D+00 0.000D+00 0.000D+00 0.000D+00 0.000D+00 0.910D-02
 Coeff-En:   0.991D+00
 Coeff:     -0.859D-01 0.112D+00 0.414D-02-0.861D-02 0.133D+00 0.385D+00
 Coeff:      0.461D+00
 Gap=     0.099 Goal=   None    Shift=    0.000
 RMSDP=3.13D-05 MaxDP=1.45D-03 DE=-9.90D-05 OVMax= 1.90D-03

 Cycle   8  Pass 1  IDiag  1:
 RMSU=  2.31D-05    CP:  9.50D-01  2.96D+00  6.24D-01  1.49D-01  7.70D-01
                    CP:  8.49D-01  7.28D-01
 E= -342.632960840948     Delta-E=       -0.000022914932 Rises=F Damp=F
 DIIS: error= 1.64D-04 at cycle   8 NSaved=   8.
 NSaved= 8 IEnMin= 8 EnMin= -342.632960840948     IErMin= 8 ErrMin= 1.64D-04
 ErrMax= 1.64D-04  0.00D+00 EMaxC= 1.00D-01 BMatC= 3.67D-06 BMatP= 2.37D-05
 IDIUse=3 WtCom= 9.98D-01 WtEn= 1.64D-03
 Coeff-Com: -0.196D-01 0.252D-01-0.109D-02-0.301D-03 0.328D-01 0.130D+00
 Coeff-Com:  0.313D+00 0.520D+00
 Coeff-En:   0.000D+00 0.000D+00 0.000D+00 0.000D+00 0.000D+00 0.000D+00
 Coeff-En:   0.562D-01 0.944D+00
 Coeff:     -0.196D-01 0.251D-01-0.109D-02-0.300D-03 0.327D-01 0.130D+00
 Coeff:      0.312D+00 0.521D+00
 Gap=     0.099 Goal=   None    Shift=    0.000
 RMSDP=1.65D-05 MaxDP=9.22D-04 DE=-2.29D-05 OVMax= 5.51D-04

 Cycle   9  Pass 1  IDiag  1:
 RMSU=  8.78D-06    CP:  9.50D-01  2.96D+00  6.25D-01  1.51D-01  7.72D-01
                    CP:  8.31D-01  8.67D-01  8.05D-01
 E= -342.632964540417     Delta-E=       -0.000003699469 Rises=F Damp=F
 DIIS: error= 4.22D-05 at cycle   9 NSaved=   9.
 NSaved= 9 IEnMin= 9 EnMin= -342.632964540417     IErMin= 9 ErrMin= 4.22D-05
 ErrMax= 4.22D-05  0.00D+00 EMaxC= 1.00D-01 BMatC= 3.38D-07 BMatP= 3.67D-06
 IDIUse=1 WtCom= 1.00D+00 WtEn= 0.00D+00
 Coeff-Com:  0.333D-02-0.432D-02-0.167D-02 0.129D-02-0.491D-02 0.138D-01
 Coeff-Com:  0.126D+00 0.311D+00 0.556D+00
 Coeff:      0.333D-02-0.432D-02-0.167D-02 0.129D-02-0.491D-02 0.138D-01
 Coeff:      0.126D+00 0.311D+00 0.556D+00
 Gap=     0.099 Goal=   None    Shift=    0.000
 RMSDP=7.33D-06 MaxDP=6.11D-04 DE=-3.70D-06 OVMax= 1.82D-04

 Cycle  10  Pass 1  IDiag  1:
 RMSU=  2.50D-06    CP:  9.50D-01  2.96D+00  6.24D-01  1.51D-01  7.72D-01
                    CP:  8.39D-01  8.90D-01  8.64D-01  9.83D-01
 E= -342.632964853438     Delta-E=       -0.000000313022 Rises=F Damp=F
 DIIS: error= 1.36D-05 at cycle  10 NSaved=  10.
 NSaved=10 IEnMin=10 EnMin= -342.632964853438     IErMin=10 ErrMin= 1.36D-05
 ErrMax= 1.36D-05  0.00D+00 EMaxC= 1.00D-01 BMatC= 1.40D-08 BMatP= 3.38D-07
 IDIUse=1 WtCom= 1.00D+00 WtEn= 0.00D+00
 Coeff-Com:  0.250D-04-0.191D-04-0.245D-04-0.156D-03-0.640D-03 0.261D-02
 Coeff-Com:  0.389D-02 0.128D-01 0.131D+00 0.851D+00
 Coeff:      0.250D-04-0.191D-04-0.245D-04-0.156D-03-0.640D-03 0.261D-02
 Coeff:      0.389D-02 0.128D-01 0.131D+00 0.851D+00
 Gap=     0.099 Goal=   None    Shift=    0.000
 RMSDP=1.02D-06 MaxDP=6.29D-05 DE=-3.13D-07 OVMax= 5.12D-05

 Cycle  11  Pass 1  IDiag  1:
 RMSU=  4.15D-07    CP:  9.50D-01  2.96D+00  6.24D-01  1.51D-01  7.72D-01
                    CP:  8.40D-01  8.91D-01  8.70D-01  9.90D-01  8.99D-01
 E= -342.632964871257     Delta-E=       -0.000000017818 Rises=F Damp=F
 DIIS: error= 2.96D-06 at cycle  11 NSaved=  11.
 NSaved=11 IEnMin=11 EnMin= -342.632964871257     IErMin=11 ErrMin= 2.96D-06
 ErrMax= 2.96D-06  0.00D+00 EMaxC= 1.00D-01 BMatC= 4.65D-10 BMatP= 1.40D-08
 IDIUse=1 WtCom= 1.00D+00 WtEn= 0.00D+00
 Coeff-Com:  0.654D-04-0.794D-04 0.739D-05-0.127D-04-0.195D-03 0.406D-04
 Coeff-Com: -0.325D-02-0.104D-01 0.118D-02 0.883D-01 0.924D+00
 Coeff:      0.654D-04-0.794D-04 0.739D-05-0.127D-04-0.195D-03 0.406D-04
 Coeff:     -0.325D-02-0.104D-01 0.118D-02 0.883D-01 0.924D+00
 Gap=     0.099 Goal=   None    Shift=    0.000
 RMSDP=1.58D-07 MaxDP=8.86D-06 DE=-1.78D-08 OVMax= 9.61D-06

 Cycle  12  Pass 1  IDiag  1:
 RMSU=  7.64D-08    CP:  9.50D-01  2.96D+00  6.24D-01  1.51D-01  7.72D-01
                    CP:  8.40D-01  8.92D-01  8.71D-01  9.98D-01  9.09D-01
                    CP:  9.81D-01
 E= -342.632964871858     Delta-E=       -0.000000000602 Rises=F Damp=F
 DIIS: error= 1.96D-07 at cycle  12 NSaved=  12.
 NSaved=12 IEnMin=12 EnMin= -342.632964871858     IErMin=12 ErrMin= 1.96D-07
 ErrMax= 1.96D-07  0.00D+00 EMaxC= 1.00D-01 BMatC= 3.00D-12 BMatP= 4.65D-10
 IDIUse=1 WtCom= 1.00D+00 WtEn= 0.00D+00
 Coeff-Com:  0.862D-05-0.117D-04 0.161D-05 0.277D-06-0.140D-04 0.612D-04
 Coeff-Com: -0.315D-03-0.115D-02-0.881D-03-0.271D-02 0.872D-01 0.918D+00
 Coeff:      0.862D-05-0.117D-04 0.161D-05 0.277D-06-0.140D-04 0.612D-04
 Coeff:     -0.315D-03-0.115D-02-0.881D-03-0.271D-02 0.872D-01 0.918D+00
 Gap=     0.099 Goal=   None    Shift=    0.000
 RMSDP=3.20D-08 MaxDP=2.61D-06 DE=-6.02D-10 OVMax= 4.97D-07

 Cycle  13  Pass 1  IDiag  1:
 RMSU=  1.11D-08    CP:  9.50D-01  2.96D+00  6.24D-01  1.51D-01  7.72D-01
                    CP:  8.40D-01  8.92D-01  8.71D-01  9.98D-01  9.08D-01
                    CP:  9.91D-01  1.11D+00
 E= -342.632964871896     Delta-E=       -0.000000000037 Rises=F Damp=F
 DIIS: error= 5.03D-08 at cycle  13 NSaved=  13.
 NSaved=13 IEnMin=13 EnMin= -342.632964871896     IErMin=13 ErrMin= 5.03D-08
 ErrMax= 5.03D-08  0.00D+00 EMaxC= 1.00D-01 BMatC= 1.37D-13 BMatP= 3.00D-12
 IDIUse=1 WtCom= 1.00D+00 WtEn= 0.00D+00
 Coeff-Com:  0.570D-06-0.872D-06 0.150D-06-0.526D-07 0.889D-06 0.892D-05
 Coeff-Com:  0.263D-04 0.118D-03 0.331D-04-0.268D-02-0.116D-01 0.825D-01
 Coeff-Com:  0.932D+00
 Coeff:      0.570D-06-0.872D-06 0.150D-06-0.526D-07 0.889D-06 0.892D-05
 Coeff:      0.263D-04 0.118D-03 0.331D-04-0.268D-02-0.116D-01 0.825D-01
 Coeff:      0.932D+00
 Gap=     0.099 Goal=   None    Shift=    0.000
 RMSDP=1.58D-08 MaxDP=1.14D-06 DE=-3.74D-11 OVMax= 1.70D-07

 Cycle  14  Pass 1  IDiag  1:
 RMSU=  5.62D-09    CP:  9.50D-01  2.96D+00  6.24D-01  1.51D-01  7.72D-01
                    CP:  8.40D-01  8.92D-01  8.72D-01  9.98D-01  9.08D-01
                    CP:  9.93D-01  1.18D+00  1.42D+00
 E= -342.632964871942     Delta-E=       -0.000000000047 Rises=F Damp=F
 DIIS: error= 3.51D-09 at cycle  14 NSaved=  14.
 NSaved=14 IEnMin=14 EnMin= -342.632964871942     IErMin=14 ErrMin= 3.51D-09
 ErrMax= 3.51D-09  0.00D+00 EMaxC= 1.00D-01 BMatC= 1.11D-15 BMatP= 1.37D-13
 IDIUse=1 WtCom= 1.00D+00 WtEn= 0.00D+00
 Coeff-Com: -0.389D-07 0.477D-07-0.212D-07 0.159D-07 0.306D-06 0.140D-05
 Coeff-Com:  0.259D-05 0.284D-04 0.294D-04-0.184D-03-0.178D-02-0.649D-02
 Coeff-Com:  0.966D-01 0.912D+00
 Coeff:     -0.389D-07 0.477D-07-0.212D-07 0.159D-07 0.306D-06 0.140D-05
 Coeff:      0.259D-05 0.284D-04 0.294D-04-0.184D-03-0.178D-02-0.649D-02
 Coeff:      0.966D-01 0.912D+00
 Gap=     0.099 Goal=   None    Shift=    0.000
 RMSDP=4.56D-08 MaxDP=4.22D-06 DE=-4.70D-11 OVMax= 7.58D-09

 Cycle  15  Pass 1  IDiag  1:
 RMSU=  7.32D-09    CP:  9.50D-01  2.96D+00  6.24D-01  1.51D-01  7.72D-01
                    CP:  8.40D-01  8.92D-01  8.72D-01  9.99D-01  9.09D-01
                    CP:  9.93D-01  1.32D+00  3.00D+00  2.87D+00
 E= -342.632964872026     Delta-E=       -0.000000000083 Rises=F Damp=F
 DIIS: error= 3.66D-09 at cycle  15 NSaved=  15.
 NSaved=15 IEnMin=15 EnMin= -342.632964872026     IErMin=14 ErrMin= 3.51D-09
 ErrMax= 3.66D-09  0.00D+00 EMaxC= 1.00D-01 BMatC= 4.93D-16 BMatP= 1.11D-15
 IDIUse=1 WtCom= 1.00D+00 WtEn= 0.00D+00
 Coeff-Com: -0.723D-07 0.909D-07-0.491D-07 0.391D-07 0.505D-06 0.207D-05
 Coeff-Com:  0.367D-05 0.466D-04 0.517D-04-0.202D-03-0.266D-02-0.159D-01
 Coeff-Com:  0.126D+00 0.169D+01-0.800D+00
 Coeff:     -0.723D-07 0.909D-07-0.491D-07 0.391D-07 0.505D-06 0.207D-05
 Coeff:      0.367D-05 0.466D-04 0.517D-04-0.202D-03-0.266D-02-0.159D-01
 Coeff:      0.126D+00 0.169D+01-0.800D+00
 Gap=     0.099 Goal=   None    Shift=    0.000
 RMSDP=7.02D-08 MaxDP=6.44D-06 DE=-8.32D-11 OVMax= 5.58D-09

 Cycle  16  Pass 1  IDiag  1:
 RMSU=  2.28D-09    CP:  9.50D-01  2.96D+00  6.24D-01  1.51D-01  7.72D-01
                    CP:  8.40D-01  8.92D-01  8.71D-01  9.98D-01  9.08D-01
                    CP:  9.93D-01  1.10D+00  5.69D-01 -8.71D-02 -4.87D-01
 E= -342.632964871882     Delta-E=        0.000000000144 Rises=F Damp=F
 DIIS: error= 1.06D-09 at cycle  16 NSaved=  16.
 NSaved=16 IEnMin=15 EnMin= -342.632964872026     IErMin=16 ErrMin= 1.06D-09
 ErrMax= 1.06D-09  0.00D+00 EMaxC= 1.00D-01 BMatC= 6.63D-17 BMatP= 4.93D-16
 IDIUse=1 WtCom= 1.00D+00 WtEn= 0.00D+00
 Large coefficients: NSaved= 16 BigCof=    0.00 CofMax=   10.00 Det=-1.86D-17
 Inversion failed.  Reducing to 15 matrices.
 Coeff-Com: -0.260D-07 0.369D-07 0.172D-08-0.195D-08 0.283D-07-0.790D-06
 Coeff-Com: -0.349D-05-0.176D-05 0.282D-04 0.134D-03-0.862D-03-0.988D-02
 Coeff-Com: -0.152D-01-0.358D+00 0.138D+01
 Coeff:     -0.260D-07 0.369D-07 0.172D-08-0.195D-08 0.283D-07-0.790D-06
 Coeff:     -0.349D-05-0.176D-05 0.282D-04 0.134D-03-0.862D-03-0.988D-02
 Coeff:     -0.152D-01-0.358D+00 0.138D+01
 Gap=     0.099 Goal=   None    Shift=    0.000
 RMSDP=2.39D-08 MaxDP=2.02D-06 DE= 1.44D-10 OVMax= 1.92D-09

 Cycle  17  Pass 1  IDiag  1:
 RMSU=  1.46D-09    CP:  9.50D-01  2.96D+00  6.24D-01  1.51D-01  7.72D-01
                    CP:  8.40D-01  8.92D-01  8.71D-01  9.98D-01  9.08D-01
                    CP:  9.93D-01  1.01D+00 -1.38D-01 -1.03D+00 -8.18D-01
                    CP:  2.49D+00
 E= -342.632964871827     Delta-E=        0.000000000055 Rises=F Damp=F
 DIIS: error= 4.74D-10 at cycle  17 NSaved=  16.
 NSaved=16 IEnMin=14 EnMin= -342.632964872026     IErMin=16 ErrMin= 4.74D-10
 ErrMax= 4.74D-10  0.00D+00 EMaxC= 1.00D-01 BMatC= 7.63D-18 BMatP= 6.63D-17
 IDIUse=1 WtCom= 1.00D+00 WtEn= 0.00D+00
 Large coefficients: NSaved= 16 BigCof=    0.00 CofMax=   10.00 Det=-9.01D-19
 Inversion failed.  Reducing to 15 matrices.
 Coeff-Com:  0.143D-08 0.437D-08-0.261D-07-0.321D-09-0.716D-06-0.310D-05
 Coeff-Com: -0.171D-05 0.195D-04 0.125D-03-0.296D-03-0.680D-02-0.221D-01
 Coeff-Com: -0.284D+00 0.104D+01 0.268D+00
 Coeff:      0.143D-08 0.437D-08-0.261D-07-0.321D-09-0.716D-06-0.310D-05
 Coeff:     -0.171D-05 0.195D-04 0.125D-03-0.296D-03-0.680D-02-0.221D-01
 Coeff:     -0.284D+00 0.104D+01 0.268D+00
 Gap=     0.099 Goal=   None    Shift=    0.000
 RMSDP=1.58D-09 MaxDP=9.23D-08 DE= 5.46D-11 OVMax= 2.17D-10

 SCF Done:  E(RB3LYP) =  -342.632964872     A.U. after   17 cycles
            NFock= 17  Conv=0.16D-08     -V/T= 2.0046
 KE= 3.410751374255D+02 PE=-1.284920220872D+03 EE= 3.554386630938D+02
 Leave Link  502 at Sun Jun 19 02:43:18 2016, MaxMem=    33554432 cpu:       700.5
 (Enter /home/proyectos/fulerenos/M3C-v1.9/M3C-deps_CCC/g09-AM64L-G09RevC.01/l801.exe)
 DoSCS=F DFT=T ScalE2(SS,OS)=  1.000000  1.000000
 Range of M.O.s used for correlation:     1   344
 NBasis=   351 NAE=    27 NBE=    27 NFC=     0 NFV=     0
 NROrb=    344 NOA=    27 NOB=    27 NVA=   317 NVB=   317

 **** Warning!!: The largest alpha MO coefficient is  0.27447838D+03


 **** Warning!!: The smallest alpha delta epsilon is  0.99301851D-01

 Leave Link  801 at Sun Jun 19 02:43:18 2016, MaxMem=    33554432 cpu:         0.1
 (Enter /home/proyectos/fulerenos/M3C-v1.9/M3C-deps_CCC/g09-AM64L-G09RevC.01/l1101.exe)
 Using compressed storage, NAtomX=     9.
 Will process     10 centers per pass.
 Leave Link 1101 at Sun Jun 19 02:43:19 2016, MaxMem=    33554432 cpu:         1.7
 (Enter /home/proyectos/fulerenos/M3C-v1.9/M3C-deps_CCC/g09-AM64L-G09RevC.01/l1102.exe)
 Symmetrizing basis deriv contribution to polar:
 IMax=3 JMax=2 DiffMx= 0.00D+00
 Leave Link 1102 at Sun Jun 19 02:43:20 2016, MaxMem=    33554432 cpu:         0.2
 (Enter /home/proyectos/fulerenos/M3C-v1.9/M3C-deps_CCC/g09-AM64L-G09RevC.01/l1110.exe)
 Forming Gx(P) for the SCF density, NAtomX=     9.
 Integral derivatives from FoFJK, PRISM(SPDF).
 Do as many integral derivatives as possible in FoFJK.
 G2DrvN: MDV=      33554256.
 G2DrvN: will do    10 centers at a time, making    1 passes.
 Calling FoFCou, ICntrl=  3107 FMM=F I1Cent=   0 AccDes= 0.00D+00.
 FoFJK:  IHMeth= 1 ICntrl=    3107 DoSepK=F KAlg= 0 I1Cent=   0 FoldK=F
 IRaf=         0 NMat=   1 IRICut=       1 DoRegI=T DoRafI=F ISym2E= 1.
 FoFCou: FMM=F IPFlag=           0 FMFlag=      100000 FMFlg1=           0
         NFxFlg=           0 DoJE=F BraDBF=F KetDBF=F FulRan=T
         wScrn=  0.000000 ICntrl=    3107 IOpCl=  0 I1Cent=           0 NGrid=           0
         NMat0=    1 NMatS0=      1 NMatT0=    0 NMatD0=    1 NMtDS0=    0 NMtDT0=    0
 Petite list used in FoFCou.
 End of G2Drv F.D. properties file   721 does not exist.
 End of G2Drv F.D. properties file   722 does not exist.
 End of G2Drv F.D. properties file   788 does not exist.
 Leave Link 1110 at Sun Jun 19 02:44:30 2016, MaxMem=    33554432 cpu:       280.5
 (Enter /home/proyectos/fulerenos/M3C-v1.9/M3C-deps_CCC/g09-AM64L-G09RevC.01/l1002.exe)
 Minotr:  Closed shell wavefunction.
          IDoAtm=111111111
          Direct CPHF calculation.
          Differentiating once with respect to electric field.
                with respect to dipole field.
          Differentiating once with respect to nuclear coordinates.
          Using symmetry in CPHF.
          Requested convergence is 1.0D-08 RMS, and 1.0D-07 maximum.
          Secondary convergence is 1.0D-12 RMS, and 1.0D-12 maximum.
          NewPWx=T KeepS1=F KeepF1=F KeepIn=T MapXYZ=F SortEE=F KeepMc=T.
          MDV=      33553994 using IRadAn=       2.
 Generate precomputed XC quadrature information.
          Solving linear equations simultaneously, MaxMat=       0.
 FoFJK:  IHMeth= 1 ICntrl=       0 DoSepK=F KAlg= 0 I1Cent=   0 FoldK=F
 IRaf= 830000000 NMat=  18 IRICut=       1 DoRegI=T DoRafI=F ISym2E= 2.
 FoFCou: FMM=F IPFlag=           0 FMFlag=      100000 FMFlg1=           0
         NFxFlg=           0 DoJE=F BraDBF=F KetDBF=F FulRan=T
         wScrn=  0.000000 ICntrl=       0 IOpCl=  0 I1Cent=           0 NGrid=           0
         NMat0=   18 NMatS0=     18 NMatT0=    0 NMatD0=   18 NMtDS0=    0 NMtDT0=    0
 Integrals replicated using symmetry in FoFCou.
          There are    18 degrees of freedom in the 1st order CPHF.  IDoFFX=4 NUNeed=    18.
     18 vectors produced by pass  0 Test12= 4.75D-14 5.56D-09 XBig12= 4.97D+03 4.97D+01.
 AX will form    18 AO Fock derivatives at one time.
     18 vectors produced by pass  1 Test12= 4.75D-14 5.56D-09 XBig12= 1.95D+03 1.64D+01.
     18 vectors produced by pass  2 Test12= 4.75D-14 5.56D-09 XBig12= 8.81D+01 2.08D+00.
     18 vectors produced by pass  3 Test12= 4.75D-14 5.56D-09 XBig12= 4.13D+01 1.04D+00.
     18 vectors produced by pass  4 Test12= 4.75D-14 5.56D-09 XBig12= 5.32D-01 1.36D-01.
     18 vectors produced by pass  5 Test12= 4.75D-14 5.56D-09 XBig12= 2.87D-03 9.04D-03.
     18 vectors produced by pass  6 Test12= 4.75D-14 5.56D-09 XBig12= 1.27D-05 5.88D-04.
      8 vectors produced by pass  7 Test12= 4.75D-14 5.56D-09 XBig12= 4.41D-08 3.16D-05.
      3 vectors produced by pass  8 Test12= 4.75D-14 5.56D-09 XBig12= 1.72D-10 2.39D-06.
      2 vectors produced by pass  9 Test12= 4.75D-14 5.56D-09 XBig12= 1.88D-12 2.67D-07.
      1 vectors produced by pass 10 Test12= 4.75D-14 5.56D-09 XBig12= 1.56D-12 3.56D-07.
      1 vectors produced by pass 11 Test12= 4.75D-14 5.56D-09 XBig12= 5.32D-16 5.89D-09.
 InvSVY:  IOpt=1 It=  1 EMax= 1.42D-14
 Solved reduced A of dimension   141 with    18 vectors.
 FullF1:  Do perturbations    1 to    18.
 Isotropic polarizability for W=    0.000000      205.19 Bohr**3.
 End of Minotr F.D. properties file   721 does not exist.
 End of Minotr F.D. properties file   722 does not exist.
 End of Minotr F.D. properties file   788 does not exist.
 Leave Link 1002 at Sun Jun 19 02:51:59 2016, MaxMem=    33554432 cpu:      1798.9
 (Enter /home/proyectos/fulerenos/M3C-v1.9/M3C-deps_CCC/g09-AM64L-G09RevC.01/l601.exe)
 Copying SCF densities to generalized density rwf, IOpCl= 0 IROHF=0.

 **********************************************************************

            Population analysis using the SCF density.

 **********************************************************************

 Orbital symmetries:
       Occupied  (SGG) (SGU) (SGG) (SGU) (SGG) (SGU) (SGG) (SGU)
                 (SGG) (SGG) (SGU) (SGG) (SGU) (SGG) (SGU) (SGG)
                 (SGU) (PIU) (PIU) (PIG) (PIG) (PIU) (PIU) (SGG)
                 (SGU) (PIG) (PIG)
       Virtual   (PIU) (PIU) (PIG) (PIG) (SGG) (PIU) (PIU) (SGU)
                 (PIU) (PIU) (SGG) (PIG) (PIG) (SGU) (SGG) (PIU)
                 (PIU) (PIG) (PIG) (SGU) (PIG) (PIG) (PIU) (PIU)
                 (SGG) (SGG) (PIG) (PIG) (SGU) (DLTG) (DLTG) (PIU)
                 (PIU) (SGU) (SGG) (PIU) (PIU) (DLTU) (DLTU) (SGU)
                 (SGG) (SGG) (DLTG) (DLTG) (SGU) (PIG) (PIG) (SGG)
                 (DLTU) (DLTU) (PIG) (PIG) (SGU) (PIU) (PIU) (PIU)
                 (PIU) (DLTG) (DLTG) (SGG) (SGU) (SGG) (SGU) (PIU)
                 (PIU) (SGG) (PIG) (PIG) (DLTU) (DLTU) (SGU) (PIU)
                 (PIU) (PIG) (PIG) (DLTG) (DLTG) (PIU) (PIU) (SGU)
                 (SGG) (DLTU) (DLTU) (PIG) (PIG) (PIG) (PIG) (SGG)
                 (SGG) (PIU) (PIU) (SGU) (SGU) (PIG) (PIG) (DLTG)
                 (DLTG) (SGU) (PIU) (PIU) (SGG) (PIG) (PIG) (PIU)
                 (PIU) (PIU) (PIU) (SGU) (SGG) (PIG) (PIG) (SGG)
                 (PIG) (PIG) (PIU) (PIU) (SGU) (SGU) (SGG) (SGG)
                 (SGU) (DLTG) (DLTG) (SGU) (SGG) (DLTU) (DLTU)
                 (DLTG) (DLTG) (SGG) (DLTU) (DLTU) (SGU) (PIG)
                 (PIG) (DLTG) (DLTG) (SGG) (PIU) (PIU) (DLTU) (DLTU)
                 (DLTG) (DLTG) (PIG) (PIG) (SGU) (PIU) (PIU) (DLTU)
                 (DLTU) (PIG) (PIG) (SGG) (DLTG) (DLTG) (PIU) (PIU)
                 (SGU) (SGG) (PIG) (PIG) (DLTU) (DLTU) (SGG) (PHIU)
                 (PHIU) (PHIG) (PHIG) (DLTG) (DLTG) (PIU) (PIU)
                 (SGU) (PHIU) (PHIU) (SGU) (PIU) (PIU) (PHIG) (PHIG)
                 (DLTU) (DLTU) (PHIU) (PHIU) (SGG) (PIG) (PIG)
                 (SGG) (PHIG) (PHIG) (PIU) (PIU) (PIG) (PIG) (DLTG)
                 (DLTG) (PIG) (PIG) (PIU) (PIU) (PHIU) (PHIU) (SGU)
                 (PIU) (PIU) (SGU) (PHIG) (PHIG) (PIG) (PIG) (PHIU)
                 (PHIU) (SGG) (PIU) (PIU) (DLTU) (DLTU) (PIG) (PIG)
                 (SGG) (PIU) (PIU) (SGU) (SGU) (DLTG) (DLTG) (SGG)
                 (SGU) (PIG) (PIG) (SGG) (DLTU) (DLTU) (SGG) (SGU)
                 (PIU) (PIU) (SGG) (SGU) (DLTG) (DLTG) (PIG) (PIG)
                 (DLTU) (DLTU) (PIU) (PIU) (SGU) (SGG) (SGG) (SGU)
                 (SGU) (PIG) (PIG) (PIU) (PIU) (SGG) (PIG) (PIG)
                 (DLTG) (DLTG) (DLTU) (DLTU) (DLTG) (DLTG) (DLTU)
                 (DLTU) (DLTG) (DLTG) (DLTU) (DLTU) (DLTG) (DLTG)
                 (DLTU) (DLTU) (SGG) (DLTG) (DLTG) (SGU) (PIU)
                 (PIU) (PIG) (PIG) (PIU) (PIU) (PIG) (PIG) (PIG)
                 (PIG) (PIU) (PIU) (PIU) (PIU) (PIG) (PIG) (SGG)
                 (PIU) (PIU) (SGU) (PIG) (PIG) (SGU) (SGG) (SGG)
                 (SGU) (SGG) (SGU) (SGG) (SGU) (SGG) (SGU) (SGG)
                 (SGG) (SGU) (SGU) (SGG)
 The electronic state is 1-SGG.
 Alpha  occ. eigenvalues --  -10.31050 -10.30881 -10.30879 -10.26561 -10.26554
 Alpha  occ. eigenvalues --  -10.25629 -10.25628 -10.22120 -10.22119  -0.90667
 Alpha  occ. eigenvalues --   -0.87976  -0.84371  -0.80332  -0.76276  -0.71310
 Alpha  occ. eigenvalues --   -0.66969  -0.64406  -0.46288  -0.46288  -0.42164
 Alpha  occ. eigenvalues --   -0.42164  -0.36359  -0.36359  -0.32395  -0.32392
 Alpha  occ. eigenvalues --   -0.29255  -0.29255
 Alpha virt. eigenvalues --   -0.19325  -0.19325  -0.09020  -0.09020  -0.01726
 Alpha virt. eigenvalues --    0.00944   0.00944   0.00993   0.03186   0.03186
 Alpha virt. eigenvalues --    0.03932   0.05209   0.05209   0.05786   0.07299
 Alpha virt. eigenvalues --    0.08026   0.08026   0.08946   0.08946   0.10142
 Alpha virt. eigenvalues --    0.13371   0.13371   0.13381   0.13381   0.14436
 Alpha virt. eigenvalues --    0.16184   0.18115   0.18115   0.18178   0.19876
 Alpha virt. eigenvalues --    0.19877   0.20545   0.20545   0.20717   0.21693
 Alpha virt. eigenvalues --    0.23233   0.23233   0.23250   0.23250   0.25965
 Alpha virt. eigenvalues --    0.26240   0.26831   0.27670   0.27670   0.29224
 Alpha virt. eigenvalues --    0.31783   0.31783   0.32649   0.33135   0.33135
 Alpha virt. eigenvalues --    0.33433   0.33433   0.36043   0.36947   0.36947
 Alpha virt. eigenvalues --    0.39049   0.39049   0.39887   0.39887   0.41461
 Alpha virt. eigenvalues --    0.43488   0.43549   0.46217   0.46568   0.46568
 Alpha virt. eigenvalues --    0.46916   0.47029   0.47029   0.48159   0.48159
 Alpha virt. eigenvalues --    0.50371   0.53337   0.53337   0.53601   0.53601
 Alpha virt. eigenvalues --    0.57982   0.57982   0.61232   0.61232   0.68150
 Alpha virt. eigenvalues --    0.69490   0.70484   0.70489   0.70606   0.70606
 Alpha virt. eigenvalues --    0.71798   0.71798   0.72866   0.75164   0.77918
 Alpha virt. eigenvalues --    0.77918   0.77943   0.84621   0.86550   0.86550
 Alpha virt. eigenvalues --    0.88045   0.88063   0.89152   0.90951   0.90951
 Alpha virt. eigenvalues --    0.94426   1.01531   1.01531   1.04848   1.04848
 Alpha virt. eigenvalues --    1.06687   1.06687   1.07092   1.07277   1.11391
 Alpha virt. eigenvalues --    1.11391   1.14226   1.19735   1.19735   1.22962
 Alpha virt. eigenvalues --    1.22962   1.24414   1.26248   1.26338   1.28381
 Alpha virt. eigenvalues --    1.29638   1.30444   1.30444   1.30707   1.30982
 Alpha virt. eigenvalues --    1.34605   1.34605   1.40361   1.40361   1.46472
 Alpha virt. eigenvalues --    1.47215   1.47215   1.49161   1.52153   1.52153
 Alpha virt. eigenvalues --    1.54828   1.54829   1.60679   1.62071   1.62071
 Alpha virt. eigenvalues --    1.64793   1.64793   1.74657   1.74657   1.75233
 Alpha virt. eigenvalues --    1.75233   1.76363   1.83869   1.83869   1.84287
 Alpha virt. eigenvalues --    1.84288   1.93032   1.93032   1.93084   1.95118
 Alpha virt. eigenvalues --    1.95124   2.09012   2.09012   2.13842   2.17648
 Alpha virt. eigenvalues --    2.32032   2.32032   2.35382   2.35382   2.44461
 Alpha virt. eigenvalues --    2.46091   2.46091   2.51185   2.51185   2.51591
 Alpha virt. eigenvalues --    2.51592   2.56159   2.56159   2.57744   2.58295
 Alpha virt. eigenvalues --    2.58295   2.58618   2.60028   2.60028   2.66745
 Alpha virt. eigenvalues --    2.66745   2.71043   2.71043   2.76031   2.76031
 Alpha virt. eigenvalues --    2.80650   2.83897   2.83897   2.86876   2.88424
 Alpha virt. eigenvalues --    2.88424   2.90435   2.90435   2.90494   2.90494
 Alpha virt. eigenvalues --    2.94247   2.94247   2.94906   2.94906   2.95386
 Alpha virt. eigenvalues --    2.95386   2.99621   2.99621   3.01800   3.02665
 Alpha virt. eigenvalues --    3.02665   3.06907   3.09003   3.09003   3.13610
 Alpha virt. eigenvalues --    3.13610   3.14986   3.14986   3.19765   3.21067
 Alpha virt. eigenvalues --    3.21067   3.21273   3.21273   3.22961   3.22961
 Alpha virt. eigenvalues --    3.28415   3.37177   3.37177   3.43739   3.45246
 Alpha virt. eigenvalues --    3.53767   3.53767   3.59317   3.65208   3.67407
 Alpha virt. eigenvalues --    3.67407   3.70099   3.89186   3.89186   3.94976
 Alpha virt. eigenvalues --    4.05074   4.06092   4.06092   4.08594   4.20352
 Alpha virt. eigenvalues --    4.26984   4.26984   4.47337   4.47337   4.60178
 Alpha virt. eigenvalues --    4.60178   4.89509   4.89509   5.07178   5.09052
 Alpha virt. eigenvalues --    5.16760   5.28830   5.33724   5.35842   5.35842
 Alpha virt. eigenvalues --    5.88027   5.88027   5.95437   6.51105   6.51105
 Alpha virt. eigenvalues --    6.82273   6.82275   6.86322   6.86324   6.90822
 Alpha virt. eigenvalues --    6.90824   6.94909   6.94911   6.97209   6.97210
 Alpha virt. eigenvalues --    7.02580   7.02582   7.05664   7.05666   7.07592
 Alpha virt. eigenvalues --    7.07594   7.10155   7.10731   7.10732   7.18205
 Alpha virt. eigenvalues --    7.19307   7.19307   7.26736   7.26736   7.28240
 Alpha virt. eigenvalues --    7.28240   7.32060   7.32060   7.37077   7.37077
 Alpha virt. eigenvalues --    7.39880   7.39880   7.41146   7.41146   7.51220
 Alpha virt. eigenvalues --    7.51220   7.57860   7.66261   7.66261   7.73966
 Alpha virt. eigenvalues --    7.77792   7.77792   7.98174   8.34525   8.56693
 Alpha virt. eigenvalues --    8.72044   8.92813   9.03984  23.61693  25.18763
 Alpha virt. eigenvalues --   25.98987  26.14918  26.17480  26.34010  26.34697
 Alpha virt. eigenvalues --   26.56783  26.59157
          Condensed to atoms (all electrons):
               1          2          3          4          5          6
     1  C   16.150608  -7.302887  -0.716803  -1.305813   0.152744  -0.141383
     2  C   -7.302887  11.140493   0.308681   0.312881  -0.052902  -0.024959
     3  C   -0.716803   0.308681   7.688134  -0.687480  -0.385103   0.040117
     4  C   -1.305813   0.312881  -0.687480   8.816394  -0.372716  -0.345269
     5  C    0.152744  -0.052902  -0.385103  -0.372716   7.799652  -0.372716
     6  C   -0.141383  -0.024959   0.040117  -0.345269  -0.372716   8.816394
     7  C    0.011571   0.016852  -0.015711   0.040117  -0.385103  -0.687480
     8  C   -0.009432  -0.019421   0.016852  -0.024959  -0.052902   0.312881
     9  C   -0.001790  -0.009432   0.011571  -0.141383   0.152744  -1.305813
               7          8          9
     1  C    0.011571  -0.009432  -0.001790
     2  C    0.016852  -0.019421  -0.009432
     3  C   -0.015711   0.016852   0.011571
     4  C    0.040117  -0.024959  -0.141383
     5  C   -0.385103  -0.052902   0.152744
     6  C   -0.687480   0.312881  -1.305813
     7  C    7.688134   0.308681  -0.716803
     8  C    0.308681  11.140493  -7.302887
     9  C   -0.716803  -7.302887  16.150608
 Mulliken charges:
               1
     1  C   -0.836816
     2  C    1.630696
     3  C   -0.260259
     4  C   -0.291772
     5  C   -0.483699
     6  C   -0.291772
     7  C   -0.260259
     8  C    1.630696
     9  C   -0.836816
 Sum of Mulliken charges =  -0.00000
 Mulliken charges with hydrogens summed into heavy atoms:
               1
     1  C   -0.836816
     2  C    1.630696
     3  C   -0.260259
     4  C   -0.291772
     5  C   -0.483699
     6  C   -0.291772
     7  C   -0.260259
     8  C    1.630696
     9  C   -0.836816
 APT charges:
               1
     1  C    0.643185
     2  C   -1.589008
     3  C    1.610339
     4  C   -1.420354
     5  C    1.511675
     6  C   -1.420354
     7  C    1.610339
     8  C   -1.589008
     9  C    0.643185
 Sum of APT charges =   0.00000
 APT charges with hydrogens summed into heavy atoms:
               1
     1  C    0.643185
     2  C   -1.589008
     3  C    1.610339
     4  C   -1.420354
     5  C    1.511675
     6  C   -1.420354
     7  C    1.610339
     8  C   -1.589008
     9  C    0.643185
 Electronic spatial extent (au):  <R**2>=           2236.5170
 Charge=              0.0000 electrons
 Dipole moment (field-independent basis, Debye):
    X=             -0.0000    Y=             -0.0000    Z=              0.0000  Tot=              0.0000
 Quadrupole moment (field-independent basis, Debye-Ang):
   XX=            -49.6729   YY=            -49.6729   ZZ=            -96.9979
   XY=             -0.0000   XZ=              0.0000   YZ=              0.0000
 Traceless Quadrupole moment (field-independent basis, Debye-Ang):
   XX=             15.7750   YY=             15.7750   ZZ=            -31.5500
   XY=             -0.0000   XZ=              0.0000   YZ=              0.0000
 Octapole moment (field-independent basis, Debye-Ang**2):
  XXX=             -0.0000  YYY=             -0.0000  ZZZ=             -0.0000  XYY=             -0.0000
  XXY=             -0.0000  XXZ=             -0.0000  XZZ=             -0.0000  YZZ=             -0.0000
  YYZ=             -0.0000  XYZ=              0.0000
 Hexadecapole moment (field-independent basis, Debye-Ang**3):
 XXXX=            -57.8249 YYYY=            -57.8249 ZZZZ=          -5514.4992 XXXY=             -0.0000
 XXXZ=              0.0000 YYYX=             -0.0000 YYYZ=             -0.0000 ZZZX=              0.0000
 ZZZY=              0.0000 XXYY=            -19.2750 XXZZ=           -591.0749 YYZZ=           -591.0749
 XXYZ=             -0.0000 YYXZ=              0.0000 ZZXY=             -0.0000
 N-N= 2.457734554804D+02 E-N=-1.284920220874D+03  KE= 3.410751374255D+02
 Symmetry AG   KE= 1.772806659638D+02
 Symmetry B1G  KE= 2.659009264713D-32
 Symmetry B2G  KE= 4.683278913294D+00
 Symmetry B3G  KE= 4.683278913294D+00
 Symmetry AU   KE= 2.223450429366D-32
 Symmetry B1U  KE= 1.454028597052D+02
 Symmetry B2U  KE= 4.512526964949D+00
 Symmetry B3U  KE= 4.512526964949D+00
  Exact polarizability:  57.199   0.000  57.199  -0.000   0.000 501.178
 Approx polarizability:  83.569  -0.000  83.569  -0.000  -0.0002009.948
 No NMR shielding tensors so no spin-rotation constants.
 Leave Link  601 at Sun Jun 19 02:52:00 2016, MaxMem=    33554432 cpu:         2.9
 (Enter /home/proyectos/fulerenos/M3C-v1.9/M3C-deps_CCC/g09-AM64L-G09RevC.01/l701.exe)
 Compute integral second derivatives.
 ... and contract with generalized density number  0.
 Leave Link  701 at Sun Jun 19 02:52:01 2016, MaxMem=    33554432 cpu:         2.1
 (Enter /home/proyectos/fulerenos/M3C-v1.9/M3C-deps_CCC/g09-AM64L-G09RevC.01/l702.exe)
 L702 exits ... SP integral derivatives will be done elsewhere.
 Leave Link  702 at Sun Jun 19 02:52:01 2016, MaxMem=    33554432 cpu:         0.1
 (Enter /home/proyectos/fulerenos/M3C-v1.9/M3C-deps_CCC/g09-AM64L-G09RevC.01/l703.exe)
 Compute integral second derivatives, UseDBF=F ICtDFT=           0.
 Integral derivatives from FoFJK, PRISM(SPDF).
 Calling FoFJK, ICntrl=    100127 FMM=F ISym2X=1 I1Cent= 0 IOpClX= 0 NMat=1 NMatS=1 NMatT=0.
 FoFJK:  IHMeth= 1 ICntrl=  100127 DoSepK=F KAlg= 0 I1Cent=   0 FoldK=F
 IRaf=         0 NMat=   1 IRICut=       1 DoRegI=T DoRafI=F ISym2E= 1.
 FoFCou: FMM=F IPFlag=           0 FMFlag=      100000 FMFlg1=         800
         NFxFlg=           0 DoJE=F BraDBF=F KetDBF=F FulRan=T
         wScrn=  0.000000 ICntrl=  100127 IOpCl=  0 I1Cent=           0 NGrid=           0
         NMat0=    1 NMatS0=      1 NMatT0=    0 NMatD0=    1 NMtDS0=    0 NMtDT0=    0
 Petite list used in FoFCou.
 Leave Link  703 at Sun Jun 19 02:55:14 2016, MaxMem=    33554432 cpu:       775.8
 (Enter /home/proyectos/fulerenos/M3C-v1.9/M3C-deps_CCC/g09-AM64L-G09RevC.01/l716.exe)
 Dipole        =-8.07765218D-17-7.39557099D-31-2.53303527D-14
 Polarizability= 5.71985459D+01 5.55092261D-10 5.71985459D+01
                -1.04481265D-08 1.50615408D-08 5.01178239D+02
 Full mass-weighted force constant matrix:
 Low frequencies ---   -0.7568   -0.7568   -0.0007   -0.0007   -0.0003   48.8633
 Low frequencies ---   48.8633  121.1222  121.1222
 Diagonal vibrational polarizability:
       94.0921409      94.0921403      73.0408236
 Harmonic frequencies (cm**-1), IR intensities (KM/Mole), Raman scattering
 activities (A**4/AMU), depolarization ratios for plane and unpolarized
 incident light, reduced masses (AMU), force constants (mDyne/A),
 and normal coordinates:
                      1                      2                      3
                     PIU                    PIU                    PIG
 Frequencies --     48.8633                48.8633               121.1222
 Red. masses --     12.0000                12.0000                12.0000
 Frc consts  --      0.0169                 0.0169                 0.1037
 IR Inten    --      7.7855                 7.7855                 0.0000
  Atom  AN      X      Y      Z        X      Y      Z        X      Y      Z
     1   6     0.40   0.33   0.00    -0.33   0.40   0.00     0.44   0.00  -0.00
     2   6     0.12   0.09   0.00    -0.09   0.12   0.00    -0.21  -0.00  -0.00
     3   6    -0.10  -0.08   0.00     0.08  -0.10   0.00    -0.38  -0.00  -0.00
     4   6    -0.27  -0.22  -0.00     0.22  -0.27   0.00    -0.35  -0.00   0.00
     5   6    -0.30  -0.25  -0.00     0.25  -0.30   0.00     0.00  -0.00  -0.00
     6   6    -0.27  -0.22  -0.00     0.22  -0.27   0.00     0.35   0.00  -0.00
     7   6    -0.10  -0.08  -0.00     0.08  -0.10  -0.00     0.38   0.00   0.00
     8   6     0.12   0.09  -0.00    -0.09   0.12  -0.00     0.21   0.00   0.00
     9   6     0.40   0.33  -0.00    -0.33   0.40  -0.00    -0.44  -0.00   0.00
                      4                      5                      6
                     PIG                    PIU                    PIU
 Frequencies --    121.1222               204.6205               204.6205
 Red. masses --     12.0000                12.0000                12.0000
 Frc consts  --      0.1037                 0.2960                 0.2960
 IR Inten    --      0.0000                 9.2373                 9.2373
  Atom  AN      X      Y      Z        X      Y      Z        X      Y      Z
     1   6    -0.00   0.44   0.00    -0.01  -0.34  -0.00    -0.34   0.01   0.00
     2   6     0.00  -0.21  -0.00     0.01   0.48  -0.00     0.48  -0.01  -0.00
     3   6     0.00  -0.38   0.00     0.01   0.24  -0.00     0.24  -0.01   0.00
     4   6     0.00  -0.35  -0.00    -0.00  -0.20  -0.00    -0.20   0.00  -0.00
     5   6     0.00   0.00   0.00    -0.01  -0.34   0.00    -0.34   0.01  -0.00
     6   6    -0.00   0.35  -0.00    -0.00  -0.20   0.00    -0.20   0.00  -0.00
     7   6    -0.00   0.38   0.00     0.01   0.24   0.00     0.24  -0.01   0.00
     8   6    -0.00   0.21  -0.00     0.01   0.48   0.00     0.48  -0.01  -0.00
     9   6     0.00  -0.44   0.00    -0.01  -0.34   0.00    -0.34   0.01  -0.00
                      7                      8                      9
                     PIG                    PIG                    SGG
 Frequencies --    278.9851               278.9851               462.8074
 Red. masses --     12.0000                12.0000                12.0000
 Frc consts  --      0.5503                 0.5503                 1.5144
 IR Inten    --      0.0000                 0.0000                 0.0000
  Atom  AN      X      Y      Z        X      Y      Z        X      Y      Z
     1   6     0.20   0.00   0.00    -0.00   0.20  -0.00     0.00  -0.00   0.47
     2   6    -0.46  -0.00  -0.00     0.00  -0.46  -0.00     0.00  -0.00   0.41
     3   6     0.03   0.00   0.00    -0.00   0.03   0.00    -0.00   0.00   0.29
     4   6     0.50   0.00   0.00    -0.00   0.50   0.00     0.00   0.00   0.16
     5   6    -0.00   0.00   0.00    -0.00  -0.00   0.00     0.00  -0.00  -0.00
     6   6    -0.50  -0.00  -0.00     0.00  -0.50   0.00    -0.00   0.00  -0.16
     7   6    -0.03  -0.00  -0.00     0.00  -0.03   0.00     0.00   0.00  -0.29
     8   6     0.46   0.00  -0.00    -0.00   0.46  -0.00    -0.00  -0.00  -0.41
     9   6    -0.20  -0.00  -0.00     0.00  -0.20  -0.00    -0.00  -0.00  -0.47
                     10                     11                     12
                     PIU                    PIU                    PIG
 Frequencies --    505.1771               505.1771               591.5081
 Red. masses --     12.0000                12.0000                12.0000
 Frc consts  --      1.8043                 1.8043                 2.4737
 IR Inten    --      0.0144                 0.0144                 0.0000
  Atom  AN      X      Y      Z        X      Y      Z        X      Y      Z
     1   6     0.02  -0.06   0.00    -0.06  -0.02   0.00    -0.00   0.05  -0.00
     2   6    -0.11   0.30   0.00     0.30   0.11   0.00     0.00  -0.31   0.00
     3   6     0.15  -0.39   0.00    -0.39  -0.15   0.00    -0.00   0.54   0.00
     4   6     0.06  -0.15   0.00    -0.15  -0.06   0.00     0.00  -0.34   0.00
     5   6    -0.23   0.59   0.00     0.59   0.23   0.00    -0.00   0.00  -0.00
     6   6     0.06  -0.15  -0.00    -0.15  -0.06  -0.00    -0.00   0.34   0.00
     7   6     0.15  -0.39  -0.00    -0.39  -0.15  -0.00     0.00  -0.54   0.00
     8   6    -0.11   0.30  -0.00     0.30   0.11  -0.00    -0.00   0.31   0.00
     9   6     0.02  -0.06  -0.00    -0.06  -0.02  -0.00     0.00  -0.05  -0.00
                     13                     14                     15
                     PIG                    PIU                    PIU
 Frequencies --    591.5081               649.2336               649.2336
 Red. masses --     12.0000                12.0000                12.0000
 Frc consts  --      2.4737                 2.9801                 2.9801
 IR Inten    --      0.0000                 6.2986                 6.2986
  Atom  AN      X      Y      Z        X      Y      Z        X      Y      Z
     1   6     0.05   0.00   0.00     0.03  -0.00   0.00     0.00   0.03   0.00
     2   6    -0.31  -0.00   0.00    -0.20   0.00   0.00    -0.00  -0.20   0.00
     3   6     0.54   0.00   0.00     0.38  -0.00  -0.00     0.00   0.38  -0.00
     4   6    -0.34  -0.00   0.00    -0.45   0.00  -0.00    -0.00  -0.45  -0.00
     5   6     0.00   0.00  -0.00     0.47  -0.01  -0.00     0.01   0.47  -0.00
     6   6     0.34   0.00  -0.00    -0.45   0.00  -0.00    -0.00  -0.45   0.00
     7   6    -0.54  -0.00  -0.00     0.38  -0.00  -0.00     0.00   0.38   0.00
     8   6     0.31   0.00  -0.00    -0.20   0.00   0.00    -0.00  -0.20  -0.00
     9   6    -0.05  -0.00  -0.00     0.03  -0.00   0.00     0.00   0.03  -0.00
                     16                     17                     18
                     SGU                    SGG                    SGU
 Frequencies --    892.6463              1289.2777              1664.5883
 Red. masses --     12.0000                12.0000                12.0000
 Frc consts  --      5.6337                11.7523                19.5905
 IR Inten    --      0.0030                 0.0000               397.0354
  Atom  AN      X      Y      Z        X      Y      Z        X      Y      Z
     1   6     0.00  -0.00  -0.46    -0.00   0.00  -0.41    -0.00   0.00   0.36
     2   6    -0.00   0.00  -0.23     0.00  -0.00   0.02     0.00  -0.00  -0.27
     3   6     0.00  -0.00   0.10     0.00   0.00   0.42    -0.00   0.00  -0.41
     4   6    -0.00  -0.00   0.35     0.00  -0.00   0.39    -0.00  -0.00   0.08
     5   6     0.00   0.00   0.46    -0.00   0.00   0.00     0.00   0.00   0.49
     6   6    -0.00  -0.00   0.35     0.00  -0.00  -0.39     0.00   0.00   0.08
     7   6     0.00   0.00   0.10     0.00   0.00  -0.42    -0.00  -0.00  -0.41
     8   6    -0.00  -0.00  -0.23    -0.00  -0.00  -0.02     0.00   0.00  -0.27
     9   6     0.00   0.00  -0.46     0.00   0.00   0.41    -0.00  -0.00   0.36
                     19                     20                     21
                     SGG                    SGU                    SGU
 Frequencies --   1965.2835              2115.9715              2198.7004
 Red. masses --     12.0000                12.0000                12.0000
 Frc consts  --     27.3075                31.6556                34.1793
 IR Inten    --      0.0000              8139.0566              3640.2808
  Atom  AN      X      Y      Z        X      Y      Z        X      Y      Z
     1   6     0.00  -0.00  -0.31     0.00   0.00  -0.22    -0.00   0.00  -0.08
     2   6    -0.00   0.00   0.46     0.00   0.00   0.50     0.00  -0.00   0.11
     3   6    -0.00  -0.00   0.09     0.00  -0.00  -0.43    -0.00   0.00   0.15
     4   6     0.00   0.00  -0.43    -0.00  -0.00   0.09     0.00   0.00  -0.50
     5   6    -0.00  -0.00   0.00    -0.00   0.00   0.12    -0.00   0.00   0.65
     6   6     0.00   0.00   0.43    -0.00   0.00   0.09     0.00  -0.00  -0.50
     7   6     0.00  -0.00  -0.09     0.00   0.00  -0.43    -0.00  -0.00   0.15
     8   6     0.00   0.00  -0.46     0.00  -0.00   0.50     0.00   0.00   0.11
     9   6    -0.00  -0.00   0.31     0.00  -0.00  -0.22    -0.00  -0.00  -0.08
                     22
                     SGG
 Frequencies --   2263.0685
 Red. masses --     12.0000
 Frc consts  --     36.2099
 IR Inten    --      0.0000
  Atom  AN      X      Y      Z
     1   6    -0.00  -0.00   0.13
     2   6     0.00   0.00  -0.35
     3   6     0.00  -0.00   0.48
     4   6    -0.00   0.00  -0.36
     5   6     0.00   0.00   0.00
     6   6     0.00   0.00   0.36
     7   6    -0.00  -0.00  -0.48
     8   6    -0.00   0.00   0.35
     9   6     0.00  -0.00  -0.13

 -------------------
 - Thermochemistry -
 -------------------
 Temperature   298.150 Kelvin.  Pressure   1.00000 Atm.
 Atom     1 has atomic number  6 and mass  12.00000
 Atom     2 has atomic number  6 and mass  12.00000
 Atom     3 has atomic number  6 and mass  12.00000
 Atom     4 has atomic number  6 and mass  12.00000
 Atom     5 has atomic number  6 and mass  12.00000
 Atom     6 has atomic number  6 and mass  12.00000
 Atom     7 has atomic number  6 and mass  12.00000
 Atom     8 has atomic number  6 and mass  12.00000
 Atom     9 has atomic number  6 and mass  12.00000
 Molecular mass:   108.00000 amu.
 Principal axes and moments of inertia in atomic units:
                           1         2         3
     Eigenvalues --     0.000004181.080434181.08043
           X           -0.00000   1.00000  -0.00000
           Y            0.00000   0.00000   1.00000
           Z            1.00000   0.00000  -0.00000
 This molecule is a prolate symmetric top.
 Rotational symmetry number  2.
 Warning -- assumption of classical behavior for rotation
           may cause significant error
 Rotational temperature (Kelvin)      0.02072
 Rotational constant (GHZ):           0.431645
 Zero-point vibrational energy     105578.6 (Joules/Mol)
                                   25.23389 (Kcal/Mol)
 Warning -- explicit consideration of  13 degrees of freedom as
           vibrations may cause significant error
 Vibrational temperatures:     70.30    70.30   174.27   174.27   294.40
          (Kelvin)            294.40   401.40   401.40   665.88   726.84
                              726.84   851.05   851.05   934.10   934.10
                             1284.32  1854.98  2394.97  2827.60  3044.41
                             3163.44  3256.05
 
 Zero-point correction=                           0.040213 (Hartree/Particle)
 Thermal correction to Energy=                    0.049003
 Thermal correction to Enthalpy=                  0.049947
 Thermal correction to Gibbs Free Energy=         0.008781
 Sum of electronic and zero-point Energies=           -342.592752
 Sum of electronic and thermal Energies=              -342.583962
 Sum of electronic and thermal Enthalpies=            -342.583018
 Sum of electronic and thermal Free Energies=         -342.624183
 
                     E (Thermal)             CV                S
                      KCal/Mol        Cal/Mol-Kelvin    Cal/Mol-Kelvin
 Total                   30.750             28.383             86.640
 Electronic               0.000              0.000              0.000
 Translational            0.889              2.981             39.947
 Rotational               0.592              1.987             19.636
 Vibrational             29.268             23.415             27.056
 Vibration     1          0.595              1.978              4.863
 Vibration     2          0.595              1.978              4.863
 Vibration     3          0.609              1.932              3.082
 Vibration     4          0.609              1.932              3.082
 Vibration     5          0.640              1.833              2.091
 Vibration     6          0.640              1.833              2.091
 Vibration     7          0.679              1.712              1.540
 Vibration     8          0.679              1.712              1.540
 Vibration     9          0.820              1.333              0.758
 Vibration    10          0.860              1.239              0.645
 Vibration    11          0.860              1.239              0.645
 Vibration    12          0.949              1.050              0.464
 Vibration    13          0.949              1.050              0.464
                       Q            Log10(Q)             Ln(Q)
 Total Bot       0.913725D-04         -4.039184         -9.300566
 Total V=0       0.286658D+15         14.457364         33.289310
 Vib (Bot)       0.287818D-15        -15.540881        -35.784202
 Vib (Bot)    1  0.423110D+01          0.626453          1.442462
 Vib (Bot)    2  0.423110D+01          0.626453          1.442462
 Vib (Bot)    3  0.168676D+01          0.227054          0.522810
 Vib (Bot)    4  0.168676D+01          0.227054          0.522810
 Vib (Bot)    5  0.972726D+00         -0.012010         -0.027653
 Vib (Bot)    6  0.972726D+00         -0.012010         -0.027653
 Vib (Bot)    7  0.689516D+00         -0.161456         -0.371766
 Vib (Bot)    8  0.689516D+00         -0.161456         -0.371766
 Vib (Bot)    9  0.366659D+00         -0.435737         -1.003322
 Vib (Bot)   10  0.323840D+00         -0.489670         -1.127506
 Vib (Bot)   11  0.323840D+00         -0.489670         -1.127506
 Vib (Bot)   12  0.254641D+00         -0.594071         -1.367899
 Vib (Bot)   13  0.254641D+00         -0.594071         -1.367899
 Vib (V=0)       0.902956D+03          2.955667          6.805674
 Vib (V=0)    1  0.476054D+01          0.677656          1.560361
 Vib (V=0)    2  0.476054D+01          0.677656          1.560361
 Vib (V=0)    3  0.225931D+01          0.353975          0.815059
 Vib (V=0)    4  0.225931D+01          0.353975          0.815059
 Vib (V=0)    5  0.159371D+01          0.202409          0.466063
 Vib (V=0)    6  0.159371D+01          0.202409          0.466063
 Vib (V=0)    7  0.135172D+01          0.130888          0.301380
 Vib (V=0)    8  0.135172D+01          0.130888          0.301380
 Vib (V=0)    9  0.112003D+01          0.049230          0.113357
 Vib (V=0)   10  0.109571D+01          0.039696          0.091404
 Vib (V=0)   11  0.109571D+01          0.039696          0.091404
 Vib (V=0)   12  0.106111D+01          0.025760          0.059314
 Vib (V=0)   13  0.106111D+01          0.025760          0.059314
 Electronic      0.100000D+01          0.000000          0.000000
 Translational   0.441155D+08          7.644591         17.602321
 Rotational      0.719625D+04          3.857106          8.881315
 
                                                              b3lyp opt
                                                             IR Spectrum
 
      2  2    2       1                1                    1                                                                        
      2  1    1       9                6                    2                     8             6  5    5  4         2   2    1      
      6  9    1       6                6                    8                     9             4  9    0  6         7   0    2   4  
      3  9    6       5                5                    9                     3             9  2    5  3         9   5    1   9  
 
         X    X                        X                                                        X                        X        X  
         X    X                                                                                                                      
         X    X                                                                                                                      
         X    X                                                                                                                      
         X    X                                                                                                                      
         X    X                                                                                                                      
         X    X                                                                                                                      
         X    X                                                                                                                      
         X    X                                                                                                                      
              X                                                                                                                      
              X                                                                                                                      
              X                                                                                                                      
              X                                                                                                                      
              X                                                                                                                      
              X                                                                                                                      
              X                                                                                                                      
              X                                                                                                                      
              X                                                                                                                      
              X                                                                                                                      
              X                                                                                                                      
 
 ***** Axes restored to original set *****
 -------------------------------------------------------------------
 Center     Atomic                   Forces (Hartrees/Bohr)
 Number     Number              X              Y              Z
 -------------------------------------------------------------------
      1        6           0.000000000   -0.000000000   -0.000054640
      2        6           0.000000000    0.000000000    0.000081581
      3        6           0.000000000   -0.000000000    0.000076649
      4        6           0.000000000   -0.000000000   -0.000022298
      5        6           0.000000000    0.000000000   -0.000000000
      6        6          -0.000000000    0.000000000    0.000022298
      7        6          -0.000000000    0.000000000   -0.000076649
      8        6          -0.000000000   -0.000000000   -0.000081581
      9        6           0.000000000    0.000000000    0.000054640
 -------------------------------------------------------------------
 Cartesian Forces:  Max     0.000081581 RMS     0.000034441
 Z-matrix is all fixed cartesians, so copy forces.
 Force constants in Cartesian coordinates: 
                1             2             3             4             5 
      1  0.625728D-02
      2  0.000000D+00  0.625728D-02
      3  0.000000D+00  0.000000D+00  0.697905D+00
      4 -0.128489D-01  0.000000D+00  0.000000D+00  0.465526D-01
      5  0.000000D+00 -0.128489D-01  0.000000D+00  0.000000D+00  0.465526D-01
      6  0.000000D+00  0.000000D+00 -0.664862D+00  0.000000D+00  0.000000D+00
      7  0.699783D-02  0.000000D+00  0.000000D+00 -0.538196D-01  0.000000D+00
      8  0.000000D+00  0.699783D-02  0.000000D+00  0.000000D+00 -0.538196D-01
      9  0.000000D+00  0.000000D+00 -0.575831D-01  0.000000D+00  0.000000D+00
     10 -0.424466D-03  0.000000D+00  0.000000D+00  0.181754D-01  0.000000D+00
     11  0.000000D+00 -0.424466D-03  0.000000D+00  0.000000D+00  0.181754D-01
     12  0.000000D+00  0.000000D+00  0.355780D-01  0.000000D+00  0.000000D+00
     13  0.717816D-04  0.000000D+00  0.000000D+00  0.246021D-02  0.000000D+00
     14  0.000000D+00  0.717815D-04  0.000000D+00  0.000000D+00  0.246021D-02
     15  0.000000D+00  0.000000D+00 -0.211808D-01  0.000000D+00  0.000000D+00
     16 -0.126823D-03  0.000000D+00  0.000000D+00  0.140719D-04  0.000000D+00
     17  0.000000D+00 -0.126823D-03  0.000000D+00  0.000000D+00  0.140721D-04
     18  0.000000D+00  0.000000D+00  0.152251D-01  0.000000D+00  0.000000D+00
     19  0.130656D-03  0.000000D+00  0.000000D+00 -0.862197D-03  0.000000D+00
     20  0.000000D+00  0.130656D-03  0.000000D+00  0.000000D+00 -0.862197D-03
     21  0.000000D+00  0.000000D+00 -0.117462D-01  0.000000D+00  0.000000D+00
     22 -0.838268D-04  0.000000D+00  0.000000D+00  0.412179D-03  0.000000D+00
     23  0.000000D+00 -0.838268D-04  0.000000D+00  0.000000D+00  0.412179D-03
     24  0.000000D+00  0.000000D+00  0.105675D-01  0.000000D+00  0.000000D+00
     25  0.264330D-04  0.000000D+00  0.000000D+00 -0.838268D-04  0.000000D+00
     26  0.000000D+00  0.264330D-04  0.000000D+00  0.000000D+00 -0.838268D-04
     27  0.000000D+00  0.000000D+00 -0.390287D-02  0.000000D+00  0.000000D+00
                6             7             8             9            10 
      6  0.131939D+01
      7  0.000000D+00  0.950797D-01
      8  0.000000D+00  0.000000D+00  0.950797D-01
      9 -0.571120D+00  0.000000D+00  0.000000D+00  0.132972D+01
     10  0.000000D+00 -0.533637D-01  0.000000D+00  0.000000D+00  0.705363D-01
     11  0.000000D+00  0.000000D+00 -0.533637D-01  0.000000D+00  0.000000D+00
     12 -0.121540D+00  0.000000D+00  0.000000D+00 -0.615155D+00  0.000000D+00
     13  0.000000D+00  0.290880D-02  0.000000D+00  0.000000D+00 -0.511664D-01
     14  0.000000D+00  0.000000D+00  0.290880D-02  0.000000D+00  0.000000D+00
     15  0.656647D-01  0.000000D+00  0.000000D+00 -0.132232D+00  0.000000D+00
     16  0.000000D+00  0.109672D-02  0.000000D+00  0.000000D+00  0.152588D-01
     17  0.000000D+00  0.000000D+00  0.109672D-02  0.000000D+00  0.000000D+00
     18 -0.423180D-01  0.000000D+00  0.000000D+00  0.699555D-01  0.000000D+00
     19  0.000000D+00  0.183183D-02  0.000000D+00  0.000000D+00  0.109672D-02
     20  0.000000D+00  0.000000D+00  0.183183D-02  0.000000D+00  0.000000D+00
     21  0.300575D-01  0.000000D+00  0.000000D+00 -0.418980D-01  0.000000D+00
     22  0.000000D+00 -0.862197D-03  0.000000D+00  0.000000D+00  0.140719D-04
     23  0.000000D+00  0.000000D+00 -0.862197D-03  0.000000D+00  0.000000D+00
     24 -0.258342D-01  0.000000D+00  0.000000D+00  0.300575D-01  0.000000D+00
     25  0.000000D+00  0.130656D-03  0.000000D+00  0.000000D+00 -0.126823D-03
     26  0.000000D+00  0.000000D+00  0.130656D-03  0.000000D+00  0.000000D+00
     27  0.105675D-01  0.000000D+00  0.000000D+00 -0.117462D-01  0.000000D+00
               11            12            13            14            15 
     11  0.705363D-01
     12  0.000000D+00  0.137568D+01
     13  0.000000D+00  0.000000D+00  0.914512D-01
     14 -0.511664D-01  0.000000D+00  0.000000D+00  0.914512D-01
     15  0.000000D+00 -0.579881D+00  0.000000D+00  0.000000D+00  0.133526D+01
     16  0.000000D+00  0.000000D+00 -0.511664D-01  0.000000D+00  0.000000D+00
     17  0.152589D-01  0.000000D+00  0.000000D+00 -0.511664D-01  0.000000D+00
     18  0.000000D+00 -0.137548D+00  0.000000D+00  0.000000D+00 -0.579881D+00
     19  0.000000D+00  0.000000D+00  0.290879D-02  0.000000D+00  0.000000D+00
     20  0.109672D-02  0.000000D+00  0.000000D+00  0.290879D-02  0.000000D+00
     21  0.000000D+00  0.699555D-01  0.000000D+00  0.000000D+00 -0.132232D+00
     22  0.000000D+00  0.000000D+00  0.246021D-02  0.000000D+00  0.000000D+00
     23  0.140721D-04  0.000000D+00  0.000000D+00  0.246022D-02  0.000000D+00
     24  0.000000D+00 -0.423180D-01  0.000000D+00  0.000000D+00  0.656647D-01
     25  0.000000D+00  0.000000D+00  0.717810D-04  0.000000D+00  0.000000D+00
     26 -0.126823D-03  0.000000D+00  0.000000D+00  0.717808D-04  0.000000D+00
     27  0.000000D+00  0.152251D-01  0.000000D+00  0.000000D+00 -0.211808D-01
               16            17            18            19            20 
     16  0.705363D-01
     17  0.000000D+00  0.705363D-01
     18  0.000000D+00  0.000000D+00  0.137568D+01
     19 -0.533637D-01  0.000000D+00  0.000000D+00  0.950797D-01
     20  0.000000D+00 -0.533637D-01  0.000000D+00  0.000000D+00  0.950797D-01
     21  0.000000D+00  0.000000D+00 -0.615155D+00  0.000000D+00  0.000000D+00
     22  0.181754D-01  0.000000D+00  0.000000D+00 -0.538196D-01  0.000000D+00
     23  0.000000D+00  0.181754D-01  0.000000D+00  0.000000D+00 -0.538196D-01
     24  0.000000D+00  0.000000D+00 -0.121540D+00  0.000000D+00  0.000000D+00
     25 -0.424466D-03  0.000000D+00  0.000000D+00  0.699783D-02  0.000000D+00
     26  0.000000D+00 -0.424466D-03  0.000000D+00  0.000000D+00  0.699783D-02
     27  0.000000D+00  0.000000D+00  0.355780D-01  0.000000D+00  0.000000D+00
               21            22            23            24            25 
     21  0.132972D+01
     22  0.000000D+00  0.465526D-01
     23  0.000000D+00  0.000000D+00  0.465526D-01
     24 -0.571120D+00  0.000000D+00  0.000000D+00  0.131939D+01
     25  0.000000D+00 -0.128489D-01  0.000000D+00  0.000000D+00  0.625728D-02
     26  0.000000D+00  0.000000D+00 -0.128489D-01  0.000000D+00  0.000000D+00
     27 -0.575831D-01  0.000000D+00  0.000000D+00 -0.664862D+00  0.000000D+00
               26            27 
     26  0.625728D-02
     27  0.000000D+00  0.697905D+00
 Leave Link  716 at Sun Jun 19 02:55:14 2016, MaxMem=    33554432 cpu:         0.2
 (Enter /home/proyectos/fulerenos/M3C-v1.9/M3C-deps_CCC/g09-AM64L-G09RevC.01/l103.exe)

 GradGradGradGradGradGradGradGradGradGradGradGradGradGradGradGradGradGrad
 Berny optimization.
 Search for a local minimum.
 Step number   1 out of a maximum of    2
 All quantities printed in internal units (Hartrees-Bohrs-Radians)
 Second derivative matrix not updated -- analytic derivatives used.
 ITU=  0
     Eigenvalues ---    0.00108   0.00108   0.00666   0.00666   0.01901
     Eigenvalues ---    0.01901   0.03535   0.03535   0.09727   0.11589
     Eigenvalues ---    0.11589   0.15889   0.15889   0.19141   0.19141
     Eigenvalues ---    0.36185   0.75486   1.25831   1.75397   2.03326
     Eigenvalues ---    2.19536   2.32578
 Angle between quadratic step and forces=  58.92 degrees.
 ClnCor:  largest displacement from symmetrization is 1.22D-11 for atom     1.
 Linear search not attempted -- first point.
 ClnCor:  largest displacement from symmetrization is 8.08D-28 for atom     1.
 B after Tr=    -0.000000   -0.000000    0.000000
         Rot=    1.000000    0.000000    0.000000    0.000000 Ang=   0.00 deg.
 Variable       Old X    -DE/DX   Delta X   Delta X   Delta X     New X
                                 (Linear)    (Quad)   (Total)
    X1        0.00000   0.00000   0.00000  -0.00000  -0.00000  -0.00000
    Y1        0.00000  -0.00000   0.00000   0.00000  -0.00000  -0.00000
    Z1        9.64984  -0.00005   0.00000   0.00018   0.00018   9.65002
    X2        0.00000   0.00000   0.00000  -0.00000  -0.00000  -0.00000
    Y2        0.00000   0.00000   0.00000   0.00000  -0.00000  -0.00000
    Z2        7.22966   0.00008   0.00000   0.00026   0.00026   7.22992
    X3        0.00000   0.00000   0.00000   0.00000  -0.00000  -0.00000
    Y3        0.00000  -0.00000   0.00000   0.00000  -0.00000  -0.00000
    Z3        4.79964   0.00008   0.00000   0.00022   0.00022   4.79987
    X4        0.00000   0.00000   0.00000   0.00000  -0.00000  -0.00000
    Y4        0.00000  -0.00000   0.00000   0.00000  -0.00000  -0.00000
    Z4        2.40576  -0.00002   0.00000   0.00010   0.00010   2.40586
    X5        0.00000   0.00000   0.00000   0.00000  -0.00000  -0.00000
    Y5        0.00000   0.00000   0.00000   0.00000   0.00000   0.00000
    Z5        0.00000  -0.00000   0.00000   0.00000   0.00000   0.00000
    X6        0.00000  -0.00000   0.00000   0.00000   0.00000   0.00000
    Y6        0.00000   0.00000   0.00000   0.00000  -0.00000  -0.00000
    Z6       -2.40576   0.00002   0.00000  -0.00010  -0.00010  -2.40586
    X7        0.00000  -0.00000   0.00000   0.00000   0.00000   0.00000
    Y7        0.00000   0.00000   0.00000   0.00000  -0.00000  -0.00000
    Z7       -4.79964  -0.00008   0.00000  -0.00022  -0.00022  -4.79987
    X8        0.00000  -0.00000   0.00000   0.00000   0.00000   0.00000
    Y8        0.00000  -0.00000   0.00000   0.00000  -0.00000  -0.00000
    Z8       -7.22966  -0.00008   0.00000  -0.00026  -0.00026  -7.22992
    X9        0.00000   0.00000   0.00000   0.00000   0.00000   0.00000
    Y9        0.00000   0.00000   0.00000   0.00000  -0.00000  -0.00000
    Z9       -9.64984   0.00005   0.00000  -0.00018  -0.00018  -9.65002
         Item               Value     Threshold  Converged?
 Maximum Force            0.000082     0.000450     YES
 RMS     Force            0.000034     0.000300     YES
 Maximum Displacement     0.000258     0.001800     YES
 RMS     Displacement     0.000109     0.001200     YES
 Predicted change in Energy=-2.604413D-08
 Optimization completed.
    -- Stationary point found.
 GradGradGradGradGradGradGradGradGradGradGradGradGradGradGradGradGradGrad

 Leave Link  103 at Sun Jun 19 02:55:15 2016, MaxMem=    33554432 cpu:         0.1
 (Enter /home/proyectos/fulerenos/M3C-v1.9/M3C-deps_CCC/g09-AM64L-G09RevC.01/l9999.exe)
 1\1\GINC-BELVIS25\Freq\RB3LYP\6-311++G(3df,2p)\C9\NAGUIRRE\19-Jun-2016
 \0\\#p b3lyp/6-311++G(3df,2p) freq symmetry=Loose\\b3lyp opt\\0,1\C,0.
 ,0.,5.106476\C,0.,0.,3.825772\C,0.,0.,2.539861\C,0.,0.,1.273074\C,0.,0
 .,0.\C,0.,0.,-1.273074\C,0.,0.,-2.539861\C,0.,0.,-3.825772\C,0.,0.,-5.
 106476\\Version=EM64L-G09RevE.01\State=1-SGG\HF=-342.6329649\RMSD=1.57
 5e-09\RMSF=3.444e-05\ZeroPoint=0.0402128\Thermal=0.0490028\Dipole=0.,0
 .,0.\DipoleDeriv=-0.267763,0.,0.,0.,-0.267763,0.,0.,0.,2.4650816,0.063
 9511,0.,0.,0.,0.0639511,0.,0.,0.,-4.894927,0.2210986,0.,0.,0.,0.221098
 6,0.,0.,0.,4.3888202,-0.0905854,0.,0.,0.,-0.0905854,0.,0.,0.,-4.079890
 1,0.1465974,0.,0.,0.,0.1465974,0.,0.,0.,4.2418305,-0.0905855,0.,0.,0.,
 -0.0905855,0.,0.,0.,-4.0798901,0.2210986,0.,0.,0.,0.2210986,0.,0.,0.,4
 .3888202,0.0639511,0.,0.,0.,0.0639511,0.,0.,0.,-4.894927,-0.267763,0.,
 0.,0.,-0.267763,0.,0.,0.,2.4650817\Polar=57.1985459,0.,57.1985459,0.,0
 .,501.1782393\PG=D*H [O(C1),C*(C1C1C1C1.C1C1C1C1)]\NImag=0\\0.00625728
 ,0.,0.00625728,0.,0.,0.69790460,-0.01284886,0.,0.,0.04655258,0.,-0.012
 84886,0.,0.,0.04655258,0.,0.,-0.66486220,0.,0.,1.31938519,0.00699783,0
 .,0.,-0.05381958,0.,0.,0.09507969,0.,0.00699783,0.,0.,-0.05381958,0.,0
 .,0.09507969,0.,0.,-0.05758310,0.,0.,-0.57112032,0.,0.,1.32972190,-0.0
 0042447,0.,0.,0.01817542,0.,0.,-0.05336374,0.,0.,0.07053635,0.,-0.0004
 2447,0.,0.,0.01817542,0.,0.,-0.05336374,0.,0.,0.07053635,0.,0.,0.03557
 801,0.,0.,-0.12154010,0.,0.,-0.61515520,0.,0.,1.37568369,0.00007178,0.
 ,0.,0.00246021,0.,0.,0.00290880,0.,0.,-0.05116638,0.,0.,0.09145117,0.,
 0.00007178,0.,0.,0.00246021,0.,0.,0.00290880,0.,0.,-0.05116638,0.,0.,0
 .09145117,0.,0.,-0.02118083,0.,0.,0.06566467,0.,0.,-0.13223206,0.,0.,-
 0.57988121,0.,0.,1.33525885,-0.00012682,0.,0.,0.00001407,0.,0.,0.00109
 672,0.,0.,0.01525885,0.,0.,-0.05116637,0.,0.,0.07053635,0.,-0.00012682
 ,0.,0.,0.00001407,0.,0.,0.00109672,0.,0.,0.01525885,0.,0.,-0.05116637,
 0.,0.,0.07053635,0.,0.,0.01522510,0.,0.,-0.04231802,0.,0.,0.06995553,0
 .,0.,-0.13754780,0.,0.,-0.57988121,0.,0.,1.37568369,0.00013066,0.,0.,-
 0.00086220,0.,0.,0.00183183,0.,0.,0.00109672,0.,0.,0.00290879,0.,0.,-0
 .05336374,0.,0.,0.09507969,0.,0.00013066,0.,0.,-0.00086220,0.,0.,0.001
 83183,0.,0.,0.00109672,0.,0.,0.00290879,0.,0.,-0.05336374,0.,0.,0.0950
 7969,0.,0.,-0.01174623,0.,0.,0.03005748,0.,0.,-0.04189801,0.,0.,0.0699
 5553,0.,0.,-0.13223206,0.,0.,-0.61515520,0.,0.,1.32972190,-0.00008383,
 0.,0.,0.00041218,0.,0.,-0.00086220,0.,0.,0.00001407,0.,0.,0.00246021,0
 .,0.,0.01817542,0.,0.,-0.05381958,0.,0.,0.04655258,0.,-0.00008383,0.,0
 .,0.00041218,0.,0.,-0.00086220,0.,0.,0.00001407,0.,0.,0.00246022,0.,0.
 ,0.01817542,0.,0.,-0.05381958,0.,0.,0.04655258,0.,0.,0.01056751,0.,0.,
 -0.02583422,0.,0.,0.03005748,0.,0.,-0.04231802,0.,0.,0.06566467,0.,0.,
 -0.12154010,0.,0.,-0.57112032,0.,0.,1.31938519,0.00002643,0.,0.,-0.000
 08383,0.,0.,0.00013066,0.,0.,-0.00012682,0.,0.,0.00007178,0.,0.,-0.000
 42447,0.,0.,0.00699783,0.,0.,-0.01284886,0.,0.,0.00625728,0.,0.0000264
 3,0.,0.,-0.00008383,0.,0.,0.00013066,0.,0.,-0.00012682,0.,0.,0.0000717
 8,0.,0.,-0.00042447,0.,0.,0.00699783,0.,0.,-0.01284886,0.,0.,0.0062572
 8,0.,0.,-0.00390287,0.,0.,0.01056751,0.,0.,-0.01174623,0.,0.,0.0152251
 0,0.,0.,-0.02118083,0.,0.,0.03557801,0.,0.,-0.05758310,0.,0.,-0.664862
 20,0.,0.,0.69790460\\0.,0.,0.00005464,0.,0.,-0.00008158,0.,0.,-0.00007
 665,0.,0.,0.00002230,0.,0.,0.,0.,0.,-0.00002230,0.,0.,0.00007665,0.,0.
 ,0.00008158,0.,0.,-0.00005464\\\@


 EXPERIENCE IS THE FRUIT OF THE TREE OF ERRORS.
 Job cpu time:       0 days  0 hours 59 minutes 28.6 seconds.
 File lengths (MBytes):  RWF=     74 Int=      0 D2E=      0 Chk=      8 Scr=      1
 Normal termination of Gaussian 09 at Sun Jun 19 02:55:15 2016.
