 Entering Gaussian System, Link 0=/home/proyectos/fulerenos/M3C-v1.9/M3C-deps_CCC/g09-AM64L-G09RevC.01/g09
 Initial command:
 /home/proyectos/fulerenos/M3C-v1.9/M3C-deps_CCC/g09-AM64L-G09RevC.01/l1.exe "/scratch/naguirre/gaussian/Gau-11577.inp" -scrdir="/scratch/naguirre/gaussian/"
 Entering Link 1 = /home/proyectos/fulerenos/M3C-v1.9/M3C-deps_CCC/g09-AM64L-G09RevC.01/l1.exe PID=     11585.
  
 Copyright (c) 1988,1990,1992,1993,1995,1998,2003,2009,2015,
            Gaussian, Inc.  All Rights Reserved.
  
 This is part of the Gaussian(R) 09 program.  It is based on
 the Gaussian(R) 03 system (copyright 2003, Gaussian, Inc.),
 the Gaussian(R) 98 system (copyright 1998, Gaussian, Inc.),
 the Gaussian(R) 94 system (copyright 1995, Gaussian, Inc.),
 the Gaussian 92(TM) system (copyright 1992, Gaussian, Inc.),
 the Gaussian 90(TM) system (copyright 1990, Gaussian, Inc.),
 the Gaussian 88(TM) system (copyright 1988, Gaussian, Inc.),
 the Gaussian 86(TM) system (copyright 1986, Carnegie Mellon
 University), and the Gaussian 82(TM) system (copyright 1983,
 Carnegie Mellon University). Gaussian is a federally registered
 trademark of Gaussian, Inc.
  
 This software contains proprietary and confidential information,
 including trade secrets, belonging to Gaussian, Inc.
  
 This software is provided under written license and may be
 used, copied, transmitted, or stored only in accord with that
 written license.
  
 The following legend is applicable only to US Government
 contracts under FAR:
  
                    RESTRICTED RIGHTS LEGEND
  
 Use, reproduction and disclosure by the US Government is
 subject to restrictions as set forth in subparagraphs (a)
 and (c) of the Commercial Computer Software - Restricted
 Rights clause in FAR 52.227-19.
  
 Gaussian, Inc.
 340 Quinnipiac St., Bldg. 40, Wallingford CT 06492
  
  
 ---------------------------------------------------------------
 Warning -- This program may not be used in any manner that
 competes with the business of Gaussian, Inc. or will provide
 assistance to any competitor of Gaussian, Inc.  The licensee
 of this program is prohibited from giving any competitor of
 Gaussian, Inc. access to this program.  By using this program,
 the user acknowledges that Gaussian, Inc. is engaged in the
 business of creating and licensing software in the field of
 computational chemistry and represents and warrants to the
 licensee that it is not a competitor of Gaussian, Inc. and that
 it will not use this program in any manner prohibited above.
 ---------------------------------------------------------------
  

 Cite this work as:
 Gaussian 09, Revision E.01,
 M. J. Frisch, G. W. Trucks, H. B. Schlegel, G. E. Scuseria, 
 M. A. Robb, J. R. Cheeseman, G. Scalmani, V. Barone, B. Mennucci, 
 G. A. Petersson, H. Nakatsuji, M. Caricato, X. Li, H. P. Hratchian, 
 A. F. Izmaylov, J. Bloino, G. Zheng, J. L. Sonnenberg, M. Hada, 
 M. Ehara, K. Toyota, R. Fukuda, J. Hasegawa, M. Ishida, T. Nakajima, 
 Y. Honda, O. Kitao, H. Nakai, T. Vreven, J. A. Montgomery, Jr., 
 J. E. Peralta, F. Ogliaro, M. Bearpark, J. J. Heyd, E. Brothers, 
 K. N. Kudin, V. N. Staroverov, T. Keith, R. Kobayashi, J. Normand, 
 K. Raghavachari, A. Rendell, J. C. Burant, S. S. Iyengar, J. Tomasi, 
 M. Cossi, N. Rega, J. M. Millam, M. Klene, J. E. Knox, J. B. Cross, 
 V. Bakken, C. Adamo, J. Jaramillo, R. Gomperts, R. E. Stratmann, 
 O. Yazyev, A. J. Austin, R. Cammi, C. Pomelli, J. W. Ochterski, 
 R. L. Martin, K. Morokuma, V. G. Zakrzewski, G. A. Voth, 
 P. Salvador, J. J. Dannenberg, S. Dapprich, A. D. Daniels, 
 O. Farkas, J. B. Foresman, J. V. Ortiz, J. Cioslowski, 
 and D. J. Fox, Gaussian, Inc., Wallingford CT, 2013.
 
 ******************************************
 Gaussian 09:  EM64L-G09RevE.01 30-Nov-2015
                19-Jun-2016 
 ******************************************
 %NProcShared=4
 Will use up to    4 processors via shared memory.
 ---------------------------------------------
 #p b3lyp/6-311++G(3df,2p) freq symmetry=Loose
 ---------------------------------------------
 1/10=4,30=1,38=1/1,3;
 2/12=2,17=4,18=3,40=1/2;
 3/5=4,6=6,7=1216,11=2,16=1,25=1,30=1,71=2,74=-5,140=1/1,2,3;
 4//1;
 5/5=2,38=5,98=1/2;
 8/6=4,10=90,11=11/1;
 11/6=1,8=1,9=11,15=111,16=1/1,2,10;
 10/6=1/2;
 6/7=2,8=2,9=2,10=2,18=1,28=1/1;
 7/8=1,10=1,25=1/1,2,3,16;
 1/10=4,30=1/3;
 99//99;
 Leave Link    1 at Sun Jun 19 04:34:05 2016, MaxMem=           0 cpu:         0.3
 (Enter /home/proyectos/fulerenos/M3C-v1.9/M3C-deps_CCC/g09-AM64L-G09RevC.01/l101.exe)
 ---------
 b3lyp opt
 ---------
 Symbolic Z-matrix:
 Charge =  1 Multiplicity = 1
 C                     0.76911   0.        0. 
 F                    -0.38412   0.        0. 
 
 NAtoms=      2 NQM=        2 NQMF=       0 NMMI=      0 NMMIF=      0
                NMic=       0 NMicF=      0.
                    Isotopes and Nuclear Properties:
 (Nuclear quadrupole moments (NQMom) in fm**2, nuclear magnetic moments (NMagM)
  in nuclear magnetons)

  Atom         1           2
 IAtWgt=          12          19
 AtmWgt=  12.0000000  18.9984033
 NucSpn=           0           1
 AtZEff=   0.0000000   0.0000000
 NQMom=    0.0000000   0.0000000
 NMagM=    0.0000000   2.6288670
 AtZNuc=   6.0000000   9.0000000
 Leave Link  101 at Sun Jun 19 04:34:05 2016, MaxMem=    33554432 cpu:         0.2
 (Enter /home/proyectos/fulerenos/M3C-v1.9/M3C-deps_CCC/g09-AM64L-G09RevC.01/l103.exe)

 GradGradGradGradGradGradGradGradGradGradGradGradGradGradGradGradGradGrad
 Berny optimization.
 Initialization pass.
 Trust Radius=3.00D-01 FncErr=1.00D-07 GrdErr=1.00D-07
 Number of steps in this run=      2 maximum allowed number of steps=      2.
 GradGradGradGradGradGradGradGradGradGradGradGradGradGradGradGradGradGrad

 Leave Link  103 at Sun Jun 19 04:34:05 2016, MaxMem=    33554432 cpu:         0.1
 (Enter /home/proyectos/fulerenos/M3C-v1.9/M3C-deps_CCC/g09-AM64L-G09RevC.01/l202.exe)
                          Input orientation:                          
 ---------------------------------------------------------------------
 Center     Atomic      Atomic             Coordinates (Angstroms)
 Number     Number       Type             X           Y           Z
 ---------------------------------------------------------------------
      1          6           0        0.769105    0.000000    0.000000
      2          9           0       -0.384124    0.000000    0.000000
 ---------------------------------------------------------------------
 Stoichiometry    CF(1+)
 Framework group  C*V[C*(CF)]
 Deg. of freedom     1
 Full point group                 C*V     NOp   4
 Largest Abelian subgroup         C2V     NOp   4
 Largest concise Abelian subgroup C1      NOp   1
                         Standard orientation:                         
 ---------------------------------------------------------------------
 Center     Atomic      Atomic             Coordinates (Angstroms)
 Number     Number       Type             X           Y           Z
 ---------------------------------------------------------------------
      1          6           0        0.000000    0.000000   -0.691937
      2          9           0        0.000000    0.000000    0.461292
 ---------------------------------------------------------------------
 Rotational constants (GHZ):      0.0000000     51.6686438     51.6686438
 Leave Link  202 at Sun Jun 19 04:34:05 2016, MaxMem=    33554432 cpu:         0.0
 (Enter /home/proyectos/fulerenos/M3C-v1.9/M3C-deps_CCC/g09-AM64L-G09RevC.01/l301.exe)
 Standard basis: 6-311++G(3df,2p) (5D, 7F)
 Ernie: Thresh=  0.10000D-02 Tol=  0.10000D-05 Strict=F.
 There are    42 symmetry adapted cartesian basis functions of A1  symmetry.
 There are     8 symmetry adapted cartesian basis functions of A2  symmetry.
 There are    20 symmetry adapted cartesian basis functions of B1  symmetry.
 There are    20 symmetry adapted cartesian basis functions of B2  symmetry.
 There are    34 symmetry adapted basis functions of A1  symmetry.
 There are     8 symmetry adapted basis functions of A2  symmetry.
 There are    18 symmetry adapted basis functions of B1  symmetry.
 There are    18 symmetry adapted basis functions of B2  symmetry.
    78 basis functions,   116 primitive gaussians,    90 cartesian basis functions
     7 alpha electrons        7 beta electrons
       nuclear repulsion energy        24.7787466877 Hartrees.
 IExCor=  402 DFT=T Ex+Corr=B3LYP ExCW=0 ScaHFX=  0.200000
 ScaDFX=  0.800000  0.720000  1.000000  0.810000 ScalE2=  1.000000  1.000000
 IRadAn=      0 IRanWt=     -1 IRanGd=            0 ICorTp=0 IEmpDi=  4
 NAtoms=    2 NActive=    2 NUniq=    2 SFac= 1.00D+00 NAtFMM=   60 NAOKFM=F Big=F
 Integral buffers will be    131072 words long.
 Raffenetti 2 integral format.
 Two-electron integral symmetry is turned on.
 Leave Link  301 at Sun Jun 19 04:34:05 2016, MaxMem=    33554432 cpu:         0.2
 (Enter /home/proyectos/fulerenos/M3C-v1.9/M3C-deps_CCC/g09-AM64L-G09RevC.01/l302.exe)
 NPDir=0 NMtPBC=     1 NCelOv=     1 NCel=       1 NClECP=     1 NCelD=      1
         NCelK=      1 NCelE2=     1 NClLst=     1 CellRange=     0.0.
 One-electron integrals computed using PRISM.
 NBasis=    78 RedAO= T EigKep=  1.64D-03  NBF=    34     8    18    18
 NBsUse=    78 1.00D-06 EigRej= -1.00D+00 NBFU=    34     8    18    18
 Precomputing XC quadrature grid using
 IXCGrd= 4 IRadAn=           0 IRanWt=          -1 IRanGd=           0 AccXCQ= 0.00D+00.
 Generated NRdTot=       0 NPtTot=           0 NUsed=           0 NTot=          32
 NSgBfM=    90    90    90    90    90 MxSgAt=     2 MxSgA2=     2.
 Leave Link  302 at Sun Jun 19 04:34:06 2016, MaxMem=    33554432 cpu:         0.8
 (Enter /home/proyectos/fulerenos/M3C-v1.9/M3C-deps_CCC/g09-AM64L-G09RevC.01/l303.exe)
 DipDrv:  MaxL=1.
 Leave Link  303 at Sun Jun 19 04:34:06 2016, MaxMem=    33554432 cpu:         0.1
 (Enter /home/proyectos/fulerenos/M3C-v1.9/M3C-deps_CCC/g09-AM64L-G09RevC.01/l401.exe)
 ExpMin= 4.38D-02 ExpMax= 1.14D+04 ExpMxC= 1.72D+03 IAcc=2 IRadAn=         4 AccDes= 0.00D+00
 Harris functional with IExCor=  402 and IRadAn=       4 diagonalized for initial guess.
 HarFok:  IExCor=  402 AccDes= 0.00D+00 IRadAn=         4 IDoV= 1 UseB2=F ITyADJ=14
 ICtDFT=  3500011 ScaDFX=  1.000000  1.000000  1.000000  1.000000
 FoFCou: FMM=F IPFlag=           0 FMFlag=      100000 FMFlg1=           0
         NFxFlg=           0 DoJE=T BraDBF=F KetDBF=T FulRan=T
         wScrn=  0.000000 ICntrl=     500 IOpCl=  0 I1Cent=   200000004 NGrid=           0
         NMat0=    1 NMatS0=      1 NMatT0=    0 NMatD0=    1 NMtDS0=    0 NMtDT0=    0
 Petite list used in FoFCou.
 Harris En= -137.661315637760    
 JPrj=0 DoOrth=F DoCkMO=F.
 Initial guess orbital symmetries:
       Occupied  (SG) (SG) (SG) (SG) (PI) (PI) (SG)
       Virtual   (PI) (PI) (SG) (SG) (PI) (PI) (SG) (PI) (PI) (SG)
                 (DLTA) (DLTA) (SG) (PI) (PI) (SG) (PI) (PI) (SG)
                 (SG) (DLTA) (DLTA) (PI) (PI) (SG) (PI) (PI) (DLTA)
                 (DLTA) (SG) (PI) (PI) (SG) (SG) (PI) (PI) (PHI)
                 (PHI) (DLTA) (DLTA) (SG) (PI) (PI) (SG) (DLTA)
                 (DLTA) (PI) (PI) (SG) (PI) (PI) (SG) (PHI) (PHI)
                 (DLTA) (DLTA) (DLTA) (DLTA) (SG) (PI) (PI) (PI)
                 (PI) (SG) (DLTA) (DLTA) (PI) (PI) (SG) (SG) (SG)
 The electronic state of the initial guess is 1-SG.
 Leave Link  401 at Sun Jun 19 04:34:06 2016, MaxMem=    33554432 cpu:         0.7
 (Enter /home/proyectos/fulerenos/M3C-v1.9/M3C-deps_CCC/g09-AM64L-G09RevC.01/l502.exe)
 Closed shell SCF:
 Using DIIS extrapolation, IDIIS=  1040.
 Integral symmetry usage will be decided dynamically.
 Keep R1 ints in memory in symmetry-blocked form, NReq=6755476.
 IVT=       44096 IEndB=       44096 NGot=    33554432 MDV=    32277396
 LenX=    32277396 LenY=    32268855
 Requested convergence on RMS density matrix=1.00D-08 within 128 cycles.
 Requested convergence on MAX density matrix=1.00D-06.
 Requested convergence on             energy=1.00D-06.
 No special actions if energy rises.
 FoFCou: FMM=F IPFlag=           0 FMFlag=           0 FMFlg1=           0
         NFxFlg=           0 DoJE=F BraDBF=F KetDBF=F FulRan=T
         wScrn=  0.000000 ICntrl=     600 IOpCl=  0 I1Cent=           0 NGrid=           0
         NMat0=    1 NMatS0=   3081 NMatT0=    0 NMatD0=    1 NMtDS0=    0 NMtDT0=    0
 Petite list used in FoFCou.

 Cycle   1  Pass 1  IDiag  1:
 E= -137.453803898111    
 DIIS: error= 2.16D-02 at cycle   1 NSaved=   1.
 NSaved= 1 IEnMin= 1 EnMin= -137.453803898111     IErMin= 1 ErrMin= 2.16D-02
 ErrMax= 2.16D-02  0.00D+00 EMaxC= 1.00D-01 BMatC= 2.81D-02 BMatP= 2.81D-02
 IDIUse=3 WtCom= 7.84D-01 WtEn= 2.16D-01
 Coeff-Com:  0.100D+01
 Coeff-En:   0.100D+01
 Coeff:      0.100D+01
 Gap=     0.320 Goal=   None    Shift=    0.000
 GapD=    0.320 DampG=1.000 DampE=0.500 DampFc=0.5000 IDamp=-1.
 Damping current iteration by 5.00D-01
 RMSDP=3.61D-03 MaxDP=1.45D-01              OVMax= 1.12D-01

 Cycle   2  Pass 1  IDiag  1:
 E= -137.471408885238     Delta-E=       -0.017604987127 Rises=F Damp=T
 DIIS: error= 7.37D-03 at cycle   2 NSaved=   2.
 NSaved= 2 IEnMin= 2 EnMin= -137.471408885238     IErMin= 2 ErrMin= 7.37D-03
 ErrMax= 7.37D-03  0.00D+00 EMaxC= 1.00D-01 BMatC= 3.60D-03 BMatP= 2.81D-02
 IDIUse=3 WtCom= 9.26D-01 WtEn= 7.37D-02
 Coeff-Com: -0.337D+00 0.134D+01
 Coeff-En:   0.000D+00 0.100D+01
 Coeff:     -0.312D+00 0.131D+01
 Gap=     0.323 Goal=   None    Shift=    0.000
 RMSDP=1.21D-03 MaxDP=3.19D-02 DE=-1.76D-02 OVMax= 1.81D-02

 Cycle   3  Pass 1  IDiag  1:
 E= -137.485898746185     Delta-E=       -0.014489860947 Rises=F Damp=F
 DIIS: error= 4.10D-03 at cycle   3 NSaved=   3.
 NSaved= 3 IEnMin= 3 EnMin= -137.485898746185     IErMin= 3 ErrMin= 4.10D-03
 ErrMax= 4.10D-03  0.00D+00 EMaxC= 1.00D-01 BMatC= 5.98D-04 BMatP= 3.60D-03
 IDIUse=3 WtCom= 9.59D-01 WtEn= 4.10D-02
 Coeff-Com: -0.120D+00 0.439D+00 0.681D+00
 Coeff-En:   0.000D+00 0.000D+00 0.100D+01
 Coeff:     -0.115D+00 0.421D+00 0.694D+00
 Gap=     0.322 Goal=   None    Shift=    0.000
 RMSDP=2.61D-04 MaxDP=7.63D-03 DE=-1.45D-02 OVMax= 1.16D-02

 Cycle   4  Pass 1  IDiag  1:
 E= -137.485858824267     Delta-E=        0.000039921918 Rises=F Damp=F
 DIIS: error= 4.01D-03 at cycle   4 NSaved=   4.
 NSaved= 4 IEnMin= 3 EnMin= -137.485898746185     IErMin= 4 ErrMin= 4.01D-03
 ErrMax= 4.01D-03  0.00D+00 EMaxC= 1.00D-01 BMatC= 6.09D-04 BMatP= 5.98D-04
 IDIUse=3 WtCom= 9.60D-01 WtEn= 4.01D-02
 Coeff-Com: -0.267D-02 0.272D-01 0.500D+00 0.475D+00
 Coeff-En:   0.000D+00 0.000D+00 0.521D+00 0.479D+00
 Coeff:     -0.257D-02 0.261D-01 0.501D+00 0.476D+00
 Gap=     0.324 Goal=   None    Shift=    0.000
 RMSDP=1.23D-04 MaxDP=2.46D-03 DE= 3.99D-05 OVMax= 6.26D-03

 Cycle   5  Pass 1  IDiag  1:
 E= -137.486235385606     Delta-E=       -0.000376561340 Rises=F Damp=F
 DIIS: error= 1.19D-04 at cycle   5 NSaved=   5.
 NSaved= 5 IEnMin= 5 EnMin= -137.486235385606     IErMin= 5 ErrMin= 1.19D-04
 ErrMax= 1.19D-04  0.00D+00 EMaxC= 1.00D-01 BMatC= 8.69D-07 BMatP= 5.98D-04
 IDIUse=3 WtCom= 9.99D-01 WtEn= 1.19D-03
 Coeff-Com:  0.731D-04-0.735D-03 0.220D-01 0.552D-01 0.923D+00
 Coeff-En:   0.000D+00 0.000D+00 0.000D+00 0.000D+00 0.100D+01
 Coeff:      0.730D-04-0.734D-03 0.220D-01 0.551D-01 0.924D+00
 Gap=     0.324 Goal=   None    Shift=    0.000
 RMSDP=5.62D-06 MaxDP=1.75D-04 DE=-3.77D-04 OVMax= 2.33D-04

 Cycle   6  Pass 1  IDiag  1:
 E= -137.486235925234     Delta-E=       -0.000000539628 Rises=F Damp=F
 DIIS: error= 6.06D-06 at cycle   6 NSaved=   6.
 NSaved= 6 IEnMin= 6 EnMin= -137.486235925234     IErMin= 6 ErrMin= 6.06D-06
 ErrMax= 6.06D-06  0.00D+00 EMaxC= 1.00D-01 BMatC= 2.25D-09 BMatP= 8.69D-07
 IDIUse=1 WtCom= 1.00D+00 WtEn= 0.00D+00
 Coeff-Com: -0.172D-03 0.111D-03-0.202D-02 0.168D-02 0.763D-01 0.924D+00
 Coeff:     -0.172D-03 0.111D-03-0.202D-02 0.168D-02 0.763D-01 0.924D+00
 Gap=     0.324 Goal=   None    Shift=    0.000
 RMSDP=4.39D-07 MaxDP=1.94D-05 DE=-5.40D-07 OVMax= 1.42D-05

 Cycle   7  Pass 1  IDiag  1:
 E= -137.486235926302     Delta-E=       -0.000000001068 Rises=F Damp=F
 DIIS: error= 2.56D-06 at cycle   7 NSaved=   7.
 NSaved= 7 IEnMin= 7 EnMin= -137.486235926302     IErMin= 7 ErrMin= 2.56D-06
 ErrMax= 2.56D-06  0.00D+00 EMaxC= 1.00D-01 BMatC= 1.88D-10 BMatP= 2.25D-09
 IDIUse=1 WtCom= 1.00D+00 WtEn= 0.00D+00
 Coeff-Com: -0.449D-04 0.798D-04-0.255D-03-0.506D-03 0.251D-02 0.140D+00
 Coeff-Com:  0.858D+00
 Coeff:     -0.449D-04 0.798D-04-0.255D-03-0.506D-03 0.251D-02 0.140D+00
 Coeff:      0.858D+00
 Gap=     0.324 Goal=   None    Shift=    0.000
 RMSDP=1.11D-07 MaxDP=4.31D-06 DE=-1.07D-09 OVMax= 3.77D-06

 Cycle   8  Pass 1  IDiag  1:
 E= -137.486235926443     Delta-E=       -0.000000000141 Rises=F Damp=F
 DIIS: error= 1.33D-07 at cycle   8 NSaved=   8.
 NSaved= 8 IEnMin= 8 EnMin= -137.486235926443     IErMin= 8 ErrMin= 1.33D-07
 ErrMax= 1.33D-07  0.00D+00 EMaxC= 1.00D-01 BMatC= 6.59D-13 BMatP= 1.88D-10
 IDIUse=1 WtCom= 1.00D+00 WtEn= 0.00D+00
 Coeff-Com:  0.147D-05-0.214D-05-0.759D-05-0.992D-04-0.101D-02-0.835D-02
 Coeff-Com:  0.441D-01 0.965D+00
 Coeff:      0.147D-05-0.214D-05-0.759D-05-0.992D-04-0.101D-02-0.835D-02
 Coeff:      0.441D-01 0.965D+00
 Gap=     0.324 Goal=   None    Shift=    0.000
 RMSDP=7.58D-09 MaxDP=3.16D-07 DE=-1.41D-10 OVMax= 1.39D-07

 SCF Done:  E(RB3LYP) =  -137.486235926     A.U. after    8 cycles
            NFock=  8  Conv=0.76D-08     -V/T= 2.0029
 KE= 1.370939608540D+02 PE=-3.690612588374D+02 EE= 6.970231536935D+01
 Leave Link  502 at Sun Jun 19 04:34:07 2016, MaxMem=    33554432 cpu:         3.3
 (Enter /home/proyectos/fulerenos/M3C-v1.9/M3C-deps_CCC/g09-AM64L-G09RevC.01/l801.exe)
 DoSCS=F DFT=T ScalE2(SS,OS)=  1.000000  1.000000
 Range of M.O.s used for correlation:     1    78
 NBasis=    78 NAE=     7 NBE=     7 NFC=     0 NFV=     0
 NROrb=     78 NOA=     7 NOB=     7 NVA=    71 NVB=    71

 **** Warning!!: The largest alpha MO coefficient is  0.12355096D+02

 Leave Link  801 at Sun Jun 19 04:34:07 2016, MaxMem=    33554432 cpu:         0.1
 (Enter /home/proyectos/fulerenos/M3C-v1.9/M3C-deps_CCC/g09-AM64L-G09RevC.01/l1101.exe)
 Using compressed storage, NAtomX=     2.
 Will process      3 centers per pass.
 Leave Link 1101 at Sun Jun 19 04:34:07 2016, MaxMem=    33554432 cpu:         0.7
 (Enter /home/proyectos/fulerenos/M3C-v1.9/M3C-deps_CCC/g09-AM64L-G09RevC.01/l1102.exe)
 Symmetrizing basis deriv contribution to polar:
 IMax=3 JMax=2 DiffMx= 0.00D+00
 Leave Link 1102 at Sun Jun 19 04:34:07 2016, MaxMem=    33554432 cpu:         0.1
 (Enter /home/proyectos/fulerenos/M3C-v1.9/M3C-deps_CCC/g09-AM64L-G09RevC.01/l1110.exe)
 Forming Gx(P) for the SCF density, NAtomX=     2.
 Integral derivatives from FoFJK, PRISM(SPDF).
 Do as many integral derivatives as possible in FoFJK.
 G2DrvN: MDV=      33554312.
 G2DrvN: will do     3 centers at a time, making    1 passes.
 Calling FoFCou, ICntrl=  3107 FMM=F I1Cent=   0 AccDes= 0.00D+00.
 FoFJK:  IHMeth= 1 ICntrl=    3107 DoSepK=F KAlg= 0 I1Cent=   0 FoldK=F
 IRaf=         0 NMat=   1 IRICut=       1 DoRegI=T DoRafI=F ISym2E= 1.
 FoFCou: FMM=F IPFlag=           0 FMFlag=      100000 FMFlg1=           0
         NFxFlg=           0 DoJE=F BraDBF=F KetDBF=F FulRan=T
         wScrn=  0.000000 ICntrl=    3107 IOpCl=  0 I1Cent=           0 NGrid=           0
         NMat0=    1 NMatS0=      1 NMatT0=    0 NMatD0=    1 NMtDS0=    0 NMtDT0=    0
 Petite list used in FoFCou.
 End of G2Drv F.D. properties file   721 does not exist.
 End of G2Drv F.D. properties file   722 does not exist.
 End of G2Drv F.D. properties file   788 does not exist.
 Leave Link 1110 at Sun Jun 19 04:34:08 2016, MaxMem=    33554432 cpu:         5.3
 (Enter /home/proyectos/fulerenos/M3C-v1.9/M3C-deps_CCC/g09-AM64L-G09RevC.01/l1002.exe)
 Minotr:  Closed shell wavefunction.
          IDoAtm=11
          Direct CPHF calculation.
          Differentiating once with respect to electric field.
                with respect to dipole field.
          Differentiating once with respect to nuclear coordinates.
          Using symmetry in CPHF.
          Requested convergence is 1.0D-08 RMS, and 1.0D-07 maximum.
          Secondary convergence is 1.0D-12 RMS, and 1.0D-12 maximum.
          NewPWx=T KeepS1=F KeepF1=F KeepIn=T MapXYZ=F SortEE=F KeepMc=T.
          MDV=      33554330 using IRadAn=       2.
 Generate precomputed XC quadrature information.
 Keep R1 ints in memory in symmetry-blocked form, NReq=6719869.
 FoFCou: FMM=F IPFlag=           0 FMFlag=           0 FMFlg1=           0
         NFxFlg=           0 DoJE=F BraDBF=F KetDBF=F FulRan=T
         wScrn=  0.000000 ICntrl=     600 IOpCl=  0 I1Cent=           0 NGrid=           0
         NMat0=    1 NMatS0=   3081 NMatT0=    0 NMatD0=    1 NMtDS0=    0 NMtDT0=    0
 Petite list used in FoFCou.
          Solving linear equations simultaneously, MaxMat=       0.
          There are     9 degrees of freedom in the 1st order CPHF.  IDoFFX=6 NUNeed=     3.
      6 vectors produced by pass  0 Test12= 5.52D-15 1.11D-08 XBig12= 5.94D+00 2.13D+00.
 AX will form     6 AO Fock derivatives at one time.
      6 vectors produced by pass  1 Test12= 5.52D-15 1.11D-08 XBig12= 3.08D+00 8.55D-01.
      6 vectors produced by pass  2 Test12= 5.52D-15 1.11D-08 XBig12= 3.78D-02 7.25D-02.
      6 vectors produced by pass  3 Test12= 5.52D-15 1.11D-08 XBig12= 6.85D-04 7.99D-03.
      6 vectors produced by pass  4 Test12= 5.52D-15 1.11D-08 XBig12= 3.81D-06 6.51D-04.
      6 vectors produced by pass  5 Test12= 5.52D-15 1.11D-08 XBig12= 1.29D-08 4.38D-05.
      1 vectors produced by pass  6 Test12= 5.52D-15 1.11D-08 XBig12= 2.98D-11 1.48D-06.
      1 vectors produced by pass  7 Test12= 5.52D-15 1.11D-08 XBig12= 3.62D-14 5.58D-08.
 InvSVY:  IOpt=1 It=  1 EMax= 2.22D-16
 Solved reduced A of dimension    38 with     6 vectors.
 FullF1:  Do perturbations    1 to     3.
 Isotropic polarizability for W=    0.000000        8.34 Bohr**3.
 End of Minotr F.D. properties file   721 does not exist.
 End of Minotr F.D. properties file   722 does not exist.
 End of Minotr F.D. properties file   788 does not exist.
 Leave Link 1002 at Sun Jun 19 04:34:13 2016, MaxMem=    33554432 cpu:        15.1
 (Enter /home/proyectos/fulerenos/M3C-v1.9/M3C-deps_CCC/g09-AM64L-G09RevC.01/l601.exe)
 Copying SCF densities to generalized density rwf, IOpCl= 0 IROHF=0.

 **********************************************************************

            Population analysis using the SCF density.

 **********************************************************************

 Orbital symmetries:
       Occupied  (SG) (SG) (SG) (SG) (PI) (PI) (SG)
       Virtual   (PI) (PI) (SG) (SG) (PI) (PI) (SG) (PI) (PI) (SG)
                 (DLTA) (DLTA) (SG) (PI) (PI) (SG) (PI) (PI) (SG)
                 (SG) (DLTA) (DLTA) (PI) (PI) (SG) (PI) (PI) (DLTA)
                 (DLTA) (SG) (PI) (PI) (SG) (SG) (PI) (PI) (PHI)
                 (PHI) (DLTA) (DLTA) (SG) (PI) (PI) (SG) (DLTA)
                 (DLTA) (PI) (PI) (SG) (PI) (PI) (SG) (PHI) (PHI)
                 (DLTA) (DLTA) (DLTA) (DLTA) (SG) (PI) (PI) (PI)
                 (PI) (SG) (DLTA) (DLTA) (PI) (PI) (SG) (SG) (SG)
 The electronic state is 1-SG.
 Alpha  occ. eigenvalues --  -25.25222 -10.80714  -1.82734  -1.13155  -0.99725
 Alpha  occ. eigenvalues --   -0.99725  -0.79757
 Alpha virt. eigenvalues --   -0.47393  -0.47393  -0.20129  -0.13432  -0.12590
 Alpha virt. eigenvalues --   -0.12590  -0.04452   0.01381   0.01381   0.01433
 Alpha virt. eigenvalues --    0.04005   0.04005   0.08623   0.19032   0.19032
 Alpha virt. eigenvalues --    0.26037   0.26208   0.26208   0.31610   0.56298
 Alpha virt. eigenvalues --    0.72648   0.72648   0.88175   0.88175   0.93854
 Alpha virt. eigenvalues --    0.97446   0.97446   1.18064   1.18074   1.29117
 Alpha virt. eigenvalues --    1.57565   1.57565   1.61508   1.90000   2.28495
 Alpha virt. eigenvalues --    2.28495   2.36811   2.36811   2.52415   2.52422
 Alpha virt. eigenvalues --    2.77678   2.80002   2.80002   3.40111   4.03884
 Alpha virt. eigenvalues --    4.03884   4.46843   4.46843   4.57910   5.88212
 Alpha virt. eigenvalues --    5.88212   6.06361   6.11246   6.11246   6.29461
 Alpha virt. eigenvalues --    6.29462   6.54621   6.54624   6.65330   6.70761
 Alpha virt. eigenvalues --    6.70761   7.23357   7.23357   7.94364  18.70545
 Alpha virt. eigenvalues --   18.70548  18.94496  18.94496  19.10570  24.37446
 Alpha virt. eigenvalues --   66.52140
          Condensed to atoms (all electrons):
               1          2
     1  C    5.545345  -0.130082
     2  F   -0.130082   8.714818
 Mulliken charges:
               1
     1  C    0.584736
     2  F    0.415264
 Sum of Mulliken charges =   1.00000
 Mulliken charges with hydrogens summed into heavy atoms:
               1
     1  C    0.584736
     2  F    0.415264
 APT charges:
               1
     1  C    0.923076
     2  F    0.076924
 Sum of APT charges =   1.00000
 APT charges with hydrogens summed into heavy atoms:
               1
     1  C    0.923076
     2  F    0.076924
 Electronic spatial extent (au):  <R**2>=             34.1615
 Charge=              1.0000 electrons
 Dipole moment (field-independent basis, Debye):
    X=              0.0000    Y=              0.0000    Z=             -0.9524  Tot=              0.9524
 Quadrupole moment (field-independent basis, Debye-Ang):
   XX=             -7.7438   YY=             -7.7438   ZZ=             -7.4642
   XY=              0.0000   XZ=              0.0000   YZ=              0.0000
 Traceless Quadrupole moment (field-independent basis, Debye-Ang):
   XX=             -0.0932   YY=             -0.0932   ZZ=              0.1864
   XY=              0.0000   XZ=              0.0000   YZ=              0.0000
 Octapole moment (field-independent basis, Debye-Ang**2):
  XXX=              0.0000  YYY=              0.0000  ZZZ=              4.7892  XYY=              0.0000
  XXY=              0.0000  XXZ=              0.9738  XZZ=              0.0000  YZZ=              0.0000
  YYZ=              0.9738  XYZ=              0.0000
 Hexadecapole moment (field-independent basis, Debye-Ang**3):
 XXXX=             -5.1864 YYYY=             -5.1864 ZZZZ=            -25.7906 XXXY=              0.0000
 XXXZ=              0.0000 YYYX=              0.0000 YYYZ=              0.0000 ZZZX=              0.0000
 ZZZY=              0.0000 XXYY=             -1.7288 XXZZ=             -4.8181 YYZZ=             -4.8181
 XXYZ=              0.0000 YYXZ=              0.0000 ZZXY=              0.0000
 N-N= 2.477874668766D+01 E-N=-3.690612559703D+02  KE= 1.370939608540D+02
 Symmetry A1   KE= 1.247742556582D+02
 Symmetry A2   KE= 8.487308362816D-52
 Symmetry B1   KE= 6.159852597904D+00
 Symmetry B2   KE= 6.159852597904D+00
  Exact polarizability:   7.852   0.000   7.852  -0.000  -0.000   9.307
 Approx polarizability:  11.191  -0.000  11.191  -0.000  -0.000  14.783
 No NMR shielding tensors so no spin-rotation constants.
 Leave Link  601 at Sun Jun 19 04:34:13 2016, MaxMem=    33554432 cpu:         0.6
 (Enter /home/proyectos/fulerenos/M3C-v1.9/M3C-deps_CCC/g09-AM64L-G09RevC.01/l701.exe)
 Compute integral second derivatives.
 ... and contract with generalized density number  0.
 Leave Link  701 at Sun Jun 19 04:34:14 2016, MaxMem=    33554432 cpu:         1.1
 (Enter /home/proyectos/fulerenos/M3C-v1.9/M3C-deps_CCC/g09-AM64L-G09RevC.01/l702.exe)
 L702 exits ... SP integral derivatives will be done elsewhere.
 Leave Link  702 at Sun Jun 19 04:34:14 2016, MaxMem=    33554432 cpu:         0.1
 (Enter /home/proyectos/fulerenos/M3C-v1.9/M3C-deps_CCC/g09-AM64L-G09RevC.01/l703.exe)
 Compute integral second derivatives, UseDBF=F ICtDFT=           0.
 Integral derivatives from FoFJK, PRISM(SPDF).
 Calling FoFJK, ICntrl=    100127 FMM=F ISym2X=1 I1Cent= 0 IOpClX= 0 NMat=1 NMatS=1 NMatT=0.
 FoFJK:  IHMeth= 1 ICntrl=  100127 DoSepK=F KAlg= 0 I1Cent=   0 FoldK=F
 IRaf=         0 NMat=   1 IRICut=       1 DoRegI=T DoRafI=F ISym2E= 1.
 FoFCou: FMM=F IPFlag=           0 FMFlag=      100000 FMFlg1=         800
         NFxFlg=           0 DoJE=F BraDBF=F KetDBF=F FulRan=T
         wScrn=  0.000000 ICntrl=  100127 IOpCl=  0 I1Cent=           0 NGrid=           0
         NMat0=    1 NMatS0=      1 NMatT0=    0 NMatD0=    1 NMtDS0=    0 NMtDT0=    0
 Petite list used in FoFCou.
 Leave Link  703 at Sun Jun 19 04:34:17 2016, MaxMem=    33554432 cpu:        14.0
 (Enter /home/proyectos/fulerenos/M3C-v1.9/M3C-deps_CCC/g09-AM64L-G09RevC.01/l716.exe)
 Dipole        = 0.00000000D+00 0.00000000D+00-3.74710617D-01
 Polarizability= 7.85232525D+00 3.31618170D-11 7.85232525D+00
                -2.05298119D-10-8.70260089D-11 9.30719821D+00
 Full mass-weighted force constant matrix:
 Low frequencies ---    0.0010    0.0011    0.0011   16.5667   16.5667 1801.9738
 Diagonal vibrational polarizability:
        0.0000000       0.0000000       1.6849177
 Harmonic frequencies (cm**-1), IR intensities (KM/Mole), Raman scattering
 activities (A**4/AMU), depolarization ratios for plane and unpolarized
 incident light, reduced masses (AMU), force constants (mDyne/A),
 and normal coordinates:
                      1
                     SG
 Frequencies --   1801.9738
 Red. masses --     13.9958
 Frc consts  --     26.7760
 IR Inten    --    203.3024
  Atom  AN      X      Y      Z
     1   6     0.00   0.00   0.85
     2   9     0.00   0.00  -0.53

 -------------------
 - Thermochemistry -
 -------------------
 Temperature   298.150 Kelvin.  Pressure   1.00000 Atm.
 Atom     1 has atomic number  6 and mass  12.00000
 Atom     2 has atomic number  9 and mass  18.99840
 Molecular mass:    30.99840 amu.
 Principal axes and moments of inertia in atomic units:
                           1         2         3
     Eigenvalues --     0.00000  34.92914  34.92914
           X            0.00000  -0.00000   1.00000
           Y            0.00000   1.00000   0.00000
           Z            1.00000   0.00000   0.00000
 This molecule is a prolate symmetric top.
 Rotational symmetry number  1.
 Rotational temperature (Kelvin)      2.47970
 Rotational constant (GHZ):          51.668644
 Zero-point vibrational energy      10778.2 (Joules/Mol)
                                    2.57605 (Kcal/Mol)
 Vibrational temperatures:   2592.64
          (Kelvin)
 
 Zero-point correction=                           0.004105 (Hartree/Particle)
 Thermal correction to Energy=                    0.006467
 Thermal correction to Enthalpy=                  0.007411
 Thermal correction to Gibbs Free Energy=        -0.015269
 Sum of electronic and zero-point Energies=           -137.482131
 Sum of electronic and thermal Energies=              -137.479769
 Sum of electronic and thermal Enthalpies=            -137.478825
 Sum of electronic and thermal Free Energies=         -137.501505
 
                     E (Thermal)             CV                S
                      KCal/Mol        Cal/Mol-Kelvin    Cal/Mol-Kelvin
 Total                    4.058              4.993             47.735
 Electronic               0.000              0.000              0.000
 Translational            0.889              2.981             36.227
 Rotational               0.592              1.987             11.505
 Vibrational              2.577              0.025              0.003
                       Q            Log10(Q)             Ln(Q)
 Total Bot       0.105515D+08          7.023316         16.171783
 Total V=0       0.815779D+09          8.911572         20.519654
 Vib (Bot)       0.129365D-01         -1.888184         -4.347703
 Vib (V=0)       0.100017D+01          0.000073          0.000167
 Electronic      0.100000D+01          0.000000          0.000000
 Translational   0.678366D+07          6.831464         15.730028
 Rotational      0.120236D+03          2.080036          4.789459
 ***** Axes restored to original set *****
 -------------------------------------------------------------------
 Center     Atomic                   Forces (Hartrees/Bohr)
 Number     Number              X              Y              Z
 -------------------------------------------------------------------
      1        6           0.000000000   -0.000000000   -0.000000000
      2        9          -0.000000000   -0.000000000   -0.000000000
 -------------------------------------------------------------------
 Cartesian Forces:  Max     0.000000000 RMS     0.000000000
 Z-matrix is all fixed cartesians, so copy forces.
 Force constants in Cartesian coordinates: 
                1             2             3             4             5 
      1  0.903748D+00
      2  0.000000D+00  0.763875D-04
      3  0.000000D+00  0.000000D+00  0.763875D-04
      4 -0.903748D+00  0.000000D+00  0.000000D+00  0.903748D+00
      5  0.000000D+00 -0.763875D-04  0.000000D+00  0.000000D+00  0.763875D-04
      6  0.000000D+00  0.000000D+00 -0.763875D-04  0.000000D+00  0.000000D+00
                6 
      6  0.763875D-04
 Leave Link  716 at Sun Jun 19 04:34:17 2016, MaxMem=    33554432 cpu:         0.1
 (Enter /home/proyectos/fulerenos/M3C-v1.9/M3C-deps_CCC/g09-AM64L-G09RevC.01/l103.exe)

 GradGradGradGradGradGradGradGradGradGradGradGradGradGradGradGradGradGrad
 Berny optimization.
 Search for a local minimum.
 Step number   1 out of a maximum of    2
 All quantities printed in internal units (Hartrees-Bohrs-Radians)
 Second derivative matrix not updated -- analytic derivatives used.
 The second derivative matrix:
                          X1        Y1        Z1        X2        Y2
           X1           0.90375
           Y1           0.00000   0.00008
           Z1          -0.00000   0.00000   0.00008
           X2          -0.90375  -0.00000   0.00000   0.90375
           Y2          -0.00000  -0.00008  -0.00000   0.00000   0.00008
           Z2           0.00000  -0.00000  -0.00008  -0.00000   0.00000
                          Z2
           Z2           0.00008
 ITU=  0
     Eigenvalues ---    1.78924
 Angle between quadratic step and forces=  90.00 degrees.
 ClnCor:  largest displacement from symmetrization is 0.00D+00 for atom     0.
 Linear search not attempted -- first point.
 ClnCor:  largest displacement from symmetrization is 0.00D+00 for atom     0.
 B after Tr=    -0.000000    0.000000    0.000000
         Rot=    1.000000    0.000000    0.000000    0.000000 Ang=   0.00 deg.
 Variable       Old X    -DE/DX   Delta X   Delta X   Delta X     New X
                                 (Linear)    (Quad)   (Total)
    X1        1.45340   0.00000   0.00000   0.00000   0.00000   1.45340
    Y1        0.00000  -0.00000   0.00000   0.00000   0.00000   0.00000
    Z1        0.00000  -0.00000   0.00000   0.00000   0.00000   0.00000
    X2       -0.72589  -0.00000   0.00000  -0.00000  -0.00000  -0.72589
    Y2        0.00000  -0.00000   0.00000   0.00000   0.00000   0.00000
    Z2        0.00000  -0.00000   0.00000   0.00000   0.00000   0.00000
         Item               Value     Threshold  Converged?
 Maximum Force            0.000000     0.000450     YES
 RMS     Force            0.000000     0.000300     YES
 Maximum Displacement     0.000000     0.001800     YES
 RMS     Displacement     0.000000     0.001200     YES
 Predicted change in Energy=-3.283305D-22
 Optimization completed.
    -- Stationary point found.
 GradGradGradGradGradGradGradGradGradGradGradGradGradGradGradGradGradGrad

 Leave Link  103 at Sun Jun 19 04:34:17 2016, MaxMem=    33554432 cpu:         0.1
 (Enter /home/proyectos/fulerenos/M3C-v1.9/M3C-deps_CCC/g09-AM64L-G09RevC.01/l9999.exe)
 1\1\GINC-BELVIS25\Freq\RB3LYP\6-311++G(3df,2p)\C1F1(1+)\NAGUIRRE\19-Ju
 n-2016\0\\#p b3lyp/6-311++G(3df,2p) freq symmetry=Loose\\b3lyp opt\\1,
 1\C,0.769105,0.,0.\F,-0.384124,0.,0.\\Version=EM64L-G09RevE.01\State=1
 -SG\HF=-137.4862359\RMSD=7.580e-09\RMSF=1.406e-11\ZeroPoint=0.0041052\
 Thermal=0.006467\Dipole=0.3747106,0.,0.\DipoleDeriv=1.6255572,0.,0.,0.
 ,0.5718347,0.,0.,0.,0.5718347,-0.6255572,0.,0.,0.,0.4281653,0.,0.,0.,0
 .4281653\Polar=9.3071982,0.,7.8523252,0.,0.,7.8523252\PG=C*V [C*(C1F1)
 ]\NImag=0\\0.90374816,0.,0.00007639,0.,0.,0.00007639,-0.90374816,0.,0.
 ,0.90374816,0.,-0.00007639,0.,0.,0.00007639,0.,0.,-0.00007639,0.,0.,0.
 00007639\\0.,0.,0.,0.,0.,0.\\\@


 What some people mistake for the high cost
 of living is really the cost of living high.
                              -- Doug Larson
 Job cpu time:       0 days  0 hours  0 minutes 43.6 seconds.
 File lengths (MBytes):  RWF=      5 Int=      0 D2E=      0 Chk=      1 Scr=      1
 Normal termination of Gaussian 09 at Sun Jun 19 04:34:17 2016.
