 Entering Gaussian System, Link 0=/home/proyectos/fulerenos/M3C-v1.9/M3C-deps_CCC/g09-AM64L-G09RevC.01/g09
 Initial command:
 /home/proyectos/fulerenos/M3C-v1.9/M3C-deps_CCC/g09-AM64L-G09RevC.01/l1.exe "/scratch/naguirre/gaussian/Gau-30553.inp" -scrdir="/scratch/naguirre/gaussian/"
 Entering Link 1 = /home/proyectos/fulerenos/M3C-v1.9/M3C-deps_CCC/g09-AM64L-G09RevC.01/l1.exe PID=     30564.
  
 Copyright (c) 1988,1990,1992,1993,1995,1998,2003,2009,2015,
            Gaussian, Inc.  All Rights Reserved.
  
 This is part of the Gaussian(R) 09 program.  It is based on
 the Gaussian(R) 03 system (copyright 2003, Gaussian, Inc.),
 the Gaussian(R) 98 system (copyright 1998, Gaussian, Inc.),
 the Gaussian(R) 94 system (copyright 1995, Gaussian, Inc.),
 the Gaussian 92(TM) system (copyright 1992, Gaussian, Inc.),
 the Gaussian 90(TM) system (copyright 1990, Gaussian, Inc.),
 the Gaussian 88(TM) system (copyright 1988, Gaussian, Inc.),
 the Gaussian 86(TM) system (copyright 1986, Carnegie Mellon
 University), and the Gaussian 82(TM) system (copyright 1983,
 Carnegie Mellon University). Gaussian is a federally registered
 trademark of Gaussian, Inc.
  
 This software contains proprietary and confidential information,
 including trade secrets, belonging to Gaussian, Inc.
  
 This software is provided under written license and may be
 used, copied, transmitted, or stored only in accord with that
 written license.
  
 The following legend is applicable only to US Government
 contracts under FAR:
  
                    RESTRICTED RIGHTS LEGEND
  
 Use, reproduction and disclosure by the US Government is
 subject to restrictions as set forth in subparagraphs (a)
 and (c) of the Commercial Computer Software - Restricted
 Rights clause in FAR 52.227-19.
  
 Gaussian, Inc.
 340 Quinnipiac St., Bldg. 40, Wallingford CT 06492
  
  
 ---------------------------------------------------------------
 Warning -- This program may not be used in any manner that
 competes with the business of Gaussian, Inc. or will provide
 assistance to any competitor of Gaussian, Inc.  The licensee
 of this program is prohibited from giving any competitor of
 Gaussian, Inc. access to this program.  By using this program,
 the user acknowledges that Gaussian, Inc. is engaged in the
 business of creating and licensing software in the field of
 computational chemistry and represents and warrants to the
 licensee that it is not a competitor of Gaussian, Inc. and that
 it will not use this program in any manner prohibited above.
 ---------------------------------------------------------------
  

 Cite this work as:
 Gaussian 09, Revision E.01,
 M. J. Frisch, G. W. Trucks, H. B. Schlegel, G. E. Scuseria, 
 M. A. Robb, J. R. Cheeseman, G. Scalmani, V. Barone, B. Mennucci, 
 G. A. Petersson, H. Nakatsuji, M. Caricato, X. Li, H. P. Hratchian, 
 A. F. Izmaylov, J. Bloino, G. Zheng, J. L. Sonnenberg, M. Hada, 
 M. Ehara, K. Toyota, R. Fukuda, J. Hasegawa, M. Ishida, T. Nakajima, 
 Y. Honda, O. Kitao, H. Nakai, T. Vreven, J. A. Montgomery, Jr., 
 J. E. Peralta, F. Ogliaro, M. Bearpark, J. J. Heyd, E. Brothers, 
 K. N. Kudin, V. N. Staroverov, T. Keith, R. Kobayashi, J. Normand, 
 K. Raghavachari, A. Rendell, J. C. Burant, S. S. Iyengar, J. Tomasi, 
 M. Cossi, N. Rega, J. M. Millam, M. Klene, J. E. Knox, J. B. Cross, 
 V. Bakken, C. Adamo, J. Jaramillo, R. Gomperts, R. E. Stratmann, 
 O. Yazyev, A. J. Austin, R. Cammi, C. Pomelli, J. W. Ochterski, 
 R. L. Martin, K. Morokuma, V. G. Zakrzewski, G. A. Voth, 
 P. Salvador, J. J. Dannenberg, S. Dapprich, A. D. Daniels, 
 O. Farkas, J. B. Foresman, J. V. Ortiz, J. Cioslowski, 
 and D. J. Fox, Gaussian, Inc., Wallingford CT, 2013.
 
 ******************************************
 Gaussian 09:  EM64L-G09RevE.01 30-Nov-2015
                 2-Jul-2016 
 ******************************************
 %NProcShared=1
 Will use up to    1 processors via shared memory.
 ---------------------------------------------
 #p b3lyp/6-311++G(3df,2p) freq symmetry=Loose
 ---------------------------------------------
 1/10=4,30=1,38=1/1,3;
 2/12=2,17=4,18=3,40=1/2;
 3/5=4,6=6,7=1216,11=2,16=1,25=1,30=1,71=2,74=-5,140=1/1,2,3;
 4//1;
 5/5=2,38=5,98=1/2;
 8/6=4,10=90,11=11/1;
 11/6=1,8=1,9=11,15=111,16=1/1,2,10;
 10/6=1/2;
 6/7=2,8=2,9=2,10=2,18=1,28=1/1;
 7/8=1,10=1,25=1/1,2,3,16;
 1/10=4,30=1/3;
 99//99;
 Leave Link    1 at Sat Jul  2 15:11:59 2016, MaxMem=           0 cpu:         0.4
 (Enter /home/proyectos/fulerenos/M3C-v1.9/M3C-deps_CCC/g09-AM64L-G09RevC.01/l101.exe)
 ---------
 b3lyp opt
 ---------
 Symbolic Z-matrix:
 Charge =  1 Multiplicity = 1
 C                    -0.01194   0.04371  -0.07596 
 F                     0.25161   1.22819   0.14717 
 F                     0.89639  -0.78876  -0.14082 
 F                    -1.18381  -0.30832  -0.23424 
 
 NAtoms=      4 NQM=        4 NQMF=       0 NMMI=      0 NMMIF=      0
                NMic=       0 NMicF=      0.
                    Isotopes and Nuclear Properties:
 (Nuclear quadrupole moments (NQMom) in fm**2, nuclear magnetic moments (NMagM)
  in nuclear magnetons)

  Atom         1           2           3           4
 IAtWgt=          12          19          19          19
 AtmWgt=  12.0000000  18.9984033  18.9984033  18.9984033
 NucSpn=           0           1           1           1
 AtZEff=   0.0000000   0.0000000   0.0000000   0.0000000
 NQMom=    0.0000000   0.0000000   0.0000000   0.0000000
 NMagM=    0.0000000   2.6288670   2.6288670   2.6288670
 AtZNuc=   6.0000000   9.0000000   9.0000000   9.0000000
 Leave Link  101 at Sat Jul  2 15:12:01 2016, MaxMem=    33554432 cpu:         0.7
 (Enter /home/proyectos/fulerenos/M3C-v1.9/M3C-deps_CCC/g09-AM64L-G09RevC.01/l103.exe)

 GradGradGradGradGradGradGradGradGradGradGradGradGradGradGradGradGradGrad
 Berny optimization.
 Initialization pass.
 Trust Radius=3.00D-01 FncErr=1.00D-07 GrdErr=1.00D-07
 Number of steps in this run=      2 maximum allowed number of steps=      2.
 GradGradGradGradGradGradGradGradGradGradGradGradGradGradGradGradGradGrad

 Leave Link  103 at Sat Jul  2 15:12:05 2016, MaxMem=    33554432 cpu:         2.1
 (Enter /home/proyectos/fulerenos/M3C-v1.9/M3C-deps_CCC/g09-AM64L-G09RevC.01/l202.exe)
                          Input orientation:                          
 ---------------------------------------------------------------------
 Center     Atomic      Atomic             Coordinates (Angstroms)
 Number     Number       Type             X           Y           Z
 ---------------------------------------------------------------------
      1          6           0       -0.011937    0.043705   -0.075965
      2          9           0        0.251613    1.228193    0.147167
      3          9           0        0.896388   -0.788761   -0.140822
      4          9           0       -1.183810   -0.308317   -0.234239
 ---------------------------------------------------------------------
                    Distance matrix (angstroms):
                    1          2          3          4
     1  C    0.000000
     2  F    1.233798   0.000000
     3  F    1.233798   2.137002   0.000000
     4  F    1.233798   2.137002   2.137002   0.000000
 Stoichiometry    CF3(1+)
 Framework group  D3H[O(C),3C2(F)]
 Deg. of freedom     1
 Full point group                 D3H     NOp  12
 Largest Abelian subgroup         C2V     NOp   4
 Largest concise Abelian subgroup C2      NOp   2
                         Standard orientation:                         
 ---------------------------------------------------------------------
 Center     Atomic      Atomic             Coordinates (Angstroms)
 Number     Number       Type             X           Y           Z
 ---------------------------------------------------------------------
      1          6           0        0.000000    0.000000    0.000000
      2          9           0        0.000000    1.233798    0.000000
      3          9           0       -1.068501   -0.616899    0.000000
      4          9           0        1.068501   -0.616899    0.000000
 ---------------------------------------------------------------------
 Rotational constants (GHZ):     11.6498516     11.6498516      5.8249258
 Leave Link  202 at Sat Jul  2 15:12:07 2016, MaxMem=    33554432 cpu:         0.1
 (Enter /home/proyectos/fulerenos/M3C-v1.9/M3C-deps_CCC/g09-AM64L-G09RevC.01/l301.exe)
 Standard basis: 6-311++G(3df,2p) (5D, 7F)
 Ernie: Thresh=  0.10000D-02 Tol=  0.10000D-05 Strict=F.
 There are    73 symmetry adapted cartesian basis functions of A1  symmetry.
 There are    22 symmetry adapted cartesian basis functions of A2  symmetry.
 There are    51 symmetry adapted cartesian basis functions of B1  symmetry.
 There are    34 symmetry adapted cartesian basis functions of B2  symmetry.
 There are    60 symmetry adapted basis functions of A1  symmetry.
 There are    21 symmetry adapted basis functions of A2  symmetry.
 There are    44 symmetry adapted basis functions of B1  symmetry.
 There are    31 symmetry adapted basis functions of B2  symmetry.
   156 basis functions,   232 primitive gaussians,   180 cartesian basis functions
    16 alpha electrons       16 beta electrons
       nuclear repulsion energy       129.6550616259 Hartrees.
 IExCor=  402 DFT=T Ex+Corr=B3LYP ExCW=0 ScaHFX=  0.200000
 ScaDFX=  0.800000  0.720000  1.000000  0.810000 ScalE2=  1.000000  1.000000
 IRadAn=      0 IRanWt=     -1 IRanGd=            0 ICorTp=0 IEmpDi=  4
 NAtoms=    4 NActive=    4 NUniq=    2 SFac= 4.00D+00 NAtFMM=   60 NAOKFM=F Big=F
 Integral buffers will be    131072 words long.
 Raffenetti 2 integral format.
 Two-electron integral symmetry is turned on.
 Leave Link  301 at Sat Jul  2 15:12:10 2016, MaxMem=    33554432 cpu:         1.3
 (Enter /home/proyectos/fulerenos/M3C-v1.9/M3C-deps_CCC/g09-AM64L-G09RevC.01/l302.exe)
 NPDir=0 NMtPBC=     1 NCelOv=     1 NCel=       1 NClECP=     1 NCelD=      1
         NCelK=      1 NCelE2=     1 NClLst=     1 CellRange=     0.0.
 One-electron integrals computed using PRISM.
 One-electron integral symmetry used in STVInt
 NBasis=   156 RedAO= T EigKep=  8.94D-04  NBF=    60    21    44    31
 NBsUse=   156 1.00D-06 EigRej= -1.00D+00 NBFU=    60    21    44    31
 Precomputing XC quadrature grid using
 IXCGrd= 4 IRadAn=           0 IRanWt=          -1 IRanGd=           0 AccXCQ= 0.00D+00.
 Generated NRdTot=       0 NPtTot=           0 NUsed=           0 NTot=          32
 NSgBfM=   180   180   180   180   180 MxSgAt=     4 MxSgA2=     4.
 Leave Link  302 at Sat Jul  2 15:12:17 2016, MaxMem=    33554432 cpu:         1.0
 (Enter /home/proyectos/fulerenos/M3C-v1.9/M3C-deps_CCC/g09-AM64L-G09RevC.01/l303.exe)
 DipDrv:  MaxL=1.
 Leave Link  303 at Sat Jul  2 15:12:20 2016, MaxMem=    33554432 cpu:         1.4
 (Enter /home/proyectos/fulerenos/M3C-v1.9/M3C-deps_CCC/g09-AM64L-G09RevC.01/l401.exe)
 ExpMin= 4.38D-02 ExpMax= 1.14D+04 ExpMxC= 1.72D+03 IAcc=2 IRadAn=         4 AccDes= 0.00D+00
 Harris functional with IExCor=  402 and IRadAn=       4 diagonalized for initial guess.
 HarFok:  IExCor=  402 AccDes= 0.00D+00 IRadAn=         4 IDoV= 1 UseB2=F ITyADJ=14
 ICtDFT=  3500011 ScaDFX=  1.000000  1.000000  1.000000  1.000000
 FoFCou: FMM=F IPFlag=           0 FMFlag=      100000 FMFlg1=           0
         NFxFlg=           0 DoJE=T BraDBF=F KetDBF=T FulRan=T
         wScrn=  0.000000 ICntrl=     500 IOpCl=  0 I1Cent=   200000004 NGrid=           0
         NMat0=    1 NMatS0=      1 NMatT0=    0 NMatD0=    1 NMtDS0=    0 NMtDT0=    0
 Petite list used in FoFCou.
 Harris En= -337.506869091231    
 JPrj=0 DoOrth=F DoCkMO=F.
 Initial guess orbital symmetries:
       Occupied  (A1') (E') (E') (A1') (A1') (E') (E') (A1') (E')
                 (E') (A2") (E') (E') (E") (E") (A2')
       Virtual   (A2") (A1') (E') (E') (A2") (A1') (E') (E') (A1')
                 (E") (E") (E') (E') (A1') (A2") (A2') (E') (E')
                 (E') (E') (A1') (E") (E") (A2") (E') (E') (E')
                 (E') (A1') (E') (E') (A1") (E") (E") (E") (E")
                 (A1') (A2') (E') (E') (A2") (A1') (E') (E') (E")
                 (E") (A2") (E') (E') (A2') (A1') (E') (E') (A1')
                 (E") (E") (E') (E') (A1') (E') (E') (A2") (E")
                 (E") (E') (E') (A2') (A2") (E') (E') (A1') (A1")
                 (A1') (E') (E') (E") (E") (E') (E') (A2") (E")
                 (E") (A1') (E') (E') (A2') (A2") (E") (E") (E')
                 (E') (A2') (A1") (E') (E') (E") (E") (A2") (A1')
                 (A2') (E') (E') (A1') (E') (E') (E") (E") (A1')
                 (E") (E") (E') (E') (A2") (E") (E") (A1') (E')
                 (E') (A2') (E') (E') (A1") (A1') (E") (E") (E')
                 (E') (E') (E') (A2") (E") (E") (A1') (A2') (E')
                 (E') (A1') (E') (E') (A1')
 The electronic state of the initial guess is 1-A1'.
 Leave Link  401 at Sat Jul  2 15:12:25 2016, MaxMem=    33554432 cpu:         1.2
 (Enter /home/proyectos/fulerenos/M3C-v1.9/M3C-deps_CCC/g09-AM64L-G09RevC.01/l502.exe)
 Closed shell SCF:
 Using DIIS extrapolation, IDIIS=  1040.
 Integral symmetry usage will be decided dynamically.
 IVT=      118674 IEndB=      118674 NGot=    33554432 MDV=    33484979
 LenX=    33484979 LenY=    33452138
 Requested convergence on RMS density matrix=1.00D-08 within 128 cycles.
 Requested convergence on MAX density matrix=1.00D-06.
 Requested convergence on             energy=1.00D-06.
 No special actions if energy rises.
 Fock matrices will be formed incrementally for  20 cycles.

 Cycle   1  Pass 1  IDiag  1:
 FoFJK:  IHMeth= 1 ICntrl=       0 DoSepK=F KAlg= 0 I1Cent=   0 FoldK=F
 IRaf= 980000000 NMat=   1 IRICut=       1 DoRegI=T DoRafI=F ISym2E= 1.
 FoFCou: FMM=F IPFlag=           0 FMFlag=      100000 FMFlg1=           0
         NFxFlg=           0 DoJE=F BraDBF=F KetDBF=F FulRan=T
         wScrn=  0.000000 ICntrl=       0 IOpCl=  0 I1Cent=           0 NGrid=           0
         NMat0=    1 NMatS0=      1 NMatT0=    0 NMatD0=    1 NMtDS0=    0 NMtDT0=    0
 Petite list used in FoFCou.
 E= -337.276466214658    
 DIIS: error= 3.49D-02 at cycle   1 NSaved=   1.
 NSaved= 1 IEnMin= 1 EnMin= -337.276466214658     IErMin= 1 ErrMin= 3.49D-02
 ErrMax= 3.49D-02  0.00D+00 EMaxC= 1.00D-01 BMatC= 1.13D-01 BMatP= 1.13D-01
 IDIUse=3 WtCom= 6.51D-01 WtEn= 3.49D-01
 Coeff-Com:  0.100D+01
 Coeff-En:   0.100D+01
 Coeff:      0.100D+01
 Gap=     0.298 Goal=   None    Shift=    0.000
 GapD=    0.298 DampG=1.000 DampE=0.500 DampFc=0.5000 IDamp=-1.
 Damping current iteration by 5.00D-01
 RMSDP=2.86D-03 MaxDP=1.65D-01              OVMax= 2.06D-01

 Cycle   2  Pass 1  IDiag  1:
 RMSU=  1.41D-03    CP:  1.02D+00
 E= -337.302858015661     Delta-E=       -0.026391801003 Rises=F Damp=T
 DIIS: error= 8.31D-03 at cycle   2 NSaved=   2.
 NSaved= 2 IEnMin= 2 EnMin= -337.302858015661     IErMin= 2 ErrMin= 8.31D-03
 ErrMax= 8.31D-03  0.00D+00 EMaxC= 1.00D-01 BMatC= 1.18D-02 BMatP= 1.13D-01
 IDIUse=3 WtCom= 9.17D-01 WtEn= 8.31D-02
 Coeff-Com:  0.183D+00 0.817D+00
 Coeff-En:   0.285D+00 0.715D+00
 Coeff:      0.191D+00 0.809D+00
 Gap=     0.389 Goal=   None    Shift=    0.000
 RMSDP=6.13D-04 MaxDP=2.26D-02 DE=-2.64D-02 OVMax= 1.32D-01

 Cycle   3  Pass 1  IDiag  1:
 RMSU=  5.55D-04    CP:  1.02D+00  8.16D-01
 E= -337.354873438892     Delta-E=       -0.052015423230 Rises=F Damp=F
 DIIS: error= 4.86D-03 at cycle   3 NSaved=   3.
 NSaved= 3 IEnMin= 3 EnMin= -337.354873438892     IErMin= 3 ErrMin= 4.86D-03
 ErrMax= 4.86D-03  0.00D+00 EMaxC= 1.00D-01 BMatC= 4.26D-03 BMatP= 1.18D-02
 IDIUse=3 WtCom= 9.51D-01 WtEn= 4.86D-02
 Coeff-Com:  0.186D-01 0.370D+00 0.611D+00
 Coeff-En:   0.000D+00 0.000D+00 0.100D+01
 Coeff:      0.177D-01 0.352D+00 0.630D+00
 Gap=     0.392 Goal=   None    Shift=    0.000
 RMSDP=1.77D-04 MaxDP=6.88D-03 DE=-5.20D-02 OVMax= 7.89D-03

 Cycle   4  Pass 1  IDiag  1:
 RMSU=  1.38D-04    CP:  1.02D+00  8.39D-01  8.12D-01
 E= -337.356939079824     Delta-E=       -0.002065640932 Rises=F Damp=F
 DIIS: error= 8.54D-04 at cycle   4 NSaved=   4.
 NSaved= 4 IEnMin= 4 EnMin= -337.356939079824     IErMin= 4 ErrMin= 8.54D-04
 ErrMax= 8.54D-04  0.00D+00 EMaxC= 1.00D-01 BMatC= 9.86D-05 BMatP= 4.26D-03
 IDIUse=3 WtCom= 9.91D-01 WtEn= 8.54D-03
 Coeff-Com: -0.186D-01 0.422D-01 0.141D+00 0.835D+00
 Coeff-En:   0.000D+00 0.000D+00 0.000D+00 0.100D+01
 Coeff:     -0.185D-01 0.419D-01 0.140D+00 0.837D+00
 Gap=     0.391 Goal=   None    Shift=    0.000
 RMSDP=3.63D-05 MaxDP=2.22D-03 DE=-2.07D-03 OVMax= 1.53D-03

 Cycle   5  Pass 1  IDiag  1:
 RMSU=  1.80D-05    CP:  1.02D+00  8.55D-01  8.34D-01  8.76D-01
 E= -337.356994163350     Delta-E=       -0.000055083526 Rises=F Damp=F
 DIIS: error= 8.87D-05 at cycle   5 NSaved=   5.
 NSaved= 5 IEnMin= 5 EnMin= -337.356994163350     IErMin= 5 ErrMin= 8.87D-05
 ErrMax= 8.87D-05  0.00D+00 EMaxC= 1.00D-01 BMatC= 5.90D-07 BMatP= 9.86D-05
 IDIUse=1 WtCom= 1.00D+00 WtEn= 0.00D+00
 Coeff-Com: -0.181D-02 0.212D-02 0.333D-02-0.135D-01 0.101D+01
 Coeff:     -0.181D-02 0.212D-02 0.333D-02-0.135D-01 0.101D+01
 Gap=     0.391 Goal=   None    Shift=    0.000
 RMSDP=2.61D-06 MaxDP=1.49D-04 DE=-5.51D-05 OVMax= 1.18D-04

 Cycle   6  Pass 1  IDiag  1:
 RMSU=  7.04D-07    CP:  1.02D+00  8.57D-01  8.35D-01  8.73D-01  1.03D+00
 E= -337.356994538816     Delta-E=       -0.000000375466 Rises=F Damp=F
 DIIS: error= 7.99D-06 at cycle   6 NSaved=   6.
 NSaved= 6 IEnMin= 6 EnMin= -337.356994538816     IErMin= 6 ErrMin= 7.99D-06
 ErrMax= 7.99D-06  0.00D+00 EMaxC= 1.00D-01 BMatC= 5.98D-09 BMatP= 5.90D-07
 IDIUse=1 WtCom= 1.00D+00 WtEn= 0.00D+00
 Coeff-Com: -0.212D-03 0.309D-03-0.128D-03-0.410D-02 0.740D-01 0.930D+00
 Coeff:     -0.212D-03 0.309D-03-0.128D-03-0.410D-02 0.740D-01 0.930D+00
 Gap=     0.391 Goal=   None    Shift=    0.000
 RMSDP=3.07D-07 MaxDP=2.21D-05 DE=-3.75D-07 OVMax= 1.19D-05

 Cycle   7  Pass 1  IDiag  1:
 RMSU=  8.36D-08    CP:  1.02D+00  8.57D-01  8.35D-01  8.73D-01  1.04D+00
                    CP:  1.03D+00
 E= -337.356994542717     Delta-E=       -0.000000003901 Rises=F Damp=F
 DIIS: error= 9.71D-07 at cycle   7 NSaved=   7.
 NSaved= 7 IEnMin= 7 EnMin= -337.356994542717     IErMin= 7 ErrMin= 9.71D-07
 ErrMax= 9.71D-07  0.00D+00 EMaxC= 1.00D-01 BMatC= 8.37D-11 BMatP= 5.98D-09
 IDIUse=1 WtCom= 1.00D+00 WtEn= 0.00D+00
 Coeff-Com:  0.122D-04-0.209D-04-0.172D-03-0.486D-03-0.140D-01 0.779D-01
 Coeff-Com:  0.937D+00
 Coeff:      0.122D-04-0.209D-04-0.172D-03-0.486D-03-0.140D-01 0.779D-01
 Coeff:      0.937D+00
 Gap=     0.391 Goal=   None    Shift=    0.000
 RMSDP=3.31D-08 MaxDP=9.23D-07 DE=-3.90D-09 OVMax= 1.40D-06

 Cycle   8  Pass 1  IDiag  1:
 RMSU=  9.24D-09    CP:  1.02D+00  8.57D-01  8.35D-01  8.73D-01  1.04D+00
                    CP:  1.05D+00  1.01D+00
 E= -337.356994542760     Delta-E=       -0.000000000043 Rises=F Damp=F
 DIIS: error= 4.73D-08 at cycle   8 NSaved=   8.
 NSaved= 8 IEnMin= 8 EnMin= -337.356994542760     IErMin= 8 ErrMin= 4.73D-08
 ErrMax= 4.73D-08  0.00D+00 EMaxC= 1.00D-01 BMatC= 2.68D-13 BMatP= 8.37D-11
 IDIUse=1 WtCom= 1.00D+00 WtEn= 0.00D+00
 Coeff-Com:  0.875D-06-0.854D-06 0.266D-05 0.364D-04-0.136D-03-0.119D-01
 Coeff-Com: -0.795D-02 0.102D+01
 Coeff:      0.875D-06-0.854D-06 0.266D-05 0.364D-04-0.136D-03-0.119D-01
 Coeff:     -0.795D-02 0.102D+01
 Gap=     0.391 Goal=   None    Shift=    0.000
 RMSDP=3.01D-09 MaxDP=1.81D-07 DE=-4.30D-11 OVMax= 1.36D-07

 SCF Done:  E(RB3LYP) =  -337.356994543     A.U. after    8 cycles
            NFock=  8  Conv=0.30D-08     -V/T= 2.0028
 KE= 3.364006122299D+02 PE=-1.050536811324D+03 EE= 2.471241429253D+02
 Leave Link  502 at Sat Jul  2 15:12:55 2016, MaxMem=    33554432 cpu:        21.5
 (Enter /home/proyectos/fulerenos/M3C-v1.9/M3C-deps_CCC/g09-AM64L-G09RevC.01/l801.exe)
 DoSCS=F DFT=T ScalE2(SS,OS)=  1.000000  1.000000
 Range of M.O.s used for correlation:     1   156
 NBasis=   156 NAE=    16 NBE=    16 NFC=     0 NFV=     0
 NROrb=    156 NOA=    16 NOB=    16 NVA=   140 NVB=   140

 **** Warning!!: The largest alpha MO coefficient is  0.18158380D+02

 Leave Link  801 at Sat Jul  2 15:12:55 2016, MaxMem=    33554432 cpu:         0.6
 (Enter /home/proyectos/fulerenos/M3C-v1.9/M3C-deps_CCC/g09-AM64L-G09RevC.01/l1101.exe)
 Using compressed storage, NAtomX=     4.
 Will process      5 centers per pass.
 Leave Link 1101 at Sat Jul  2 15:12:56 2016, MaxMem=    33554432 cpu:         0.6
 (Enter /home/proyectos/fulerenos/M3C-v1.9/M3C-deps_CCC/g09-AM64L-G09RevC.01/l1102.exe)
 Symmetrizing basis deriv contribution to polar:
 IMax=3 JMax=2 DiffMx= 0.00D+00
 Leave Link 1102 at Sat Jul  2 15:12:59 2016, MaxMem=    33554432 cpu:         1.4
 (Enter /home/proyectos/fulerenos/M3C-v1.9/M3C-deps_CCC/g09-AM64L-G09RevC.01/l1110.exe)
 Forming Gx(P) for the SCF density, NAtomX=     4.
 Integral derivatives from FoFJK, PRISM(SPDF).
 Do as many integral derivatives as possible in FoFJK.
 G2DrvN: MDV=      33554296.
 G2DrvN: will do     5 centers at a time, making    1 passes.
 Calling FoFCou, ICntrl=  3107 FMM=F I1Cent=   0 AccDes= 0.00D+00.
 FoFJK:  IHMeth= 1 ICntrl=    3107 DoSepK=F KAlg= 0 I1Cent=   0 FoldK=F
 IRaf=         0 NMat=   1 IRICut=       1 DoRegI=T DoRafI=F ISym2E= 1.
 FoFCou: FMM=F IPFlag=           0 FMFlag=      100000 FMFlg1=           0
         NFxFlg=           0 DoJE=F BraDBF=F KetDBF=F FulRan=T
         wScrn=  0.000000 ICntrl=    3107 IOpCl=  0 I1Cent=           0 NGrid=           0
         NMat0=    1 NMatS0=      1 NMatT0=    0 NMatD0=    1 NMtDS0=    0 NMtDT0=    0
 Petite list used in FoFCou.
 End of G2Drv F.D. properties file   721 does not exist.
 End of G2Drv F.D. properties file   722 does not exist.
 End of G2Drv F.D. properties file   788 does not exist.
 Leave Link 1110 at Sat Jul  2 15:13:20 2016, MaxMem=    33554432 cpu:        19.7
 (Enter /home/proyectos/fulerenos/M3C-v1.9/M3C-deps_CCC/g09-AM64L-G09RevC.01/l1002.exe)
 Minotr:  Closed shell wavefunction.
          IDoAtm=1111
          Direct CPHF calculation.
          Differentiating once with respect to electric field.
                with respect to dipole field.
          Differentiating once with respect to nuclear coordinates.
          Using symmetry in CPHF.
          Requested convergence is 1.0D-08 RMS, and 1.0D-07 maximum.
          Secondary convergence is 1.0D-12 RMS, and 1.0D-12 maximum.
          NewPWx=T KeepS1=F KeepF1=F KeepIn=T MapXYZ=F SortEE=F KeepMc=T.
          MDV=      33554232 using IRadAn=       2.
 Generate precomputed XC quadrature information.
          Solving linear equations simultaneously, MaxMat=       0.
 FoFJK:  IHMeth= 1 ICntrl=       0 DoSepK=F KAlg= 0 I1Cent=   0 FoldK=F
 IRaf= 980000000 NMat=   9 IRICut=      22 DoRegI=T DoRafI=T ISym2E= 2.
 FoFCou: FMM=F IPFlag=           0 FMFlag=      100000 FMFlg1=           0
         NFxFlg=           0 DoJE=F BraDBF=F KetDBF=F FulRan=T
         wScrn=  0.000000 ICntrl=       0 IOpCl=  0 I1Cent=           0 NGrid=           0
         NMat0=    9 NMatS0=      9 NMatT0=    0 NMatD0=    9 NMtDS0=    0 NMtDT0=    0
 Integrals replicated using symmetry in FoFCou.
          There are     9 degrees of freedom in the 1st order CPHF.  IDoFFX=4 NUNeed=     9.
      9 vectors produced by pass  0 Test12= 2.49D-14 1.11D-08 XBig12= 8.24D+00 2.09D+00.
 AX will form     9 AO Fock derivatives at one time.
      9 vectors produced by pass  1 Test12= 2.49D-14 1.11D-08 XBig12= 2.84D+00 3.98D-01.
      9 vectors produced by pass  2 Test12= 2.49D-14 1.11D-08 XBig12= 3.75D-02 4.49D-02.
      9 vectors produced by pass  3 Test12= 2.49D-14 1.11D-08 XBig12= 1.46D-03 6.93D-03.
      9 vectors produced by pass  4 Test12= 2.49D-14 1.11D-08 XBig12= 1.30D-05 9.51D-04.
      8 vectors produced by pass  5 Test12= 2.49D-14 1.11D-08 XBig12= 4.78D-08 5.52D-05.
      6 vectors produced by pass  6 Test12= 2.49D-14 1.11D-08 XBig12= 8.92D-11 3.35D-06.
      3 vectors produced by pass  7 Test12= 2.49D-14 1.11D-08 XBig12= 2.14D-13 1.25D-07.
 InvSVY:  IOpt=1 It=  1 EMax= 4.44D-16
 Solved reduced A of dimension    62 with     9 vectors.
 FullF1:  Do perturbations    1 to     9.
 Isotropic polarizability for W=    0.000000       13.40 Bohr**3.
 End of Minotr F.D. properties file   721 does not exist.
 End of Minotr F.D. properties file   722 does not exist.
 End of Minotr F.D. properties file   788 does not exist.
 Leave Link 1002 at Sat Jul  2 15:15:51 2016, MaxMem=    33554432 cpu:       146.7
 (Enter /home/proyectos/fulerenos/M3C-v1.9/M3C-deps_CCC/g09-AM64L-G09RevC.01/l601.exe)
 Copying SCF densities to generalized density rwf, IOpCl= 0 IROHF=0.

 **********************************************************************

            Population analysis using the SCF density.

 **********************************************************************

 Orbital symmetries:
       Occupied  (A1') (E') (E') (A1') (A1') (E') (E') (A1') (E')
                 (E') (A2") (E') (E') (E") (E") (A2')
       Virtual   (A2") (A1') (A2") (E') (E') (A1') (E') (E') (A1')
                 (E") (E") (E') (E') (A1') (A2") (A2') (E') (E')
                 (E') (E') (A1') (E") (E") (A2") (E') (E') (E')
                 (E') (A1') (E') (E') (A1") (E") (E") (A1') (E")
                 (E") (A2') (A2") (E') (E') (E") (E") (A1') (E')
                 (E') (A2") (E') (E') (A2') (A1') (E') (E') (A1')
                 (E") (E") (E') (E') (A1') (E') (E') (A2") (E")
                 (E") (E') (E') (A2') (A2") (E') (E') (A1') (A1")
                 (A1') (E') (E') (E") (E") (E') (E') (A2") (E")
                 (E") (A1') (E') (E') (A2') (A2") (E") (E") (E')
                 (E') (A1") (A2') (A1') (E') (E') (E") (E") (A2")
                 (E') (E') (A2') (A1') (E') (E') (E") (E") (E")
                 (E") (A1') (E') (E') (A2") (E") (E") (A1') (E')
                 (E') (A2') (E') (E') (A1") (A1') (E") (E") (E')
                 (E') (E') (E') (A2") (E") (E") (A1') (A2') (E')
                 (E') (A1') (E') (E') (A1')
 The electronic state is 1-A1'.
 Alpha  occ. eigenvalues --  -25.11294 -25.11293 -25.11293 -10.84529  -1.74209
 Alpha  occ. eigenvalues --   -1.65321  -1.65321  -1.06177  -0.99574  -0.99574
 Alpha  occ. eigenvalues --   -0.95769  -0.84257  -0.84257  -0.82791  -0.82791
 Alpha  occ. eigenvalues --   -0.79038
 Alpha virt. eigenvalues --   -0.39912  -0.26119  -0.13093  -0.12832  -0.12832
 Alpha virt. eigenvalues --   -0.11114  -0.03323  -0.03323   0.00108   0.01517
 Alpha virt. eigenvalues --    0.01517   0.02404   0.02404   0.07321   0.09715
 Alpha virt. eigenvalues --    0.11188   0.12345   0.12345   0.13647   0.13647
 Alpha virt. eigenvalues --    0.18057   0.18155   0.18155   0.28547   0.39534
 Alpha virt. eigenvalues --    0.39534   0.51756   0.51756   0.53034   0.84126
 Alpha virt. eigenvalues --    0.84126   0.85694   0.85931   0.85931   0.88446
 Alpha virt. eigenvalues --    0.88809   0.88809   1.00579   1.02321   1.02922
 Alpha virt. eigenvalues --    1.02922   1.03491   1.03491   1.04600   1.05831
 Alpha virt. eigenvalues --    1.05831   1.19159   1.23328   1.23328   1.36192
 Alpha virt. eigenvalues --    1.37716   1.48652   1.48652   1.58001   1.79010
 Alpha virt. eigenvalues --    1.79010   2.05495   2.05495   2.11248   2.14299
 Alpha virt. eigenvalues --    2.14299   2.32650   2.67632   2.67632   2.83447
 Alpha virt. eigenvalues --    2.83447   2.90878   2.92253   3.52320   3.52320
 Alpha virt. eigenvalues --    3.55821   4.19704   4.20884   4.23811   4.23811
 Alpha virt. eigenvalues --    4.24017   4.24017   4.30444   4.30444   4.42126
 Alpha virt. eigenvalues --    4.47161   4.47161   4.79417   4.80952   4.80952
 Alpha virt. eigenvalues --    4.94515   5.95298   5.95387   5.95387   6.02214
 Alpha virt. eigenvalues --    6.02214   6.17758   6.18704   6.19990   6.21739
 Alpha virt. eigenvalues --    6.21739   6.21849   6.21849   6.24895   6.30390
 Alpha virt. eigenvalues --    6.30390   6.31114   6.39931   6.43436   6.43436
 Alpha virt. eigenvalues --    6.48286   6.48286   6.79789   6.79789   6.81776
 Alpha virt. eigenvalues --    7.05323   7.05323   7.11599   7.43463   7.43463
 Alpha virt. eigenvalues --    7.48687   7.87691   7.87691   8.14743   8.22953
 Alpha virt. eigenvalues --    8.22953  18.86428  18.87009  18.88952  18.88952
 Alpha virt. eigenvalues --   18.89350  18.89350  18.94189  18.94189  18.96452
 Alpha virt. eigenvalues --   19.03632  19.03632  19.17935  19.44535  19.46076
 Alpha virt. eigenvalues --   19.46076  24.67928  66.55631  66.55631  66.75081
          Condensed to atoms (all electrons):
               1          2          3          4
     1  C    4.320785   0.152579   0.152579   0.152579
     2  F    0.152579   9.026818  -0.052785  -0.052785
     3  F    0.152579  -0.052785   9.026818  -0.052785
     4  F    0.152579  -0.052785  -0.052785   9.026818
 Mulliken charges:
               1
     1  C    1.221479
     2  F   -0.073826
     3  F   -0.073826
     4  F   -0.073826
 Sum of Mulliken charges =   1.00000
 Mulliken charges with hydrogens summed into heavy atoms:
               1
     1  C    1.221479
     2  F   -0.073826
     3  F   -0.073826
     4  F   -0.073826
 APT charges:
               1
     1  C    1.839537
     2  F   -0.279832
     3  F   -0.279842
     4  F   -0.279842
 Sum of APT charges =   1.00002
 APT charges with hydrogens summed into heavy atoms:
               1
     1  C    1.839537
     2  F   -0.279832
     3  F   -0.279842
     4  F   -0.279842
 Electronic spatial extent (au):  <R**2>=            182.5939
 Charge=              1.0000 electrons
 Dipole moment (field-independent basis, Debye):
    X=             -0.0000    Y=             -0.0000    Z=             -0.0000  Tot=              0.0000
 Quadrupole moment (field-independent basis, Debye-Ang):
   XX=            -15.9297   YY=            -15.9297   ZZ=            -16.3191
   XY=              0.0000   XZ=             -0.0000   YZ=             -0.0000
 Traceless Quadrupole moment (field-independent basis, Debye-Ang):
   XX=              0.1298   YY=              0.1298   ZZ=             -0.2596
   XY=              0.0000   XZ=             -0.0000   YZ=             -0.0000
 Octapole moment (field-independent basis, Debye-Ang**2):
  XXX=             -0.0000  YYY=              1.3573  ZZZ=             -0.0000  XYY=              0.0000
  XXY=             -1.3573  XXZ=             -0.0000  XZZ=              0.0000  YZZ=              0.0000
  YYZ=             -0.0000  XYZ=              0.0000
 Hexadecapole moment (field-independent basis, Debye-Ang**3):
 XXXX=            -66.4424 YYYY=            -66.4424 ZZZZ=             -9.5814 XXXY=              0.0000
 XXXZ=             -0.0000 YYYX=              0.0000 YYYZ=              0.0000 ZZZX=             -0.0000
 ZZZY=              0.0000 XXYY=            -22.1475 XXZZ=            -13.2505 YYZZ=            -13.2505
 XXYZ=              0.0000 YYXZ=             -0.0000 ZZXY=              0.0000
 N-N= 1.296550616259D+02 E-N=-1.050536810777D+03  KE= 3.364006122299D+02
 Symmetry A1   KE= 2.152256030364D+02
 Symmetry A2   KE= 6.833705798327D+00
 Symmetry B1   KE= 1.026028325178D+02
 Symmetry B2   KE= 1.173847087747D+01
  Exact polarizability:  15.317  -0.000  15.318  -0.000  -0.000   9.553
 Approx polarizability:  22.103  -0.000  22.103   0.000  -0.000  12.662
 No NMR shielding tensors so no spin-rotation constants.
 Leave Link  601 at Sat Jul  2 15:15:52 2016, MaxMem=    33554432 cpu:         0.9
 (Enter /home/proyectos/fulerenos/M3C-v1.9/M3C-deps_CCC/g09-AM64L-G09RevC.01/l701.exe)
 Compute integral second derivatives.
 ... and contract with generalized density number  0.
 Leave Link  701 at Sat Jul  2 15:15:52 2016, MaxMem=    33554432 cpu:         0.6
 (Enter /home/proyectos/fulerenos/M3C-v1.9/M3C-deps_CCC/g09-AM64L-G09RevC.01/l702.exe)
 L702 exits ... SP integral derivatives will be done elsewhere.
 Leave Link  702 at Sat Jul  2 15:15:52 2016, MaxMem=    33554432 cpu:         0.1
 (Enter /home/proyectos/fulerenos/M3C-v1.9/M3C-deps_CCC/g09-AM64L-G09RevC.01/l703.exe)
 Compute integral second derivatives, UseDBF=F ICtDFT=           0.
 Integral derivatives from FoFJK, PRISM(SPDF).
 Calling FoFJK, ICntrl=    100127 FMM=F ISym2X=1 I1Cent= 0 IOpClX= 0 NMat=1 NMatS=1 NMatT=0.
 FoFJK:  IHMeth= 1 ICntrl=  100127 DoSepK=F KAlg= 0 I1Cent=   0 FoldK=F
 IRaf=         0 NMat=   1 IRICut=       1 DoRegI=T DoRafI=F ISym2E= 1.
 FoFCou: FMM=F IPFlag=           0 FMFlag=      100000 FMFlg1=         800
         NFxFlg=           0 DoJE=F BraDBF=F KetDBF=F FulRan=T
         wScrn=  0.000000 ICntrl=  100127 IOpCl=  0 I1Cent=           0 NGrid=           0
         NMat0=    1 NMatS0=      1 NMatT0=    0 NMatD0=    1 NMtDS0=    0 NMtDT0=    0
 Petite list used in FoFCou.
 Leave Link  703 at Sat Jul  2 15:16:38 2016, MaxMem=    33554432 cpu:        45.1
 (Enter /home/proyectos/fulerenos/M3C-v1.9/M3C-deps_CCC/g09-AM64L-G09RevC.01/l716.exe)
 Dipole        =-2.16920801D-14 1.51469820D-16-3.29307274D-17
 Polarizability= 1.53168007D+01-1.28809739D-10 1.53184385D+01
                -8.45041359D-11-3.73547585D-10 9.55325230D+00
 Full mass-weighted force constant matrix:
 Low frequencies ---   -0.2093   -0.0709   -0.0122   13.7127   13.7143   14.1625
 Low frequencies ---  587.7755  587.7893  801.0052
 Diagonal vibrational polarizability:
        5.1305633       5.1290974       2.7375721
 Harmonic frequencies (cm**-1), IR intensities (KM/Mole), Raman scattering
 activities (A**4/AMU), depolarization ratios for plane and unpolarized
 incident light, reduced masses (AMU), force constants (mDyne/A),
 and normal coordinates:
                      1                      2                      3
                     E'                     E'                     A2"
 Frequencies --    587.7755               587.7893               801.0052
 Red. masses --     18.0742                18.0742                12.8215
 Frc consts  --      3.6790                 3.6792                 4.8468
 IR Inten    --     11.9395                11.9435                65.2684
  Atom  AN      X      Y      Z        X      Y      Z        X      Y      Z
     1   6    -0.00   0.36   0.00    -0.36  -0.00  -0.00    -0.00  -0.00   0.94
     2   9     0.00   0.46  -0.00     0.61  -0.00   0.00     0.00  -0.00  -0.20
     3   9     0.46  -0.34  -0.00    -0.19  -0.46   0.00    -0.00   0.00  -0.20
     4   9    -0.46  -0.34  -0.00    -0.19   0.46   0.00     0.00   0.00  -0.20
                      4                      5                      6
                     A1'                    E'                     E'
 Frequencies --   1050.9402              1660.4541              1660.4654
 Red. masses --     18.9984                13.2797                13.2797
 Frc consts  --     12.3630                21.5721                21.5724
 IR Inten    --      0.0000               430.3256               430.2090
  Atom  AN      X      Y      Z        X      Y      Z        X      Y      Z
     1   6     0.00   0.00   0.00     0.90  -0.00   0.00     0.00   0.90  -0.00
     2   9     0.00   0.58  -0.00    -0.03   0.00  -0.00    -0.00  -0.35   0.00
     3   9    -0.50  -0.29  -0.00    -0.27  -0.14  -0.00    -0.14  -0.11   0.00
     4   9     0.50  -0.29  -0.00    -0.27   0.14  -0.00     0.14  -0.11   0.00

 -------------------
 - Thermochemistry -
 -------------------
 Temperature   298.150 Kelvin.  Pressure   1.00000 Atm.
 Atom     1 has atomic number  6 and mass  12.00000
 Atom     2 has atomic number  9 and mass  18.99840
 Atom     3 has atomic number  9 and mass  18.99840
 Atom     4 has atomic number  9 and mass  18.99840
 Molecular mass:    68.99521 amu.
 Principal axes and moments of inertia in atomic units:
                           1         2         3
     Eigenvalues --   154.91538 154.91538 309.83076
           X            0.69338   0.72058   0.00000
           Y            0.72058  -0.69338   0.00000
           Z            0.00000   0.00000   1.00000
 This molecule is an oblate symmetric top.
 Rotational symmetry number  6.
 Rotational temperatures (Kelvin)      0.55910     0.55910     0.27955
 Rotational constants (GHZ):          11.64985    11.64985     5.82493
 Zero-point vibrational energy      37972.0 (Joules/Mol)
                                    9.07554 (Kcal/Mol)
 Warning -- explicit consideration of   2 degrees of freedom as
           vibrations may cause significant error
 Vibrational temperatures:    845.68   845.70  1152.47  1512.07  2389.02
          (Kelvin)           2389.04
 
 Zero-point correction=                           0.014463 (Hartree/Particle)
 Thermal correction to Energy=                    0.017742
 Thermal correction to Enthalpy=                  0.018687
 Thermal correction to Gibbs Free Energy=        -0.009732
 Sum of electronic and zero-point Energies=           -337.342532
 Sum of electronic and thermal Energies=              -337.339252
 Sum of electronic and thermal Enthalpies=            -337.338308
 Sum of electronic and thermal Free Energies=         -337.366726
 
                     E (Thermal)             CV                S
                      KCal/Mol        Cal/Mol-Kelvin    Cal/Mol-Kelvin
 Total                   11.133              9.136             59.811
 Electronic               0.000              0.000              0.000
 Translational            0.889              2.981             38.612
 Rotational               0.889              2.981             19.963
 Vibrational              9.356              3.174              1.237
 Vibration     1          0.945              1.058              0.471
 Vibration     2          0.945              1.058              0.471
                       Q            Log10(Q)             Ln(Q)
 Total Bot       0.299454D+05          4.476330         10.307131
 Total V=0       0.134504D+12         11.128736         25.624862
 Vib (Bot)       0.258401D-06         -6.587705        -15.168752
 Vib (Bot)    1  0.257231D+00         -0.589677         -1.357782
 Vib (Bot)    2  0.257221D+00         -0.589693         -1.357819
 Vib (V=0)       0.116065D+01          0.064700          0.148978
 Vib (V=0)    1  0.106229D+01          0.026242          0.060425
 Vib (V=0)    2  0.106228D+01          0.026240          0.060421
 Electronic      0.100000D+01          0.000000          0.000000
 Translational   0.225260D+08          7.352684         16.930180
 Rotational      0.514460D+04          3.711352          8.545704
 
                                                              b3lyp opt
                                                             IR Spectrum
 
     11                                             1                                                                                
     66                                             0                  8                5                                            
     66                                             5                  0                8                                            
     00                                             1                  1                8                                            
 
     XX                                                                X                X                                            
     XX                                                                X                                                             
     XX                                                                X                                                             
     XX                                                                                                                              
     XX                                                                                                                              
     XX                                                                                                                              
     XX                                                                                                                              
     XX                                                                                                                              
     XX                                                                                                                              
     XX                                                                                                                              
     XX                                                                                                                              
     XX                                                                                                                              
     XX                                                                                                                              
     XX                                                                                                                              
     XX                                                                                                                              
     XX                                                                                                                              
     XX                                                                                                                              
     XX                                                                                                                              
     XX                                                                                                                              
     XX                                                                                                                              
 
 ***** Axes restored to original set *****
 -------------------------------------------------------------------
 Center     Atomic                   Forces (Hartrees/Bohr)
 Number     Number              X              Y              Z
 -------------------------------------------------------------------
      1        6          -0.000000000   -0.000000000   -0.000000000
      2        9          -0.000087585   -0.000393639   -0.000074153
      3        9          -0.000301862    0.000276652    0.000021554
      4        9           0.000389447    0.000116987    0.000052599
 -------------------------------------------------------------------
 Cartesian Forces:  Max     0.000393639 RMS     0.000205013
 Z-matrix is all fixed cartesians, so copy forces.
 Force constants in Cartesian coordinates: 
                1             2             3             4             5 
      1  0.933509D+00
      2 -0.960645D-02  0.918894D+00
      3  0.566315D-01  0.114260D+00  0.264845D+00
      4 -0.110303D+00 -0.912149D-01 -0.180055D-01  0.125085D+00
      5 -0.912149D-01 -0.500332D+00 -0.789491D-01  0.114166D+00  0.615555D+00
      6 -0.180055D-01 -0.789491D-01 -0.951348D-01  0.276326D-01  0.109488D+00
      7 -0.331402D+00  0.221405D+00  0.164432D-01  0.135228D-01  0.230979D-01
      8  0.221398D+00 -0.292552D+00 -0.174059D-01  0.431297D-01 -0.793204D-01
      9  0.164420D-01 -0.174053D-01 -0.818008D-01  0.620986D-02 -0.160453D-01
     10 -0.491827D+00 -0.120582D+00 -0.550716D-01 -0.283103D-01 -0.460461D-01
     11 -0.120575D+00 -0.126027D+00 -0.179098D-01 -0.660779D-01 -0.358968D-01
     12 -0.550704D-01 -0.179104D-01 -0.879003D-01 -0.158370D-01 -0.144923D-01
                6             7             8             9            10 
      6  0.477322D-01
      7  0.281112D-02  0.403855D+00
      8 -0.143607D-01 -0.279982D+00  0.353602D+00
      9  0.244966D-01 -0.157985D-01  0.318974D-01  0.309154D-01
     10 -0.124383D-01 -0.859661D-01  0.154404D-01 -0.685454D-02  0.606121D+00
     11 -0.161768D-01  0.354722D-01  0.182808D-01  0.155508D-02  0.151191D+00
     12  0.229061D-01 -0.345579D-02 -0.129472D-03  0.263842D-01  0.743668D-01
               11            12 
     11  0.143645D+00
     12  0.325335D-01  0.386057D-01
 Leave Link  716 at Sat Jul  2 15:16:38 2016, MaxMem=    33554432 cpu:         0.1
 (Enter /home/proyectos/fulerenos/M3C-v1.9/M3C-deps_CCC/g09-AM64L-G09RevC.01/l103.exe)

 GradGradGradGradGradGradGradGradGradGradGradGradGradGradGradGradGradGrad
 Berny optimization.
 Search for a local minimum.
 Step number   1 out of a maximum of    2
 All quantities printed in internal units (Hartrees-Bohrs-Radians)
 Second derivative matrix not updated -- analytic derivatives used.
 The second derivative matrix:
                          X1        Y1        Z1        X2        Y2
           X1           0.93351
           Y1          -0.00961   0.91889
           Z1           0.05663   0.11426   0.26484
           X2          -0.11030  -0.09121  -0.01801   0.12508
           Y2          -0.09121  -0.50033  -0.07895   0.11417   0.61555
           Z2          -0.01801  -0.07895  -0.09513   0.02763   0.10949
           X3          -0.33140   0.22140   0.01644   0.01352   0.02310
           Y3           0.22140  -0.29255  -0.01741   0.04313  -0.07932
           Z3           0.01644  -0.01741  -0.08180   0.00621  -0.01605
           X4          -0.49183  -0.12058  -0.05507  -0.02831  -0.04605
           Y4          -0.12057  -0.12603  -0.01791  -0.06608  -0.03590
           Z4          -0.05507  -0.01791  -0.08790  -0.01584  -0.01449
                          Z2        X3        Y3        Z3        X4
           Z2           0.04773
           X3           0.00281   0.40385
           Y3          -0.01436  -0.27998   0.35360
           Z3           0.02450  -0.01580   0.03190   0.03092
           X4          -0.01244  -0.08597   0.01544  -0.00685   0.60612
           Y4          -0.01618   0.03547   0.01828   0.00156   0.15119
           Z4           0.02291  -0.00346  -0.00013   0.02638   0.07437
                          Y4        Z4
           Y4           0.14364
           Z4           0.03253   0.03861
 ITU=  0
     Eigenvalues ---    0.23651   0.23653   0.31871   0.79408   1.43832
     Eigenvalues ---    1.43834
 Angle between quadratic step and forces=   0.00 degrees.
 ClnCor:  largest displacement from symmetrization is 5.37D-09 for atom     1.
 Linear search not attempted -- first point.
 ClnCor:  largest displacement from symmetrization is 9.55D-16 for atom     4.
 B after Tr=     0.000000    0.000000    0.000000
         Rot=    1.000000    0.000000   -0.000000   -0.000000 Ang=   0.00 deg.
 Variable       Old X    -DE/DX   Delta X   Delta X   Delta X     New X
                                 (Linear)    (Quad)   (Total)
    X1       -0.02256  -0.00000   0.00000  -0.00000   0.00000  -0.02256
    Y1        0.08259  -0.00000   0.00000   0.00000   0.00000   0.08259
    Z1       -0.14355  -0.00000   0.00000  -0.00000   0.00000  -0.14355
    X2        0.47548  -0.00009   0.00000  -0.00011  -0.00011   0.47537
    Y2        2.32095  -0.00039   0.00000  -0.00050  -0.00050   2.32045
    Z2        0.27811  -0.00007   0.00000  -0.00009  -0.00009   0.27801
    X3        1.69393  -0.00030   0.00000  -0.00038  -0.00038   1.69355
    Y3       -1.49054   0.00028   0.00000   0.00035   0.00035  -1.49019
    Z3       -0.26612   0.00002   0.00000   0.00003   0.00003  -0.26609
    X4       -2.23708   0.00039   0.00000   0.00049   0.00049  -2.23659
    Y4       -0.58264   0.00012   0.00000   0.00015   0.00015  -0.58249
    Z4       -0.44265   0.00005   0.00000   0.00007   0.00007  -0.44258
         Item               Value     Threshold  Converged?
 Maximum Force            0.000394     0.000450     YES
 RMS     Force            0.000205     0.000300     YES
 Maximum Displacement     0.000496     0.001800     YES
 RMS     Displacement     0.000258     0.001200     YES
 Predicted change in Energy=-3.175781D-07
 Optimization completed.
    -- Stationary point found.
 GradGradGradGradGradGradGradGradGradGradGradGradGradGradGradGradGradGrad

 Leave Link  103 at Sat Jul  2 15:16:38 2016, MaxMem=    33554432 cpu:         0.0
 (Enter /home/proyectos/fulerenos/M3C-v1.9/M3C-deps_CCC/g09-AM64L-G09RevC.01/l9999.exe)
 1\1\GINC-BLADI19\Freq\RB3LYP\6-311++G(3df,2p)\C1F3(1+)\ROOT\02-Jul-201
 6\0\\#p b3lyp/6-311++G(3df,2p) freq symmetry=Loose\\b3lyp opt\\1,1\C,-
 0.0119366957,0.0437050433,-0.0759645797\F,0.2516127883,1.2281932782,0.
 1471674769\F,0.8963875459,-0.7887606681,-0.140822388\F,-1.1838104215,-
 0.3083174803,-0.2342388281\\Version=EM64L-G09RevE.01\State=1-A1'\HF=-3
 37.3569945\RMSD=3.010e-09\RMSF=2.050e-04\ZeroPoint=0.0144628\Thermal=0
 .0177423\Dipole=0.,0.,0.\DipoleDeriv=2.2564333,-0.0176485,0.1036226,-0
 .0176485,2.2293942,0.2090381,0.1036226,0.2090381,1.0327822,-0.1650364,
 -0.1134,-0.0334436,-0.1134,-0.6549282,-0.1213116,-0.0334436,-0.1213116
 ,-0.0195327,-0.4443553,0.2814635,0.0100668,0.2815033,-0.3924427,-0.043
 5594,0.0100735,-0.0435627,-0.0027288,-0.6469869,-0.1504472,-0.0802545,
 -0.1504869,-0.1821069,-0.0442,-0.0802613,-0.0441966,-0.0104329\Polar=1
 5.2775278,-0.0790517,15.1581382,0.4679643,0.9443191,9.7528255\PG=D03H 
 [O(C1),3C2(F1)]\NImag=0\\0.93350893,-0.00960645,0.91889387,0.05663147,
 0.11426029,0.26484458,-0.11030259,-0.09121487,-0.01800549,0.12508459,-
 0.09121487,-0.50033226,-0.07894906,0.11416564,0.61555484,-0.01800549,-
 0.07894906,-0.09513482,0.02763265,0.10948776,0.04773224,-0.33140152,0.
 22140474,0.01644322,0.01352281,0.02309793,0.00281112,0.40385468,0.2213
 9767,-0.29255192,-0.01740586,0.04312974,-0.07932045,-0.01436073,-0.279
 98179,0.35360161,0.01644202,-0.01740527,-0.08180082,0.00620986,-0.0160
 4528,0.02449664,-0.01579849,0.03189741,0.03091538,-0.49182703,-0.12058
 198,-0.05507162,-0.02831033,-0.04604611,-0.01243829,-0.08596606,0.0154
 4036,-0.00685454,0.60612127,-0.12057490,-0.12602694,-0.01790980,-0.066
 07792,-0.03589679,-0.01617685,0.03547216,0.01828084,0.00155508,0.15119
 063,0.14364473,-0.05507042,-0.01791040,-0.08790028,-0.01583704,-0.0144
 9230,0.02290612,-0.00345579,-0.00012947,0.02638422,0.07436685,0.032533
 54,0.03860567\\0.,0.,0.,0.00008759,0.00039364,0.00007415,0.00030186,-0
 .00027665,-0.00002155,-0.00038945,-0.00011699,-0.00005260\\\@


 ON A CLEAR DISK YOU CAN SEEK FOREVER.
 Job cpu time:       0 days  0 hours  4 minutes 10.0 seconds.
 File lengths (MBytes):  RWF=     15 Int=      0 D2E=      0 Chk=      3 Scr=      1
 Normal termination of Gaussian 09 at Sat Jul  2 15:16:39 2016.
