 Entering Gaussian System, Link 0=/home/proyectos/fulerenos/M3C-v2.0/M3C-deps_CCC/g09-AM64L-G09RevC.01/g09
 Initial command:
 /home/proyectos/fulerenos/M3C-v2.0/M3C-deps_CCC/g09-AM64L-G09RevC.01/l1.exe "/scratch/naguirre/gaussian/Gau-4766.inp" -scrdir="/scratch/naguirre/gaussian/"
 Entering Link 1 = /home/proyectos/fulerenos/M3C-v2.0/M3C-deps_CCC/g09-AM64L-G09RevC.01/l1.exe PID=      4769.
  
 Copyright (c) 1988,1990,1992,1993,1995,1998,2003,2009,2015,
            Gaussian, Inc.  All Rights Reserved.
  
 This is part of the Gaussian(R) 09 program.  It is based on
 the Gaussian(R) 03 system (copyright 2003, Gaussian, Inc.),
 the Gaussian(R) 98 system (copyright 1998, Gaussian, Inc.),
 the Gaussian(R) 94 system (copyright 1995, Gaussian, Inc.),
 the Gaussian 92(TM) system (copyright 1992, Gaussian, Inc.),
 the Gaussian 90(TM) system (copyright 1990, Gaussian, Inc.),
 the Gaussian 88(TM) system (copyright 1988, Gaussian, Inc.),
 the Gaussian 86(TM) system (copyright 1986, Carnegie Mellon
 University), and the Gaussian 82(TM) system (copyright 1983,
 Carnegie Mellon University). Gaussian is a federally registered
 trademark of Gaussian, Inc.
  
 This software contains proprietary and confidential information,
 including trade secrets, belonging to Gaussian, Inc.
  
 This software is provided under written license and may be
 used, copied, transmitted, or stored only in accord with that
 written license.
  
 The following legend is applicable only to US Government
 contracts under FAR:
  
                    RESTRICTED RIGHTS LEGEND
  
 Use, reproduction and disclosure by the US Government is
 subject to restrictions as set forth in subparagraphs (a)
 and (c) of the Commercial Computer Software - Restricted
 Rights clause in FAR 52.227-19.
  
 Gaussian, Inc.
 340 Quinnipiac St., Bldg. 40, Wallingford CT 06492
  
  
 ---------------------------------------------------------------
 Warning -- This program may not be used in any manner that
 competes with the business of Gaussian, Inc. or will provide
 assistance to any competitor of Gaussian, Inc.  The licensee
 of this program is prohibited from giving any competitor of
 Gaussian, Inc. access to this program.  By using this program,
 the user acknowledges that Gaussian, Inc. is engaged in the
 business of creating and licensing software in the field of
 computational chemistry and represents and warrants to the
 licensee that it is not a competitor of Gaussian, Inc. and that
 it will not use this program in any manner prohibited above.
 ---------------------------------------------------------------
  

 Cite this work as:
 Gaussian 09, Revision E.01,
 M. J. Frisch, G. W. Trucks, H. B. Schlegel, G. E. Scuseria, 
 M. A. Robb, J. R. Cheeseman, G. Scalmani, V. Barone, B. Mennucci, 
 G. A. Petersson, H. Nakatsuji, M. Caricato, X. Li, H. P. Hratchian, 
 A. F. Izmaylov, J. Bloino, G. Zheng, J. L. Sonnenberg, M. Hada, 
 M. Ehara, K. Toyota, R. Fukuda, J. Hasegawa, M. Ishida, T. Nakajima, 
 Y. Honda, O. Kitao, H. Nakai, T. Vreven, J. A. Montgomery, Jr., 
 J. E. Peralta, F. Ogliaro, M. Bearpark, J. J. Heyd, E. Brothers, 
 K. N. Kudin, V. N. Staroverov, T. Keith, R. Kobayashi, J. Normand, 
 K. Raghavachari, A. Rendell, J. C. Burant, S. S. Iyengar, J. Tomasi, 
 M. Cossi, N. Rega, J. M. Millam, M. Klene, J. E. Knox, J. B. Cross, 
 V. Bakken, C. Adamo, J. Jaramillo, R. Gomperts, R. E. Stratmann, 
 O. Yazyev, A. J. Austin, R. Cammi, C. Pomelli, J. W. Ochterski, 
 R. L. Martin, K. Morokuma, V. G. Zakrzewski, G. A. Voth, 
 P. Salvador, J. J. Dannenberg, S. Dapprich, A. D. Daniels, 
 O. Farkas, J. B. Foresman, J. V. Ortiz, J. Cioslowski, 
 and D. J. Fox, Gaussian, Inc., Wallingford CT, 2013.
 
 ******************************************
 Gaussian 09:  EM64L-G09RevE.01 30-Nov-2015
                19-Jul-2016 
 ******************************************
 %NProcShared=1
 Will use up to    1 processors via shared memory.
 ---------------------------------------------
 #p b3lyp/6-311++G(3df,2p) freq symmetry=Loose
 ---------------------------------------------
 1/10=4,30=1,38=1/1,3;
 2/12=2,17=4,18=3,40=1/2;
 3/5=4,6=6,7=1216,11=2,16=1,25=1,30=1,71=2,74=-5,140=1/1,2,3;
 4//1;
 5/5=2,38=5,98=1/2;
 8/6=4,10=90,11=11/1;
 11/6=1,8=1,9=11,15=111,16=1/1,2,10;
 10/6=1/2;
 6/7=2,8=2,9=2,10=2,18=1,28=1/1;
 7/8=1,10=1,25=1/1,2,3,16;
 1/10=4,30=1/3;
 99//99;
 Leave Link    1 at Tue Jul 19 03:33:50 2016, MaxMem=           0 cpu:         0.1
 (Enter /home/proyectos/fulerenos/M3C-v2.0/M3C-deps_CCC/g09-AM64L-G09RevC.01/l101.exe)
 ---------
 b3lyp opt
 ---------
 Symbolic Z-matrix:
 Charge =  0 Multiplicity = 3
 C                     1.0729   -0.00007   0.12259 
 C                     0.00002  -0.89069  -0.13454 
 C                    -1.07302   0.00005   0.12149 
 C                     0.00012   0.89071  -0.13444 
 H                     2.14452  -0.00012   0.07577 
 H                    -2.14459   0.00011   0.07357 
 
 NAtoms=      6 NQM=        6 NQMF=       0 NMMI=      0 NMMIF=      0
                NMic=       0 NMicF=      0.
                    Isotopes and Nuclear Properties:
 (Nuclear quadrupole moments (NQMom) in fm**2, nuclear magnetic moments (NMagM)
  in nuclear magnetons)

  Atom         1           2           3           4           5           6
 IAtWgt=          12          12          12          12           1           1
 AtmWgt=  12.0000000  12.0000000  12.0000000  12.0000000   1.0078250   1.0078250
 NucSpn=           0           0           0           0           1           1
 AtZEff=   0.0000000   0.0000000   0.0000000   0.0000000   0.0000000   0.0000000
 NQMom=    0.0000000   0.0000000   0.0000000   0.0000000   0.0000000   0.0000000
 NMagM=    0.0000000   0.0000000   0.0000000   0.0000000   2.7928460   2.7928460
 AtZNuc=   6.0000000   6.0000000   6.0000000   6.0000000   1.0000000   1.0000000
 Leave Link  101 at Tue Jul 19 03:33:50 2016, MaxMem=    33554432 cpu:         0.2
 (Enter /home/proyectos/fulerenos/M3C-v2.0/M3C-deps_CCC/g09-AM64L-G09RevC.01/l103.exe)

 GradGradGradGradGradGradGradGradGradGradGradGradGradGradGradGradGradGrad
 Berny optimization.
 Initialization pass.
 Trust Radius=3.00D-01 FncErr=1.00D-07 GrdErr=1.00D-07
 Number of steps in this run=      2 maximum allowed number of steps=      2.
 GradGradGradGradGradGradGradGradGradGradGradGradGradGradGradGradGradGrad

 Leave Link  103 at Tue Jul 19 03:33:50 2016, MaxMem=    33554432 cpu:         0.0
 (Enter /home/proyectos/fulerenos/M3C-v2.0/M3C-deps_CCC/g09-AM64L-G09RevC.01/l202.exe)
                          Input orientation:                          
 ---------------------------------------------------------------------
 Center     Atomic      Atomic             Coordinates (Angstroms)
 Number     Number       Type             X           Y           Z
 ---------------------------------------------------------------------
      1          6           0        1.072899   -0.000067    0.122593
      2          6           0        0.000021   -0.890694   -0.134542
      3          6           0       -1.073021    0.000052    0.121495
      4          6           0        0.000119    0.890709   -0.134436
      5          1           0        2.144521   -0.000124    0.075766
      6          1           0       -2.144595    0.000114    0.073571
 ---------------------------------------------------------------------
                    Distance matrix (angstroms):
                    1          2          3          4          5
     1  C    0.000000
     2  C    1.417887   0.000000
     3  C    2.145921   1.417887   0.000000
     4  C    1.417887   1.781403   1.417887   0.000000
     5  H    1.072644   2.331571   3.217867   2.331571   0.000000
     6  H    3.217867   2.331571   1.072644   2.331571   4.289116
                    6
     6  H    0.000000
 Stoichiometry    C4H2(3)
 Framework group  C2V[SGV(C2H2),SGV'(C2)]
 Deg. of freedom     5
 Full point group                 C2V     NOp   4
 Largest Abelian subgroup         C2V     NOp   4
 Largest concise Abelian subgroup C2V     NOp   4
                         Standard orientation:                         
 ---------------------------------------------------------------------
 Center     Atomic      Atomic             Coordinates (Angstroms)
 Number     Number       Type             X           Y           Z
 ---------------------------------------------------------------------
      1          6           0        0.000000    1.072960   -0.122044
      2          6           0       -0.890702    0.000000    0.134489
      3          6           0       -0.000000   -1.072960   -0.122044
      4          6           0        0.890702   -0.000000    0.134489
      5          1           0        0.000000    2.144558   -0.074668
      6          1           0       -0.000000   -2.144558   -0.074668
 ---------------------------------------------------------------------
 Rotational constants (GHZ):     25.4692049     13.4044063      9.0342295
 Leave Link  202 at Tue Jul 19 03:33:50 2016, MaxMem=    33554432 cpu:         0.0
 (Enter /home/proyectos/fulerenos/M3C-v2.0/M3C-deps_CCC/g09-AM64L-G09RevC.01/l301.exe)
 Standard basis: 6-311++G(3df,2p) (5D, 7F)
 Ernie: Thresh=  0.10000D-02 Tol=  0.10000D-05 Strict=F.
 There are    70 symmetry adapted cartesian basis functions of A1  symmetry.
 There are    30 symmetry adapted cartesian basis functions of A2  symmetry.
 There are    47 symmetry adapted cartesian basis functions of B1  symmetry.
 There are    53 symmetry adapted cartesian basis functions of B2  symmetry.
 There are    60 symmetry adapted basis functions of A1  symmetry.
 There are    28 symmetry adapted basis functions of A2  symmetry.
 There are    41 symmetry adapted basis functions of B1  symmetry.
 There are    47 symmetry adapted basis functions of B2  symmetry.
   176 basis functions,   256 primitive gaussians,   200 cartesian basis functions
    14 alpha electrons       12 beta electrons
       nuclear repulsion energy        86.7784665732 Hartrees.
 IExCor=  402 DFT=T Ex+Corr=B3LYP ExCW=0 ScaHFX=  0.200000
 ScaDFX=  0.800000  0.720000  1.000000  0.810000 ScalE2=  1.000000  1.000000
 IRadAn=      0 IRanWt=     -1 IRanGd=            0 ICorTp=0 IEmpDi=  4
 NAtoms=    6 NActive=    6 NUniq=    3 SFac= 4.00D+00 NAtFMM=   60 NAOKFM=F Big=F
 Integral buffers will be    131072 words long.
 Raffenetti 2 integral format.
 Two-electron integral symmetry is turned on.
 Leave Link  301 at Tue Jul 19 03:33:51 2016, MaxMem=    33554432 cpu:         0.1
 (Enter /home/proyectos/fulerenos/M3C-v2.0/M3C-deps_CCC/g09-AM64L-G09RevC.01/l302.exe)
 NPDir=0 NMtPBC=     1 NCelOv=     1 NCel=       1 NClECP=     1 NCelD=      1
         NCelK=      1 NCelE2=     1 NClLst=     1 CellRange=     0.0.
 One-electron integrals computed using PRISM.
 One-electron integral symmetry used in STVInt
 NBasis=   176 RedAO= T EigKep=  2.82D-05  NBF=    60    28    41    47
 NBsUse=   176 1.00D-06 EigRej= -1.00D+00 NBFU=    60    28    41    47
 Precomputing XC quadrature grid using
 IXCGrd= 4 IRadAn=           0 IRanWt=          -1 IRanGd=           0 AccXCQ= 0.00D+00.
 Generated NRdTot=       0 NPtTot=           0 NUsed=           0 NTot=          32
 NSgBfM=   200   200   200   200   200 MxSgAt=     6 MxSgA2=     6.
 Leave Link  302 at Tue Jul 19 03:33:51 2016, MaxMem=    33554432 cpu:         0.3
 (Enter /home/proyectos/fulerenos/M3C-v2.0/M3C-deps_CCC/g09-AM64L-G09RevC.01/l303.exe)
 DipDrv:  MaxL=1.
 Leave Link  303 at Tue Jul 19 03:33:51 2016, MaxMem=    33554432 cpu:         0.1
 (Enter /home/proyectos/fulerenos/M3C-v2.0/M3C-deps_CCC/g09-AM64L-G09RevC.01/l401.exe)
 ExpMin= 3.60D-02 ExpMax= 4.56D+03 ExpMxC= 6.82D+02 IAcc=3 IRadAn=         5 AccDes= 0.00D+00
 Harris functional with IExCor=  402 and IRadAn=       5 diagonalized for initial guess.
 HarFok:  IExCor=  402 AccDes= 0.00D+00 IRadAn=         5 IDoV= 1 UseB2=F ITyADJ=14
 ICtDFT=  3500011 ScaDFX=  1.000000  1.000000  1.000000  1.000000
 FoFCou: FMM=F IPFlag=           0 FMFlag=      100000 FMFlg1=           0
         NFxFlg=           0 DoJE=T BraDBF=F KetDBF=T FulRan=T
         wScrn=  0.000000 ICntrl=     500 IOpCl=  0 I1Cent=   200000004 NGrid=           0
         NMat0=    1 NMatS0=      1 NMatT0=    0 NMatD0=    1 NMtDS0=    0 NMtDT0=    0
 Petite list used in FoFCou.
 Harris En= -153.371911243825    
 JPrj=0 DoOrth=F DoCkMO=F.
 Initial guess orbital symmetries:
 Alpha Orbitals:
       Occupied  (B2) (A1) (B1) (A1) (A1) (B2) (B1) (A1) (B2) (A2)
                 (A1) (A1) (B2) (B1)
       Virtual   (B1) (A1) (A1) (B2) (B1) (A1) (A1) (A2) (A1) (B2)
                 (B1) (B2) (B1) (B2) (A1) (A1) (A2) (B1) (B2) (A1)
                 (B1) (A1) (A2) (B2) (B2) (A1) (A1) (A2) (A1) (A2)
                 (B2) (B2) (B1) (A1) (B2) (B1) (B1) (B1) (A1) (A1)
                 (B1) (A1) (B2) (A1) (A2) (B2) (A1) (A2) (B2) (B1)
                 (B2) (A1) (B1) (A1) (A2) (B2) (A2) (B1) (A1) (A1)
                 (B2) (A1) (A2) (A1) (B2) (B2) (B1) (A1) (A2) (B1)
                 (B2) (A1) (B1) (B2) (A1) (A2) (B1) (A1) (B2) (B1)
                 (B1) (B2) (A2) (A1) (B2) (A1) (B1) (A2) (A1) (B2)
                 (A1) (A1) (B2) (A2) (B1) (B2) (A1) (B1) (A1) (A2)
                 (B2) (B2) (A1) (A1) (B1) (A2) (B2) (B1) (A1) (A2)
                 (B2) (B1) (A1) (A2) (B1) (B2) (A1) (B1) (A1) (B2)
                 (A2) (A1) (B1) (A1) (A2) (B1) (B2) (B2) (B2) (B1)
                 (A1) (A1) (B1) (B2) (A2) (A2) (B2) (A1) (A2) (A1)
                 (B2) (A1) (B1) (B2) (B1) (A1) (A1) (B1) (A2) (B2)
                 (A1) (B2) (B1) (B2) (B1) (A2) (A1) (A2) (A1) (A1)
                 (B1) (B2)
 Beta  Orbitals:
       Occupied  (B2) (A1) (B1) (A1) (A1) (B2) (B1) (A1) (B2) (A2)
                 (A1) (A1)
       Virtual   (B2) (B1) (B1) (A1) (A1) (B2) (B1) (A1) (A1) (A2)
                 (A1) (B2) (B1) (B2) (B1) (B2) (A1) (A1) (A2) (B1)
                 (B2) (A1) (B1) (A1) (A2) (B2) (B2) (A1) (A1) (A2)
                 (A1) (A2) (B2) (B2) (B1) (A1) (B2) (B1) (B1) (B1)
                 (A1) (A1) (B1) (A1) (B2) (A1) (A2) (B2) (A1) (A2)
                 (B2) (B1) (B2) (A1) (B1) (A1) (A2) (B2) (A2) (B1)
                 (A1) (A1) (B2) (A1) (A2) (A1) (B2) (B2) (B1) (A1)
                 (A2) (B1) (B2) (A1) (B1) (B2) (A1) (A2) (B1) (A1)
                 (B2) (B1) (B1) (B2) (A2) (A1) (B2) (A1) (B1) (A2)
                 (A1) (B2) (A1) (A1) (B2) (A2) (B1) (B2) (A1) (B1)
                 (A1) (A2) (B2) (B2) (A1) (A1) (B1) (A2) (B2) (B1)
                 (A1) (A2) (B2) (B1) (A1) (A2) (B1) (B2) (A1) (B1)
                 (A1) (B2) (A2) (A1) (B1) (A1) (A2) (B1) (B2) (B2)
                 (B2) (B1) (A1) (A1) (B1) (B2) (A2) (A2) (B2) (A1)
                 (A2) (A1) (B2) (A1) (B1) (B2) (B1) (A1) (A1) (B1)
                 (A2) (B2) (A1) (B2) (B1) (B2) (B1) (A2) (A1) (A2)
                 (A1) (A1) (B1) (B2)
 The electronic state of the initial guess is 3-A2.
 Initial guess <Sx>= 0.0000 <Sy>= 0.0000 <Sz>= 1.0000 <S**2>= 2.0000 S= 1.0000
 Leave Link  401 at Tue Jul 19 03:33:53 2016, MaxMem=    33554432 cpu:         1.5
 (Enter /home/proyectos/fulerenos/M3C-v2.0/M3C-deps_CCC/g09-AM64L-G09RevC.01/l502.exe)
 UHF open shell SCF:
 Using DIIS extrapolation, IDIIS=  1040.
 Integral symmetry usage will be decided dynamically.
 IVT=      141870 IEndB=      141870 NGot=    33554432 MDV=    33469403
 LenX=    33469403 LenY=    33428962
 Requested convergence on RMS density matrix=1.00D-08 within 128 cycles.
 Requested convergence on MAX density matrix=1.00D-06.
 Requested convergence on             energy=1.00D-06.
 No special actions if energy rises.
 Fock matrices will be formed incrementally for  20 cycles.

 Cycle   1  Pass 1  IDiag  1:
 FoFJK:  IHMeth= 1 ICntrl=       0 DoSepK=F KAlg= 0 I1Cent=   0 FoldK=F
 IRaf= 990000000 NMat=   1 IRICut=       1 DoRegI=T DoRafI=F ISym2E= 1.
 FoFCou: FMM=F IPFlag=           0 FMFlag=      100000 FMFlg1=           0
         NFxFlg=           0 DoJE=F BraDBF=F KetDBF=F FulRan=T
         wScrn=  0.000000 ICntrl=       0 IOpCl=  1 I1Cent=           0 NGrid=           0
         NMat0=    1 NMatS0=      1 NMatT0=    0 NMatD0=    1 NMtDS0=    0 NMtDT0=    0
 Petite list used in FoFCou.
 E= -153.353592848535    
 DIIS: error= 2.08D-02 at cycle   1 NSaved=   1.
 NSaved= 1 IEnMin= 1 EnMin= -153.353592848535     IErMin= 1 ErrMin= 2.08D-02
 ErrMax= 2.08D-02  0.00D+00 EMaxC= 1.00D-01 BMatC= 2.37D-01 BMatP= 2.37D-01
 IDIUse=3 WtCom= 7.92D-01 WtEn= 2.08D-01
 Coeff-Com:  0.100D+01
 Coeff-En:   0.100D+01
 Coeff:      0.100D+01
 Gap=     0.163 Goal=   None    Shift=    0.000
 Gap=     0.196 Goal=   None    Shift=    0.000
 GapD=    0.163 DampG=1.000 DampE=0.500 DampFc=0.5000 IDamp=-1.
 Damping current iteration by 5.00D-01
 RMSDP=3.83D-03 MaxDP=1.37D-01              OVMax= 1.31D-01

 Cycle   2  Pass 1  IDiag  1:
 RMSU=  1.74D-03    CP:  9.47D-01
 E= -153.381002578491     Delta-E=       -0.027409729957 Rises=F Damp=T
 DIIS: error= 5.39D-03 at cycle   2 NSaved=   2.
 NSaved= 2 IEnMin= 2 EnMin= -153.381002578491     IErMin= 2 ErrMin= 5.39D-03
 ErrMax= 5.39D-03  0.00D+00 EMaxC= 1.00D-01 BMatC= 1.57D-02 BMatP= 2.37D-01
 IDIUse=3 WtCom= 9.46D-01 WtEn= 5.39D-02
 Coeff-Com: -0.560D-01 0.106D+01
 Coeff-En:   0.000D+00 0.100D+01
 Coeff:     -0.529D-01 0.105D+01
 Gap=     0.165 Goal=   None    Shift=    0.000
 Gap=     0.165 Goal=   None    Shift=    0.000
 RMSDP=7.90D-04 MaxDP=3.33D-02 DE=-2.74D-02 OVMax= 8.28D-02

 Cycle   3  Pass 1  IDiag  1:
 RMSU=  7.62D-04    CP:  9.34D-01  1.05D+00
 E= -153.410508786299     Delta-E=       -0.029506207807 Rises=F Damp=F
 DIIS: error= 3.47D-03 at cycle   3 NSaved=   3.
 NSaved= 3 IEnMin= 3 EnMin= -153.410508786299     IErMin= 3 ErrMin= 3.47D-03
 ErrMax= 3.47D-03  0.00D+00 EMaxC= 1.00D-01 BMatC= 3.11D-03 BMatP= 1.57D-02
 IDIUse=3 WtCom= 9.65D-01 WtEn= 3.47D-02
 Coeff-Com: -0.897D-01 0.258D+00 0.831D+00
 Coeff-En:   0.000D+00 0.000D+00 0.100D+01
 Coeff:     -0.866D-01 0.249D+00 0.837D+00
 Gap=     0.161 Goal=   None    Shift=    0.000
 Gap=     0.168 Goal=   None    Shift=    0.000
 RMSDP=2.98D-04 MaxDP=1.10D-02 DE=-2.95D-02 OVMax= 1.04D-02

 Cycle   4  Pass 1  IDiag  1:
 RMSU=  1.92D-04    CP:  9.25D-01  1.16D+00  9.44D-01
 E= -153.411317011583     Delta-E=       -0.000808225284 Rises=F Damp=F
 DIIS: error= 4.91D-04 at cycle   4 NSaved=   4.
 NSaved= 4 IEnMin= 4 EnMin= -153.411317011583     IErMin= 4 ErrMin= 4.91D-04
 ErrMax= 4.91D-04  0.00D+00 EMaxC= 1.00D-01 BMatC= 1.15D-04 BMatP= 3.11D-03
 IDIUse=3 WtCom= 9.95D-01 WtEn= 4.91D-03
 Coeff-Com: -0.166D-01 0.100D-01 0.168D+00 0.839D+00
 Coeff-En:   0.000D+00 0.000D+00 0.000D+00 0.100D+01
 Coeff:     -0.165D-01 0.995D-02 0.167D+00 0.840D+00
 Gap=     0.161 Goal=   None    Shift=    0.000
 Gap=     0.167 Goal=   None    Shift=    0.000
 RMSDP=7.47D-05 MaxDP=3.22D-03 DE=-8.08D-04 OVMax= 3.70D-03

 Cycle   5  Pass 1  IDiag  1:
 RMSU=  5.52D-05    CP:  9.26D-01  1.19D+00  9.58D-01  9.57D-01
 E= -153.411352725666     Delta-E=       -0.000035714083 Rises=F Damp=F
 DIIS: error= 3.22D-04 at cycle   5 NSaved=   5.
 NSaved= 5 IEnMin= 5 EnMin= -153.411352725666     IErMin= 5 ErrMin= 3.22D-04
 ErrMax= 3.22D-04  0.00D+00 EMaxC= 1.00D-01 BMatC= 3.02D-05 BMatP= 1.15D-04
 IDIUse=3 WtCom= 9.97D-01 WtEn= 3.22D-03
 Coeff-Com: -0.388D-03-0.138D-01 0.916D-02 0.332D+00 0.673D+00
 Coeff-En:   0.000D+00 0.000D+00 0.000D+00 0.000D+00 0.100D+01
 Coeff:     -0.387D-03-0.138D-01 0.913D-02 0.331D+00 0.674D+00
 Gap=     0.162 Goal=   None    Shift=    0.000
 Gap=     0.168 Goal=   None    Shift=    0.000
 RMSDP=2.44D-05 MaxDP=8.30D-04 DE=-3.57D-05 OVMax= 1.66D-03

 Cycle   6  Pass 1  IDiag  1:
 RMSU=  2.18D-05    CP:  9.26D-01  1.18D+00  9.63D-01  9.92D-01  1.01D+00
 E= -153.411361793684     Delta-E=       -0.000009068019 Rises=F Damp=F
 DIIS: error= 1.19D-04 at cycle   6 NSaved=   6.
 NSaved= 6 IEnMin= 6 EnMin= -153.411361793684     IErMin= 6 ErrMin= 1.19D-04
 ErrMax= 1.19D-04  0.00D+00 EMaxC= 1.00D-01 BMatC= 5.20D-06 BMatP= 3.02D-05
 IDIUse=3 WtCom= 9.99D-01 WtEn= 1.19D-03
 Coeff-Com:  0.470D-02-0.968D-02-0.418D-01-0.845D-01 0.263D+00 0.868D+00
 Coeff-En:   0.000D+00 0.000D+00 0.000D+00 0.000D+00 0.000D+00 0.100D+01
 Coeff:      0.469D-02-0.967D-02-0.418D-01-0.844D-01 0.263D+00 0.868D+00
 Gap=     0.162 Goal=   None    Shift=    0.000
 Gap=     0.168 Goal=   None    Shift=    0.000
 RMSDP=1.31D-05 MaxDP=3.79D-04 DE=-9.07D-06 OVMax= 9.51D-04

 Cycle   7  Pass 1  IDiag  1:
 RMSU=  5.56D-06    CP:  9.26D-01  1.19D+00  9.65D-01  1.01D+00  1.18D+00
                    CP:  1.02D+00
 E= -153.411363823771     Delta-E=       -0.000002030086 Rises=F Damp=F
 DIIS: error= 2.88D-05 at cycle   7 NSaved=   7.
 NSaved= 7 IEnMin= 7 EnMin= -153.411363823771     IErMin= 7 ErrMin= 2.88D-05
 ErrMax= 2.88D-05  0.00D+00 EMaxC= 1.00D-01 BMatC= 1.41D-07 BMatP= 5.20D-06
 IDIUse=1 WtCom= 1.00D+00 WtEn= 0.00D+00
 Coeff-Com:  0.529D-03-0.119D-03-0.599D-02-0.286D-01-0.704D-02 0.107D+00
 Coeff-Com:  0.935D+00
 Coeff:      0.529D-03-0.119D-03-0.599D-02-0.286D-01-0.704D-02 0.107D+00
 Coeff:      0.935D+00
 Gap=     0.162 Goal=   None    Shift=    0.000
 Gap=     0.168 Goal=   None    Shift=    0.000
 RMSDP=2.68D-06 MaxDP=7.76D-05 DE=-2.03D-06 OVMax= 1.90D-04

 Cycle   8  Pass 1  IDiag  1:
 RMSU=  2.23D-06    CP:  9.26D-01  1.19D+00  9.65D-01  1.02D+00  1.19D+00
                    CP:  1.06D+00  1.13D+00
 E= -153.411363889278     Delta-E=       -0.000000065507 Rises=F Damp=F
 DIIS: error= 1.22D-05 at cycle   8 NSaved=   8.
 NSaved= 8 IEnMin= 8 EnMin= -153.411363889278     IErMin= 8 ErrMin= 1.22D-05
 ErrMax= 1.22D-05  0.00D+00 EMaxC= 1.00D-01 BMatC= 2.72D-08 BMatP= 1.41D-07
 IDIUse=1 WtCom= 1.00D+00 WtEn= 0.00D+00
 Coeff-Com: -0.378D-03 0.105D-02 0.280D-02 0.114D-02-0.338D-01-0.615D-01
 Coeff-Com:  0.298D+00 0.793D+00
 Coeff:     -0.378D-03 0.105D-02 0.280D-02 0.114D-02-0.338D-01-0.615D-01
 Coeff:      0.298D+00 0.793D+00
 Gap=     0.162 Goal=   None    Shift=    0.000
 Gap=     0.168 Goal=   None    Shift=    0.000
 RMSDP=1.05D-06 MaxDP=4.96D-05 DE=-6.55D-08 OVMax= 5.66D-05

 Cycle   9  Pass 1  IDiag  1:
 RMSU=  7.25D-07    CP:  9.26D-01  1.19D+00  9.64D-01  1.02D+00  1.20D+00
                    CP:  1.06D+00  1.26D+00  9.17D-01
 E= -153.411363899013     Delta-E=       -0.000000009736 Rises=F Damp=F
 DIIS: error= 2.49D-06 at cycle   9 NSaved=   9.
 NSaved= 9 IEnMin= 9 EnMin= -153.411363899013     IErMin= 9 ErrMin= 2.49D-06
 ErrMax= 2.49D-06  0.00D+00 EMaxC= 1.00D-01 BMatC= 1.19D-09 BMatP= 2.72D-08
 IDIUse=1 WtCom= 1.00D+00 WtEn= 0.00D+00
 Coeff-Com: -0.108D-03 0.180D-03 0.107D-02 0.245D-02-0.565D-02-0.168D-01
 Coeff-Com: -0.407D-01 0.125D+00 0.934D+00
 Coeff:     -0.108D-03 0.180D-03 0.107D-02 0.245D-02-0.565D-02-0.168D-01
 Coeff:     -0.407D-01 0.125D+00 0.934D+00
 Gap=     0.162 Goal=   None    Shift=    0.000
 Gap=     0.168 Goal=   None    Shift=    0.000
 RMSDP=3.30D-07 MaxDP=1.29D-05 DE=-9.74D-09 OVMax= 1.96D-05

 Cycle  10  Pass 1  IDiag  1:
 RMSU=  1.75D-07    CP:  9.26D-01  1.19D+00  9.64D-01  1.02D+00  1.20D+00
                    CP:  1.07D+00  1.28D+00  9.83D-01  1.00D+00
 E= -153.411363899592     Delta-E=       -0.000000000579 Rises=F Damp=F
 DIIS: error= 5.73D-07 at cycle  10 NSaved=  10.
 NSaved=10 IEnMin=10 EnMin= -153.411363899592     IErMin=10 ErrMin= 5.73D-07
 ErrMax= 5.73D-07  0.00D+00 EMaxC= 1.00D-01 BMatC= 3.77D-11 BMatP= 1.19D-09
 IDIUse=1 WtCom= 1.00D+00 WtEn= 0.00D+00
 Coeff-Com:  0.832D-05-0.255D-04-0.342D-04-0.137D-03 0.933D-03 0.196D-02
 Coeff-Com: -0.856D-02-0.289D-01 0.401D-02 0.103D+01
 Coeff:      0.832D-05-0.255D-04-0.342D-04-0.137D-03 0.933D-03 0.196D-02
 Coeff:     -0.856D-02-0.289D-01 0.401D-02 0.103D+01
 Gap=     0.162 Goal=   None    Shift=    0.000
 Gap=     0.168 Goal=   None    Shift=    0.000
 RMSDP=7.88D-08 MaxDP=3.00D-06 DE=-5.79D-10 OVMax= 1.02D-05

 Cycle  11  Pass 1  IDiag  1:
 RMSU=  3.45D-08    CP:  9.26D-01  1.19D+00  9.64D-01  1.02D+00  1.20D+00
                    CP:  1.07D+00  1.29D+00  9.87D-01  1.06D+00  1.26D+00
 E= -153.411363899630     Delta-E=       -0.000000000037 Rises=F Damp=F
 DIIS: error= 2.04D-07 at cycle  11 NSaved=  11.
 NSaved=11 IEnMin=11 EnMin= -153.411363899630     IErMin=11 ErrMin= 2.04D-07
 ErrMax= 2.04D-07  0.00D+00 EMaxC= 1.00D-01 BMatC= 5.57D-12 BMatP= 3.77D-11
 IDIUse=1 WtCom= 1.00D+00 WtEn= 0.00D+00
 Coeff-Com: -0.405D-06 0.405D-05-0.233D-04-0.630D-04-0.283D-03 0.307D-03
 Coeff-Com:  0.437D-02 0.412D-02-0.449D-01-0.346D+00 0.138D+01
 Coeff:     -0.405D-06 0.405D-05-0.233D-04-0.630D-04-0.283D-03 0.307D-03
 Coeff:      0.437D-02 0.412D-02-0.449D-01-0.346D+00 0.138D+01
 Gap=     0.162 Goal=   None    Shift=    0.000
 Gap=     0.168 Goal=   None    Shift=    0.000
 RMSDP=4.06D-08 MaxDP=1.10D-06 DE=-3.72D-11 OVMax= 6.50D-06

 Cycle  12  Pass 1  IDiag  1:
 RMSU=  8.51D-09    CP:  9.26D-01  1.19D+00  9.64D-01  1.02D+00  1.20D+00
                    CP:  1.07D+00  1.29D+00  9.87D-01  1.07D+00  1.43D+00
                    CP:  1.68D+00
 E= -153.411363899639     Delta-E=       -0.000000000010 Rises=F Damp=F
 DIIS: error= 5.98D-08 at cycle  12 NSaved=  12.
 NSaved=12 IEnMin=12 EnMin= -153.411363899639     IErMin=12 ErrMin= 5.98D-08
 ErrMax= 5.98D-08  0.00D+00 EMaxC= 1.00D-01 BMatC= 4.59D-13 BMatP= 5.57D-12
 IDIUse=1 WtCom= 1.00D+00 WtEn= 0.00D+00
 Coeff-Com: -0.189D-05 0.348D-05 0.187D-04 0.358D-04-0.953D-04-0.350D-03
 Coeff-Com: -0.215D-03 0.253D-02 0.139D-01-0.108D-01-0.417D+00 0.141D+01
 Coeff:     -0.189D-05 0.348D-05 0.187D-04 0.358D-04-0.953D-04-0.350D-03
 Coeff:     -0.215D-03 0.253D-02 0.139D-01-0.108D-01-0.417D+00 0.141D+01
 Gap=     0.162 Goal=   None    Shift=    0.000
 Gap=     0.168 Goal=   None    Shift=    0.000
 RMSDP=1.52D-08 MaxDP=3.77D-07 DE=-9.66D-12 OVMax= 2.57D-06

 Cycle  13  Pass 1  IDiag  1:
 RMSU=  1.52D-09    CP:  9.26D-01  1.19D+00  9.64D-01  1.02D+00  1.20D+00
                    CP:  1.07D+00  1.29D+00  9.87D-01  1.07D+00  1.49D+00
                    CP:  1.97D+00  1.53D+00
 E= -153.411363899640     Delta-E=       -0.000000000000 Rises=F Damp=F
 DIIS: error= 7.07D-09 at cycle  13 NSaved=  13.
 NSaved=13 IEnMin=13 EnMin= -153.411363899640     IErMin=13 ErrMin= 7.07D-09
 ErrMax= 7.07D-09  0.00D+00 EMaxC= 1.00D-01 BMatC= 9.65D-15 BMatP= 4.59D-13
 IDIUse=1 WtCom= 1.00D+00 WtEn= 0.00D+00
 Coeff-Com:  0.946D-07-0.300D-06-0.222D-06-0.513D-06 0.128D-04 0.234D-04
 Coeff-Com: -0.140D-03-0.507D-03 0.567D-03 0.149D-01 0.148D-01-0.258D+00
 Coeff-Com:  0.123D+01
 Coeff:      0.946D-07-0.300D-06-0.222D-06-0.513D-06 0.128D-04 0.234D-04
 Coeff:     -0.140D-03-0.507D-03 0.567D-03 0.149D-01 0.148D-01-0.258D+00
 Coeff:      0.123D+01
 Gap=     0.162 Goal=   None    Shift=    0.000
 Gap=     0.168 Goal=   None    Shift=    0.000
 RMSDP=1.83D-09 MaxDP=4.47D-08 DE=-3.98D-13 OVMax= 2.95D-07

 SCF Done:  E(UB3LYP) =  -153.411363900     A.U. after   13 cycles
            NFock= 13  Conv=0.18D-08     -V/T= 2.0045
 <Sx>= 0.0000 <Sy>= 0.0000 <Sz>= 1.0000 <S**2>= 2.0167 S= 1.0056
 <L.S>= 0.000000000000E+00
 KE= 1.527291037154D+02 PE=-5.290483254070D+02 EE= 1.361293912187D+02
 Annihilation of the first spin contaminant:
 S**2 before annihilation     2.0167,   after     2.0001
 Leave Link  502 at Tue Jul 19 03:35:15 2016, MaxMem=    33554432 cpu:        71.1
 (Enter /home/proyectos/fulerenos/M3C-v2.0/M3C-deps_CCC/g09-AM64L-G09RevC.01/l801.exe)
 DoSCS=F DFT=T ScalE2(SS,OS)=  1.000000  1.000000
 Range of M.O.s used for correlation:     1   176
 NBasis=   176 NAE=    14 NBE=    12 NFC=     0 NFV=     0
 NROrb=    176 NOA=    14 NOB=    12 NVA=   162 NVB=   164

 **** Warning!!: The largest alpha MO coefficient is  0.63765336D+02


 **** Warning!!: The largest beta MO coefficient is  0.64376820D+02

 Leave Link  801 at Tue Jul 19 03:35:15 2016, MaxMem=    33554432 cpu:         0.1
 (Enter /home/proyectos/fulerenos/M3C-v2.0/M3C-deps_CCC/g09-AM64L-G09RevC.01/l1101.exe)
 Using compressed storage, NAtomX=     6.
 Will process      7 centers per pass.
 Leave Link 1101 at Tue Jul 19 03:35:15 2016, MaxMem=    33554432 cpu:         0.4
 (Enter /home/proyectos/fulerenos/M3C-v2.0/M3C-deps_CCC/g09-AM64L-G09RevC.01/l1102.exe)
 Symmetrizing basis deriv contribution to polar:
 IMax=3 JMax=2 DiffMx= 0.00D+00
 Leave Link 1102 at Tue Jul 19 03:35:15 2016, MaxMem=    33554432 cpu:         0.1
 (Enter /home/proyectos/fulerenos/M3C-v2.0/M3C-deps_CCC/g09-AM64L-G09RevC.01/l1110.exe)
 Forming Gx(P) for the SCF density, NAtomX=     6.
 Integral derivatives from FoFJK, PRISM(SPDF).
 Do as many integral derivatives as possible in FoFJK.
 G2DrvN: MDV=      33554280.
 G2DrvN: will do     7 centers at a time, making    1 passes.
 Calling FoFCou, ICntrl=  3107 FMM=F I1Cent=   0 AccDes= 0.00D+00.
 FoFJK:  IHMeth= 1 ICntrl=    3107 DoSepK=F KAlg= 0 I1Cent=   0 FoldK=F
 IRaf=         0 NMat=   1 IRICut=       1 DoRegI=T DoRafI=F ISym2E= 1.
 FoFCou: FMM=F IPFlag=           0 FMFlag=      100000 FMFlg1=           0
         NFxFlg=           0 DoJE=F BraDBF=F KetDBF=F FulRan=T
         wScrn=  0.000000 ICntrl=    3107 IOpCl=  1 I1Cent=           0 NGrid=           0
         NMat0=    1 NMatS0=      1 NMatT0=    0 NMatD0=    1 NMtDS0=    0 NMtDT0=    0
 Petite list used in FoFCou.
 End of G2Drv F.D. properties file   721 does not exist.
 End of G2Drv F.D. properties file   722 does not exist.
 End of G2Drv F.D. properties file   788 does not exist.
 Leave Link 1110 at Tue Jul 19 03:36:17 2016, MaxMem=    33554432 cpu:        61.1
 (Enter /home/proyectos/fulerenos/M3C-v2.0/M3C-deps_CCC/g09-AM64L-G09RevC.01/l1002.exe)
 Minotr:  UHF open shell wavefunction.
          IDoAtm=111111
          Direct CPHF calculation.
          Differentiating once with respect to electric field.
                with respect to dipole field.
          Differentiating once with respect to nuclear coordinates.
          Using symmetry in CPHF.
          Requested convergence is 1.0D-08 RMS, and 1.0D-07 maximum.
          Secondary convergence is 1.0D-12 RMS, and 1.0D-12 maximum.
          NewPWx=T KeepS1=F KeepF1=F KeepIn=T MapXYZ=F SortEE=F KeepMc=T.
          MDV=      33554016 using IRadAn=       2.
 Generate precomputed XC quadrature information.
          Solving linear equations simultaneously, MaxMat=       0.
 FoFJK:  IHMeth= 1 ICntrl=       0 DoSepK=F KAlg= 0 I1Cent=   0 FoldK=F
 IRaf= 990000000 NMat=  12 IRICut=      30 DoRegI=T DoRafI=T ISym2E= 2.
 FoFCou: FMM=F IPFlag=           0 FMFlag=      100000 FMFlg1=           0
         NFxFlg=           0 DoJE=F BraDBF=F KetDBF=F FulRan=T
         wScrn=  0.000000 ICntrl=       0 IOpCl=  1 I1Cent=           0 NGrid=           0
         NMat0=   12 NMatS0=     12 NMatT0=    0 NMatD0=   12 NMtDS0=    0 NMtDT0=    0
 Integrals replicated using symmetry in FoFCou.
          There are    12 degrees of freedom in the 1st order CPHF.  IDoFFX=4 NUNeed=    12.
     12 vectors produced by pass  0 Test12= 3.53D-14 8.33D-09 XBig12= 1.99D+02 8.05D+00.
 AX will form    12 AO Fock derivatives at one time.
     12 vectors produced by pass  1 Test12= 3.53D-14 8.33D-09 XBig12= 1.68D+02 4.47D+00.
     12 vectors produced by pass  2 Test12= 3.53D-14 8.33D-09 XBig12= 6.51D+00 1.08D+00.
     12 vectors produced by pass  3 Test12= 3.53D-14 8.33D-09 XBig12= 2.86D-01 9.97D-02.
     12 vectors produced by pass  4 Test12= 3.53D-14 8.33D-09 XBig12= 7.45D-03 2.11D-02.
     12 vectors produced by pass  5 Test12= 3.53D-14 8.33D-09 XBig12= 1.05D-04 2.82D-03.
     12 vectors produced by pass  6 Test12= 3.53D-14 8.33D-09 XBig12= 9.30D-07 1.67D-04.
     12 vectors produced by pass  7 Test12= 3.53D-14 8.33D-09 XBig12= 7.47D-09 1.66D-05.
      4 vectors produced by pass  8 Test12= 3.53D-14 8.33D-09 XBig12= 6.15D-11 1.06D-06.
      3 vectors produced by pass  9 Test12= 3.53D-14 8.33D-09 XBig12= 4.37D-13 1.15D-07.
      2 vectors produced by pass 10 Test12= 3.53D-14 8.33D-09 XBig12= 3.79D-14 7.54D-08.
 InvSVY:  IOpt=1 It=  1 EMax= 5.33D-15
 Solved reduced A of dimension   105 with    12 vectors.
 FullF1:  Do perturbations    1 to    12.
 Isotropic polarizability for W=    0.000000       44.61 Bohr**3.
 End of Minotr F.D. properties file   721 does not exist.
 End of Minotr F.D. properties file   722 does not exist.
 End of Minotr F.D. properties file   788 does not exist.
 Leave Link 1002 at Tue Jul 19 03:44:48 2016, MaxMem=    33554432 cpu:       508.0
 (Enter /home/proyectos/fulerenos/M3C-v2.0/M3C-deps_CCC/g09-AM64L-G09RevC.01/l601.exe)
 Copying SCF densities to generalized density rwf, IOpCl= 1 IROHF=0.

 **********************************************************************

            Population analysis using the SCF density.

 **********************************************************************

 Orbital symmetries:
 Alpha Orbitals:
       Occupied  (A1) (B1) (B2) (A1) (A1) (B2) (B1) (A1) (B2) (A1)
                 (A2) (A1) (B2) (B1)
       Virtual   (B1) (A1) (A1) (B2) (B1) (A1) (A1) (A2) (B2) (A1)
                 (B1) (B2) (A1) (B2) (B1) (A1) (A2) (B2) (B1) (A1)
                 (A1) (B1) (B2) (A2) (B2) (A1) (A1) (A2) (A1) (B2)
                 (A2) (B2) (B1) (A1) (B2) (B1) (B1) (A1) (B1) (A1)
                 (B1) (A1) (B2) (A1) (A2) (A2) (B2) (B2) (B1) (A1)
                 (B2) (B1) (A1) (A1) (A2) (B2) (A2) (B1) (A1) (A1)
                 (B2) (A1) (A2) (B2) (A1) (B2) (B1) (A1) (B1) (A2)
                 (B2) (A1) (B1) (B2) (A1) (A2) (A1) (B1) (B2) (B1)
                 (B1) (B2) (A2) (A1) (B2) (A1) (B1) (A1) (A2) (B2)
                 (A1) (B2) (A1) (A2) (B1) (B2) (B1) (A1) (A2) (A1)
                 (B2) (B2) (A1) (A1) (B1) (A2) (B2) (B1) (A1) (A2)
                 (B2) (B1) (A1) (A2) (A1) (B1) (B2) (B1) (A1) (B2)
                 (A2) (A1) (B1) (A1) (A2) (B2) (B1) (B2) (B2) (B1)
                 (A1) (A1) (B1) (B2) (A2) (A2) (B2) (A1) (A2) (A1)
                 (B2) (A1) (B1) (B2) (B1) (A1) (A1) (B1) (A2) (B2)
                 (A1) (B2) (B1) (B2) (B1) (A2) (A1) (A2) (A1) (A1)
                 (B1) (B2)
 Beta  Orbitals:
       Occupied  (A1) (B1) (B2) (A1) (A1) (B2) (B1) (A1) (B2) (A2)
                 (A1) (A1)
       Virtual   (B2) (B1) (B1) (A1) (B2) (A1) (B1) (A1) (A2) (A1)
                 (B2) (A1) (B2) (B1) (B2) (B1) (A1) (A1) (A2) (B2)
                 (B1) (A1) (A1) (B1) (B2) (A2) (B2) (A1) (A1) (A2)
                 (A1) (A2) (B2) (B2) (B1) (A1) (B1) (B2) (B1) (A1)
                 (B1) (A1) (B1) (B2) (A1) (A1) (A2) (A2) (B2) (B2)
                 (B1) (A1) (B2) (A1) (B1) (A1) (A2) (B2) (A2) (B1)
                 (A1) (A1) (B2) (A1) (A2) (B2) (A1) (B1) (B2) (A1)
                 (B1) (A2) (B2) (A1) (B2) (B1) (A1) (A2) (B1) (A1)
                 (B2) (B1) (B1) (B2) (A2) (A1) (B2) (A1) (B1) (A2)
                 (A1) (B2) (A1) (B2) (A1) (A2) (B1) (B2) (A1) (B1)
                 (A2) (A1) (B2) (B2) (A1) (A1) (B1) (A2) (B2) (B1)
                 (A1) (A2) (B2) (B1) (A1) (A2) (B1) (A1) (B2) (B1)
                 (A1) (B2) (A2) (A1) (B1) (A1) (A2) (B2) (B1) (B2)
                 (B1) (B2) (A1) (A1) (B1) (B2) (A2) (A2) (B2) (A1)
                 (A2) (A1) (B2) (A1) (B1) (B1) (B2) (A1) (A1) (B1)
                 (A2) (B2) (A1) (B2) (B1) (B2) (B1) (A2) (A1) (A2)
                 (A1) (A1) (B1) (B2)
 The electronic state is 3-A2.
 Alpha  occ. eigenvalues --  -10.24088 -10.24084 -10.23545 -10.23535  -0.96397
 Alpha  occ. eigenvalues --   -0.71099  -0.59071  -0.57389  -0.45185  -0.44177
 Alpha  occ. eigenvalues --   -0.42741  -0.31727  -0.23996  -0.21363
 Alpha virt. eigenvalues --   -0.05157  -0.00463   0.00420   0.00990   0.03783
 Alpha virt. eigenvalues --    0.04561   0.06908   0.07532   0.08814   0.09515
 Alpha virt. eigenvalues --    0.10260   0.10674   0.12163   0.12191   0.12505
 Alpha virt. eigenvalues --    0.14208   0.15168   0.15443   0.16708   0.16960
 Alpha virt. eigenvalues --    0.20631   0.21816   0.27094   0.27590   0.29346
 Alpha virt. eigenvalues --    0.32325   0.36526   0.37513   0.39531   0.40686
 Alpha virt. eigenvalues --    0.41132   0.42518   0.44949   0.47750   0.49758
 Alpha virt. eigenvalues --    0.49842   0.50886   0.51441   0.52917   0.53496
 Alpha virt. eigenvalues --    0.56936   0.58124   0.58676   0.60117   0.64586
 Alpha virt. eigenvalues --    0.65954   0.66571   0.68986   0.71284   0.72017
 Alpha virt. eigenvalues --    0.72676   0.74389   0.74518   0.83771   0.86311
 Alpha virt. eigenvalues --    0.86793   0.95571   0.97109   0.99280   0.99694
 Alpha virt. eigenvalues --    1.06803   1.13115   1.15610   1.16899   1.19253
 Alpha virt. eigenvalues --    1.23299   1.24221   1.29140   1.33391   1.34570
 Alpha virt. eigenvalues --    1.38016   1.38882   1.48880   1.49731   1.52736
 Alpha virt. eigenvalues --    1.71522   1.75924   1.76344   1.77854   1.88511
 Alpha virt. eigenvalues --    1.91725   1.94082   1.98023   2.02364   2.09177
 Alpha virt. eigenvalues --    2.11573   2.24058   2.29931   2.30144   2.35499
 Alpha virt. eigenvalues --    2.51261   2.63413   2.64217   2.72751   2.73227
 Alpha virt. eigenvalues --    2.76378   2.80558   2.80700   2.85504   2.86065
 Alpha virt. eigenvalues --    2.89725   2.95130   2.97265   2.98219   3.01703
 Alpha virt. eigenvalues --    3.02074   3.09304   3.16574   3.19376   3.29162
 Alpha virt. eigenvalues --    3.36479   3.40612   3.46665   3.50824   3.59583
 Alpha virt. eigenvalues --    3.59860   3.63672   3.65040   3.74841   3.87340
 Alpha virt. eigenvalues --    3.93730   4.06113   4.09519   4.11003   4.20258
 Alpha virt. eigenvalues --    4.23726   4.23776   4.35801   4.52998   4.53499
 Alpha virt. eigenvalues --    4.57823   4.70450   4.75211   4.77222   4.83353
 Alpha virt. eigenvalues --    5.85284   5.97431   6.16639   6.98744   7.00125
 Alpha virt. eigenvalues --    7.06190   7.08781   7.09370   7.15504   7.16295
 Alpha virt. eigenvalues --    7.25372   7.35527   7.39237   7.47589   7.50853
 Alpha virt. eigenvalues --    7.61081   7.76353   7.85400   8.06269   8.12582
 Alpha virt. eigenvalues --    8.14028   8.27464   8.91479  23.87570  25.05870
 Alpha virt. eigenvalues --   25.14441  25.17329
  Beta  occ. eigenvalues --  -10.23422 -10.23416 -10.22529 -10.22523  -0.94366
  Beta  occ. eigenvalues --   -0.68324  -0.56580  -0.56002  -0.44384  -0.41076
  Beta  occ. eigenvalues --   -0.38099  -0.28518
  Beta virt. eigenvalues --   -0.11675  -0.09536  -0.04487   0.00170   0.01070
  Beta virt. eigenvalues --    0.03276   0.04024   0.05146   0.07536   0.07936
  Beta virt. eigenvalues --    0.09585   0.10558   0.10807   0.10818   0.12404
  Beta virt. eigenvalues --    0.12599   0.12898   0.14901   0.15402   0.15818
  Beta virt. eigenvalues --    0.16992   0.17266   0.20980   0.22906   0.28219
  Beta virt. eigenvalues --    0.28919   0.29883   0.33267   0.37750   0.38840
  Beta virt. eigenvalues --    0.40236   0.41780   0.41898   0.44071   0.46530
  Beta virt. eigenvalues --    0.48504   0.51265   0.51438   0.51559   0.52666
  Beta virt. eigenvalues --    0.53881   0.54880   0.58154   0.59555   0.60122
  Beta virt. eigenvalues --    0.61801   0.65556   0.66708   0.67110   0.70063
  Beta virt. eigenvalues --    0.71683   0.73257   0.73879   0.75411   0.75594
  Beta virt. eigenvalues --    0.84676   0.87257   0.87511   0.96086   0.98170
  Beta virt. eigenvalues --    0.99962   1.00485   1.07668   1.14064   1.15819
  Beta virt. eigenvalues --    1.17722   1.20420   1.24447   1.24655   1.31099
  Beta virt. eigenvalues --    1.34883   1.37090   1.40184   1.40619   1.50887
  Beta virt. eigenvalues --    1.52696   1.53899   1.72954   1.77511   1.78797
  Beta virt. eigenvalues --    1.80962   1.91292   1.94357   1.96319   2.01465
  Beta virt. eigenvalues --    2.04741   2.11011   2.14795   2.25467   2.31634
  Beta virt. eigenvalues --    2.32580   2.37558   2.53097   2.64405   2.65720
  Beta virt. eigenvalues --    2.73855   2.75626   2.80135   2.82493   2.83990
  Beta virt. eigenvalues --    2.87990   2.90150   2.92742   2.97938   2.99217
  Beta virt. eigenvalues --    3.00935   3.03450   3.03865   3.11737   3.19303
  Beta virt. eigenvalues --    3.21077   3.32137   3.38258   3.43374   3.48552
  Beta virt. eigenvalues --    3.51968   3.61386   3.61603   3.64930   3.66062
  Beta virt. eigenvalues --    3.76808   3.88372   3.94279   4.07468   4.11315
  Beta virt. eigenvalues --    4.13222   4.22672   4.25116   4.25785   4.37809
  Beta virt. eigenvalues --    4.54263   4.54438   4.59613   4.70983   4.76222
  Beta virt. eigenvalues --    4.78154   4.84333   5.86810   5.97971   6.17901
  Beta virt. eigenvalues --    7.02276   7.02932   7.08630   7.13083   7.13687
  Beta virt. eigenvalues --    7.18778   7.20630   7.26849   7.39273   7.43308
  Beta virt. eigenvalues --    7.50125   7.54278   7.64658   7.77513   7.86273
  Beta virt. eigenvalues --    8.08389   8.14072   8.15660   8.29181   8.93048
  Beta virt. eigenvalues --   23.88528  25.06842  25.15234  25.18523
          Condensed to atoms (all electrons):
               1          2          3          4          5          6
     1  C    6.239522  -0.426662   0.207319  -0.426662   0.475253   0.055755
     2  C   -0.426662   7.224619  -0.426662  -0.054126  -0.113165  -0.113165
     3  C    0.207319  -0.426662   6.239522  -0.426662   0.055755   0.475253
     4  C   -0.426662  -0.054126  -0.426662   7.224619  -0.113165  -0.113165
     5  H    0.475253  -0.113165   0.055755  -0.113165   0.478327   0.001628
     6  H    0.055755  -0.113165   0.475253  -0.113165   0.001628   0.478327
          Atomic-Atomic Spin Densities.
               1          2          3          4          5          6
     1  C    0.776577  -0.006639  -0.084506  -0.006639  -0.012124   0.000018
     2  C   -0.006639   0.531059  -0.006639  -0.188813   0.006539   0.006539
     3  C   -0.084506  -0.006639   0.776577  -0.006639   0.000018  -0.012124
     4  C   -0.006639  -0.188813  -0.006639   0.531059   0.006539   0.006539
     5  H   -0.012124   0.006539   0.000018   0.006539  -0.008166  -0.001537
     6  H    0.000018   0.006539  -0.012124   0.006539  -0.001537  -0.008166
 Mulliken charges and spin densities:
               1          2
     1  C   -0.124525   0.666687
     2  C   -0.090841   0.342045
     3  C   -0.124525   0.666687
     4  C   -0.090841   0.342045
     5  H    0.215366  -0.008732
     6  H    0.215366  -0.008732
 Sum of Mulliken charges =  -0.00000   2.00000
 Mulliken charges and spin densities with hydrogens summed into heavy atoms:
               1          2
     1  C    0.090841   0.657955
     2  C   -0.090841   0.342045
     3  C    0.090841   0.657955
     4  C   -0.090841   0.342045
 APT charges:
               1
     1  C    0.043040
     2  C   -0.161747
     3  C    0.043040
     4  C   -0.161747
     5  H    0.118707
     6  H    0.118707
 Sum of APT charges =   0.00000
 APT charges with hydrogens summed into heavy atoms:
               1
     1  C    0.161747
     2  C   -0.161747
     3  C    0.161747
     4  C   -0.161747
 Electronic spatial extent (au):  <R**2>=            169.7613
 Charge=              0.0000 electrons
 Dipole moment (field-independent basis, Debye):
    X=              0.0000    Y=             -0.0000    Z=             -0.6197  Tot=              0.6197
 Quadrupole moment (field-independent basis, Debye-Ang):
   XX=            -27.9136   YY=            -17.2761   ZZ=            -24.9260
   XY=              0.0000   XZ=             -0.0000   YZ=              0.0000
 Traceless Quadrupole moment (field-independent basis, Debye-Ang):
   XX=             -4.5417   YY=              6.0958   ZZ=             -1.5541
   XY=              0.0000   XZ=             -0.0000   YZ=              0.0000
 Octapole moment (field-independent basis, Debye-Ang**2):
  XXX=             -0.0000  YYY=             -0.0000  ZZZ=             -1.1908  XYY=             -0.0000
  XXY=              0.0000  XXZ=             -2.7373  XZZ=             -0.0000  YZZ=              0.0000
  YYZ=             -0.7099  XYZ=             -0.0000
 Hexadecapole moment (field-independent basis, Debye-Ang**3):
 XXXX=           -100.9266 YYYY=            -98.5335 ZZZZ=            -33.2256 XXXY=             -0.0000
 XXXZ=             -0.0000 YYYX=             -0.0000 YYYZ=              0.0000 ZZZX=             -0.0000
 ZZZY=             -0.0000 XXYY=            -38.4672 XXZZ=            -22.2845 YYZZ=            -29.8380
 XXYZ=             -0.0000 YYXZ=             -0.0000 ZZXY=             -0.0000
 N-N= 8.677846657322D+01 E-N=-5.290483253654D+02  KE= 1.527291037154D+02
 Symmetry A1   KE= 7.407452703189D+01
 Symmetry A2   KE= 2.809702292072D+00
 Symmetry B1   KE= 3.675244880518D+01
 Symmetry B2   KE= 3.909242558626D+01
  Exact polarizability:  53.022  -0.000  50.599   0.000  -0.000  30.216
 Approx polarizability: 109.454  -0.000  81.199  -0.000  -0.000  43.174
                          Isotropic Fermi Contact Couplings
        Atom                 a.u.       MegaHertz       Gauss      10(-4) cm-1
     1  C(13)              0.08039      45.18959      16.12477      15.07362
     2  C(13)              0.07736      43.48573      15.51679      14.50528
     3  C(13)              0.08039      45.18959      16.12477      15.07362
     4  C(13)              0.07736      43.48573      15.51679      14.50528
     5  H(1)              -0.00744     -16.62469      -5.93210      -5.54540
     6  H(1)              -0.00744     -16.62469      -5.93210      -5.54540
 --------------------------------------------------------
       Center         ----  Spin Dipole Couplings  ----
                      3XX-RR        3YY-RR        3ZZ-RR
 --------------------------------------------------------
     1   Atom       -0.223642     -0.374044      0.597686
     2   Atom       -0.041444     -0.302027      0.343471
     3   Atom       -0.223642     -0.374044      0.597686
     4   Atom       -0.041444     -0.302027      0.343471
     5   Atom       -0.050610      0.063650     -0.013040
     6   Atom       -0.050610      0.063650     -0.013040
 --------------------------------------------------------
                        XY            XZ            YZ
 --------------------------------------------------------
     1   Atom        0.000000      0.000000      0.145300
     2   Atom        0.000000     -0.493783     -0.000000
     3   Atom        0.000000      0.000000     -0.145300
     4   Atom        0.000000      0.493783     -0.000000
     5   Atom       -0.000000      0.000000     -0.001343
     6   Atom        0.000000     -0.000000      0.001343
 --------------------------------------------------------


 ---------------------------------------------------------------------------------
              Anisotropic Spin Dipole Couplings in Principal Axis System
 ---------------------------------------------------------------------------------

       Atom             a.u.   MegaHertz   Gauss  10(-4) cm-1        Axes

              Baa    -0.3953   -53.046   -18.928   -17.694  0.0000  0.9895 -0.1448
     1 C(13)  Bbb    -0.2236   -30.011   -10.709   -10.010  1.0000 -0.0000  0.0000
              Bcc     0.6189    83.057    29.637    27.705  0.0000  0.1448  0.9895
 
              Baa    -0.3789   -50.851   -18.145   -16.962  0.8256  0.0000  0.5643
     2 C(13)  Bbb    -0.3020   -40.529   -14.462   -13.519 -0.0000  1.0000 -0.0000
              Bcc     0.6810    91.381    32.607    30.481 -0.5643 -0.0000  0.8256
 
              Baa    -0.3953   -53.046   -18.928   -17.694 -0.0000  0.9895  0.1448
     3 C(13)  Bbb    -0.2236   -30.011   -10.709   -10.010  1.0000  0.0000  0.0000
              Bcc     0.6189    83.057    29.637    27.705  0.0000 -0.1448  0.9895
 
              Baa    -0.3789   -50.851   -18.145   -16.962  0.8256 -0.0000 -0.5643
     4 C(13)  Bbb    -0.3020   -40.529   -14.462   -13.519  0.0000  1.0000 -0.0000
              Bcc     0.6810    91.381    32.607    30.481  0.5643 -0.0000  0.8256
 
              Baa    -0.0506   -27.003    -9.635    -9.007  1.0000  0.0000 -0.0000
     5 H(1)   Bbb    -0.0131    -6.970    -2.487    -2.325  0.0000  0.0175  0.9998
              Bcc     0.0637    33.973    12.122    11.332 -0.0000  0.9998 -0.0175
 
              Baa    -0.0506   -27.003    -9.635    -9.007  1.0000 -0.0000  0.0000
     6 H(1)   Bbb    -0.0131    -6.970    -2.487    -2.325 -0.0000 -0.0175  0.9998
              Bcc     0.0637    33.973    12.122    11.332  0.0000  0.9998  0.0175
 

 ---------------------------------------------------------------------------------

 No NMR shielding tensors so no spin-rotation constants.
 Leave Link  601 at Tue Jul 19 03:44:49 2016, MaxMem=    33554432 cpu:         0.6
 (Enter /home/proyectos/fulerenos/M3C-v2.0/M3C-deps_CCC/g09-AM64L-G09RevC.01/l701.exe)
 Compute integral second derivatives.
 ... and contract with generalized density number  0.
 Leave Link  701 at Tue Jul 19 03:44:50 2016, MaxMem=    33554432 cpu:         0.6
 (Enter /home/proyectos/fulerenos/M3C-v2.0/M3C-deps_CCC/g09-AM64L-G09RevC.01/l702.exe)
 L702 exits ... SP integral derivatives will be done elsewhere.
 Leave Link  702 at Tue Jul 19 03:44:50 2016, MaxMem=    33554432 cpu:         0.1
 (Enter /home/proyectos/fulerenos/M3C-v2.0/M3C-deps_CCC/g09-AM64L-G09RevC.01/l703.exe)
 Compute integral second derivatives, UseDBF=F ICtDFT=           0.
 Integral derivatives from FoFJK, PRISM(SPDF).
 Calling FoFJK, ICntrl=    100127 FMM=F ISym2X=1 I1Cent= 0 IOpClX= 1 NMat=1 NMatS=1 NMatT=0.
 FoFJK:  IHMeth= 1 ICntrl=  100127 DoSepK=F KAlg= 0 I1Cent=   0 FoldK=F
 IRaf=         0 NMat=   1 IRICut=       1 DoRegI=T DoRafI=F ISym2E= 1.
 FoFCou: FMM=F IPFlag=           0 FMFlag=      100000 FMFlg1=         800
         NFxFlg=           0 DoJE=F BraDBF=F KetDBF=F FulRan=T
         wScrn=  0.000000 ICntrl=  100127 IOpCl=  1 I1Cent=           0 NGrid=           0
         NMat0=    1 NMatS0=      1 NMatT0=    0 NMatD0=    1 NMtDS0=    0 NMtDT0=    0
 Petite list used in FoFCou.
 Leave Link  703 at Tue Jul 19 03:47:05 2016, MaxMem=    33554432 cpu:       134.5
 (Enter /home/proyectos/fulerenos/M3C-v2.0/M3C-deps_CCC/g09-AM64L-G09RevC.01/l716.exe)
 Dipole        =-1.18972006D-14-3.42642581D-14-2.43823150D-01
 Polarizability= 5.30217583D+01-1.83858656D-07 5.05992068D+01
                 2.36478411D-07-3.64481688D-08 3.02158575D+01
 Full mass-weighted force constant matrix:
 Low frequencies ---   -8.5289   -4.3927   -0.0009    0.0009    0.0013    9.3185
 Low frequencies ---  582.4390  582.6255  660.1304
 Diagonal vibrational polarizability:
        2.7910989       2.5291013       3.2268809
 Harmonic frequencies (cm**-1), IR intensities (KM/Mole), Raman scattering
 activities (A**4/AMU), depolarization ratios for plane and unpolarized
 incident light, reduced masses (AMU), force constants (mDyne/A),
 and normal coordinates:
                      1                      2                      3
                     B2                     A1                     A1
 Frequencies --    582.4390               582.6255               660.1304
 Red. masses --      1.3270                 2.1520                 2.0972
 Frc consts  --      0.2652                 0.4304                 0.5384
 IR Inten    --     31.3308                16.5353                23.1085
  Atom  AN      X      Y      Z        X      Y      Z        X      Y      Z
     1   6     0.00   0.01  -0.12     0.00   0.05   0.13    -0.00   0.05  -0.15
     2   6    -0.00  -0.01   0.00    -0.04  -0.00  -0.18     0.13  -0.00   0.09
     3   6     0.00   0.01   0.12    -0.00  -0.05   0.13     0.00  -0.05  -0.15
     4   6    -0.00  -0.01  -0.00     0.04   0.00  -0.18    -0.13   0.00   0.09
     5   1     0.00  -0.01   0.70     0.00   0.02   0.67     0.00   0.02   0.67
     6   1     0.00  -0.01  -0.70    -0.00  -0.02   0.67    -0.00  -0.02   0.67
                      4                      5                      6
                     A1                     B1                     A2
 Frequencies --    820.4468               837.2011              1040.2927
 Red. masses --      4.9285                 2.4253                 2.4131
 Frc consts  --      1.9546                 1.0015                 1.5386
 IR Inten    --     12.0689                72.6868                 0.0000
  Atom  AN      X      Y      Z        X      Y      Z        X      Y      Z
     1   6     0.00   0.23   0.12    -0.15  -0.00  -0.00    -0.09   0.00   0.00
     2   6     0.32  -0.00  -0.08     0.20   0.00  -0.05     0.00   0.24  -0.00
     3   6    -0.00  -0.23   0.12    -0.15  -0.00   0.00     0.09  -0.00   0.00
     4   6    -0.32   0.00  -0.08     0.20   0.00   0.05    -0.00  -0.24  -0.00
     5   1     0.00   0.25  -0.51    -0.66  -0.00   0.00    -0.66   0.00  -0.00
     6   1    -0.00  -0.25  -0.51    -0.66  -0.00  -0.00     0.66  -0.00  -0.00
                      7                      8                      9
                     A2                     B1                     B2
 Frequencies --   1076.3206              1153.0588              1209.0430
 Red. masses --      1.9587                 1.5973                 7.1043
 Frc consts  --      1.3369                 1.2512                 6.1186
 IR Inten    --      0.0000                 0.0146                 0.8768
  Atom  AN      X      Y      Z        X      Y      Z        X      Y      Z
     1   6    -0.19   0.00   0.00    -0.14  -0.00  -0.00     0.00  -0.35   0.05
     2   6    -0.00   0.09  -0.00     0.08   0.00  -0.03    -0.00   0.39   0.00
     3   6     0.19  -0.00   0.00    -0.14  -0.00   0.00     0.00  -0.35  -0.05
     4   6     0.00  -0.09  -0.00     0.08   0.00   0.03    -0.00   0.39  -0.00
     5   1     0.68   0.00  -0.00     0.69  -0.00   0.00     0.00  -0.41   0.24
     6   1    -0.68  -0.00  -0.00     0.69  -0.00  -0.00     0.00  -0.41  -0.24
                     10                     11                     12
                     A1                     B2                     A1
 Frequencies --   1313.6627              3295.3038              3301.5947
 Red. masses --      6.6974                 1.0952                 1.1061
 Frc consts  --      6.8096                 7.0069                 7.1036
 IR Inten    --      0.3687                11.1030                 0.2705
  Atom  AN      X      Y      Z        X      Y      Z        X      Y      Z
     1   6     0.00   0.41  -0.08     0.00  -0.06  -0.00     0.00  -0.07  -0.00
     2   6    -0.28  -0.00   0.09    -0.00   0.00   0.00     0.00  -0.00  -0.00
     3   6    -0.00  -0.41  -0.08     0.00  -0.06   0.00    -0.00   0.07  -0.00
     4   6     0.28   0.00   0.09    -0.00   0.00  -0.00    -0.00   0.00  -0.00
     5   1     0.00   0.49  -0.06     0.00   0.70   0.03     0.00   0.70   0.03
     6   1    -0.00  -0.49  -0.06     0.00   0.70  -0.03    -0.00  -0.70   0.03

 -------------------
 - Thermochemistry -
 -------------------
 Temperature   298.150 Kelvin.  Pressure   1.00000 Atm.
 Atom     1 has atomic number  6 and mass  12.00000
 Atom     2 has atomic number  6 and mass  12.00000
 Atom     3 has atomic number  6 and mass  12.00000
 Atom     4 has atomic number  6 and mass  12.00000
 Atom     5 has atomic number  1 and mass   1.00783
 Atom     6 has atomic number  1 and mass   1.00783
 Molecular mass:    50.01565 amu.
 Principal axes and moments of inertia in atomic units:
                           1         2         3
     Eigenvalues --    70.85974 134.63791 199.76703
           X            0.00000   1.00000   0.00000
           Y            1.00000  -0.00000   0.00000
           Z           -0.00000  -0.00000   1.00000
 This molecule is an asymmetric top.
 Rotational symmetry number  2.
 Rotational temperatures (Kelvin)      1.22233     0.64331     0.43357
 Rotational constants (GHZ):          25.46920    13.40441     9.03423
 Zero-point vibrational energy      94936.4 (Joules/Mol)
                                   22.69033 (Kcal/Mol)
 Warning -- explicit consideration of   2 degrees of freedom as
           vibrations may cause significant error
 Vibrational temperatures:    838.00   838.27   949.78  1180.44  1204.54
          (Kelvin)           1496.75  1548.58  1658.99  1739.54  1890.07
                             4741.20  4750.25
 
 Zero-point correction=                           0.036159 (Hartree/Particle)
 Thermal correction to Energy=                    0.039708
 Thermal correction to Enthalpy=                  0.040652
 Thermal correction to Gibbs Free Energy=         0.010918
 Sum of electronic and zero-point Energies=           -153.375205
 Sum of electronic and thermal Energies=              -153.371656
 Sum of electronic and thermal Enthalpies=            -153.370712
 Sum of electronic and thermal Free Energies=         -153.400446
 
                     E (Thermal)             CV                S
                      KCal/Mol        Cal/Mol-Kelvin    Cal/Mol-Kelvin
 Total                   24.917             11.431             62.582
 Electronic               0.000              0.000              2.183
 Translational            0.889              2.981             37.653
 Rotational               0.889              2.981             20.793
 Vibrational             23.140              5.469              1.953
 Vibration     1          0.939              1.069              0.481
 Vibration     2          0.939              1.069              0.481
                       Q            Log10(Q)             Ln(Q)
 Total Bot       0.951215D-05         -5.021721        -11.562941
 Total V=0       0.407745D+12         11.610388         26.733907
 Vib (Bot)       0.291865D-16        -16.534818        -38.072826
 Vib (Bot)    1  0.260988D+00         -0.583379         -1.343280
 Vib (Bot)    2  0.260856D+00         -0.583599         -1.343787
 Vib (V=0)       0.125110D+01          0.097291          0.224022
 Vib (V=0)    1  0.106402D+01          0.026948          0.062051
 Vib (V=0)    2  0.106396D+01          0.026923          0.061994
 Electronic      0.300000D+01          0.477121          1.098612
 Translational   0.139032D+08          7.143114         16.447628
 Rotational      0.781379D+04          3.892862          8.963645
 
                                                              b3lyp opt
                                                             IR Spectrum
 
     33                                                                           1   1 1  11                                        
     32                                                                           3   2 1  00       88     6 55                      
     09                                                                           1   0 5  74       32     6 88                      
     25                                                                           4   9 3  60       70     0 32                      
 
     XX                                                                           X   X             XX     X XX                      
      X                                                                                             XX     X XX                      
      X                                                                                             XX     X XX                      
                                                                                                    X      X XX                      
                                                                                                    X      X XX                      
                                                                                                    X      X  X                      
                                                                                                    X         X                      
                                                                                                    X         X                      
                                                                                                    X         X                      
                                                                                                    X                                
                                                                                                    X                                
                                                                                                    X                                
                                                                                                    X                                
                                                                                                    X                                
                                                                                                    X                                
                                                                                                    X                                
                                                                                                    X                                
                                                                                                    X                                
                                                                                                    X                                
                                                                                                    X                                
 
 ***** Axes restored to original set *****
 -------------------------------------------------------------------
 Center     Atomic                   Forces (Hartrees/Bohr)
 Number     Number              X              Y              Z
 -------------------------------------------------------------------
      1        6          -0.000071645    0.000000002    0.000029781
      2        6           0.000000005    0.000030118   -0.000007470
      3        6           0.000071614   -0.000000006    0.000029855
      4        6           0.000000002   -0.000030118   -0.000007473
      5        1           0.000035800   -0.000000001   -0.000022328
      6        1          -0.000035777    0.000000003   -0.000022365
 -------------------------------------------------------------------
 Cartesian Forces:  Max     0.000071645 RMS     0.000031204
 Z-matrix is all fixed cartesians, so copy forces.
 Force constants in Cartesian coordinates: 
                1             2             3             4             5 
      1  0.870091D+00
      2 -0.371249D-04  0.253303D+00
      3  0.491321D-01  0.747354D-05  0.819613D-01
      4 -0.166408D+00 -0.104297D+00 -0.240099D-01  0.332945D+00
      5 -0.115195D+00 -0.976011D-01 -0.360216D-01 -0.334999D-04  0.301761D+00
      6 -0.421813D-01 -0.294456D-01 -0.523634D-01  0.142328D-03  0.620911D-01
      7 -0.162521D+00  0.902426D-05 -0.990612D-02 -0.166451D+00  0.115239D+00
      8  0.785712D-05 -0.103789D-01 -0.221703D-05  0.104335D+00 -0.976254D-01
      9  0.970287D-02 -0.329938D-05  0.360558D-01  0.238891D-01 -0.359064D-01
     10 -0.166383D+00  0.104308D+00 -0.239935D-01  0.537755D-02 -0.105698D-04
     11  0.115208D+00 -0.976332D-01  0.360189D-01 -0.272795D-05 -0.114268D+00
     12 -0.421644D-01  0.294449D-01 -0.523556D-01 -0.201864D-04  0.765206D-02
     13 -0.371638D+00  0.175690D-04  0.774728D-02 -0.272979D-02  0.403544D-02
     14  0.164210D-04 -0.464739D-01 -0.228294D-05 -0.158317D-01  0.386778D-02
     15  0.269890D-01 -0.334976D-05 -0.153402D-01 -0.821233D-02  0.109494D-02
     16 -0.314120D-02  0.000000D+00  0.103010D-02 -0.273411D-02 -0.403583D-02
     17  0.000000D+00 -0.121621D-02  0.000000D+00  0.158302D-01  0.386647D-02
     18 -0.147836D-02  0.000000D+00  0.204206D-02  0.821098D-02  0.108990D-02
                6             7             8             9            10 
      6  0.615794D-01
      7  0.420613D-01  0.870190D+00
      8 -0.293435D-01 -0.313297D-04  0.253303D+00
      9 -0.522958D-01 -0.483254D-01  0.128846D-04  0.818616D-01
     10 -0.210605D-04 -0.166475D+00 -0.104330D+00  0.238807D-01  0.332945D+00
     11 -0.767110D-02 -0.115237D+00 -0.976088D-01  0.358983D-01  0.300386D-04
     12  0.456751D-01  0.420508D-01  0.293335D-01 -0.522880D-01  0.135433D-03
     13  0.271052D-02 -0.314165D-02  0.000000D+00 -0.103541D-02 -0.272848D-02
     14  0.217631D-02  0.000000D+00 -0.121621D-02  0.000000D+00  0.158334D-01
     15 -0.130052D-02  0.147305D-02  0.000000D+00  0.204252D-02 -0.821057D-02
     16 -0.271175D-02 -0.371602D+00  0.185110D-04 -0.811192D-02 -0.273542D-02
     17  0.219281D-02  0.196535D-04 -0.464739D-01 -0.140092D-05 -0.158304D-01
     18 -0.129489D-02 -0.273537D-01  0.000000D+00 -0.153761D-01  0.820898D-02
               11            12            13            14            15 
     11  0.301775D+00
     12 -0.620626D-01  0.615646D-01
     13 -0.403503D-02  0.270980D-02  0.380277D+00
     14  0.386686D-02 -0.217600D-02 -0.182652D-04  0.378805D-01
     15 -0.109341D-02 -0.130091D-02 -0.120844D-01  0.212681D-05  0.134066D-01
     16  0.403688D-02 -0.271151D-02 -0.395044D-04  0.000000D+00  0.452003D-04
     17  0.386817D-02 -0.219190D-02  0.000000D+00  0.207499D-02  0.000000D+00
     18 -0.109019D-02 -0.129528D-02 -0.477919D-04  0.000000D+00  0.249251D-02
               16            17            18 
     16  0.380252D+00
     17 -0.197247D-04  0.378805D-01
     18  0.124599D-01  0.000000D+00  0.134317D-01
 Leave Link  716 at Tue Jul 19 03:47:05 2016, MaxMem=    33554432 cpu:         0.1
 (Enter /home/proyectos/fulerenos/M3C-v2.0/M3C-deps_CCC/g09-AM64L-G09RevC.01/l103.exe)

 GradGradGradGradGradGradGradGradGradGradGradGradGradGradGradGradGradGrad
 Berny optimization.
 Search for a local minimum.
 Step number   1 out of a maximum of    2
 All quantities printed in internal units (Hartrees-Bohrs-Radians)
 Second derivative matrix not updated -- analytic derivatives used.
 The second derivative matrix:
                          X1        Y1        Z1        X2        Y2
           X1           0.87009
           Y1          -0.00004   0.25330
           Z1           0.04913   0.00001   0.08196
           X2          -0.16641  -0.10430  -0.02401   0.33295
           Y2          -0.11519  -0.09760  -0.03602  -0.00003   0.30176
           Z2          -0.04218  -0.02945  -0.05236   0.00014   0.06209
           X3          -0.16252   0.00001  -0.00991  -0.16645   0.11524
           Y3           0.00001  -0.01038  -0.00000   0.10433  -0.09763
           Z3           0.00970  -0.00000   0.03606   0.02389  -0.03591
           X4          -0.16638   0.10431  -0.02399   0.00538  -0.00001
           Y4           0.11521  -0.09763   0.03602  -0.00000  -0.11427
           Z4          -0.04216   0.02944  -0.05236  -0.00002   0.00765
           X5          -0.37164   0.00002   0.00775  -0.00273   0.00404
           Y5           0.00002  -0.04647  -0.00000  -0.01583   0.00387
           Z5           0.02699  -0.00000  -0.01534  -0.00821   0.00109
           X6          -0.00314   0.00000   0.00103  -0.00273  -0.00404
           Y6           0.00000  -0.00122  -0.00000   0.01583   0.00387
           Z6          -0.00148  -0.00000   0.00204   0.00821   0.00109
                          Z2        X3        Y3        Z3        X4
           Z2           0.06158
           X3           0.04206   0.87019
           Y3          -0.02934  -0.00003   0.25330
           Z3          -0.05230  -0.04833   0.00001   0.08186
           X4          -0.00002  -0.16648  -0.10433   0.02388   0.33295
           Y4          -0.00767  -0.11524  -0.09761   0.03590   0.00003
           Z4           0.04568   0.04205   0.02933  -0.05229   0.00014
           X5           0.00271  -0.00314   0.00000  -0.00104  -0.00273
           Y5           0.00218   0.00000  -0.00122  -0.00000   0.01583
           Z5          -0.00130   0.00147  -0.00000   0.00204  -0.00821
           X6          -0.00271  -0.37160   0.00002  -0.00811  -0.00274
           Y6           0.00219   0.00002  -0.04647  -0.00000  -0.01583
           Z6          -0.00129  -0.02735  -0.00000  -0.01538   0.00821
                          Y4        Z4        X5        Y5        Z5
           Y4           0.30178
           Z4          -0.06206   0.06156
           X5          -0.00404   0.00271   0.38028
           Y5           0.00387  -0.00218  -0.00002   0.03788
           Z5          -0.00109  -0.00130  -0.01208   0.00000   0.01341
           X6           0.00404  -0.00271  -0.00004   0.00000   0.00005
           Y6           0.00387  -0.00219   0.00000   0.00207  -0.00000
           Z6          -0.00109  -0.00130  -0.00005  -0.00000   0.00249
                          X6        Y6        Z6
           X6           0.38025
           Y6          -0.00002   0.03788
           Z6           0.01246   0.00000   0.01343
 ITU=  0
     Eigenvalues ---    0.01963   0.03999   0.04821   0.09906   0.16966
     Eigenvalues ---    0.18014   0.33917   0.43133   0.43152   0.50672
     Eigenvalues ---    1.03223   1.26680
 Angle between quadratic step and forces=  69.21 degrees.
 ClnCor:  largest displacement from symmetrization is 6.62D-12 for atom     4.
 Linear search not attempted -- first point.
 ClnCor:  largest displacement from symmetrization is 6.22D-15 for atom     6.
 B after Tr=    -0.000000   -0.000000    0.000214
         Rot=    1.000000   -0.000000    0.000000    0.000000 Ang=   0.00 deg.
 Variable       Old X    -DE/DX   Delta X   Delta X   Delta X     New X
                                 (Linear)    (Quad)   (Total)
    X1        2.02749  -0.00007   0.00000  -0.00001  -0.00001   2.02747
    Y1       -0.00013   0.00000   0.00000  -0.00000  -0.00000  -0.00013
    Z1        0.23167   0.00003   0.00000   0.00031   0.00053   0.23219
    X2        0.00004   0.00000   0.00000  -0.00000  -0.00000   0.00004
    Y2       -1.68317   0.00003   0.00000   0.00010   0.00010  -1.68307
    Z2       -0.25425  -0.00001   0.00000   0.00013   0.00034  -0.25390
    X3       -2.02772   0.00007   0.00000   0.00001   0.00001  -2.02770
    Y3        0.00010  -0.00000   0.00000  -0.00000  -0.00000   0.00010
    Z3        0.22959   0.00003   0.00000   0.00031   0.00053   0.23012
    X4        0.00023   0.00000   0.00000  -0.00000  -0.00000   0.00023
    Y4        1.68320  -0.00003   0.00000  -0.00010  -0.00010   1.68309
    Z4       -0.25405  -0.00001   0.00000   0.00013   0.00034  -0.25370
    X5        4.05256   0.00004   0.00000   0.00004   0.00004   4.05259
    Y5       -0.00023  -0.00000   0.00000   0.00000   0.00000  -0.00023
    Z5        0.14318  -0.00002   0.00000  -0.00109  -0.00087   0.14230
    X6       -4.05270  -0.00004   0.00000  -0.00004  -0.00004  -4.05273
    Y6        0.00022   0.00000   0.00000   0.00000   0.00000   0.00022
    Z6        0.13903  -0.00002   0.00000  -0.00109  -0.00087   0.13816
         Item               Value     Threshold  Converged?
 Maximum Force            0.000072     0.000450     YES
 RMS     Force            0.000031     0.000300     YES
 Maximum Displacement     0.000871     0.001800     YES
 RMS     Displacement     0.000360     0.001200     YES
 Predicted change in Energy=-3.795260D-08
 Optimization completed.
    -- Stationary point found.
 GradGradGradGradGradGradGradGradGradGradGradGradGradGradGradGradGradGrad

 Leave Link  103 at Tue Jul 19 03:47:05 2016, MaxMem=    33554432 cpu:         0.0
 (Enter /home/proyectos/fulerenos/M3C-v2.0/M3C-deps_CCC/g09-AM64L-G09RevC.01/l9999.exe)
 1\1\GINC-CALIFORNIO\Freq\UB3LYP\6-311++G(3df,2p)\C4H2(3)\ROOT\19-Jul-2
 016\0\\#p b3lyp/6-311++G(3df,2p) freq symmetry=Loose\\b3lyp opt\\0,3\C
 ,1.072898946,-0.0000672827,0.122593091\C,0.0000206726,-0.890693995,-0.
 134542003\C,-1.0730214002,0.0000517659,0.1214948818\C,0.0001194447,0.8
 907090019,-0.134435972\H,2.144520605,-0.0001239129,0.075765528\H,-2.14
 45945681,0.0001140331,0.0735705044\\Version=EM64L-G09RevE.01\State=3-A
 2\HF=-153.4113639\S2=2.016726\S2-1=0.\S2A=2.000109\RMSD=1.828e-09\RMSF
 =3.120e-05\ZeroPoint=0.0361593\Thermal=0.0397082\Dipole=-0.0001248,-0.
 0000145,0.2438231\DipoleDeriv=-0.0457917,0.0000194,0.006708,0.0000352,
 0.3105314,0.0000262,-0.2591749,0.0000409,-0.1356207,-0.0335716,0.00000
 11,-0.000001,-0.0000675,-0.4297862,0.0889727,-0.0000085,-0.0449681,-0.
 0218818,-0.0460502,0.0000202,-0.0066163,0.0000043,0.3105315,0.0000269,
 0.2592666,0.0000121,-0.1353622,-0.0335716,-0.000045,-0.0000109,0.00002
 36,-0.429781,-0.0890213,-0.0000035,0.0449196,-0.0218871,0.0794438,0.00
 00026,-0.0065506,-0.0000039,0.1192521,-0.0000019,0.1018204,-0.0000079,
 0.1574247,0.0795414,0.0000018,0.0064709,0.0000083,0.1192522,-0.0000026
 ,-0.1019002,0.0000034,0.1573271\Polar=50.5992015,0.0001335,53.0217582,
 0.0104316,0.0013566,30.2158629\PG=C02V [SGV(C2H2),SGV'(C2)]\NImag=0\\0
 .87009074,-0.00003712,0.25330329,0.04913213,0.00000747,0.08196134,-0.1
 6640774,-0.10429722,-0.02400991,0.33294507,-0.11519500,-0.09760107,-0.
 03602165,-0.00003350,0.30176062,-0.04218132,-0.02944563,-0.05236339,0.
 00014233,0.06209113,0.06157942,-0.16252069,0.00000902,-0.00990612,-0.1
 6645099,0.11523945,0.04206128,0.87019049,0.00000786,-0.01037893,-0.000
 00222,0.10433494,-0.09762542,-0.02934352,-0.00003133,0.25330329,0.0097
 0287,-0.00000330,0.03605578,0.02388913,-0.03590638,-0.05229576,-0.0483
 2535,0.00001288,0.08186159,-0.16638339,0.10430770,-0.02399349,0.005377
 55,-0.00001057,-0.00002106,-0.16647535,-0.10433015,0.02388069,0.332945
 08,0.11520766,-0.09763319,0.03601893,-0.00000273,-0.11426838,-0.007671
 10,-0.11523682,-0.09760884,0.03589833,0.00003004,0.30177540,-0.0421643
 5,0.02944491,-0.05235559,-0.00002019,0.00765206,0.04567513,0.04205081,
 0.02933348,-0.05228799,0.00013543,-0.06206255,0.06156464,-0.37163773,0
 .00001757,0.00774728,-0.00272979,0.00403544,0.00271052,-0.00314165,0.0
 0000017,-0.00103541,-0.00272848,-0.00403503,0.00270980,0.38027715,0.00
 001642,-0.04647389,-0.00000228,-0.01583168,0.00386778,0.00217631,0.000
 00002,-0.00121621,-0.00000014,0.01583339,0.00386686,-0.00217600,-0.000
 01827,0.03788047,0.02698904,-0.00000335,-0.01534020,-0.00821233,0.0010
 9494,-0.00130052,0.00147305,-0.00000028,0.00204252,-0.00821057,-0.0010
 9341,-0.00130091,-0.01208440,0.00000213,0.01340660,-0.00314120,0.00000
 004,0.00103010,-0.00273411,-0.00403583,-0.00271175,-0.37160180,0.00001
 851,-0.00811192,-0.00273542,0.00403688,-0.00271151,-0.00003950,0.00000
 011,0.00004520,0.38025203,0.00000019,-0.00121621,-0.00000025,0.0158301
 8,0.00386647,0.00219281,0.00001965,-0.04647389,-0.00000140,-0.01583042
 ,0.00386817,-0.00219190,0.00000012,0.00207499,-0.00000003,-0.00001972,
 0.03788047,-0.00147836,-0.00000011,0.00204206,0.00821098,0.00108990,-0
 .00129489,-0.02735369,-0.00000033,-0.01537613,0.00820898,-0.00109019,-
 0.00129528,-0.00004779,-0.00000002,0.00249251,0.01245988,0.00000076,0.
 01343172\\0.00007164,0.,-0.00002978,0.,-0.00003012,0.00000747,-0.00007
 161,0.,-0.00002985,0.,0.00003012,0.00000747,-0.00003580,0.,0.00002233,
 0.00003578,0.,0.00002237\\\@


 ... FOR AFTERWARDS A MAN FINDS PLEASURE IN HIS PAINS,
 WHEN HE HAS SUFFERED LONG AND WANDERED FAR.

                                    -- HOMER
 Job cpu time:       0 days  0 hours 12 minutes 59.9 seconds.
 File lengths (MBytes):  RWF=     31 Int=      0 D2E=      0 Chk=      4 Scr=      1
 Normal termination of Gaussian 09 at Tue Jul 19 03:47:05 2016.
