 Entering Gaussian System, Link 0=/home/proyectos/fulerenos/M3C-v2.0/M3C-deps_CCC/g09-AM64L-G09RevC.01/g09
 Initial command:
 /home/proyectos/fulerenos/M3C-v2.0/M3C-deps_CCC/g09-AM64L-G09RevC.01/l1.exe "/scratch/naguirre/gaussian/Gau-13897.inp" -scrdir="/scratch/naguirre/gaussian/"
 Entering Link 1 = /home/proyectos/fulerenos/M3C-v2.0/M3C-deps_CCC/g09-AM64L-G09RevC.01/l1.exe PID=     13901.
  
 Copyright (c) 1988,1990,1992,1993,1995,1998,2003,2009,2015,
            Gaussian, Inc.  All Rights Reserved.
  
 This is part of the Gaussian(R) 09 program.  It is based on
 the Gaussian(R) 03 system (copyright 2003, Gaussian, Inc.),
 the Gaussian(R) 98 system (copyright 1998, Gaussian, Inc.),
 the Gaussian(R) 94 system (copyright 1995, Gaussian, Inc.),
 the Gaussian 92(TM) system (copyright 1992, Gaussian, Inc.),
 the Gaussian 90(TM) system (copyright 1990, Gaussian, Inc.),
 the Gaussian 88(TM) system (copyright 1988, Gaussian, Inc.),
 the Gaussian 86(TM) system (copyright 1986, Carnegie Mellon
 University), and the Gaussian 82(TM) system (copyright 1983,
 Carnegie Mellon University). Gaussian is a federally registered
 trademark of Gaussian, Inc.
  
 This software contains proprietary and confidential information,
 including trade secrets, belonging to Gaussian, Inc.
  
 This software is provided under written license and may be
 used, copied, transmitted, or stored only in accord with that
 written license.
  
 The following legend is applicable only to US Government
 contracts under FAR:
  
                    RESTRICTED RIGHTS LEGEND
  
 Use, reproduction and disclosure by the US Government is
 subject to restrictions as set forth in subparagraphs (a)
 and (c) of the Commercial Computer Software - Restricted
 Rights clause in FAR 52.227-19.
  
 Gaussian, Inc.
 340 Quinnipiac St., Bldg. 40, Wallingford CT 06492
  
  
 ---------------------------------------------------------------
 Warning -- This program may not be used in any manner that
 competes with the business of Gaussian, Inc. or will provide
 assistance to any competitor of Gaussian, Inc.  The licensee
 of this program is prohibited from giving any competitor of
 Gaussian, Inc. access to this program.  By using this program,
 the user acknowledges that Gaussian, Inc. is engaged in the
 business of creating and licensing software in the field of
 computational chemistry and represents and warrants to the
 licensee that it is not a competitor of Gaussian, Inc. and that
 it will not use this program in any manner prohibited above.
 ---------------------------------------------------------------
  

 Cite this work as:
 Gaussian 09, Revision E.01,
 M. J. Frisch, G. W. Trucks, H. B. Schlegel, G. E. Scuseria, 
 M. A. Robb, J. R. Cheeseman, G. Scalmani, V. Barone, B. Mennucci, 
 G. A. Petersson, H. Nakatsuji, M. Caricato, X. Li, H. P. Hratchian, 
 A. F. Izmaylov, J. Bloino, G. Zheng, J. L. Sonnenberg, M. Hada, 
 M. Ehara, K. Toyota, R. Fukuda, J. Hasegawa, M. Ishida, T. Nakajima, 
 Y. Honda, O. Kitao, H. Nakai, T. Vreven, J. A. Montgomery, Jr., 
 J. E. Peralta, F. Ogliaro, M. Bearpark, J. J. Heyd, E. Brothers, 
 K. N. Kudin, V. N. Staroverov, T. Keith, R. Kobayashi, J. Normand, 
 K. Raghavachari, A. Rendell, J. C. Burant, S. S. Iyengar, J. Tomasi, 
 M. Cossi, N. Rega, J. M. Millam, M. Klene, J. E. Knox, J. B. Cross, 
 V. Bakken, C. Adamo, J. Jaramillo, R. Gomperts, R. E. Stratmann, 
 O. Yazyev, A. J. Austin, R. Cammi, C. Pomelli, J. W. Ochterski, 
 R. L. Martin, K. Morokuma, V. G. Zakrzewski, G. A. Voth, 
 P. Salvador, J. J. Dannenberg, S. Dapprich, A. D. Daniels, 
 O. Farkas, J. B. Foresman, J. V. Ortiz, J. Cioslowski, 
 and D. J. Fox, Gaussian, Inc., Wallingford CT, 2013.
 
 ******************************************
 Gaussian 09:  EM64L-G09RevE.01 30-Nov-2015
                19-Jul-2016 
 ******************************************
 %NProcShared=1
 Will use up to    1 processors via shared memory.
 ---------------------------------------------
 #p b3lyp/6-311++G(3df,2p) freq symmetry=Loose
 ---------------------------------------------
 1/10=4,30=1,38=1/1,3;
 2/12=2,17=4,18=3,40=1/2;
 3/5=4,6=6,7=1216,11=2,16=1,25=1,30=1,71=2,74=-5,140=1/1,2,3;
 4//1;
 5/5=2,38=5,98=1/2;
 8/6=4,10=90,11=11/1;
 11/6=1,8=1,9=11,15=111,16=1/1,2,10;
 10/6=1/2;
 6/7=2,8=2,9=2,10=2,18=1,28=1/1;
 7/8=1,10=1,25=1/1,2,3,16;
 1/10=4,30=1/3;
 99//99;
 Leave Link    1 at Tue Jul 19 05:00:09 2016, MaxMem=           0 cpu:         0.1
 (Enter /home/proyectos/fulerenos/M3C-v2.0/M3C-deps_CCC/g09-AM64L-G09RevC.01/l101.exe)
 ---------
 b3lyp opt
 ---------
 Symbolic Z-matrix:
 Charge =  3 Multiplicity = 4
 C                    -1.51133  -0.00004  -0.00001 
 C                    -0.1518   -0.00001   0.00001 
 C                     1.20733   0.69626   0.00012 
 C                     1.20736  -0.69622  -0.00008 
 H                    -2.25468  -0.00018   0.93972 
 H                    -2.25466   0.00008  -0.93975 
 
 NAtoms=      6 NQM=        6 NQMF=       0 NMMI=      0 NMMIF=      0
                NMic=       0 NMicF=      0.
                    Isotopes and Nuclear Properties:
 (Nuclear quadrupole moments (NQMom) in fm**2, nuclear magnetic moments (NMagM)
  in nuclear magnetons)

  Atom         1           2           3           4           5           6
 IAtWgt=          12          12          12          12           1           1
 AtmWgt=  12.0000000  12.0000000  12.0000000  12.0000000   1.0078250   1.0078250
 NucSpn=           0           0           0           0           1           1
 AtZEff=   0.0000000   0.0000000   0.0000000   0.0000000   0.0000000   0.0000000
 NQMom=    0.0000000   0.0000000   0.0000000   0.0000000   0.0000000   0.0000000
 NMagM=    0.0000000   0.0000000   0.0000000   0.0000000   2.7928460   2.7928460
 AtZNuc=   6.0000000   6.0000000   6.0000000   6.0000000   1.0000000   1.0000000
 Leave Link  101 at Tue Jul 19 05:00:09 2016, MaxMem=    33554432 cpu:         0.2
 (Enter /home/proyectos/fulerenos/M3C-v2.0/M3C-deps_CCC/g09-AM64L-G09RevC.01/l103.exe)

 GradGradGradGradGradGradGradGradGradGradGradGradGradGradGradGradGradGrad
 Berny optimization.
 Initialization pass.
 Trust Radius=3.00D-01 FncErr=1.00D-07 GrdErr=1.00D-07
 Number of steps in this run=      2 maximum allowed number of steps=      2.
 GradGradGradGradGradGradGradGradGradGradGradGradGradGradGradGradGradGrad

 Leave Link  103 at Tue Jul 19 05:00:09 2016, MaxMem=    33554432 cpu:         0.1
 (Enter /home/proyectos/fulerenos/M3C-v2.0/M3C-deps_CCC/g09-AM64L-G09RevC.01/l202.exe)
                          Input orientation:                          
 ---------------------------------------------------------------------
 Center     Atomic      Atomic             Coordinates (Angstroms)
 Number     Number       Type             X           Y           Z
 ---------------------------------------------------------------------
      1          6           0       -1.511327   -0.000038   -0.000007
      2          6           0       -0.151796   -0.000008    0.000006
      3          6           0        1.207325    0.696261    0.000115
      4          6           0        1.207356   -0.696217   -0.000077
      5          1           0       -2.254682   -0.000184    0.939718
      6          1           0       -2.254664    0.000075   -0.939747
 ---------------------------------------------------------------------
                    Distance matrix (angstroms):
                    1          2          3          4          5
     1  C    0.000000
     2  C    1.359531   0.000000
     3  C    2.806404   1.527089   0.000000
     4  C    2.806404   1.527089   1.392478   0.000000
     5  H    1.198191   2.303300   3.654228   3.654228   0.000000
     6  H    1.198191   2.303300   3.654228   3.654228   1.879465
                    6
     6  H    0.000000
 Stoichiometry    C4H2(3+,4)
 Framework group  C2V[C2(CC),SGV(H2),SGV'(C2)]
 Deg. of freedom     5
 Full point group                 C2V     NOp   4
 Largest Abelian subgroup         C2V     NOp   4
 Largest concise Abelian subgroup C2V     NOp   4
                         Standard orientation:                         
 ---------------------------------------------------------------------
 Center     Atomic      Atomic             Coordinates (Angstroms)
 Number     Number       Type             X           Y           Z
 ---------------------------------------------------------------------
      1          6           0        0.000000    0.000000    1.511327
      2          6           0        0.000000    0.000000    0.151796
      3          6           0        0.696239   -0.000000   -1.207340
      4          6           0       -0.696239    0.000000   -1.207340
      5          1           0        0.000000   -0.939711    2.254682
      6          1           0        0.000000    0.939711    2.254682
 ---------------------------------------------------------------------
 Rotational constants (GHZ):     37.6757637      6.8022024      6.0056625
 Leave Link  202 at Tue Jul 19 05:00:09 2016, MaxMem=    33554432 cpu:         0.0
 (Enter /home/proyectos/fulerenos/M3C-v2.0/M3C-deps_CCC/g09-AM64L-G09RevC.01/l301.exe)
 Standard basis: 6-311++G(3df,2p) (5D, 7F)
 Ernie: Thresh=  0.10000D-02 Tol=  0.10000D-05 Strict=F.
 There are    81 symmetry adapted cartesian basis functions of A1  symmetry.
 There are    24 symmetry adapted cartesian basis functions of A2  symmetry.
 There are    53 symmetry adapted cartesian basis functions of B1  symmetry.
 There are    42 symmetry adapted cartesian basis functions of B2  symmetry.
 There are    68 symmetry adapted basis functions of A1  symmetry.
 There are    23 symmetry adapted basis functions of A2  symmetry.
 There are    46 symmetry adapted basis functions of B1  symmetry.
 There are    39 symmetry adapted basis functions of B2  symmetry.
   176 basis functions,   256 primitive gaussians,   200 cartesian basis functions
    13 alpha electrons       10 beta electrons
       nuclear repulsion energy        78.0335163081 Hartrees.
 IExCor=  402 DFT=T Ex+Corr=B3LYP ExCW=0 ScaHFX=  0.200000
 ScaDFX=  0.800000  0.720000  1.000000  0.810000 ScalE2=  1.000000  1.000000
 IRadAn=      0 IRanWt=     -1 IRanGd=            0 ICorTp=0 IEmpDi=  4
 NAtoms=    6 NActive=    6 NUniq=    4 SFac= 2.25D+00 NAtFMM=   60 NAOKFM=F Big=F
 Integral buffers will be    131072 words long.
 Raffenetti 2 integral format.
 Two-electron integral symmetry is turned on.
 Leave Link  301 at Tue Jul 19 05:00:09 2016, MaxMem=    33554432 cpu:         0.2
 (Enter /home/proyectos/fulerenos/M3C-v2.0/M3C-deps_CCC/g09-AM64L-G09RevC.01/l302.exe)
 NPDir=0 NMtPBC=     1 NCelOv=     1 NCel=       1 NClECP=     1 NCelD=      1
         NCelK=      1 NCelE2=     1 NClLst=     1 CellRange=     0.0.
 One-electron integrals computed using PRISM.
 One-electron integral symmetry used in STVInt
 NBasis=   176 RedAO= T EigKep=  3.24D-05  NBF=    68    23    46    39
 NBsUse=   176 1.00D-06 EigRej= -1.00D+00 NBFU=    68    23    46    39
 Precomputing XC quadrature grid using
 IXCGrd= 4 IRadAn=           0 IRanWt=          -1 IRanGd=           0 AccXCQ= 0.00D+00.
 Generated NRdTot=       0 NPtTot=           0 NUsed=           0 NTot=          32
 NSgBfM=   200   200   200   200   200 MxSgAt=     6 MxSgA2=     6.
 Leave Link  302 at Tue Jul 19 05:00:10 2016, MaxMem=    33554432 cpu:         0.4
 (Enter /home/proyectos/fulerenos/M3C-v2.0/M3C-deps_CCC/g09-AM64L-G09RevC.01/l303.exe)
 DipDrv:  MaxL=1.
 Leave Link  303 at Tue Jul 19 05:00:10 2016, MaxMem=    33554432 cpu:         0.1
 (Enter /home/proyectos/fulerenos/M3C-v2.0/M3C-deps_CCC/g09-AM64L-G09RevC.01/l401.exe)
 ExpMin= 3.60D-02 ExpMax= 4.56D+03 ExpMxC= 6.82D+02 IAcc=3 IRadAn=         5 AccDes= 0.00D+00
 Harris functional with IExCor=  402 and IRadAn=       5 diagonalized for initial guess.
 HarFok:  IExCor=  402 AccDes= 0.00D+00 IRadAn=         5 IDoV= 1 UseB2=F ITyADJ=14
 ICtDFT=  3500011 ScaDFX=  1.000000  1.000000  1.000000  1.000000
 FoFCou: FMM=F IPFlag=           0 FMFlag=      100000 FMFlg1=           0
         NFxFlg=           0 DoJE=T BraDBF=F KetDBF=T FulRan=T
         wScrn=  0.000000 ICntrl=     500 IOpCl=  0 I1Cent=   200000004 NGrid=           0
         NMat0=    1 NMatS0=      1 NMatT0=    0 NMatD0=    1 NMtDS0=    0 NMtDT0=    0
 Petite list used in FoFCou.
 Harris En= -152.406309232163    
 JPrj=0 DoOrth=F DoCkMO=F.
 Initial guess orbital symmetries:
 Alpha Orbitals:
       Occupied  (A1) (A1) (A1) (B1) (A1) (A1) (A1) (B1) (A1) (B2)
                 (B2) (B1) (A1)
       Virtual   (B1) (B2) (A2) (A1) (B2) (A1) (B1) (A1) (B1) (B2)
                 (A1) (A1) (B1) (A1) (A2) (B2) (A1) (B1) (B2) (A1)
                 (B1) (A1) (A1) (B2) (B1) (A2) (A1) (B1) (A1) (A1)
                 (B2) (B2) (A1) (B1) (A1) (B2) (A2) (A1) (B1) (B1)
                 (A1) (A2) (B2) (A1) (B2) (B1) (B1) (A1) (B1) (A1)
                 (A2) (B2) (A1) (B2) (A2) (B1) (B2) (A1) (B1) (A1)
                 (B1) (A2) (B1) (A1) (B2) (A1) (B2) (A1) (A1) (A1)
                 (B1) (B2) (A1) (A2) (B1) (B2) (A2) (A1) (B1) (A1)
                 (B2) (A1) (A2) (A1) (A2) (B1) (A1) (B1) (B2) (B1)
                 (A1) (B2) (A2) (B1) (B2) (A1) (B1) (B2) (A1) (B2)
                 (A1) (B2) (A2) (A1) (B1) (B1) (B2) (B2) (A1) (A1)
                 (A2) (B1) (B2) (A1) (B2) (B1) (B1) (A2) (A1) (B1)
                 (A1) (A1) (B2) (A1) (B1) (A2) (B1) (A1) (B2) (A2)
                 (B1) (A1) (A2) (B1) (B2) (A1) (B2) (A1) (B1) (A2)
                 (A1) (B2) (B1) (A2) (B2) (A1) (B1) (A1) (B1) (A2)
                 (A1) (A2) (B2) (A1) (B1) (B2) (A1) (A1) (B1) (A1)
                 (A1) (B1) (A1)
 Beta  Orbitals:
       Occupied  (A1) (A1) (A1) (B1) (A1) (A1) (A1) (B1) (A1) (B2)
       Virtual   (B2) (B1) (A1) (B1) (B2) (A2) (A1) (B2) (A1) (B1)
                 (A1) (B1) (B2) (A1) (A1) (B1) (A1) (A2) (B2) (A1)
                 (B1) (B2) (A1) (B1) (A1) (A1) (B2) (B1) (A2) (A1)
                 (B1) (A1) (A1) (B2) (B2) (A1) (B1) (A1) (B2) (A2)
                 (A1) (B1) (B1) (A1) (A2) (B2) (A1) (B2) (B1) (B1)
                 (A1) (B1) (A1) (A2) (B2) (A1) (B2) (A2) (B1) (B2)
                 (A1) (B1) (A1) (B1) (A2) (B1) (A1) (B2) (A1) (B2)
                 (A1) (A1) (A1) (B1) (B2) (A1) (A2) (B1) (B2) (A2)
                 (A1) (B1) (A1) (B2) (A1) (A2) (A1) (A2) (B1) (A1)
                 (B1) (B2) (B1) (A1) (B2) (A2) (B1) (B2) (A1) (B1)
                 (B2) (A1) (B2) (A1) (B2) (A2) (A1) (B1) (B1) (B2)
                 (B2) (A1) (A1) (A2) (B1) (B2) (A1) (B2) (B1) (B1)
                 (A2) (A1) (B1) (A1) (A1) (B2) (A1) (B1) (A2) (B1)
                 (A1) (B2) (A2) (B1) (A1) (A2) (B1) (B2) (A1) (B2)
                 (A1) (B1) (A2) (A1) (B2) (B1) (A2) (B2) (A1) (B1)
                 (A1) (B1) (A2) (A1) (A2) (B2) (A1) (B1) (B2) (A1)
                 (A1) (B1) (A1) (A1) (B1) (A1)
 The electronic state of the initial guess is 4-A2.
 Initial guess <Sx>= 0.0000 <Sy>= 0.0000 <Sz>= 1.5000 <S**2>= 3.7500 S= 1.5000
 Leave Link  401 at Tue Jul 19 05:00:12 2016, MaxMem=    33554432 cpu:         1.8
 (Enter /home/proyectos/fulerenos/M3C-v2.0/M3C-deps_CCC/g09-AM64L-G09RevC.01/l502.exe)
 UHF open shell SCF:
 Using DIIS extrapolation, IDIIS=  1040.
 Integral symmetry usage will be decided dynamically.
 IVT=      141870 IEndB=      141870 NGot=    33554432 MDV=    33469403
 LenX=    33469403 LenY=    33428962
 Requested convergence on RMS density matrix=1.00D-08 within 128 cycles.
 Requested convergence on MAX density matrix=1.00D-06.
 Requested convergence on             energy=1.00D-06.
 No special actions if energy rises.
 Fock matrices will be formed incrementally for  20 cycles.

 Cycle   1  Pass 1  IDiag  1:
 FoFJK:  IHMeth= 1 ICntrl=       0 DoSepK=F KAlg= 0 I1Cent=   0 FoldK=F
 IRaf= 990000000 NMat=   1 IRICut=       1 DoRegI=T DoRafI=F ISym2E= 1.
 FoFCou: FMM=F IPFlag=           0 FMFlag=      100000 FMFlg1=           0
         NFxFlg=           0 DoJE=F BraDBF=F KetDBF=F FulRan=T
         wScrn=  0.000000 ICntrl=       0 IOpCl=  1 I1Cent=           0 NGrid=           0
         NMat0=    1 NMatS0=      1 NMatT0=    0 NMatD0=    1 NMtDS0=    0 NMtDT0=    0
 Petite list used in FoFCou.
 E= -151.317365157646    
 DIIS: error= 3.05D-02 at cycle   1 NSaved=   1.
 NSaved= 1 IEnMin= 1 EnMin= -151.317365157646     IErMin= 1 ErrMin= 3.05D-02
 ErrMax= 3.05D-02  0.00D+00 EMaxC= 1.00D-01 BMatC= 3.39D-01 BMatP= 3.39D-01
 IDIUse=3 WtCom= 6.95D-01 WtEn= 3.05D-01
 Coeff-Com:  0.100D+01
 Coeff-En:   0.100D+01
 Coeff:      0.100D+01
 Gap=     0.182 Goal=   None    Shift=    0.000
 Gap=     0.019 Goal=   None    Shift=    0.000
 GapD=    0.019 DampG=0.250 DampE=0.500 DampFc=0.2500 IDamp=-1.
 Damping current iteration by 2.50D-01
 RMSDP=5.89D-03 MaxDP=2.76D-01              OVMax= 6.67D-01

 Cycle   2  Pass 1  IDiag  1:
 RMSU=  1.47D-03    CP:  1.01D+00
 E= -151.360393085886     Delta-E=       -0.043027928239 Rises=F Damp=T
 DIIS: error= 1.96D-02 at cycle   2 NSaved=   2.
 NSaved= 2 IEnMin= 2 EnMin= -151.360393085886     IErMin= 2 ErrMin= 1.96D-02
 ErrMax= 1.96D-02  0.00D+00 EMaxC= 1.00D-01 BMatC= 1.03D-01 BMatP= 3.39D-01
 IDIUse=3 WtCom= 8.04D-01 WtEn= 1.96D-01
 Coeff-Com: -0.393D+00 0.139D+01
 Coeff-En:   0.000D+00 0.100D+01
 Coeff:     -0.316D+00 0.132D+01
 Gap=     0.163 Goal=   None    Shift=    0.000
 Gap=     0.072 Goal=   None    Shift=    0.000
 RMSDP=3.50D-03 MaxDP=1.61D-01 DE=-4.30D-02 OVMax= 5.94D-01

 Cycle   3  Pass 1  IDiag  1:
 RMSU=  2.44D-03    CP:  1.05D+00  2.66D+00
 E= -151.433029114051     Delta-E=       -0.072636028166 Rises=F Damp=F
 DIIS: error= 2.04D-02 at cycle   3 NSaved=   3.
 NSaved= 3 IEnMin= 3 EnMin= -151.433029114051     IErMin= 2 ErrMin= 1.96D-02
 ErrMax= 2.04D-02  0.00D+00 EMaxC= 1.00D-01 BMatC= 9.35D-02 BMatP= 1.03D-01
 IDIUse=3 WtCom= 7.96D-01 WtEn= 2.04D-01
 Coeff-Com: -0.434D+00 0.895D+00 0.539D+00
 Coeff-En:   0.000D+00 0.000D+00 0.100D+01
 Coeff:     -0.345D+00 0.712D+00 0.633D+00
 Gap=     0.190 Goal=   None    Shift=    0.000
 Gap=     0.111 Goal=   None    Shift=    0.000
 RMSDP=1.77D-03 MaxDP=7.22D-02 DE=-7.26D-02 OVMax= 1.86D-01

 Cycle   4  Pass 1  IDiag  1:
 RMSU=  1.45D-03    CP:  1.08D+00  2.95D+00  6.56D-01
 E= -151.450561836343     Delta-E=       -0.017532722292 Rises=F Damp=F
 DIIS: error= 1.39D-02 at cycle   4 NSaved=   4.
 NSaved= 4 IEnMin= 4 EnMin= -151.450561836343     IErMin= 4 ErrMin= 1.39D-02
 ErrMax= 1.39D-02  0.00D+00 EMaxC= 1.00D-01 BMatC= 3.79D-02 BMatP= 9.35D-02
 IDIUse=3 WtCom= 8.61D-01 WtEn= 1.39D-01
 Coeff-Com: -0.764D-01 0.165D+00 0.389D+00 0.523D+00
 Coeff-En:   0.000D+00 0.000D+00 0.333D+00 0.667D+00
 Coeff:     -0.658D-01 0.142D+00 0.381D+00 0.543D+00
 Gap=     0.194 Goal=   None    Shift=    0.000
 Gap=     0.138 Goal=   None    Shift=    0.000
 RMSDP=8.06D-04 MaxDP=3.35D-02 DE=-1.75D-02 OVMax= 9.02D-02

 Cycle   5  Pass 1  IDiag  1:
 RMSU=  4.83D-04    CP:  1.08D+00  2.86D+00  8.45D-01  7.05D-01
 E= -151.462216604493     Delta-E=       -0.011654768150 Rises=F Damp=F
 DIIS: error= 3.49D-03 at cycle   5 NSaved=   5.
 NSaved= 5 IEnMin= 5 EnMin= -151.462216604493     IErMin= 5 ErrMin= 3.49D-03
 ErrMax= 3.49D-03  0.00D+00 EMaxC= 1.00D-01 BMatC= 3.60D-03 BMatP= 3.79D-02
 IDIUse=3 WtCom= 9.65D-01 WtEn= 3.49D-02
 Coeff-Com:  0.341D-01-0.631D-01 0.118D+00 0.326D+00 0.585D+00
 Coeff-En:   0.000D+00 0.000D+00 0.000D+00 0.444D-01 0.956D+00
 Coeff:      0.329D-01-0.609D-01 0.114D+00 0.316D+00 0.598D+00
 Gap=     0.196 Goal=   None    Shift=    0.000
 Gap=     0.138 Goal=   None    Shift=    0.000
 RMSDP=2.71D-04 MaxDP=9.47D-03 DE=-1.17D-02 OVMax= 2.50D-02

 Cycle   6  Pass 1  IDiag  1:
 RMSU=  1.62D-04    CP:  1.08D+00  2.88D+00  7.98D-01  8.04D-01  7.70D-01
 E= -151.463363818596     Delta-E=       -0.001147214104 Rises=F Damp=F
 DIIS: error= 9.03D-04 at cycle   6 NSaved=   6.
 NSaved= 6 IEnMin= 6 EnMin= -151.463363818596     IErMin= 6 ErrMin= 9.03D-04
 ErrMax= 9.03D-04  0.00D+00 EMaxC= 1.00D-01 BMatC= 2.11D-04 BMatP= 3.60D-03
 IDIUse=3 WtCom= 9.91D-01 WtEn= 9.03D-03
 Coeff-Com:  0.601D-02-0.117D-01-0.353D-01-0.968D-01 0.522D-01 0.109D+01
 Coeff-En:   0.000D+00 0.000D+00 0.000D+00 0.000D+00 0.000D+00 0.100D+01
 Coeff:      0.596D-02-0.116D-01-0.350D-01-0.959D-01 0.517D-01 0.108D+01
 Gap=     0.197 Goal=   None    Shift=    0.000
 Gap=     0.141 Goal=   None    Shift=    0.000
 RMSDP=1.25D-04 MaxDP=7.69D-03 DE=-1.15D-03 OVMax= 1.08D-02

 Cycle   7  Pass 1  IDiag  1:
 RMSU=  6.47D-05    CP:  1.07D+00  2.89D+00  8.00D-01  7.75D-01  9.26D-01
                    CP:  1.33D+00
 E= -151.463500558232     Delta-E=       -0.000136739635 Rises=F Damp=F
 DIIS: error= 2.02D-04 at cycle   7 NSaved=   7.
 NSaved= 7 IEnMin= 7 EnMin= -151.463500558232     IErMin= 7 ErrMin= 2.02D-04
 ErrMax= 2.02D-04  0.00D+00 EMaxC= 1.00D-01 BMatC= 7.56D-06 BMatP= 2.11D-04
 IDIUse=3 WtCom= 9.98D-01 WtEn= 2.02D-03
 Coeff-Com: -0.336D-03 0.218D-02-0.169D-02-0.118D-01-0.553D-01-0.151D+00
 Coeff-Com:  0.122D+01
 Coeff-En:   0.000D+00 0.000D+00 0.000D+00 0.000D+00 0.000D+00 0.000D+00
 Coeff-En:   0.100D+01
 Coeff:     -0.335D-03 0.217D-02-0.169D-02-0.118D-01-0.552D-01-0.151D+00
 Coeff:      0.122D+01
 Gap=     0.197 Goal=   None    Shift=    0.000
 Gap=     0.141 Goal=   None    Shift=    0.000
 RMSDP=3.97D-05 MaxDP=1.72D-03 DE=-1.37D-04 OVMax= 3.76D-03

 Cycle   8  Pass 1  IDiag  1:
 RMSU=  1.24D-05    CP:  1.07D+00  2.89D+00  7.98D-01  7.74D-01  9.73D-01
                    CP:  1.47D+00  1.27D+00
 E= -151.463512030824     Delta-E=       -0.000011472593 Rises=F Damp=F
 DIIS: error= 4.61D-05 at cycle   8 NSaved=   8.
 NSaved= 8 IEnMin= 8 EnMin= -151.463512030824     IErMin= 8 ErrMin= 4.61D-05
 ErrMax= 4.61D-05  0.00D+00 EMaxC= 1.00D-01 BMatC= 4.88D-07 BMatP= 7.56D-06
 IDIUse=1 WtCom= 1.00D+00 WtEn= 0.00D+00
 Coeff-Com: -0.813D-03 0.107D-02 0.237D-02 0.826D-02 0.636D-02-0.445D-01
 Coeff-Com: -0.190D+00 0.122D+01
 Coeff:     -0.813D-03 0.107D-02 0.237D-02 0.826D-02 0.636D-02-0.445D-01
 Coeff:     -0.190D+00 0.122D+01
 Gap=     0.197 Goal=   None    Shift=    0.000
 Gap=     0.141 Goal=   None    Shift=    0.000
 RMSDP=1.14D-05 MaxDP=3.70D-04 DE=-1.15D-05 OVMax= 1.46D-03

 Cycle   9  Pass 1  IDiag  1:
 RMSU=  4.03D-06    CP:  1.07D+00  2.89D+00  7.97D-01  7.74D-01  9.83D-01
                    CP:  1.49D+00  1.35D+00  1.43D+00
 E= -151.463512989831     Delta-E=       -0.000000959006 Rises=F Damp=F
 DIIS: error= 2.10D-05 at cycle   9 NSaved=   9.
 NSaved= 9 IEnMin= 9 EnMin= -151.463512989831     IErMin= 9 ErrMin= 2.10D-05
 ErrMax= 2.10D-05  0.00D+00 EMaxC= 1.00D-01 BMatC= 9.66D-08 BMatP= 4.88D-07
 IDIUse=1 WtCom= 1.00D+00 WtEn= 0.00D+00
 Coeff-Com: -0.775D-03 0.992D-03-0.596D-03-0.251D-02 0.455D-02 0.357D-01
 Coeff-Com: -0.824D-01-0.238D+00 0.128D+01
 Coeff:     -0.775D-03 0.992D-03-0.596D-03-0.251D-02 0.455D-02 0.357D-01
 Coeff:     -0.824D-01-0.238D+00 0.128D+01
 Gap=     0.197 Goal=   None    Shift=    0.000
 Gap=     0.141 Goal=   None    Shift=    0.000
 RMSDP=3.95D-06 MaxDP=1.32D-04 DE=-9.59D-07 OVMax= 7.61D-04

 Cycle  10  Pass 1  IDiag  1:
 RMSU=  1.49D-06    CP:  1.07D+00  2.89D+00  7.97D-01  7.75D-01  9.86D-01
                    CP:  1.50D+00  1.36D+00  1.61D+00  1.50D+00
 E= -151.463513166319     Delta-E=       -0.000000176488 Rises=F Damp=F
 DIIS: error= 1.48D-05 at cycle  10 NSaved=  10.
 NSaved=10 IEnMin=10 EnMin= -151.463513166319     IErMin=10 ErrMin= 1.48D-05
 ErrMax= 1.48D-05  0.00D+00 EMaxC= 1.00D-01 BMatC= 4.73D-08 BMatP= 9.66D-08
 IDIUse=1 WtCom= 1.00D+00 WtEn= 0.00D+00
 Coeff-Com: -0.454D-03 0.636D-03-0.514D-03-0.118D-02-0.183D-02 0.372D-02
 Coeff-Com:  0.312D-01-0.118D+00-0.264D+00 0.135D+01
 Coeff:     -0.454D-03 0.636D-03-0.514D-03-0.118D-02-0.183D-02 0.372D-02
 Coeff:      0.312D-01-0.118D+00-0.264D+00 0.135D+01
 Gap=     0.197 Goal=   None    Shift=    0.000
 Gap=     0.141 Goal=   None    Shift=    0.000
 RMSDP=2.62D-06 MaxDP=1.07D-04 DE=-1.76D-07 OVMax= 3.95D-04

 Cycle  11  Pass 1  IDiag  1:
 RMSU=  6.63D-07    CP:  1.07D+00  2.89D+00  7.96D-01  7.75D-01  9.87D-01
                    CP:  1.50D+00  1.37D+00  1.70D+00  1.80D+00  1.66D+00
 E= -151.463513222744     Delta-E=       -0.000000056425 Rises=F Damp=F
 DIIS: error= 3.28D-06 at cycle  11 NSaved=  11.
 NSaved=11 IEnMin=11 EnMin= -151.463513222744     IErMin=11 ErrMin= 3.28D-06
 ErrMax= 3.28D-06  0.00D+00 EMaxC= 1.00D-01 BMatC= 2.29D-09 BMatP= 4.73D-08
 IDIUse=1 WtCom= 1.00D+00 WtEn= 0.00D+00
 Coeff-Com:  0.861D-04-0.954D-04 0.418D-04 0.192D-03-0.844D-03-0.445D-02
 Coeff-Com:  0.965D-02 0.421D-01-0.184D+00-0.162D+00 0.130D+01
 Coeff:      0.861D-04-0.954D-04 0.418D-04 0.192D-03-0.844D-03-0.445D-02
 Coeff:      0.965D-02 0.421D-01-0.184D+00-0.162D+00 0.130D+01
 Gap=     0.197 Goal=   None    Shift=    0.000
 Gap=     0.141 Goal=   None    Shift=    0.000
 RMSDP=1.12D-06 MaxDP=4.20D-05 DE=-5.64D-08 OVMax= 1.86D-04

 Cycle  12  Pass 1  IDiag  1:
 RMSU=  2.13D-07    CP:  1.07D+00  2.89D+00  7.96D-01  7.75D-01  9.87D-01
                    CP:  1.50D+00  1.37D+00  1.73D+00  1.92D+00  1.99D+00
                    CP:  1.49D+00
 E= -151.463513228994     Delta-E=       -0.000000006250 Rises=F Damp=F
 DIIS: error= 1.13D-06 at cycle  12 NSaved=  12.
 NSaved=12 IEnMin=12 EnMin= -151.463513228994     IErMin=12 ErrMin= 1.13D-06
 ErrMax= 1.13D-06  0.00D+00 EMaxC= 1.00D-01 BMatC= 2.12D-10 BMatP= 2.29D-09
 IDIUse=1 WtCom= 1.00D+00 WtEn= 0.00D+00
 Coeff-Com:  0.319D-04-0.430D-04 0.514D-04 0.815D-04 0.307D-03-0.159D-03
 Coeff-Com: -0.317D-02 0.107D-01 0.309D-01-0.147D+00 0.233D-01 0.109D+01
 Coeff:      0.319D-04-0.430D-04 0.514D-04 0.815D-04 0.307D-03-0.159D-03
 Coeff:     -0.317D-02 0.107D-01 0.309D-01-0.147D+00 0.233D-01 0.109D+01
 Gap=     0.197 Goal=   None    Shift=    0.000
 Gap=     0.141 Goal=   None    Shift=    0.000
 RMSDP=2.03D-07 MaxDP=1.12D-05 DE=-6.25D-09 OVMax= 2.90D-05

 Cycle  13  Pass 1  IDiag  1:
 RMSU=  5.25D-08    CP:  1.07D+00  2.89D+00  7.96D-01  7.75D-01  9.88D-01
                    CP:  1.50D+00  1.37D+00  1.74D+00  1.94D+00  2.05D+00
                    CP:  1.61D+00  1.31D+00
 E= -151.463513229216     Delta-E=       -0.000000000221 Rises=F Damp=F
 DIIS: error= 2.91D-07 at cycle  13 NSaved=  13.
 NSaved=13 IEnMin=13 EnMin= -151.463513229216     IErMin=13 ErrMin= 2.91D-07
 ErrMax= 2.91D-07  0.00D+00 EMaxC= 1.00D-01 BMatC= 1.30D-11 BMatP= 2.12D-10
 IDIUse=1 WtCom= 1.00D+00 WtEn= 0.00D+00
 Coeff-Com: -0.624D-05 0.727D-05 0.159D-05-0.874D-05 0.113D-03 0.275D-03
 Coeff-Com: -0.894D-03-0.200D-02 0.144D-01 0.613D-04-0.886D-01 0.809D-01
 Coeff-Com:  0.996D+00
 Coeff:     -0.624D-05 0.727D-05 0.159D-05-0.874D-05 0.113D-03 0.275D-03
 Coeff:     -0.894D-03-0.200D-02 0.144D-01 0.613D-04-0.886D-01 0.809D-01
 Coeff:      0.996D+00
 Gap=     0.197 Goal=   None    Shift=    0.000
 Gap=     0.141 Goal=   None    Shift=    0.000
 RMSDP=3.46D-08 MaxDP=2.03D-06 DE=-2.21D-10 OVMax= 3.80D-06

 Cycle  14  Pass 1  IDiag  1:
 RMSU=  1.16D-08    CP:  1.07D+00  2.89D+00  7.96D-01  7.75D-01  9.88D-01
                    CP:  1.50D+00  1.37D+00  1.74D+00  1.94D+00  2.06D+00
                    CP:  1.63D+00  1.40D+00  1.07D+00
 E= -151.463513229225     Delta-E=       -0.000000000010 Rises=F Damp=F
 DIIS: error= 5.46D-08 at cycle  14 NSaved=  14.
 NSaved=14 IEnMin=14 EnMin= -151.463513229225     IErMin=14 ErrMin= 5.46D-08
 ErrMax= 5.46D-08  0.00D+00 EMaxC= 1.00D-01 BMatC= 5.17D-13 BMatP= 1.30D-11
 IDIUse=1 WtCom= 1.00D+00 WtEn= 0.00D+00
 Coeff-Com: -0.124D-05 0.157D-05-0.190D-05 0.114D-06-0.139D-04-0.980D-05
 Coeff-Com:  0.704D-04-0.406D-04-0.944D-03 0.361D-02 0.343D-02-0.424D-01
 Coeff-Com: -0.733D-01 0.111D+01
 Coeff:     -0.124D-05 0.157D-05-0.190D-05 0.114D-06-0.139D-04-0.980D-05
 Coeff:      0.704D-04-0.406D-04-0.944D-03 0.361D-02 0.343D-02-0.424D-01
 Coeff:     -0.733D-01 0.111D+01
 Gap=     0.197 Goal=   None    Shift=    0.000
 Gap=     0.141 Goal=   None    Shift=    0.000
 RMSDP=7.25D-09 MaxDP=3.86D-07 DE=-9.61D-12 OVMax= 5.63D-07

 SCF Done:  E(UB3LYP) =  -151.463513229     A.U. after   14 cycles
            NFock= 14  Conv=0.73D-08     -V/T= 2.0039
 <Sx>= 0.0000 <Sy>= 0.0000 <Sz>= 1.5000 <S**2>= 3.7737 S= 1.5059
 <L.S>= 0.000000000000E+00
 KE= 1.508689267331D+02 PE=-4.880240353701D+02 EE= 1.076580790997D+02
 Annihilation of the first spin contaminant:
 S**2 before annihilation     3.7737,   after     3.7502
 Leave Link  502 at Tue Jul 19 05:02:01 2016, MaxMem=    33554432 cpu:       109.1
 (Enter /home/proyectos/fulerenos/M3C-v2.0/M3C-deps_CCC/g09-AM64L-G09RevC.01/l801.exe)
 DoSCS=F DFT=T ScalE2(SS,OS)=  1.000000  1.000000
 Range of M.O.s used for correlation:     1   176
 NBasis=   176 NAE=    13 NBE=    10 NFC=     0 NFV=     0
 NROrb=    176 NOA=    13 NOB=    10 NVA=   163 NVB=   166

 **** Warning!!: The largest alpha MO coefficient is  0.11004097D+03


 **** Warning!!: The largest beta MO coefficient is  0.10149329D+03

 Leave Link  801 at Tue Jul 19 05:02:01 2016, MaxMem=    33554432 cpu:         0.1
 (Enter /home/proyectos/fulerenos/M3C-v2.0/M3C-deps_CCC/g09-AM64L-G09RevC.01/l1101.exe)
 Using compressed storage, NAtomX=     6.
 Will process      7 centers per pass.
 Leave Link 1101 at Tue Jul 19 05:02:02 2016, MaxMem=    33554432 cpu:         0.4
 (Enter /home/proyectos/fulerenos/M3C-v2.0/M3C-deps_CCC/g09-AM64L-G09RevC.01/l1102.exe)
 Symmetrizing basis deriv contribution to polar:
 IMax=3 JMax=2 DiffMx= 0.00D+00
 Leave Link 1102 at Tue Jul 19 05:02:02 2016, MaxMem=    33554432 cpu:         0.1
 (Enter /home/proyectos/fulerenos/M3C-v2.0/M3C-deps_CCC/g09-AM64L-G09RevC.01/l1110.exe)
 Forming Gx(P) for the SCF density, NAtomX=     6.
 Integral derivatives from FoFJK, PRISM(SPDF).
 Do as many integral derivatives as possible in FoFJK.
 G2DrvN: MDV=      33554280.
 G2DrvN: will do     7 centers at a time, making    1 passes.
 Calling FoFCou, ICntrl=  3107 FMM=F I1Cent=   0 AccDes= 0.00D+00.
 FoFJK:  IHMeth= 1 ICntrl=    3107 DoSepK=F KAlg= 0 I1Cent=   0 FoldK=F
 IRaf=         0 NMat=   1 IRICut=       1 DoRegI=T DoRafI=F ISym2E= 1.
 FoFCou: FMM=F IPFlag=           0 FMFlag=      100000 FMFlg1=           0
         NFxFlg=           0 DoJE=F BraDBF=F KetDBF=F FulRan=T
         wScrn=  0.000000 ICntrl=    3107 IOpCl=  1 I1Cent=           0 NGrid=           0
         NMat0=    1 NMatS0=      1 NMatT0=    0 NMatD0=    1 NMtDS0=    0 NMtDT0=    0
 Petite list used in FoFCou.
 End of G2Drv F.D. properties file   721 does not exist.
 End of G2Drv F.D. properties file   722 does not exist.
 End of G2Drv F.D. properties file   788 does not exist.
 Leave Link 1110 at Tue Jul 19 05:03:16 2016, MaxMem=    33554432 cpu:        74.1
 (Enter /home/proyectos/fulerenos/M3C-v2.0/M3C-deps_CCC/g09-AM64L-G09RevC.01/l1002.exe)
 Minotr:  UHF open shell wavefunction.
          IDoAtm=111111
          Direct CPHF calculation.
          Differentiating once with respect to electric field.
                with respect to dipole field.
          Differentiating once with respect to nuclear coordinates.
          Using symmetry in CPHF.
          Requested convergence is 1.0D-08 RMS, and 1.0D-07 maximum.
          Secondary convergence is 1.0D-12 RMS, and 1.0D-12 maximum.
          NewPWx=T KeepS1=F KeepF1=F KeepIn=T MapXYZ=F SortEE=F KeepMc=T.
          MDV=      33554016 using IRadAn=       2.
 Generate precomputed XC quadrature information.
          Solving linear equations simultaneously, MaxMat=       0.
 FoFJK:  IHMeth= 1 ICntrl=       0 DoSepK=F KAlg= 0 I1Cent=   0 FoldK=F
 IRaf= 990000000 NMat=  15 IRICut=      37 DoRegI=T DoRafI=T ISym2E= 2.
 FoFCou: FMM=F IPFlag=           0 FMFlag=      100000 FMFlg1=           0
         NFxFlg=           0 DoJE=F BraDBF=F KetDBF=F FulRan=T
         wScrn=  0.000000 ICntrl=       0 IOpCl=  1 I1Cent=           0 NGrid=           0
         NMat0=   15 NMatS0=     15 NMatT0=    0 NMatD0=   15 NMtDS0=    0 NMtDT0=    0
 Integrals replicated using symmetry in FoFCou.
          There are    15 degrees of freedom in the 1st order CPHF.  IDoFFX=4 NUNeed=    15.
     15 vectors produced by pass  0 Test12= 2.52D-14 6.67D-09 XBig12= 3.53D+02 1.37D+01.
 AX will form    15 AO Fock derivatives at one time.
     15 vectors produced by pass  1 Test12= 2.52D-14 6.67D-09 XBig12= 7.21D+01 2.22D+00.
     15 vectors produced by pass  2 Test12= 2.52D-14 6.67D-09 XBig12= 2.82D+00 6.47D-01.
     15 vectors produced by pass  3 Test12= 2.52D-14 6.67D-09 XBig12= 6.61D-02 6.55D-02.
     15 vectors produced by pass  4 Test12= 2.52D-14 6.67D-09 XBig12= 1.33D-03 1.16D-02.
     15 vectors produced by pass  5 Test12= 2.52D-14 6.67D-09 XBig12= 1.19D-05 9.83D-04.
     15 vectors produced by pass  6 Test12= 2.52D-14 6.67D-09 XBig12= 5.78D-08 5.71D-05.
     10 vectors produced by pass  7 Test12= 2.52D-14 6.67D-09 XBig12= 2.46D-10 3.43D-06.
      4 vectors produced by pass  8 Test12= 2.52D-14 6.67D-09 XBig12= 1.24D-12 1.40D-07.
      2 vectors produced by pass  9 Test12= 2.52D-14 6.67D-09 XBig12= 1.92D-14 3.12D-08.
 InvSVY:  IOpt=1 It=  1 EMax= 4.44D-15
 Solved reduced A of dimension   121 with    15 vectors.
 FullF1:  Do perturbations    1 to    15.
 Isotropic polarizability for W=    0.000000       34.44 Bohr**3.
 End of Minotr F.D. properties file   721 does not exist.
 End of Minotr F.D. properties file   722 does not exist.
 End of Minotr F.D. properties file   788 does not exist.
 Leave Link 1002 at Tue Jul 19 05:12:44 2016, MaxMem=    33554432 cpu:       567.1
 (Enter /home/proyectos/fulerenos/M3C-v2.0/M3C-deps_CCC/g09-AM64L-G09RevC.01/l601.exe)
 Copying SCF densities to generalized density rwf, IOpCl= 1 IROHF=0.

 **********************************************************************

            Population analysis using the SCF density.

 **********************************************************************

 Orbital symmetries:
 Alpha Orbitals:
       Occupied  (A1) (B1) (A1) (A1) (A1) (A1) (A1) (B1) (A1) (B2)
                 (B2) (A1) (B1)
       Virtual   (B1) (B2) (A2) (A1) (B1) (A1) (B2) (A1) (B1) (A1)
                 (B2) (A1) (B1) (A2) (A1) (A1) (B2) (B1) (B1) (A1)
                 (B2) (A2) (A1) (A1) (B2) (B1) (A1) (B2) (B1) (A2)
                 (A1) (A1) (B2) (B1) (A1) (B2) (A1) (B1) (A1) (B2)
                 (B1) (A2) (A1) (A1) (B1) (B2) (A1) (B1) (A1) (B1)
                 (A2) (B2) (A1) (B2) (A2) (B1) (B2) (A1) (B1) (A1)
                 (B1) (A2) (B1) (A1) (B2) (A1) (B2) (A1) (B2) (A1)
                 (B1) (A1) (A2) (A1) (B2) (B1) (A2) (A1) (B1) (A1)
                 (A1) (B2) (A2) (A2) (A1) (B1) (A1) (B1) (B2) (B1)
                 (A1) (B2) (A2) (B1) (A1) (B2) (B1) (B2) (A1) (B2)
                 (B2) (A2) (A1) (A1) (B1) (B2) (B1) (B2) (A1) (A2)
                 (B1) (A1) (B2) (A1) (B2) (B1) (B1) (A2) (A1) (B1)
                 (A1) (A1) (B2) (A1) (B1) (A2) (B1) (A2) (A1) (B1)
                 (B2) (A1) (A2) (B1) (B2) (A1) (B2) (A1) (B1) (A2)
                 (A1) (B2) (B1) (A2) (B2) (A1) (B1) (A2) (A1) (B1)
                 (A1) (A2) (B2) (A1) (B1) (A1) (B2) (A1) (B1) (A1)
                 (A1) (B1) (A1)
 Beta  Orbitals:
       Occupied  (A1) (B1) (A1) (A1) (A1) (A1) (A1) (B1) (A1) (B2)
       Virtual   (B2) (B1) (A1) (B1) (B2) (A2) (A1) (B1) (A1) (B2)
                 (A1) (B1) (A1) (B2) (A1) (A2) (B1) (A1) (B2) (A1)
                 (B1) (B1) (A1) (B2) (A2) (A1) (A1) (B2) (B1) (A1)
                 (B1) (B2) (A1) (A2) (A1) (B2) (B1) (A1) (B2) (A1)
                 (B1) (A1) (B2) (B1) (A2) (A1) (A1) (B1) (B2) (A1)
                 (B1) (A1) (A2) (B1) (B2) (A1) (B2) (A2) (B1) (B2)
                 (A1) (B1) (A1) (B1) (A2) (B1) (A1) (B2) (A1) (B2)
                 (A1) (A1) (B2) (B1) (A1) (A2) (A1) (B2) (B1) (A2)
                 (A1) (B1) (A1) (B2) (A1) (A2) (A1) (B1) (A2) (A1)
                 (B1) (B2) (B1) (A1) (B2) (A2) (B1) (A1) (B2) (B1)
                 (B2) (A1) (B2) (B2) (A1) (A2) (A1) (B1) (B1) (B2)
                 (B2) (A1) (B1) (A2) (A1) (B2) (A1) (B2) (B1) (B1)
                 (A2) (A1) (B1) (A1) (A1) (B2) (A1) (B1) (A2) (B1)
                 (A1) (A2) (B1) (B2) (A1) (A2) (B1) (B2) (A1) (B2)
                 (A1) (B1) (A2) (A1) (B2) (B1) (A2) (B2) (A1) (B1)
                 (A2) (A1) (B1) (A1) (B2) (A2) (A1) (B1) (B2) (A1)
                 (A1) (B1) (A1) (A1) (B1) (A1)
 The electronic state is 4-A2.
 Alpha  occ. eigenvalues --  -11.18237 -11.18177 -11.13767 -11.11018  -1.77222
 Alpha  occ. eigenvalues --   -1.59561  -1.35262  -1.33802  -1.27333  -1.24831
 Alpha  occ. eigenvalues --   -1.17927  -1.16383  -1.12549
 Alpha virt. eigenvalues --   -0.92849  -0.88579  -0.86142  -0.67402  -0.65041
 Alpha virt. eigenvalues --   -0.57147  -0.55419  -0.52619  -0.48985  -0.46259
 Alpha virt. eigenvalues --   -0.45375  -0.44445  -0.42406  -0.41260  -0.40564
 Alpha virt. eigenvalues --   -0.36123  -0.35997  -0.35279  -0.32456  -0.32200
 Alpha virt. eigenvalues --   -0.30647  -0.30283  -0.27287  -0.25094  -0.24634
 Alpha virt. eigenvalues --   -0.24030  -0.23360  -0.22285  -0.22159  -0.20310
 Alpha virt. eigenvalues --   -0.19871  -0.18119  -0.14503  -0.14207  -0.12728
 Alpha virt. eigenvalues --   -0.11266  -0.10343  -0.09849  -0.09273  -0.09085
 Alpha virt. eigenvalues --   -0.07567  -0.06330  -0.04889  -0.03254  -0.02809
 Alpha virt. eigenvalues --   -0.02494   0.00136   0.01095   0.02716   0.04327
 Alpha virt. eigenvalues --    0.04439   0.07164   0.09431   0.12754   0.14137
 Alpha virt. eigenvalues --    0.19321   0.20565   0.22086   0.28082   0.34931
 Alpha virt. eigenvalues --    0.35742   0.39517   0.44896   0.45214   0.52105
 Alpha virt. eigenvalues --    0.54263   0.56165   0.59813   0.62417   0.62576
 Alpha virt. eigenvalues --    0.65159   0.67960   0.70501   0.70891   0.75753
 Alpha virt. eigenvalues --    0.76859   0.79812   0.86792   0.96197   0.98254
 Alpha virt. eigenvalues --    1.02280   1.02565   1.07598   1.15943   1.18360
 Alpha virt. eigenvalues --    1.18976   1.28352   1.29898   1.42600   1.54136
 Alpha virt. eigenvalues --    1.61004   1.64933   1.80265   1.83528   1.84423
 Alpha virt. eigenvalues --    1.87212   1.90495   1.91574   1.94822   1.99968
 Alpha virt. eigenvalues --    2.03714   2.05101   2.05113   2.11674   2.12509
 Alpha virt. eigenvalues --    2.15872   2.18333   2.27222   2.31211   2.32859
 Alpha virt. eigenvalues --    2.33871   2.35806   2.37607   2.38821   2.40658
 Alpha virt. eigenvalues --    2.48197   2.51734   2.57333   2.66625   2.69308
 Alpha virt. eigenvalues --    2.80900   2.89886   2.92017   3.14367   3.23569
 Alpha virt. eigenvalues --    3.24586   3.40177   3.45187   3.47061   3.47750
 Alpha virt. eigenvalues --    3.50510   3.55252   3.58918   3.69992   4.16524
 Alpha virt. eigenvalues --    4.25668   4.61513   4.82326   4.87255   6.05032
 Alpha virt. eigenvalues --    6.08901   6.08939   6.10417   6.16159   6.20773
 Alpha virt. eigenvalues --    6.28109   6.35162   6.38796   6.41920   6.43447
 Alpha virt. eigenvalues --    6.45161   6.55874   6.62784   6.63757   7.00147
 Alpha virt. eigenvalues --    7.05241   7.08724   7.37789   7.73037  22.95791
 Alpha virt. eigenvalues --   23.31518  24.20176  24.56002
  Beta  occ. eigenvalues --  -11.15682 -11.15640 -11.13554 -11.10316  -1.73422
  Beta  occ. eigenvalues --   -1.56830  -1.32394  -1.26041  -1.24196  -1.20422
  Beta virt. eigenvalues --   -1.06299  -0.97717  -0.95179  -0.86062  -0.85068
  Beta virt. eigenvalues --   -0.76650  -0.64561  -0.60082  -0.55577  -0.53106
  Beta virt. eigenvalues --   -0.51509  -0.46773  -0.45358  -0.44936  -0.42899
  Beta virt. eigenvalues --   -0.40204  -0.40009  -0.39872  -0.35293  -0.34868
  Beta virt. eigenvalues --   -0.32260  -0.31405  -0.31090  -0.30119  -0.29587
  Beta virt. eigenvalues --   -0.26879  -0.24863  -0.24284  -0.23646  -0.22906
  Beta virt. eigenvalues --   -0.21721  -0.20085  -0.19270  -0.19153  -0.17519
  Beta virt. eigenvalues --   -0.13623  -0.13344  -0.11684  -0.10084  -0.08829
  Beta virt. eigenvalues --   -0.08534  -0.08246  -0.07759  -0.05205  -0.04411
  Beta virt. eigenvalues --   -0.04108  -0.01984  -0.01861  -0.01840   0.00910
  Beta virt. eigenvalues --    0.02381   0.03600   0.05444   0.05993   0.08311
  Beta virt. eigenvalues --    0.10077   0.13510   0.15616   0.20189   0.21403
  Beta virt. eigenvalues --    0.23410   0.29252   0.36490   0.37097   0.40601
  Beta virt. eigenvalues --    0.45683   0.46291   0.54160   0.56436   0.60481
  Beta virt. eigenvalues --    0.61557   0.64129   0.65125   0.68881   0.69238
  Beta virt. eigenvalues --    0.72639   0.74031   0.77876   0.79750   0.82755
  Beta virt. eigenvalues --    0.90464   1.00846   1.03566   1.04899   1.08072
  Beta virt. eigenvalues --    1.11187   1.20857   1.24061   1.24995   1.30295
  Beta virt. eigenvalues --    1.37131   1.45887   1.57827   1.63575   1.67691
  Beta virt. eigenvalues --    1.83213   1.86350   1.88273   1.89948   1.92851
  Beta virt. eigenvalues --    1.95767   1.99177   2.02822   2.05481   2.08080
  Beta virt. eigenvalues --    2.10244   2.14422   2.15682   2.21092   2.22562
  Beta virt. eigenvalues --    2.29403   2.34147   2.36099   2.36234   2.38316
  Beta virt. eigenvalues --    2.41302   2.42960   2.43621   2.51679   2.58713
  Beta virt. eigenvalues --    2.62630   2.69763   2.73869   2.86884   2.91910
  Beta virt. eigenvalues --    2.94527   3.15900   3.26333   3.27667   3.43923
  Beta virt. eigenvalues --    3.49702   3.52197   3.52517   3.52933   3.57232
  Beta virt. eigenvalues --    3.61974   3.74760   4.18855   4.27849   4.63409
  Beta virt. eigenvalues --    4.84562   4.90179   6.08084   6.12328   6.14868
  Beta virt. eigenvalues --    6.18325   6.19572   6.27173   6.30126   6.39227
  Beta virt. eigenvalues --    6.42597   6.44637   6.45882   6.48709   6.64502
  Beta virt. eigenvalues --    6.64755   6.70091   7.04385   7.10268   7.12748
  Beta virt. eigenvalues --    7.38502   7.76852  22.97760  23.33157  24.23331
  Beta virt. eigenvalues --   24.56572
          Condensed to atoms (all electrons):
               1          2          3          4          5          6
     1  C    6.495504  -0.934749  -0.150739  -0.150739   0.360792   0.360792
     2  C   -0.934749   6.422827   0.007493   0.007493  -0.068248  -0.068248
     3  C   -0.150739   0.007493   6.420230  -1.020996   0.000738   0.000738
     4  C   -0.150739   0.007493  -1.020996   6.420230   0.000738   0.000738
     5  H    0.360792  -0.068248   0.000738   0.000738   0.284067  -0.009266
     6  H    0.360792  -0.068248   0.000738   0.000738  -0.009266   0.284067
          Atomic-Atomic Spin Densities.
               1          2          3          4          5          6
     1  C    0.284007   0.093280  -0.007497  -0.007497   0.028944   0.028944
     2  C    0.093280   0.131971  -0.055135  -0.055135   0.004454   0.004454
     3  C   -0.007497  -0.055135   1.175929   0.030638   0.000400   0.000400
     4  C   -0.007497  -0.055135   0.030638   1.175929   0.000400   0.000400
     5  H    0.028944   0.004454   0.000400   0.000400   0.053155  -0.004121
     6  H    0.028944   0.004454   0.000400   0.000400  -0.004121   0.053155
 Mulliken charges and spin densities:
               1          2
     1  C    0.019140   0.420180
     2  C    0.633432   0.123888
     3  C    0.742537   1.144735
     4  C    0.742537   1.144735
     5  H    0.431177   0.083231
     6  H    0.431177   0.083231
 Sum of Mulliken charges =   3.00000   3.00000
 Mulliken charges and spin densities with hydrogens summed into heavy atoms:
               1          2
     1  C    0.881494   0.586643
     2  C    0.633432   0.123888
     3  C    0.742537   1.144735
     4  C    0.742537   1.144735
 APT charges:
               1
     1  C   -0.117868
     2  C   -0.138429
     3  C    0.911471
     4  C    0.911471
     5  H    0.716677
     6  H    0.716677
 Sum of APT charges =   3.00000
 APT charges with hydrogens summed into heavy atoms:
               1
     1  C    1.315487
     2  C   -0.138429
     3  C    0.911471
     4  C    0.911471
 Electronic spatial extent (au):  <R**2>=            177.8396
 Charge=              3.0000 electrons
 Dipole moment (field-independent basis, Debye):
    X=             -0.0000    Y=             -0.0000    Z=              3.5096  Tot=              3.5096
 Quadrupole moment (field-independent basis, Debye-Ang):
   XX=            -11.9078   YY=            -12.1244   ZZ=             20.5983
   XY=              0.0000   XZ=             -0.0000   YZ=             -0.0000
 Traceless Quadrupole moment (field-independent basis, Debye-Ang):
   XX=            -10.7631   YY=            -10.9798   ZZ=             21.7429
   XY=              0.0000   XZ=             -0.0000   YZ=             -0.0000
 Octapole moment (field-independent basis, Debye-Ang**2):
  XXX=              0.0000  YYY=             -0.0000  ZZZ=             42.5350  XYY=              0.0000
  XXY=             -0.0000  XXZ=             -5.1832  XZZ=              0.0000  YZZ=             -0.0000
  YYZ=              9.2939  XYZ=              0.0000
 Hexadecapole moment (field-independent basis, Debye-Ang**3):
 XXXX=            -31.7644 YYYY=            -12.6325 ZZZZ=            -14.2521 XXXY=              0.0000
 XXXZ=              0.0000 YYYX=              0.0000 YYYZ=              0.0000 ZZZX=              0.0000
 ZZZY=             -0.0000 XXYY=             -8.2044 XXZZ=            -22.3182 YYZZ=             -5.0458
 XXYZ=              0.0000 YYXZ=              0.0000 ZZXY=              0.0000
 N-N= 7.803351630814D+01 E-N=-4.880240360114D+02  KE= 1.508689267331D+02
 Symmetry A1   KE= 1.104881561605D+02
 Symmetry A2   KE= 2.461420080338D-19
 Symmetry B1   KE= 3.685458634791D+01
 Symmetry B2   KE= 3.526184224653D+00
  Exact polarizability:  22.796  -0.000  19.789  -0.000  -0.000  60.729
 Approx polarizability:  42.884  -0.000  29.526   0.000  -0.000 140.038
                          Isotropic Fermi Contact Couplings
        Atom                 a.u.       MegaHertz       Gauss      10(-4) cm-1
     1  C(13)             -0.01923      -7.20559      -2.57113      -2.40353
     2  C(13)             -0.04458     -16.70697      -5.96146      -5.57285
     3  C(13)              1.08349     406.01700     144.87696     135.43269
     4  C(13)              1.08349     406.01700     144.87696     135.43269
     5  H(1)               0.04415      65.78373      23.47327      21.94309
     6  H(1)               0.04415      65.78373      23.47327      21.94309
 --------------------------------------------------------
       Center         ----  Spin Dipole Couplings  ----
                      3XX-RR        3YY-RR        3ZZ-RR
 --------------------------------------------------------
     1   Atom        0.156468      0.156434     -0.312902
     2   Atom        0.304684     -0.241727     -0.062956
     3   Atom        0.638665     -0.009107     -0.629558
     4   Atom        0.638665     -0.009107     -0.629558
     5   Atom       -0.033221      0.000546      0.032675
     6   Atom       -0.033221      0.000546      0.032675
 --------------------------------------------------------
                        XY            XZ            YZ
 --------------------------------------------------------
     1   Atom        0.000000      0.000000      0.000000
     2   Atom        0.000000      0.000000     -0.000000
     3   Atom        0.000000     -0.273303     -0.000000
     4   Atom       -0.000000      0.273303     -0.000000
     5   Atom       -0.000000     -0.000000     -0.057803
     6   Atom        0.000000      0.000000      0.057803
 --------------------------------------------------------


 ---------------------------------------------------------------------------------
              Anisotropic Spin Dipole Couplings in Principal Axis System
 ---------------------------------------------------------------------------------

       Atom             a.u.   MegaHertz   Gauss  10(-4) cm-1        Axes

              Baa    -0.3129   -41.988   -14.983   -14.006 -0.0000 -0.0000  1.0000
     1 C(13)  Bbb     0.1564    20.992     7.490     7.002 -0.0000  1.0000  0.0000
              Bcc     0.1565    20.997     7.492     7.004  1.0000  0.0000  0.0000
 
              Baa    -0.2417   -32.437   -11.574   -10.820 -0.0000  1.0000  0.0000
     2 C(13)  Bbb    -0.0630    -8.448    -3.015    -2.818 -0.0000 -0.0000  1.0000
              Bcc     0.3047    40.886    14.589    13.638  1.0000  0.0000  0.0000
 
              Baa    -0.6859   -92.048   -32.845   -30.704  0.2021  0.0000  0.9794
     3 C(13)  Bbb    -0.0091    -1.222    -0.436    -0.408 -0.0000  1.0000 -0.0000
              Bcc     0.6951    93.270    33.281    31.111  0.9794  0.0000 -0.2021
 
              Baa    -0.6859   -92.048   -32.845   -30.704 -0.2021 -0.0000  0.9794
     4 C(13)  Bbb    -0.0091    -1.222    -0.436    -0.408  0.0000  1.0000  0.0000
              Bcc     0.6951    93.270    33.281    31.111  0.9794  0.0000  0.2021
 
              Baa    -0.0434   -23.147    -8.260    -7.721  0.0000  0.7962  0.6051
     5 H(1)   Bbb    -0.0332   -17.725    -6.325    -5.912  1.0000 -0.0000 -0.0000
              Bcc     0.0766    40.872    14.584    13.634 -0.0000 -0.6051  0.7962
 
              Baa    -0.0434   -23.147    -8.260    -7.721  0.0000  0.7962 -0.6051
     6 H(1)   Bbb    -0.0332   -17.725    -6.325    -5.912  1.0000 -0.0000  0.0000
              Bcc     0.0766    40.872    14.584    13.634  0.0000  0.6051  0.7962
 

 ---------------------------------------------------------------------------------

 No NMR shielding tensors so no spin-rotation constants.
 Leave Link  601 at Tue Jul 19 05:12:44 2016, MaxMem=    33554432 cpu:         0.6
 (Enter /home/proyectos/fulerenos/M3C-v2.0/M3C-deps_CCC/g09-AM64L-G09RevC.01/l701.exe)
 Compute integral second derivatives.
 ... and contract with generalized density number  0.
 Leave Link  701 at Tue Jul 19 05:12:45 2016, MaxMem=    33554432 cpu:         0.7
 (Enter /home/proyectos/fulerenos/M3C-v2.0/M3C-deps_CCC/g09-AM64L-G09RevC.01/l702.exe)
 L702 exits ... SP integral derivatives will be done elsewhere.
 Leave Link  702 at Tue Jul 19 05:12:45 2016, MaxMem=    33554432 cpu:         0.1
 (Enter /home/proyectos/fulerenos/M3C-v2.0/M3C-deps_CCC/g09-AM64L-G09RevC.01/l703.exe)
 Compute integral second derivatives, UseDBF=F ICtDFT=           0.
 Integral derivatives from FoFJK, PRISM(SPDF).
 Calling FoFJK, ICntrl=    100127 FMM=F ISym2X=1 I1Cent= 0 IOpClX= 1 NMat=1 NMatS=1 NMatT=0.
 FoFJK:  IHMeth= 1 ICntrl=  100127 DoSepK=F KAlg= 0 I1Cent=   0 FoldK=F
 IRaf=         0 NMat=   1 IRICut=       1 DoRegI=T DoRafI=F ISym2E= 1.
 FoFCou: FMM=F IPFlag=           0 FMFlag=      100000 FMFlg1=         800
         NFxFlg=           0 DoJE=F BraDBF=F KetDBF=F FulRan=T
         wScrn=  0.000000 ICntrl=  100127 IOpCl=  1 I1Cent=           0 NGrid=           0
         NMat0=    1 NMatS0=      1 NMatT0=    0 NMatD0=    1 NMtDS0=    0 NMtDT0=    0
 Petite list used in FoFCou.
 Leave Link  703 at Tue Jul 19 05:16:04 2016, MaxMem=    33554432 cpu:       198.9
 (Enter /home/proyectos/fulerenos/M3C-v2.0/M3C-deps_CCC/g09-AM64L-G09RevC.01/l716.exe)
 Dipole        =-6.34100596D-15 1.09807996D-15 1.38078292D+00
 Polarizability= 2.27959145D+01-3.95159453D-08 1.97894643D+01
                -6.42062668D-08-6.92797151D-08 6.07288093D+01
 Full mass-weighted force constant matrix:
 Low frequencies ---   -4.9246   -0.0026    0.0006    0.0012    6.7542   13.7296
 Low frequencies ---  308.6830  322.2946  548.6837
 Diagonal vibrational polarizability:
       18.5685365      19.1660015      95.5623660
 Harmonic frequencies (cm**-1), IR intensities (KM/Mole), Raman scattering
 activities (A**4/AMU), depolarization ratios for plane and unpolarized
 incident light, reduced masses (AMU), force constants (mDyne/A),
 and normal coordinates:
                      1                      2                      3
                     B1                     B2                     A2
 Frequencies --    308.6828               322.2946               548.6835
 Red. masses --      3.9223                 2.4463                 1.1473
 Frc consts  --      0.2202                 0.1497                 0.2035
 IR Inten    --     36.9126                32.6053                 0.0000
  Atom  AN      X      Y      Z        X      Y      Z        X      Y      Z
     1   6    -0.17  -0.00   0.00     0.00  -0.04   0.00    -0.00   0.00  -0.00
     2   6     0.39   0.00   0.00    -0.00   0.33  -0.00    -0.00  -0.00  -0.00
     3   6    -0.06  -0.00  -0.20     0.00  -0.11   0.00    -0.00  -0.08   0.00
     4   6    -0.06  -0.00   0.20     0.00  -0.11  -0.00     0.00   0.08   0.00
     5   1    -0.61  -0.00  -0.00     0.00  -0.44  -0.49     0.70   0.00   0.00
     6   1    -0.61  -0.00   0.00     0.00  -0.44   0.49    -0.70  -0.00   0.00
                      4                      5                      6
                     B1                     A1                     B2
 Frequencies --    570.0716               582.1615               593.5517
 Red. masses --      9.1094                 4.0318                 1.8602
 Frc consts  --      1.7442                 0.8051                 0.3861
 IR Inten    --     84.2325               758.8573                56.5884
  Atom  AN      X      Y      Z        X      Y      Z        X      Y      Z
     1   6     0.13   0.00   0.00    -0.00  -0.00   0.36    -0.00   0.20   0.00
     2   6     0.39  -0.00   0.00    -0.00   0.00   0.18    -0.00  -0.19   0.00
     3   6    -0.23   0.00   0.48     0.07  -0.00  -0.23     0.00   0.02  -0.00
     4   6    -0.23   0.00  -0.48    -0.07   0.00  -0.23     0.00   0.02   0.00
     5   1    -0.36  -0.00  -0.00     0.00  -0.37  -0.47     0.00  -0.36  -0.58
     6   1    -0.36   0.00  -0.00    -0.00   0.37  -0.47     0.00  -0.36   0.58
                      7                      8                      9
                     A1                     B1                     A1
 Frequencies --    799.1100               893.9684              1227.6691
 Red. masses --      1.4306                 1.5676                 5.5913
 Frc consts  --      0.5383                 0.7381                 4.9650
 IR Inten    --    441.7999                34.6925                89.0292
  Atom  AN      X      Y      Z        X      Y      Z        X      Y      Z
     1   6    -0.00  -0.00   0.05    -0.19  -0.00  -0.00     0.00   0.00   0.22
     2   6    -0.00   0.00   0.06     0.11  -0.00  -0.00    -0.00  -0.00  -0.35
     3   6    -0.07   0.00  -0.11    -0.02   0.00   0.02     0.35  -0.00   0.02
     4   6     0.07  -0.00  -0.11    -0.02   0.00  -0.02    -0.35   0.00   0.02
     5   1    -0.00   0.32   0.62     0.69   0.00  -0.00     0.00   0.24   0.48
     6   1     0.00  -0.32   0.62     0.69   0.00  -0.00    -0.00  -0.24   0.48
                     10                     11                     12
                     A1                     B2                     A1
 Frequencies --   1419.1357              1978.8643              2137.7569
 Red. masses --      5.9447                 1.0781                 1.1065
 Frc consts  --      7.0539                 2.4874                 2.9793
 IR Inten    --    343.9895               930.7205              1783.2247
  Atom  AN      X      Y      Z        X      Y      Z        X      Y      Z
     1   6    -0.00  -0.00  -0.31     0.00  -0.08   0.00     0.00   0.00   0.07
     2   6     0.00   0.00   0.42    -0.00  -0.01  -0.00    -0.00  -0.00  -0.03
     3   6     0.29  -0.00  -0.05     0.00   0.00  -0.00    -0.04  -0.00   0.01
     4   6    -0.29  -0.00  -0.05     0.00   0.00   0.00     0.04   0.00   0.01
     5   1    -0.00   0.52  -0.08    -0.00   0.52  -0.47     0.00   0.61  -0.35
     6   1     0.00  -0.52  -0.08    -0.00   0.52   0.47    -0.00  -0.61  -0.35

 -------------------
 - Thermochemistry -
 -------------------
 Temperature   298.150 Kelvin.  Pressure   1.00000 Atm.
 Atom     1 has atomic number  6 and mass  12.00000
 Atom     2 has atomic number  6 and mass  12.00000
 Atom     3 has atomic number  6 and mass  12.00000
 Atom     4 has atomic number  6 and mass  12.00000
 Atom     5 has atomic number  1 and mass   1.00783
 Atom     6 has atomic number  1 and mass   1.00783
 Molecular mass:    50.01565 amu.
 Principal axes and moments of inertia in atomic units:
                           1         2         3
     Eigenvalues --    47.90191 265.31719 300.50660
           X           -0.00000   1.00000   0.00000
           Y           -0.00000  -0.00000   1.00000
           Z            1.00000   0.00000   0.00000
 This molecule is an asymmetric top.
 Rotational symmetry number  2.
 Rotational temperatures (Kelvin)      1.80815     0.32645     0.28823
 Rotational constants (GHZ):          37.67576     6.80220     6.00566
 Zero-point vibrational energy      68079.2 (Joules/Mol)
                                   16.27131 (Kcal/Mol)
 Warning -- explicit consideration of   6 degrees of freedom as
           vibrations may cause significant error
 Vibrational temperatures:    444.13   463.71   789.43   820.20   837.60
          (Kelvin)            853.99  1149.74  1286.22  1766.34  2041.82
                             2847.14  3075.75
 
 Zero-point correction=                           0.025930 (Hartree/Particle)
 Thermal correction to Energy=                    0.030423
 Thermal correction to Enthalpy=                  0.031367
 Thermal correction to Gibbs Free Energy=        -0.000447
 Sum of electronic and zero-point Energies=           -151.437583
 Sum of electronic and thermal Energies=              -151.433090
 Sum of electronic and thermal Enthalpies=            -151.432146
 Sum of electronic and thermal Free Energies=         -151.463961
 
                     E (Thermal)             CV                S
                      KCal/Mol        Cal/Mol-Kelvin    Cal/Mol-Kelvin
 Total                   19.091             15.071             66.960
 Electronic               0.000              0.000              2.755
 Translational            0.889              2.981             37.653
 Rotational               0.889              2.981             21.484
 Vibrational             17.313              9.109              5.068
 Vibration     1          0.698              1.657              1.369
 Vibration     2          0.707              1.631              1.298
 Vibration     3          0.904              1.143              0.547
 Vibration     4          0.926              1.096              0.504
 Vibration     5          0.939              1.070              0.481
 Vibration     6          0.951              1.046              0.461
                       Q            Log10(Q)             Ln(Q)
 Total Bot       0.160631D+01          0.205829          0.473938
 Total V=0       0.135760D+13         12.132771         27.936738
 Vib (Bot)       0.261127D-11        -11.583148        -26.671183
 Vib (Bot)    1  0.613047D+00         -0.212506         -0.489313
 Vib (Bot)    2  0.582461D+00         -0.234733         -0.540493
 Vib (Bot)    3  0.286378D+00         -0.543061         -1.250443
 Vib (Bot)    4  0.269956D+00         -0.568706         -1.309495
 Vib (Bot)    5  0.261186D+00         -0.583051         -1.342524
 Vib (Bot)    6  0.253237D+00         -0.596473         -1.373430
 Vib (V=0)       0.220696D+01          0.343794          0.791616
 Vib (V=0)    1  0.129109D+01          0.110957          0.255489
 Vib (V=0)    2  0.126763D+01          0.102994          0.237152
 Vib (V=0)    3  0.107621D+01          0.031895          0.073441
 Vib (V=0)    4  0.106822D+01          0.028662          0.065996
 Vib (V=0)    5  0.106411D+01          0.026986          0.062137
 Vib (V=0)    6  0.106047D+01          0.025499          0.058714
 Electronic      0.400000D+01          0.602060          1.386294
 Translational   0.139032D+08          7.143114         16.447628
 Rotational      0.110612D+05          4.043803          9.311199
 
                                                              b3lyp opt
                                                             IR Spectrum
 
      2        1                                1           1                                                                        
      1        9                                4           2                  8     7           5555            33                  
      3        7                                1           2                  9     9           9874            20                  
      8        9                                9           8                  4     9           4209            29                  
 
      X        X                                X           X                  X     X           XXX             XX                  
      X        X                                X                                    X            X                                  
      X        X                                X                                    X            X                                  
      X        X                                X                                    X            X                                  
      X        X                                                                     X            X                                  
      X        X                                                                                  X                                  
      X        X                                                                                  X                                  
      X        X                                                                                  X                                  
      X        X                                                                                  X                                  
      X        X                                                                                                                     
      X                                                                                                                              
      X                                                                                                                              
      X                                                                                                                              
      X                                                                                                                              
      X                                                                                                                              
      X                                                                                                                              
      X                                                                                                                              
      X                                                                                                                              
      X                                                                                                                              
      X                                                                                                                              
 
 ***** Axes restored to original set *****
 -------------------------------------------------------------------
 Center     Atomic                   Forces (Hartrees/Bohr)
 Number     Number              X              Y              Z
 -------------------------------------------------------------------
      1        6           0.000009773    0.000000000   -0.000000000
      2        6           0.000043160    0.000000001   -0.000000000
      3        6          -0.000026167   -0.000194626   -0.000000027
      4        6          -0.000026175    0.000194624    0.000000027
      5        1          -0.000000296   -0.000000001    0.000004107
      6        1          -0.000000296    0.000000001   -0.000004107
 -------------------------------------------------------------------
 Cartesian Forces:  Max     0.000194626 RMS     0.000066299
 Z-matrix is all fixed cartesians, so copy forces.
 Force constants in Cartesian coordinates: 
                1             2             3             4             5 
      1  0.430055D+00
      2  0.708863D-05  0.111195D+00
      3  0.000000D+00 -0.786824D-05  0.168207D+00
      4 -0.373072D+00 -0.700406D-05  0.000000D+00  0.557520D+00
      5 -0.699567D-05 -0.582376D-01 -0.415981D-05  0.105533D-04  0.830718D-01
      6  0.000000D+00 -0.416024D-05 -0.281127D-01  0.000000D+00  0.284228D-05
      7  0.208425D-02 -0.718204D-02  0.000000D+00 -0.929121D-01 -0.314683D-01
      8  0.106577D+00  0.430525D-02  0.000000D+00 -0.701595D-01 -0.253166D-01
      9  0.147032D-04  0.000000D+00  0.481518D-02 -0.967752D-05 -0.179984D-05
     10  0.208867D-02  0.718194D-02  0.000000D+00 -0.929166D-01  0.314653D-01
     11 -0.106577D+00  0.430083D-02  0.000000D+00  0.701564D-01 -0.253120D-01
     12 -0.146970D-04  0.000000D+00  0.481518D-02  0.967646D-05 -0.179973D-05
     13 -0.305778D-01 -0.728600D-05  0.528328D-01  0.690525D-03 -0.212697D-05
     14 -0.861228D-05 -0.307817D-01  0.725699D-05  0.170299D-05  0.128972D-01
     15  0.624238D-01  0.747206D-05 -0.748625D-01 -0.143045D-01  0.213550D-05
     16 -0.305778D-01  0.729513D-05 -0.528328D-01  0.690526D-03  0.158398D-05
     17  0.862139D-05 -0.307817D-01  0.490692D-05 -0.224618D-05  0.128972D-01
     18 -0.624238D-01  0.469553D-05 -0.748625D-01  0.143045D-01  0.277188D-05
                6             7             8             9            10 
      6  0.624991D-01
      7 -0.434188D-05  0.111259D+00
      8 -0.179618D-05  0.329697D-01  0.389422D+00
      9 -0.123166D-01  0.454815D-05  0.520616D-04  0.122392D-01
     10  0.434109D-05  0.839038D-02 -0.833817D-02 -0.114878D-05  0.111262D+00
     11 -0.179432D-05  0.835486D-02 -0.366651D+00 -0.497667D-04 -0.329820D-01
     12 -0.123166D-01  0.115099D-05 -0.497666D-04 -0.604783D-02 -0.455046D-05
     13  0.134280D-01 -0.144108D-01 -0.305246D-01 -0.469505D-03 -0.144122D-01
     14  0.275151D-05 -0.133784D-02 -0.882788D-03  0.672725D-02  0.133575D-02
     15 -0.487659D-02  0.540080D-02  0.119531D-01  0.657622D-03  0.540170D-02
     16 -0.134280D-01 -0.144108D-01 -0.305247D-01  0.461082D-03 -0.144122D-01
     17  0.215433D-05 -0.133635D-02 -0.877633D-03 -0.672767D-02  0.133724D-02
     18 -0.487659D-02 -0.540117D-02 -0.119535D-01  0.652467D-03 -0.540133D-02
               11            12            13            14            15 
     11  0.389419D+00
     12  0.520614D-04  0.122392D-01
     13  0.305241D-01 -0.460783D-03  0.635669D-01
     14 -0.876216D-03 -0.672769D-02  0.965927D-05  0.147984D-01
     15 -0.119533D-01  0.652467D-03 -0.621262D-01 -0.137696D-04  0.104551D+00
     16  0.305240D-01  0.469206D-03 -0.485675D-02  0.000000D+00  0.320439D-02
     17 -0.881371D-03  0.672727D-02  0.000000D+00  0.484501D-02  0.434571D-05
     18  0.119529D-01  0.657622D-03 -0.320439D-02  0.420318D-05 -0.261223D-01
               16            17            18 
     16  0.635670D-01
     17 -0.749002D-05  0.147984D-01
     18  0.621262D-01 -0.110062D-04  0.104551D+00
 Leave Link  716 at Tue Jul 19 05:16:04 2016, MaxMem=    33554432 cpu:         0.1
 (Enter /home/proyectos/fulerenos/M3C-v2.0/M3C-deps_CCC/g09-AM64L-G09RevC.01/l103.exe)

 GradGradGradGradGradGradGradGradGradGradGradGradGradGradGradGradGradGrad
 Berny optimization.
 Search for a local minimum.
 Step number   1 out of a maximum of    2
 All quantities printed in internal units (Hartrees-Bohrs-Radians)
 Second derivative matrix not updated -- analytic derivatives used.
 The second derivative matrix:
                          X1        Y1        Z1        X2        Y2
           X1           0.43006
           Y1           0.00001   0.11119
           Z1          -0.00000  -0.00001   0.16821
           X2          -0.37307  -0.00001  -0.00000   0.55752
           Y2          -0.00001  -0.05824  -0.00000   0.00001   0.08307
           Z2          -0.00000  -0.00000  -0.02811   0.00000   0.00000
           X3           0.00208  -0.00718  -0.00000  -0.09291  -0.03147
           Y3           0.10658   0.00431  -0.00000  -0.07016  -0.02532
           Z3           0.00001  -0.00000   0.00482  -0.00001  -0.00000
           X4           0.00209   0.00718   0.00000  -0.09292   0.03147
           Y4          -0.10658   0.00430  -0.00000   0.07016  -0.02531
           Z4          -0.00001  -0.00000   0.00482   0.00001  -0.00000
           X5          -0.03058  -0.00001   0.05283   0.00069  -0.00000
           Y5          -0.00001  -0.03078   0.00001   0.00000   0.01290
           Z5           0.06242   0.00001  -0.07486  -0.01430   0.00000
           X6          -0.03058   0.00001  -0.05283   0.00069   0.00000
           Y6           0.00001  -0.03078   0.00000  -0.00000   0.01290
           Z6          -0.06242   0.00000  -0.07486   0.01430   0.00000
                          Z2        X3        Y3        Z3        X4
           Z2           0.06250
           X3          -0.00000   0.11126
           Y3          -0.00000   0.03297   0.38942
           Z3          -0.01232   0.00000   0.00005   0.01224
           X4           0.00000   0.00839  -0.00834  -0.00000   0.11126
           Y4          -0.00000   0.00835  -0.36665  -0.00005  -0.03298
           Z4          -0.01232   0.00000  -0.00005  -0.00605  -0.00000
           X5           0.01343  -0.01441  -0.03052  -0.00047  -0.01441
           Y5           0.00000  -0.00134  -0.00088   0.00673   0.00134
           Z5          -0.00488   0.00540   0.01195   0.00066   0.00540
           X6          -0.01343  -0.01441  -0.03052   0.00046  -0.01441
           Y6           0.00000  -0.00134  -0.00088  -0.00673   0.00134
           Z6          -0.00488  -0.00540  -0.01195   0.00065  -0.00540
                          Y4        Z4        X5        Y5        Z5
           Y4           0.38942
           Z4           0.00005   0.01224
           X5           0.03052  -0.00046   0.06357
           Y5          -0.00088  -0.00673   0.00001   0.01480
           Z5          -0.01195   0.00065  -0.06213  -0.00001   0.10455
           X6           0.03052   0.00047  -0.00486  -0.00000   0.00320
           Y6          -0.00088   0.00673   0.00000   0.00485   0.00000
           Z6           0.01195   0.00066  -0.00320   0.00000  -0.02612
                          X6        Y6        Z6
           X6           0.06357
           Y6          -0.00001   0.01480
           Z6           0.06213  -0.00001   0.10455
 ITU=  0
     Eigenvalues ---    0.01203   0.02020   0.02327   0.02616   0.08603
     Eigenvalues ---    0.12590   0.14374   0.18138   0.21397   0.25531
     Eigenvalues ---    0.64114   1.01817
 Angle between quadratic step and forces=  59.41 degrees.
 ClnCor:  largest displacement from symmetrization is 1.16D-10 for atom     6.
 Linear search not attempted -- first point.
 ClnCor:  largest displacement from symmetrization is 2.66D-15 for atom     6.
 B after Tr=     0.000089    0.000000   -0.000000
         Rot=    1.000000    0.000000   -0.000000   -0.000000 Ang=   0.00 deg.
 Variable       Old X    -DE/DX   Delta X   Delta X   Delta X     New X
                                 (Linear)    (Quad)   (Total)
    X1       -2.85599   0.00001   0.00000   0.00036   0.00045  -2.85554
    Y1       -0.00007   0.00000   0.00000   0.00000   0.00000  -0.00007
    Z1        0.00001  -0.00000   0.00000   0.00000   0.00000   0.00001
    X2       -0.28685   0.00004   0.00000   0.00020   0.00029  -0.28657
    Y2       -0.00001   0.00000   0.00000   0.00000   0.00000  -0.00001
    Z2        0.00001  -0.00000   0.00000   0.00000  -0.00000   0.00001
    X3        2.28151  -0.00003   0.00000  -0.00009  -0.00000   2.28151
    Y3        1.31574  -0.00019   0.00000  -0.00032  -0.00032   1.31543
    Z3        0.00020  -0.00000   0.00000  -0.00000  -0.00000   0.00020
    X4        2.28157  -0.00003   0.00000  -0.00009  -0.00000   2.28157
    Y4       -1.31566   0.00019   0.00000   0.00032   0.00032  -1.31534
    Z4       -0.00017   0.00000   0.00000   0.00000   0.00000  -0.00017
    X5       -4.26073  -0.00000   0.00000  -0.00045  -0.00036  -4.26109
    Y5       -0.00035  -0.00000   0.00000   0.00000   0.00000  -0.00035
    Z5        1.77581   0.00000   0.00000  -0.00026  -0.00026   1.77555
    X6       -4.26073  -0.00000   0.00000  -0.00045  -0.00036  -4.26109
    Y6        0.00014   0.00000   0.00000  -0.00000  -0.00000   0.00014
    Z6       -1.77578  -0.00000   0.00000   0.00026   0.00026  -1.77552
         Item               Value     Threshold  Converged?
 Maximum Force            0.000195     0.000450     YES
 RMS     Force            0.000066     0.000300     YES
 Maximum Displacement     0.000450     0.001800     YES
 RMS     Displacement     0.000221     0.001200     YES
 Predicted change in Energy=-6.889005D-08
 Optimization completed.
    -- Stationary point found.
 GradGradGradGradGradGradGradGradGradGradGradGradGradGradGradGradGradGrad

 Leave Link  103 at Tue Jul 19 05:16:04 2016, MaxMem=    33554432 cpu:         0.0
 (Enter /home/proyectos/fulerenos/M3C-v2.0/M3C-deps_CCC/g09-AM64L-G09RevC.01/l9999.exe)
 1\1\GINC-EINSTENIO\Freq\UB3LYP\6-311++G(3df,2p)\C4H2(3+,4)\ROOT\19-Jul
 -2016\0\\#p b3lyp/6-311++G(3df,2p) freq symmetry=Loose\\b3lyp opt\\3,4
 \C,-1.511326999,-0.0000379778,0.0000075048\C,-0.151796001,-0.000007741
 5,0.0000075048\C,1.207325015,0.6962614816,0.0001035997\C,1.2073559841,
 -0.6962165094,-0.00008859\H,-2.254682115,-0.0001842091,0.939718146\H,-
 2.2546821208,0.0000751886,-0.9397031363\\Version=EM64L-G09RevE.01\Stat
 e=4-A2\HF=-151.4635132\S2=3.773694\S2-1=0.\S2A=3.75018\RMSD=7.251e-09\
 RMSF=6.630e-05\ZeroPoint=0.02593\Thermal=0.030423\Dipole=-1.3807829,-0
 .0000307,0.\DipoleDeriv=-0.699012,-0.0000298,0.,-0.0000298,0.6403418,0
 .0001291,0.,0.000129,-0.2949346,-1.0545711,-0.0000245,0.,-0.0000244,0.
 0449627,-0.0000758,0.,-0.0000758,0.5943223,1.2184424,0.396095,0.000054
 7,0.5870917,0.8686586,0.0000306,0.000081,0.0000306,0.6473119,1.2184862
 ,-0.3960795,-0.0000547,-0.5870762,0.8686149,0.0000305,-0.000081,0.0000
 305,0.6473119,1.1583272,0.0000576,-0.2770556,0.0000942,0.288711,-0.000
 0633,-0.5424787,-0.0000692,0.7029942,1.1583272,-0.0000189,0.2770556,-0
 .0000555,0.288711,-0.000051,0.5424787,-0.0000451,0.7029942\Polar=60.72
 88092,0.0008437,22.7959145,0.,0.000415,19.7894644\PG=C02V [C2(C1C1),SG
 V(H2),SGV'(C2)]\NImag=0\\0.43005517,0.00000709,0.11119490,0.,-0.000007
 87,0.16820733,-0.37307250,-0.00000700,0.,0.55752022,-0.00000700,-0.058
 23763,-0.00000416,0.00001055,0.08307180,0.,-0.00000416,-0.02811265,0.,
 0.00000284,0.06249913,0.00208425,-0.00718204,-0.00000099,-0.09291213,-
 0.03146828,-0.00000434,0.11125899,0.10657728,0.00430525,-0.00000007,-0
 .07015945,-0.02531657,-0.00000180,0.03296965,0.38942226,0.00001470,-0.
 00000007,0.00481518,-0.00000968,-0.00000180,-0.01231665,0.00000455,0.0
 0005206,0.01223920,0.00208867,0.00718194,0.00000099,-0.09291665,0.0314
 6527,0.00000434,0.00839038,-0.00833817,-0.00000115,0.11126193,-0.10657
 738,0.00430083,-0.00000007,0.07015644,-0.02531205,-0.00000179,0.008354
 86,-0.36665053,-0.00004977,-0.03298202,0.38941932,-0.00001470,-0.00000
 007,0.00481518,0.00000968,-0.00000180,-0.01231664,0.00000115,-0.000049
 77,-0.00604783,-0.00000455,0.00005206,0.01223920,-0.03057780,-0.000007
 29,0.05283278,0.00069053,-0.00000213,0.01342804,-0.01441075,-0.0305245
 9,-0.00046950,-0.01441217,0.03052412,-0.00046078,0.06356695,-0.0000086
 1,-0.03078168,0.00000726,0.00000170,0.01289722,0.00000275,-0.00133784,
 -0.00088279,0.00672725,0.00133575,-0.00087622,-0.00672769,0.00000966,0
 .01479844,0.06242377,0.00000747,-0.07486252,-0.01430451,0.00000214,-0.
 00487659,0.00540080,0.01195310,0.00065762,0.00540170,-0.01195328,0.000
 65247,-0.06212615,-0.00001377,0.10455127,-0.03057780,0.00000730,-0.052
 83278,0.00069053,0.00000158,-0.01342804,-0.01441075,-0.03052472,0.0004
 6108,-0.01441217,0.03052399,0.00046921,-0.00485675,-0.00000066,0.00320
 439,0.06356695,0.00000862,-0.03078168,0.00000491,-0.00000225,0.0128972
 2,0.00000215,-0.00133635,-0.00087763,-0.00672767,0.00133724,-0.0008813
 7,0.00672727,0.00000023,0.00484501,0.00000435,-0.00000749,0.01479844,-
 0.06242377,0.00000470,-0.07486252,0.01430451,0.00000277,-0.00487659,-0
 .00540117,-0.01195352,0.00065247,-0.00540133,0.01195286,0.00065762,-0.
 00320439,0.00000420,-0.02612225,0.06212615,-0.00001101,0.10455127\\-0.
 00000977,0.,0.,-0.00004316,0.,0.,0.00002617,0.00019463,0.00000003,0.00
 002618,-0.00019462,-0.00000003,0.00000030,0.,-0.00000411,0.00000030,0.
 ,0.00000411\\\@


 VIRTUE IS LEARNED AT YOUR MOTHER'S KNEE,
 VICES ARE PICKED UP AT SOME OTHER JOINT.
 Job cpu time:       0 days  0 hours 15 minutes 55.1 seconds.
 File lengths (MBytes):  RWF=     31 Int=      0 D2E=      0 Chk=      4 Scr=      1
 Normal termination of Gaussian 09 at Tue Jul 19 05:16:05 2016.
