 Entering Gaussian System, Link 0=/home/proyectos/fulerenos/M3C-v2.0/M3C-deps_CCC/g09-AM64L-G09RevC.01/g09
 Initial command:
 /home/proyectos/fulerenos/M3C-v2.0/M3C-deps_CCC/g09-AM64L-G09RevC.01/l1.exe "/scratch/naguirre/gaussian/Gau-15221.inp" -scrdir="/scratch/naguirre/gaussian/"
 Entering Link 1 = /home/proyectos/fulerenos/M3C-v2.0/M3C-deps_CCC/g09-AM64L-G09RevC.01/l1.exe PID=     15225.
  
 Copyright (c) 1988,1990,1992,1993,1995,1998,2003,2009,2015,
            Gaussian, Inc.  All Rights Reserved.
  
 This is part of the Gaussian(R) 09 program.  It is based on
 the Gaussian(R) 03 system (copyright 2003, Gaussian, Inc.),
 the Gaussian(R) 98 system (copyright 1998, Gaussian, Inc.),
 the Gaussian(R) 94 system (copyright 1995, Gaussian, Inc.),
 the Gaussian 92(TM) system (copyright 1992, Gaussian, Inc.),
 the Gaussian 90(TM) system (copyright 1990, Gaussian, Inc.),
 the Gaussian 88(TM) system (copyright 1988, Gaussian, Inc.),
 the Gaussian 86(TM) system (copyright 1986, Carnegie Mellon
 University), and the Gaussian 82(TM) system (copyright 1983,
 Carnegie Mellon University). Gaussian is a federally registered
 trademark of Gaussian, Inc.
  
 This software contains proprietary and confidential information,
 including trade secrets, belonging to Gaussian, Inc.
  
 This software is provided under written license and may be
 used, copied, transmitted, or stored only in accord with that
 written license.
  
 The following legend is applicable only to US Government
 contracts under FAR:
  
                    RESTRICTED RIGHTS LEGEND
  
 Use, reproduction and disclosure by the US Government is
 subject to restrictions as set forth in subparagraphs (a)
 and (c) of the Commercial Computer Software - Restricted
 Rights clause in FAR 52.227-19.
  
 Gaussian, Inc.
 340 Quinnipiac St., Bldg. 40, Wallingford CT 06492
  
  
 ---------------------------------------------------------------
 Warning -- This program may not be used in any manner that
 competes with the business of Gaussian, Inc. or will provide
 assistance to any competitor of Gaussian, Inc.  The licensee
 of this program is prohibited from giving any competitor of
 Gaussian, Inc. access to this program.  By using this program,
 the user acknowledges that Gaussian, Inc. is engaged in the
 business of creating and licensing software in the field of
 computational chemistry and represents and warrants to the
 licensee that it is not a competitor of Gaussian, Inc. and that
 it will not use this program in any manner prohibited above.
 ---------------------------------------------------------------
  

 Cite this work as:
 Gaussian 09, Revision E.01,
 M. J. Frisch, G. W. Trucks, H. B. Schlegel, G. E. Scuseria, 
 M. A. Robb, J. R. Cheeseman, G. Scalmani, V. Barone, B. Mennucci, 
 G. A. Petersson, H. Nakatsuji, M. Caricato, X. Li, H. P. Hratchian, 
 A. F. Izmaylov, J. Bloino, G. Zheng, J. L. Sonnenberg, M. Hada, 
 M. Ehara, K. Toyota, R. Fukuda, J. Hasegawa, M. Ishida, T. Nakajima, 
 Y. Honda, O. Kitao, H. Nakai, T. Vreven, J. A. Montgomery, Jr., 
 J. E. Peralta, F. Ogliaro, M. Bearpark, J. J. Heyd, E. Brothers, 
 K. N. Kudin, V. N. Staroverov, T. Keith, R. Kobayashi, J. Normand, 
 K. Raghavachari, A. Rendell, J. C. Burant, S. S. Iyengar, J. Tomasi, 
 M. Cossi, N. Rega, J. M. Millam, M. Klene, J. E. Knox, J. B. Cross, 
 V. Bakken, C. Adamo, J. Jaramillo, R. Gomperts, R. E. Stratmann, 
 O. Yazyev, A. J. Austin, R. Cammi, C. Pomelli, J. W. Ochterski, 
 R. L. Martin, K. Morokuma, V. G. Zakrzewski, G. A. Voth, 
 P. Salvador, J. J. Dannenberg, S. Dapprich, A. D. Daniels, 
 O. Farkas, J. B. Foresman, J. V. Ortiz, J. Cioslowski, 
 and D. J. Fox, Gaussian, Inc., Wallingford CT, 2013.
 
 ******************************************
 Gaussian 09:  EM64L-G09RevE.01 30-Nov-2015
                19-Jul-2016 
 ******************************************
 %NProcShared=1
 Will use up to    1 processors via shared memory.
 ---------------------------------------------
 #p b3lyp/6-311++G(3df,2p) freq symmetry=Loose
 ---------------------------------------------
 1/10=4,30=1,38=1/1,3;
 2/12=2,17=4,18=3,40=1/2;
 3/5=4,6=6,7=1216,11=2,16=1,25=1,30=1,71=2,74=-5,140=1/1,2,3;
 4//1;
 5/5=2,38=5,98=1/2;
 8/6=4,10=90,11=11/1;
 11/6=1,8=1,9=11,15=111,16=1/1,2,10;
 10/6=1/2;
 6/7=2,8=2,9=2,10=2,18=1,28=1/1;
 7/8=1,10=1,25=1/1,2,3,16;
 1/10=4,30=1/3;
 99//99;
 Leave Link    1 at Tue Jul 19 06:36:31 2016, MaxMem=           0 cpu:         0.1
 (Enter /home/proyectos/fulerenos/M3C-v2.0/M3C-deps_CCC/g09-AM64L-G09RevC.01/l101.exe)
 ---------
 b3lyp opt
 ---------
 Symbolic Z-matrix:
 Charge =  3 Multiplicity = 2
 C                    -0.6988    0.00013  -0.00039 
 C                     0.54013   0.78527   0.00006 
 C                     1.68275   0.00001   0.00043 
 C                     0.54005  -0.78514   0.00001 
 C                    -2.00943   0.00019  -0.00084 
 H                    -3.13905   0.00025  -0.00123 
 H                     2.8102   -0.00005   0.00082 
 
 NAtoms=      7 NQM=        7 NQMF=       0 NMMI=      0 NMMIF=      0
                NMic=       0 NMicF=      0.
                    Isotopes and Nuclear Properties:
 (Nuclear quadrupole moments (NQMom) in fm**2, nuclear magnetic moments (NMagM)
  in nuclear magnetons)

  Atom         1           2           3           4           5           6           7
 IAtWgt=          12          12          12          12          12           1           1
 AtmWgt=  12.0000000  12.0000000  12.0000000  12.0000000  12.0000000   1.0078250   1.0078250
 NucSpn=           0           0           0           0           0           1           1
 AtZEff=   0.0000000   0.0000000   0.0000000   0.0000000   0.0000000   0.0000000   0.0000000
 NQMom=    0.0000000   0.0000000   0.0000000   0.0000000   0.0000000   0.0000000   0.0000000
 NMagM=    0.0000000   0.0000000   0.0000000   0.0000000   0.0000000   2.7928460   2.7928460
 AtZNuc=   6.0000000   6.0000000   6.0000000   6.0000000   6.0000000   1.0000000   1.0000000
 Leave Link  101 at Tue Jul 19 06:36:32 2016, MaxMem=    33554432 cpu:         0.3
 (Enter /home/proyectos/fulerenos/M3C-v2.0/M3C-deps_CCC/g09-AM64L-G09RevC.01/l103.exe)

 GradGradGradGradGradGradGradGradGradGradGradGradGradGradGradGradGradGrad
 Berny optimization.
 Initialization pass.
 Trust Radius=3.00D-01 FncErr=1.00D-07 GrdErr=1.00D-07
 Number of steps in this run=      2 maximum allowed number of steps=      2.
 GradGradGradGradGradGradGradGradGradGradGradGradGradGradGradGradGradGrad

 Leave Link  103 at Tue Jul 19 06:36:32 2016, MaxMem=    33554432 cpu:         0.1
 (Enter /home/proyectos/fulerenos/M3C-v2.0/M3C-deps_CCC/g09-AM64L-G09RevC.01/l202.exe)
                          Input orientation:                          
 ---------------------------------------------------------------------
 Center     Atomic      Atomic             Coordinates (Angstroms)
 Number     Number       Type             X           Y           Z
 ---------------------------------------------------------------------
      1          6           0       -0.698800    0.000127   -0.000387
      2          6           0        0.540129    0.785269    0.000064
      3          6           0        1.682748    0.000006    0.000432
      4          6           0        0.540049   -0.785142    0.000013
      5          6           0       -2.009432    0.000193   -0.000838
      6          1           0       -3.139050    0.000251   -0.001227
      7          1           0        2.810197   -0.000052    0.000820
 ---------------------------------------------------------------------
                    Distance matrix (angstroms):
                    1          2          3          4          5
     1  C    0.000000
     2  C    1.466763   0.000000
     3  C    2.381548   1.386440   0.000000
     4  C    1.466763   1.570411   1.386440   0.000000
     5  C    1.310632   2.667697   3.692180   2.667697   0.000000
     6  H    2.440250   3.761996   4.821798   3.761996   1.129618
     7  H    3.508998   2.402070   1.127450   2.402070   4.819630
                    6          7
     6  H    0.000000
     7  H    5.949248   0.000000
 Stoichiometry    C5H2(3+,2)
 Framework group  C2V[C2(HCCCH),SGV(C2)]
 Deg. of freedom     6
 Full point group                 C2V     NOp   4
 Largest Abelian subgroup         C2V     NOp   4
 Largest concise Abelian subgroup C2      NOp   2
                         Standard orientation:                         
 ---------------------------------------------------------------------
 Center     Atomic      Atomic             Coordinates (Angstroms)
 Number     Number       Type             X           Y           Z
 ---------------------------------------------------------------------
      1          6           0       -0.000000    0.000000    0.698779
      2          6           0        0.000000   -0.785205   -0.540111
      3          6           0        0.000000   -0.000000   -1.682769
      4          6           0        0.000000    0.785205   -0.540111
      5          6           0       -0.000000    0.000000    2.009411
      6          1           0       -0.000000    0.000000    3.139028
      7          1           0        0.000000   -0.000000   -2.810219
 ---------------------------------------------------------------------
 Rotational constants (GHZ):     34.1538204      4.4651850      3.9489139
 Leave Link  202 at Tue Jul 19 06:36:32 2016, MaxMem=    33554432 cpu:         0.0
 (Enter /home/proyectos/fulerenos/M3C-v2.0/M3C-deps_CCC/g09-AM64L-G09RevC.01/l301.exe)
 Standard basis: 6-311++G(3df,2p) (5D, 7F)
 Ernie: Thresh=  0.10000D-02 Tol=  0.10000D-05 Strict=F.
 There are   106 symmetry adapted cartesian basis functions of A1  symmetry.
 There are    26 symmetry adapted cartesian basis functions of A2  symmetry.
 There are    48 symmetry adapted cartesian basis functions of B1  symmetry.
 There are    65 symmetry adapted cartesian basis functions of B2  symmetry.
 There are    89 symmetry adapted basis functions of A1  symmetry.
 There are    25 symmetry adapted basis functions of A2  symmetry.
 There are    44 symmetry adapted basis functions of B1  symmetry.
 There are    57 symmetry adapted basis functions of B2  symmetry.
   215 basis functions,   314 primitive gaussians,   245 cartesian basis functions
    15 alpha electrons       14 beta electrons
       nuclear repulsion energy       121.1348732047 Hartrees.
 IExCor=  402 DFT=T Ex+Corr=B3LYP ExCW=0 ScaHFX=  0.200000
 ScaDFX=  0.800000  0.720000  1.000000  0.810000 ScalE2=  1.000000  1.000000
 IRadAn=      0 IRanWt=     -1 IRanGd=            0 ICorTp=0 IEmpDi=  4
 NAtoms=    7 NActive=    7 NUniq=    6 SFac= 1.36D+00 NAtFMM=   60 NAOKFM=F Big=F
 Integral buffers will be    131072 words long.
 Raffenetti 2 integral format.
 Two-electron integral symmetry is turned on.
 Leave Link  301 at Tue Jul 19 06:36:32 2016, MaxMem=    33554432 cpu:         0.2
 (Enter /home/proyectos/fulerenos/M3C-v2.0/M3C-deps_CCC/g09-AM64L-G09RevC.01/l302.exe)
 NPDir=0 NMtPBC=     1 NCelOv=     1 NCel=       1 NClECP=     1 NCelD=      1
         NCelK=      1 NCelE2=     1 NClLst=     1 CellRange=     0.0.
 One-electron integrals computed using PRISM.
 One-electron integral symmetry used in STVInt
 NBasis=   215 RedAO= T EigKep=  2.52D-06  NBF=    89    25    44    57
 NBsUse=   215 1.00D-06 EigRej= -1.00D+00 NBFU=    89    25    44    57
 Precomputing XC quadrature grid using
 IXCGrd= 4 IRadAn=           0 IRanWt=          -1 IRanGd=           0 AccXCQ= 0.00D+00.
 Generated NRdTot=       0 NPtTot=           0 NUsed=           0 NTot=          32
 NSgBfM=   245   245   245   245   245 MxSgAt=     7 MxSgA2=     7.
 Leave Link  302 at Tue Jul 19 06:36:33 2016, MaxMem=    33554432 cpu:         0.5
 (Enter /home/proyectos/fulerenos/M3C-v2.0/M3C-deps_CCC/g09-AM64L-G09RevC.01/l303.exe)
 DipDrv:  MaxL=1.
 Leave Link  303 at Tue Jul 19 06:36:33 2016, MaxMem=    33554432 cpu:         0.1
 (Enter /home/proyectos/fulerenos/M3C-v2.0/M3C-deps_CCC/g09-AM64L-G09RevC.01/l401.exe)
 ExpMin= 3.60D-02 ExpMax= 4.56D+03 ExpMxC= 6.82D+02 IAcc=3 IRadAn=         5 AccDes= 0.00D+00
 Harris functional with IExCor=  402 and IRadAn=       5 diagonalized for initial guess.
 HarFok:  IExCor=  402 AccDes= 0.00D+00 IRadAn=         5 IDoV= 1 UseB2=F ITyADJ=14
 ICtDFT=  3500011 ScaDFX=  1.000000  1.000000  1.000000  1.000000
 FoFCou: FMM=F IPFlag=           0 FMFlag=      100000 FMFlg1=           0
         NFxFlg=           0 DoJE=T BraDBF=F KetDBF=T FulRan=T
         wScrn=  0.000000 ICntrl=     500 IOpCl=  0 I1Cent=   200000004 NGrid=           0
         NMat0=    1 NMatS0=      1 NMatT0=    0 NMatD0=    1 NMtDS0=    0 NMtDT0=    0
 Petite list used in FoFCou.
 Harris En= -190.627904427540    
 JPrj=0 DoOrth=F DoCkMO=F.
 Initial guess orbital symmetries:
 Alpha Orbitals:
       Occupied  (A1) (A1) (A1) (A1) (B2) (A1) (A1) (A1) (B2) (A1)
                 (A1) (B2) (B1) (A1) (B1)
       Virtual   (B2) (B1) (A2) (B2) (A1) (B1) (A1) (A1) (B2) (A1)
                 (B1) (B2) (A1) (B1) (A1) (A1) (A2) (B2) (B1) (A1)
                 (A1) (B2) (A1) (B1) (A1) (B2) (B2) (B2) (A1) (B2)
                 (A1) (A1) (A2) (A1) (A1) (B1) (A1) (A1) (B1) (A2)
                 (B2) (A1) (B2) (B1) (B2) (A2) (A1) (B2) (B1) (A1)
                 (B1) (A1) (B2) (B1) (A1) (A2) (A1) (B2) (A1) (A1)
                 (B1) (B2) (A1) (A2) (B2) (A1) (B1) (A2) (B1) (A1)
                 (B2) (A1) (B2) (A1) (B2) (A1) (B1) (B1) (A1) (B2)
                 (B2) (A1) (A2) (A1) (B2) (B1) (A1) (A1) (A1) (A2)
                 (B1) (A1) (A1) (B2) (A2) (A1) (B1) (A1) (B2) (A2)
                 (A1) (B2) (B1) (B2) (A2) (B1) (A1) (B2) (B2) (A1)
                 (A1) (B1) (B1) (A2) (A1) (B1) (A1) (B2) (B2) (B1)
                 (A1) (B1) (A2) (A1) (B2) (B1) (B1) (B2) (A1) (B1)
                 (A2) (B2) (A1) (B1) (A1) (B2) (A1) (B2) (A2) (A1)
                 (B2) (B1) (B2) (A1) (A1) (B2) (A1) (A2) (A1) (B1)
                 (B2) (A1) (B2) (B1) (A1) (A2) (B2) (A1) (B1) (A2)
                 (B1) (B2) (B2) (A1) (B1) (B2) (A1) (A1) (B2) (A1)
                 (A2) (A1) (B1) (A2) (A1) (B2) (A2) (A1) (B1) (B1)
                 (A1) (B2) (A2) (B1) (A2) (A1) (B1) (A1) (B2) (A1)
                 (A1) (B2) (A1) (B2) (B2) (A1) (A1) (B2) (A1) (A1)
 Beta  Orbitals:
       Occupied  (A1) (A1) (A1) (A1) (B2) (A1) (A1) (A1) (B2) (A1)
                 (A1) (B2) (B1) (A1)
       Virtual   (B1) (B2) (B1) (A2) (B2) (A1) (B1) (A1) (A1) (B2)
                 (A1) (B1) (B2) (A1) (B1) (A1) (A1) (A2) (B2) (B1)
                 (A1) (A1) (B2) (A1) (B1) (A1) (B2) (B2) (B2) (A1)
                 (B2) (A1) (A1) (A2) (A1) (A1) (B1) (A1) (A1) (B1)
                 (A2) (B2) (A1) (B2) (B1) (B2) (A2) (A1) (B2) (B1)
                 (A1) (B1) (A1) (B2) (B1) (A1) (A2) (A1) (B2) (A1)
                 (A1) (B1) (B2) (A1) (A2) (B2) (A1) (B1) (A2) (B1)
                 (A1) (B2) (A1) (B2) (A1) (B2) (A1) (B1) (B1) (A1)
                 (B2) (B2) (A1) (A2) (A1) (B2) (B1) (A1) (A1) (A1)
                 (A2) (B1) (A1) (A1) (B2) (A2) (A1) (B1) (A1) (B2)
                 (A2) (A1) (B2) (B1) (B2) (A2) (B1) (A1) (B2) (B2)
                 (A1) (A1) (B1) (B1) (A2) (A1) (B1) (A1) (B2) (B2)
                 (B1) (A1) (B1) (A2) (A1) (B2) (B1) (B1) (B2) (A1)
                 (B1) (A2) (B2) (A1) (B1) (A1) (B2) (A1) (B2) (A2)
                 (A1) (B2) (B1) (B2) (A1) (A1) (B2) (A1) (A2) (A1)
                 (B1) (B2) (A1) (B2) (B1) (A1) (A2) (B2) (A1) (B1)
                 (A2) (B1) (B2) (B2) (A1) (B1) (B2) (A1) (A1) (B2)
                 (A1) (A2) (A1) (B1) (A2) (A1) (B2) (A2) (A1) (B1)
                 (B1) (A1) (B2) (A2) (B1) (A2) (A1) (B1) (A1) (B2)
                 (A1) (A1) (B2) (A1) (B2) (B2) (A1) (A1) (B2) (A1)
                 (A1)
 The electronic state of the initial guess is 2-B1.
 Initial guess <Sx>= 0.0000 <Sy>= 0.0000 <Sz>= 0.5000 <S**2>= 0.7500 S= 0.5000
 Leave Link  401 at Tue Jul 19 06:36:36 2016, MaxMem=    33554432 cpu:         2.7
 (Enter /home/proyectos/fulerenos/M3C-v2.0/M3C-deps_CCC/g09-AM64L-G09RevC.01/l502.exe)
 UHF open shell SCF:
 Using DIIS extrapolation, IDIIS=  1040.
 Integral symmetry usage will be decided dynamically.
 IVT=      202249 IEndB=      202249 NGot=    33554432 MDV=    33429094
 LenX=    33429094 LenY=    33368628
 Requested convergence on RMS density matrix=1.00D-08 within 128 cycles.
 Requested convergence on MAX density matrix=1.00D-06.
 Requested convergence on             energy=1.00D-06.
 No special actions if energy rises.
 Fock matrices will be formed incrementally for  20 cycles.

 Cycle   1  Pass 1  IDiag  1:
 FoFJK:  IHMeth= 1 ICntrl=       0 DoSepK=F KAlg= 0 I1Cent=   0 FoldK=F
 IRaf= 980000000 NMat=   1 IRICut=       1 DoRegI=T DoRafI=F ISym2E= 1.
 FoFCou: FMM=F IPFlag=           0 FMFlag=      100000 FMFlg1=           0
         NFxFlg=           0 DoJE=F BraDBF=F KetDBF=F FulRan=T
         wScrn=  0.000000 ICntrl=       0 IOpCl=  1 I1Cent=           0 NGrid=           0
         NMat0=    1 NMatS0=      1 NMatT0=    0 NMatD0=    1 NMtDS0=    0 NMtDT0=    0
 Petite list used in FoFCou.
 E= -189.604740644503    
 DIIS: error= 2.87D-02 at cycle   1 NSaved=   1.
 NSaved= 1 IEnMin= 1 EnMin= -189.604740644503     IErMin= 1 ErrMin= 2.87D-02
 ErrMax= 2.87D-02  0.00D+00 EMaxC= 1.00D-01 BMatC= 2.89D-01 BMatP= 2.89D-01
 IDIUse=3 WtCom= 7.13D-01 WtEn= 2.87D-01
 Coeff-Com:  0.100D+01
 Coeff-En:   0.100D+01
 Coeff:      0.100D+01
 Gap=     0.031 Goal=   None    Shift=    0.000
 Gap=     0.022 Goal=   None    Shift=    0.000
 GapD=    0.022 DampG=0.250 DampE=0.500 DampFc=0.2500 IDamp=-1.
 Damping current iteration by 2.50D-01
 RMSDP=1.34D-02 MaxDP=4.76D-01              OVMax= 4.14D-01

 Cycle   2  Pass 1  IDiag  1:
 RMSU=  3.22D-03    CP:  9.57D-01
 E= -189.594093991502     Delta-E=        0.010646653001 Rises=F Damp=T
 DIIS: error= 1.77D-02 at cycle   2 NSaved=   2.
 NSaved= 2 IEnMin= 1 EnMin= -189.604740644503     IErMin= 2 ErrMin= 1.77D-02
 ErrMax= 1.77D-02  0.00D+00 EMaxC= 1.00D-01 BMatC= 1.18D-01 BMatP= 2.89D-01
 IDIUse=3 WtCom= 8.23D-01 WtEn= 1.77D-01
 Coeff-Com:  0.171D+00 0.829D+00
 Coeff-En:   0.558D+00 0.442D+00
 Coeff:      0.240D+00 0.760D+00
 Gap=     0.102 Goal=   None    Shift=    0.000
 Gap=     0.056 Goal=   None    Shift=    0.000
 RMSDP=2.77D-02 MaxDP=1.53D+00 DE= 1.06D-02 OVMax= 4.37D-01

 Cycle   3  Pass 1  IDiag  1:
 RMSU=  1.88D-02    CP:  1.82D+00 -1.08D+00
 E= -189.649946871724     Delta-E=       -0.055852880222 Rises=F Damp=F
 DIIS: error= 2.61D-02 at cycle   3 NSaved=   3.
 NSaved= 3 IEnMin= 3 EnMin= -189.649946871724     IErMin= 2 ErrMin= 1.77D-02
 ErrMax= 2.61D-02  0.00D+00 EMaxC= 1.00D-01 BMatC= 1.92D-01 BMatP= 1.18D-01
 IDIUse=2 WtCom= 0.00D+00 WtEn= 1.00D+00
 Coeff-En:   0.000D+00 0.288D+00 0.712D+00
 Coeff:      0.000D+00 0.288D+00 0.712D+00
 Gap=     0.008 Goal=   None    Shift=    0.000
 Gap=     0.028 Goal=   None    Shift=    0.000
 RMSDP=3.65D-02 MaxDP=2.07D+00 DE=-5.59D-02 OVMax= 2.44D-01

 Cycle   4  Pass 1  IDiag  1:
 RMSU=  4.24D-03    CP:  6.98D-01  3.00D+00 -1.33D-01
 E= -188.873790783008     Delta-E=        0.776156088717 Rises=F Damp=F
 DIIS: error= 8.70D-02 at cycle   4 NSaved=   4.
 NSaved= 4 IEnMin= 3 EnMin= -189.649946871724     IErMin= 2 ErrMin= 1.77D-02
 ErrMax= 8.70D-02  0.00D+00 EMaxC= 1.00D-01 BMatC= 2.15D+00 BMatP= 1.18D-01
 IDIUse=2 WtCom= 0.00D+00 WtEn= 1.00D+00
 Coeff-En:   0.000D+00 0.000D+00 0.850D+00 0.150D+00
 Coeff:      0.000D+00 0.000D+00 0.850D+00 0.150D+00
 Gap=     0.030 Goal=   None    Shift=    0.000
 Gap=     0.003 Goal=   None    Shift=    0.000
 RMSDP=2.78D-02 MaxDP=2.31D+00 DE= 7.76D-01 OVMax= 1.08D-01

 Cycle   5  Pass 1  IDiag  1:
 RMSU=  1.88D-02    CP:  1.30D+00  2.81D-01  4.18D-01  2.00D-01
 E= -189.614715612579     Delta-E=       -0.740924829571 Rises=F Damp=F
 DIIS: error= 3.15D-02 at cycle   5 NSaved=   5.
 NSaved= 5 IEnMin= 3 EnMin= -189.649946871724     IErMin= 2 ErrMin= 1.77D-02
 ErrMax= 3.15D-02  0.00D+00 EMaxC= 1.00D-01 BMatC= 3.63D-01 BMatP= 1.18D-01
 IDIUse=2 WtCom= 0.00D+00 WtEn= 1.00D+00
 Coeff-En:   0.000D+00 0.000D+00 0.571D+00 0.000D+00 0.429D+00
 Coeff:      0.000D+00 0.000D+00 0.571D+00 0.000D+00 0.429D+00
 Gap=     0.127 Goal=   None    Shift=    0.000
 Gap=     0.002 Goal=   None    Shift=    0.000
 RMSDP=2.85D-03 MaxDP=1.87D-01 DE=-7.41D-01 OVMax= 8.27D-02

 Cycle   6  Pass 1  IDiag  1:
 RMSU=  1.61D-03    CP:  1.36D+00  2.88D-01  5.01D-01  1.28D-01  1.05D+00
 E= -189.704645699498     Delta-E=       -0.089930086919 Rises=F Damp=F
 DIIS: error= 1.62D-02 at cycle   6 NSaved=   6.
 NSaved= 6 IEnMin= 6 EnMin= -189.704645699498     IErMin= 6 ErrMin= 1.62D-02
 ErrMax= 1.62D-02  0.00D+00 EMaxC= 1.00D-01 BMatC= 7.37D-02 BMatP= 1.18D-01
 IDIUse=3 WtCom= 8.38D-01 WtEn= 1.62D-01
 Coeff-Com:  0.518D-01 0.751D-01 0.206D+00-0.883D-02-0.255D+00 0.931D+00
 Coeff-En:   0.000D+00 0.000D+00 0.219D+00 0.000D+00 0.000D+00 0.781D+00
 Coeff:      0.434D-01 0.629D-01 0.208D+00-0.740D-02-0.214D+00 0.907D+00
 Gap=     0.134 Goal=   None    Shift=    0.000
 Gap=     0.024 Goal=   None    Shift=    0.000
 RMSDP=1.99D-03 MaxDP=1.38D-01 DE=-8.99D-02 OVMax= 5.43D-02

 Cycle   7  Pass 1  IDiag  1:
 RMSU=  4.68D-04    CP:  1.40D+00  2.57D-01  5.57D-01  1.25D-01  1.10D+00
                    CP:  1.63D+00
 E= -189.726662520285     Delta-E=       -0.022016820787 Rises=F Damp=F
 DIIS: error= 5.37D-03 at cycle   7 NSaved=   7.
 NSaved= 7 IEnMin= 7 EnMin= -189.726662520285     IErMin= 7 ErrMin= 5.37D-03
 ErrMax= 5.37D-03  0.00D+00 EMaxC= 1.00D-01 BMatC= 1.48D-02 BMatP= 7.37D-02
 IDIUse=3 WtCom= 9.46D-01 WtEn= 5.37D-02
 Coeff-Com: -0.479D-01 0.161D+00 0.998D-01-0.737D-02-0.205D+00 0.173D+00
 Coeff-Com:  0.826D+00
 Coeff-En:   0.000D+00 0.000D+00 0.000D+00 0.000D+00 0.000D+00 0.000D+00
 Coeff-En:   0.100D+01
 Coeff:     -0.453D-01 0.152D+00 0.944D-01-0.697D-02-0.194D+00 0.164D+00
 Coeff:      0.835D+00
 Gap=     0.125 Goal=   None    Shift=    0.000
 Gap=     0.042 Goal=   None    Shift=    0.000
 RMSDP=7.30D-04 MaxDP=4.39D-02 DE=-2.20D-02 OVMax= 2.23D-02

 Cycle   8  Pass 1  IDiag  1:
 RMSU=  2.70D-04    CP:  1.42D+00  2.63D-01  5.76D-01  1.13D-01  1.12D+00
                    CP:  1.85D+00  9.87D-01
 E= -189.730504531873     Delta-E=       -0.003842011589 Rises=F Damp=F
 DIIS: error= 3.65D-03 at cycle   8 NSaved=   8.
 NSaved= 8 IEnMin= 8 EnMin= -189.730504531873     IErMin= 8 ErrMin= 3.65D-03
 ErrMax= 3.65D-03  0.00D+00 EMaxC= 1.00D-01 BMatC= 3.29D-03 BMatP= 1.48D-02
 IDIUse=3 WtCom= 9.63D-01 WtEn= 3.65D-02
 Coeff-Com: -0.269D-01 0.520D-01 0.300D-01 0.434D-02 0.405D-01-0.429D+00
 Coeff-Com:  0.315D+00 0.101D+01
 Coeff-En:   0.000D+00 0.000D+00 0.000D+00 0.000D+00 0.000D+00 0.000D+00
 Coeff-En:   0.000D+00 0.100D+01
 Coeff:     -0.259D-01 0.501D-01 0.290D-01 0.418D-02 0.390D-01-0.413D+00
 Coeff:      0.304D+00 0.101D+01
 Gap=     0.121 Goal=   None    Shift=    0.000
 Gap=     0.062 Goal=   None    Shift=    0.000
 RMSDP=5.61D-04 MaxDP=3.91D-02 DE=-3.84D-03 OVMax= 1.66D-02

 Cycle   9  Pass 1  IDiag  1:
 RMSU=  1.46D-04    CP:  1.43D+00  2.52D-01  5.89D-01  1.26D-01  1.13D+00
                    CP:  2.04D+00  1.32D+00  1.17D+00
 E= -189.731787493237     Delta-E=       -0.001282961364 Rises=F Damp=F
 DIIS: error= 8.05D-04 at cycle   9 NSaved=   9.
 NSaved= 9 IEnMin= 9 EnMin= -189.731787493237     IErMin= 9 ErrMin= 8.05D-04
 ErrMax= 8.05D-04  0.00D+00 EMaxC= 1.00D-01 BMatC= 2.92D-04 BMatP= 3.29D-03
 IDIUse=3 WtCom= 9.92D-01 WtEn= 8.05D-03
 Coeff-Com: -0.938D-02 0.147D-01 0.106D-01 0.846D-03 0.357D-01-0.171D+00
 Coeff-Com: -0.157D-01 0.344D+00 0.789D+00
 Coeff-En:   0.000D+00 0.000D+00 0.000D+00 0.000D+00 0.000D+00 0.000D+00
 Coeff-En:   0.000D+00 0.000D+00 0.100D+01
 Coeff:     -0.930D-02 0.146D-01 0.105D-01 0.839D-03 0.354D-01-0.169D+00
 Coeff:     -0.156D-01 0.342D+00 0.791D+00
 Gap=     0.122 Goal=   None    Shift=    0.000
 Gap=     0.069 Goal=   None    Shift=    0.000
 RMSDP=1.11D-04 MaxDP=5.04D-03 DE=-1.28D-03 OVMax= 5.83D-03

 Cycle  10  Pass 1  IDiag  1:
 RMSU=  7.45D-05    CP:  1.43D+00  2.54D-01  5.90D-01  1.27D-01  1.13D+00
                    CP:  2.08D+00  1.39D+00  1.22D+00  9.84D-01
 E= -189.731894674379     Delta-E=       -0.000107181142 Rises=F Damp=F
 DIIS: error= 4.15D-04 at cycle  10 NSaved=  10.
 NSaved=10 IEnMin=10 EnMin= -189.731894674379     IErMin=10 ErrMin= 4.15D-04
 ErrMax= 4.15D-04  0.00D+00 EMaxC= 1.00D-01 BMatC= 1.19D-04 BMatP= 2.92D-04
 IDIUse=3 WtCom= 9.96D-01 WtEn= 4.15D-03
 Coeff-Com: -0.268D-02 0.858D-03-0.366D-03 0.120D-02 0.206D-01-0.181D-01
 Coeff-Com: -0.115D+00-0.898D-01 0.446D+00 0.757D+00
 Coeff-En:   0.000D+00 0.000D+00 0.000D+00 0.000D+00 0.000D+00 0.000D+00
 Coeff-En:   0.000D+00 0.000D+00 0.000D+00 0.100D+01
 Coeff:     -0.267D-02 0.854D-03-0.365D-03 0.119D-02 0.205D-01-0.180D-01
 Coeff:     -0.115D+00-0.894D-01 0.444D+00 0.758D+00
 Gap=     0.121 Goal=   None    Shift=    0.000
 Gap=     0.072 Goal=   None    Shift=    0.000
 RMSDP=9.33D-05 MaxDP=5.70D-03 DE=-1.07D-04 OVMax= 4.58D-03

 Cycle  11  Pass 1  IDiag  1:
 RMSU=  2.92D-05    CP:  1.43D+00  2.57D-01  5.92D-01  1.29D-01  1.13D+00
                    CP:  2.12D+00  1.44D+00  1.28D+00  1.19D+00  1.09D+00
 E= -189.731935970845     Delta-E=       -0.000041296466 Rises=F Damp=F
 DIIS: error= 1.22D-04 at cycle  11 NSaved=  11.
 NSaved=11 IEnMin=11 EnMin= -189.731935970845     IErMin=11 ErrMin= 1.22D-04
 ErrMax= 1.22D-04  0.00D+00 EMaxC= 1.00D-01 BMatC= 4.40D-06 BMatP= 1.19D-04
 IDIUse=3 WtCom= 9.99D-01 WtEn= 1.22D-03
 Coeff-Com:  0.242D-03-0.701D-04-0.707D-03 0.377D-04-0.665D-02 0.290D-01
 Coeff-Com:  0.587D-02-0.453D-01-0.904D-01 0.262D-01 0.108D+01
 Coeff-En:   0.000D+00 0.000D+00 0.000D+00 0.000D+00 0.000D+00 0.000D+00
 Coeff-En:   0.000D+00 0.000D+00 0.000D+00 0.000D+00 0.100D+01
 Coeff:      0.241D-03-0.700D-04-0.706D-03 0.377D-04-0.665D-02 0.290D-01
 Coeff:      0.586D-02-0.452D-01-0.903D-01 0.261D-01 0.108D+01
 Gap=     0.121 Goal=   None    Shift=    0.000
 Gap=     0.072 Goal=   None    Shift=    0.000
 RMSDP=3.93D-05 MaxDP=3.83D-03 DE=-4.13D-05 OVMax= 9.18D-04

 Cycle  12  Pass 1  IDiag  1:
 RMSU=  7.75D-06    CP:  1.43D+00  2.58D-01  5.91D-01  1.29D-01  1.13D+00
                    CP:  2.12D+00  1.44D+00  1.27D+00  1.24D+00  1.18D+00
                    CP:  1.23D+00
 E= -189.731938039674     Delta-E=       -0.000002068830 Rises=F Damp=F
 DIIS: error= 4.53D-05 at cycle  12 NSaved=  12.
 NSaved=12 IEnMin=12 EnMin= -189.731938039674     IErMin=12 ErrMin= 4.53D-05
 ErrMax= 4.53D-05  0.00D+00 EMaxC= 1.00D-01 BMatC= 2.08D-07 BMatP= 4.40D-06
 IDIUse=1 WtCom= 1.00D+00 WtEn= 0.00D+00
 Coeff-Com: -0.282D-03 0.407D-03 0.632D-04-0.548D-04 0.145D-03-0.257D-02
 Coeff-Com:  0.370D-02 0.107D-01-0.105D-01-0.331D-01-0.161D+00 0.119D+01
 Coeff:     -0.282D-03 0.407D-03 0.632D-04-0.548D-04 0.145D-03-0.257D-02
 Coeff:      0.370D-02 0.107D-01-0.105D-01-0.331D-01-0.161D+00 0.119D+01
 Gap=     0.121 Goal=   None    Shift=    0.000
 Gap=     0.072 Goal=   None    Shift=    0.000
 RMSDP=6.15D-06 MaxDP=4.79D-04 DE=-2.07D-06 OVMax= 4.93D-04

 Cycle  13  Pass 1  IDiag  1:
 RMSU=  2.34D-06    CP:  1.43D+00  2.59D-01  5.91D-01  1.29D-01  1.13D+00
                    CP:  2.11D+00  1.44D+00  1.27D+00  1.24D+00  1.19D+00
                    CP:  1.29D+00  1.24D+00
 E= -189.731938227623     Delta-E=       -0.000000187948 Rises=F Damp=F
 DIIS: error= 1.38D-05 at cycle  13 NSaved=  13.
 NSaved=13 IEnMin=13 EnMin= -189.731938227623     IErMin=13 ErrMin= 1.38D-05
 ErrMax= 1.38D-05  0.00D+00 EMaxC= 1.00D-01 BMatC= 2.25D-08 BMatP= 2.08D-07
 IDIUse=1 WtCom= 1.00D+00 WtEn= 0.00D+00
 Coeff-Com: -0.120D-03 0.136D-03-0.102D-03-0.102D-04 0.385D-03-0.144D-02
 Coeff-Com: -0.111D-02-0.262D-03 0.894D-02 0.255D-02-0.329D-01-0.298D+00
 Coeff-Com:  0.132D+01
 Coeff:     -0.120D-03 0.136D-03-0.102D-03-0.102D-04 0.385D-03-0.144D-02
 Coeff:     -0.111D-02-0.262D-03 0.894D-02 0.255D-02-0.329D-01-0.298D+00
 Coeff:      0.132D+01
 Gap=     0.121 Goal=   None    Shift=    0.000
 Gap=     0.072 Goal=   None    Shift=    0.000
 RMSDP=1.52D-06 MaxDP=6.61D-05 DE=-1.88D-07 OVMax= 2.96D-04

 Cycle  14  Pass 1  IDiag  1:
 RMSU=  8.74D-07    CP:  1.43D+00  2.59D-01  5.91D-01  1.29D-01  1.13D+00
                    CP:  2.11D+00  1.44D+00  1.28D+00  1.24D+00  1.20D+00
                    CP:  1.30D+00  1.32D+00  1.34D+00
 E= -189.731938274621     Delta-E=       -0.000000046999 Rises=F Damp=F
 DIIS: error= 1.26D-05 at cycle  14 NSaved=  14.
 NSaved=14 IEnMin=14 EnMin= -189.731938274621     IErMin=14 ErrMin= 1.26D-05
 ErrMax= 1.26D-05  0.00D+00 EMaxC= 1.00D-01 BMatC= 1.64D-08 BMatP= 2.25D-08
 IDIUse=1 WtCom= 1.00D+00 WtEn= 0.00D+00
 Coeff-Com: -0.387D-04 0.358D-04-0.936D-04 0.677D-06-0.525D-03 0.251D-02
 Coeff-Com: -0.150D-03-0.290D-02-0.492D-02 0.328D-02 0.675D-01-0.896D-01
 Coeff-Com: -0.665D+00 0.169D+01
 Coeff:     -0.387D-04 0.358D-04-0.936D-04 0.677D-06-0.525D-03 0.251D-02
 Coeff:     -0.150D-03-0.290D-02-0.492D-02 0.328D-02 0.675D-01-0.896D-01
 Coeff:     -0.665D+00 0.169D+01
 Gap=     0.121 Goal=   None    Shift=    0.000
 Gap=     0.072 Goal=   None    Shift=    0.000
 RMSDP=1.15D-06 MaxDP=6.66D-05 DE=-4.70D-08 OVMax= 2.50D-04

 Cycle  15  Pass 1  IDiag  1:
 RMSU=  4.66D-07    CP:  1.43D+00  2.59D-01  5.91D-01  1.29D-01  1.13D+00
                    CP:  2.11D+00  1.44D+00  1.28D+00  1.24D+00  1.20D+00
                    CP:  1.30D+00  1.32D+00  1.49D+00  1.95D+00
 E= -189.731938299287     Delta-E=       -0.000000024665 Rises=F Damp=F
 DIIS: error= 5.87D-06 at cycle  15 NSaved=  15.
 NSaved=15 IEnMin=15 EnMin= -189.731938299287     IErMin=15 ErrMin= 5.87D-06
 ErrMax= 5.87D-06  0.00D+00 EMaxC= 1.00D-01 BMatC= 5.48D-09 BMatP= 1.64D-08
 IDIUse=1 WtCom= 1.00D+00 WtEn= 0.00D+00
 Coeff-Com:  0.223D-04-0.362D-04-0.587D-04 0.425D-05-0.156D-03 0.529D-03
 Coeff-Com:  0.563D-03 0.953D-05-0.305D-02-0.319D-03 0.378D-02 0.102D+00
 Coeff-Com: -0.273D+00-0.373D+00 0.154D+01
 Coeff:      0.223D-04-0.362D-04-0.587D-04 0.425D-05-0.156D-03 0.529D-03
 Coeff:      0.563D-03 0.953D-05-0.305D-02-0.319D-03 0.378D-02 0.102D+00
 Coeff:     -0.273D+00-0.373D+00 0.154D+01
 Gap=     0.121 Goal=   None    Shift=    0.000
 Gap=     0.072 Goal=   None    Shift=    0.000
 RMSDP=8.84D-07 MaxDP=5.09D-05 DE=-2.47D-08 OVMax= 1.63D-04

 Cycle  16  Pass 1  IDiag  1:
 RMSU=  2.04D-07    CP:  1.43D+00  2.59D-01  5.91D-01  1.29D-01  1.13D+00
                    CP:  2.11D+00  1.44D+00  1.28D+00  1.24D+00  1.20D+00
                    CP:  1.29D+00  1.31D+00  1.54D+00  2.63D+00  1.67D+00
 E= -189.731938306316     Delta-E=       -0.000000007030 Rises=F Damp=F
 DIIS: error= 1.93D-06 at cycle  16 NSaved=  16.
 NSaved=16 IEnMin=16 EnMin= -189.731938306316     IErMin=16 ErrMin= 1.93D-06
 ErrMax= 1.93D-06  0.00D+00 EMaxC= 1.00D-01 BMatC= 9.86D-10 BMatP= 5.48D-09
 IDIUse=1 WtCom= 1.00D+00 WtEn= 0.00D+00
 Coeff-Com: -0.230D-05 0.242D-05 0.962D-06 0.141D-07 0.421D-04-0.207D-03
 Coeff-Com:  0.118D-03 0.236D-03 0.425D-03 0.338D-03-0.870D-02 0.819D-02
 Coeff-Com:  0.946D-01-0.245D+00-0.350D-01 0.118D+01
 Coeff:     -0.230D-05 0.242D-05 0.962D-06 0.141D-07 0.421D-04-0.207D-03
 Coeff:      0.118D-03 0.236D-03 0.425D-03 0.338D-03-0.870D-02 0.819D-02
 Coeff:      0.946D-01-0.245D+00-0.350D-01 0.118D+01
 Gap=     0.121 Goal=   None    Shift=    0.000
 Gap=     0.072 Goal=   None    Shift=    0.000
 RMSDP=3.53D-07 MaxDP=1.98D-05 DE=-7.03D-09 OVMax= 4.78D-05

 Cycle  17  Pass 1  IDiag  1:
 RMSU=  5.64D-08    CP:  1.43D+00  2.59D-01  5.91D-01  1.29D-01  1.13D+00
                    CP:  2.11D+00  1.44D+00  1.28D+00  1.24D+00  1.20D+00
                    CP:  1.29D+00  1.31D+00  1.56D+00  2.79D+00  1.90D+00
                    CP:  1.29D+00
 E= -189.731938307002     Delta-E=       -0.000000000686 Rises=F Damp=F
 DIIS: error= 2.17D-07 at cycle  17 NSaved=  17.
 NSaved=17 IEnMin=17 EnMin= -189.731938307002     IErMin=17 ErrMin= 2.17D-07
 ErrMax= 2.17D-07  0.00D+00 EMaxC= 1.00D-01 BMatC= 1.12D-11 BMatP= 9.86D-10
 IDIUse=1 WtCom= 1.00D+00 WtEn= 0.00D+00
 Coeff-Com: -0.153D-05 0.144D-05 0.202D-05 0.905D-07 0.534D-05-0.970D-05
 Coeff-Com: -0.693D-04-0.262D-04 0.185D-03-0.110D-03 0.700D-03-0.892D-02
 Coeff-Com:  0.176D-01 0.370D-01-0.114D+00-0.974D-01 0.117D+01
 Coeff:     -0.153D-05 0.144D-05 0.202D-05 0.905D-07 0.534D-05-0.970D-05
 Coeff:     -0.693D-04-0.262D-04 0.185D-03-0.110D-03 0.700D-03-0.892D-02
 Coeff:      0.176D-01 0.370D-01-0.114D+00-0.974D-01 0.117D+01
 Gap=     0.121 Goal=   None    Shift=    0.000
 Gap=     0.072 Goal=   None    Shift=    0.000
 RMSDP=4.74D-08 MaxDP=2.20D-06 DE=-6.86D-10 OVMax= 7.42D-06

 Cycle  18  Pass 1  IDiag  1:
 RMSU=  1.68D-08    CP:  1.43D+00  2.59D-01  5.91D-01  1.29D-01  1.13D+00
                    CP:  2.11D+00  1.44D+00  1.28D+00  1.24D+00  1.20D+00
                    CP:  1.29D+00  1.31D+00  1.56D+00  2.80D+00  1.93D+00
                    CP:  1.41D+00  1.28D+00
 E= -189.731938307018     Delta-E=       -0.000000000015 Rises=F Damp=F
 DIIS: error= 3.69D-08 at cycle  18 NSaved=  18.
 NSaved=18 IEnMin=18 EnMin= -189.731938307018     IErMin=18 ErrMin= 3.69D-08
 ErrMax= 3.69D-08  0.00D+00 EMaxC= 1.00D-01 BMatC= 5.51D-13 BMatP= 1.12D-11
 IDIUse=1 WtCom= 1.00D+00 WtEn= 0.00D+00
 Coeff-Com:  0.502D-06-0.488D-06-0.421D-06 0.599D-07-0.207D-05 0.864D-05
 Coeff-Com:  0.980D-06-0.810D-05-0.358D-04-0.599D-05 0.337D-03 0.359D-03
 Coeff-Com: -0.544D-02 0.845D-02 0.116D-01-0.317D-01-0.169D+00 0.118D+01
 Coeff:      0.502D-06-0.488D-06-0.421D-06 0.599D-07-0.207D-05 0.864D-05
 Coeff:      0.980D-06-0.810D-05-0.358D-04-0.599D-05 0.337D-03 0.359D-03
 Coeff:     -0.544D-02 0.845D-02 0.116D-01-0.317D-01-0.169D+00 0.118D+01
 Gap=     0.121 Goal=   None    Shift=    0.000
 Gap=     0.072 Goal=   None    Shift=    0.000
 RMSDP=1.06D-08 MaxDP=4.12D-07 DE=-1.54D-11 OVMax= 7.11D-07

 Cycle  19  Pass 1  IDiag  1:
 RMSU=  3.90D-09    CP:  1.43D+00  2.59D-01  5.91D-01  1.29D-01  1.13D+00
                    CP:  2.11D+00  1.44D+00  1.28D+00  1.24D+00  1.20D+00
                    CP:  1.29D+00  1.31D+00  1.56D+00  2.79D+00  1.93D+00
                    CP:  1.42D+00  1.34D+00  1.20D+00
 E= -189.731938307014     Delta-E=        0.000000000003 Rises=F Damp=F
 DIIS: error= 9.71D-09 at cycle  19 NSaved=  19.
 NSaved=19 IEnMin=18 EnMin= -189.731938307018     IErMin=19 ErrMin= 9.71D-09
 ErrMax= 9.71D-09  0.00D+00 EMaxC= 1.00D-01 BMatC= 3.45D-14 BMatP= 5.51D-13
 IDIUse=1 WtCom= 1.00D+00 WtEn= 0.00D+00
 Coeff-Com: -0.248D-07 0.279D-07 0.168D-07 0.740D-08-0.245D-07-0.373D-06
 Coeff-Com:  0.368D-05 0.348D-05-0.491D-05 0.965D-05-0.101D-03 0.443D-03
 Coeff-Com: -0.274D-04-0.344D-02 0.499D-02 0.109D-01-0.424D-01-0.198D+00
 Coeff-Com:  0.123D+01
 Coeff:     -0.248D-07 0.279D-07 0.168D-07 0.740D-08-0.245D-07-0.373D-06
 Coeff:      0.368D-05 0.348D-05-0.491D-05 0.965D-05-0.101D-03 0.443D-03
 Coeff:     -0.274D-04-0.344D-02 0.499D-02 0.109D-01-0.424D-01-0.198D+00
 Coeff:      0.123D+01
 Gap=     0.121 Goal=   None    Shift=    0.000
 Gap=     0.072 Goal=   None    Shift=    0.000
 RMSDP=3.87D-09 MaxDP=2.24D-07 DE= 3.35D-12 OVMax= 2.12D-07

 SCF Done:  E(UB3LYP) =  -189.731938307     A.U. after   19 cycles
            NFock= 19  Conv=0.39D-08     -V/T= 2.0042
 <Sx>= 0.0000 <Sy>= 0.0000 <Sz>= 0.5000 <S**2>= 0.7724 S= 0.5111
 <L.S>= 0.000000000000E+00
 KE= 1.889381379838D+02 PE=-6.589702385914D+02 EE= 1.591652890960D+02
 Annihilation of the first spin contaminant:
 S**2 before annihilation     0.7724,   after     0.7502
 Leave Link  502 at Tue Jul 19 06:42:51 2016, MaxMem=    33554432 cpu:       375.2
 (Enter /home/proyectos/fulerenos/M3C-v2.0/M3C-deps_CCC/g09-AM64L-G09RevC.01/l801.exe)
 DoSCS=F DFT=T ScalE2(SS,OS)=  1.000000  1.000000
 Range of M.O.s used for correlation:     1   215
 NBasis=   215 NAE=    15 NBE=    14 NFC=     0 NFV=     0
 NROrb=    215 NOA=    15 NOB=    14 NVA=   200 NVB=   201

 **** Warning!!: The largest alpha MO coefficient is  0.23948164D+03


 **** Warning!!: The largest beta MO coefficient is  0.21127464D+03


 **** Warning!!: The smallest beta delta epsilon is  0.71894117D-01

 Leave Link  801 at Tue Jul 19 06:42:51 2016, MaxMem=    33554432 cpu:         0.1
 (Enter /home/proyectos/fulerenos/M3C-v2.0/M3C-deps_CCC/g09-AM64L-G09RevC.01/l1101.exe)
 Using compressed storage, NAtomX=     7.
 Will process      8 centers per pass.
 Leave Link 1101 at Tue Jul 19 06:42:52 2016, MaxMem=    33554432 cpu:         0.5
 (Enter /home/proyectos/fulerenos/M3C-v2.0/M3C-deps_CCC/g09-AM64L-G09RevC.01/l1102.exe)
 Symmetrizing basis deriv contribution to polar:
 IMax=3 JMax=2 DiffMx= 0.00D+00
 Leave Link 1102 at Tue Jul 19 06:42:52 2016, MaxMem=    33554432 cpu:         0.1
 (Enter /home/proyectos/fulerenos/M3C-v2.0/M3C-deps_CCC/g09-AM64L-G09RevC.01/l1110.exe)
 Forming Gx(P) for the SCF density, NAtomX=     7.
 Integral derivatives from FoFJK, PRISM(SPDF).
 Do as many integral derivatives as possible in FoFJK.
 G2DrvN: MDV=      33554272.
 G2DrvN: will do     8 centers at a time, making    1 passes.
 Calling FoFCou, ICntrl=  3107 FMM=F I1Cent=   0 AccDes= 0.00D+00.
 FoFJK:  IHMeth= 1 ICntrl=    3107 DoSepK=F KAlg= 0 I1Cent=   0 FoldK=F
 IRaf=         0 NMat=   1 IRICut=       1 DoRegI=T DoRafI=F ISym2E= 1.
 FoFCou: FMM=F IPFlag=           0 FMFlag=      100000 FMFlg1=           0
         NFxFlg=           0 DoJE=F BraDBF=F KetDBF=F FulRan=T
         wScrn=  0.000000 ICntrl=    3107 IOpCl=  1 I1Cent=           0 NGrid=           0
         NMat0=    1 NMatS0=      1 NMatT0=    0 NMatD0=    1 NMtDS0=    0 NMtDT0=    0
 Petite list used in FoFCou.
 End of G2Drv F.D. properties file   721 does not exist.
 End of G2Drv F.D. properties file   722 does not exist.
 End of G2Drv F.D. properties file   788 does not exist.
 Leave Link 1110 at Tue Jul 19 06:46:00 2016, MaxMem=    33554432 cpu:       187.8
 (Enter /home/proyectos/fulerenos/M3C-v2.0/M3C-deps_CCC/g09-AM64L-G09RevC.01/l1002.exe)
 Minotr:  UHF open shell wavefunction.
          IDoAtm=1111111
          Direct CPHF calculation.
          Differentiating once with respect to electric field.
                with respect to dipole field.
          Differentiating once with respect to nuclear coordinates.
          Using symmetry in CPHF.
          Requested convergence is 1.0D-08 RMS, and 1.0D-07 maximum.
          Secondary convergence is 1.0D-12 RMS, and 1.0D-12 maximum.
          NewPWx=T KeepS1=F KeepF1=F KeepIn=T MapXYZ=F SortEE=F KeepMc=T.
          MDV=      33553928 using IRadAn=       2.
 Generate precomputed XC quadrature information.
          Solving linear equations simultaneously, MaxMat=       0.
 FoFJK:  IHMeth= 1 ICntrl=       0 DoSepK=F KAlg= 0 I1Cent=   0 FoldK=F
 IRaf= 980000000 NMat=  21 IRICut=      52 DoRegI=T DoRafI=T ISym2E= 2.
 FoFCou: FMM=F IPFlag=           0 FMFlag=      100000 FMFlg1=           0
         NFxFlg=           0 DoJE=F BraDBF=F KetDBF=F FulRan=T
         wScrn=  0.000000 ICntrl=       0 IOpCl=  1 I1Cent=           0 NGrid=           0
         NMat0=   21 NMatS0=     21 NMatT0=    0 NMatD0=   21 NMtDS0=    0 NMtDT0=    0
 Integrals replicated using symmetry in FoFCou.
          There are    21 degrees of freedom in the 1st order CPHF.  IDoFFX=4 NUNeed=    21.
     21 vectors produced by pass  0 Test12= 2.77D-14 4.76D-09 XBig12= 2.26D+02 9.24D+00.
 AX will form    21 AO Fock derivatives at one time.
     21 vectors produced by pass  1 Test12= 2.77D-14 4.76D-09 XBig12= 4.22D+01 1.89D+00.
     21 vectors produced by pass  2 Test12= 2.77D-14 4.76D-09 XBig12= 6.53D-01 1.84D-01.
     21 vectors produced by pass  3 Test12= 2.77D-14 4.76D-09 XBig12= 1.55D-02 5.24D-02.
     21 vectors produced by pass  4 Test12= 2.77D-14 4.76D-09 XBig12= 1.23D-04 3.60D-03.
     21 vectors produced by pass  5 Test12= 2.77D-14 4.76D-09 XBig12= 6.28D-07 1.43D-04.
     19 vectors produced by pass  6 Test12= 2.77D-14 4.76D-09 XBig12= 3.01D-09 9.21D-06.
     10 vectors produced by pass  7 Test12= 2.77D-14 4.76D-09 XBig12= 2.59D-11 1.17D-06.
      7 vectors produced by pass  8 Test12= 2.77D-14 4.76D-09 XBig12= 9.78D-13 3.33D-07.
      6 vectors produced by pass  9 Test12= 2.77D-14 4.76D-09 XBig12= 1.10D-13 9.70D-08.
      4 vectors produced by pass 10 Test12= 2.77D-14 4.76D-09 XBig12= 2.11D-15 1.06D-08.
 InvSVY:  IOpt=1 It=  1 EMax= 2.05D-15
 Solved reduced A of dimension   172 with    21 vectors.
 FullF1:  Do perturbations    1 to    21.
 Isotropic polarizability for W=    0.000000       37.31 Bohr**3.
 End of Minotr F.D. properties file   721 does not exist.
 End of Minotr F.D. properties file   722 does not exist.
 End of Minotr F.D. properties file   788 does not exist.
 Leave Link 1002 at Tue Jul 19 07:04:29 2016, MaxMem=    33554432 cpu:      1108.5
 (Enter /home/proyectos/fulerenos/M3C-v2.0/M3C-deps_CCC/g09-AM64L-G09RevC.01/l601.exe)
 Copying SCF densities to generalized density rwf, IOpCl= 1 IROHF=0.

 **********************************************************************

            Population analysis using the SCF density.

 **********************************************************************

 Orbital symmetries:
 Alpha Orbitals:
       Occupied  (A1) (B2) (A1) (A1) (A1) (A1) (A1) (A1) (B2) (A1)
                 (A1) (B2) (B1) (A1) (B1)
       Virtual   (B2) (A2) (B1) (B2) (B1) (A1) (A1) (B2) (A1) (A1)
                 (B2) (A1) (B1) (B2) (A1) (A1) (A2) (B1) (B2) (A1)
                 (B1) (B2) (A2) (A1) (B2) (B1) (A1) (B2) (B1) (A1)
                 (A1) (A1) (A1) (A1) (A2) (B2) (A1) (B1) (A1) (B2)
                 (A2) (B2) (B1) (A1) (B2) (B1) (A1) (B2) (B1) (A1)
                 (A1) (A1) (A2) (B1) (B2) (A1) (B2) (A1) (B1) (A2)
                 (A1) (A1) (B2) (A1) (B2) (B1) (A1) (A2) (B1) (A1)
                 (B2) (A1) (B2) (A1) (B2) (B1) (A1) (A1) (B1) (A2)
                 (A1) (B2) (B2) (A1) (B2) (B1) (A1) (A1) (A2) (B1)
                 (A1) (A1) (B2) (A1) (A2) (B1) (A1) (A1) (B2) (A2)
                 (A1) (B2) (B1) (B2) (A2) (B1) (A1) (B2) (A1) (B2)
                 (A1) (B1) (B1) (A2) (A1) (B1) (B2) (A1) (B2) (B1)
                 (A2) (A1) (B1) (A1) (B2) (B1) (B1) (B2) (B1) (A1)
                 (A2) (B2) (A1) (B1) (B2) (A1) (A1) (A2) (B2) (B2)
                 (A1) (B1) (B2) (A1) (A1) (B2) (A1) (A2) (A1) (B1)
                 (B2) (B2) (A1) (B1) (A2) (A1) (B2) (A1) (B1) (A2)
                 (B1) (B2) (B2) (A1) (B1) (B2) (A1) (A1) (B2) (A1)
                 (A2) (B1) (A1) (A2) (B2) (A1) (B1) (A2) (A1) (B1)
                 (A1) (B2) (A2) (A2) (B1) (A1) (B1) (A1) (B2) (A1)
                 (A1) (B2) (A1) (B2) (B2) (A1) (A1) (B2) (A1) (A1)
 Beta  Orbitals:
       Occupied  (A1) (B2) (A1) (A1) (A1) (A1) (A1) (A1) (B2) (A1)
                 (A1) (B2) (B1) (B1)
       Virtual   (A1) (B2) (A2) (B1) (B2) (B1) (A1) (A1) (B2) (A1)
                 (A1) (B2) (A1) (B1) (B2) (A1) (A1) (B1) (A2) (B2)
                 (A1) (B1) (A2) (B2) (A1) (B2) (B1) (A1) (B2) (A1)
                 (B1) (A1) (A1) (A1) (A1) (A2) (B2) (A1) (B1) (A1)
                 (B2) (A2) (B2) (B1) (A1) (B1) (B2) (A1) (B2) (B1)
                 (A1) (A1) (A1) (B1) (A2) (B2) (A1) (B2) (A1) (B1)
                 (A1) (A2) (A1) (B2) (A1) (B2) (B1) (A1) (A2) (B1)
                 (A1) (B2) (A1) (B2) (B2) (A1) (A1) (B1) (A1) (B1)
                 (A2) (A1) (B2) (B2) (A1) (B2) (B1) (A1) (A1) (A2)
                 (B1) (A1) (A1) (B2) (A1) (A2) (B1) (A1) (A1) (B2)
                 (A2) (A1) (B2) (B1) (B2) (A2) (B1) (A1) (B2) (B2)
                 (A1) (A1) (B1) (A2) (B1) (A1) (B1) (B2) (A1) (B2)
                 (B1) (A2) (B1) (A1) (A1) (B2) (B1) (B1) (B2) (B1)
                 (A1) (A2) (B2) (B1) (A1) (B2) (A1) (A1) (A2) (B2)
                 (B2) (A1) (B1) (B2) (A1) (A1) (B2) (A1) (A2) (A1)
                 (B1) (B2) (A1) (B2) (B1) (A2) (A1) (B2) (A1) (B1)
                 (A2) (B1) (B2) (B2) (A1) (B1) (B2) (A1) (A1) (B2)
                 (A1) (A2) (A1) (B1) (A2) (B2) (A1) (B1) (A2) (A1)
                 (B1) (A1) (B2) (A2) (A2) (B1) (A1) (B1) (A1) (B2)
                 (A1) (A1) (B2) (A1) (B2) (B2) (A1) (A1) (B2) (A1)
                 (A1)
 The electronic state is 2-A1.
 Alpha  occ. eigenvalues --  -11.14072 -11.14052 -11.08373 -11.04305 -11.04203
 Alpha  occ. eigenvalues --   -1.79867  -1.56733  -1.44847  -1.36356  -1.26060
 Alpha  occ. eigenvalues --   -1.22901  -1.21673  -1.20957  -1.13006  -1.04376
 Alpha virt. eigenvalues --   -0.92282  -0.86800  -0.81768  -0.78523  -0.65935
 Alpha virt. eigenvalues --   -0.61446  -0.52986  -0.52115  -0.50612  -0.47606
 Alpha virt. eigenvalues --   -0.46013  -0.45601  -0.43857  -0.40856  -0.39964
 Alpha virt. eigenvalues --   -0.39743  -0.36766  -0.36658  -0.36396  -0.34829
 Alpha virt. eigenvalues --   -0.31271  -0.30961  -0.30837  -0.28114  -0.26360
 Alpha virt. eigenvalues --   -0.25213  -0.24335  -0.23583  -0.22975  -0.22771
 Alpha virt. eigenvalues --   -0.21604  -0.20349  -0.18619  -0.18042  -0.17274
 Alpha virt. eigenvalues --   -0.16666  -0.16239  -0.14010  -0.12896  -0.12136
 Alpha virt. eigenvalues --   -0.09143  -0.08890  -0.08591  -0.08221  -0.07666
 Alpha virt. eigenvalues --   -0.07498  -0.04741  -0.04741  -0.04221  -0.04182
 Alpha virt. eigenvalues --   -0.02711  -0.00345   0.00129   0.00136   0.00638
 Alpha virt. eigenvalues --    0.03232   0.06627   0.07810   0.08799   0.12410
 Alpha virt. eigenvalues --    0.12498   0.13460   0.13701   0.15458   0.18310
 Alpha virt. eigenvalues --    0.18996   0.19617   0.22101   0.27267   0.31519
 Alpha virt. eigenvalues --    0.33853   0.35471   0.41959   0.47944   0.48087
 Alpha virt. eigenvalues --    0.49717   0.51030   0.56874   0.58659   0.59444
 Alpha virt. eigenvalues --    0.61726   0.62648   0.63079   0.67169   0.67364
 Alpha virt. eigenvalues --    0.69592   0.71959   0.78837   0.82511   0.83834
 Alpha virt. eigenvalues --    0.86603   0.88802   0.89485   0.91491   0.92418
 Alpha virt. eigenvalues --    0.98463   0.99825   1.03110   1.08505   1.11272
 Alpha virt. eigenvalues --    1.20665   1.21486   1.26061   1.27102   1.31408
 Alpha virt. eigenvalues --    1.42704   1.46763   1.57729   1.64536   1.65220
 Alpha virt. eigenvalues --    1.73744   1.74565   1.87554   1.88332   1.92860
 Alpha virt. eigenvalues --    1.95042   1.97652   1.98736   2.00630   2.01443
 Alpha virt. eigenvalues --    2.04877   2.07995   2.08119   2.10459   2.13595
 Alpha virt. eigenvalues --    2.16718   2.19128   2.20320   2.22464   2.24775
 Alpha virt. eigenvalues --    2.28205   2.32900   2.39773   2.41482   2.43653
 Alpha virt. eigenvalues --    2.49445   2.50978   2.54118   2.57721   2.59043
 Alpha virt. eigenvalues --    2.60752   2.71682   2.75566   2.85381   2.87406
 Alpha virt. eigenvalues --    2.97009   2.97743   3.06013   3.14420   3.21385
 Alpha virt. eigenvalues --    3.23888   3.35802   3.37414   3.40852   3.46254
 Alpha virt. eigenvalues --    3.50906   3.59278   3.60955   3.64510   3.66512
 Alpha virt. eigenvalues --    3.95333   3.96405   4.16895   4.20020   4.48639
 Alpha virt. eigenvalues --    4.51046   4.72997   5.20646   5.20917   5.50272
 Alpha virt. eigenvalues --    6.11826   6.14645   6.16745   6.21264   6.29415
 Alpha virt. eigenvalues --    6.30987   6.35282   6.37924   6.38798   6.45450
 Alpha virt. eigenvalues --    6.50652   6.53724   6.59202   6.66356   6.67960
 Alpha virt. eigenvalues --    6.69837   6.93020   6.98523   7.02353   7.08994
 Alpha virt. eigenvalues --    7.35829   7.44791   7.62656   7.70963   7.89609
 Alpha virt. eigenvalues --   23.10959  23.64306  24.31157  24.51282  25.15781
  Beta  occ. eigenvalues --  -11.12777 -11.12766 -11.08329 -11.04427 -11.04375
  Beta  occ. eigenvalues --   -1.78880  -1.56820  -1.44551  -1.31857  -1.25852
  Beta  occ. eigenvalues --   -1.22280  -1.21269  -1.20241  -1.04315
  Beta virt. eigenvalues --   -0.97126  -0.90707  -0.83998  -0.81842  -0.73289
  Beta virt. eigenvalues --   -0.65269  -0.60947  -0.52687  -0.51715  -0.50368
  Beta virt. eigenvalues --   -0.46717  -0.45083  -0.45001  -0.43784  -0.40241
  Beta virt. eigenvalues --   -0.39360  -0.39241  -0.36632  -0.36596  -0.35450
  Beta virt. eigenvalues --   -0.34291  -0.31255  -0.30749  -0.30638  -0.27598
  Beta virt. eigenvalues --   -0.26137  -0.24914  -0.24210  -0.23467  -0.22597
  Beta virt. eigenvalues --   -0.21950  -0.21545  -0.20249  -0.18450  -0.17862
  Beta virt. eigenvalues --   -0.17177  -0.16563  -0.16173  -0.13868  -0.12509
  Beta virt. eigenvalues --   -0.11754  -0.08669  -0.08496  -0.08327  -0.08229
  Beta virt. eigenvalues --   -0.07500  -0.06449  -0.04622  -0.04302  -0.03963
  Beta virt. eigenvalues --   -0.03655  -0.02192   0.00187   0.00324   0.00697
  Beta virt. eigenvalues --    0.01056   0.03655   0.06967   0.08075   0.08821
  Beta virt. eigenvalues --    0.12619   0.12867   0.13681   0.14154   0.15947
  Beta virt. eigenvalues --    0.18418   0.19360   0.20241   0.22420   0.27334
  Beta virt. eigenvalues --    0.31782   0.34015   0.35871   0.42364   0.48286
  Beta virt. eigenvalues --    0.48510   0.51357   0.51414   0.57634   0.58745
  Beta virt. eigenvalues --    0.59500   0.62176   0.63115   0.64141   0.67799
  Beta virt. eigenvalues --    0.68726   0.70143   0.72487   0.80197   0.82570
  Beta virt. eigenvalues --    0.84492   0.86970   0.89166   0.90887   0.91758
  Beta virt. eigenvalues --    0.93112   0.98533   1.00040   1.05066   1.10624
  Beta virt. eigenvalues --    1.14954   1.21919   1.25215   1.27153   1.28775
  Beta virt. eigenvalues --    1.32121   1.43680   1.48023   1.58427   1.65767
  Beta virt. eigenvalues --    1.66562   1.75204   1.76436   1.88775   1.88910
  Beta virt. eigenvalues --    1.94189   1.95395   1.98341   1.99100   2.00668
  Beta virt. eigenvalues --    2.01998   2.06029   2.08282   2.08616   2.11058
  Beta virt. eigenvalues --    2.14136   2.17027   2.19177   2.21146   2.23901
  Beta virt. eigenvalues --    2.26091   2.29614   2.33221   2.41908   2.42038
  Beta virt. eigenvalues --    2.45801   2.51325   2.51830   2.55092   2.58100
  Beta virt. eigenvalues --    2.59577   2.61853   2.71957   2.76997   2.86154
  Beta virt. eigenvalues --    2.87917   2.98046   2.98326   3.09597   3.16214
  Beta virt. eigenvalues --    3.22016   3.25528   3.37566   3.38037   3.41780
  Beta virt. eigenvalues --    3.46466   3.50971   3.60472   3.61724   3.64819
  Beta virt. eigenvalues --    3.67379   3.95943   3.97855   4.18415   4.21381
  Beta virt. eigenvalues --    4.48977   4.52239   4.73793   5.20751   5.21697
  Beta virt. eigenvalues --    5.51120   6.11969   6.16887   6.18457   6.21274
  Beta virt. eigenvalues --    6.31130   6.31929   6.36268   6.37589   6.38456
  Beta virt. eigenvalues --    6.45693   6.52102   6.53848   6.63102   6.67191
  Beta virt. eigenvalues --    6.68204   6.73315   6.93439   7.01168   7.03011
  Beta virt. eigenvalues --    7.09648   7.36566   7.46390   7.62712   7.73481
  Beta virt. eigenvalues --    7.92631  23.11599  23.64735  24.32666  24.51554
  Beta virt. eigenvalues --   25.15730
          Condensed to atoms (all electrons):
               1          2          3          4          5          6
     1  C    7.410152  -0.586353   0.777811  -0.586353  -0.824366  -0.023222
     2  C   -0.586353   8.253525  -1.752179   0.810015  -2.094262  -0.010416
     3  C    0.777811  -1.752179   7.591457  -1.752179   1.295178   0.008495
     4  C   -0.586353   0.810015  -1.752179   8.253525  -2.094262  -0.010416
     5  C   -0.824366  -2.094262   1.295178  -2.094262   9.495556   0.309443
     6  H   -0.023222  -0.010416   0.008495  -0.010416   0.309443   0.210247
     7  H    0.032100  -0.070429   0.401537  -0.070429   0.012762   0.000058
               7
     1  C    0.032100
     2  C   -0.070429
     3  C    0.401537
     4  C   -0.070429
     5  C    0.012762
     6  H    0.000058
     7  H    0.240473
          Atomic-Atomic Spin Densities.
               1          2          3          4          5          6
     1  C    0.901942  -0.218330   0.221542  -0.218330  -0.528129  -0.020206
     2  C   -0.218330   1.099479  -0.473786   0.745432  -0.911099  -0.011220
     3  C    0.221542  -0.473786   0.258327  -0.473786   0.524403   0.005395
     4  C   -0.218330   0.745432  -0.473786   1.099479  -0.911099  -0.011220
     5  C   -0.528129  -0.911099   0.524403  -0.911099   2.085315   0.038339
     6  H   -0.020206  -0.011220   0.005395  -0.011220   0.038339   0.000806
     7  H   -0.011309   0.007286   0.004615   0.007286   0.004199   0.000052
               7
     1  C   -0.011309
     2  C    0.007286
     3  C    0.004615
     4  C    0.007286
     5  C    0.004199
     6  H    0.000052
     7  H    0.014586
 Mulliken charges and spin densities:
               1          2
     1  C   -0.199769   0.127180
     2  C    1.450099   0.237761
     3  C   -0.570120   0.066709
     4  C    1.450099   0.237761
     5  C   -0.100048   0.301930
     6  H    0.515811   0.001944
     7  H    0.453927   0.026714
 Sum of Mulliken charges =   3.00000   1.00000
 Mulliken charges and spin densities with hydrogens summed into heavy atoms:
               1          2
     1  C   -0.199769   0.127180
     2  C    1.450099   0.237761
     3  C   -0.116192   0.093424
     4  C    1.450099   0.237761
     5  C    0.415763   0.303874
 APT charges:
               1
     1  C    0.000565
     2  C    0.468814
     3  C    0.313073
     4  C    0.468814
     5  C    0.695807
     6  H    0.515104
     7  H    0.537823
 Sum of APT charges =   3.00000
 APT charges with hydrogens summed into heavy atoms:
               1
     1  C    0.000565
     2  C    0.468814
     3  C    0.850896
     4  C    0.468814
     5  C    1.210910
 Electronic spatial extent (au):  <R**2>=            264.3408
 Charge=              3.0000 electrons
 Dipole moment (field-independent basis, Debye):
    X=              0.0000    Y=             -0.0000    Z=              1.6904  Tot=              1.6904
 Quadrupole moment (field-independent basis, Debye-Ang):
   XX=            -21.9242   YY=            -14.7291   ZZ=             30.7620
   XY=              0.0000   XZ=             -0.0000   YZ=              0.0000
 Traceless Quadrupole moment (field-independent basis, Debye-Ang):
   XX=            -19.9604   YY=            -12.7653   ZZ=             32.7258
   XY=              0.0000   XZ=             -0.0000   YZ=              0.0000
 Octapole moment (field-independent basis, Debye-Ang**2):
  XXX=             -0.0000  YYY=              0.0000  ZZZ=             34.4767  XYY=              0.0000
  XXY=             -0.0000  XXZ=             -1.0044  XZZ=              0.0000  YZZ=              0.0000
  YYZ=             -1.1484  XYZ=             -0.0000
 Hexadecapole moment (field-independent basis, Debye-Ang**3):
 XXXX=            -19.2329 YYYY=            -36.7104 ZZZZ=            142.7301 XXXY=             -0.0000
 XXXZ=              0.0000 YYYX=             -0.0000 YYYZ=              0.0000 ZZZX=             -0.0000
 ZZZY=              0.0000 XXYY=             -9.9240 XXZZ=            -46.9172 YYZZ=            -45.1095
 XXYZ=             -0.0000 YYXZ=             -0.0000 ZZXY=             -0.0000
 N-N= 1.211348732047D+02 E-N=-6.589702385721D+02  KE= 1.889381379838D+02
 Symmetry A1   KE= 1.453529311666D+02
 Symmetry A2   KE= 2.834490920418D-18
 Symmetry B1   KE= 5.033742430698D+00
 Symmetry B2   KE= 3.855146438649D+01
  Exact polarizability:  20.536   0.000  27.981   0.000   0.000  63.414
 Approx polarizability:  29.723   0.000  66.475   0.000  -0.000 125.086
                          Isotropic Fermi Contact Couplings
        Atom                 a.u.       MegaHertz       Gauss      10(-4) cm-1
     1  C(13)              0.00864       9.71817       3.46768       3.24163
     2  C(13)              0.57637     647.95470     231.20634     216.13442
     3  C(13)              0.02918      32.80240      11.70471      10.94170
     4  C(13)              0.57637     647.95470     231.20634     216.13442
     5  C(13)              0.00555       6.24047       2.22675       2.08160
     6  H(1)              -0.00005      -0.23667      -0.08445      -0.07895
     7  H(1)               0.01348      60.23259      21.49249      20.09143
 --------------------------------------------------------
       Center         ----  Spin Dipole Couplings  ----
                      3XX-RR        3YY-RR        3ZZ-RR
 --------------------------------------------------------
     1   Atom       -0.015043     -0.064295      0.079338
     2   Atom       -0.303630      0.611866     -0.308236
     3   Atom       -0.046325     -0.051336      0.097661
     4   Atom       -0.303630      0.611866     -0.308236
     5   Atom        0.040846     -0.036390     -0.004457
     6   Atom       -0.002310     -0.003256      0.005566
     7   Atom       -0.007218     -0.002453      0.009671
 --------------------------------------------------------
                        XY            XZ            YZ
 --------------------------------------------------------
     1   Atom        0.000000     -0.000000     -0.000000
     2   Atom        0.000000      0.000000      0.056221
     3   Atom        0.000000      0.000000     -0.000000
     4   Atom        0.000000     -0.000000     -0.056221
     5   Atom        0.000000     -0.000000     -0.000000
     6   Atom        0.000000     -0.000000      0.000000
     7   Atom        0.000000      0.000000     -0.000000
 --------------------------------------------------------


 ---------------------------------------------------------------------------------
              Anisotropic Spin Dipole Couplings in Principal Axis System
 ---------------------------------------------------------------------------------

       Atom             a.u.   MegaHertz   Gauss  10(-4) cm-1        Axes

              Baa    -0.0643    -8.628    -3.079    -2.878 -0.0000  1.0000 -0.0000
     1 C(13)  Bbb    -0.0150    -2.019    -0.720    -0.673  1.0000  0.0000  0.0000
              Bcc     0.0793    10.646     3.799     3.551  0.0000  0.0000  1.0000
 
              Baa    -0.3117   -41.822   -14.923   -13.950 -0.0000 -0.0608  0.9982
     2 C(13)  Bbb    -0.3036   -40.744   -14.539   -13.591  1.0000 -0.0000  0.0000
              Bcc     0.6153    82.566    29.462    27.541  0.0000  0.9982  0.0608
 
              Baa    -0.0513    -6.889    -2.458    -2.298  0.0000  1.0000  0.0000
     3 C(13)  Bbb    -0.0463    -6.216    -2.218    -2.074  1.0000 -0.0000 -0.0000
              Bcc     0.0977    13.105     4.676     4.371  0.0000 -0.0000  1.0000
 
              Baa    -0.3117   -41.822   -14.923   -13.950  0.0000  0.0608  0.9982
     4 C(13)  Bbb    -0.3036   -40.744   -14.539   -13.591  1.0000 -0.0000  0.0000
              Bcc     0.6153    82.566    29.462    27.541  0.0000  0.9982 -0.0608
 
              Baa    -0.0364    -4.883    -1.742    -1.629 -0.0000  1.0000  0.0000
     5 C(13)  Bbb    -0.0045    -0.598    -0.213    -0.199  0.0000 -0.0000  1.0000
              Bcc     0.0408     5.481     1.956     1.828  1.0000  0.0000 -0.0000
 
              Baa    -0.0033    -1.737    -0.620    -0.579 -0.0000  1.0000 -0.0000
     6 H(1)   Bbb    -0.0023    -1.232    -0.440    -0.411  1.0000  0.0000  0.0000
              Bcc     0.0056     2.970     1.060     0.991 -0.0000  0.0000  1.0000
 
              Baa    -0.0072    -3.851    -1.374    -1.285  1.0000  0.0000 -0.0000
     7 H(1)   Bbb    -0.0025    -1.309    -0.467    -0.437 -0.0000  1.0000  0.0000
              Bcc     0.0097     5.160     1.841     1.721  0.0000 -0.0000  1.0000
 

 ---------------------------------------------------------------------------------

 No NMR shielding tensors so no spin-rotation constants.
 Leave Link  601 at Tue Jul 19 07:04:30 2016, MaxMem=    33554432 cpu:         0.8
 (Enter /home/proyectos/fulerenos/M3C-v2.0/M3C-deps_CCC/g09-AM64L-G09RevC.01/l701.exe)
 Compute integral second derivatives.
 ... and contract with generalized density number  0.
 Leave Link  701 at Tue Jul 19 07:04:31 2016, MaxMem=    33554432 cpu:         0.9
 (Enter /home/proyectos/fulerenos/M3C-v2.0/M3C-deps_CCC/g09-AM64L-G09RevC.01/l702.exe)
 L702 exits ... SP integral derivatives will be done elsewhere.
 Leave Link  702 at Tue Jul 19 07:04:31 2016, MaxMem=    33554432 cpu:         0.1
 (Enter /home/proyectos/fulerenos/M3C-v2.0/M3C-deps_CCC/g09-AM64L-G09RevC.01/l703.exe)
 Compute integral second derivatives, UseDBF=F ICtDFT=           0.
 Integral derivatives from FoFJK, PRISM(SPDF).
 Calling FoFJK, ICntrl=    100127 FMM=F ISym2X=1 I1Cent= 0 IOpClX= 1 NMat=1 NMatS=1 NMatT=0.
 FoFJK:  IHMeth= 1 ICntrl=  100127 DoSepK=F KAlg= 0 I1Cent=   0 FoldK=F
 IRaf=         0 NMat=   1 IRICut=       1 DoRegI=T DoRafI=F ISym2E= 1.
 FoFCou: FMM=F IPFlag=           0 FMFlag=      100000 FMFlg1=         800
         NFxFlg=           0 DoJE=F BraDBF=F KetDBF=F FulRan=T
         wScrn=  0.000000 ICntrl=  100127 IOpCl=  1 I1Cent=           0 NGrid=           0
         NMat0=    1 NMatS0=      1 NMatT0=    0 NMatD0=    1 NMtDS0=    0 NMtDT0=    0
 Petite list used in FoFCou.
 Leave Link  703 at Tue Jul 19 07:11:21 2016, MaxMem=    33554432 cpu:       404.9
 (Enter /home/proyectos/fulerenos/M3C-v2.0/M3C-deps_CCC/g09-AM64L-G09RevC.01/l716.exe)
 Dipole        = 1.64102256D-16 1.11578540D-14 6.65052951D-01
 Polarizability= 2.05356593D+01 3.65741819D-08 2.79806076D+01
                 1.30991301D-08 1.04183277D-07 6.34137835D+01
 Full mass-weighted force constant matrix:
 Low frequencies ---  -13.5912   -9.4276   -0.0184   -0.0009    0.0033    3.8442
 Low frequencies ---  235.2619  291.8929  462.9478
 Diagonal vibrational polarizability:
       19.6314113       9.7360133      10.5121006
 Harmonic frequencies (cm**-1), IR intensities (KM/Mole), Raman scattering
 activities (A**4/AMU), depolarization ratios for plane and unpolarized
 incident light, reduced masses (AMU), force constants (mDyne/A),
 and normal coordinates:
                      1                      2                      3
                     B1                     B2                     B1
 Frequencies --    235.2609               291.8929               462.9474
 Red. masses --      4.9362                 3.0530                 4.2406
 Frc consts  --      0.1610                 0.1533                 0.5355
 IR Inten    --     18.9041                23.3393                 5.3568
  Atom  AN      X      Y      Z        X      Y      Z        X      Y      Z
     1   6     0.38   0.00   0.00    -0.00   0.26  -0.00     0.37   0.00   0.00
     2   6     0.15   0.00   0.00    -0.00   0.10   0.14    -0.26  -0.00  -0.00
     3   6    -0.29  -0.00  -0.00     0.00  -0.15   0.00     0.14  -0.00  -0.00
     4   6     0.15   0.00  -0.00    -0.00   0.10  -0.14    -0.26  -0.00   0.00
     5   6    -0.29  -0.00  -0.00     0.00  -0.20  -0.00    -0.09  -0.00  -0.00
     6   1    -0.58  -0.00  -0.00     0.00  -0.83  -0.00     0.27  -0.00  -0.00
     7   1    -0.55  -0.00  -0.00     0.00  -0.36   0.00     0.79  -0.00   0.00
                      4                      5                      6
                     B2                     B1                     B1
 Frequencies --    542.3014               623.4752               715.1125
 Red. masses --      5.0618                 1.3410                 1.2598
 Frc consts  --      0.8771                 0.3071                 0.3796
 IR Inten    --      0.6756               134.5973                 8.5327
  Atom  AN      X      Y      Z        X      Y      Z        X      Y      Z
     1   6    -0.00   0.40  -0.00    -0.03   0.00  -0.00    -0.02   0.00  -0.00
     2   6     0.00  -0.25  -0.20     0.06  -0.00  -0.00     0.02  -0.00  -0.00
     3   6    -0.00   0.03   0.00    -0.11   0.00   0.00    -0.12  -0.00   0.00
     4   6     0.00  -0.25   0.20     0.06  -0.00   0.00     0.02  -0.00   0.00
     5   6     0.00   0.06  -0.00    -0.10   0.00  -0.00     0.08  -0.00  -0.00
     6   1    -0.00  -0.52  -0.00     0.86   0.00  -0.00    -0.57   0.00  -0.00
     7   1    -0.00   0.60   0.00     0.48   0.00   0.00     0.81   0.00   0.00
                      7                      8                      9
                     B2                     A1                     B2
 Frequencies --    765.4614               775.3814               958.4029
 Red. masses --      4.6030                 7.1531                 1.5575
 Frc consts  --      1.5890                 2.5338                 0.8429
 IR Inten    --     27.6505                 0.9053                 0.0001
  Atom  AN      X      Y      Z        X      Y      Z        X      Y      Z
     1   6     0.00  -0.00  -0.00    -0.00   0.00   0.26     0.00   0.13   0.00
     2   6    -0.00  -0.18   0.21     0.00   0.22  -0.17    -0.00  -0.02   0.00
     3   6    -0.00   0.41   0.00    -0.00   0.00  -0.38     0.00   0.04  -0.00
     4   6    -0.00  -0.18  -0.21     0.00  -0.22  -0.17    -0.00  -0.02  -0.00
     5   6     0.00   0.05  -0.00     0.00   0.00   0.44     0.00  -0.18  -0.00
     6   1    -0.00  -0.36  -0.00    -0.00  -0.00   0.50    -0.00   0.95   0.00
     7   1     0.00  -0.74   0.00     0.00  -0.00  -0.44     0.00  -0.21  -0.00
                     10                     11                     12
                     B2                     A1                     A1
 Frequencies --    976.3182              1019.4400              1439.2817
 Red. masses --      1.4421                10.1054                 6.5670
 Frc consts  --      0.8099                 6.1877                 8.0151
 IR Inten    --     36.5685                30.6729               165.0588
  Atom  AN      X      Y      Z        X      Y      Z        X      Y      Z
     1   6     0.00  -0.00   0.00    -0.00  -0.00  -0.06     0.00  -0.00  -0.05
     2   6    -0.00  -0.03   0.14    -0.00   0.54   0.24    -0.00   0.19  -0.30
     3   6     0.00  -0.00   0.00     0.00  -0.00  -0.05    -0.00  -0.00   0.49
     4   6    -0.00  -0.03  -0.14    -0.00  -0.54   0.24    -0.00  -0.19  -0.30
     5   6     0.00  -0.03   0.00    -0.00   0.00  -0.34    -0.00   0.00   0.08
     6   1    -0.00   0.13   0.00     0.00  -0.00  -0.40     0.00  -0.00   0.15
     7   1     0.00   0.97   0.00    -0.00   0.00  -0.12     0.00   0.00   0.69
                     13                     14                     15
                     A1                     A1                     A1
 Frequencies --   1756.9011              2782.3424              2815.8369
 Red. masses --      6.6391                 1.1332                 1.1572
 Frc consts  --     12.0742                 5.1686                 5.4061
 IR Inten    --    285.7641              1030.1021               430.3785
  Atom  AN      X      Y      Z        X      Y      Z        X      Y      Z
     1   6    -0.00  -0.00   0.61    -0.00  -0.00   0.01     0.00  -0.00   0.03
     2   6    -0.00  -0.04  -0.12     0.00  -0.00   0.01    -0.00  -0.00  -0.00
     3   6     0.00  -0.00   0.02    -0.00  -0.00  -0.10     0.00  -0.00   0.02
     4   6    -0.00   0.04  -0.12     0.00   0.00   0.01    -0.00   0.00  -0.00
     5   6     0.00   0.00  -0.33     0.00   0.00  -0.02     0.00   0.00  -0.11
     6   1     0.00   0.00  -0.70    -0.00  -0.00   0.17     0.00  -0.00   0.98
     7   1    -0.00  -0.00  -0.01    -0.00   0.00   0.98     0.00   0.00  -0.18

 -------------------
 - Thermochemistry -
 -------------------
 Temperature   298.150 Kelvin.  Pressure   1.00000 Atm.
 Atom     1 has atomic number  6 and mass  12.00000
 Atom     2 has atomic number  6 and mass  12.00000
 Atom     3 has atomic number  6 and mass  12.00000
 Atom     4 has atomic number  6 and mass  12.00000
 Atom     5 has atomic number  6 and mass  12.00000
 Atom     6 has atomic number  1 and mass   1.00783
 Atom     7 has atomic number  1 and mass   1.00783
 Molecular mass:    62.01565 amu.
 Principal axes and moments of inertia in atomic units:
                           1         2         3
     Eigenvalues --    52.84156 404.18061 457.02217
           X           -0.00000  -0.00000   1.00000
           Y            0.00000   1.00000   0.00000
           Z            1.00000  -0.00000   0.00000
 This molecule is an asymmetric top.
 Rotational symmetry number  2.
 Rotational temperatures (Kelvin)      1.63912     0.21429     0.18952
 Rotational constants (GHZ):          34.15382     4.46518     3.94891
 Zero-point vibrational energy      96660.4 (Joules/Mol)
                                   23.10239 (Kcal/Mol)
 Warning -- explicit consideration of   4 degrees of freedom as
           vibrations may cause significant error
 Vibrational temperatures:    338.49   419.97   666.08   780.25   897.04
          (Kelvin)           1028.89  1101.33  1115.60  1378.93  1404.70
                             1466.74  2070.80  2527.79  4003.17  4051.36
 
 Zero-point correction=                           0.036816 (Hartree/Particle)
 Thermal correction to Energy=                    0.041589
 Thermal correction to Enthalpy=                  0.042533
 Thermal correction to Gibbs Free Energy=         0.010133
 Sum of electronic and zero-point Energies=           -189.695122
 Sum of electronic and thermal Energies=              -189.690349
 Sum of electronic and thermal Enthalpies=            -189.689405
 Sum of electronic and thermal Free Energies=         -189.721805
 
                     E (Thermal)             CV                S
                      KCal/Mol        Cal/Mol-Kelvin    Cal/Mol-Kelvin
 Total                   26.097             16.419             68.192
 Electronic               0.000              0.000              1.377
 Translational            0.889              2.981             38.294
 Rotational               0.889              2.981             22.416
 Vibrational             24.320             10.458              6.104
 Vibration     1          0.655              1.787              1.838
 Vibration     2          0.687              1.689              1.463
 Vibration     3          0.821              1.332              0.758
 Vibration     4          0.897              1.157              0.560
                       Q            Log10(Q)             Ln(Q)
 Total Bot       0.218330D-04         -4.660887        -10.732089
 Total V=0       0.187612D+13         12.273261         28.260229
 Vib (Bot)       0.321599D-16        -16.492685        -37.975811
 Vib (Bot)    1  0.835246D+00         -0.078186         -0.180029
 Vib (Bot)    2  0.654471D+00         -0.184109         -0.423928
 Vib (Bot)    3  0.366506D+00         -0.435919         -1.003741
 Vib (Bot)    4  0.291517D+00         -0.535337         -1.232658
 Vib (V=0)       0.276353D+01          0.441464          1.016508
 Vib (V=0)    1  0.147347D+01          0.168340          0.387617
 Vib (V=0)    2  0.132361D+01          0.121760          0.280362
 Vib (V=0)    3  0.111994D+01          0.049195          0.113276
 Vib (V=0)    4  0.107878D+01          0.032931          0.075827
 Electronic      0.200000D+01          0.301030          0.693147
 Translational   0.191958D+08          7.283207         16.770204
 Rotational      0.176832D+05          4.247561          9.780370
 
                                                              b3lyp opt
                                                             IR Spectrum
 
     2 2                                             1              1                  1                                             
     8 7                                             7              4                  099       77 7   6   5   4      2  2          
     1 8                                             5              3                  175       76 1   2   4   6      9  3          
     6 2                                             7              9                  968       55 5   3   2   3      2  5          
 
     X X                                             X              X                  XX        XX X   X   X   X      X  X          
     X X                                             X              X                                   X                            
     X X                                             X              X                                   X                            
     X X                                             X                                                                               
     X X                                             X                                                                               
     X X                                             X                                                                               
     X X                                                                                                                             
     X X                                                                                                                             
       X                                                                                                                             
       X                                                                                                                             
       X                                                                                                                             
       X                                                                                                                             
       X                                                                                                                             
       X                                                                                                                             
       X                                                                                                                             
       X                                                                                                                             
       X                                                                                                                             
       X                                                                                                                             
       X                                                                                                                             
       X                                                                                                                             
 
 ***** Axes restored to original set *****
 -------------------------------------------------------------------
 Center     Atomic                   Forces (Hartrees/Bohr)
 Number     Number              X              Y              Z
 -------------------------------------------------------------------
      1        6          -0.000163622    0.000000008   -0.000000056
      2        6           0.000002027    0.000003633    0.000000001
      3        6          -0.000035107    0.000000002   -0.000000012
      4        6           0.000002027   -0.000003633    0.000000001
      5        6           0.000263660   -0.000000013    0.000000091
      6        1          -0.000060557    0.000000003   -0.000000021
      7        1          -0.000008428    0.000000000   -0.000000003
 -------------------------------------------------------------------
 Cartesian Forces:  Max     0.000263660 RMS     0.000069452
 Z-matrix is all fixed cartesians, so copy forces.
 Force constants in Cartesian coordinates: 
                1             2             3             4             5 
      1  0.101699D+01
      2 -0.460362D-04  0.111805D+00
      3  0.333108D-03  0.202791D-05  0.488387D-01
      4 -0.183099D+00 -0.199480D-01 -0.544486D-04  0.350699D+00
      5 -0.685641D-01 -0.365985D-01 -0.239103D-04 -0.521001D-01  0.302110D+00
      6 -0.558660D-04 -0.722900D-05 -0.267320D-01  0.109747D-03 -0.899642D-05
      7 -0.799255D-01  0.469240D-05 -0.339086D-04 -0.272447D+00  0.107672D+00
      8  0.469721D-05  0.127640D-01  0.000000D+00  0.524499D-01 -0.595051D-01
      9 -0.339075D-04  0.000000D+00  0.186300D-01 -0.822859D-04  0.360350D-04
     10 -0.183090D+00  0.199628D-01 -0.531499D-04  0.125141D+00 -0.623518D-02
     11  0.685791D-01 -0.366075D-01  0.232758D-04  0.620168D-02 -0.204458D+00
     12 -0.517327D-04  0.650298D-05 -0.267320D-01  0.341831D-04 -0.963666D-05
     13 -0.596223D+00  0.265995D-04 -0.200408D-03 -0.203667D-01  0.112984D-01
     14  0.265996D-04 -0.733064D-01 -0.192394D-05 -0.165237D-01  0.305102D-02
     15 -0.200409D-03 -0.192463D-05 -0.137480D-01 -0.658792D-05  0.407605D-05
     16  0.167930D-01  0.000000D+00  0.606147D-05  0.908398D-03 -0.401507D-02
     17  0.000000D+00  0.242101D-01  0.000000D+00  0.295803D-02 -0.802175D-03
     18  0.606140D-05  0.000000D+00 -0.823468D-03  0.000000D+00 -0.151333D-05
     19  0.854998D-02  0.000000D+00  0.274633D-05 -0.836795D-03  0.119440D-01
     20  0.000000D+00 -0.226684D-02  0.000000D+00  0.269621D-01 -0.379704D-02
     21  0.274622D-05  0.000000D+00  0.567041D-03  0.000000D+00  0.392971D-05
                6             7             8             9            10 
      6  0.263926D-01
      7 -0.803048D-04  0.895318D+00
      8  0.170666D-04 -0.390971D-04  0.126378D+00
      9 -0.283426D-01  0.286806D-03  0.208513D-05  0.617496D-01
     10  0.337106D-04 -0.272463D+00 -0.524283D-01 -0.856953D-04  0.350710D+00
     11 -0.535753D-05 -0.107650D+00 -0.594888D-01 -0.380502D-04  0.520951D-01
     12  0.264765D-01 -0.876785D-04 -0.190178D-04 -0.283426D-01  0.113423D-03
     13 -0.582190D-05 -0.405113D-03  0.000000D+00  0.138313D-05 -0.203662D-01
     14 -0.545824D-05  0.000000D+00 -0.154035D-02  0.000000D+00  0.165261D-01
     15 -0.277836D-02  0.138319D-05  0.000000D+00 -0.443350D-02 -0.551493D-05
     16  0.000000D+00 -0.273876D-03  0.000000D+00  0.000000D+00  0.908505D-03
     17  0.000000D+00  0.000000D+00  0.131922D-02  0.000000D+00 -0.295820D-02
     18  0.326037D-02  0.000000D+00  0.000000D+00  0.249141D-02  0.000000D+00
     19  0.000000D+00 -0.269804D+00  0.126901D-04 -0.853470D-04 -0.840748D-03
     20  0.910134D-05  0.127014D-04 -0.199270D-01  0.000000D+00 -0.269624D-01
     21  0.172338D-02 -0.853460D-04  0.000000D+00 -0.217521D-01 -0.175818D-05
               11            12            13            14            15 
     11  0.302099D+00
     12  0.268535D-04  0.263926D-01
     13 -0.112960D-01 -0.628085D-05  0.924550D+00
     14  0.305049D-02  0.591287D-05 -0.412292D-04  0.113597D+00
     15 -0.369765D-05 -0.277836D-02  0.305050D-03  0.244207D-05  0.379512D-01
     16  0.401490D-02  0.000000D+00 -0.285194D+00  0.121363D-04 -0.913498D-04
     17 -0.802281D-03 -0.116237D-05  0.121350D-04 -0.464496D-01  0.000000D+00
     18  0.124928D-05  0.326037D-02 -0.913499D-04  0.000000D+00 -0.196939D-01
     19 -0.119443D-01 -0.124694D-05 -0.199502D-02  0.000000D+00 -0.257192D-05
     20 -0.379309D-02 -0.945223D-05  0.000000D+00  0.159758D-02  0.000000D+00
     21 -0.428915D-05  0.172338D-02 -0.257141D-05  0.000000D+00  0.548082D-02
               16            17            18            19            20 
     16  0.269065D+00
     17 -0.125113D-04  0.229250D-01
     18  0.879412D-04  0.000000D+00  0.134719D-01
     19 -0.220721D-02  0.000000D+00  0.000000D+00  0.267134D+00
     20  0.000000D+00 -0.400367D-03  0.000000D+00 -0.121247D-04  0.285867D-01
     21  0.000000D+00  0.000000D+00 -0.196669D-02  0.870176D-04  0.000000D+00
               21 
     21  0.142242D-01
 Leave Link  716 at Tue Jul 19 07:11:21 2016, MaxMem=    33554432 cpu:         0.1
 (Enter /home/proyectos/fulerenos/M3C-v2.0/M3C-deps_CCC/g09-AM64L-G09RevC.01/l103.exe)

 GradGradGradGradGradGradGradGradGradGradGradGradGradGradGradGradGradGrad
 Berny optimization.
 Search for a local minimum.
 Step number   1 out of a maximum of    2
 All quantities printed in internal units (Hartrees-Bohrs-Radians)
 Second derivative matrix not updated -- analytic derivatives used.
 ITU=  0
     Eigenvalues ---    0.00829   0.01048   0.03892   0.04844   0.04956
     Eigenvalues ---    0.12180   0.12418   0.14097   0.20572   0.25623
     Eigenvalues ---    0.30429   0.47422   0.62491   1.21317   1.62785
 Angle between quadratic step and forces=  49.09 degrees.
 ClnCor:  largest displacement from symmetrization is 1.34D-10 for atom     6.
 Linear search not attempted -- first point.
 ClnCor:  largest displacement from symmetrization is 2.67D-15 for atom     2.
 B after Tr=     0.000006   -0.000000    0.000000
         Rot=    1.000000   -0.000000   -0.000000   -0.000000 Ang=   0.00 deg.
 Variable       Old X    -DE/DX   Delta X   Delta X   Delta X     New X
                                 (Linear)    (Quad)   (Total)
    X1       -1.32054  -0.00016   0.00000  -0.00001  -0.00001  -1.32055
    Y1        0.00024   0.00000   0.00000   0.00000   0.00000   0.00024
    Z1       -0.00073  -0.00000   0.00000  -0.00000  -0.00000  -0.00073
    X2        1.02070   0.00000   0.00000  -0.00006  -0.00006   1.02064
    Y2        1.48394   0.00000   0.00000   0.00002   0.00002   1.48397
    Z2        0.00012   0.00000   0.00000  -0.00000  -0.00000   0.00012
    X3        3.17993  -0.00004   0.00000  -0.00013  -0.00013   3.17980
    Y3        0.00001   0.00000   0.00000   0.00000   0.00000   0.00001
    Z3        0.00082  -0.00000   0.00000  -0.00000  -0.00000   0.00082
    X4        1.02055   0.00000   0.00000  -0.00006  -0.00006   1.02049
    Y4       -1.48370  -0.00000   0.00000  -0.00002  -0.00002  -1.48373
    Z4        0.00003   0.00000   0.00000  -0.00000  -0.00000   0.00003
    X5       -3.79728   0.00026   0.00000   0.00030   0.00031  -3.79697
    Y5        0.00037  -0.00000   0.00000  -0.00000  -0.00000   0.00037
    Z5       -0.00158   0.00000   0.00000   0.00000   0.00000  -0.00158
    X6       -5.93194  -0.00006   0.00000   0.00010   0.00010  -5.93184
    Y6        0.00047   0.00000   0.00000  -0.00000  -0.00000   0.00047
    Z6       -0.00232  -0.00000   0.00000   0.00000   0.00000  -0.00232
    X7        5.31050  -0.00001   0.00000  -0.00017  -0.00016   5.31034
    Y7       -0.00010   0.00000   0.00000   0.00000   0.00000  -0.00010
    Z7        0.00155  -0.00000   0.00000  -0.00000  -0.00000   0.00155
         Item               Value     Threshold  Converged?
 Maximum Force            0.000264     0.000450     YES
 RMS     Force            0.000069     0.000300     YES
 Maximum Displacement     0.000308     0.001800     YES
 RMS     Displacement     0.000086     0.001200     YES
 Predicted change in Energy=-4.106854D-08
 Optimization completed.
    -- Stationary point found.
 GradGradGradGradGradGradGradGradGradGradGradGradGradGradGradGradGradGrad

 Leave Link  103 at Tue Jul 19 07:11:21 2016, MaxMem=    33554432 cpu:         0.1
 (Enter /home/proyectos/fulerenos/M3C-v2.0/M3C-deps_CCC/g09-AM64L-G09RevC.01/l9999.exe)
 1\1\GINC-EINSTENIO\Freq\UB3LYP\6-311++G(3df,2p)\C5H2(3+,2)\ROOT\19-Jul
 -2016\0\\#p b3lyp/6-311++G(3df,2p) freq symmetry=Loose\\b3lyp opt\\3,2
 \C,-0.698799981,0.000126578,-0.0003874283\C,0.540129043,0.785269104,0.
 0000643477\C,1.682747632,0.0000055268,0.0004319823\C,0.5400492385,-0.7
 851418905,0.000013316\C,-2.009431912,0.0001931958,-0.0008383727\H,-3.1
 39049742,0.0002506129,-0.0012270363\H,2.810197496,-0.0000517801,0.0008
 198999\\Version=EM64L-G09RevE.01\State=2-A1\HF=-189.7319383\S2=0.77236
 2\S2-1=0.\S2A=0.750191\RMSD=3.865e-09\RMSF=6.945e-05\ZeroPoint=0.03681
 6\Thermal=0.0415889\Dipole=-0.6650529,0.0000338,-0.0002288\DipoleDeriv
 =-0.5978702,0.0000444,-0.0003173,0.0000442,0.2752207,-0.0000016,-0.000
 3173,-0.0000016,0.3243453,0.193078,-0.0251993,-0.0001418,0.1044382,0.6
 106402,0.0000362,-0.0001375,-0.0000085,0.6027245,0.3992793,-0.0000063,
 0.0000464,-0.0000064,0.2755055,0.0000003,0.0000464,0.0000004,0.2644347
 ,0.19307,0.0252417,-0.0001401,-0.1043956,0.6106482,-0.0000357,-0.00014
 44,0.0000088,0.6027245,0.7870471,-0.0000015,0.0000842,-0.0000014,0.758
 0023,0.000007,0.0000842,0.000007,0.5423706,1.0215732,-0.0000424,0.0002
 361,-0.0000424,0.1882689,-0.0000048,0.0002361,-0.0000048,0.3354693,1.0
 038227,-0.0000367,0.0002326,-0.0000367,0.2817143,-0.0000015,0.0002326,
 -0.0000015,0.327931\Polar=63.4137784,-0.001801,27.9806077,0.0147529,0.
 0002412,20.5356644\PG=C02V [C2(H1C1C1C1H1),SGV(C2)]\NImag=0\\1.0169938
 8,-0.00004604,0.11180504,0.00033311,0.00000203,0.04883868,-0.18309882,
 -0.01994796,-0.00005445,0.35069909,-0.06856414,-0.03659846,-0.00002391
 ,-0.05210006,0.30210996,-0.00005587,-0.00000723,-0.02673197,0.00010975
 ,-0.00000900,0.02639264,-0.07992554,0.00000469,-0.00003391,-0.27244651
 ,0.10767213,-0.00008030,0.89531798,0.00000470,0.01276397,-0.00000019,0
 .05244993,-0.05950508,0.00001707,-0.00003910,0.12637803,-0.00003391,-0
 .00000019,0.01862998,-0.00008229,0.00003603,-0.02834264,0.00028681,0.0
 0000209,0.06174963,-0.18308982,0.01996284,-0.00005315,0.12514136,-0.00
 623518,0.00003371,-0.27246278,-0.05242829,-0.00008570,0.35070968,0.068
 57907,-0.03660745,0.00002328,0.00620168,-0.20445824,-0.00000536,-0.107
 65046,-0.05948879,-0.00003805,0.05209512,0.30209937,-0.00005173,0.0000
 0650,-0.02673197,0.00003418,-0.00000964,0.02647650,-0.00008768,-0.0000
 1902,-0.02834264,0.00011342,0.00002685,0.02639264,-0.59622269,0.000026
 60,-0.00020041,-0.02036673,0.01129838,-0.00000582,-0.00040511,-0.00000
 005,0.00000138,-0.02036619,-0.01129602,-0.00000628,0.92454988,0.000026
 60,-0.07330638,-0.00000192,-0.01652369,0.00305102,-0.00000546,-0.00000
 005,-0.00154035,0.00000009,0.01652607,0.00305049,0.00000591,-0.0000412
 3,0.11359719,-0.00020041,-0.00000192,-0.01374804,-0.00000659,0.0000040
 8,-0.00277836,0.00000138,0.00000009,-0.00443350,-0.00000551,-0.0000037
 0,-0.00277836,0.00030505,0.00000244,0.03795116,0.01679300,0.00000037,0
 .00000606,0.00090840,-0.00401507,-0.00000095,-0.00027388,0.00000008,-0
 .00000095,0.00090851,0.00401490,-0.00000067,-0.28519413,0.00001214,-0.
 00009135,0.26906532,0.00000038,0.02421012,0.00000081,0.00295803,-0.000
 80217,0.00000087,0.00000008,0.00131922,-0.00000004,-0.00295820,-0.0008
 0228,-0.00000116,0.00001214,-0.04644955,-0.00000086,-0.00001251,0.0229
 2503,0.00000606,0.00000081,-0.00082347,-0.00000071,-0.00000151,0.00326
 037,-0.00000095,-0.00000004,0.00249141,-0.00000091,0.00000125,0.003260
 37,-0.00009135,-0.00000086,-0.01969392,0.00008794,0.00000030,0.0134719
 3,0.00854998,-0.00000056,0.00000275,-0.00083679,0.01194398,-0.00000052
 ,-0.26980417,0.00001269,-0.00008535,-0.00084075,-0.01194427,-0.0000012
 5,-0.00199502,0.00000019,-0.00000257,-0.00220721,0.00000009,-0.0000000
 8,0.26713396,-0.00000055,-0.00226684,-0.00000009,0.02696207,-0.0037970
 4,0.00000910,0.00001270,-0.01992700,0.00000006,-0.02696237,-0.00379309
 ,-0.00000945,0.00000018,0.00159758,-0.00000013,0.00000009,-0.00040037,
 0.00000005,-0.00001212,0.02858675,0.00000275,-0.00000009,0.00056704,0.
 ,0.00000393,0.00172338,-0.00008535,0.00000006,-0.02175215,-0.00000176,
 -0.00000429,0.00172338,-0.00000257,-0.00000013,0.00548082,-0.00000008,
 0.00000005,-0.00196669,0.00008702,0.00000046,0.01422423\\0.00016362,0.
 ,0.00000006,-0.00000203,-0.00000363,0.,0.00003511,0.,0.00000001,-0.000
 00203,0.00000363,0.,-0.00026366,0.00000001,-0.00000009,0.00006056,0.,0
 .00000002,0.00000843,0.,0.\\\@


 Once you get people laughing, they're
 listening and you can tell them almost anything.
                                 -- Herb Gardner
 Job cpu time:       0 days  0 hours 34 minutes 44.0 seconds.
 File lengths (MBytes):  RWF=     52 Int=      0 D2E=      0 Chk=      5 Scr=      1
 Normal termination of Gaussian 09 at Tue Jul 19 07:11:21 2016.
