 Entering Gaussian System, Link 0=/home/proyectos/fulerenos/M3C-v1.9/M3C-deps_CCC/g09-AM64L-G09RevC.01/g09
 Initial command:
 /home/proyectos/fulerenos/M3C-v1.9/M3C-deps_CCC/g09-AM64L-G09RevC.01/l1.exe "/scratch/naguirre/gaussian/Gau-15601.inp" -scrdir="/scratch/naguirre/gaussian/"
 Entering Link 1 = /home/proyectos/fulerenos/M3C-v1.9/M3C-deps_CCC/g09-AM64L-G09RevC.01/l1.exe PID=     15609.
  
 Copyright (c) 1988,1990,1992,1993,1995,1998,2003,2009,2015,
            Gaussian, Inc.  All Rights Reserved.
  
 This is part of the Gaussian(R) 09 program.  It is based on
 the Gaussian(R) 03 system (copyright 2003, Gaussian, Inc.),
 the Gaussian(R) 98 system (copyright 1998, Gaussian, Inc.),
 the Gaussian(R) 94 system (copyright 1995, Gaussian, Inc.),
 the Gaussian 92(TM) system (copyright 1992, Gaussian, Inc.),
 the Gaussian 90(TM) system (copyright 1990, Gaussian, Inc.),
 the Gaussian 88(TM) system (copyright 1988, Gaussian, Inc.),
 the Gaussian 86(TM) system (copyright 1986, Carnegie Mellon
 University), and the Gaussian 82(TM) system (copyright 1983,
 Carnegie Mellon University). Gaussian is a federally registered
 trademark of Gaussian, Inc.
  
 This software contains proprietary and confidential information,
 including trade secrets, belonging to Gaussian, Inc.
  
 This software is provided under written license and may be
 used, copied, transmitted, or stored only in accord with that
 written license.
  
 The following legend is applicable only to US Government
 contracts under FAR:
  
                    RESTRICTED RIGHTS LEGEND
  
 Use, reproduction and disclosure by the US Government is
 subject to restrictions as set forth in subparagraphs (a)
 and (c) of the Commercial Computer Software - Restricted
 Rights clause in FAR 52.227-19.
  
 Gaussian, Inc.
 340 Quinnipiac St., Bldg. 40, Wallingford CT 06492
  
  
 ---------------------------------------------------------------
 Warning -- This program may not be used in any manner that
 competes with the business of Gaussian, Inc. or will provide
 assistance to any competitor of Gaussian, Inc.  The licensee
 of this program is prohibited from giving any competitor of
 Gaussian, Inc. access to this program.  By using this program,
 the user acknowledges that Gaussian, Inc. is engaged in the
 business of creating and licensing software in the field of
 computational chemistry and represents and warrants to the
 licensee that it is not a competitor of Gaussian, Inc. and that
 it will not use this program in any manner prohibited above.
 ---------------------------------------------------------------
  

 Cite this work as:
 Gaussian 09, Revision E.01,
 M. J. Frisch, G. W. Trucks, H. B. Schlegel, G. E. Scuseria, 
 M. A. Robb, J. R. Cheeseman, G. Scalmani, V. Barone, B. Mennucci, 
 G. A. Petersson, H. Nakatsuji, M. Caricato, X. Li, H. P. Hratchian, 
 A. F. Izmaylov, J. Bloino, G. Zheng, J. L. Sonnenberg, M. Hada, 
 M. Ehara, K. Toyota, R. Fukuda, J. Hasegawa, M. Ishida, T. Nakajima, 
 Y. Honda, O. Kitao, H. Nakai, T. Vreven, J. A. Montgomery, Jr., 
 J. E. Peralta, F. Ogliaro, M. Bearpark, J. J. Heyd, E. Brothers, 
 K. N. Kudin, V. N. Staroverov, T. Keith, R. Kobayashi, J. Normand, 
 K. Raghavachari, A. Rendell, J. C. Burant, S. S. Iyengar, J. Tomasi, 
 M. Cossi, N. Rega, J. M. Millam, M. Klene, J. E. Knox, J. B. Cross, 
 V. Bakken, C. Adamo, J. Jaramillo, R. Gomperts, R. E. Stratmann, 
 O. Yazyev, A. J. Austin, R. Cammi, C. Pomelli, J. W. Ochterski, 
 R. L. Martin, K. Morokuma, V. G. Zakrzewski, G. A. Voth, 
 P. Salvador, J. J. Dannenberg, S. Dapprich, A. D. Daniels, 
 O. Farkas, J. B. Foresman, J. V. Ortiz, J. Cioslowski, 
 and D. J. Fox, Gaussian, Inc., Wallingford CT, 2013.
 
 ******************************************
 Gaussian 09:  EM64L-G09RevE.01 30-Nov-2015
                19-Jun-2016 
 ******************************************
 %NProcShared=4
 Will use up to    4 processors via shared memory.
 ---------------------------------------------
 #p b3lyp/6-311++G(3df,2p) freq symmetry=Loose
 ---------------------------------------------
 1/10=4,30=1,38=1/1,3;
 2/12=2,17=4,18=3,40=1/2;
 3/5=4,6=6,7=1216,11=2,16=1,25=1,30=1,71=2,74=-5,140=1/1,2,3;
 4//1;
 5/5=2,38=5,98=1/2;
 8/6=4,10=90,11=11/1;
 11/6=1,8=1,9=11,15=111,16=1/1,2,10;
 10/6=1/2;
 6/7=2,8=2,9=2,10=2,18=1,28=1/1;
 7/8=1,10=1,25=1/1,2,3,16;
 1/10=4,30=1/3;
 99//99;
 Leave Link    1 at Sun Jun 19 04:42:11 2016, MaxMem=           0 cpu:         0.3
 (Enter /home/proyectos/fulerenos/M3C-v1.9/M3C-deps_CCC/g09-AM64L-G09RevC.01/l101.exe)
 ---------
 b3lyp opt
 ---------
 Symbolic Z-matrix:
 Charge =  1 Multiplicity = 2
 H                     0.11361  -1.0683    0.15336 
 H                    -0.15435  -2.2478    0.24183 
 F                     0.50717  -0.03287   0.10653 
 F                    -0.57897   0.82168  -0.20766 
 
 NAtoms=      4 NQM=        4 NQMF=       0 NMMI=      0 NMMIF=      0
                NMic=       0 NMicF=      0.
                    Isotopes and Nuclear Properties:
 (Nuclear quadrupole moments (NQMom) in fm**2, nuclear magnetic moments (NMagM)
  in nuclear magnetons)

  Atom         1           2           3           4
 IAtWgt=           1           1          19          19
 AtmWgt=   1.0078250   1.0078250  18.9984033  18.9984033
 NucSpn=           1           1           1           1
 AtZEff=   0.0000000   0.0000000   0.0000000   0.0000000
 NQMom=    0.0000000   0.0000000   0.0000000   0.0000000
 NMagM=    2.7928460   2.7928460   2.6288670   2.6288670
 AtZNuc=   1.0000000   1.0000000   9.0000000   9.0000000
 Leave Link  101 at Sun Jun 19 04:42:11 2016, MaxMem=    33554432 cpu:         0.2
 (Enter /home/proyectos/fulerenos/M3C-v1.9/M3C-deps_CCC/g09-AM64L-G09RevC.01/l103.exe)

 GradGradGradGradGradGradGradGradGradGradGradGradGradGradGradGradGradGrad
 Berny optimization.
 Initialization pass.
 Trust Radius=3.00D-01 FncErr=1.00D-07 GrdErr=1.00D-07
 Number of steps in this run=      2 maximum allowed number of steps=      2.
 GradGradGradGradGradGradGradGradGradGradGradGradGradGradGradGradGradGrad

 Leave Link  103 at Sun Jun 19 04:42:11 2016, MaxMem=    33554432 cpu:         0.1
 (Enter /home/proyectos/fulerenos/M3C-v1.9/M3C-deps_CCC/g09-AM64L-G09RevC.01/l202.exe)
                          Input orientation:                          
 ---------------------------------------------------------------------
 Center     Atomic      Atomic             Coordinates (Angstroms)
 Number     Number       Type             X           Y           Z
 ---------------------------------------------------------------------
      1          1           0        0.113608   -1.068304    0.153358
      2          1           0       -0.154350   -2.247797    0.241826
      3          9           0        0.507165   -0.032874    0.106529
      4          9           0       -0.578969    0.821683   -0.207661
 ---------------------------------------------------------------------
                    Distance matrix (angstroms):
                    1          2          3          4
     1  H    0.000000
     2  H    1.212779   0.000000
     3  F    1.108691   2.315554   0.000000
     4  F    2.045006   3.131142   1.417276   0.000000
 Stoichiometry    F2H2(1+,2)
 Framework group  CS[SG(F2H2)]
 Deg. of freedom     5
 Full point group                 CS      NOp   2
 Largest Abelian subgroup         CS      NOp   2
 Largest concise Abelian subgroup C1      NOp   1
                         Standard orientation:                         
 ---------------------------------------------------------------------
 Center     Atomic      Atomic             Coordinates (Angstroms)
 Number     Number       Type             X           Y           Z
 ---------------------------------------------------------------------
      1          1           0        0.897070    0.911290    0.000000
      2          1           0        1.990111    1.436736    0.000000
      3          9           0       -0.160399    0.578192    0.000000
      4          9           0       -0.160399   -0.839084   -0.000000
 ---------------------------------------------------------------------
 Rotational constants (GHZ):    112.2879689     21.5028752     18.0469314
 Leave Link  202 at Sun Jun 19 04:42:11 2016, MaxMem=    33554432 cpu:         0.0
 (Enter /home/proyectos/fulerenos/M3C-v1.9/M3C-deps_CCC/g09-AM64L-G09RevC.01/l301.exe)
 Standard basis: 6-311++G(3df,2p) (5D, 7F)
 Ernie: Thresh=  0.10000D-02 Tol=  0.10000D-05 Strict=F.
 There are    78 symmetry adapted cartesian basis functions of A'  symmetry.
 There are    32 symmetry adapted cartesian basis functions of A"  symmetry.
 There are    68 symmetry adapted basis functions of A'  symmetry.
 There are    30 symmetry adapted basis functions of A"  symmetry.
    98 basis functions,   140 primitive gaussians,   110 cartesian basis functions
    10 alpha electrons        9 beta electrons
       nuclear repulsion energy        40.8822285494 Hartrees.
 IExCor=  402 DFT=T Ex+Corr=B3LYP ExCW=0 ScaHFX=  0.200000
 ScaDFX=  0.800000  0.720000  1.000000  0.810000 ScalE2=  1.000000  1.000000
 IRadAn=      0 IRanWt=     -1 IRanGd=            0 ICorTp=0 IEmpDi=  4
 NAtoms=    4 NActive=    4 NUniq=    4 SFac= 1.00D+00 NAtFMM=   60 NAOKFM=F Big=F
 Integral buffers will be    131072 words long.
 Raffenetti 2 integral format.
 Two-electron integral symmetry is turned on.
 Leave Link  301 at Sun Jun 19 04:42:11 2016, MaxMem=    33554432 cpu:         0.2
 (Enter /home/proyectos/fulerenos/M3C-v1.9/M3C-deps_CCC/g09-AM64L-G09RevC.01/l302.exe)
 NPDir=0 NMtPBC=     1 NCelOv=     1 NCel=       1 NClECP=     1 NCelD=      1
         NCelK=      1 NCelE2=     1 NClLst=     1 CellRange=     0.0.
 One-electron integrals computed using PRISM.
 NBasis=    98 RedAO= T EigKep=  2.70D-03  NBF=    68    30
 NBsUse=    98 1.00D-06 EigRej= -1.00D+00 NBFU=    68    30
 Precomputing XC quadrature grid using
 IXCGrd= 4 IRadAn=           0 IRanWt=          -1 IRanGd=           0 AccXCQ= 0.00D+00.
 Generated NRdTot=       0 NPtTot=           0 NUsed=           0 NTot=          32
 NSgBfM=   110   110   110   110   110 MxSgAt=     4 MxSgA2=     4.
 Leave Link  302 at Sun Jun 19 04:42:12 2016, MaxMem=    33554432 cpu:         0.8
 (Enter /home/proyectos/fulerenos/M3C-v1.9/M3C-deps_CCC/g09-AM64L-G09RevC.01/l303.exe)
 DipDrv:  MaxL=1.
 Leave Link  303 at Sun Jun 19 04:42:12 2016, MaxMem=    33554432 cpu:         0.1
 (Enter /home/proyectos/fulerenos/M3C-v1.9/M3C-deps_CCC/g09-AM64L-G09RevC.01/l401.exe)
 ExpMin= 3.60D-02 ExpMax= 1.14D+04 ExpMxC= 1.72D+03 IAcc=3 IRadAn=         5 AccDes= 0.00D+00
 Harris functional with IExCor=  402 and IRadAn=       5 diagonalized for initial guess.
 HarFok:  IExCor=  402 AccDes= 0.00D+00 IRadAn=         5 IDoV= 1 UseB2=F ITyADJ=14
 ICtDFT=  3500011 ScaDFX=  1.000000  1.000000  1.000000  1.000000
 FoFCou: FMM=F IPFlag=           0 FMFlag=      100000 FMFlg1=           0
         NFxFlg=           0 DoJE=T BraDBF=F KetDBF=T FulRan=T
         wScrn=  0.000000 ICntrl=     500 IOpCl=  0 I1Cent=   200000004 NGrid=           0
         NMat0=    1 NMatS0=      1 NMatT0=    0 NMatD0=    1 NMtDS0=    0 NMtDT0=    0
 Petite list used in FoFCou.
 Harris En= -200.403436826719    
 JPrj=0 DoOrth=F DoCkMO=F.
 Initial guess orbital symmetries:
 Alpha Orbitals:
       Occupied  (A') (A') (A') (A') (A') (A') (A") (A') (A") (A')
       Virtual   (A') (A') (A') (A') (A') (A") (A') (A') (A") (A')
                 (A') (A') (A') (A') (A") (A') (A") (A') (A") (A')
                 (A") (A') (A') (A') (A") (A') (A') (A") (A') (A')
                 (A") (A') (A') (A") (A') (A') (A') (A') (A') (A')
                 (A") (A') (A") (A') (A') (A') (A') (A") (A') (A")
                 (A") (A") (A') (A') (A') (A') (A') (A") (A') (A")
                 (A') (A") (A') (A") (A') (A') (A") (A') (A") (A")
                 (A') (A') (A') (A") (A') (A') (A") (A') (A") (A')
                 (A") (A') (A") (A') (A') (A') (A') (A')
 Beta  Orbitals:
       Occupied  (A') (A') (A') (A') (A') (A') (A") (A') (A")
       Virtual   (A') (A') (A') (A') (A') (A') (A") (A') (A') (A")
                 (A') (A') (A') (A') (A') (A") (A') (A") (A') (A")
                 (A') (A") (A') (A') (A') (A") (A') (A') (A") (A')
                 (A') (A") (A') (A') (A") (A') (A') (A') (A') (A')
                 (A') (A") (A') (A") (A') (A') (A') (A') (A") (A')
                 (A") (A") (A") (A') (A') (A') (A') (A') (A") (A')
                 (A") (A') (A") (A') (A") (A') (A') (A") (A') (A")
                 (A") (A') (A') (A') (A") (A') (A') (A") (A') (A")
                 (A') (A") (A') (A") (A') (A') (A') (A') (A')
 The electronic state of the initial guess is 2-A'.
 Initial guess <Sx>= 0.0000 <Sy>= 0.0000 <Sz>= 0.5000 <S**2>= 0.7500 S= 0.5000
 Leave Link  401 at Sun Jun 19 04:42:12 2016, MaxMem=    33554432 cpu:         2.1
 (Enter /home/proyectos/fulerenos/M3C-v1.9/M3C-deps_CCC/g09-AM64L-G09RevC.01/l502.exe)
 UHF open shell SCF:
 Using DIIS extrapolation, IDIIS=  1040.
 Integral symmetry usage will be decided dynamically.
 Keep R1 and R2 ints in memory in symmetry-blocked form, NReq=18169672.
 IVT=       56340 IEndB=       56340 NGot=    33554432 MDV=    21418945
 LenX=    21418945 LenY=    21406404
 Requested convergence on RMS density matrix=1.00D-08 within 128 cycles.
 Requested convergence on MAX density matrix=1.00D-06.
 Requested convergence on             energy=1.00D-06.
 No special actions if energy rises.
 FoFCou: FMM=F IPFlag=           0 FMFlag=           0 FMFlg1=           0
         NFxFlg=           0 DoJE=F BraDBF=F KetDBF=F FulRan=T
         wScrn=  0.000000 ICntrl=     600 IOpCl=  0 I1Cent=           0 NGrid=           0
         NMat0=    1 NMatS0=   4851 NMatT0=    0 NMatD0=    1 NMtDS0=    0 NMtDT0=    0
 Petite list used in FoFCou.

 Cycle   1  Pass 1  IDiag  1:
 E= -200.182955880025    
 DIIS: error= 3.47D-02 at cycle   1 NSaved=   1.
 NSaved= 1 IEnMin= 1 EnMin= -200.182955880025     IErMin= 1 ErrMin= 3.47D-02
 ErrMax= 3.47D-02  0.00D+00 EMaxC= 1.00D-01 BMatC= 3.35D-01 BMatP= 3.35D-01
 IDIUse=3 WtCom= 6.53D-01 WtEn= 3.47D-01
 Coeff-Com:  0.100D+01
 Coeff-En:   0.100D+01
 Coeff:      0.100D+01
 Gap=     0.087 Goal=   None    Shift=    0.000
 Gap=     0.267 Goal=   None    Shift=    0.000
 GapD=    0.087 DampG=0.500 DampE=0.500 DampFc=0.2500 IDamp=-1.
 Damping current iteration by 2.50D-01
 RMSDP=3.25D-03 MaxDP=7.82D-02              OVMax= 1.96D-01

 Cycle   2  Pass 1  IDiag  1:
 E= -200.205768357422     Delta-E=       -0.022812477397 Rises=F Damp=T
 DIIS: error= 1.48D-02 at cycle   2 NSaved=   2.
 NSaved= 2 IEnMin= 2 EnMin= -200.205768357422     IErMin= 2 ErrMin= 1.48D-02
 ErrMax= 1.48D-02  0.00D+00 EMaxC= 1.00D-01 BMatC= 8.32D-02 BMatP= 3.35D-01
 IDIUse=3 WtCom= 8.52D-01 WtEn= 1.48D-01
 Coeff-Com: -0.469D+00 0.147D+01
 Coeff-En:   0.000D+00 0.100D+01
 Coeff:     -0.400D+00 0.140D+01
 Gap=     0.145 Goal=   None    Shift=    0.000
 Gap=     0.245 Goal=   None    Shift=    0.000
 RMSDP=1.43D-03 MaxDP=4.53D-02 DE=-2.28D-02 OVMax= 1.31D-01

 Cycle   3  Pass 1  IDiag  1:
 E= -200.245186023715     Delta-E=       -0.039417666293 Rises=F Damp=F
 DIIS: error= 1.01D-02 at cycle   3 NSaved=   3.
 NSaved= 3 IEnMin= 3 EnMin= -200.245186023715     IErMin= 3 ErrMin= 1.01D-02
 ErrMax= 1.01D-02  0.00D+00 EMaxC= 1.00D-01 BMatC= 5.37D-02 BMatP= 8.32D-02
 IDIUse=3 WtCom= 8.99D-01 WtEn= 1.01D-01
 Coeff-Com: -0.300D+00 0.790D+00 0.510D+00
 Coeff-En:   0.000D+00 0.000D+00 0.100D+01
 Coeff:     -0.270D+00 0.710D+00 0.559D+00
 Gap=     0.192 Goal=   None    Shift=    0.000
 Gap=     0.231 Goal=   None    Shift=    0.000
 RMSDP=6.94D-04 MaxDP=1.91D-02 DE=-3.94D-02 OVMax= 4.51D-02

 Cycle   4  Pass 1  IDiag  1:
 E= -200.250598587215     Delta-E=       -0.005412563499 Rises=F Damp=F
 DIIS: error= 6.60D-03 at cycle   4 NSaved=   4.
 NSaved= 4 IEnMin= 4 EnMin= -200.250598587215     IErMin= 4 ErrMin= 6.60D-03
 ErrMax= 6.60D-03  0.00D+00 EMaxC= 1.00D-01 BMatC= 1.65D-02 BMatP= 5.37D-02
 IDIUse=3 WtCom= 9.34D-01 WtEn= 6.60D-02
 Coeff-Com:  0.426D-01-0.196D-01 0.337D+00 0.640D+00
 Coeff-En:   0.000D+00 0.000D+00 0.282D+00 0.718D+00
 Coeff:      0.398D-01-0.183D-01 0.333D+00 0.645D+00
 Gap=     0.180 Goal=   None    Shift=    0.000
 Gap=     0.242 Goal=   None    Shift=    0.000
 RMSDP=2.79D-04 MaxDP=6.65D-03 DE=-5.41D-03 OVMax= 1.94D-02

 Cycle   5  Pass 1  IDiag  1:
 E= -200.253198690618     Delta-E=       -0.002600103403 Rises=F Damp=F
 DIIS: error= 7.84D-04 at cycle   5 NSaved=   5.
 NSaved= 5 IEnMin= 5 EnMin= -200.253198690618     IErMin= 5 ErrMin= 7.84D-04
 ErrMax= 7.84D-04  0.00D+00 EMaxC= 1.00D-01 BMatC= 2.18D-04 BMatP= 1.65D-02
 IDIUse=3 WtCom= 9.92D-01 WtEn= 7.84D-03
 Coeff-Com:  0.154D-01-0.311D-01 0.557D-01 0.190D+00 0.770D+00
 Coeff-En:   0.000D+00 0.000D+00 0.000D+00 0.000D+00 0.100D+01
 Coeff:      0.153D-01-0.308D-01 0.553D-01 0.188D+00 0.772D+00
 Gap=     0.183 Goal=   None    Shift=    0.000
 Gap=     0.237 Goal=   None    Shift=    0.000
 RMSDP=4.60D-05 MaxDP=1.00D-03 DE=-2.60D-03 OVMax= 4.06D-03

 Cycle   6  Pass 1  IDiag  1:
 E= -200.253246661463     Delta-E=       -0.000047970846 Rises=F Damp=F
 DIIS: error= 1.14D-04 at cycle   6 NSaved=   6.
 NSaved= 6 IEnMin= 6 EnMin= -200.253246661463     IErMin= 6 ErrMin= 1.14D-04
 ErrMax= 1.14D-04  0.00D+00 EMaxC= 1.00D-01 BMatC= 5.93D-06 BMatP= 2.18D-04
 IDIUse=3 WtCom= 9.99D-01 WtEn= 1.14D-03
 Coeff-Com: -0.545D-02 0.587D-02-0.114D-01-0.284D-01 0.313D-01 0.101D+01
 Coeff-En:   0.000D+00 0.000D+00 0.000D+00 0.000D+00 0.000D+00 0.100D+01
 Coeff:     -0.544D-02 0.586D-02-0.114D-01-0.284D-01 0.313D-01 0.101D+01
 Gap=     0.183 Goal=   None    Shift=    0.000
 Gap=     0.237 Goal=   None    Shift=    0.000
 RMSDP=1.83D-05 MaxDP=3.22D-04 DE=-4.80D-05 OVMax= 1.84D-03

 Cycle   7  Pass 1  IDiag  1:
 E= -200.253250900269     Delta-E=       -0.000004238806 Rises=F Damp=F
 DIIS: error= 8.18D-05 at cycle   7 NSaved=   7.
 NSaved= 7 IEnMin= 7 EnMin= -200.253250900269     IErMin= 7 ErrMin= 8.18D-05
 ErrMax= 8.18D-05  0.00D+00 EMaxC= 1.00D-01 BMatC= 1.56D-06 BMatP= 5.93D-06
 IDIUse=1 WtCom= 1.00D+00 WtEn= 0.00D+00
 Coeff-Com:  0.131D-02-0.129D-02-0.153D-02-0.119D-01-0.571D-01-0.815D-01
 Coeff-Com:  0.115D+01
 Coeff:      0.131D-02-0.129D-02-0.153D-02-0.119D-01-0.571D-01-0.815D-01
 Coeff:      0.115D+01
 Gap=     0.183 Goal=   None    Shift=    0.000
 Gap=     0.237 Goal=   None    Shift=    0.000
 RMSDP=1.11D-05 MaxDP=2.19D-04 DE=-4.24D-06 OVMax= 1.10D-03

 Cycle   8  Pass 1  IDiag  1:
 E= -200.253252207855     Delta-E=       -0.000001307586 Rises=F Damp=F
 DIIS: error= 3.21D-05 at cycle   8 NSaved=   8.
 NSaved= 8 IEnMin= 8 EnMin= -200.253252207855     IErMin= 8 ErrMin= 3.21D-05
 ErrMax= 3.21D-05  0.00D+00 EMaxC= 1.00D-01 BMatC= 3.31D-07 BMatP= 1.56D-06
 IDIUse=1 WtCom= 1.00D+00 WtEn= 0.00D+00
 Coeff-Com:  0.990D-03-0.843D-03 0.190D-02 0.555D-02-0.731D-02-0.180D+00
 Coeff-Com: -0.578D-02 0.119D+01
 Coeff:      0.990D-03-0.843D-03 0.190D-02 0.555D-02-0.731D-02-0.180D+00
 Coeff:     -0.578D-02 0.119D+01
 Gap=     0.183 Goal=   None    Shift=    0.000
 Gap=     0.237 Goal=   None    Shift=    0.000
 RMSDP=8.33D-06 MaxDP=1.80D-04 DE=-1.31D-06 OVMax= 8.44D-04

 Cycle   9  Pass 1  IDiag  1:
 E= -200.253252764026     Delta-E=       -0.000000556171 Rises=F Damp=F
 DIIS: error= 2.20D-05 at cycle   9 NSaved=   9.
 NSaved= 9 IEnMin= 9 EnMin= -200.253252764026     IErMin= 9 ErrMin= 2.20D-05
 ErrMax= 2.20D-05  0.00D+00 EMaxC= 1.00D-01 BMatC= 1.23D-07 BMatP= 3.31D-07
 IDIUse=1 WtCom= 1.00D+00 WtEn= 0.00D+00
 Coeff-Com: -0.943D-03 0.960D-03-0.671D-03 0.161D-02 0.199D-01 0.750D-01
 Coeff-Com: -0.340D+00-0.360D+00 0.160D+01
 Coeff:     -0.943D-03 0.960D-03-0.671D-03 0.161D-02 0.199D-01 0.750D-01
 Coeff:     -0.340D+00-0.360D+00 0.160D+01
 Gap=     0.183 Goal=   None    Shift=    0.000
 Gap=     0.237 Goal=   None    Shift=    0.000
 RMSDP=8.45D-06 MaxDP=1.79D-04 DE=-5.56D-07 OVMax= 8.70D-04

 Cycle  10  Pass 1  IDiag  1:
 E= -200.253253082711     Delta-E=       -0.000000318685 Rises=F Damp=F
 DIIS: error= 1.05D-05 at cycle  10 NSaved=  10.
 NSaved=10 IEnMin=10 EnMin= -200.253253082711     IErMin=10 ErrMin= 1.05D-05
 ErrMax= 1.05D-05  0.00D+00 EMaxC= 1.00D-01 BMatC= 3.01D-08 BMatP= 1.23D-07
 IDIUse=1 WtCom= 1.00D+00 WtEn= 0.00D+00
 Coeff-Com: -0.147D-04-0.534D-04-0.842D-03-0.390D-02-0.471D-02 0.275D-01
 Coeff-Com:  0.120D+00-0.241D+00-0.694D+00 0.180D+01
 Coeff:     -0.147D-04-0.534D-04-0.842D-03-0.390D-02-0.471D-02 0.275D-01
 Coeff:      0.120D+00-0.241D+00-0.694D+00 0.180D+01
 Gap=     0.183 Goal=   None    Shift=    0.000
 Gap=     0.237 Goal=   None    Shift=    0.000
 RMSDP=6.72D-06 MaxDP=1.44D-04 DE=-3.19D-07 OVMax= 6.82D-04

 Cycle  11  Pass 1  IDiag  1:
 E= -200.253253177299     Delta-E=       -0.000000094588 Rises=F Damp=F
 DIIS: error= 2.74D-06 at cycle  11 NSaved=  11.
 NSaved=11 IEnMin=11 EnMin= -200.253253177299     IErMin=11 ErrMin= 2.74D-06
 ErrMax= 2.74D-06  0.00D+00 EMaxC= 1.00D-01 BMatC= 1.76D-09 BMatP= 3.01D-08
 IDIUse=1 WtCom= 1.00D+00 WtEn= 0.00D+00
 Coeff-Com:  0.134D-03-0.155D-03 0.291D-04 0.107D-03-0.175D-02-0.117D-01
 Coeff-Com:  0.268D-01 0.459D-01-0.877D-01-0.128D+00 0.116D+01
 Coeff:      0.134D-03-0.155D-03 0.291D-04 0.107D-03-0.175D-02-0.117D-01
 Coeff:      0.268D-01 0.459D-01-0.877D-01-0.128D+00 0.116D+01
 Gap=     0.183 Goal=   None    Shift=    0.000
 Gap=     0.237 Goal=   None    Shift=    0.000
 RMSDP=9.93D-07 MaxDP=2.24D-05 DE=-9.46D-08 OVMax= 1.01D-04

 Cycle  12  Pass 1  IDiag  1:
 E= -200.253253180530     Delta-E=       -0.000000003231 Rises=F Damp=F
 DIIS: error= 1.39D-06 at cycle  12 NSaved=  12.
 NSaved=12 IEnMin=12 EnMin= -200.253253180530     IErMin=12 ErrMin= 1.39D-06
 ErrMax= 1.39D-06  0.00D+00 EMaxC= 1.00D-01 BMatC= 4.58D-10 BMatP= 1.76D-09
 IDIUse=1 WtCom= 1.00D+00 WtEn= 0.00D+00
 Coeff-Com: -0.509D-04 0.694D-04 0.722D-04 0.466D-03 0.127D-02 0.806D-03
 Coeff-Com: -0.225D-01 0.947D-02 0.116D+00-0.173D+00-0.419D+00 0.149D+01
 Coeff:     -0.509D-04 0.694D-04 0.722D-04 0.466D-03 0.127D-02 0.806D-03
 Coeff:     -0.225D-01 0.947D-02 0.116D+00-0.173D+00-0.419D+00 0.149D+01
 Gap=     0.183 Goal=   None    Shift=    0.000
 Gap=     0.237 Goal=   None    Shift=    0.000
 RMSDP=3.89D-07 MaxDP=8.25D-06 DE=-3.23D-09 OVMax= 3.44D-05

 Cycle  13  Pass 1  IDiag  1:
 E= -200.253253181322     Delta-E=       -0.000000000792 Rises=F Damp=F
 DIIS: error= 8.46D-07 at cycle  13 NSaved=  13.
 NSaved=13 IEnMin=13 EnMin= -200.253253181322     IErMin=13 ErrMin= 8.46D-07
 ErrMax= 8.46D-07  0.00D+00 EMaxC= 1.00D-01 BMatC= 1.27D-10 BMatP= 4.58D-10
 IDIUse=1 WtCom= 1.00D+00 WtEn= 0.00D+00
 Coeff-Com: -0.217D-04 0.196D-04-0.173D-04-0.154D-03 0.314D-03 0.318D-02
 Coeff-Com: -0.522D-02-0.117D-01 0.312D-02 0.728D-01-0.302D+00-0.293D+00
 Coeff-Com:  0.153D+01
 Coeff:     -0.217D-04 0.196D-04-0.173D-04-0.154D-03 0.314D-03 0.318D-02
 Coeff:     -0.522D-02-0.117D-01 0.312D-02 0.728D-01-0.302D+00-0.293D+00
 Coeff:      0.153D+01
 Gap=     0.183 Goal=   None    Shift=    0.000
 Gap=     0.237 Goal=   None    Shift=    0.000
 RMSDP=2.50D-07 MaxDP=4.86D-06 DE=-7.92D-10 OVMax= 2.04D-05

 Cycle  14  Pass 1  IDiag  1:
 E= -200.253253181538     Delta-E=       -0.000000000216 Rises=F Damp=F
 DIIS: error= 1.61D-07 at cycle  14 NSaved=  14.
 NSaved=14 IEnMin=14 EnMin= -200.253253181538     IErMin=14 ErrMin= 1.61D-07
 ErrMax= 1.61D-07  0.00D+00 EMaxC= 1.00D-01 BMatC= 5.31D-12 BMatP= 1.27D-10
 IDIUse=1 WtCom= 1.00D+00 WtEn= 0.00D+00
 Coeff-Com:  0.719D-05-0.830D-05-0.710D-05-0.163D-04-0.179D-03-0.554D-03
 Coeff-Com:  0.260D-02 0.166D-02-0.104D-01 0.240D-02 0.886D-01-0.108D+00
 Coeff-Com: -0.225D+00 0.125D+01
 Coeff:      0.719D-05-0.830D-05-0.710D-05-0.163D-04-0.179D-03-0.554D-03
 Coeff:      0.260D-02 0.166D-02-0.104D-01 0.240D-02 0.886D-01-0.108D+00
 Coeff:     -0.225D+00 0.125D+01
 Gap=     0.183 Goal=   None    Shift=    0.000
 Gap=     0.237 Goal=   None    Shift=    0.000
 RMSDP=4.04D-08 MaxDP=9.40D-07 DE=-2.16D-10 OVMax= 3.71D-06

 Cycle  15  Pass 1  IDiag  1:
 E= -200.253253181546     Delta-E=       -0.000000000008 Rises=F Damp=F
 DIIS: error= 2.88D-08 at cycle  15 NSaved=  15.
 NSaved=15 IEnMin=15 EnMin= -200.253253181546     IErMin=15 ErrMin= 2.88D-08
 ErrMax= 2.88D-08  0.00D+00 EMaxC= 1.00D-01 BMatC= 2.90D-13 BMatP= 5.31D-12
 IDIUse=1 WtCom= 1.00D+00 WtEn= 0.00D+00
 Coeff-Com:  0.808D-06-0.585D-06 0.134D-05 0.979D-05-0.742D-05-0.169D-03
 Coeff-Com:  0.298D-03 0.344D-03 0.610D-03-0.505D-02 0.167D-01 0.306D-01
 Coeff-Com: -0.109D+00-0.410D-01 0.111D+01
 Coeff:      0.808D-06-0.585D-06 0.134D-05 0.979D-05-0.742D-05-0.169D-03
 Coeff:      0.298D-03 0.344D-03 0.610D-03-0.505D-02 0.167D-01 0.306D-01
 Coeff:     -0.109D+00-0.410D-01 0.111D+01
 Gap=     0.183 Goal=   None    Shift=    0.000
 Gap=     0.237 Goal=   None    Shift=    0.000
 RMSDP=4.85D-09 MaxDP=1.10D-07 DE=-7.62D-12 OVMax= 5.31D-07

 SCF Done:  E(UB3LYP) =  -200.253253182     A.U. after   15 cycles
            NFock= 15  Conv=0.49D-08     -V/T= 2.0026
 <Sx>= 0.0000 <Sy>= 0.0000 <Sz>= 0.5000 <S**2>= 0.7536 S= 0.5018
 <L.S>= 0.000000000000E+00
 KE= 1.997285679931D+02 PE=-5.533371847209D+02 EE= 1.124731349969D+02
 Annihilation of the first spin contaminant:
 S**2 before annihilation     0.7536,   after     0.7500
 Leave Link  502 at Sun Jun 19 04:42:21 2016, MaxMem=    33554432 cpu:        20.9
 (Enter /home/proyectos/fulerenos/M3C-v1.9/M3C-deps_CCC/g09-AM64L-G09RevC.01/l801.exe)
 DoSCS=F DFT=T ScalE2(SS,OS)=  1.000000  1.000000
 Range of M.O.s used for correlation:     1    98
 NBasis=    98 NAE=    10 NBE=     9 NFC=     0 NFV=     0
 NROrb=     98 NOA=    10 NOB=     9 NVA=    88 NVB=    89

 **** Warning!!: The largest alpha MO coefficient is  0.10943461D+02


 **** Warning!!: The largest beta MO coefficient is  0.11551490D+02

 Leave Link  801 at Sun Jun 19 04:42:21 2016, MaxMem=    33554432 cpu:         0.1
 (Enter /home/proyectos/fulerenos/M3C-v1.9/M3C-deps_CCC/g09-AM64L-G09RevC.01/l1101.exe)
 Using compressed storage, NAtomX=     4.
 Will process      5 centers per pass.
 Leave Link 1101 at Sun Jun 19 04:42:21 2016, MaxMem=    33554432 cpu:         1.0
 (Enter /home/proyectos/fulerenos/M3C-v1.9/M3C-deps_CCC/g09-AM64L-G09RevC.01/l1102.exe)
 Symmetrizing basis deriv contribution to polar:
 IMax=3 JMax=2 DiffMx= 0.00D+00
 Leave Link 1102 at Sun Jun 19 04:42:21 2016, MaxMem=    33554432 cpu:         0.3
 (Enter /home/proyectos/fulerenos/M3C-v1.9/M3C-deps_CCC/g09-AM64L-G09RevC.01/l1110.exe)
 Forming Gx(P) for the SCF density, NAtomX=     4.
 Integral derivatives from FoFJK, PRISM(SPDF).
 Do as many integral derivatives as possible in FoFJK.
 G2DrvN: MDV=      33554296.
 G2DrvN: will do     5 centers at a time, making    1 passes.
 Calling FoFCou, ICntrl=  3107 FMM=F I1Cent=   0 AccDes= 0.00D+00.
 FoFJK:  IHMeth= 1 ICntrl=    3107 DoSepK=F KAlg= 0 I1Cent=   0 FoldK=F
 IRaf=         0 NMat=   1 IRICut=       1 DoRegI=T DoRafI=F ISym2E= 1.
 FoFCou: FMM=F IPFlag=           0 FMFlag=      100000 FMFlg1=           0
         NFxFlg=           0 DoJE=F BraDBF=F KetDBF=F FulRan=T
         wScrn=  0.000000 ICntrl=    3107 IOpCl=  1 I1Cent=           0 NGrid=           0
         NMat0=    1 NMatS0=      1 NMatT0=    0 NMatD0=    1 NMtDS0=    0 NMtDT0=    0
 Petite list used in FoFCou.
 End of G2Drv F.D. properties file   721 does not exist.
 End of G2Drv F.D. properties file   722 does not exist.
 End of G2Drv F.D. properties file   788 does not exist.
 Leave Link 1110 at Sun Jun 19 04:42:25 2016, MaxMem=    33554432 cpu:        13.3
 (Enter /home/proyectos/fulerenos/M3C-v1.9/M3C-deps_CCC/g09-AM64L-G09RevC.01/l1002.exe)
 Minotr:  UHF open shell wavefunction.
          IDoAtm=1111
          Direct CPHF calculation.
          Differentiating once with respect to electric field.
                with respect to dipole field.
          Differentiating once with respect to nuclear coordinates.
          Using symmetry in CPHF.
          Requested convergence is 1.0D-08 RMS, and 1.0D-07 maximum.
          Secondary convergence is 1.0D-12 RMS, and 1.0D-12 maximum.
          NewPWx=T KeepS1=F KeepF1=F KeepIn=T MapXYZ=F SortEE=F KeepMc=T.
          MDV=      33554192 using IRadAn=       2.
 Generate precomputed XC quadrature information.
 Keep R1 and R2 ints in memory in symmetry-blocked form, NReq=18115482.
 FoFCou: FMM=F IPFlag=           0 FMFlag=           0 FMFlg1=           0
         NFxFlg=           0 DoJE=F BraDBF=F KetDBF=F FulRan=T
         wScrn=  0.000000 ICntrl=     600 IOpCl=  0 I1Cent=           0 NGrid=           0
         NMat0=    1 NMatS0=   4851 NMatT0=    0 NMatD0=    1 NMtDS0=    0 NMtDT0=    0
 Petite list used in FoFCou.
          Solving linear equations simultaneously, MaxMat=       0.
          There are    15 degrees of freedom in the 1st order CPHF.  IDoFFX=6 NUNeed=     3.
     12 vectors produced by pass  0 Test12= 1.12D-14 6.67D-09 XBig12= 2.24D+01 2.40D+00.
 AX will form    12 AO Fock derivatives at one time.
     12 vectors produced by pass  1 Test12= 1.12D-14 6.67D-09 XBig12= 1.18D+01 7.12D-01.
     12 vectors produced by pass  2 Test12= 1.12D-14 6.67D-09 XBig12= 4.04D-01 1.77D-01.
     12 vectors produced by pass  3 Test12= 1.12D-14 6.67D-09 XBig12= 9.71D-03 2.60D-02.
     12 vectors produced by pass  4 Test12= 1.12D-14 6.67D-09 XBig12= 4.20D-05 1.16D-03.
     12 vectors produced by pass  5 Test12= 1.12D-14 6.67D-09 XBig12= 2.61D-07 1.06D-04.
     10 vectors produced by pass  6 Test12= 1.12D-14 6.67D-09 XBig12= 1.13D-09 4.82D-06.
      3 vectors produced by pass  7 Test12= 1.12D-14 6.67D-09 XBig12= 2.88D-12 3.53D-07.
      2 vectors produced by pass  8 Test12= 1.12D-14 6.67D-09 XBig12= 5.03D-15 1.27D-08.
 InvSVY:  IOpt=1 It=  1 EMax= 6.66D-16
 Solved reduced A of dimension    87 with    12 vectors.
 FullF1:  Do perturbations    1 to     3.
 Isotropic polarizability for W=    0.000000       12.80 Bohr**3.
 End of Minotr F.D. properties file   721 does not exist.
 End of Minotr F.D. properties file   722 does not exist.
 End of Minotr F.D. properties file   788 does not exist.
 Leave Link 1002 at Sun Jun 19 04:42:30 2016, MaxMem=    33554432 cpu:        18.4
 (Enter /home/proyectos/fulerenos/M3C-v1.9/M3C-deps_CCC/g09-AM64L-G09RevC.01/l601.exe)
 Copying SCF densities to generalized density rwf, IOpCl= 1 IROHF=0.

 **********************************************************************

            Population analysis using the SCF density.

 **********************************************************************

 Orbital symmetries:
 Alpha Orbitals:
       Occupied  (A') (A') (A') (A') (A') (A') (A") (A') (A") (A')
       Virtual   (A') (A') (A') (A') (A') (A") (A') (A') (A") (A')
                 (A') (A') (A') (A") (A') (A') (A') (A") (A") (A')
                 (A") (A') (A') (A") (A') (A') (A') (A") (A') (A')
                 (A") (A') (A') (A") (A') (A') (A') (A') (A') (A')
                 (A") (A') (A") (A') (A') (A') (A') (A") (A") (A')
                 (A") (A") (A') (A') (A') (A') (A') (A") (A') (A")
                 (A') (A") (A') (A") (A') (A') (A") (A') (A") (A")
                 (A') (A') (A') (A") (A') (A') (A") (A") (A') (A')
                 (A") (A') (A") (A') (A') (A') (A') (A')
 Beta  Orbitals:
       Occupied  (A') (A') (A') (A') (A') (A') (A") (A') (A")
       Virtual   (A') (A') (A') (A') (A') (A") (A') (A') (A') (A")
                 (A') (A') (A') (A') (A') (A") (A') (A') (A") (A")
                 (A') (A") (A') (A') (A") (A') (A') (A') (A") (A')
                 (A') (A") (A') (A') (A") (A') (A') (A') (A') (A')
                 (A') (A") (A') (A") (A') (A') (A') (A') (A") (A")
                 (A') (A") (A") (A') (A') (A') (A') (A') (A") (A')
                 (A") (A') (A") (A') (A") (A') (A') (A") (A') (A")
                 (A") (A') (A') (A') (A") (A') (A') (A") (A") (A')
                 (A') (A") (A') (A") (A') (A') (A') (A') (A')
 The electronic state is 2-A'.
 Alpha  occ. eigenvalues --  -25.19032 -25.12535  -1.72251  -1.47824  -1.00579
 Alpha  occ. eigenvalues --   -0.94300  -0.89716  -0.77856  -0.75492  -0.69338
 Alpha virt. eigenvalues --   -0.51018  -0.24065  -0.15213  -0.09020  -0.08267
 Alpha virt. eigenvalues --   -0.07007  -0.00354   0.01136   0.03645   0.06449
 Alpha virt. eigenvalues --    0.10241   0.16542   0.17910   0.20552   0.20633
 Alpha virt. eigenvalues --    0.27472   0.45950   0.46440   0.65048   0.66249
 Alpha virt. eigenvalues --    0.75612   0.80190   0.84999   0.91043   0.91951
 Alpha virt. eigenvalues --    0.95137   0.97820   0.98418   1.00711   1.11148
 Alpha virt. eigenvalues --    1.13801   1.25693   1.30899   1.38184   1.46395
 Alpha virt. eigenvalues --    1.47420   2.00056   2.13624   2.28150   2.60421
 Alpha virt. eigenvalues --    3.29191   3.33686   3.38771   3.43466   3.53931
 Alpha virt. eigenvalues --    3.78434   4.02078   4.13341   4.15543   4.18855
 Alpha virt. eigenvalues --    4.22880   4.23121   4.25185   4.31467   4.40976
 Alpha virt. eigenvalues --    4.72143   5.40287   5.65688   5.73232   5.88441
 Alpha virt. eigenvalues --    5.91547   5.94325   5.96081   6.06134   6.12657
 Alpha virt. eigenvalues --    6.17801   6.26754   6.27912   6.30447   6.37851
 Alpha virt. eigenvalues --    6.40440   6.79837   6.88235   7.00186   7.15766
 Alpha virt. eigenvalues --    7.85970  18.78993  18.81054  18.81797  18.84630
 Alpha virt. eigenvalues --   18.85573  18.87357  18.88769  18.91153  19.01154
 Alpha virt. eigenvalues --   19.18692  66.36910  66.59870
  Beta  occ. eigenvalues --  -25.18533 -25.12492  -1.71462  -1.47290  -0.99187
  Beta  occ. eigenvalues --   -0.92863  -0.89389  -0.77185  -0.75337
  Beta virt. eigenvalues --   -0.51643  -0.47513  -0.18384  -0.14262  -0.08219
  Beta virt. eigenvalues --   -0.06657  -0.06076  -0.00035   0.01646   0.03915
  Beta virt. eigenvalues --    0.06479   0.11084   0.17132   0.21399   0.24428
  Beta virt. eigenvalues --    0.25322   0.31447   0.49361   0.49918   0.65119
  Beta virt. eigenvalues --    0.71109   0.76028   0.80821   0.86995   0.91229
  Beta virt. eigenvalues --    0.92298   0.95618   0.97997   0.98476   1.02083
  Beta virt. eigenvalues --    1.11478   1.15039   1.26088   1.32755   1.38218
  Beta virt. eigenvalues --    1.47729   1.50279   2.03308   2.22472   2.39849
  Beta virt. eigenvalues --    2.61202   3.34511   3.42942   3.54773   3.55590
  Beta virt. eigenvalues --    3.56693   3.94018   4.02679   4.13852   4.15613
  Beta virt. eigenvalues --    4.18928   4.22968   4.24035   4.25635   4.32627
  Beta virt. eigenvalues --    4.41734   4.74021   5.40513   5.65831   5.73610
  Beta virt. eigenvalues --    5.88742   5.92126   5.94411   5.96329   6.06588
  Beta virt. eigenvalues --    6.13128   6.18985   6.26836   6.27985   6.31124
  Beta virt. eigenvalues --    6.38119   6.40786   6.80158   6.88786   7.00320
  Beta virt. eigenvalues --    7.16812   7.86261  18.79958  18.81308  18.82113
  Beta virt. eigenvalues --   18.84576  18.86283  18.88049  18.88950  18.92533
  Beta virt. eigenvalues --   19.02419  19.19565  66.37136  66.60185
          Condensed to atoms (all electrons):
               1          2          3          4
     1  H    0.317562   0.178863   0.069215   0.013574
     2  H    0.178863   0.549616  -0.034464  -0.001099
     3  F    0.069215  -0.034464   8.835635   0.067397
     4  F    0.013574  -0.001099   0.067397   8.710215
          Atomic-Atomic Spin Densities.
               1          2          3          4
     1  H    0.143608   0.168551  -0.075990   0.007890
     2  H    0.168551   0.539763  -0.036303   0.002104
     3  F   -0.075990  -0.036303   0.192134  -0.011948
     4  F    0.007890   0.002104  -0.011948   0.015885
 Mulliken charges and spin densities:
               1          2
     1  H    0.420786   0.244059
     2  H    0.307084   0.674115
     3  F    0.062217   0.067893
     4  F    0.209912   0.013932
 Sum of Mulliken charges =   1.00000   1.00000
 Mulliken charges and spin densities with hydrogens summed into heavy atoms:
               1          2
     3  F    0.790088   0.986068
     4  F    0.209912   0.013932
 APT charges:
               1
     1  H    0.587072
     2  H    0.247308
     3  F   -0.080205
     4  F    0.245824
 Sum of APT charges =   1.00000
 APT charges with hydrogens summed into heavy atoms:
               1
     3  F    0.754176
     4  F    0.245824
 Electronic spatial extent (au):  <R**2>=             74.8093
 Charge=              1.0000 electrons
 Dipole moment (field-independent basis, Debye):
    X=              3.7742    Y=              3.0133    Z=              0.0000  Tot=              4.8295
 Quadrupole moment (field-independent basis, Debye-Ang):
   XX=             -2.6721   YY=             -3.7379   ZZ=            -10.3070
   XY=              5.6762   XZ=              0.0000   YZ=             -0.0000
 Traceless Quadrupole moment (field-independent basis, Debye-Ang):
   XX=              2.9002   YY=              1.8344   ZZ=             -4.7347
   XY=              5.6762   XZ=              0.0000   YZ=             -0.0000
 Octapole moment (field-independent basis, Debye-Ang**2):
  XXX=             12.3240  YYY=              2.9714  ZZZ=             -0.0000  XYY=              6.6609
  XXY=             10.0672  XXZ=              0.0000  XZZ=             -0.5743  YZZ=             -0.3574
  YYZ=              0.0000  XYZ=              0.0000
 Hexadecapole moment (field-independent basis, Debye-Ang**3):
 XXXX=              2.5189 YYYY=            -31.2761 ZZZZ=             -6.1670 XXXY=             12.7232
 XXXZ=              0.0000 YYYX=              3.1952 YYYZ=             -0.0000 ZZZX=             -0.0000
 ZZZY=             -0.0000 XXYY=              3.1694 XXZZ=             -5.4739 YYZZ=             -8.5364
 XXYZ=              0.0000 YYXZ=              0.0000 ZZXY=             -2.6827
 N-N= 4.088222854940D+01 E-N=-5.533371847635D+02  KE= 1.997285679931D+02
 Symmetry A'   KE= 1.856815838971D+02
 Symmetry A"   KE= 1.404698409598D+01
  Exact polarizability:  15.254   5.829  16.493  -0.000   0.000   6.646
 Approx polarizability:  16.899   5.397  25.107   0.000   0.000   7.517
                          Isotropic Fermi Contact Couplings
        Atom                 a.u.       MegaHertz       Gauss      10(-4) cm-1
     1  H(1)               0.04108     183.61447      65.51821      61.24720
     2  H(1)               0.26203    1171.25528     417.93299     390.68871
     3  F(19)              0.15970     671.91938     239.75753     224.12818
     4  F(19)             -0.00106      -4.47155      -1.59556      -1.49155
 --------------------------------------------------------
       Center         ----  Spin Dipole Couplings  ----
                      3XX-RR        3YY-RR        3ZZ-RR
 --------------------------------------------------------
     1   Atom        0.120712     -0.037118     -0.083594
     2   Atom        0.040003     -0.011513     -0.028491
     3   Atom        0.879152     -0.418777     -0.460376
     4   Atom        0.004831      0.049433     -0.054265
 --------------------------------------------------------
                        XY            XZ            YZ
 --------------------------------------------------------
     1   Atom        0.095925      0.000000      0.000000
     2   Atom        0.033923      0.000000      0.000000
     3   Atom       -0.163455      0.000000      0.000000
     4   Atom        0.491564     -0.000000      0.000000
 --------------------------------------------------------


 ---------------------------------------------------------------------------------
              Anisotropic Spin Dipole Couplings in Principal Axis System
 ---------------------------------------------------------------------------------

       Atom             a.u.   MegaHertz   Gauss  10(-4) cm-1        Axes

              Baa    -0.0836   -44.602   -15.915   -14.878  0.0000  0.0000  1.0000
     1 H(1)   Bbb    -0.0824   -43.974   -15.691   -14.668 -0.4270  0.9042 -0.0000
              Bcc     0.1660    88.576    31.606    29.546  0.9042  0.4270 -0.0000
 
              Baa    -0.0285   -15.201    -5.424    -5.071  0.0000  0.0000  1.0000
     2 H(1)   Bbb    -0.0283   -15.126    -5.397    -5.045 -0.4446  0.8957  0.0000
              Bcc     0.0568    30.327    10.821    10.116  0.8957  0.4446 -0.0000
 
              Baa    -0.4604  -231.212   -82.502   -77.124  0.0000  0.0000  1.0000
     3 F(19)  Bbb    -0.4390  -220.500   -78.680   -73.551  0.1231  0.9924 -0.0000
              Bcc     0.8994   451.712   161.182   150.675  0.9924 -0.1231 -0.0000
 
              Baa    -0.4649  -233.504   -83.320   -77.888  0.7230 -0.6909  0.0000
     4 F(19)  Bbb    -0.0543   -27.253    -9.725    -9.091  0.0000  0.0000  1.0000
              Bcc     0.5192   260.757    93.044    86.979  0.6909  0.7230 -0.0000
 

 ---------------------------------------------------------------------------------

 No NMR shielding tensors so no spin-rotation constants.
 Leave Link  601 at Sun Jun 19 04:42:30 2016, MaxMem=    33554432 cpu:         1.1
 (Enter /home/proyectos/fulerenos/M3C-v1.9/M3C-deps_CCC/g09-AM64L-G09RevC.01/l701.exe)
 Compute integral second derivatives.
 ... and contract with generalized density number  0.
 Leave Link  701 at Sun Jun 19 04:42:30 2016, MaxMem=    33554432 cpu:         0.9
 (Enter /home/proyectos/fulerenos/M3C-v1.9/M3C-deps_CCC/g09-AM64L-G09RevC.01/l702.exe)
 L702 exits ... SP integral derivatives will be done elsewhere.
 Leave Link  702 at Sun Jun 19 04:42:30 2016, MaxMem=    33554432 cpu:         0.0
 (Enter /home/proyectos/fulerenos/M3C-v1.9/M3C-deps_CCC/g09-AM64L-G09RevC.01/l703.exe)
 Compute integral second derivatives, UseDBF=F ICtDFT=           0.
 Integral derivatives from FoFJK, PRISM(SPDF).
 Calling FoFJK, ICntrl=    100127 FMM=F ISym2X=1 I1Cent= 0 IOpClX= 1 NMat=1 NMatS=1 NMatT=0.
 FoFJK:  IHMeth= 1 ICntrl=  100127 DoSepK=F KAlg= 0 I1Cent=   0 FoldK=F
 IRaf=         0 NMat=   1 IRICut=       1 DoRegI=T DoRafI=F ISym2E= 1.
 FoFCou: FMM=F IPFlag=           0 FMFlag=      100000 FMFlg1=         800
         NFxFlg=           0 DoJE=F BraDBF=F KetDBF=F FulRan=T
         wScrn=  0.000000 ICntrl=  100127 IOpCl=  1 I1Cent=           0 NGrid=           0
         NMat0=    1 NMatS0=      1 NMatT0=    0 NMatD0=    1 NMtDS0=    0 NMtDT0=    0
 Petite list used in FoFCou.
 Leave Link  703 at Sun Jun 19 04:42:34 2016, MaxMem=    33554432 cpu:        17.2
 (Enter /home/proyectos/fulerenos/M3C-v1.9/M3C-deps_CCC/g09-AM64L-G09RevC.01/l716.exe)
 Dipole        = 1.48489177D+00 1.18551284D+00 3.10314738D-17
 Polarizability= 1.52540282D+01 5.82926417D+00 1.64932424D+01
                -4.87883205D-09 1.16110927D-09 6.64607578D+00
 Full mass-weighted force constant matrix:
 Low frequencies ---   -0.0017   -0.0013   -0.0005   18.0360   32.5277   35.3064
 Low frequencies ---  245.6040  692.1845  873.7728
 Diagonal vibrational polarizability:
       10.8206478      26.0979138       1.6433491
 Harmonic frequencies (cm**-1), IR intensities (KM/Mole), Raman scattering
 activities (A**4/AMU), depolarization ratios for plane and unpolarized
 incident light, reduced masses (AMU), force constants (mDyne/A),
 and normal coordinates:
                      1                      2                      3
                     A'                     A"                     A'
 Frequencies --    245.5913               692.1825               873.7728
 Red. masses --      1.3598                 1.0161                 2.5400
 Frc consts  --      0.0483                 0.2868                 1.1426
 IR Inten    --     47.5562                29.2576                 4.1416
  Atom  AN      X      Y      Z        X      Y      Z        X      Y      Z
     1   1     0.05   0.07  -0.00     0.00   0.00   0.90     0.27  -0.19  -0.00
     2   1    -0.32   0.93   0.00    -0.00  -0.00  -0.44    -0.86  -0.28   0.00
     3   9     0.10  -0.02   0.00     0.00  -0.00  -0.02     0.03  -0.19   0.00
     4   9    -0.09  -0.03   0.00    -0.00  -0.00  -0.00     0.01   0.22   0.00
                      4                      5                      6
                     A'                     A'                     A'
 Frequencies --    999.0768              1112.8211              1652.8684
 Red. masses --      1.5737                 1.0567                 1.0747
 Frc consts  --      0.9255                 0.7710                 1.7299
 IR Inten    --     15.5855               119.8259              1272.0156
  Atom  AN      X      Y      Z        X      Y      Z        X      Y      Z
     1   1    -0.14   0.11   0.00    -0.12   0.96  -0.00     0.97   0.19  -0.00
     2   1     0.89   0.38  -0.00    -0.08  -0.23   0.00     0.11   0.08   0.00
     3   9    -0.03  -0.14  -0.00     0.03  -0.03   0.00    -0.06   0.00   0.00
     4   9    -0.01   0.11  -0.00    -0.02  -0.01   0.00     0.00  -0.02   0.00

 -------------------
 - Thermochemistry -
 -------------------
 Temperature   298.150 Kelvin.  Pressure   1.00000 Atm.
 Atom     1 has atomic number  1 and mass   1.00783
 Atom     2 has atomic number  1 and mass   1.00783
 Atom     3 has atomic number  9 and mass  18.99840
 Atom     4 has atomic number  9 and mass  18.99840
 Molecular mass:    40.01246 amu.
 Principal axes and moments of inertia in atomic units:
                           1         2         3
     Eigenvalues --    16.07244  83.93023 100.00266
           X            0.23235   0.97263   0.00000
           Y            0.97263  -0.23235   0.00000
           Z            0.00000   0.00000   1.00000
 This molecule is an asymmetric top.
 Rotational symmetry number  1.
 Rotational temperatures (Kelvin)      5.38897     1.03197     0.86612
 Rotational constants (GHZ):         112.28797    21.50288    18.04693
 Zero-point vibrational energy      33353.8 (Joules/Mol)
                                    7.97174 (Kcal/Mol)
 Warning -- explicit consideration of   1 degrees of freedom as
           vibrations may cause significant error
 Vibrational temperatures:    353.35   995.90  1257.16  1437.45  1601.10
          (Kelvin)           2378.11
 
 Zero-point correction=                           0.012704 (Hartree/Particle)
 Thermal correction to Energy=                    0.016268
 Thermal correction to Enthalpy=                  0.017212
 Thermal correction to Gibbs Free Energy=        -0.011437
 Sum of electronic and zero-point Energies=           -200.240549
 Sum of electronic and thermal Energies=              -200.236985
 Sum of electronic and thermal Enthalpies=            -200.236041
 Sum of electronic and thermal Free Energies=         -200.264690
 
                     E (Thermal)             CV                S
                      KCal/Mol        Cal/Mol-Kelvin    Cal/Mol-Kelvin
 Total                   10.208              9.804             60.296
 Electronic               0.000              0.000              1.377
 Translational            0.889              2.981             36.988
 Rotational               0.889              2.981             19.540
 Vibrational              8.431              3.842              2.392
 Vibration     1          0.660              1.770              1.762
                       Q            Log10(Q)             Ln(Q)
 Total Bot       0.182210D+06          5.260573         12.112916
 Total V=0       0.127026D+12         11.103891         25.567655
 Vib (Bot)       0.220263D-05         -5.657058        -13.025856
 Vib (Bot)    1  0.796349D+00         -0.098897         -0.227718
 Vib (V=0)       0.153554D+01          0.186261          0.428882
 Vib (V=0)    1  0.144030D+01          0.158454          0.364854
 Electronic      0.200000D+01          0.301030          0.693147
 Translational   0.994828D+07          6.997748         16.112910
 Rotational      0.415769D+04          3.618852          8.332715
 
                                                              b3lyp opt
                                                             IR Spectrum
 
     1                                         1                                                                                     
     6                                         1        9        8             6                                  2                  
     5                                         1        9        7             9                                  4                  
     3                                         3        9        4             2                                  6                  
 
     X                                         X        X        X             X                                  X                  
     X                                         X                                                                                     
     X                                                                                                                               
     X                                                                                                                               
     X                                                                                                                               
     X                                                                                                                               
     X                                                                                                                               
     X                                                                                                                               
     X                                                                                                                               
     X                                                                                                                               
     X                                                                                                                               
     X                                                                                                                               
     X                                                                                                                               
     X                                                                                                                               
     X                                                                                                                               
     X                                                                                                                               
     X                                                                                                                               
     X                                                                                                                               
     X                                                                                                                               
     X                                                                                                                               
 
 ***** Axes restored to original set *****
 -------------------------------------------------------------------
 Center     Atomic                   Forces (Hartrees/Bohr)
 Number     Number              X              Y              Z
 -------------------------------------------------------------------
      1        1           0.000015443   -0.000035508    0.000007257
      2        1          -0.000021325   -0.000022507   -0.000001477
      3        9          -0.000130091    0.000130486   -0.000040992
      4        9           0.000135974   -0.000072471    0.000035212
 -------------------------------------------------------------------
 Cartesian Forces:  Max     0.000135974 RMS     0.000072530
 Z-matrix is all fixed cartesians, so copy forces.
 Force constants in Cartesian coordinates: 
                1             2             3             4             5 
      1  0.518606D-01
      2  0.213026D-01  0.865730D-01
      3  0.472987D-02 -0.443249D-02  0.160714D-01
      4 -0.688797D-02  0.208930D-02 -0.199365D-03  0.497993D-02
      5  0.658060D-02  0.511441D-02 -0.178764D-03  0.724512D-02  0.331173D-01
      6 -0.735738D-03 -0.105598D-02 -0.716232D-02 -0.577860D-03 -0.212095D-02
      7 -0.575122D-01 -0.416210D-01 -0.497546D-02  0.125384D-02 -0.102142D-01
      8 -0.415521D-01 -0.675379D-01 -0.836833D-03 -0.724205D-02 -0.400899D-01
      9 -0.498369D-02 -0.850295D-03 -0.746049D-02  0.486373D-03  0.317394D-02
     10  0.125395D-01  0.182292D-01  0.444951D-03  0.654189D-03 -0.361155D-02
     11  0.136689D-01 -0.241495D-01  0.544809D-02 -0.209237D-02  0.185814D-02
     12  0.989556D-03  0.633876D-02 -0.144862D-02  0.290853D-03 -0.874219D-03
                6             7             8             9            10 
      6  0.364896D-02
      7  0.841317D-03  0.255430D+00
      8  0.375443D-02 -0.736144D-01  0.210122D+00
      9  0.290774D-02  0.580244D-01 -0.390706D-01  0.193567D-01
     10  0.472281D-03 -0.199171D+00  0.122409D+00 -0.535271D-01  0.185978D+00
     11 -0.577502D-03  0.125450D+00 -0.102494D+00  0.367470D-01 -0.137026D+00
     12  0.605622D-03 -0.538902D-01  0.361530D-01 -0.148039D-01  0.526098D-01
               11            12 
     11  0.124786D+00
     12 -0.416176D-01  0.156469D-01
 Leave Link  716 at Sun Jun 19 04:42:34 2016, MaxMem=    33554432 cpu:         0.1
 (Enter /home/proyectos/fulerenos/M3C-v1.9/M3C-deps_CCC/g09-AM64L-G09RevC.01/l103.exe)

 GradGradGradGradGradGradGradGradGradGradGradGradGradGradGradGradGradGrad
 Berny optimization.
 Search for a local minimum.
 Step number   1 out of a maximum of    2
 All quantities printed in internal units (Hartrees-Bohrs-Radians)
 Second derivative matrix not updated -- analytic derivatives used.
 The second derivative matrix:
                          X1        Y1        Z1        X2        Y2
           X1           0.05186
           Y1           0.02130   0.08657
           Z1           0.00473  -0.00443   0.01607
           X2          -0.00689   0.00209  -0.00020   0.00498
           Y2           0.00658   0.00511  -0.00018   0.00725   0.03312
           Z2          -0.00074  -0.00106  -0.00716  -0.00058  -0.00212
           X3          -0.05751  -0.04162  -0.00498   0.00125  -0.01021
           Y3          -0.04155  -0.06754  -0.00084  -0.00724  -0.04009
           Z3          -0.00498  -0.00085  -0.00746   0.00049   0.00317
           X4           0.01254   0.01823   0.00044   0.00065  -0.00361
           Y4           0.01367  -0.02415   0.00545  -0.00209   0.00186
           Z4           0.00099   0.00634  -0.00145   0.00029  -0.00087
                          Z2        X3        Y3        Z3        X4
           Z2           0.00365
           X3           0.00084   0.25543
           Y3           0.00375  -0.07361   0.21012
           Z3           0.00291   0.05802  -0.03907   0.01936
           X4           0.00047  -0.19917   0.12241  -0.05353   0.18598
           Y4          -0.00058   0.12545  -0.10249   0.03675  -0.13703
           Z4           0.00061  -0.05389   0.03615  -0.01480   0.05261
                          Y4        Z4
           Y4           0.12479
           Z4          -0.04162   0.01565
 ITU=  0
     Eigenvalues ---    0.00681   0.01980   0.03899   0.06870   0.19969
     Eigenvalues ---    0.61800
 Angle between quadratic step and forces=  63.42 degrees.
 ClnCor:  largest displacement from symmetrization is 3.44D-13 for atom     1.
 Linear search not attempted -- first point.
 ClnCor:  largest displacement from symmetrization is 3.65D-15 for atom     2.
 B after Tr=    -0.000062    0.000074   -0.000021
         Rot=    1.000000    0.000005   -0.000003   -0.000028 Ang=   0.00 deg.
 Variable       Old X    -DE/DX   Delta X   Delta X   Delta X     New X
                                 (Linear)    (Quad)   (Total)
    X1        0.21470   0.00002   0.00000   0.00073   0.00078   0.21549
    Y1       -2.01881  -0.00004   0.00000  -0.00034  -0.00025  -2.01906
    Z1        0.28974   0.00001   0.00000   0.00018   0.00018   0.28992
    X2       -0.29169  -0.00002   0.00000  -0.00076  -0.00059  -0.29227
    Y2       -4.24772  -0.00002   0.00000  -0.00009  -0.00003  -4.24775
    Z2        0.45702  -0.00000   0.00000  -0.00014  -0.00011   0.45691
    X3        0.95840  -0.00013   0.00000  -0.00006  -0.00012   0.95829
    Y3       -0.06212   0.00013   0.00000   0.00043   0.00056  -0.06157
    Z3        0.20131  -0.00004   0.00000  -0.00006  -0.00009   0.20122
    X4       -1.09409   0.00014   0.00000   0.00007  -0.00008  -1.09417
    Y4        1.55276  -0.00007   0.00000  -0.00028  -0.00027   1.55248
    Z4       -0.39242   0.00004   0.00000   0.00005   0.00002  -0.39241
         Item               Value     Threshold  Converged?
 Maximum Force            0.000136     0.000450     YES
 RMS     Force            0.000073     0.000300     YES
 Maximum Displacement     0.000784     0.001800     YES
 RMS     Displacement     0.000352     0.001200     YES
 Predicted change in Energy=-6.603786D-08
 Optimization completed.
    -- Stationary point found.
 GradGradGradGradGradGradGradGradGradGradGradGradGradGradGradGradGradGrad

 Leave Link  103 at Sun Jun 19 04:42:35 2016, MaxMem=    33554432 cpu:         0.0
 (Enter /home/proyectos/fulerenos/M3C-v1.9/M3C-deps_CCC/g09-AM64L-G09RevC.01/l9999.exe)
 1\1\GINC-BELVIS25\Freq\UB3LYP\6-311++G(3df,2p)\F2H2(1+,2)\NAGUIRRE\19-
 Jun-2016\0\\#p b3lyp/6-311++G(3df,2p) freq symmetry=Loose\\b3lyp opt\\
 1,2\H,0.1136150719,-1.0683083241,0.153321792\H,-0.1543534775,-2.247794
 8737,0.2418438045\F,0.50716465,-0.032873786,0.106530792\F,-0.578969049
 4,0.8216830302,-0.2076607472\\Version=EM64L-G09RevE.01\State=2-A'\HF=-
 200.2532532\S2=0.753627\S2-1=0.\S2A=0.750002\RMSD=4.850e-09\RMSF=7.253
 e-05\ZeroPoint=0.0127038\Thermal=0.0162677\Dipole=-0.0025478,-1.886740
 9,0.2248259\DipoleDeriv=0.2768962,0.2297022,-0.0387675,0.0664697,1.146
 9294,-0.08399,-0.0192735,-0.0521085,0.3373918,0.2659223,-0.0286802,0.0
 01598,-0.0171449,0.2010701,0.0055135,0.0002204,0.0032605,0.2749307,0.1
 117707,-0.1393603,0.003514,0.1446394,-0.518737,0.111576,-0.0304025,0.0
 56107,0.1663524,0.3454108,-0.0616617,0.0336554,-0.1939642,0.1707375,-0
 .0330995,0.0494556,-0.007259,0.2213251\Polar=10.1879201,-1.7510187,21.
 1358954,0.9008841,-2.0724396,7.0695309\PG=CS [SG(F2H2)]\NImag=0\\0.051
 86063,0.02130258,0.08657299,0.00472987,-0.00443249,0.01607142,-0.00688
 797,0.00208930,-0.00019937,0.00497993,0.00658060,0.00511441,-0.0001787
 6,0.00724512,0.03311733,-0.00073574,-0.00105598,-0.00716232,-0.0005778
 6,-0.00212095,0.00364896,-0.05751218,-0.04162105,-0.00497546,0.0012538
 4,-0.01021417,0.00084132,0.25542967,-0.04155212,-0.06753792,-0.0008368
 3,-0.00724205,-0.04008987,0.00375443,-0.07361441,0.21012206,-0.0049836
 9,-0.00085030,-0.00746049,0.00048637,0.00317394,0.00290774,0.05802438,
 -0.03907064,0.01935665,0.01253952,0.01822917,0.00044495,0.00065419,-0.
 00361155,0.00047228,-0.19917133,0.12240858,-0.05352706,0.18597763,0.01
 366894,-0.02414947,0.00544809,-0.00209237,0.00185814,-0.00057750,0.125
 44963,-0.10249426,0.03674700,-0.13702619,0.12478560,0.00098956,0.00633
 876,-0.00144862,0.00029085,-0.00087422,0.00060562,-0.05389024,0.036153
 04,-0.01480390,0.05260983,-0.04161759,0.01564690\\-0.00001544,0.000035
 51,-0.00000726,0.00002133,0.00002251,0.00000148,0.00013009,-0.00013049
 ,0.00004099,-0.00013597,0.00007247,-0.00003521\\\@


 KNOWLEDGE IS CHIMERA - FOR BEYOND IT LIES OTHER KNOWLEDGE,
 AND THE INCOMPLETENESS OF WHAT IS KNOWN RENDERS THE KNOWING FALSE.
     -- THE THOMAS COVENANT CHRONICLES
 Job cpu time:       0 days  0 hours  1 minutes 17.8 seconds.
 File lengths (MBytes):  RWF=     11 Int=      0 D2E=      0 Chk=      2 Scr=      1
 Normal termination of Gaussian 09 at Sun Jun 19 04:42:35 2016.
