 Entering Gaussian System, Link 0=/home/proyectos/fulerenos/M3C-v1.9/M3C-deps_CCC/g09-AM64L-G09RevC.01/g09
 Initial command:
 /home/proyectos/fulerenos/M3C-v1.9/M3C-deps_CCC/g09-AM64L-G09RevC.01/l1.exe "/scratch/naguirre/gaussian/Gau-30434.inp" -scrdir="/scratch/naguirre/gaussian/"
 Entering Link 1 = /home/proyectos/fulerenos/M3C-v1.9/M3C-deps_CCC/g09-AM64L-G09RevC.01/l1.exe PID=     30440.
  
 Copyright (c) 1988,1990,1992,1993,1995,1998,2003,2009,2015,
            Gaussian, Inc.  All Rights Reserved.
  
 This is part of the Gaussian(R) 09 program.  It is based on
 the Gaussian(R) 03 system (copyright 2003, Gaussian, Inc.),
 the Gaussian(R) 98 system (copyright 1998, Gaussian, Inc.),
 the Gaussian(R) 94 system (copyright 1995, Gaussian, Inc.),
 the Gaussian 92(TM) system (copyright 1992, Gaussian, Inc.),
 the Gaussian 90(TM) system (copyright 1990, Gaussian, Inc.),
 the Gaussian 88(TM) system (copyright 1988, Gaussian, Inc.),
 the Gaussian 86(TM) system (copyright 1986, Carnegie Mellon
 University), and the Gaussian 82(TM) system (copyright 1983,
 Carnegie Mellon University). Gaussian is a federally registered
 trademark of Gaussian, Inc.
  
 This software contains proprietary and confidential information,
 including trade secrets, belonging to Gaussian, Inc.
  
 This software is provided under written license and may be
 used, copied, transmitted, or stored only in accord with that
 written license.
  
 The following legend is applicable only to US Government
 contracts under FAR:
  
                    RESTRICTED RIGHTS LEGEND
  
 Use, reproduction and disclosure by the US Government is
 subject to restrictions as set forth in subparagraphs (a)
 and (c) of the Commercial Computer Software - Restricted
 Rights clause in FAR 52.227-19.
  
 Gaussian, Inc.
 340 Quinnipiac St., Bldg. 40, Wallingford CT 06492
  
  
 ---------------------------------------------------------------
 Warning -- This program may not be used in any manner that
 competes with the business of Gaussian, Inc. or will provide
 assistance to any competitor of Gaussian, Inc.  The licensee
 of this program is prohibited from giving any competitor of
 Gaussian, Inc. access to this program.  By using this program,
 the user acknowledges that Gaussian, Inc. is engaged in the
 business of creating and licensing software in the field of
 computational chemistry and represents and warrants to the
 licensee that it is not a competitor of Gaussian, Inc. and that
 it will not use this program in any manner prohibited above.
 ---------------------------------------------------------------
  

 Cite this work as:
 Gaussian 09, Revision E.01,
 M. J. Frisch, G. W. Trucks, H. B. Schlegel, G. E. Scuseria, 
 M. A. Robb, J. R. Cheeseman, G. Scalmani, V. Barone, B. Mennucci, 
 G. A. Petersson, H. Nakatsuji, M. Caricato, X. Li, H. P. Hratchian, 
 A. F. Izmaylov, J. Bloino, G. Zheng, J. L. Sonnenberg, M. Hada, 
 M. Ehara, K. Toyota, R. Fukuda, J. Hasegawa, M. Ishida, T. Nakajima, 
 Y. Honda, O. Kitao, H. Nakai, T. Vreven, J. A. Montgomery, Jr., 
 J. E. Peralta, F. Ogliaro, M. Bearpark, J. J. Heyd, E. Brothers, 
 K. N. Kudin, V. N. Staroverov, T. Keith, R. Kobayashi, J. Normand, 
 K. Raghavachari, A. Rendell, J. C. Burant, S. S. Iyengar, J. Tomasi, 
 M. Cossi, N. Rega, J. M. Millam, M. Klene, J. E. Knox, J. B. Cross, 
 V. Bakken, C. Adamo, J. Jaramillo, R. Gomperts, R. E. Stratmann, 
 O. Yazyev, A. J. Austin, R. Cammi, C. Pomelli, J. W. Ochterski, 
 R. L. Martin, K. Morokuma, V. G. Zakrzewski, G. A. Voth, 
 P. Salvador, J. J. Dannenberg, S. Dapprich, A. D. Daniels, 
 O. Farkas, J. B. Foresman, J. V. Ortiz, J. Cioslowski, 
 and D. J. Fox, Gaussian, Inc., Wallingford CT, 2013.
 
 ******************************************
 Gaussian 09:  EM64L-G09RevE.01 30-Nov-2015
                19-Jun-2016 
 ******************************************
 %NProcShared=4
 Will use up to    4 processors via shared memory.
 ---------------------------------------------
 #p b3lyp/6-311++G(3df,2p) freq symmetry=Loose
 ---------------------------------------------
 1/10=4,30=1,38=1/1,3;
 2/12=2,17=4,18=3,40=1/2;
 3/5=4,6=6,7=1216,11=2,16=1,25=1,30=1,71=2,74=-5,140=1/1,2,3;
 4//1;
 5/5=2,38=5,98=1/2;
 8/6=4,10=90,11=11/1;
 11/6=1,8=1,9=11,15=111,16=1/1,2,10;
 10/6=1/2;
 6/7=2,8=2,9=2,10=2,18=1,28=1/1;
 7/8=1,10=1,25=1/1,2,3,16;
 1/10=4,30=1/3;
 99//99;
 Leave Link    1 at Sun Jun 19 05:31:36 2016, MaxMem=           0 cpu:         0.3
 (Enter /home/proyectos/fulerenos/M3C-v1.9/M3C-deps_CCC/g09-AM64L-G09RevC.01/l101.exe)
 ---------
 b3lyp opt
 ---------
 Symbolic Z-matrix:
 Charge =  0 Multiplicity = 2
 C                     0.04796  -0.58417   0. 
 H                     0.96487  -1.16553   0. 
 H                    -0.87869  -1.16036   0. 
 C                     0.04796   0.71715   0. 
 H                    -0.66168   1.52801   0. 
 
 NAtoms=      5 NQM=        5 NQMF=       0 NMMI=      0 NMMIF=      0
                NMic=       0 NMicF=      0.
                    Isotopes and Nuclear Properties:
 (Nuclear quadrupole moments (NQMom) in fm**2, nuclear magnetic moments (NMagM)
  in nuclear magnetons)

  Atom         1           2           3           4           5
 IAtWgt=          12           1           1          12           1
 AtmWgt=  12.0000000   1.0078250   1.0078250  12.0000000   1.0078250
 NucSpn=           0           1           1           0           1
 AtZEff=   0.0000000   0.0000000   0.0000000   0.0000000   0.0000000
 NQMom=    0.0000000   0.0000000   0.0000000   0.0000000   0.0000000
 NMagM=    0.0000000   2.7928460   2.7928460   0.0000000   2.7928460
 AtZNuc=   6.0000000   1.0000000   1.0000000   6.0000000   1.0000000
 Leave Link  101 at Sun Jun 19 05:31:37 2016, MaxMem=    33554432 cpu:         0.2
 (Enter /home/proyectos/fulerenos/M3C-v1.9/M3C-deps_CCC/g09-AM64L-G09RevC.01/l103.exe)

 GradGradGradGradGradGradGradGradGradGradGradGradGradGradGradGradGradGrad
 Berny optimization.
 Initialization pass.
 Trust Radius=3.00D-01 FncErr=1.00D-07 GrdErr=1.00D-07
 Number of steps in this run=      2 maximum allowed number of steps=      2.
 GradGradGradGradGradGradGradGradGradGradGradGradGradGradGradGradGradGrad

 Leave Link  103 at Sun Jun 19 05:31:37 2016, MaxMem=    33554432 cpu:         0.1
 (Enter /home/proyectos/fulerenos/M3C-v1.9/M3C-deps_CCC/g09-AM64L-G09RevC.01/l202.exe)
                          Input orientation:                          
 ---------------------------------------------------------------------
 Center     Atomic      Atomic             Coordinates (Angstroms)
 Number     Number       Type             X           Y           Z
 ---------------------------------------------------------------------
      1          6           0        0.047958   -0.584170    0.000000
      2          1           0        0.964874   -1.165527    0.000000
      3          1           0       -0.878689   -1.160362    0.000000
      4          6           0        0.047958    0.717149    0.000000
      5          1           0       -0.661678    1.528014    0.000000
 ---------------------------------------------------------------------
                    Distance matrix (angstroms):
                    1          2          3          4          5
     1  C    0.000000
     2  H    1.085685   0.000000
     3  H    1.091179   1.843570   0.000000
     4  C    1.301319   2.094088   2.093734   0.000000
     5  H    2.228207   3.146559   2.697121   1.077537   0.000000
 Stoichiometry    C2H3(2)
 Framework group  CS[SG(C2H3)]
 Deg. of freedom     7
 Full point group                 CS      NOp   2
 Largest Abelian subgroup         CS      NOp   2
 Largest concise Abelian subgroup C1      NOp   1
                         Standard orientation:                         
 ---------------------------------------------------------------------
 Center     Atomic      Atomic             Coordinates (Angstroms)
 Number     Number       Type             X           Y           Z
 ---------------------------------------------------------------------
      1          6           0        0.047958   -0.584170    0.000000
      2          1           0        0.964874   -1.165527    0.000000
      3          1           0       -0.878689   -1.160362    0.000000
      4          6           0        0.047958    0.717149    0.000000
      5          1           0       -0.661678    1.528014    0.000000
 ---------------------------------------------------------------------
 Rotational constants (GHZ):    238.9601217     32.7986628     28.8401807
 Leave Link  202 at Sun Jun 19 05:31:37 2016, MaxMem=    33554432 cpu:         0.0
 (Enter /home/proyectos/fulerenos/M3C-v1.9/M3C-deps_CCC/g09-AM64L-G09RevC.01/l301.exe)
 Standard basis: 6-311++G(3df,2p) (5D, 7F)
 Ernie: Thresh=  0.10000D-02 Tol=  0.10000D-05 Strict=F.
 There are    86 symmetry adapted cartesian basis functions of A'  symmetry.
 There are    34 symmetry adapted cartesian basis functions of A"  symmetry.
 There are    76 symmetry adapted basis functions of A'  symmetry.
 There are    32 symmetry adapted basis functions of A"  symmetry.
   108 basis functions,   152 primitive gaussians,   120 cartesian basis functions
     8 alpha electrons        7 beta electrons
       nuclear repulsion energy        28.5291347858 Hartrees.
 IExCor=  402 DFT=T Ex+Corr=B3LYP ExCW=0 ScaHFX=  0.200000
 ScaDFX=  0.800000  0.720000  1.000000  0.810000 ScalE2=  1.000000  1.000000
 IRadAn=      0 IRanWt=     -1 IRanGd=            0 ICorTp=0 IEmpDi=  4
 NAtoms=    5 NActive=    5 NUniq=    5 SFac= 1.00D+00 NAtFMM=   60 NAOKFM=F Big=F
 Integral buffers will be    131072 words long.
 Raffenetti 2 integral format.
 Two-electron integral symmetry is turned on.
 Leave Link  301 at Sun Jun 19 05:31:37 2016, MaxMem=    33554432 cpu:         0.2
 (Enter /home/proyectos/fulerenos/M3C-v1.9/M3C-deps_CCC/g09-AM64L-G09RevC.01/l302.exe)
 NPDir=0 NMtPBC=     1 NCelOv=     1 NCel=       1 NClECP=     1 NCelD=      1
         NCelK=      1 NCelE2=     1 NClLst=     1 CellRange=     0.0.
 One-electron integrals computed using PRISM.
 NBasis=   108 RedAO= T EigKep=  6.84D-05  NBF=    76    32
 NBsUse=   108 1.00D-06 EigRej= -1.00D+00 NBFU=    76    32
 Precomputing XC quadrature grid using
 IXCGrd= 4 IRadAn=           0 IRanWt=          -1 IRanGd=           0 AccXCQ= 0.00D+00.
 Generated NRdTot=       0 NPtTot=           0 NUsed=           0 NTot=          32
 NSgBfM=   120   120   120   120   120 MxSgAt=     5 MxSgA2=     5.
 Leave Link  302 at Sun Jun 19 05:31:37 2016, MaxMem=    33554432 cpu:         0.9
 (Enter /home/proyectos/fulerenos/M3C-v1.9/M3C-deps_CCC/g09-AM64L-G09RevC.01/l303.exe)
 DipDrv:  MaxL=1.
 Leave Link  303 at Sun Jun 19 05:31:37 2016, MaxMem=    33554432 cpu:         0.1
 (Enter /home/proyectos/fulerenos/M3C-v1.9/M3C-deps_CCC/g09-AM64L-G09RevC.01/l401.exe)
 ExpMin= 3.60D-02 ExpMax= 4.56D+03 ExpMxC= 6.82D+02 IAcc=3 IRadAn=         5 AccDes= 0.00D+00
 Harris functional with IExCor=  402 and IRadAn=       5 diagonalized for initial guess.
 HarFok:  IExCor=  402 AccDes= 0.00D+00 IRadAn=         5 IDoV= 1 UseB2=F ITyADJ=14
 ICtDFT=  3500011 ScaDFX=  1.000000  1.000000  1.000000  1.000000
 FoFCou: FMM=F IPFlag=           0 FMFlag=      100000 FMFlg1=           0
         NFxFlg=           0 DoJE=T BraDBF=F KetDBF=T FulRan=T
         wScrn=  0.000000 ICntrl=     500 IOpCl=  0 I1Cent=   200000004 NGrid=           0
         NMat0=    1 NMatS0=      1 NMatT0=    0 NMatD0=    1 NMtDS0=    0 NMtDT0=    0
 Petite list used in FoFCou.
 Harris En= -77.9416989511855    
 JPrj=0 DoOrth=F DoCkMO=F.
 Initial guess orbital symmetries:
 Alpha Orbitals:
       Occupied  (A') (A') (A') (A') (A') (A') (A") (A')
       Virtual   (A") (A') (A') (A') (A") (A') (A') (A') (A") (A')
                 (A') (A') (A') (A') (A") (A') (A') (A') (A') (A")
                 (A') (A') (A") (A') (A") (A") (A') (A') (A') (A')
                 (A') (A") (A') (A') (A') (A") (A") (A') (A') (A")
                 (A') (A') (A') (A') (A') (A") (A') (A") (A') (A")
                 (A') (A') (A") (A') (A') (A') (A') (A") (A') (A')
                 (A") (A') (A") (A") (A') (A') (A") (A') (A") (A')
                 (A') (A') (A") (A') (A') (A') (A') (A") (A") (A')
                 (A') (A") (A') (A") (A') (A') (A') (A') (A") (A')
                 (A") (A') (A") (A') (A") (A') (A') (A') (A') (A')
 Beta  Orbitals:
       Occupied  (A') (A') (A') (A') (A') (A') (A")
       Virtual   (A') (A") (A') (A') (A') (A") (A') (A') (A') (A")
                 (A') (A') (A') (A') (A') (A") (A') (A') (A') (A')
                 (A") (A') (A') (A") (A') (A") (A") (A') (A') (A')
                 (A') (A') (A") (A') (A') (A') (A") (A") (A') (A')
                 (A") (A') (A') (A') (A') (A') (A") (A') (A") (A')
                 (A") (A') (A') (A") (A') (A') (A') (A') (A") (A')
                 (A') (A") (A') (A") (A") (A') (A') (A") (A') (A")
                 (A') (A') (A') (A") (A') (A') (A') (A') (A") (A")
                 (A') (A') (A") (A') (A") (A') (A') (A') (A') (A")
                 (A') (A") (A') (A") (A') (A") (A') (A') (A') (A')
                 (A')
 The electronic state of the initial guess is 2-A'.
 Initial guess <Sx>= 0.0000 <Sy>= 0.0000 <Sz>= 0.5000 <S**2>= 0.7500 S= 0.5000
 Leave Link  401 at Sun Jun 19 05:31:37 2016, MaxMem=    33554432 cpu:         1.8
 (Enter /home/proyectos/fulerenos/M3C-v1.9/M3C-deps_CCC/g09-AM64L-G09RevC.01/l502.exe)
 UHF open shell SCF:
 Using DIIS extrapolation, IDIIS=  1040.
 Integral symmetry usage will be decided dynamically.
 Keep R1 and R2 ints in memory in symmetry-blocked form, NReq=26852607.
 IVT=       63384 IEndB=       63384 NGot=    33554432 MDV=    15627247
 LenX=    15627247 LenY=    15612406
 Requested convergence on RMS density matrix=1.00D-08 within 128 cycles.
 Requested convergence on MAX density matrix=1.00D-06.
 Requested convergence on             energy=1.00D-06.
 No special actions if energy rises.
 FoFCou: FMM=F IPFlag=           0 FMFlag=           0 FMFlg1=           0
         NFxFlg=           0 DoJE=F BraDBF=F KetDBF=F FulRan=T
         wScrn=  0.000000 ICntrl=     600 IOpCl=  0 I1Cent=           0 NGrid=           0
         NMat0=    1 NMatS0=   5886 NMatT0=    0 NMatD0=    1 NMtDS0=    0 NMtDT0=    0
 Petite list used in FoFCou.

 Cycle   1  Pass 1  IDiag  1:
 E= -77.8512125529812    
 DIIS: error= 3.16D-02 at cycle   1 NSaved=   1.
 NSaved= 1 IEnMin= 1 EnMin= -77.8512125529812     IErMin= 1 ErrMin= 3.16D-02
 ErrMax= 3.16D-02  0.00D+00 EMaxC= 1.00D-01 BMatC= 3.31D-01 BMatP= 3.31D-01
 IDIUse=3 WtCom= 6.84D-01 WtEn= 3.16D-01
 Coeff-Com:  0.100D+01
 Coeff-En:   0.100D+01
 Coeff:      0.100D+01
 Gap=     0.187 Goal=   None    Shift=    0.000
 Gap=     0.157 Goal=   None    Shift=    0.000
 GapD=    0.157 DampG=1.000 DampE=0.500 DampFc=0.5000 IDamp=-1.
 Damping current iteration by 5.00D-01
 RMSDP=5.93D-03 MaxDP=1.96D-01              OVMax= 2.26D-01

 Cycle   2  Pass 1  IDiag  1:
 E= -77.8873329389361     Delta-E=       -0.036120385955 Rises=F Damp=T
 DIIS: error= 6.40D-03 at cycle   2 NSaved=   2.
 NSaved= 2 IEnMin= 2 EnMin= -77.8873329389361     IErMin= 2 ErrMin= 6.40D-03
 ErrMax= 6.40D-03  0.00D+00 EMaxC= 1.00D-01 BMatC= 1.44D-02 BMatP= 3.31D-01
 IDIUse=3 WtCom= 9.36D-01 WtEn= 6.40D-02
 Coeff-Com:  0.484D-01 0.952D+00
 Coeff-En:   0.127D+00 0.873D+00
 Coeff:      0.534D-01 0.947D+00
 Gap=     0.237 Goal=   None    Shift=    0.000
 Gap=     0.201 Goal=   None    Shift=    0.000
 RMSDP=9.42D-04 MaxDP=3.10D-02 DE=-3.61D-02 OVMax= 1.48D-01

 Cycle   3  Pass 1  IDiag  1:
 E= -77.9321146655313     Delta-E=       -0.044781726595 Rises=F Damp=F
 DIIS: error= 7.92D-03 at cycle   3 NSaved=   3.
 NSaved= 3 IEnMin= 3 EnMin= -77.9321146655313     IErMin= 2 ErrMin= 6.40D-03
 ErrMax= 7.92D-03  0.00D+00 EMaxC= 1.00D-01 BMatC= 8.14D-03 BMatP= 1.44D-02
 IDIUse=3 WtCom= 9.21D-01 WtEn= 7.92D-02
 Coeff-Com: -0.279D-01 0.397D+00 0.631D+00
 Coeff-En:   0.000D+00 0.000D+00 0.100D+01
 Coeff:     -0.257D-01 0.365D+00 0.660D+00
 Gap=     0.234 Goal=   None    Shift=    0.000
 Gap=     0.194 Goal=   None    Shift=    0.000
 RMSDP=4.96D-04 MaxDP=1.35D-02 DE=-4.48D-02 OVMax= 5.04D-02

 Cycle   4  Pass 1  IDiag  1:
 E= -77.9331483498427     Delta-E=       -0.001033684311 Rises=F Damp=F
 DIIS: error= 5.57D-03 at cycle   4 NSaved=   4.
 NSaved= 4 IEnMin= 4 EnMin= -77.9331483498427     IErMin= 4 ErrMin= 5.57D-03
 ErrMax= 5.57D-03  0.00D+00 EMaxC= 1.00D-01 BMatC= 4.63D-03 BMatP= 8.14D-03
 IDIUse=3 WtCom= 9.44D-01 WtEn= 5.57D-02
 Coeff-Com: -0.275D-01 0.426D-01 0.458D+00 0.527D+00
 Coeff-En:   0.000D+00 0.000D+00 0.374D+00 0.626D+00
 Coeff:     -0.259D-01 0.402D-01 0.453D+00 0.532D+00
 Gap=     0.230 Goal=   None    Shift=    0.000
 Gap=     0.199 Goal=   None    Shift=    0.000
 RMSDP=2.66D-04 MaxDP=8.67D-03 DE=-1.03D-03 OVMax= 2.27D-02

 Cycle   5  Pass 1  IDiag  1:
 E= -77.9344328413967     Delta-E=       -0.001284491554 Rises=F Damp=F
 DIIS: error= 4.72D-04 at cycle   5 NSaved=   5.
 NSaved= 5 IEnMin= 5 EnMin= -77.9344328413967     IErMin= 5 ErrMin= 4.72D-04
 ErrMax= 4.72D-04  0.00D+00 EMaxC= 1.00D-01 BMatC= 2.88D-05 BMatP= 4.63D-03
 IDIUse=3 WtCom= 9.95D-01 WtEn= 4.72D-03
 Coeff-Com:  0.946D-03-0.177D-01 0.118D-01 0.475D-01 0.957D+00
 Coeff-En:   0.000D+00 0.000D+00 0.000D+00 0.000D+00 0.100D+01
 Coeff:      0.941D-03-0.176D-01 0.118D-01 0.473D-01 0.958D+00
 Gap=     0.231 Goal=   None    Shift=    0.000
 Gap=     0.200 Goal=   None    Shift=    0.000
 RMSDP=6.51D-05 MaxDP=3.14D-03 DE=-1.28D-03 OVMax= 4.77D-03

 Cycle   6  Pass 1  IDiag  1:
 E= -77.9344618441826     Delta-E=       -0.000029002786 Rises=F Damp=F
 DIIS: error= 3.01D-04 at cycle   6 NSaved=   6.
 NSaved= 6 IEnMin= 6 EnMin= -77.9344618441826     IErMin= 6 ErrMin= 3.01D-04
 ErrMax= 3.01D-04  0.00D+00 EMaxC= 1.00D-01 BMatC= 6.64D-06 BMatP= 2.88D-05
 IDIUse=3 WtCom= 9.97D-01 WtEn= 3.01D-03
 Coeff-Com:  0.387D-02-0.422D-02-0.609D-01-0.703D-01-0.100D+00 0.123D+01
 Coeff-En:   0.000D+00 0.000D+00 0.000D+00 0.000D+00 0.000D+00 0.100D+01
 Coeff:      0.385D-02-0.421D-02-0.608D-01-0.701D-01-0.999D-01 0.123D+01
 Gap=     0.231 Goal=   None    Shift=    0.000
 Gap=     0.200 Goal=   None    Shift=    0.000
 RMSDP=3.73D-05 MaxDP=1.20D-03 DE=-2.90D-05 OVMax= 4.23D-03

 Cycle   7  Pass 1  IDiag  1:
 E= -77.9344745320869     Delta-E=       -0.000012687904 Rises=F Damp=F
 DIIS: error= 1.45D-04 at cycle   7 NSaved=   7.
 NSaved= 7 IEnMin= 7 EnMin= -77.9344745320869     IErMin= 7 ErrMin= 1.45D-04
 ErrMax= 1.45D-04  0.00D+00 EMaxC= 1.00D-01 BMatC= 1.63D-06 BMatP= 6.64D-06
 IDIUse=3 WtCom= 9.99D-01 WtEn= 1.45D-03
 Coeff-Com: -0.703D-03 0.554D-02 0.973D-03-0.826D-02-0.232D+00-0.613D-01
 Coeff-Com:  0.130D+01
 Coeff-En:   0.000D+00 0.000D+00 0.000D+00 0.000D+00 0.000D+00 0.000D+00
 Coeff-En:   0.100D+01
 Coeff:     -0.702D-03 0.554D-02 0.972D-03-0.825D-02-0.232D+00-0.612D-01
 Coeff:      0.130D+01
 Gap=     0.231 Goal=   None    Shift=    0.000
 Gap=     0.200 Goal=   None    Shift=    0.000
 RMSDP=2.34D-05 MaxDP=7.42D-04 DE=-1.27D-05 OVMax= 2.82D-03

 Cycle   8  Pass 1  IDiag  1:
 E= -77.9344780008559     Delta-E=       -0.000003468769 Rises=F Damp=F
 DIIS: error= 3.57D-05 at cycle   8 NSaved=   8.
 NSaved= 8 IEnMin= 8 EnMin= -77.9344780008559     IErMin= 8 ErrMin= 3.57D-05
 ErrMax= 3.57D-05  0.00D+00 EMaxC= 1.00D-01 BMatC= 1.94D-07 BMatP= 1.63D-06
 IDIUse=1 WtCom= 1.00D+00 WtEn= 0.00D+00
 Coeff-Com: -0.843D-03 0.193D-02 0.108D-01 0.974D-02-0.151D-01-0.239D+00
 Coeff-Com:  0.206D+00 0.103D+01
 Coeff:     -0.843D-03 0.193D-02 0.108D-01 0.974D-02-0.151D-01-0.239D+00
 Coeff:      0.206D+00 0.103D+01
 Gap=     0.231 Goal=   None    Shift=    0.000
 Gap=     0.201 Goal=   None    Shift=    0.000
 RMSDP=7.17D-06 MaxDP=2.05D-04 DE=-3.47D-06 OVMax= 9.27D-04

 Cycle   9  Pass 1  IDiag  1:
 E= -77.9344782892302     Delta-E=       -0.000000288374 Rises=F Damp=F
 DIIS: error= 4.55D-06 at cycle   9 NSaved=   9.
 NSaved= 9 IEnMin= 9 EnMin= -77.9344782892302     IErMin= 9 ErrMin= 4.55D-06
 ErrMax= 4.55D-06  0.00D+00 EMaxC= 1.00D-01 BMatC= 5.04D-09 BMatP= 1.94D-07
 IDIUse=1 WtCom= 1.00D+00 WtEn= 0.00D+00
 Coeff-Com:  0.504D-04-0.308D-03 0.704D-04 0.643D-03 0.146D-01-0.451D-02
 Coeff-Com: -0.692D-01 0.130D-01 0.105D+01
 Coeff:      0.504D-04-0.308D-03 0.704D-04 0.643D-03 0.146D-01-0.451D-02
 Coeff:     -0.692D-01 0.130D-01 0.105D+01
 Gap=     0.231 Goal=   None    Shift=    0.000
 Gap=     0.201 Goal=   None    Shift=    0.000
 RMSDP=9.99D-07 MaxDP=2.72D-05 DE=-2.88D-07 OVMax= 1.03D-04

 Cycle  10  Pass 1  IDiag  1:
 E= -77.9344782944114     Delta-E=       -0.000000005181 Rises=F Damp=F
 DIIS: error= 1.02D-06 at cycle  10 NSaved=  10.
 NSaved=10 IEnMin=10 EnMin= -77.9344782944114     IErMin=10 ErrMin= 1.02D-06
 ErrMax= 1.02D-06  0.00D+00 EMaxC= 1.00D-01 BMatC= 2.12D-10 BMatP= 5.04D-09
 IDIUse=1 WtCom= 1.00D+00 WtEn= 0.00D+00
 Coeff-Com:  0.300D-04-0.406D-04-0.448D-03-0.486D-03-0.360D-03 0.877D-02
 Coeff-Com: -0.295D-03-0.443D-01-0.979D-01 0.114D+01
 Coeff:      0.300D-04-0.406D-04-0.448D-03-0.486D-03-0.360D-03 0.877D-02
 Coeff:     -0.295D-03-0.443D-01-0.979D-01 0.114D+01
 Gap=     0.231 Goal=   None    Shift=    0.000
 Gap=     0.201 Goal=   None    Shift=    0.000
 RMSDP=2.21D-07 MaxDP=9.57D-06 DE=-5.18D-09 OVMax= 1.02D-05

 Cycle  11  Pass 1  IDiag  1:
 E= -77.9344782945518     Delta-E=       -0.000000000140 Rises=F Damp=F
 DIIS: error= 1.82D-07 at cycle  11 NSaved=  11.
 NSaved=11 IEnMin=11 EnMin= -77.9344782945518     IErMin=11 ErrMin= 1.82D-07
 ErrMax= 1.82D-07  0.00D+00 EMaxC= 1.00D-01 BMatC= 9.47D-12 BMatP= 2.12D-10
 IDIUse=1 WtCom= 1.00D+00 WtEn= 0.00D+00
 Coeff-Com: -0.395D-05 0.109D-04-0.443D-05-0.131D-04-0.513D-03 0.986D-04
 Coeff-Com:  0.203D-02 0.123D-02-0.309D-01-0.312D-01 0.106D+01
 Coeff:     -0.395D-05 0.109D-04-0.443D-05-0.131D-04-0.513D-03 0.986D-04
 Coeff:      0.203D-02 0.123D-02-0.309D-01-0.312D-01 0.106D+01
 Gap=     0.231 Goal=   None    Shift=    0.000
 Gap=     0.201 Goal=   None    Shift=    0.000
 RMSDP=2.79D-08 MaxDP=1.19D-06 DE=-1.40D-10 OVMax= 1.11D-06

 Cycle  12  Pass 1  IDiag  1:
 E= -77.9344782945567     Delta-E=       -0.000000000005 Rises=F Damp=F
 DIIS: error= 4.06D-08 at cycle  12 NSaved=  12.
 NSaved=12 IEnMin=12 EnMin= -77.9344782945567     IErMin=12 ErrMin= 4.06D-08
 ErrMax= 4.06D-08  0.00D+00 EMaxC= 1.00D-01 BMatC= 5.18D-13 BMatP= 9.47D-12
 IDIUse=1 WtCom= 1.00D+00 WtEn= 0.00D+00
 Coeff-Com: -0.110D-05 0.163D-05 0.172D-04 0.164D-04-0.462D-05-0.321D-03
 Coeff-Com:  0.152D-04 0.198D-02 0.360D-02-0.550D-01 0.103D-01 0.104D+01
 Coeff:     -0.110D-05 0.163D-05 0.172D-04 0.164D-04-0.462D-05-0.321D-03
 Coeff:      0.152D-04 0.198D-02 0.360D-02-0.550D-01 0.103D-01 0.104D+01
 Gap=     0.231 Goal=   None    Shift=    0.000
 Gap=     0.201 Goal=   None    Shift=    0.000
 RMSDP=8.43D-09 MaxDP=2.95D-07 DE=-4.83D-12 OVMax= 2.63D-07

 SCF Done:  E(UB3LYP) =  -77.9344782946     A.U. after   12 cycles
            NFock= 12  Conv=0.84D-08     -V/T= 2.0049
 <Sx>= 0.0000 <Sy>= 0.0000 <Sz>= 0.5000 <S**2>= 0.7592 S= 0.5046
 <L.S>= 0.000000000000E+00
 KE= 7.755564549046D+01 PE=-2.374972006708D+02 EE= 5.347794210000D+01
 Annihilation of the first spin contaminant:
 S**2 before annihilation     0.7592,   after     0.7500
 Leave Link  502 at Sun Jun 19 05:31:43 2016, MaxMem=    33554432 cpu:        19.9
 (Enter /home/proyectos/fulerenos/M3C-v1.9/M3C-deps_CCC/g09-AM64L-G09RevC.01/l801.exe)
 DoSCS=F DFT=T ScalE2(SS,OS)=  1.000000  1.000000
 Range of M.O.s used for correlation:     1   108
 NBasis=   108 NAE=     8 NBE=     7 NFC=     0 NFV=     0
 NROrb=    108 NOA=     8 NOB=     7 NVA=   100 NVB=   101

 **** Warning!!: The largest alpha MO coefficient is  0.51067035D+02


 **** Warning!!: The largest beta MO coefficient is  0.50373525D+02

 Leave Link  801 at Sun Jun 19 05:31:43 2016, MaxMem=    33554432 cpu:         0.1
 (Enter /home/proyectos/fulerenos/M3C-v1.9/M3C-deps_CCC/g09-AM64L-G09RevC.01/l1101.exe)
 Using compressed storage, NAtomX=     5.
 Will process      6 centers per pass.
 Leave Link 1101 at Sun Jun 19 05:31:43 2016, MaxMem=    33554432 cpu:         0.8
 (Enter /home/proyectos/fulerenos/M3C-v1.9/M3C-deps_CCC/g09-AM64L-G09RevC.01/l1102.exe)
 Symmetrizing basis deriv contribution to polar:
 IMax=3 JMax=2 DiffMx= 0.00D+00
 Leave Link 1102 at Sun Jun 19 05:31:43 2016, MaxMem=    33554432 cpu:         0.1
 (Enter /home/proyectos/fulerenos/M3C-v1.9/M3C-deps_CCC/g09-AM64L-G09RevC.01/l1110.exe)
 Forming Gx(P) for the SCF density, NAtomX=     5.
 Integral derivatives from FoFJK, PRISM(SPDF).
 Do as many integral derivatives as possible in FoFJK.
 G2DrvN: MDV=      33554288.
 G2DrvN: will do     6 centers at a time, making    1 passes.
 Calling FoFCou, ICntrl=  3107 FMM=F I1Cent=   0 AccDes= 0.00D+00.
 FoFJK:  IHMeth= 1 ICntrl=    3107 DoSepK=F KAlg= 0 I1Cent=   0 FoldK=F
 IRaf=         0 NMat=   1 IRICut=       1 DoRegI=T DoRafI=F ISym2E= 1.
 FoFCou: FMM=F IPFlag=           0 FMFlag=      100000 FMFlg1=           0
         NFxFlg=           0 DoJE=F BraDBF=F KetDBF=F FulRan=T
         wScrn=  0.000000 ICntrl=    3107 IOpCl=  1 I1Cent=           0 NGrid=           0
         NMat0=    1 NMatS0=      1 NMatT0=    0 NMatD0=    1 NMtDS0=    0 NMtDT0=    0
 Petite list used in FoFCou.
 End of G2Drv F.D. properties file   721 does not exist.
 End of G2Drv F.D. properties file   722 does not exist.
 End of G2Drv F.D. properties file   788 does not exist.
 Leave Link 1110 at Sun Jun 19 05:31:48 2016, MaxMem=    33554432 cpu:        17.9
 (Enter /home/proyectos/fulerenos/M3C-v1.9/M3C-deps_CCC/g09-AM64L-G09RevC.01/l1002.exe)
 Minotr:  UHF open shell wavefunction.
          IDoAtm=11111
          Direct CPHF calculation.
          Differentiating once with respect to electric field.
                with respect to dipole field.
          Differentiating once with respect to nuclear coordinates.
          Using symmetry in CPHF.
          Requested convergence is 1.0D-08 RMS, and 1.0D-07 maximum.
          Secondary convergence is 1.0D-12 RMS, and 1.0D-12 maximum.
          NewPWx=T KeepS1=F KeepF1=F KeepIn=T MapXYZ=F SortEE=F KeepMc=T.
          MDV=      33554162 using IRadAn=       2.
 Generate precomputed XC quadrature information.
 Keep R1 and R2 ints in memory in symmetry-blocked form, NReq=26791707.
 FoFCou: FMM=F IPFlag=           0 FMFlag=           0 FMFlg1=           0
         NFxFlg=           0 DoJE=F BraDBF=F KetDBF=F FulRan=T
         wScrn=  0.000000 ICntrl=     600 IOpCl=  0 I1Cent=           0 NGrid=           0
         NMat0=    1 NMatS0=   5886 NMatT0=    0 NMatD0=    1 NMtDS0=    0 NMtDT0=    0
 Petite list used in FoFCou.
          Solving linear equations simultaneously, MaxMat=       0.
          There are    18 degrees of freedom in the 1st order CPHF.  IDoFFX=6 NUNeed=     3.
     15 vectors produced by pass  0 Test12= 8.37D-15 5.56D-09 XBig12= 7.39D+01 4.81D+00.
 AX will form    15 AO Fock derivatives at one time.
     15 vectors produced by pass  1 Test12= 8.37D-15 5.56D-09 XBig12= 1.05D+01 9.41D-01.
     15 vectors produced by pass  2 Test12= 8.37D-15 5.56D-09 XBig12= 1.91D-01 8.24D-02.
     15 vectors produced by pass  3 Test12= 8.37D-15 5.56D-09 XBig12= 1.40D-03 7.94D-03.
     15 vectors produced by pass  4 Test12= 8.37D-15 5.56D-09 XBig12= 6.28D-06 4.81D-04.
     15 vectors produced by pass  5 Test12= 8.37D-15 5.56D-09 XBig12= 2.57D-08 3.24D-05.
     13 vectors produced by pass  6 Test12= 8.37D-15 5.56D-09 XBig12= 1.25D-10 2.34D-06.
      4 vectors produced by pass  7 Test12= 8.37D-15 5.56D-09 XBig12= 3.28D-13 1.43D-07.
      2 vectors produced by pass  8 Test12= 8.37D-15 5.56D-09 XBig12= 6.49D-15 2.71D-08.
 InvSVY:  IOpt=1 It=  1 EMax= 9.99D-16
 Solved reduced A of dimension   109 with    15 vectors.
 FullF1:  Do perturbations    1 to     3.
 Isotropic polarizability for W=    0.000000       26.51 Bohr**3.
 End of Minotr F.D. properties file   721 does not exist.
 End of Minotr F.D. properties file   722 does not exist.
 End of Minotr F.D. properties file   788 does not exist.
 Leave Link 1002 at Sun Jun 19 05:31:58 2016, MaxMem=    33554432 cpu:        39.6
 (Enter /home/proyectos/fulerenos/M3C-v1.9/M3C-deps_CCC/g09-AM64L-G09RevC.01/l601.exe)
 Copying SCF densities to generalized density rwf, IOpCl= 1 IROHF=0.

 **********************************************************************

            Population analysis using the SCF density.

 **********************************************************************

 Orbital symmetries:
 Alpha Orbitals:
       Occupied  (A') (A') (A') (A') (A') (A') (A") (A')
       Virtual   (A") (A') (A') (A') (A") (A') (A') (A') (A") (A')
                 (A') (A') (A') (A') (A') (A") (A') (A') (A') (A')
                 (A") (A") (A') (A') (A') (A") (A") (A') (A') (A')
                 (A") (A') (A') (A') (A') (A") (A") (A') (A') (A")
                 (A') (A') (A') (A') (A') (A') (A") (A") (A') (A")
                 (A') (A') (A") (A') (A') (A') (A') (A') (A") (A")
                 (A') (A') (A") (A") (A') (A') (A") (A') (A") (A')
                 (A') (A') (A") (A') (A') (A') (A") (A') (A") (A')
                 (A') (A") (A') (A") (A') (A') (A') (A') (A") (A')
                 (A") (A') (A") (A') (A") (A') (A') (A') (A') (A')
 Beta  Orbitals:
       Occupied  (A') (A') (A') (A') (A') (A') (A")
       Virtual   (A') (A") (A') (A') (A') (A") (A') (A') (A') (A")
                 (A') (A') (A') (A') (A') (A') (A") (A') (A') (A')
                 (A") (A') (A") (A') (A') (A") (A') (A") (A') (A')
                 (A') (A") (A') (A') (A') (A') (A") (A") (A') (A')
                 (A") (A') (A') (A') (A') (A') (A') (A") (A") (A')
                 (A") (A') (A') (A") (A') (A') (A') (A') (A") (A')
                 (A') (A") (A') (A") (A") (A') (A') (A") (A') (A")
                 (A') (A') (A') (A") (A') (A') (A') (A") (A') (A")
                 (A') (A') (A") (A') (A") (A') (A') (A') (A') (A")
                 (A') (A") (A') (A") (A') (A") (A') (A') (A') (A')
                 (A')
 The electronic state is 2-A'.
 Alpha  occ. eigenvalues --  -10.20142 -10.18072  -0.77667  -0.58421  -0.47206
 Alpha  occ. eigenvalues --   -0.44087  -0.29537  -0.24328
 Alpha virt. eigenvalues --   -0.01228   0.00069   0.01612   0.02787   0.06510
 Alpha virt. eigenvalues --    0.07976   0.08705   0.11282   0.12298   0.13063
 Alpha virt. eigenvalues --    0.14727   0.14900   0.15838   0.16509   0.26537
 Alpha virt. eigenvalues --    0.27445   0.33069   0.35153   0.38302   0.39492
 Alpha virt. eigenvalues --    0.39824   0.43326   0.43705   0.48872   0.53594
 Alpha virt. eigenvalues --    0.53649   0.55655   0.59411   0.61333   0.66745
 Alpha virt. eigenvalues --    0.72881   0.74162   0.75117   0.77315   0.91196
 Alpha virt. eigenvalues --    0.94948   0.97085   0.99230   1.08292   1.10797
 Alpha virt. eigenvalues --    1.15305   1.20482   1.24482   1.29174   1.37128
 Alpha virt. eigenvalues --    1.43286   1.45527   1.47850   1.60065   1.78233
 Alpha virt. eigenvalues --    1.81009   1.95379   2.06224   2.08543   2.27149
 Alpha virt. eigenvalues --    2.39735   2.56205   2.66888   2.67506   2.74187
 Alpha virt. eigenvalues --    2.74320   2.78343   2.81585   2.85984   2.86397
 Alpha virt. eigenvalues --    3.02742   3.08447   3.09349   3.14012   3.16294
 Alpha virt. eigenvalues --    3.47354   3.49495   3.49788   3.60535   3.87740
 Alpha virt. eigenvalues --    3.96243   4.12730   4.14178   4.18935   4.20052
 Alpha virt. eigenvalues --    4.31699   4.45099   4.53650   4.65319   5.12678
 Alpha virt. eigenvalues --    5.36365   5.59733   6.25137   6.95851   6.99760
 Alpha virt. eigenvalues --    7.09331   7.13719   7.15491   7.37410   7.49119
 Alpha virt. eigenvalues --    7.59821   8.01812   8.16191  23.90538  25.94763
  Beta  occ. eigenvalues --  -10.18618 -10.18216  -0.75942  -0.56285  -0.45768
  Beta  occ. eigenvalues --   -0.42539  -0.28766
  Beta virt. eigenvalues --   -0.08714  -0.00316   0.00190   0.01739   0.02981
  Beta virt. eigenvalues --    0.06507   0.07999   0.09876   0.11365   0.12560
  Beta virt. eigenvalues --    0.13434   0.14867   0.14995   0.16254   0.17227
  Beta virt. eigenvalues --    0.27458   0.27942   0.33258   0.36360   0.39349
  Beta virt. eigenvalues --    0.39942   0.40370   0.44595   0.45162   0.49963
  Beta virt. eigenvalues --    0.54082   0.55671   0.55935   0.60780   0.62247
  Beta virt. eigenvalues --    0.68173   0.73129   0.74812   0.75551   0.78505
  Beta virt. eigenvalues --    0.91693   0.95456   0.97467   0.99838   1.09093
  Beta virt. eigenvalues --    1.11205   1.15898   1.21269   1.25889   1.31003
  Beta virt. eigenvalues --    1.37757   1.44665   1.46386   1.50278   1.64411
  Beta virt. eigenvalues --    1.80644   1.82455   1.97610   2.07206   2.10300
  Beta virt. eigenvalues --    2.28884   2.41132   2.57722   2.68085   2.68116
  Beta virt. eigenvalues --    2.77318   2.78112   2.81589   2.82933   2.86701
  Beta virt. eigenvalues --    2.87680   3.06336   3.09886   3.12372   3.14650
  Beta virt. eigenvalues --    3.17950   3.48208   3.50297   3.51476   3.61786
  Beta virt. eigenvalues --    3.88854   3.97577   4.13763   4.15758   4.19660
  Beta virt. eigenvalues --    4.21117   4.33608   4.46089   4.55308   4.66264
  Beta virt. eigenvalues --    5.13787   5.38345   5.60652   6.26751   7.00156
  Beta virt. eigenvalues --    7.06138   7.10593   7.15038   7.16218   7.39302
  Beta virt. eigenvalues --    7.49760   7.62847   8.02924   8.17392  23.91350
  Beta virt. eigenvalues --   25.95601
          Condensed to atoms (all electrons):
               1          2          3          4          5
     1  C    5.799725   0.481663   0.442968  -0.421512  -0.082288
     2  H    0.481663   0.536383  -0.054042  -0.119379   0.007824
     3  H    0.442968  -0.054042   0.557846  -0.062511  -0.009774
     4  C   -0.421512  -0.119379  -0.062511   6.450589   0.393982
     5  H   -0.082288   0.007824  -0.009774   0.393982   0.501593
          Atomic-Atomic Spin Densities.
               1          2          3          4          5
     1  C   -0.018996   0.031379  -0.010779  -0.208093   0.021367
     2  H    0.031379   0.076610  -0.029158  -0.046661   0.008260
     3  H   -0.010779  -0.029158   0.128846   0.012508  -0.017091
     4  C   -0.208093  -0.046661   0.012508   1.348070  -0.065591
     5  H    0.021367   0.008260  -0.017091  -0.065591   0.073187
 Mulliken charges and spin densities:
               1          2
     1  C   -0.220556  -0.185122
     2  H    0.147551   0.040431
     3  H    0.125513   0.084326
     4  C   -0.241170   1.040233
     5  H    0.188662   0.020132
 Sum of Mulliken charges =  -0.00000   1.00000
 Mulliken charges and spin densities with hydrogens summed into heavy atoms:
               1          2
     1  C    0.052508  -0.060365
     4  C   -0.052508   1.060365
 APT charges:
               1
     1  C   -0.093842
     2  H    0.063676
     3  H    0.046843
     4  C   -0.136471
     5  H    0.119794
 Sum of APT charges =   0.00000
 APT charges with hydrogens summed into heavy atoms:
               1
     1  C    0.016677
     4  C   -0.016677
 Electronic spatial extent (au):  <R**2>=             73.0796
 Charge=             -0.0000 electrons
 Dipole moment (field-independent basis, Debye):
    X=             -0.6131    Y=             -0.3307    Z=              0.0000  Tot=              0.6966
 Quadrupole moment (field-independent basis, Debye-Ang):
   XX=            -12.5619   YY=            -11.4579   ZZ=            -14.9957
   XY=             -1.2061   XZ=              0.0000   YZ=              0.0000
 Traceless Quadrupole moment (field-independent basis, Debye-Ang):
   XX=              0.4433   YY=              1.5473   ZZ=             -1.9906
   XY=             -1.2061   XZ=              0.0000   YZ=              0.0000
 Octapole moment (field-independent basis, Debye-Ang**2):
  XXX=             -0.9695  YYY=             -0.1271  ZZZ=              0.0000  XYY=             -1.9633
  XXY=             -1.4957  XXZ=              0.0000  XZZ=             -0.3002  YZZ=             -0.2834
  YYZ=              0.0000  XYZ=              0.0000
 Hexadecapole moment (field-independent basis, Debye-Ang**3):
 XXXX=            -24.2022 YYYY=            -61.7200 ZZZZ=            -19.6048 XXXY=              0.6504
 XXXZ=              0.0000 YYYX=             -1.6929 YYYZ=              0.0000 ZZZX=              0.0000
 ZZZY=              0.0000 XXYY=            -13.1428 XXZZ=             -7.7298 YYZZ=            -14.7623
 XXYZ=              0.0000 YYXZ=              0.0000 ZZXY=              0.5144
 N-N= 2.852913478576D+01 E-N=-2.374972005427D+02  KE= 7.755564549046D+01
 Symmetry A'   KE= 7.542882072500D+01
 Symmetry A"   KE= 2.126824765464D+00
  Exact polarizability:  23.153  -0.417  35.148  -0.000  -0.000  21.218
 Approx polarizability:  29.401  -0.404  52.716  -0.000  -0.000  27.203
                          Isotropic Fermi Contact Couplings
        Atom                 a.u.       MegaHertz       Gauss      10(-4) cm-1
     1  C(13)             -0.01089     -12.24687      -4.36999      -4.08512
     2  H(1)               0.02412     107.82603      38.47501      35.96689
     3  H(1)               0.03782     169.04705      60.32019      56.38803
     4  C(13)              0.25315     284.59453     101.55040      94.93052
     5  H(1)               0.01001      44.72663      15.95957      14.91920
 --------------------------------------------------------
       Center         ----  Spin Dipole Couplings  ----
                      3XX-RR        3YY-RR        3ZZ-RR
 --------------------------------------------------------
     1   Atom        0.021725      0.118199     -0.139924
     2   Atom       -0.009435      0.021630     -0.012195
     3   Atom       -0.002287      0.012147     -0.009859
     4   Atom        0.801952     -0.366281     -0.435671
     5   Atom        0.019195      0.042443     -0.061638
 --------------------------------------------------------
                        XY            XZ            YZ
 --------------------------------------------------------
     1   Atom        0.016409      0.000000      0.000000
     2   Atom       -0.007408      0.000000      0.000000
     3   Atom        0.004760      0.000000      0.000000
     4   Atom        0.555727      0.000000      0.000000
     5   Atom       -0.041275      0.000000      0.000000
 --------------------------------------------------------


 ---------------------------------------------------------------------------------
              Anisotropic Spin Dipole Couplings in Principal Axis System
 ---------------------------------------------------------------------------------

       Atom             a.u.   MegaHertz   Gauss  10(-4) cm-1        Axes

              Baa    -0.1399   -18.776    -6.700    -6.263  0.0000  0.0000  1.0000
     1 C(13)  Bbb     0.0190     2.551     0.910     0.851  0.9866 -0.1632 -0.0000
              Bcc     0.1209    16.225     5.790     5.412  0.1632  0.9866  0.0000
 
              Baa    -0.0122    -6.507    -2.322    -2.170  0.0000  0.0000  1.0000
     2 H(1)   Bbb    -0.0111    -5.928    -2.115    -1.977  0.9753  0.2207  0.0000
              Bcc     0.0233    12.435     4.437     4.148 -0.2207  0.9753  0.0000
 
              Baa    -0.0099    -5.260    -1.877    -1.755  0.0000  0.0000  1.0000
     3 H(1)   Bbb    -0.0037    -1.982    -0.707    -0.661  0.9578 -0.2874 -0.0000
              Bcc     0.0136     7.243     2.584     2.416  0.2874  0.9578  0.0000
 
              Baa    -0.5884   -78.958   -28.174   -26.338 -0.3712  0.9286 -0.0000
     4 C(13)  Bbb    -0.4357   -58.463   -20.861   -19.501  0.0000  0.0000  1.0000
              Bcc     1.0241   137.421    49.035    45.839  0.9286  0.3712  0.0000
 
              Baa    -0.0616   -32.887   -11.735   -10.970  0.0000  0.0000  1.0000
     5 H(1)   Bbb    -0.0121    -6.436    -2.296    -2.147  0.7972  0.6037  0.0000
              Bcc     0.0737    39.323    14.031    13.117 -0.6037  0.7972  0.0000
 

 ---------------------------------------------------------------------------------

 No NMR shielding tensors so no spin-rotation constants.
 Leave Link  601 at Sun Jun 19 05:31:58 2016, MaxMem=    33554432 cpu:         1.1
 (Enter /home/proyectos/fulerenos/M3C-v1.9/M3C-deps_CCC/g09-AM64L-G09RevC.01/l701.exe)
 Compute integral second derivatives.
 ... and contract with generalized density number  0.
 Leave Link  701 at Sun Jun 19 05:31:58 2016, MaxMem=    33554432 cpu:         0.8
 (Enter /home/proyectos/fulerenos/M3C-v1.9/M3C-deps_CCC/g09-AM64L-G09RevC.01/l702.exe)
 L702 exits ... SP integral derivatives will be done elsewhere.
 Leave Link  702 at Sun Jun 19 05:31:59 2016, MaxMem=    33554432 cpu:         0.1
 (Enter /home/proyectos/fulerenos/M3C-v1.9/M3C-deps_CCC/g09-AM64L-G09RevC.01/l703.exe)
 Compute integral second derivatives, UseDBF=F ICtDFT=           0.
 Integral derivatives from FoFJK, PRISM(SPDF).
 Calling FoFJK, ICntrl=    100127 FMM=F ISym2X=1 I1Cent= 0 IOpClX= 1 NMat=1 NMatS=1 NMatT=0.
 FoFJK:  IHMeth= 1 ICntrl=  100127 DoSepK=F KAlg= 0 I1Cent=   0 FoldK=F
 IRaf=         0 NMat=   1 IRICut=       1 DoRegI=T DoRafI=F ISym2E= 1.
 FoFCou: FMM=F IPFlag=           0 FMFlag=      100000 FMFlg1=         800
         NFxFlg=           0 DoJE=F BraDBF=F KetDBF=F FulRan=T
         wScrn=  0.000000 ICntrl=  100127 IOpCl=  1 I1Cent=           0 NGrid=           0
         NMat0=    1 NMatS0=      1 NMatT0=    0 NMatD0=    1 NMtDS0=    0 NMtDT0=    0
 Petite list used in FoFCou.
 Leave Link  703 at Sun Jun 19 05:32:05 2016, MaxMem=    33554432 cpu:        25.3
 (Enter /home/proyectos/fulerenos/M3C-v1.9/M3C-deps_CCC/g09-AM64L-G09RevC.01/l716.exe)
 Dipole        =-2.41207591D-01-1.30102187D-01 0.00000000D+00
 Polarizability= 2.31531265D+01-4.16796866D-01 3.51482226D+01
                -2.68914398D-09-9.09950330D-09 2.12184075D+01
 Full mass-weighted force constant matrix:
 Low frequencies ---  -49.9848   -6.6657   -0.0008   -0.0007   -0.0007    9.5787
 Low frequencies ---  709.5148  818.7622  928.6470
 Diagonal vibrational polarizability:
        0.2736328       1.2567406       3.0179601
 Harmonic frequencies (cm**-1), IR intensities (KM/Mole), Raman scattering
 activities (A**4/AMU), depolarization ratios for plane and unpolarized
 incident light, reduced masses (AMU), force constants (mDyne/A),
 and normal coordinates:
                      1                      2                      3
                     A'                     A"                     A"
 Frequencies --    709.5146               818.7619               928.6468
 Red. masses --      1.0567                 1.2375                 1.2496
 Frc consts  --      0.3134                 0.4888                 0.6349
 IR Inten    --     21.8849                20.8489                69.8916
  Atom  AN      X      Y      Z        X      Y      Z        X      Y      Z
     1   6    -0.04  -0.01   0.00    -0.00  -0.00   0.07    -0.00  -0.00  -0.15
     2   1     0.19   0.32  -0.00     0.00   0.00   0.22     0.00   0.00   0.77
     3   1     0.21  -0.40   0.00     0.00  -0.00  -0.44     0.00  -0.00   0.56
     4   6    -0.05  -0.02   0.00     0.00   0.00  -0.13     0.00   0.00   0.01
     5   1     0.61   0.53  -0.00     0.00   0.00   0.86    -0.00  -0.00   0.26
                      4                      5                      6
                     A'                     A'                     A'
 Frequencies --   1047.1637              1395.3253              1649.4140
 Red. masses --      1.5054                 1.1057                 5.3957
 Frc consts  --      0.9726                 1.2683                 8.6488
 IR Inten    --      8.1209                 8.4704                 2.2241
  Atom  AN      X      Y      Z        X      Y      Z        X      Y      Z
     1   6    -0.15   0.01   0.00    -0.00  -0.00   0.00    -0.00   0.48  -0.00
     2   1     0.21   0.55  -0.00     0.37   0.61   0.00    -0.43  -0.15   0.00
     3   1     0.20  -0.52  -0.00    -0.35   0.60  -0.00     0.40  -0.16   0.00
     4   6     0.15   0.02   0.00    -0.01  -0.09  -0.00    -0.01  -0.42  -0.00
     5   1    -0.37  -0.40  -0.00     0.07  -0.05   0.00     0.23  -0.39   0.00
                      7                      8                      9
                     A'                     A'                     A'
 Frequencies --   3040.7439              3134.4653              3241.6030
 Red. masses --      1.0624                 1.1016                 1.1054
 Frc consts  --      5.7877                 6.3766                 6.8438
 IR Inten    --      4.6113                 2.7389                 0.4506
  Atom  AN      X      Y      Z        X      Y      Z        X      Y      Z
     1   6    -0.04  -0.06   0.00    -0.09   0.03  -0.00     0.01   0.02   0.00
     2   1    -0.30   0.16   0.00     0.79  -0.51  -0.00     0.01  -0.01  -0.00
     3   1     0.80   0.48  -0.00     0.26   0.18   0.00    -0.05  -0.03   0.00
     4   6     0.00  -0.00  -0.00    -0.00  -0.00   0.00     0.05  -0.08   0.00
     5   1    -0.04   0.06   0.00    -0.01   0.00  -0.00    -0.64   0.76  -0.00

 -------------------
 - Thermochemistry -
 -------------------
 Temperature   298.150 Kelvin.  Pressure   1.00000 Atm.
 Atom     1 has atomic number  6 and mass  12.00000
 Atom     2 has atomic number  1 and mass   1.00783
 Atom     3 has atomic number  1 and mass   1.00783
 Atom     4 has atomic number  6 and mass  12.00000
 Atom     5 has atomic number  1 and mass   1.00783
 Molecular mass:    27.02348 amu.
 Principal axes and moments of inertia in atomic units:
                           1         2         3
     Eigenvalues --     7.55248  55.02484  62.57732
           X           -0.08037   0.99676   0.00000
           Y            0.99676   0.08037   0.00000
           Z           -0.00000   0.00000   1.00000
 This molecule is an asymmetric top.
 Rotational symmetry number  1.
 Rotational temperatures (Kelvin)     11.46826     1.57409     1.38411
 Rotational constants (GHZ):         238.96012    32.79866    28.84018
 Zero-point vibrational energy      95495.7 (Joules/Mol)
                                   22.82403 (Kcal/Mol)
 Vibrational temperatures:   1020.83  1178.01  1336.11  1506.63  2007.56
          (Kelvin)           2373.14  4374.95  4509.79  4663.94
 
 Zero-point correction=                           0.036372 (Hartree/Particle)
 Thermal correction to Energy=                    0.039476
 Thermal correction to Enthalpy=                  0.040421
 Thermal correction to Gibbs Free Energy=         0.013902
 Sum of electronic and zero-point Energies=            -77.898106
 Sum of electronic and thermal Energies=               -77.895002
 Sum of electronic and thermal Enthalpies=             -77.894058
 Sum of electronic and thermal Free Energies=          -77.920576
 
                     E (Thermal)             CV                S
                      KCal/Mol        Cal/Mol-Kelvin    Cal/Mol-Kelvin
 Total                   24.772              8.335             55.813
 Electronic               0.000              0.000              1.377
 Translational            0.889              2.981             35.818
 Rotational               0.889              2.981             17.904
 Vibrational             22.994              2.374              0.714
                       Q            Log10(Q)             Ln(Q)
 Total Bot       0.403262D-06         -6.394413        -14.723680
 Total V=0       0.216618D+11         10.335694         23.798815
 Vib (Bot)       0.200037D-16        -16.698889        -38.450613
 Vib (V=0)       0.107453D+01          0.031218          0.071883
 Electronic      0.200000D+01          0.301030          0.693147
 Translational   0.552163D+07          6.742067         15.524183
 Rotational      0.182549D+04          3.261379          7.509603
 
                                                              b3lyp opt
                                                             IR Spectrum
 
     3    3  3                                                      1         1            1                                         
     2    1  0                                                      6         3            0    9   8    7                           
     4    3  4                                                      4         9            4    2   1    1                           
     2    4  1                                                      9         5            7    9   9    0                           
 
     X    X  X                                                      X         X            X    X   X    X                           
                                                                              X            X    X   X    X                           
                                                                                                X   X    X                           
                                                                                                X   X    X                           
                                                                                                X   X    X                           
                                                                                                X   X    X                           
                                                                                                X                                    
                                                                                                X                                    
                                                                                                X                                    
                                                                                                X                                    
                                                                                                X                                    
                                                                                                X                                    
                                                                                                X                                    
                                                                                                X                                    
                                                                                                X                                    
                                                                                                X                                    
                                                                                                X                                    
                                                                                                X                                    
                                                                                                X                                    
                                                                                                X                                    
 
 ***** Axes restored to original set *****
 -------------------------------------------------------------------
 Center     Atomic                   Forces (Hartrees/Bohr)
 Number     Number              X              Y              Z
 -------------------------------------------------------------------
      1        6           0.000095908    0.000155347   -0.000000000
      2        1           0.000051495    0.000036471   -0.000000000
      3        1          -0.000137515   -0.000027959   -0.000000000
      4        6           0.000130565   -0.000349496   -0.000000000
      5        1          -0.000140453    0.000185637   -0.000000000
 -------------------------------------------------------------------
 Cartesian Forces:  Max     0.000349496 RMS     0.000129200
 Z-matrix is all fixed cartesians, so copy forces.
 Force constants in Cartesian coordinates: 
                1             2             3             4             5 
      1  0.542605D+00
      2 -0.233089D-01  0.836513D+00
      3  0.000000D+00  0.000000D+00  0.974767D-01
      4 -0.245520D+00  0.119629D+00  0.000000D+00  0.259840D+00
      5  0.124371D+00 -0.117733D+00  0.000000D+00 -0.134338D+00  0.134526D+00
      6  0.000000D+00  0.000000D+00 -0.320914D-01  0.000000D+00  0.000000D+00
      7 -0.235074D+00 -0.109243D+00  0.000000D+00 -0.191450D-01 -0.135649D-01
      8 -0.115724D+00 -0.110353D+00  0.000000D+00  0.129975D-01  0.895122D-02
      9  0.000000D+00  0.000000D+00 -0.340103D-01  0.000000D+00  0.000000D+00
     10 -0.703705D-01  0.273483D-01  0.000000D+00  0.523932D-02  0.226633D-01
     11 -0.929875D-02 -0.602434D+00  0.000000D+00  0.339878D-02 -0.227490D-01
     12  0.000000D+00  0.000000D+00 -0.343862D-01  0.000000D+00  0.000000D+00
     13  0.836045D-02 -0.144251D-01  0.000000D+00 -0.414406D-03  0.868875D-03
     14  0.239608D-01 -0.599278D-02  0.000000D+00 -0.168698D-02 -0.299500D-02
     15  0.000000D+00  0.000000D+00  0.301127D-02  0.000000D+00  0.000000D+00
                6             7             8             9            10 
      6  0.167238D-01
      7  0.000000D+00  0.251678D+00
      8  0.000000D+00  0.126878D+00  0.125317D+00
      9  0.948700D-02  0.000000D+00  0.000000D+00  0.123242D-01
     10  0.000000D+00  0.159271D-02 -0.271934D-01  0.000000D+00  0.233547D+00
     11  0.000000D+00 -0.374017D-02 -0.262483D-01  0.000000D+00 -0.171150D+00
     12 -0.343926D-02  0.000000D+00  0.000000D+00  0.161876D-01  0.000000D+00
     13  0.000000D+00  0.948874D-03  0.304169D-02  0.000000D+00 -0.170009D+00
     14  0.000000D+00 -0.329922D-03  0.233282D-02  0.000000D+00  0.148332D+00
     15  0.931992D-02  0.000000D+00  0.000000D+00 -0.398851D-02  0.000000D+00
               11            12            13            14            15 
     11  0.870888D+00
     12  0.000000D+00  0.471528D-01
     13  0.180790D+00  0.000000D+00  0.161114D+00
     14 -0.219457D+00  0.000000D+00 -0.170275D+00  0.226112D+00
     15  0.000000D+00 -0.255150D-01  0.000000D+00  0.000000D+00  0.171723D-01
 Leave Link  716 at Sun Jun 19 05:32:05 2016, MaxMem=    33554432 cpu:         0.1
 (Enter /home/proyectos/fulerenos/M3C-v1.9/M3C-deps_CCC/g09-AM64L-G09RevC.01/l103.exe)

 GradGradGradGradGradGradGradGradGradGradGradGradGradGradGradGradGradGrad
 Berny optimization.
 Search for a local minimum.
 Step number   1 out of a maximum of    2
 All quantities printed in internal units (Hartrees-Bohrs-Radians)
 Second derivative matrix not updated -- analytic derivatives used.
 The second derivative matrix:
                          X1        Y1        Z1        X2        Y2
           X1           0.54260
           Y1          -0.02331   0.83651
           Z1          -0.00000  -0.00000   0.09748
           X2          -0.24552   0.11963  -0.00000   0.25984
           Y2           0.12437  -0.11773   0.00000  -0.13434   0.13453
           Z2           0.00000   0.00000  -0.03209  -0.00000   0.00000
           X3          -0.23507  -0.10924   0.00000  -0.01914  -0.01356
           Y3          -0.11572  -0.11035   0.00000   0.01300   0.00895
           Z3           0.00000   0.00000  -0.03401   0.00000  -0.00000
           X4          -0.07037   0.02735   0.00000   0.00524   0.02266
           Y4          -0.00930  -0.60243  -0.00000   0.00340  -0.02275
           Z4          -0.00000   0.00000  -0.03439   0.00000  -0.00000
           X5           0.00836  -0.01443  -0.00000  -0.00041   0.00087
           Y5           0.02396  -0.00599   0.00000  -0.00169  -0.00299
           Z5           0.00000  -0.00000   0.00301  -0.00000   0.00000
                          Z2        X3        Y3        Z3        X4
           Z2           0.01672
           X3           0.00000   0.25168
           Y3           0.00000   0.12688   0.12532
           Z3           0.00949  -0.00000  -0.00000   0.01232
           X4          -0.00000   0.00159  -0.02719   0.00000   0.23355
           Y4          -0.00000  -0.00374  -0.02625   0.00000  -0.17115
           Z4          -0.00344   0.00000  -0.00000   0.01619  -0.00000
           X5           0.00000   0.00095   0.00304  -0.00000  -0.17001
           Y5          -0.00000  -0.00033   0.00233   0.00000   0.14833
           Z5           0.00932   0.00000   0.00000  -0.00399  -0.00000
                          Y4        Z4        X5        Y5        Z5
           Y4           0.87089
           Z4           0.00000   0.04715
           X5           0.18079   0.00000   0.16111
           Y5          -0.21946  -0.00000  -0.17028   0.22611
           Z5           0.00000  -0.02551   0.00000  -0.00000   0.01717
 ITU=  0
     Eigenvalues ---    0.02388   0.04670   0.09340   0.11486   0.13123
     Eigenvalues ---    0.33869   0.56559   0.73622   1.53013
 Angle between quadratic step and forces=  57.42 degrees.
 ClnCor:  largest displacement from symmetrization is 1.38D-13 for atom     5.
 Linear search not attempted -- first point.
 ClnCor:  largest displacement from symmetrization is 0.00D+00 for atom     0.
 B after Tr=    -0.000007   -0.000141    0.000000
         Rot=    1.000000    0.000000    0.000000    0.000002 Ang=   0.00 deg.
 Variable       Old X    -DE/DX   Delta X   Delta X   Delta X     New X
                                 (Linear)    (Quad)   (Total)
    X1        0.09063   0.00010   0.00000   0.00001   0.00000   0.09063
    Y1       -1.10392   0.00016   0.00000  -0.00013  -0.00027  -1.10419
    Z1        0.00000  -0.00000   0.00000   0.00000   0.00000   0.00000
    X2        1.82335   0.00005   0.00000   0.00053   0.00051   1.82386
    Y2       -2.20253   0.00004   0.00000   0.00057   0.00043  -2.20210
    Z2        0.00000  -0.00000   0.00000   0.00000   0.00000   0.00000
    X3       -1.66048  -0.00014   0.00000  -0.00055  -0.00056  -1.66104
    Y3       -2.19277  -0.00003   0.00000   0.00004  -0.00009  -2.19286
    Z3        0.00000  -0.00000   0.00000   0.00000   0.00000   0.00000
    X4        0.09063   0.00013   0.00000  -0.00004  -0.00004   0.09059
    Y4        1.35522  -0.00035   0.00000  -0.00036  -0.00050   1.35471
    Z4        0.00000  -0.00000   0.00000   0.00000   0.00000   0.00000
    X5       -1.25039  -0.00014   0.00000   0.00009   0.00009  -1.25030
    Y5        2.88753   0.00019   0.00000   0.00057   0.00044   2.88796
    Z5        0.00000  -0.00000   0.00000   0.00000   0.00000   0.00000
         Item               Value     Threshold  Converged?
 Maximum Force            0.000349     0.000450     YES
 RMS     Force            0.000129     0.000300     YES
 Maximum Displacement     0.000563     0.001800     YES
 RMS     Displacement     0.000293     0.001200     YES
 Predicted change in Energy=-1.588745D-07
 Optimization completed.
    -- Stationary point found.
 GradGradGradGradGradGradGradGradGradGradGradGradGradGradGradGradGradGrad

 Leave Link  103 at Sun Jun 19 05:32:05 2016, MaxMem=    33554432 cpu:         0.1
 (Enter /home/proyectos/fulerenos/M3C-v1.9/M3C-deps_CCC/g09-AM64L-G09RevC.01/l9999.exe)
 1\1\GINC-BELVIS4\Freq\UB3LYP\6-311++G(3df,2p)\C2H3(2)\ROOT\19-Jun-2016
 \0\\#p b3lyp/6-311++G(3df,2p) freq symmetry=Loose\\b3lyp opt\\0,2\C,0.
 047958,-0.58417,0.\H,0.964874,-1.165527,0.\H,-0.878689,-1.160362,0.\C,
 0.047958,0.717149,0.\H,-0.661678,1.528014,0.\\Version=EM64L-G09RevE.01
 \State=2-A'\HF=-77.9344783\S2=0.759187\S2-1=0.\S2A=0.750042\RMSD=8.432
 e-09\RMSF=1.292e-04\ZeroPoint=0.0363724\Thermal=0.0394763\Dipole=-0.24
 12076,-0.1301022,0.\DipoleDeriv=0.0963313,0.0385192,0.,0.0061608,-0.11
 20213,0.,0.,0.,-0.265836,-0.0134565,0.0667699,0.,0.0387187,0.0382168,0
 .,0.,0.,0.1662687,-0.026708,-0.0773992,0.,-0.047886,0.0235917,0.,0.,0.
 ,0.1436447,-0.1119486,-0.1546324,0.,-0.0190714,-0.0462276,0.,0.,0.,-0.
 251238,0.0557818,0.1267424,0.,0.022078,0.0964405,0.,0.,0.,0.2071606\Po
 lar=23.1531265,-0.4167969,35.1482226,0.,0.,21.2184075\PG=CS [SG(C2H3)]
 \NImag=0\\0.54260476,-0.02330894,0.83651338,0.,0.,0.09747665,-0.245520
 41,0.11962871,0.,0.25984047,0.12437069,-0.11773327,0.,-0.13433798,0.13
 452601,0.,0.,-0.03209142,0.,0.,0.01672376,-0.23507433,-0.10924300,0.,-
 0.01914497,-0.01356491,0.,0.25167771,-0.11572379,-0.11035301,0.,0.0129
 9747,0.00895122,0.,0.12687800,0.12531730,0.,0.,-0.03401029,0.,0.,0.009
 48700,0.,0.,0.01232419,-0.07037047,0.02734828,0.,0.00523932,0.02266333
 ,0.,0.00159271,-0.02719336,0.,0.23354702,-0.00929875,-0.60243433,0.,0.
 00339878,-0.02274896,0.,-0.00374017,-0.02624833,0.,-0.17114979,0.87088
 820,0.,0.,-0.03438620,0.,0.,-0.00343926,0.,0.,0.01618762,0.,0.,0.04715
 280,0.00836045,-0.01442505,0.,-0.00041441,0.00086887,0.,0.00094887,0.0
 0304169,0.,-0.17000858,0.18078992,0.,0.16111367,0.02396079,-0.00599278
 ,0.,-0.00168698,-0.00299500,0.,-0.00032992,0.00233282,0.,0.14833154,-0
 .21945658,0.,-0.17027543,0.22611154,0.,0.,0.00301127,0.,0.,0.00931992,
 0.,0.,-0.00398851,0.,0.,-0.02551495,0.,0.,0.01717227\\-0.00009591,-0.0
 0015535,0.,-0.00005150,-0.00003647,0.,0.00013751,0.00002796,0.,-0.0001
 3056,0.00034950,0.,0.00014045,-0.00018564,0.\\\@


 A SLIP OF THE FOOT YOU MAY SOON RECOVER, BUT A SLIP OF THE TONGUE
 YOU MAY NEVER GET OVER. -- BEN FRANKLIN
 Job cpu time:       0 days  0 hours  1 minutes 49.8 seconds.
 File lengths (MBytes):  RWF=     15 Int=      0 D2E=      0 Chk=      2 Scr=      1
 Normal termination of Gaussian 09 at Sun Jun 19 05:32:05 2016.
