 Entering Gaussian System, Link 0=/home/proyectos/fulerenos/M3C-v2.0/M3C-deps_CCC/g09-AM64L-G09RevC.01/g09
 Initial command:
 /home/proyectos/fulerenos/M3C-v2.0/M3C-deps_CCC/g09-AM64L-G09RevC.01/l1.exe "/scratch/naguirre/gaussian/Gau-24119.inp" -scrdir="/scratch/naguirre/gaussian/"
 Entering Link 1 = /home/proyectos/fulerenos/M3C-v2.0/M3C-deps_CCC/g09-AM64L-G09RevC.01/l1.exe PID=     24123.
  
 Copyright (c) 1988,1990,1992,1993,1995,1998,2003,2009,2015,
            Gaussian, Inc.  All Rights Reserved.
  
 This is part of the Gaussian(R) 09 program.  It is based on
 the Gaussian(R) 03 system (copyright 2003, Gaussian, Inc.),
 the Gaussian(R) 98 system (copyright 1998, Gaussian, Inc.),
 the Gaussian(R) 94 system (copyright 1995, Gaussian, Inc.),
 the Gaussian 92(TM) system (copyright 1992, Gaussian, Inc.),
 the Gaussian 90(TM) system (copyright 1990, Gaussian, Inc.),
 the Gaussian 88(TM) system (copyright 1988, Gaussian, Inc.),
 the Gaussian 86(TM) system (copyright 1986, Carnegie Mellon
 University), and the Gaussian 82(TM) system (copyright 1983,
 Carnegie Mellon University). Gaussian is a federally registered
 trademark of Gaussian, Inc.
  
 This software contains proprietary and confidential information,
 including trade secrets, belonging to Gaussian, Inc.
  
 This software is provided under written license and may be
 used, copied, transmitted, or stored only in accord with that
 written license.
  
 The following legend is applicable only to US Government
 contracts under FAR:
  
                    RESTRICTED RIGHTS LEGEND
  
 Use, reproduction and disclosure by the US Government is
 subject to restrictions as set forth in subparagraphs (a)
 and (c) of the Commercial Computer Software - Restricted
 Rights clause in FAR 52.227-19.
  
 Gaussian, Inc.
 340 Quinnipiac St., Bldg. 40, Wallingford CT 06492
  
  
 ---------------------------------------------------------------
 Warning -- This program may not be used in any manner that
 competes with the business of Gaussian, Inc. or will provide
 assistance to any competitor of Gaussian, Inc.  The licensee
 of this program is prohibited from giving any competitor of
 Gaussian, Inc. access to this program.  By using this program,
 the user acknowledges that Gaussian, Inc. is engaged in the
 business of creating and licensing software in the field of
 computational chemistry and represents and warrants to the
 licensee that it is not a competitor of Gaussian, Inc. and that
 it will not use this program in any manner prohibited above.
 ---------------------------------------------------------------
  

 Cite this work as:
 Gaussian 09, Revision E.01,
 M. J. Frisch, G. W. Trucks, H. B. Schlegel, G. E. Scuseria, 
 M. A. Robb, J. R. Cheeseman, G. Scalmani, V. Barone, B. Mennucci, 
 G. A. Petersson, H. Nakatsuji, M. Caricato, X. Li, H. P. Hratchian, 
 A. F. Izmaylov, J. Bloino, G. Zheng, J. L. Sonnenberg, M. Hada, 
 M. Ehara, K. Toyota, R. Fukuda, J. Hasegawa, M. Ishida, T. Nakajima, 
 Y. Honda, O. Kitao, H. Nakai, T. Vreven, J. A. Montgomery, Jr., 
 J. E. Peralta, F. Ogliaro, M. Bearpark, J. J. Heyd, E. Brothers, 
 K. N. Kudin, V. N. Staroverov, T. Keith, R. Kobayashi, J. Normand, 
 K. Raghavachari, A. Rendell, J. C. Burant, S. S. Iyengar, J. Tomasi, 
 M. Cossi, N. Rega, J. M. Millam, M. Klene, J. E. Knox, J. B. Cross, 
 V. Bakken, C. Adamo, J. Jaramillo, R. Gomperts, R. E. Stratmann, 
 O. Yazyev, A. J. Austin, R. Cammi, C. Pomelli, J. W. Ochterski, 
 R. L. Martin, K. Morokuma, V. G. Zakrzewski, G. A. Voth, 
 P. Salvador, J. J. Dannenberg, S. Dapprich, A. D. Daniels, 
 O. Farkas, J. B. Foresman, J. V. Ortiz, J. Cioslowski, 
 and D. J. Fox, Gaussian, Inc., Wallingford CT, 2013.
 
 ******************************************
 Gaussian 09:  EM64L-G09RevE.01 30-Nov-2015
                19-Jul-2016 
 ******************************************
 %NProcShared=1
 Will use up to    1 processors via shared memory.
 ---------------------------------------------
 #p b3lyp/6-311++G(3df,2p) freq symmetry=Loose
 ---------------------------------------------
 1/10=4,30=1,38=1/1,3;
 2/12=2,17=4,18=3,40=1/2;
 3/5=4,6=6,7=1216,11=2,16=1,25=1,30=1,71=2,74=-5,140=1/1,2,3;
 4//1;
 5/5=2,38=5,98=1/2;
 8/6=4,10=90,11=11/1;
 11/6=1,8=1,9=11,15=111,16=1/1,2,10;
 10/6=1/2;
 6/7=2,8=2,9=2,10=2,18=1,28=1/1;
 7/8=1,10=1,25=1/1,2,3,16;
 1/10=4,30=1/3;
 99//99;
 Leave Link    1 at Tue Jul 19 10:20:41 2016, MaxMem=           0 cpu:         0.1
 (Enter /home/proyectos/fulerenos/M3C-v2.0/M3C-deps_CCC/g09-AM64L-G09RevC.01/l101.exe)
 ---------
 b3lyp opt
 ---------
 Symbolic Z-matrix:
 Charge =  0 Multiplicity = 4
 C                    -0.78986   0.49081  -0.00016 
 H                    -1.02363   1.09453   0.88384 
 H                    -1.02347   1.09419  -0.88443 
 C                    -1.72187  -0.71468  -0.00001 
 C                     0.61327   0.12209   0.00003 
 C                     1.77296  -0.18694   0.00019 
 H                     2.80015  -0.45637   0.00033 
 
 NAtoms=      7 NQM=        7 NQMF=       0 NMMI=      0 NMMIF=      0
                NMic=       0 NMicF=      0.
                    Isotopes and Nuclear Properties:
 (Nuclear quadrupole moments (NQMom) in fm**2, nuclear magnetic moments (NMagM)
  in nuclear magnetons)

  Atom         1           2           3           4           5           6           7
 IAtWgt=          12           1           1          12          12          12           1
 AtmWgt=  12.0000000   1.0078250   1.0078250  12.0000000  12.0000000  12.0000000   1.0078250
 NucSpn=           0           1           1           0           0           0           1
 AtZEff=   0.0000000   0.0000000   0.0000000   0.0000000   0.0000000   0.0000000   0.0000000
 NQMom=    0.0000000   0.0000000   0.0000000   0.0000000   0.0000000   0.0000000   0.0000000
 NMagM=    0.0000000   2.7928460   2.7928460   0.0000000   0.0000000   0.0000000   2.7928460
 AtZNuc=   6.0000000   1.0000000   1.0000000   6.0000000   6.0000000   6.0000000   1.0000000
 Leave Link  101 at Tue Jul 19 10:20:41 2016, MaxMem=    33554432 cpu:         0.2
 (Enter /home/proyectos/fulerenos/M3C-v2.0/M3C-deps_CCC/g09-AM64L-G09RevC.01/l103.exe)

 GradGradGradGradGradGradGradGradGradGradGradGradGradGradGradGradGradGrad
 Berny optimization.
 Initialization pass.
 Trust Radius=3.00D-01 FncErr=1.00D-07 GrdErr=1.00D-07
 Number of steps in this run=      2 maximum allowed number of steps=      2.
 GradGradGradGradGradGradGradGradGradGradGradGradGradGradGradGradGradGrad

 Leave Link  103 at Tue Jul 19 10:20:41 2016, MaxMem=    33554432 cpu:         0.0
 (Enter /home/proyectos/fulerenos/M3C-v2.0/M3C-deps_CCC/g09-AM64L-G09RevC.01/l202.exe)
                          Input orientation:                          
 ---------------------------------------------------------------------
 Center     Atomic      Atomic             Coordinates (Angstroms)
 Number     Number       Type             X           Y           Z
 ---------------------------------------------------------------------
      1          6           0       -0.789860    0.490809   -0.000159
      2          1           0       -1.023626    1.094528    0.883842
      3          1           0       -1.023474    1.094188   -0.884432
      4          6           0       -1.721875   -0.714684   -0.000007
      5          6           0        0.613271    0.122093    0.000033
      6          6           0        1.772957   -0.186943    0.000192
      7          1           0        2.800153   -0.456369    0.000332
 ---------------------------------------------------------------------
                    Distance matrix (angstroms):
                    1          2          3          4          5
     1  C    0.000000
     2  H    1.095710   0.000000
     3  H    1.095710   1.768274   0.000000
     4  C    1.523767   2.131194   2.131194   0.000000
     5  C    1.450768   2.099090   2.099090   2.480545   0.000000
     6  C    2.650920   3.200606   3.200606   3.534453   1.200156
     7  H    3.712861   4.219853   4.219853   4.529400   2.262094
                    6          7
     6  C    0.000000
     7  H    1.061943   0.000000
 Stoichiometry    C4H3(4)
 Framework group  CS[SG(C4H),X(H2)]
 Deg. of freedom    10
 Full point group                 CS      NOp   2
 Largest Abelian subgroup         CS      NOp   2
 Largest concise Abelian subgroup CS      NOp   2
                         Standard orientation:                         
 ---------------------------------------------------------------------
 Center     Atomic      Atomic             Coordinates (Angstroms)
 Number     Number       Type             X           Y           Z
 ---------------------------------------------------------------------
      1          6           0       -0.635585   -0.678826    0.000000
      2          1           0       -1.273146   -0.790173    0.884137
      3          1           0       -1.273146   -0.790173   -0.884137
      4          6           0        0.364726   -1.828279   -0.000000
      5          6           0       -0.000000    0.625306    0.000000
      6          6           0        0.529520    1.702331   -0.000000
      7          1           0        0.994324    2.657150   -0.000000
 ---------------------------------------------------------------------
 Rotational constants (GHZ):     37.1175648      5.2089455      4.7018240
 Leave Link  202 at Tue Jul 19 10:20:41 2016, MaxMem=    33554432 cpu:         0.0
 (Enter /home/proyectos/fulerenos/M3C-v2.0/M3C-deps_CCC/g09-AM64L-G09RevC.01/l301.exe)
 Standard basis: 6-311++G(3df,2p) (5D, 7F)
 Ernie: Thresh=  0.10000D-02 Tol=  0.10000D-05 Strict=F.
 There are   142 symmetry adapted cartesian basis functions of A'  symmetry.
 There are    68 symmetry adapted cartesian basis functions of A"  symmetry.
 There are   122 symmetry adapted basis functions of A'  symmetry.
 There are    64 symmetry adapted basis functions of A"  symmetry.
   186 basis functions,   268 primitive gaussians,   210 cartesian basis functions
    15 alpha electrons       12 beta electrons
       nuclear repulsion energy        82.0467396210 Hartrees.
 IExCor=  402 DFT=T Ex+Corr=B3LYP ExCW=0 ScaHFX=  0.200000
 ScaDFX=  0.800000  0.720000  1.000000  0.810000 ScalE2=  1.000000  1.000000
 IRadAn=      0 IRanWt=     -1 IRanGd=            0 ICorTp=0 IEmpDi=  4
 NAtoms=    7 NActive=    7 NUniq=    6 SFac= 1.36D+00 NAtFMM=   60 NAOKFM=F Big=F
 Integral buffers will be    131072 words long.
 Raffenetti 2 integral format.
 Two-electron integral symmetry is turned on.
 Leave Link  301 at Tue Jul 19 10:20:41 2016, MaxMem=    33554432 cpu:         0.2
 (Enter /home/proyectos/fulerenos/M3C-v2.0/M3C-deps_CCC/g09-AM64L-G09RevC.01/l302.exe)
 NPDir=0 NMtPBC=     1 NCelOv=     1 NCel=       1 NClECP=     1 NCelD=      1
         NCelK=      1 NCelE2=     1 NClLst=     1 CellRange=     0.0.
 One-electron integrals computed using PRISM.
 One-electron integral symmetry used in STVInt
 NBasis=   186 RedAO= T EigKep=  2.14D-06  NBF=   122    64
 NBsUse=   186 1.00D-06 EigRej= -1.00D+00 NBFU=   122    64
 Precomputing XC quadrature grid using
 IXCGrd= 4 IRadAn=           0 IRanWt=          -1 IRanGd=           0 AccXCQ= 0.00D+00.
 Generated NRdTot=       0 NPtTot=           0 NUsed=           0 NTot=          32
 NSgBfM=   210   210   210   210   210 MxSgAt=     7 MxSgA2=     7.
 Leave Link  302 at Tue Jul 19 10:20:42 2016, MaxMem=    33554432 cpu:         0.4
 (Enter /home/proyectos/fulerenos/M3C-v2.0/M3C-deps_CCC/g09-AM64L-G09RevC.01/l303.exe)
 DipDrv:  MaxL=1.
 Leave Link  303 at Tue Jul 19 10:20:42 2016, MaxMem=    33554432 cpu:         0.1
 (Enter /home/proyectos/fulerenos/M3C-v2.0/M3C-deps_CCC/g09-AM64L-G09RevC.01/l401.exe)
 ExpMin= 3.60D-02 ExpMax= 4.56D+03 ExpMxC= 6.82D+02 IAcc=3 IRadAn=         5 AccDes= 0.00D+00
 Harris functional with IExCor=  402 and IRadAn=       5 diagonalized for initial guess.
 HarFok:  IExCor=  402 AccDes= 0.00D+00 IRadAn=         5 IDoV= 1 UseB2=F ITyADJ=14
 ICtDFT=  3500011 ScaDFX=  1.000000  1.000000  1.000000  1.000000
 FoFCou: FMM=F IPFlag=           0 FMFlag=      100000 FMFlg1=           0
         NFxFlg=           0 DoJE=T BraDBF=F KetDBF=T FulRan=T
         wScrn=  0.000000 ICntrl=     500 IOpCl=  0 I1Cent=   200000004 NGrid=           0
         NMat0=    1 NMatS0=      1 NMatT0=    0 NMatD0=    1 NMtDS0=    0 NMtDT0=    0
 Petite list used in FoFCou.
 Harris En= -153.899385589233    
 JPrj=0 DoOrth=F DoCkMO=F.
 Initial guess orbital symmetries:
 Alpha Orbitals:
       Occupied  (A') (A') (A') (A') (A') (A') (A') (A') (A') (A")
                 (A') (A") (A') (A') (A")
       Virtual   (A") (A') (A') (A') (A") (A') (A') (A') (A") (A')
                 (A') (A') (A") (A') (A') (A") (A") (A') (A') (A')
                 (A') (A") (A') (A') (A') (A") (A') (A') (A') (A")
                 (A') (A") (A') (A') (A") (A') (A") (A') (A") (A')
                 (A') (A") (A') (A') (A') (A") (A') (A') (A") (A')
                 (A") (A') (A") (A') (A') (A") (A') (A') (A') (A")
                 (A') (A") (A') (A') (A") (A') (A') (A") (A') (A")
                 (A') (A') (A') (A") (A') (A") (A') (A') (A') (A")
                 (A') (A') (A') (A") (A") (A') (A") (A') (A') (A")
                 (A') (A") (A') (A') (A') (A") (A") (A') (A") (A')
                 (A') (A') (A") (A') (A") (A") (A') (A') (A") (A")
                 (A') (A') (A') (A") (A") (A') (A') (A") (A') (A')
                 (A") (A') (A') (A") (A') (A') (A") (A') (A") (A')
                 (A') (A") (A') (A') (A') (A') (A") (A') (A") (A")
                 (A') (A') (A") (A') (A") (A') (A') (A") (A') (A")
                 (A') (A") (A') (A") (A') (A") (A') (A') (A") (A')
                 (A') (A") (A') (A') (A") (A') (A') (A') (A') (A')
                 (A')
 Beta  Orbitals:
       Occupied  (A') (A') (A') (A') (A') (A') (A') (A') (A') (A")
                 (A') (A")
       Virtual   (A') (A') (A") (A") (A') (A') (A') (A") (A') (A')
                 (A') (A") (A') (A') (A') (A") (A') (A') (A") (A")
                 (A') (A') (A') (A') (A") (A') (A') (A') (A") (A')
                 (A') (A') (A") (A') (A") (A') (A') (A") (A') (A")
                 (A') (A") (A') (A') (A") (A') (A') (A') (A") (A')
                 (A') (A") (A') (A") (A') (A") (A') (A') (A") (A')
                 (A') (A') (A") (A') (A") (A') (A') (A") (A') (A')
                 (A") (A') (A") (A') (A') (A') (A") (A') (A") (A')
                 (A') (A') (A") (A') (A') (A') (A") (A") (A') (A")
                 (A') (A') (A") (A') (A") (A') (A') (A') (A") (A")
                 (A') (A") (A') (A') (A') (A") (A') (A") (A") (A')
                 (A') (A") (A") (A') (A') (A') (A") (A") (A') (A')
                 (A") (A') (A') (A") (A') (A') (A") (A') (A') (A")
                 (A') (A") (A') (A') (A") (A') (A') (A') (A') (A")
                 (A') (A") (A") (A') (A') (A") (A') (A") (A') (A')
                 (A") (A') (A") (A') (A") (A') (A") (A') (A") (A')
                 (A') (A") (A') (A') (A") (A') (A') (A") (A') (A')
                 (A') (A') (A') (A')
 The electronic state of the initial guess is 4-A".
 Initial guess <Sx>= 0.0000 <Sy>= 0.0000 <Sz>= 1.5000 <S**2>= 3.7500 S= 1.5000
 Leave Link  401 at Tue Jul 19 10:20:45 2016, MaxMem=    33554432 cpu:         3.4
 (Enter /home/proyectos/fulerenos/M3C-v2.0/M3C-deps_CCC/g09-AM64L-G09RevC.01/l502.exe)
 UHF open shell SCF:
 Using DIIS extrapolation, IDIIS=  1040.
 Integral symmetry usage will be decided dynamically.
 IVT=      153868 IEndB=      153868 NGot=    33554432 MDV=    33461515
 LenX=    33461515 LenY=    33416974
 Requested convergence on RMS density matrix=1.00D-08 within 128 cycles.
 Requested convergence on MAX density matrix=1.00D-06.
 Requested convergence on             energy=1.00D-06.
 No special actions if energy rises.
 Fock matrices will be formed incrementally for  20 cycles.

 Cycle   1  Pass 1  IDiag  1:
 FoFJK:  IHMeth= 1 ICntrl=       0 DoSepK=F KAlg= 0 I1Cent=   0 FoldK=F
 IRaf= 980000000 NMat=   1 IRICut=       1 DoRegI=T DoRafI=F ISym2E= 1.
 FoFCou: FMM=F IPFlag=           0 FMFlag=      100000 FMFlg1=           0
         NFxFlg=           0 DoJE=F BraDBF=F KetDBF=F FulRan=T
         wScrn=  0.000000 ICntrl=       0 IOpCl=  1 I1Cent=           0 NGrid=           0
         NMat0=    1 NMatS0=      1 NMatT0=    0 NMatD0=    1 NMtDS0=    0 NMtDT0=    0
 Petite list used in FoFCou.
 E= -153.858582424182    
 DIIS: error= 3.11D-02 at cycle   1 NSaved=   1.
 NSaved= 1 IEnMin= 1 EnMin= -153.858582424182     IErMin= 1 ErrMin= 3.11D-02
 ErrMax= 3.11D-02  0.00D+00 EMaxC= 1.00D-01 BMatC= 4.17D-01 BMatP= 4.17D-01
 IDIUse=3 WtCom= 6.89D-01 WtEn= 3.11D-01
 Coeff-Com:  0.100D+01
 Coeff-En:   0.100D+01
 Coeff:      0.100D+01
 Gap=     0.328 Goal=   None    Shift=    0.000
 Gap=     0.021 Goal=   None    Shift=    0.000
 GapD=    0.021 DampG=0.250 DampE=0.500 DampFc=0.2500 IDamp=-1.
 Damping current iteration by 2.50D-01
 RMSDP=8.23D-03 MaxDP=5.33D-01              OVMax= 4.37D-01

 Cycle   2  Pass 1  IDiag  1:
 RMSU=  1.43D-03    CP:  9.40D-01
 E= -153.891004086068     Delta-E=       -0.032421661886 Rises=F Damp=T
 DIIS: error= 1.29D-02 at cycle   2 NSaved=   2.
 NSaved= 2 IEnMin= 2 EnMin= -153.891004086068     IErMin= 2 ErrMin= 1.29D-02
 ErrMax= 1.29D-02  0.00D+00 EMaxC= 1.00D-01 BMatC= 1.13D-01 BMatP= 4.17D-01
 IDIUse=3 WtCom= 8.71D-01 WtEn= 1.29D-01
 Coeff-Com: -0.827D+00 0.183D+01
 Coeff-En:   0.000D+00 0.100D+01
 Coeff:     -0.720D+00 0.172D+01
 Gap=     0.288 Goal=   None    Shift=    0.000
 Gap=     0.086 Goal=   None    Shift=    0.000
 RMSDP=3.51D-03 MaxDP=2.43D-01 DE=-3.24D-02 OVMax= 5.25D-01

 Cycle   3  Pass 1  IDiag  1:
 RMSU=  3.35D-03    CP:  9.02D-01  1.33D+00
 E= -153.943810214601     Delta-E=       -0.052806128533 Rises=F Damp=F
 DIIS: error= 1.00D-02 at cycle   3 NSaved=   3.
 NSaved= 3 IEnMin= 3 EnMin= -153.943810214601     IErMin= 3 ErrMin= 1.00D-02
 ErrMax= 1.00D-02  0.00D+00 EMaxC= 1.00D-01 BMatC= 4.79D-02 BMatP= 1.13D-01
 IDIUse=3 WtCom= 9.00D-01 WtEn= 1.00D-01
 Coeff-Com: -0.574D+00 0.109D+01 0.488D+00
 Coeff-En:   0.000D+00 0.000D+00 0.100D+01
 Coeff:     -0.517D+00 0.977D+00 0.539D+00
 Gap=     0.222 Goal=   None    Shift=    0.000
 Gap=     0.116 Goal=   None    Shift=    0.000
 RMSDP=2.86D-03 MaxDP=1.61D-01 DE=-5.28D-02 OVMax= 8.34D-02

 Cycle   4  Pass 1  IDiag  1:
 RMSU=  1.88D-03    CP:  9.25D-01  1.86D+00  4.20D-01
 E= -153.960004791498     Delta-E=       -0.016194576897 Rises=F Damp=F
 DIIS: error= 2.74D-03 at cycle   4 NSaved=   4.
 NSaved= 4 IEnMin= 4 EnMin= -153.960004791498     IErMin= 4 ErrMin= 2.74D-03
 ErrMax= 2.74D-03  0.00D+00 EMaxC= 1.00D-01 BMatC= 4.72D-03 BMatP= 4.79D-02
 IDIUse=3 WtCom= 9.73D-01 WtEn= 2.74D-02
 Coeff-Com: -0.255D+00 0.424D+00 0.237D+00 0.594D+00
 Coeff-En:   0.000D+00 0.000D+00 0.000D+00 0.100D+01
 Coeff:     -0.248D+00 0.412D+00 0.231D+00 0.605D+00
 Gap=     0.215 Goal=   None    Shift=    0.000
 Gap=     0.122 Goal=   None    Shift=    0.000
 RMSDP=6.50D-04 MaxDP=3.44D-02 DE=-1.62D-02 OVMax= 3.98D-02

 Cycle   5  Pass 1  IDiag  1:
 RMSU=  5.58D-04    CP:  9.21D-01  2.06D+00  4.47D-01  1.05D+00
 E= -153.960611358415     Delta-E=       -0.000606566917 Rises=F Damp=F
 DIIS: error= 3.36D-03 at cycle   5 NSaved=   5.
 NSaved= 5 IEnMin= 5 EnMin= -153.960611358415     IErMin= 4 ErrMin= 2.74D-03
 ErrMax= 3.36D-03  0.00D+00 EMaxC= 1.00D-01 BMatC= 3.45D-03 BMatP= 4.72D-03
 IDIUse=3 WtCom= 9.66D-01 WtEn= 3.36D-02
 Coeff-Com: -0.946D-01 0.122D+00 0.431D-01 0.449D+00 0.480D+00
 Coeff-En:   0.000D+00 0.000D+00 0.000D+00 0.361D+00 0.639D+00
 Coeff:     -0.914D-01 0.118D+00 0.417D-01 0.446D+00 0.486D+00
 Gap=     0.217 Goal=   None    Shift=    0.000
 Gap=     0.122 Goal=   None    Shift=    0.000
 RMSDP=3.12D-04 MaxDP=1.55D-02 DE=-6.07D-04 OVMax= 1.56D-02

 Cycle   6  Pass 1  IDiag  1:
 RMSU=  2.44D-04    CP:  9.20D-01  2.13D+00  4.13D-01  1.11D+00  1.06D+00
 E= -153.961533986872     Delta-E=       -0.000922628457 Rises=F Damp=F
 DIIS: error= 9.16D-04 at cycle   6 NSaved=   6.
 NSaved= 6 IEnMin= 6 EnMin= -153.961533986872     IErMin= 6 ErrMin= 9.16D-04
 ErrMax= 9.16D-04  0.00D+00 EMaxC= 1.00D-01 BMatC= 3.13D-04 BMatP= 3.45D-03
 IDIUse=3 WtCom= 9.91D-01 WtEn= 9.16D-03
 Coeff-Com:  0.321D-02-0.164D-01-0.638D-01-0.660D-02 0.224D+00 0.860D+00
 Coeff-En:   0.000D+00 0.000D+00 0.000D+00 0.000D+00 0.000D+00 0.100D+01
 Coeff:      0.318D-02-0.162D-01-0.632D-01-0.654D-02 0.222D+00 0.861D+00
 Gap=     0.220 Goal=   None    Shift=    0.000
 Gap=     0.122 Goal=   None    Shift=    0.000
 RMSDP=2.48D-04 MaxDP=1.27D-02 DE=-9.23D-04 OVMax= 1.38D-02

 Cycle   7  Pass 1  IDiag  1:
 RMSU=  6.72D-05    CP:  9.21D-01  2.21D+00  3.93D-01  1.18D+00  1.30D+00
                    CP:  1.25D+00
 E= -153.961662436059     Delta-E=       -0.000128449187 Rises=F Damp=F
 DIIS: error= 2.17D-04 at cycle   7 NSaved=   7.
 NSaved= 7 IEnMin= 7 EnMin= -153.961662436059     IErMin= 7 ErrMin= 2.17D-04
 ErrMax= 2.17D-04  0.00D+00 EMaxC= 1.00D-01 BMatC= 2.64D-05 BMatP= 3.13D-04
 IDIUse=3 WtCom= 9.98D-01 WtEn= 2.17D-03
 Coeff-Com:  0.310D-02-0.421D-02-0.283D-01-0.601D-01 0.658D-02 0.266D+00
 Coeff-Com:  0.817D+00
 Coeff-En:   0.000D+00 0.000D+00 0.000D+00 0.000D+00 0.000D+00 0.000D+00
 Coeff-En:   0.100D+01
 Coeff:      0.309D-02-0.420D-02-0.283D-01-0.600D-01 0.657D-02 0.266D+00
 Coeff:      0.817D+00
 Gap=     0.221 Goal=   None    Shift=    0.000
 Gap=     0.122 Goal=   None    Shift=    0.000
 RMSDP=1.00D-04 MaxDP=7.72D-03 DE=-1.28D-04 OVMax= 4.85D-03

 Cycle   8  Pass 1  IDiag  1:
 RMSU=  3.22D-05    CP:  9.22D-01  2.23D+00  3.82D-01  1.22D+00  1.37D+00
                    CP:  1.30D+00  1.19D+00
 E= -153.961675850883     Delta-E=       -0.000013414824 Rises=F Damp=F
 DIIS: error= 1.12D-04 at cycle   8 NSaved=   8.
 NSaved= 8 IEnMin= 8 EnMin= -153.961675850883     IErMin= 8 ErrMin= 1.12D-04
 ErrMax= 1.12D-04  0.00D+00 EMaxC= 1.00D-01 BMatC= 4.69D-06 BMatP= 2.64D-05
 IDIUse=3 WtCom= 9.99D-01 WtEn= 1.12D-03
 Coeff-Com:  0.941D-03-0.173D-03-0.747D-02-0.291D-01-0.283D-01 0.216D-02
 Coeff-Com:  0.289D+00 0.773D+00
 Coeff-En:   0.000D+00 0.000D+00 0.000D+00 0.000D+00 0.000D+00 0.000D+00
 Coeff-En:   0.000D+00 0.100D+01
 Coeff:      0.940D-03-0.173D-03-0.746D-02-0.291D-01-0.283D-01 0.215D-02
 Coeff:      0.288D+00 0.774D+00
 Gap=     0.221 Goal=   None    Shift=    0.000
 Gap=     0.122 Goal=   None    Shift=    0.000
 RMSDP=3.54D-05 MaxDP=1.88D-03 DE=-1.34D-05 OVMax= 2.16D-03

 Cycle   9  Pass 1  IDiag  1:
 RMSU=  1.04D-05    CP:  9.22D-01  2.24D+00  3.79D-01  1.22D+00  1.41D+00
                    CP:  1.35D+00  1.24D+00  1.08D+00
 E= -153.961678246826     Delta-E=       -0.000002395943 Rises=F Damp=F
 DIIS: error= 3.60D-05 at cycle   9 NSaved=   9.
 NSaved= 9 IEnMin= 9 EnMin= -153.961678246826     IErMin= 9 ErrMin= 3.60D-05
 ErrMax= 3.60D-05  0.00D+00 EMaxC= 1.00D-01 BMatC= 7.22D-07 BMatP= 4.69D-06
 IDIUse=1 WtCom= 1.00D+00 WtEn= 0.00D+00
 Coeff-Com: -0.105D-02 0.183D-02 0.147D-02 0.371D-03-0.846D-02-0.363D-01
 Coeff-Com: -0.724D-01 0.262D+00 0.853D+00
 Coeff:     -0.105D-02 0.183D-02 0.147D-02 0.371D-03-0.846D-02-0.363D-01
 Coeff:     -0.724D-01 0.262D+00 0.853D+00
 Gap=     0.221 Goal=   None    Shift=    0.000
 Gap=     0.122 Goal=   None    Shift=    0.000
 RMSDP=1.10D-05 MaxDP=4.64D-04 DE=-2.40D-06 OVMax= 7.13D-04

 Cycle  10  Pass 1  IDiag  1:
 RMSU=  5.66D-06    CP:  9.22D-01  2.24D+00  3.78D-01  1.23D+00  1.41D+00
                    CP:  1.37D+00  1.29D+00  1.12D+00  1.05D+00
 E= -153.961678653267     Delta-E=       -0.000000406441 Rises=F Damp=F
 DIIS: error= 1.56D-05 at cycle  10 NSaved=  10.
 NSaved=10 IEnMin=10 EnMin= -153.961678653267     IErMin=10 ErrMin= 1.56D-05
 ErrMax= 1.56D-05  0.00D+00 EMaxC= 1.00D-01 BMatC= 6.29D-08 BMatP= 7.22D-07
 IDIUse=1 WtCom= 1.00D+00 WtEn= 0.00D+00
 Coeff-Com: -0.337D-03 0.342D-03 0.628D-03 0.368D-02 0.471D-02 0.461D-02
 Coeff-Com: -0.410D-01-0.100D+00 0.719D-01 0.106D+01
 Coeff:     -0.337D-03 0.342D-03 0.628D-03 0.368D-02 0.471D-02 0.461D-02
 Coeff:     -0.410D-01-0.100D+00 0.719D-01 0.106D+01
 Gap=     0.221 Goal=   None    Shift=    0.000
 Gap=     0.122 Goal=   None    Shift=    0.000
 RMSDP=3.42D-06 MaxDP=2.76D-04 DE=-4.06D-07 OVMax= 2.60D-04

 Cycle  11  Pass 1  IDiag  1:
 RMSU=  2.02D-06    CP:  9.22D-01  2.24D+00  3.78D-01  1.23D+00  1.41D+00
                    CP:  1.37D+00  1.29D+00  1.14D+00  1.20D+00  1.34D+00
 E= -153.961678729380     Delta-E=       -0.000000076112 Rises=F Damp=F
 DIIS: error= 7.49D-06 at cycle  11 NSaved=  11.
 NSaved=11 IEnMin=11 EnMin= -153.961678729380     IErMin=11 ErrMin= 7.49D-06
 ErrMax= 7.49D-06  0.00D+00 EMaxC= 1.00D-01 BMatC= 1.18D-08 BMatP= 6.29D-08
 IDIUse=1 WtCom= 1.00D+00 WtEn= 0.00D+00
 Coeff-Com:  0.161D-03-0.267D-03-0.222D-03-0.185D-03 0.126D-02 0.437D-02
 Coeff-Com:  0.160D-01-0.406D-01-0.149D+00-0.131D+00 0.130D+01
 Coeff:      0.161D-03-0.267D-03-0.222D-03-0.185D-03 0.126D-02 0.437D-02
 Coeff:      0.160D-01-0.406D-01-0.149D+00-0.131D+00 0.130D+01
 Gap=     0.221 Goal=   None    Shift=    0.000
 Gap=     0.122 Goal=   None    Shift=    0.000
 RMSDP=2.14D-06 MaxDP=1.20D-04 DE=-7.61D-08 OVMax= 1.90D-04

 Cycle  12  Pass 1  IDiag  1:
 RMSU=  7.09D-07    CP:  9.22D-01  2.24D+00  3.78D-01  1.23D+00  1.41D+00
                    CP:  1.37D+00  1.29D+00  1.14D+00  1.27D+00  1.59D+00
                    CP:  1.56D+00
 E= -153.961678751504     Delta-E=       -0.000000022124 Rises=F Damp=F
 DIIS: error= 2.33D-06 at cycle  12 NSaved=  12.
 NSaved=12 IEnMin=12 EnMin= -153.961678751504     IErMin=12 ErrMin= 2.33D-06
 ErrMax= 2.33D-06  0.00D+00 EMaxC= 1.00D-01 BMatC= 1.61D-09 BMatP= 1.18D-08
 IDIUse=1 WtCom= 1.00D+00 WtEn= 0.00D+00
 Coeff-Com:  0.172D-04-0.674D-06-0.419D-04-0.406D-03-0.950D-03-0.171D-02
 Coeff-Com:  0.436D-02 0.180D-01 0.105D-01-0.187D+00-0.514D-01 0.121D+01
 Coeff:      0.172D-04-0.674D-06-0.419D-04-0.406D-03-0.950D-03-0.171D-02
 Coeff:      0.436D-02 0.180D-01 0.105D-01-0.187D+00-0.514D-01 0.121D+01
 Gap=     0.221 Goal=   None    Shift=    0.000
 Gap=     0.122 Goal=   None    Shift=    0.000
 RMSDP=8.62D-07 MaxDP=5.87D-05 DE=-2.21D-08 OVMax= 6.62D-05

 Cycle  13  Pass 1  IDiag  1:
 RMSU=  2.44D-07    CP:  9.22D-01  2.24D+00  3.78D-01  1.23D+00  1.41D+00
                    CP:  1.37D+00  1.29D+00  1.15D+00  1.29D+00  1.68D+00
                    CP:  1.83D+00  1.16D+00
 E= -153.961678754314     Delta-E=       -0.000000002810 Rises=F Damp=F
 DIIS: error= 1.11D-06 at cycle  13 NSaved=  13.
 NSaved=13 IEnMin=13 EnMin= -153.961678754314     IErMin=13 ErrMin= 1.11D-06
 ErrMax= 1.11D-06  0.00D+00 EMaxC= 1.00D-01 BMatC= 1.45D-10 BMatP= 1.61D-09
 IDIUse=1 WtCom= 1.00D+00 WtEn= 0.00D+00
 Coeff-Com: -0.193D-04 0.299D-04 0.178D-04 0.543D-04-0.535D-04-0.166D-03
 Coeff-Com: -0.223D-02 0.217D-02 0.146D-01 0.323D-01-0.131D+00-0.125D+00
 Coeff-Com:  0.121D+01
 Coeff:     -0.193D-04 0.299D-04 0.178D-04 0.543D-04-0.535D-04-0.166D-03
 Coeff:     -0.223D-02 0.217D-02 0.146D-01 0.323D-01-0.131D+00-0.125D+00
 Coeff:      0.121D+01
 Gap=     0.221 Goal=   None    Shift=    0.000
 Gap=     0.122 Goal=   None    Shift=    0.000
 RMSDP=2.07D-07 MaxDP=1.63D-05 DE=-2.81D-09 OVMax= 1.82D-05

 Cycle  14  Pass 1  IDiag  1:
 RMSU=  6.93D-08    CP:  9.22D-01  2.24D+00  3.78D-01  1.23D+00  1.41D+00
                    CP:  1.37D+00  1.29D+00  1.15D+00  1.30D+00  1.70D+00
                    CP:  1.89D+00  1.21D+00  1.24D+00
 E= -153.961678754557     Delta-E=       -0.000000000243 Rises=F Damp=F
 DIIS: error= 4.41D-07 at cycle  14 NSaved=  14.
 NSaved=14 IEnMin=14 EnMin= -153.961678754557     IErMin=14 ErrMin= 4.41D-07
 ErrMax= 4.41D-07  0.00D+00 EMaxC= 1.00D-01 BMatC= 2.11D-11 BMatP= 1.45D-10
 IDIUse=1 WtCom= 1.00D+00 WtEn= 0.00D+00
 Coeff-Com:  0.765D-06-0.424D-05-0.487D-06 0.357D-04 0.163D-03 0.300D-03
 Coeff-Com: -0.283D-03-0.281D-02-0.403D-02 0.262D-01 0.176D-01-0.157D+00
 Coeff-Com: -0.995D-01 0.122D+01
 Coeff:      0.765D-06-0.424D-05-0.487D-06 0.357D-04 0.163D-03 0.300D-03
 Coeff:     -0.283D-03-0.281D-02-0.403D-02 0.262D-01 0.176D-01-0.157D+00
 Coeff:     -0.995D-01 0.122D+01
 Gap=     0.221 Goal=   None    Shift=    0.000
 Gap=     0.122 Goal=   None    Shift=    0.000
 RMSDP=8.09D-08 MaxDP=8.41D-06 DE=-2.43D-10 OVMax= 7.41D-06

 Cycle  15  Pass 1  IDiag  1:
 RMSU=  2.95D-08    CP:  9.22D-01  2.24D+00  3.78D-01  1.23D+00  1.41D+00
                    CP:  1.37D+00  1.29D+00  1.15D+00  1.30D+00  1.71D+00
                    CP:  1.90D+00  1.22D+00  1.30D+00  1.35D+00
 E= -153.961678754587     Delta-E=       -0.000000000030 Rises=F Damp=F
 DIIS: error= 9.96D-08 at cycle  15 NSaved=  15.
 NSaved=15 IEnMin=15 EnMin= -153.961678754587     IErMin=15 ErrMin= 9.96D-08
 ErrMax= 9.96D-08  0.00D+00 EMaxC= 1.00D-01 BMatC= 1.53D-12 BMatP= 2.11D-11
 IDIUse=1 WtCom= 1.00D+00 WtEn= 0.00D+00
 Coeff-Com:  0.132D-05-0.242D-05-0.193D-05-0.378D-05 0.703D-05 0.284D-04
 Coeff-Com:  0.255D-03-0.163D-03-0.140D-02-0.299D-02 0.133D-01 0.121D-01
 Coeff-Com: -0.139D+00 0.649D-02 0.111D+01
 Coeff:      0.132D-05-0.242D-05-0.193D-05-0.378D-05 0.703D-05 0.284D-04
 Coeff:      0.255D-03-0.163D-03-0.140D-02-0.299D-02 0.133D-01 0.121D-01
 Coeff:     -0.139D+00 0.649D-02 0.111D+01
 Gap=     0.221 Goal=   None    Shift=    0.000
 Gap=     0.122 Goal=   None    Shift=    0.000
 RMSDP=1.95D-08 MaxDP=1.23D-06 DE=-3.00D-11 OVMax= 1.90D-06

 Cycle  16  Pass 1  IDiag  1:
 RMSU=  9.79D-09    CP:  9.22D-01  2.24D+00  3.78D-01  1.23D+00  1.41D+00
                    CP:  1.37D+00  1.29D+00  1.15D+00  1.30D+00  1.71D+00
                    CP:  1.90D+00  1.22D+00  1.30D+00  1.44D+00  1.19D+00
 E= -153.961678754586     Delta-E=        0.000000000001 Rises=F Damp=F
 DIIS: error= 1.54D-08 at cycle  16 NSaved=  16.
 NSaved=16 IEnMin=15 EnMin= -153.961678754587     IErMin=16 ErrMin= 1.54D-08
 ErrMax= 1.54D-08  0.00D+00 EMaxC= 1.00D-01 BMatC= 1.05D-13 BMatP= 1.53D-12
 IDIUse=1 WtCom= 1.00D+00 WtEn= 0.00D+00
 Coeff-Com:  0.594D-06-0.975D-06-0.353D-06-0.211D-05-0.683D-05-0.850D-05
 Coeff-Com:  0.419D-04 0.819D-04-0.153D-03-0.170D-02 0.182D-02 0.970D-02
 Coeff-Com: -0.208D-01-0.623D-01 0.201D+00 0.872D+00
 Coeff:      0.594D-06-0.975D-06-0.353D-06-0.211D-05-0.683D-05-0.850D-05
 Coeff:      0.419D-04 0.819D-04-0.153D-03-0.170D-02 0.182D-02 0.970D-02
 Coeff:     -0.208D-01-0.623D-01 0.201D+00 0.872D+00
 Gap=     0.221 Goal=   None    Shift=    0.000
 Gap=     0.122 Goal=   None    Shift=    0.000
 RMSDP=5.41D-09 MaxDP=3.13D-07 DE= 7.96D-13 OVMax= 2.23D-07

 SCF Done:  E(UB3LYP) =  -153.961678755     A.U. after   16 cycles
            NFock= 16  Conv=0.54D-08     -V/T= 2.0045
 <Sx>= 0.0000 <Sy>= 0.0000 <Sz>= 1.5000 <S**2>= 3.7549 S= 1.5012
 <L.S>= 0.000000000000E+00
 KE= 1.532721154886D+02 PE=-5.211148765923D+02 EE= 1.318343427281D+02
 Annihilation of the first spin contaminant:
 S**2 before annihilation     3.7549,   after     3.7500
 Leave Link  502 at Tue Jul 19 10:24:51 2016, MaxMem=    33554432 cpu:       245.4
 (Enter /home/proyectos/fulerenos/M3C-v2.0/M3C-deps_CCC/g09-AM64L-G09RevC.01/l801.exe)
 DoSCS=F DFT=T ScalE2(SS,OS)=  1.000000  1.000000
 Range of M.O.s used for correlation:     1   186
 NBasis=   186 NAE=    15 NBE=    12 NFC=     0 NFV=     0
 NROrb=    186 NOA=    15 NOB=    12 NVA=   171 NVB=   174

 **** Warning!!: The largest alpha MO coefficient is  0.31293730D+03


 **** Warning!!: The largest beta MO coefficient is  0.30384132D+03

 Leave Link  801 at Tue Jul 19 10:24:52 2016, MaxMem=    33554432 cpu:         0.1
 (Enter /home/proyectos/fulerenos/M3C-v2.0/M3C-deps_CCC/g09-AM64L-G09RevC.01/l1101.exe)
 Using compressed storage, NAtomX=     7.
 Will process      8 centers per pass.
 Leave Link 1101 at Tue Jul 19 10:24:52 2016, MaxMem=    33554432 cpu:         0.4
 (Enter /home/proyectos/fulerenos/M3C-v2.0/M3C-deps_CCC/g09-AM64L-G09RevC.01/l1102.exe)
 Symmetrizing basis deriv contribution to polar:
 IMax=3 JMax=2 DiffMx= 0.00D+00
 Leave Link 1102 at Tue Jul 19 10:24:52 2016, MaxMem=    33554432 cpu:         0.1
 (Enter /home/proyectos/fulerenos/M3C-v2.0/M3C-deps_CCC/g09-AM64L-G09RevC.01/l1110.exe)
 Forming Gx(P) for the SCF density, NAtomX=     7.
 Integral derivatives from FoFJK, PRISM(SPDF).
 Do as many integral derivatives as possible in FoFJK.
 G2DrvN: MDV=      33554272.
 G2DrvN: will do     8 centers at a time, making    1 passes.
 Calling FoFCou, ICntrl=  3107 FMM=F I1Cent=   0 AccDes= 0.00D+00.
 FoFJK:  IHMeth= 1 ICntrl=    3107 DoSepK=F KAlg= 0 I1Cent=   0 FoldK=F
 IRaf=         0 NMat=   1 IRICut=       1 DoRegI=T DoRafI=F ISym2E= 1.
 FoFCou: FMM=F IPFlag=           0 FMFlag=      100000 FMFlg1=           0
         NFxFlg=           0 DoJE=F BraDBF=F KetDBF=F FulRan=T
         wScrn=  0.000000 ICntrl=    3107 IOpCl=  1 I1Cent=           0 NGrid=           0
         NMat0=    1 NMatS0=      1 NMatT0=    0 NMatD0=    1 NMtDS0=    0 NMtDT0=    0
 Petite list used in FoFCou.
 End of G2Drv F.D. properties file   721 does not exist.
 End of G2Drv F.D. properties file   722 does not exist.
 End of G2Drv F.D. properties file   788 does not exist.
 Leave Link 1110 at Tue Jul 19 10:28:17 2016, MaxMem=    33554432 cpu:       199.7
 (Enter /home/proyectos/fulerenos/M3C-v2.0/M3C-deps_CCC/g09-AM64L-G09RevC.01/l1002.exe)
 Minotr:  UHF open shell wavefunction.
          IDoAtm=1111111
          Direct CPHF calculation.
          Differentiating once with respect to electric field.
                with respect to dipole field.
          Differentiating once with respect to nuclear coordinates.
          Using symmetry in CPHF.
          Requested convergence is 1.0D-08 RMS, and 1.0D-07 maximum.
          Secondary convergence is 1.0D-12 RMS, and 1.0D-12 maximum.
          NewPWx=T KeepS1=F KeepF1=F KeepIn=T MapXYZ=F SortEE=F KeepMc=T.
          MDV=      33553986 using IRadAn=       2.
 Generate precomputed XC quadrature information.
          Solving linear equations simultaneously, MaxMat=       0.
 FoFJK:  IHMeth= 1 ICntrl=       0 DoSepK=F KAlg= 0 I1Cent=   0 FoldK=F
 IRaf= 980000000 NMat=  21 IRICut=      52 DoRegI=T DoRafI=T ISym2E= 2.
 FoFCou: FMM=F IPFlag=           0 FMFlag=      100000 FMFlg1=           0
         NFxFlg=           0 DoJE=F BraDBF=F KetDBF=F FulRan=T
         wScrn=  0.000000 ICntrl=       0 IOpCl=  1 I1Cent=           0 NGrid=           0
         NMat0=   21 NMatS0=     21 NMatT0=    0 NMatD0=   21 NMtDS0=    0 NMtDT0=    0
 Integrals replicated using symmetry in FoFCou.
          There are    21 degrees of freedom in the 1st order CPHF.  IDoFFX=4 NUNeed=    21.
     21 vectors produced by pass  0 Test12= 2.22D-14 4.76D-09 XBig12= 2.26D+02 1.11D+01.
 AX will form    21 AO Fock derivatives at one time.
     21 vectors produced by pass  1 Test12= 2.22D-14 4.76D-09 XBig12= 4.60D+01 2.34D+00.
     21 vectors produced by pass  2 Test12= 2.22D-14 4.76D-09 XBig12= 1.42D+00 2.72D-01.
     21 vectors produced by pass  3 Test12= 2.22D-14 4.76D-09 XBig12= 1.91D-02 2.08D-02.
     21 vectors produced by pass  4 Test12= 2.22D-14 4.76D-09 XBig12= 9.17D-05 1.43D-03.
     21 vectors produced by pass  5 Test12= 2.22D-14 4.76D-09 XBig12= 8.19D-07 1.24D-04.
     18 vectors produced by pass  6 Test12= 2.22D-14 4.76D-09 XBig12= 6.71D-09 1.34D-05.
      6 vectors produced by pass  7 Test12= 2.22D-14 4.76D-09 XBig12= 2.89D-11 6.75D-07.
      5 vectors produced by pass  8 Test12= 2.22D-14 4.76D-09 XBig12= 6.49D-13 2.08D-07.
      5 vectors produced by pass  9 Test12= 2.22D-14 4.76D-09 XBig12= 9.31D-14 7.08D-08.
      2 vectors produced by pass 10 Test12= 2.22D-14 4.76D-09 XBig12= 7.95D-16 6.26D-09.
      1 vectors produced by pass 11 Test12= 2.22D-14 4.76D-09 XBig12= 4.71D-16 5.53D-09.
 InvSVY:  IOpt=1 It=  1 EMax= 2.66D-15
 Solved reduced A of dimension   163 with    21 vectors.
 FullF1:  Do perturbations    1 to    21.
 Isotropic polarizability for W=    0.000000       51.56 Bohr**3.
 End of Minotr F.D. properties file   721 does not exist.
 End of Minotr F.D. properties file   722 does not exist.
 End of Minotr F.D. properties file   788 does not exist.
 Leave Link 1002 at Tue Jul 19 10:42:13 2016, MaxMem=    33554432 cpu:       831.4
 (Enter /home/proyectos/fulerenos/M3C-v2.0/M3C-deps_CCC/g09-AM64L-G09RevC.01/l601.exe)
 Copying SCF densities to generalized density rwf, IOpCl= 1 IROHF=0.

 **********************************************************************

            Population analysis using the SCF density.

 **********************************************************************

 Orbital symmetries:
 Alpha Orbitals:
       Occupied  (A') (A') (A') (A') (A') (A') (A') (A') (A') (A")
                 (A') (A") (A') (A') (A")
       Virtual   (A') (A') (A") (A') (A") (A') (A') (A') (A") (A')
                 (A') (A") (A') (A') (A') (A") (A') (A") (A') (A')
                 (A') (A") (A') (A') (A') (A') (A") (A') (A") (A')
                 (A') (A") (A') (A') (A") (A') (A') (A") (A') (A")
                 (A') (A") (A') (A') (A') (A') (A") (A') (A") (A")
                 (A') (A') (A") (A') (A') (A") (A') (A') (A') (A")
                 (A') (A") (A') (A') (A") (A') (A') (A') (A") (A")
                 (A') (A') (A') (A") (A') (A") (A') (A') (A") (A')
                 (A') (A') (A') (A") (A") (A') (A") (A') (A') (A")
                 (A') (A") (A') (A') (A') (A") (A") (A') (A') (A")
                 (A') (A") (A') (A') (A") (A") (A') (A') (A") (A')
                 (A") (A') (A') (A") (A") (A') (A') (A") (A') (A')
                 (A') (A") (A') (A") (A') (A') (A") (A') (A") (A')
                 (A') (A") (A') (A') (A') (A') (A") (A") (A') (A")
                 (A') (A') (A") (A') (A") (A') (A') (A") (A') (A")
                 (A') (A") (A') (A") (A') (A') (A") (A') (A") (A')
                 (A') (A") (A') (A') (A") (A') (A') (A') (A') (A')
                 (A')
 Beta  Orbitals:
       Occupied  (A') (A') (A') (A') (A') (A') (A') (A') (A') (A")
                 (A') (A")
       Virtual   (A') (A') (A") (A') (A') (A") (A') (A") (A') (A')
                 (A') (A") (A') (A') (A') (A") (A') (A') (A") (A")
                 (A') (A') (A') (A') (A") (A') (A') (A') (A') (A")
                 (A') (A') (A") (A') (A') (A") (A') (A") (A') (A")
                 (A') (A') (A") (A') (A") (A') (A') (A') (A") (A')
                 (A') (A") (A') (A") (A') (A") (A') (A') (A") (A')
                 (A') (A') (A") (A') (A") (A') (A') (A") (A') (A')
                 (A") (A') (A") (A') (A') (A') (A") (A') (A') (A")
                 (A') (A') (A") (A') (A') (A') (A") (A") (A') (A")
                 (A') (A') (A") (A') (A") (A') (A') (A') (A") (A")
                 (A') (A') (A") (A') (A') (A") (A') (A") (A") (A')
                 (A') (A") (A") (A') (A') (A') (A") (A") (A') (A')
                 (A") (A') (A') (A") (A') (A') (A") (A') (A') (A")
                 (A') (A") (A') (A') (A") (A') (A') (A') (A') (A")
                 (A") (A') (A") (A') (A') (A") (A') (A") (A') (A')
                 (A") (A') (A") (A') (A") (A') (A") (A') (A") (A')
                 (A') (A") (A') (A') (A") (A') (A') (A") (A') (A')
                 (A') (A') (A') (A')
 The electronic state is 4-A".
 Alpha  occ. eigenvalues --  -10.24574 -10.23885 -10.19455 -10.18382  -0.83097
 Alpha  occ. eigenvalues --   -0.74728  -0.60675  -0.54682  -0.49340  -0.47892
 Alpha  occ. eigenvalues --   -0.38169  -0.29797  -0.29769  -0.23446  -0.22976
 Alpha virt. eigenvalues --   -0.00856   0.00783   0.00810   0.01909   0.03620
 Alpha virt. eigenvalues --    0.04381   0.05619   0.07979   0.08282   0.08565
 Alpha virt. eigenvalues --    0.09471   0.09682   0.10759   0.12285   0.13254
 Alpha virt. eigenvalues --    0.14066   0.14929   0.15226   0.17372   0.18546
 Alpha virt. eigenvalues --    0.20688   0.21348   0.21871   0.24413   0.27957
 Alpha virt. eigenvalues --    0.30171   0.31211   0.35064   0.35538   0.35934
 Alpha virt. eigenvalues --    0.39089   0.41750   0.41962   0.42625   0.43006
 Alpha virt. eigenvalues --    0.43326   0.47898   0.49219   0.49772   0.50487
 Alpha virt. eigenvalues --    0.52696   0.53912   0.53947   0.56992   0.57499
 Alpha virt. eigenvalues --    0.59342   0.59486   0.61752   0.62795   0.66457
 Alpha virt. eigenvalues --    0.66551   0.72461   0.78152   0.78256   0.82899
 Alpha virt. eigenvalues --    0.83986   0.88233   0.89808   0.94513   0.98070
 Alpha virt. eigenvalues --    1.00931   1.07152   1.09259   1.15274   1.18512
 Alpha virt. eigenvalues --    1.19280   1.22559   1.29342   1.29605   1.33670
 Alpha virt. eigenvalues --    1.36322   1.40094   1.41181   1.45549   1.48373
 Alpha virt. eigenvalues --    1.48737   1.50706   1.55762   1.58419   1.59364
 Alpha virt. eigenvalues --    1.61525   1.67880   1.72308   1.74481   1.77314
 Alpha virt. eigenvalues --    1.81775   1.88952   1.92303   2.02800   2.04899
 Alpha virt. eigenvalues --    2.10261   2.39714   2.43118   2.52830   2.58009
 Alpha virt. eigenvalues --    2.60192   2.63135   2.64540   2.67101   2.70119
 Alpha virt. eigenvalues --    2.72826   2.72831   2.73838   2.78455   2.79444
 Alpha virt. eigenvalues --    2.81395   2.81847   2.90707   2.90901   2.95267
 Alpha virt. eigenvalues --    2.95693   3.00143   3.03242   3.04859   3.08563
 Alpha virt. eigenvalues --    3.11058   3.13044   3.13551   3.20778   3.22579
 Alpha virt. eigenvalues --    3.28046   3.30811   3.36492   3.54547   3.69321
 Alpha virt. eigenvalues --    3.73927   3.83592   3.87452   3.94124   3.99284
 Alpha virt. eigenvalues --    4.09352   4.20630   4.22229   4.29703   4.33638
 Alpha virt. eigenvalues --    4.44659   4.48129   4.53363   4.53816   4.62698
 Alpha virt. eigenvalues --    4.69897   5.34253   5.59084   5.80175   5.87145
 Alpha virt. eigenvalues --    5.97864   6.36899   6.91776   6.92874   6.95328
 Alpha virt. eigenvalues --    6.97075   7.00762   7.04228   7.09982   7.10076
 Alpha virt. eigenvalues --    7.31783   7.33723   7.36559   7.40019   7.46724
 Alpha virt. eigenvalues --    7.60479   7.62004   7.91498   8.09661   8.12681
 Alpha virt. eigenvalues --    8.37416   8.48966  23.85078  24.08355  24.70785
 Alpha virt. eigenvalues --   27.02268
  Beta  occ. eigenvalues --  -10.24271 -10.19666 -10.19380 -10.18249  -0.81310
  Beta  occ. eigenvalues --   -0.73287  -0.55705  -0.51070  -0.48033  -0.46468
  Beta  occ. eigenvalues --   -0.30008  -0.29418
  Beta virt. eigenvalues --   -0.17230  -0.04834  -0.04318  -0.00535   0.00901
  Beta virt. eigenvalues --    0.00976   0.02627   0.03798   0.05265   0.06200
  Beta virt. eigenvalues --    0.08350   0.08394   0.08917   0.10446   0.11264
  Beta virt. eigenvalues --    0.11502   0.12638   0.13870   0.14156   0.15337
  Beta virt. eigenvalues --    0.15677   0.17572   0.18899   0.20800   0.22587
  Beta virt. eigenvalues --    0.23035   0.27433   0.28746   0.30582   0.31588
  Beta virt. eigenvalues --    0.36127   0.36769   0.37195   0.40387   0.42376
  Beta virt. eigenvalues --    0.43386   0.44512   0.44606   0.45845   0.50221
  Beta virt. eigenvalues --    0.51081   0.51977   0.52642   0.54686   0.55433
  Beta virt. eigenvalues --    0.55716   0.57647   0.58978   0.60123   0.60954
  Beta virt. eigenvalues --    0.64331   0.64483   0.68048   0.69700   0.73349
  Beta virt. eigenvalues --    0.78435   0.79217   0.84115   0.84365   0.88963
  Beta virt. eigenvalues --    0.90735   0.95268   0.98821   1.01628   1.08199
  Beta virt. eigenvalues --    1.10282   1.15709   1.18663   1.19811   1.23441
  Beta virt. eigenvalues --    1.30324   1.33697   1.34093   1.38375   1.41446
  Beta virt. eigenvalues --    1.42128   1.47522   1.49744   1.51118   1.52036
  Beta virt. eigenvalues --    1.58477   1.61394   1.68520   1.69813   1.72152
  Beta virt. eigenvalues --    1.74718   1.77315   1.78062   1.85203   1.90528
  Beta virt. eigenvalues --    1.96659   2.05757   2.08882   2.14249   2.41068
  Beta virt. eigenvalues --    2.45726   2.53116   2.58764   2.62817   2.63854
  Beta virt. eigenvalues --    2.65072   2.68553   2.70991   2.74862   2.76828
  Beta virt. eigenvalues --    2.77671   2.84699   2.85491   2.88845   2.89044
  Beta virt. eigenvalues --    2.93712   2.93729   2.98379   2.99007   3.01522
  Beta virt. eigenvalues --    3.06436   3.08667   3.09813   3.13735   3.15557
  Beta virt. eigenvalues --    3.16958   3.21761   3.26432   3.32166   3.33152
  Beta virt. eigenvalues --    3.40156   3.55783   3.70371   3.76135   3.84948
  Beta virt. eigenvalues --    3.88331   3.95407   3.99889   4.10654   4.23819
  Beta virt. eigenvalues --    4.24137   4.31048   4.34065   4.45992   4.49493
  Beta virt. eigenvalues --    4.53948   4.56046   4.63319   4.71220   5.36462
  Beta virt. eigenvalues --    5.59831   5.80710   5.87605   5.98494   6.37087
  Beta virt. eigenvalues --    6.96042   6.97273   7.05594   7.06309   7.07696
  Beta virt. eigenvalues --    7.10201   7.10867   7.11945   7.34054   7.34700
  Beta virt. eigenvalues --    7.37660   7.42307   7.54967   7.62223   7.63891
  Beta virt. eigenvalues --    7.93242   8.11536   8.13561   8.38332   8.49382
  Beta virt. eigenvalues --   23.86597  24.11761  24.71177  27.02401
          Condensed to atoms (all electrons):
               1          2          3          4          5          6
     1  C    7.046971   0.485691   0.485691  -0.050238   0.563481  -2.129603
     2  H    0.485691   0.548628  -0.049545  -0.051952  -0.088337  -0.019808
     3  H    0.485691  -0.049545   0.548628  -0.051952  -0.088337  -0.019808
     4  C   -0.050238  -0.051952  -0.051952   6.818934  -0.103564  -0.226985
     5  C    0.563481  -0.088337  -0.088337  -0.103564   7.947297  -2.056278
     6  C   -2.129603  -0.019808  -0.019808  -0.226985  -2.056278   9.875411
     7  H    0.032654  -0.000708  -0.000708  -0.003112   0.118710   0.184739
               7
     1  C    0.032654
     2  H   -0.000708
     3  H   -0.000708
     4  C   -0.003112
     5  C    0.118710
     6  C    0.184739
     7  H    0.354067
          Atomic-Atomic Spin Densities.
               1          2          3          4          5          6
     1  C    0.593989   0.051871   0.051871  -0.154069  -0.062362  -0.364265
     2  H    0.051871   0.092703  -0.020749  -0.023814  -0.031176  -0.020081
     3  H    0.051871  -0.020749   0.092703  -0.023814  -0.031176  -0.020081
     4  C   -0.154069  -0.023814  -0.023814   3.225898  -0.085694  -0.139595
     5  C   -0.062362  -0.031176  -0.031176  -0.085694   0.379233  -0.193575
     6  C   -0.364265  -0.020081  -0.020081  -0.139595  -0.193575   0.751781
     7  H   -0.002664  -0.000124  -0.000124  -0.001043  -0.002006   0.005010
               7
     1  C   -0.002664
     2  H   -0.000124
     3  H   -0.000124
     4  C   -0.001043
     5  C   -0.002006
     6  C    0.005010
     7  H   -0.000988
 Mulliken charges and spin densities:
               1          2
     1  C   -0.434648   0.114373
     2  H    0.176030   0.048629
     3  H    0.176030   0.048629
     4  C   -0.331131   2.797869
     5  C   -0.292972  -0.026757
     6  C    0.392332   0.019194
     7  H    0.314359  -0.001938
 Sum of Mulliken charges =  -0.00000   3.00000
 Mulliken charges and spin densities with hydrogens summed into heavy atoms:
               1          2
     1  C   -0.082588   0.211631
     4  C   -0.331131   2.797869
     5  C   -0.292972  -0.026757
     6  C    0.706691   0.017256
 APT charges:
               1
     1  C    0.502048
     2  H    0.000129
     3  H    0.000129
     4  C   -0.302115
     5  C   -0.218083
     6  C   -0.207185
     7  H    0.225078
 Sum of APT charges =   0.00000
 APT charges with hydrogens summed into heavy atoms:
               1
     1  C    0.502305
     4  C   -0.302115
     5  C   -0.218083
     6  C    0.017893
 Electronic spatial extent (au):  <R**2>=            272.8887
 Charge=             -0.0000 electrons
 Dipole moment (field-independent basis, Debye):
    X=             -0.9658    Y=              0.9358    Z=             -0.0000  Tot=              1.3448
 Quadrupole moment (field-independent basis, Debye-Ang):
   XX=            -23.2447   YY=            -23.1442   ZZ=            -24.9634
   XY=              3.2229   XZ=              0.0000   YZ=              0.0000
 Traceless Quadrupole moment (field-independent basis, Debye-Ang):
   XX=              0.5394   YY=              0.6399   ZZ=             -1.1793
   XY=              3.2229   XZ=              0.0000   YZ=              0.0000
 Octapole moment (field-independent basis, Debye-Ang**2):
  XXX=             -4.2154  YYY=             23.0240  ZZZ=             -0.0000  XYY=              6.0670
  XXY=              1.9176  XXZ=             -0.0000  XZZ=             -3.0143  YZZ=             -0.0220
  YYZ=             -0.0000  XYZ=             -0.0000
 Hexadecapole moment (field-independent basis, Debye-Ang**3):
 XXXX=            -73.1319 YYYY=           -280.4455 ZZZZ=            -36.9881 XXXY=            -14.7809
 XXXZ=              0.0000 YYYX=              0.1268 YYYZ=              0.0000 ZZZX=              0.0000
 ZZZY=              0.0000 XXYY=            -56.9312 XXZZ=            -17.2335 YYZZ=            -62.2986
 XXYZ=              0.0000 YYXZ=              0.0000 ZZXY=             -4.8444
 N-N= 8.204673962100D+01 E-N=-5.211148769403D+02  KE= 1.532721154886D+02
 Symmetry A'   KE= 1.476811857084D+02
 Symmetry A"   KE= 5.590929780192D+00
  Exact polarizability:  41.466   4.162  78.096   0.000   0.000  35.113
 Approx polarizability:  59.317  11.050 112.892   0.000   0.000  47.557
                          Isotropic Fermi Contact Couplings
        Atom                 a.u.       MegaHertz       Gauss      10(-4) cm-1
     1  C(13)              0.06115      22.91546       8.17681       7.64378
     2  H(1)               0.02520      37.55011      13.39881      12.52537
     3  H(1)               0.02520      37.55011      13.39881      12.52537
     4  C(13)              0.81947     307.08049     109.57395     102.43103
     5  C(13)              0.07098      26.59724       9.49055       8.87188
     6  C(13)              0.00944       3.53647       1.26190       1.17964
     7  H(1)              -0.00120      -1.78051      -0.63533      -0.59391
 --------------------------------------------------------
       Center         ----  Spin Dipole Couplings  ----
                      3XX-RR        3YY-RR        3ZZ-RR
 --------------------------------------------------------
     1   Atom        0.084605      0.094175     -0.178780
     2   Atom        0.018972     -0.011683     -0.007290
     3   Atom        0.018972     -0.011683     -0.007290
     4   Atom       -0.063551     -0.230265      0.293816
     5   Atom       -0.060051      0.094191     -0.034140
     6   Atom        0.088690     -0.020976     -0.067714
     7   Atom       -0.002876      0.014270     -0.011393
 --------------------------------------------------------
                        XY            XZ            YZ
 --------------------------------------------------------
     1   Atom       -0.273765      0.000000      0.000000
     2   Atom       -0.034128     -0.035981      0.009289
     3   Atom       -0.034128      0.035981     -0.009289
     4   Atom        0.435027      0.000000     -0.000000
     5   Atom        0.027498      0.000000     -0.000000
     6   Atom       -0.045919     -0.000000     -0.000000
     7   Atom        0.004634     -0.000000     -0.000000
 --------------------------------------------------------


 ---------------------------------------------------------------------------------
              Anisotropic Spin Dipole Couplings in Principal Axis System
 ---------------------------------------------------------------------------------

       Atom             a.u.   MegaHertz   Gauss  10(-4) cm-1        Axes

              Baa    -0.1844   -24.747    -8.830    -8.255  0.7133  0.7009 -0.0000
     1 C(13)  Bbb    -0.1788   -23.991    -8.560    -8.002  0.0000  0.0000  1.0000
              Bcc     0.3632    48.738    17.391    16.257 -0.7009  0.7133 -0.0000
 
              Baa    -0.0411   -21.949    -7.832    -7.321  0.6353  0.5727  0.5181
     2 H(1)   Bbb    -0.0188   -10.039    -3.582    -3.349  0.0481 -0.6990  0.7135
              Bcc     0.0600    31.988    11.414    10.670  0.7708 -0.4284 -0.4716
 
              Baa    -0.0411   -21.949    -7.832    -7.321  0.6353  0.5727 -0.5181
     3 H(1)   Bbb    -0.0188   -10.039    -3.582    -3.349 -0.0481  0.6990  0.7135
              Bcc     0.0600    31.988    11.414    10.670  0.7708 -0.4284  0.4716
 
              Baa    -0.5898   -79.152   -28.243   -26.402 -0.6371  0.7708  0.0000
     4 C(13)  Bbb     0.2938    39.427    14.069    13.152 -0.0000 -0.0000  1.0000
              Bcc     0.2960    39.725    14.175    13.251  0.7708  0.6371  0.0000
 
              Baa    -0.0648    -8.696    -3.103    -2.901  0.9854 -0.1704 -0.0000
     5 C(13)  Bbb    -0.0341    -4.581    -1.635    -1.528  0.0000  0.0000  1.0000
              Bcc     0.0989    13.278     4.738     4.429  0.1704  0.9854 -0.0000
 
              Baa    -0.0677    -9.087    -3.242    -3.031  0.0000  0.0000  1.0000
     6 C(13)  Bbb    -0.0377    -5.054    -1.803    -1.686  0.3416  0.9399 -0.0000
              Bcc     0.1054    14.141     5.046     4.717  0.9399 -0.3416  0.0000
 
              Baa    -0.0114    -6.079    -2.169    -2.028  0.0000  0.0000  1.0000
     7 H(1)   Bbb    -0.0040    -2.160    -0.771    -0.721  0.9695 -0.2453  0.0000
              Bcc     0.0154     8.239     2.940     2.748  0.2453  0.9695 -0.0000
 

 ---------------------------------------------------------------------------------

 No NMR shielding tensors so no spin-rotation constants.
 Leave Link  601 at Tue Jul 19 10:42:14 2016, MaxMem=    33554432 cpu:         0.6
 (Enter /home/proyectos/fulerenos/M3C-v2.0/M3C-deps_CCC/g09-AM64L-G09RevC.01/l701.exe)
 Compute integral second derivatives.
 ... and contract with generalized density number  0.
 Leave Link  701 at Tue Jul 19 10:42:16 2016, MaxMem=    33554432 cpu:         0.7
 (Enter /home/proyectos/fulerenos/M3C-v2.0/M3C-deps_CCC/g09-AM64L-G09RevC.01/l702.exe)
 L702 exits ... SP integral derivatives will be done elsewhere.
 Leave Link  702 at Tue Jul 19 10:42:16 2016, MaxMem=    33554432 cpu:         0.1
 (Enter /home/proyectos/fulerenos/M3C-v2.0/M3C-deps_CCC/g09-AM64L-G09RevC.01/l703.exe)
 Compute integral second derivatives, UseDBF=F ICtDFT=           0.
 Integral derivatives from FoFJK, PRISM(SPDF).
 Calling FoFJK, ICntrl=    100127 FMM=F ISym2X=1 I1Cent= 0 IOpClX= 1 NMat=1 NMatS=1 NMatT=0.
 FoFJK:  IHMeth= 1 ICntrl=  100127 DoSepK=F KAlg= 0 I1Cent=   0 FoldK=F
 IRaf=         0 NMat=   1 IRICut=       1 DoRegI=T DoRafI=F ISym2E= 1.
 FoFCou: FMM=F IPFlag=           0 FMFlag=      100000 FMFlg1=         800
         NFxFlg=           0 DoJE=F BraDBF=F KetDBF=F FulRan=T
         wScrn=  0.000000 ICntrl=  100127 IOpCl=  1 I1Cent=           0 NGrid=           0
         NMat0=    1 NMatS0=      1 NMatT0=    0 NMatD0=    1 NMtDS0=    0 NMtDT0=    0
 Petite list used in FoFCou.
 Leave Link  703 at Tue Jul 19 10:48:06 2016, MaxMem=    33554432 cpu:       341.3
 (Enter /home/proyectos/fulerenos/M3C-v2.0/M3C-deps_CCC/g09-AM64L-G09RevC.01/l716.exe)
 Dipole        =-3.79988696D-01 3.68157385D-01-1.76415206D-15
 Polarizability= 4.14661600D+01 4.16209448D+00 7.80957310D+01
                 4.16321460D-08 2.08073381D-07 3.51134786D+01
 Full mass-weighted force constant matrix:
 Low frequencies ---  -11.3966    0.0002    0.0008    0.0008    6.0242    7.9500
 Low frequencies ---  219.5214  324.8100  530.6988
 Diagonal vibrational polarizability:
        3.0123357       6.8818265       5.4078153
 Harmonic frequencies (cm**-1), IR intensities (KM/Mole), Raman scattering
 activities (A**4/AMU), depolarization ratios for plane and unpolarized
 incident light, reduced masses (AMU), force constants (mDyne/A),
 and normal coordinates:
                      1                      2                      3
                     A'                     A"                     A'
 Frequencies --    219.5212               324.8099               530.6988
 Red. masses --      5.1011                 2.8638                 6.7960
 Frc consts  --      0.1448                 0.1780                 1.1277
 IR Inten    --      2.9984                 9.4635                 4.6585
  Atom  AN      X      Y      Z        X      Y      Z        X      Y      Z
     1   6    -0.18  -0.03   0.00    -0.00   0.00  -0.05    -0.21   0.04   0.00
     2   1    -0.14  -0.20   0.01    -0.34  -0.26  -0.33    -0.20   0.20   0.03
     3   1    -0.14  -0.20  -0.01     0.34   0.26  -0.33    -0.20   0.20  -0.03
     4   6     0.23   0.31   0.00     0.00   0.00  -0.04     0.02   0.39   0.00
     5   6    -0.30   0.02  -0.00    -0.00   0.00   0.36     0.41  -0.36   0.00
     6   6     0.21  -0.23   0.00     0.00  -0.00  -0.18    -0.14  -0.11  -0.00
     7   1     0.58  -0.42   0.00     0.00  -0.00  -0.50    -0.55   0.08   0.00
                      4                      5                      6
                     A"                     A'                     A'
 Frequencies --    670.5324               695.4760               877.8409
 Red. masses --      1.2551                 1.2882                 9.2171
 Frc consts  --      0.3325                 0.3671                 4.1848
 IR Inten    --     48.6239                39.8038                72.3387
  Atom  AN      X      Y      Z        X      Y      Z        X      Y      Z
     1   6     0.00  -0.00   0.01    -0.00   0.00   0.00     0.57  -0.20   0.00
     2   1     0.01  -0.01   0.01     0.00   0.01   0.00     0.29   0.05  -0.11
     3   1    -0.01   0.01   0.01     0.00   0.01  -0.00     0.29   0.05   0.11
     4   6    -0.00   0.00   0.00     0.01  -0.00  -0.00    -0.42   0.40  -0.00
     5   6     0.00  -0.00   0.05     0.05  -0.03  -0.00    -0.14  -0.04  -0.00
     6   6    -0.00   0.00  -0.14    -0.13   0.06   0.00    -0.06  -0.15   0.00
     7   1     0.00  -0.00   0.99     0.89  -0.43  -0.00     0.06  -0.23  -0.00
                      7                      8                      9
                     A"                     A'                     A"
 Frequencies --    901.2451               948.3624              1179.0138
 Red. masses --      1.6552                 4.7572                 1.0779
 Frc consts  --      0.7921                 2.5209                 0.8828
 IR Inten    --      0.8477                73.5900                 2.8291
  Atom  AN      X      Y      Z        X      Y      Z        X      Y      Z
     1   6    -0.00   0.00   0.21     0.14   0.44   0.00     0.00  -0.00  -0.03
     2   1    -0.63   0.04  -0.25     0.20   0.49   0.03    -0.06   0.70   0.03
     3   1     0.63  -0.04  -0.25     0.20   0.49  -0.03     0.06  -0.70   0.03
     4   6     0.00  -0.00  -0.08     0.08  -0.11  -0.00    -0.00   0.00  -0.04
     5   6     0.00   0.00  -0.10    -0.13  -0.13  -0.00     0.00  -0.00   0.07
     6   6     0.00   0.00   0.01    -0.12  -0.25  -0.00    -0.00   0.00  -0.01
     7   1    -0.00   0.00   0.08    -0.13  -0.28   0.00     0.00  -0.00  -0.03
                     10                     11                     12
                     A'                     A'                     A'
 Frequencies --   1256.7477              1437.3434              2194.0751
 Red. masses --      1.1975                 1.0983                 5.9764
 Frc consts  --      1.1143                 1.3368                16.9508
 IR Inten    --     29.0790                 2.9438                29.7462
  Atom  AN      X      Y      Z        X      Y      Z        X      Y      Z
     1   6     0.01  -0.12  -0.00    -0.07  -0.05  -0.00    -0.04  -0.06  -0.00
     2   1    -0.25   0.65  -0.07     0.52   0.20   0.43    -0.02  -0.04   0.00
     3   1    -0.25   0.65   0.07     0.52   0.20  -0.43    -0.02  -0.04  -0.00
     4   6     0.05  -0.01  -0.00    -0.01   0.01  -0.00     0.01  -0.01  -0.00
     5   6    -0.03   0.01   0.00    -0.01   0.00   0.00     0.24   0.49  -0.00
     6   6     0.01   0.01   0.00     0.00   0.00  -0.00    -0.17  -0.35   0.00
     7   1     0.02   0.00  -0.00     0.01   0.00  -0.00    -0.33  -0.66  -0.00
                     13                     14                     15
                     A'                     A"                     A'
 Frequencies --   2979.5442              3012.0407              3461.2209
 Red. masses --      1.0542                 1.1037                 1.1596
 Frc consts  --      5.5140                 5.8997                 8.1851
 IR Inten    --      6.1491                 0.2330                50.3468
  Atom  AN      X      Y      Z        X      Y      Z        X      Y      Z
     1   6     0.06   0.02   0.00     0.00   0.00  -0.09    -0.00  -0.00   0.00
     2   1    -0.39  -0.08   0.58    -0.41  -0.08   0.56    -0.00  -0.00   0.00
     3   1    -0.39  -0.08  -0.58     0.41   0.08   0.56    -0.00  -0.00  -0.00
     4   6     0.00  -0.00   0.00     0.00  -0.00  -0.00     0.00  -0.00   0.00
     5   6     0.00   0.00   0.00    -0.00  -0.00  -0.00     0.01   0.03  -0.00
     6   6    -0.00  -0.00  -0.00     0.00   0.00  -0.00    -0.05  -0.10   0.00
     7   1    -0.00  -0.01   0.00     0.00   0.00  -0.00     0.43   0.89  -0.00

 -------------------
 - Thermochemistry -
 -------------------
 Temperature   298.150 Kelvin.  Pressure   1.00000 Atm.
 Atom     1 has atomic number  6 and mass  12.00000
 Atom     2 has atomic number  1 and mass   1.00783
 Atom     3 has atomic number  1 and mass   1.00783
 Atom     4 has atomic number  6 and mass  12.00000
 Atom     5 has atomic number  6 and mass  12.00000
 Atom     6 has atomic number  6 and mass  12.00000
 Atom     7 has atomic number  1 and mass   1.00783
 Molecular mass:    51.02348 amu.
 Principal axes and moments of inertia in atomic units:
                           1         2         3
     Eigenvalues --    48.62230 346.46959 383.83853
           X            0.15430   0.98802   0.00000
           Y            0.98802  -0.15430   0.00000
           Z           -0.00000  -0.00000   1.00000
 This molecule is an asymmetric top.
 Rotational symmetry number  1.
 Rotational temperatures (Kelvin)      1.78136     0.24999     0.22565
 Rotational constants (GHZ):          37.11756     5.20895     4.70182
 Zero-point vibrational energy     123744.5 (Joules/Mol)
                                   29.57566 (Kcal/Mol)
 Warning -- explicit consideration of   3 degrees of freedom as
           vibrations may cause significant error
 Vibrational temperatures:    315.84   467.33   763.56   964.75  1000.63
          (Kelvin)           1263.02  1296.69  1364.48  1696.34  1808.18
                             2068.01  3156.78  4286.89  4333.65  4979.92
 
 Zero-point correction=                           0.047132 (Hartree/Particle)
 Thermal correction to Energy=                    0.051523
 Thermal correction to Enthalpy=                  0.052467
 Thermal correction to Gibbs Free Energy=         0.019758
 Sum of electronic and zero-point Energies=           -153.914547
 Sum of electronic and thermal Energies=              -153.910156
 Sum of electronic and thermal Enthalpies=            -153.909212
 Sum of electronic and thermal Free Energies=         -153.941921
 
                     E (Thermal)             CV                S
                      KCal/Mol        Cal/Mol-Kelvin    Cal/Mol-Kelvin
 Total                   32.331             14.261             68.841
 Electronic               0.000              0.000              2.755
 Translational            0.889              2.981             37.712
 Rotational               0.889              2.981             23.385
 Vibrational             30.554              8.299              4.989
 Vibration     1          0.647              1.811              1.963
 Vibration     2          0.709              1.626              1.286
 Vibration     3          0.886              1.182              0.586
                       Q            Log10(Q)             Ln(Q)
 Total Bot       0.816317D-09         -9.088141        -20.926219
 Total V=0       0.389888D+13         12.590939         28.991709
 Vib (Bot)       0.494900D-21        -21.305483        -49.057687
 Vib (Bot)    1  0.901250D+00         -0.045155         -0.103973
 Vib (Bot)    2  0.577073D+00         -0.238769         -0.549786
 Vib (Bot)    3  0.301159D+00         -0.521204         -1.200116
 Vib (V=0)       0.236373D+01          0.373598          0.860241
 Vib (V=0)    1  0.153066D+01          0.184878          0.425696
 Vib (V=0)    2  0.126355D+01          0.101594          0.233928
 Vib (V=0)    3  0.108369D+01          0.034906          0.080374
 Electronic      0.400000D+01          0.602060          1.386294
 Translational   0.143255D+08          7.156110         16.477553
 Rotational      0.287853D+05          4.459171         10.267621
 
                                                              b3lyp opt
                                                             IR Spectrum
 
     3                32                            2                           1     1  1                                           
     4                09                            1                           4     2  1        998      66    5       3  2        
     6                18                            9                           3     5  7        407      97    3       2  2        
     1                20                            4                           7     7  9        818      51    1       5  0        
 
     X                XX                            X                           X     X  X        XXX      XX    X       X  X        
     X                 X                            X                                 X           X X      XX            X           
     X                                              X                                 X           X X      XX            X           
     X                                              X                                 X           X X      XX                        
     X                                              X                                 X           X X      XX                        
     X                                              X                                 X           X X      XX                        
     X                                              X                                 X           X X      XX                        
     X                                              X                                 X           X X      XX                        
     X                                                                                            X X      XX                        
     X                                                                                            X X      XX                        
     X                                                                                            X X      XX                        
     X                                                                                            X X       X                        
     X                                                                                            X X       X                        
     X                                                                                            X X                                
                                                                                                  X X                                
                                                                                                  X X                                
                                                                                                  X X                                
                                                                                                  X X                                
                                                                                                  X X                                
                                                                                                  X X                                
 
 ***** Axes restored to original set *****
 -------------------------------------------------------------------
 Center     Atomic                   Forces (Hartrees/Bohr)
 Number     Number              X              Y              Z
 -------------------------------------------------------------------
      1        6          -0.000031013    0.000004581   -0.000000004
      2        1           0.000016979   -0.000027621   -0.000030164
      3        1           0.000016974   -0.000027609    0.000030178
      4        6           0.000033623    0.000032053   -0.000000003
      5        6           0.000060711   -0.000007673    0.000000007
      6        6          -0.000061236    0.000023134   -0.000000010
      7        1          -0.000036039    0.000003135   -0.000000004
 -------------------------------------------------------------------
 Cartesian Forces:  Max     0.000061236 RMS     0.000027947
 Z-matrix is all fixed cartesians, so copy forces.
 Force constants in Cartesian coordinates: 
                1             2             3             4             5 
      1  0.407257D+00
      2 -0.964641D-01  0.379483D+00
      3  0.968048D-05  0.168903D-04  0.510438D+00
      4 -0.520043D-01  0.322095D-01  0.421358D-01  0.649278D-01
      5  0.378342D-01 -0.106836D+00 -0.110951D+00 -0.321572D-01  0.124736D+00
      6  0.438975D-01 -0.105966D+00 -0.210253D+00 -0.485471D-01  0.120079D+00
      7 -0.519895D-01  0.321751D-01 -0.421210D-01  0.257568D-02 -0.328486D-02
      8  0.377982D-01 -0.106753D+00  0.110917D+00 -0.328473D-02  0.101624D-01
      9 -0.438848D-01  0.105931D+00 -0.210352D+00 -0.548610D-02  0.130058D-01
     10 -0.584623D-01 -0.471627D-01  0.708816D-05 -0.276498D-04 -0.885347D-02
     11 -0.354817D-01 -0.995601D-01  0.927757D-05 -0.151724D-01 -0.244299D-01
     12  0.484773D-05  0.827749D-05 -0.354396D-01 -0.126073D-01 -0.154649D-01
     13 -0.229603D+00  0.776602D-01 -0.289948D-04 -0.136431D-01  0.641972D-02
     14  0.501875D-01 -0.758403D-01  0.620467D-05  0.189000D-01 -0.419182D-02
     15 -0.237159D-04  0.856486D-05 -0.660079D-01  0.267577D-01 -0.689744D-02
     16 -0.156840D-01  0.647893D-03 -0.197361D-05 -0.174201D-02 -0.636805D-04
     17  0.517897D-02  0.463229D-02  0.000000D+00  0.705481D-04  0.494635D-03
     18 -0.285470D-05  0.000000D+00  0.582717D-02 -0.127443D-02 -0.712627D-04
     19  0.485807D-03  0.934036D-03  0.000000D+00 -0.864386D-04  0.105351D-03
     20  0.946951D-03  0.487423D-02  0.000000D+00 -0.565792D-03  0.651040D-04
     21  0.000000D+00  0.000000D+00  0.578703D-02 -0.978527D-03  0.299653D-03
                6             7             8             9            10 
      6  0.225274D+00
      7  0.549148D-02  0.649111D-01
      8 -0.130185D-01 -0.321179D-01  0.124643D+00
      9 -0.213410D-01  0.485319D-01 -0.120046D+00  0.225383D+00
     10 -0.331805D-02 -0.303893D-04 -0.885485D-02  0.332080D-02  0.959632D-01
     11 -0.187242D-02 -0.151678D-01 -0.244232D-01  0.188065D-02  0.858216D-01
     12  0.377257D-02  0.126125D-01  0.154742D-01  0.376864D-02 -0.104626D-04
     13  0.434152D-02 -0.136377D-01  0.641686D-02 -0.434678D-02 -0.429888D-01
     14  0.768001D-03  0.188899D-01 -0.418946D-02 -0.762147D-03 -0.211662D-01
     15  0.258676D-02 -0.267677D-01  0.690115D-02  0.257905D-02  0.000000D+00
     16 -0.185306D-02 -0.174255D-02 -0.629808D-04  0.185278D-02  0.488550D-02
     17  0.122525D-03  0.710581D-04  0.494616D-03 -0.122687D-03 -0.926399D-03
     18  0.425599D-04  0.127410D-02  0.710785D-04  0.431178D-04  0.000000D+00
     19 -0.122294D-04 -0.866086D-04  0.105407D-03  0.121881D-04  0.660416D-03
     20 -0.112999D-03 -0.565435D-03  0.650320D-04  0.112845D-03  0.114200D-02
     21 -0.818391D-04  0.978744D-03 -0.299691D-03 -0.815970D-04  0.000000D+00
               11            12            13            14            15 
     11  0.143193D+00
     12 -0.152184D-04  0.256884D-01
     13 -0.275304D-01  0.143527D-05  0.129538D+01
     14  0.694068D-02 -0.279665D-05 -0.318721D+00  0.173762D+00
     15 -0.334457D-05  0.184935D-02  0.165019D-03 -0.437771D-04  0.885764D-01
     16  0.740423D-02 -0.104075D-05 -0.100126D+01  0.252732D+00 -0.131974D-03
     17 -0.169661D-02  0.000000D+00  0.255739D+00 -0.997172D-01  0.351440D-04
     18  0.105517D-05  0.449558D-03 -0.132540D-03  0.348781D-04 -0.312778D-01
     19  0.126410D-03  0.000000D+00  0.575365D-02 -0.822371D-03  0.000000D+00
     20 -0.235177D-04  0.000000D+00  0.156810D-04  0.323635D-02  0.000000D+00
     21  0.000000D+00 -0.889545D-04  0.000000D+00  0.000000D+00  0.169408D-02
               16            17            18            19            20 
     16  0.140621D+01
     17 -0.356468D+00  0.144165D+00
     18  0.185446D-03 -0.494890D-04  0.461278D-01
     19 -0.390663D+00  0.963345D-01 -0.502810D-04  0.383936D+00
     20  0.958100D-01 -0.483731D-01  0.134566D-04 -0.967834D-01  0.401559D-01
     21 -0.501782D-04  0.135024D-04 -0.212124D-01  0.504104D-04 -0.133513D-04
               21 
     21  0.139837D-01
 Leave Link  716 at Tue Jul 19 10:48:07 2016, MaxMem=    33554432 cpu:         0.0
 (Enter /home/proyectos/fulerenos/M3C-v2.0/M3C-deps_CCC/g09-AM64L-G09RevC.01/l103.exe)

 GradGradGradGradGradGradGradGradGradGradGradGradGradGradGradGradGradGrad
 Berny optimization.
 Search for a local minimum.
 Step number   1 out of a maximum of    2
 All quantities printed in internal units (Hartrees-Bohrs-Radians)
 Second derivative matrix not updated -- analytic derivatives used.
 ITU=  0
     Eigenvalues ---    0.00965   0.01207   0.04905   0.05128   0.07155
     Eigenvalues ---    0.07492   0.09361   0.14587   0.14923   0.22333
     Eigenvalues ---    0.37343   0.53819   0.70035   0.76227   2.56274
 Angle between quadratic step and forces=  64.44 degrees.
 ClnCor:  largest displacement from symmetrization is 4.81D-11 for atom     7.
 Linear search not attempted -- first point.
 ClnCor:  largest displacement from symmetrization is 1.78D-15 for atom     2.
 B after Tr=     0.000036    0.000052   -0.000000
         Rot=    1.000000    0.000000   -0.000000   -0.000011 Ang=  -0.00 deg.
 Variable       Old X    -DE/DX   Delta X   Delta X   Delta X     New X
                                 (Linear)    (Quad)   (Total)
    X1       -1.49262  -0.00003   0.00000  -0.00004  -0.00002  -1.49264
    Y1        0.92749   0.00000   0.00000   0.00001   0.00003   0.92753
    Z1       -0.00030  -0.00000   0.00000  -0.00000  -0.00000  -0.00030
    X2       -1.93437   0.00002   0.00000   0.00004   0.00003  -1.93434
    Y2        2.06836  -0.00003   0.00000  -0.00010  -0.00009   2.06827
    Z2        1.67022  -0.00003   0.00000  -0.00006  -0.00006   1.67016
    X3       -1.93409   0.00002   0.00000   0.00004   0.00003  -1.93405
    Y3        2.06772  -0.00003   0.00000  -0.00010  -0.00009   2.06763
    Z3       -1.67133   0.00003   0.00000   0.00006   0.00006  -1.67128
    X4       -3.25387   0.00003   0.00000   0.00040   0.00046  -3.25341
    Y4       -1.35056   0.00003   0.00000  -0.00004  -0.00006  -1.35061
    Z4       -0.00001  -0.00000   0.00000   0.00000   0.00000  -0.00001
    X5        1.15891   0.00006   0.00000  -0.00004  -0.00001   1.15891
    Y5        0.23072  -0.00001   0.00000   0.00024   0.00032   0.23104
    Z5        0.00006   0.00000   0.00000  -0.00000  -0.00000   0.00006
    X6        3.35040  -0.00006   0.00000  -0.00019  -0.00014   3.35026
    Y6       -0.35327   0.00002   0.00000   0.00005   0.00017  -0.35310
    Z6        0.00036  -0.00000   0.00000  -0.00000  -0.00000   0.00036
    X7        5.29152  -0.00004   0.00000  -0.00041  -0.00036   5.29116
    Y7       -0.86241   0.00000   0.00000  -0.00046  -0.00030  -0.86271
    Z7        0.00063  -0.00000   0.00000   0.00000   0.00000   0.00063
         Item               Value     Threshold  Converged?
 Maximum Force            0.000061     0.000450     YES
 RMS     Force            0.000028     0.000300     YES
 Maximum Displacement     0.000462     0.001800     YES
 RMS     Displacement     0.000171     0.001200     YES
 Predicted change in Energy=-2.305820D-08
 Optimization completed.
    -- Stationary point found.
 GradGradGradGradGradGradGradGradGradGradGradGradGradGradGradGradGradGrad

 Leave Link  103 at Tue Jul 19 10:48:07 2016, MaxMem=    33554432 cpu:         0.0
 (Enter /home/proyectos/fulerenos/M3C-v2.0/M3C-deps_CCC/g09-AM64L-G09RevC.01/l9999.exe)
 1\1\GINC-CALIFORNIO\Freq\UB3LYP\6-311++G(3df,2p)\C4H3(4)\ROOT\19-Jul-2
 016\0\\#p b3lyp/6-311++G(3df,2p) freq symmetry=Loose\\b3lyp opt\\0,4\C
 ,-0.789859992,0.490808982,-0.0001587451\H,-1.023625986,1.094527968,0.8
 83842118\H,-1.0234739861,1.0941879681,-0.884431882\C,-1.721874998,-0.7
 14684004,-0.000007071\C,0.61327101,0.122092977,0.0000327632\C,1.772956
 981,-0.186942957,0.0001918699\H,2.800152955,-0.4563689,0.0003319718\\V
 ersion=EM64L-G09RevE.01\State=4-A"\HF=-153.9616788\S2=3.754872\S2-1=0.
 \S2A=3.750008\RMSD=5.412e-09\RMSF=2.795e-05\ZeroPoint=0.0471318\Therma
 l=0.0515227\Dipole=0.2868773,0.4445589,-0.0000608\DipoleDeriv=0.991169
 9,0.3740078,0.0000029,0.4338888,0.3941628,-0.0000153,-0.0000086,-0.000
 0204,0.1208114,-0.0176348,-0.0240296,-0.0149751,-0.0523529,-0.0179788,
 -0.0648276,0.041769,-0.0532092,0.0359992,-0.0176301,-0.024033,0.014975
 1,-0.05238,-0.0179334,0.0648393,-0.0417581,0.0532258,0.0359492,-0.5498
 728,-0.178129,-0.0000063,-0.4060135,-0.2777374,0.0000034,0.0000375,0.0
 000229,-0.0787337,-0.4642071,-0.2313792,0.0000144,0.1152833,-0.0763025
 ,0.0000027,-0.0000523,-0.0000271,-0.1137398,-0.1829544,0.0823992,-0.00
 00124,-0.0450951,-0.2152419,-0.0000054,0.0000122,0.0000056,-0.2233585,
 0.2411292,0.0011638,0.0000013,0.0066696,0.2110311,0.0000029,0.0000003,
 0.0000024,0.2230723\Polar=78.2933126,3.169646,41.268578,0.0031025,-0.0
 00911,35.113479\PG=CS [SG(C4H1),X(H2)]\NImag=0\\0.40725716,-0.09646409
 ,0.37948303,0.00000968,0.00001689,0.51043847,-0.05200427,0.03220953,0.
 04213584,0.06492776,0.03783416,-0.10683625,-0.11095072,-0.03215723,0.1
 2473576,0.04389747,-0.10596553,-0.21025349,-0.04854713,0.12007890,0.22
 527446,-0.05198947,0.03217512,-0.04212100,0.00257568,-0.00328486,0.005
 49148,0.06491107,0.03779821,-0.10675285,0.11091741,-0.00328473,0.01016
 245,-0.01301847,-0.03211792,0.12464342,-0.04388480,0.10593126,-0.21035
 168,-0.00548610,0.01300579,-0.02134103,0.04853191,-0.12004572,0.225383
 50,-0.05846233,-0.04716268,0.00000709,-0.00002765,-0.00885347,-0.00331
 805,-0.00003039,-0.00885485,0.00332080,0.09596323,-0.03548167,-0.09956
 014,0.00000928,-0.01517236,-0.02442988,-0.00187242,-0.01516783,-0.0244
 2321,0.00188065,0.08582159,0.14319268,0.00000485,0.00000828,-0.0354395
 9,-0.01260733,-0.01546492,0.00377257,0.01261251,0.01547425,0.00376864,
 -0.00001046,-0.00001522,0.02568843,-0.22960290,0.07766020,-0.00002899,
 -0.01364307,0.00641972,0.00434152,-0.01363772,0.00641686,-0.00434678,-
 0.04298877,-0.02753038,0.00000144,1.29537982,0.05018745,-0.07584032,0.
 00000620,0.01890003,-0.00419182,0.00076800,0.01888987,-0.00418946,-0.0
 0076215,-0.02116619,0.00694068,-0.00000280,-0.31872094,0.17376179,-0.0
 0002372,0.00000856,-0.06600791,0.02675768,-0.00689744,0.00258676,-0.02
 676773,0.00690115,0.00257905,0.00000022,-0.00000334,0.00184935,0.00016
 502,-0.00004378,0.08857642,-0.01568400,0.00064789,-0.00000197,-0.00174
 201,-0.00006368,-0.00185306,-0.00174255,-0.00006298,0.00185278,0.00488
 550,0.00740423,-0.00000104,-1.00126099,0.25273215,-0.00013197,1.406206
 63,0.00517897,0.00463229,0.00000067,0.00007055,0.00049464,0.00012253,0
 .00007106,0.00049462,-0.00012269,-0.00092640,-0.00169661,0.00000033,0.
 25573886,-0.09971722,0.00003514,-0.35646759,0.14416534,-0.00000285,0.0
 0000028,0.00582717,-0.00127443,-0.00007126,0.00004256,0.00127410,0.000
 07108,0.00004312,0.00000056,0.00000106,0.00044956,-0.00013254,0.000034
 88,-0.03127775,0.00018545,-0.00004949,0.04612778,0.00048581,0.00093404
 ,-0.00000063,-0.00008644,0.00010535,-0.00001223,-0.00008661,0.00010541
 ,0.00001219,0.00066042,0.00012641,0.00000004,0.00575365,-0.00082237,0.
 00000051,-0.39066259,0.09633455,-0.00005028,0.38393577,0.00094695,0.00
 487423,0.00000026,-0.00056579,0.00006510,-0.00011300,-0.00056544,0.000
 06503,0.00011285,0.00114200,-0.00002352,0.00000009,0.00001568,0.003236
 35,-0.00000030,0.09580998,-0.04837305,0.00001346,-0.09678338,0.0401558
 5,-0.00000063,0.00000026,0.00578703,-0.00097853,0.00029965,-0.00008184
 ,0.00097874,-0.00029969,-0.00008160,-0.00000016,0.,-0.00008895,0.00000
 034,-0.00000037,0.00169408,-0.00005018,0.00001350,-0.02121243,0.000050
 41,-0.00001335,0.01398372\\0.00003101,-0.00000458,0.,-0.00001698,0.000
 02762,0.00003016,-0.00001697,0.00002761,-0.00003018,-0.00003362,-0.000
 03205,0.,-0.00006071,0.00000767,0.,0.00006124,-0.00002313,0.,0.0000360
 4,-0.00000314,0.\\\@


 HICKORY, DICKORY, DOCK
 TWO MICE RAN UP THE CLOCK
 THE CLOCK STRUCK ONE...
 THE OTHER ESCAPED WITH MINOR INJURIES.
 Job cpu time:       0 days  0 hours 27 minutes  5.2 seconds.
 File lengths (MBytes):  RWF=     40 Int=      0 D2E=      0 Chk=      4 Scr=      1
 Normal termination of Gaussian 09 at Tue Jul 19 10:48:07 2016.
