 Entering Gaussian System, Link 0=/home/proyectos/fulerenos/M3C-v2.0/M3C-deps_CCC/g09-AM64L-G09RevC.01/g09
 Initial command:
 /home/proyectos/fulerenos/M3C-v2.0/M3C-deps_CCC/g09-AM64L-G09RevC.01/l1.exe "/scratch/naguirre/gaussian/Gau-23532.inp" -scrdir="/scratch/naguirre/gaussian/"
 Entering Link 1 = /home/proyectos/fulerenos/M3C-v2.0/M3C-deps_CCC/g09-AM64L-G09RevC.01/l1.exe PID=     23535.
  
 Copyright (c) 1988,1990,1992,1993,1995,1998,2003,2009,2015,
            Gaussian, Inc.  All Rights Reserved.
  
 This is part of the Gaussian(R) 09 program.  It is based on
 the Gaussian(R) 03 system (copyright 2003, Gaussian, Inc.),
 the Gaussian(R) 98 system (copyright 1998, Gaussian, Inc.),
 the Gaussian(R) 94 system (copyright 1995, Gaussian, Inc.),
 the Gaussian 92(TM) system (copyright 1992, Gaussian, Inc.),
 the Gaussian 90(TM) system (copyright 1990, Gaussian, Inc.),
 the Gaussian 88(TM) system (copyright 1988, Gaussian, Inc.),
 the Gaussian 86(TM) system (copyright 1986, Carnegie Mellon
 University), and the Gaussian 82(TM) system (copyright 1983,
 Carnegie Mellon University). Gaussian is a federally registered
 trademark of Gaussian, Inc.
  
 This software contains proprietary and confidential information,
 including trade secrets, belonging to Gaussian, Inc.
  
 This software is provided under written license and may be
 used, copied, transmitted, or stored only in accord with that
 written license.
  
 The following legend is applicable only to US Government
 contracts under FAR:
  
                    RESTRICTED RIGHTS LEGEND
  
 Use, reproduction and disclosure by the US Government is
 subject to restrictions as set forth in subparagraphs (a)
 and (c) of the Commercial Computer Software - Restricted
 Rights clause in FAR 52.227-19.
  
 Gaussian, Inc.
 340 Quinnipiac St., Bldg. 40, Wallingford CT 06492
  
  
 ---------------------------------------------------------------
 Warning -- This program may not be used in any manner that
 competes with the business of Gaussian, Inc. or will provide
 assistance to any competitor of Gaussian, Inc.  The licensee
 of this program is prohibited from giving any competitor of
 Gaussian, Inc. access to this program.  By using this program,
 the user acknowledges that Gaussian, Inc. is engaged in the
 business of creating and licensing software in the field of
 computational chemistry and represents and warrants to the
 licensee that it is not a competitor of Gaussian, Inc. and that
 it will not use this program in any manner prohibited above.
 ---------------------------------------------------------------
  

 Cite this work as:
 Gaussian 09, Revision E.01,
 M. J. Frisch, G. W. Trucks, H. B. Schlegel, G. E. Scuseria, 
 M. A. Robb, J. R. Cheeseman, G. Scalmani, V. Barone, B. Mennucci, 
 G. A. Petersson, H. Nakatsuji, M. Caricato, X. Li, H. P. Hratchian, 
 A. F. Izmaylov, J. Bloino, G. Zheng, J. L. Sonnenberg, M. Hada, 
 M. Ehara, K. Toyota, R. Fukuda, J. Hasegawa, M. Ishida, T. Nakajima, 
 Y. Honda, O. Kitao, H. Nakai, T. Vreven, J. A. Montgomery, Jr., 
 J. E. Peralta, F. Ogliaro, M. Bearpark, J. J. Heyd, E. Brothers, 
 K. N. Kudin, V. N. Staroverov, T. Keith, R. Kobayashi, J. Normand, 
 K. Raghavachari, A. Rendell, J. C. Burant, S. S. Iyengar, J. Tomasi, 
 M. Cossi, N. Rega, J. M. Millam, M. Klene, J. E. Knox, J. B. Cross, 
 V. Bakken, C. Adamo, J. Jaramillo, R. Gomperts, R. E. Stratmann, 
 O. Yazyev, A. J. Austin, R. Cammi, C. Pomelli, J. W. Ochterski, 
 R. L. Martin, K. Morokuma, V. G. Zakrzewski, G. A. Voth, 
 P. Salvador, J. J. Dannenberg, S. Dapprich, A. D. Daniels, 
 O. Farkas, J. B. Foresman, J. V. Ortiz, J. Cioslowski, 
 and D. J. Fox, Gaussian, Inc., Wallingford CT, 2013.
 
 ******************************************
 Gaussian 09:  EM64L-G09RevE.01 30-Nov-2015
                19-Jul-2016 
 ******************************************
 %NProcShared=1
 Will use up to    1 processors via shared memory.
 ---------------------------------------------
 #p b3lyp/6-311++G(3df,2p) freq symmetry=Loose
 ---------------------------------------------
 1/10=4,30=1,38=1/1,3;
 2/12=2,17=4,18=3,40=1/2;
 3/5=4,6=6,7=1216,11=2,16=1,25=1,30=1,71=2,74=-5,140=1/1,2,3;
 4//1;
 5/5=2,38=5,98=1/2;
 8/6=4,10=90,11=11/1;
 11/6=1,8=1,9=11,15=111,16=1/1,2,10;
 10/6=1/2;
 6/7=2,8=2,9=2,10=2,18=1,28=1/1;
 7/8=1,10=1,25=1/1,2,3,16;
 1/10=4,30=1/3;
 99//99;
 Leave Link    1 at Tue Jul 19 14:17:31 2016, MaxMem=           0 cpu:         0.1
 (Enter /home/proyectos/fulerenos/M3C-v2.0/M3C-deps_CCC/g09-AM64L-G09RevC.01/l101.exe)
 ---------
 b3lyp opt
 ---------
 Symbolic Z-matrix:
 Charge =  1 Multiplicity = 1
 C                     1.82288   0.48061   0.00011 
 H                     2.70997  -0.14266  -0.00019 
 H                     1.93708   1.55604   0.00054 
 C                     0.61867  -0.10641  -0.00008 
 C                    -0.24867  -1.13818  -0.00046 
 H                    -0.45604  -2.20203  -0.00088 
 C                    -0.89633   0.07993   0.00007 
 C                    -1.99505   0.8155    0.00042 
 
 NAtoms=      8 NQM=        8 NQMF=       0 NMMI=      0 NMMIF=      0
                NMic=       0 NMicF=      0.
                    Isotopes and Nuclear Properties:
 (Nuclear quadrupole moments (NQMom) in fm**2, nuclear magnetic moments (NMagM)
  in nuclear magnetons)

  Atom         1           2           3           4           5           6           7           8
 IAtWgt=          12           1           1          12          12           1          12          12
 AtmWgt=  12.0000000   1.0078250   1.0078250  12.0000000  12.0000000   1.0078250  12.0000000  12.0000000
 NucSpn=           0           1           1           0           0           1           0           0
 AtZEff=   0.0000000   0.0000000   0.0000000   0.0000000   0.0000000   0.0000000   0.0000000   0.0000000
 NQMom=    0.0000000   0.0000000   0.0000000   0.0000000   0.0000000   0.0000000   0.0000000   0.0000000
 NMagM=    0.0000000   2.7928460   2.7928460   0.0000000   0.0000000   2.7928460   0.0000000   0.0000000
 AtZNuc=   6.0000000   1.0000000   1.0000000   6.0000000   6.0000000   1.0000000   6.0000000   6.0000000
 Leave Link  101 at Tue Jul 19 14:17:32 2016, MaxMem=    33554432 cpu:         0.3
 (Enter /home/proyectos/fulerenos/M3C-v2.0/M3C-deps_CCC/g09-AM64L-G09RevC.01/l103.exe)

 GradGradGradGradGradGradGradGradGradGradGradGradGradGradGradGradGradGrad
 Berny optimization.
 Initialization pass.
 Trust Radius=3.00D-01 FncErr=1.00D-07 GrdErr=1.00D-07
 Number of steps in this run=      2 maximum allowed number of steps=      2.
 GradGradGradGradGradGradGradGradGradGradGradGradGradGradGradGradGradGrad

 Leave Link  103 at Tue Jul 19 14:17:32 2016, MaxMem=    33554432 cpu:         0.1
 (Enter /home/proyectos/fulerenos/M3C-v2.0/M3C-deps_CCC/g09-AM64L-G09RevC.01/l202.exe)
                          Input orientation:                          
 ---------------------------------------------------------------------
 Center     Atomic      Atomic             Coordinates (Angstroms)
 Number     Number       Type             X           Y           Z
 ---------------------------------------------------------------------
      1          6           0        1.822878    0.480612    0.000107
      2          1           0        2.709967   -0.142660   -0.000188
      3          1           0        1.937079    1.556045    0.000540
      4          6           0        0.618673   -0.106414   -0.000077
      5          6           0       -0.248672   -1.138179   -0.000457
      6          1           0       -0.456042   -2.202031   -0.000881
      7          6           0       -0.896332    0.079927    0.000069
      8          6           0       -1.995048    0.815496    0.000420
 ---------------------------------------------------------------------
                    Distance matrix (angstroms):
                    1          2          3          4          5
     1  C    0.000000
     2  H    1.084156   0.000000
     3  H    1.081479   1.866267   0.000000
     4  C    1.339668   2.091608   2.121783   0.000000
     5  C    2.629031   3.121635   3.469344   1.347897   0.000000
     6  H    3.519950   3.776853   4.455352   2.355127   1.083874
     7  C    2.748573   3.613162   3.194862   1.526422   1.379582
     8  C    3.832585   4.801586   4.001254   2.771544   2.620434
                    6          7          8
     6  H    0.000000
     7  C    2.324045   0.000000
     8  C    3.387330   1.322210   0.000000
 Stoichiometry    C5H3(1+)
 Framework group  CS[SG(C5H3)]
 Deg. of freedom    13
 Full point group                 CS      NOp   2
 Largest Abelian subgroup         CS      NOp   2
 Largest concise Abelian subgroup C1      NOp   1
                         Standard orientation:                         
 ---------------------------------------------------------------------
 Center     Atomic      Atomic             Coordinates (Angstroms)
 Number     Number       Type             X           Y           Z
 ---------------------------------------------------------------------
      1          6           0       -0.782661    1.715026   -0.000000
      2          1           0       -0.318783    2.694931    0.000000
      3          1           0       -1.861888    1.645273   -0.000000
      4          6           0       -0.000000    0.627758    0.000000
      5          6           0        1.163861   -0.052135    0.000000
      6          1           0        2.247468   -0.076166    0.000000
      7          6           0        0.073171   -0.896909   -0.000000
      8          6           0       -0.465504   -2.104413   -0.000000
 ---------------------------------------------------------------------
 Rotational constants (GHZ):     15.0006318      4.4374641      3.4244488
 Leave Link  202 at Tue Jul 19 14:17:32 2016, MaxMem=    33554432 cpu:         0.0
 (Enter /home/proyectos/fulerenos/M3C-v2.0/M3C-deps_CCC/g09-AM64L-G09RevC.01/l301.exe)
 Standard basis: 6-311++G(3df,2p) (5D, 7F)
 Ernie: Thresh=  0.10000D-02 Tol=  0.10000D-05 Strict=F.
 There are   179 symmetry adapted cartesian basis functions of A'  symmetry.
 There are    76 symmetry adapted cartesian basis functions of A"  symmetry.
 There are   154 symmetry adapted basis functions of A'  symmetry.
 There are    71 symmetry adapted basis functions of A"  symmetry.
   225 basis functions,   326 primitive gaussians,   255 cartesian basis functions
    16 alpha electrons       16 beta electrons
       nuclear repulsion energy       124.5061146273 Hartrees.
 IExCor=  402 DFT=T Ex+Corr=B3LYP ExCW=0 ScaHFX=  0.200000
 ScaDFX=  0.800000  0.720000  1.000000  0.810000 ScalE2=  1.000000  1.000000
 IRadAn=      0 IRanWt=     -1 IRanGd=            0 ICorTp=0 IEmpDi=  4
 NAtoms=    8 NActive=    8 NUniq=    8 SFac= 1.00D+00 NAtFMM=   60 NAOKFM=F Big=F
 Integral buffers will be    131072 words long.
 Raffenetti 2 integral format.
 Two-electron integral symmetry is turned on.
 Leave Link  301 at Tue Jul 19 14:17:32 2016, MaxMem=    33554432 cpu:         0.3
 (Enter /home/proyectos/fulerenos/M3C-v2.0/M3C-deps_CCC/g09-AM64L-G09RevC.01/l302.exe)
 NPDir=0 NMtPBC=     1 NCelOv=     1 NCel=       1 NClECP=     1 NCelD=      1
         NCelK=      1 NCelE2=     1 NClLst=     1 CellRange=     0.0.
 One-electron integrals computed using PRISM.
 NBasis=   225 RedAO= T EigKep=  3.87D-06  NBF=   154    71
 NBsUse=   225 1.00D-06 EigRej= -1.00D+00 NBFU=   154    71
 Precomputing XC quadrature grid using
 IXCGrd= 4 IRadAn=           0 IRanWt=          -1 IRanGd=           0 AccXCQ= 0.00D+00.
 Generated NRdTot=       0 NPtTot=           0 NUsed=           0 NTot=          32
 NSgBfM=   255   255   255   255   255 MxSgAt=     8 MxSgA2=     8.
 Leave Link  302 at Tue Jul 19 14:17:33 2016, MaxMem=    33554432 cpu:         0.6
 (Enter /home/proyectos/fulerenos/M3C-v2.0/M3C-deps_CCC/g09-AM64L-G09RevC.01/l303.exe)
 DipDrv:  MaxL=1.
 Leave Link  303 at Tue Jul 19 14:17:33 2016, MaxMem=    33554432 cpu:         0.2
 (Enter /home/proyectos/fulerenos/M3C-v2.0/M3C-deps_CCC/g09-AM64L-G09RevC.01/l401.exe)
 ExpMin= 3.60D-02 ExpMax= 4.56D+03 ExpMxC= 6.82D+02 IAcc=3 IRadAn=         5 AccDes= 0.00D+00
 Harris functional with IExCor=  402 and IRadAn=       5 diagonalized for initial guess.
 HarFok:  IExCor=  402 AccDes= 0.00D+00 IRadAn=         5 IDoV= 1 UseB2=F ITyADJ=14
 ICtDFT=  3500011 ScaDFX=  1.000000  1.000000  1.000000  1.000000
 FoFCou: FMM=F IPFlag=           0 FMFlag=      100000 FMFlg1=           0
         NFxFlg=           0 DoJE=T BraDBF=F KetDBF=T FulRan=T
         wScrn=  0.000000 ICntrl=     500 IOpCl=  0 I1Cent=   200000004 NGrid=           0
         NMat0=    1 NMatS0=      1 NMatT0=    0 NMatD0=    1 NMtDS0=    0 NMtDT0=    0
 Petite list used in FoFCou.
 Harris En= -191.889750786061    
 JPrj=0 DoOrth=F DoCkMO=F.
 Initial guess orbital symmetries:
       Occupied  (A') (A') (A') (A') (A') (A') (A') (A') (A') (A')
                 (A') (A') (A") (A') (A') (A")
       Virtual   (A") (A') (A") (A") (A') (A') (A') (A') (A') (A")
                 (A') (A') (A') (A") (A") (A') (A') (A') (A') (A')
                 (A") (A') (A") (A') (A') (A') (A') (A') (A') (A')
                 (A') (A') (A") (A') (A') (A") (A') (A') (A") (A')
                 (A') (A') (A') (A") (A") (A') (A') (A") (A') (A')
                 (A") (A") (A') (A") (A') (A') (A") (A') (A') (A')
                 (A') (A') (A') (A") (A') (A") (A') (A") (A") (A')
                 (A') (A") (A") (A') (A') (A') (A") (A') (A') (A")
                 (A') (A') (A') (A') (A') (A') (A') (A') (A') (A')
                 (A") (A') (A") (A') (A") (A') (A") (A") (A') (A')
                 (A") (A") (A') (A') (A') (A") (A') (A') (A') (A')
                 (A") (A') (A") (A') (A") (A') (A") (A') (A') (A')
                 (A") (A") (A') (A') (A") (A') (A') (A") (A') (A")
                 (A") (A') (A") (A') (A") (A') (A') (A") (A') (A')
                 (A") (A') (A") (A') (A') (A") (A') (A') (A") (A')
                 (A') (A') (A') (A') (A') (A") (A') (A') (A") (A")
                 (A') (A') (A') (A") (A") (A') (A") (A') (A') (A')
                 (A') (A") (A') (A") (A') (A') (A') (A') (A') (A")
                 (A') (A") (A') (A") (A") (A') (A') (A") (A") (A')
                 (A") (A") (A') (A') (A') (A") (A') (A") (A') (A')
                 (A') (A') (A') (A') (A') (A') (A') (A') (A')
 The electronic state of the initial guess is 1-A'.
 Leave Link  401 at Tue Jul 19 14:17:41 2016, MaxMem=    33554432 cpu:         6.9
 (Enter /home/proyectos/fulerenos/M3C-v2.0/M3C-deps_CCC/g09-AM64L-G09RevC.01/l502.exe)
 Closed shell SCF:
 Using DIIS extrapolation, IDIIS=  1040.
 Integral symmetry usage will be decided dynamically.
 IVT=      217056 IEndB=      217056 NGot=    33554432 MDV=    33419297
 LenX=    33419297 LenY=    33353831
 Requested convergence on RMS density matrix=1.00D-08 within 128 cycles.
 Requested convergence on MAX density matrix=1.00D-06.
 Requested convergence on             energy=1.00D-06.
 No special actions if energy rises.
 Fock matrices will be formed incrementally for  20 cycles.

 Cycle   1  Pass 1  IDiag  1:
 FoFJK:  IHMeth= 1 ICntrl=       0 DoSepK=F KAlg= 0 I1Cent=   0 FoldK=F
 IRaf= 980000000 NMat=   1 IRICut=       1 DoRegI=T DoRafI=F ISym2E= 1.
 FoFCou: FMM=F IPFlag=           0 FMFlag=      100000 FMFlg1=           0
         NFxFlg=           0 DoJE=F BraDBF=F KetDBF=F FulRan=T
         wScrn=  0.000000 ICntrl=       0 IOpCl=  0 I1Cent=           0 NGrid=           0
         NMat0=    1 NMatS0=      1 NMatT0=    0 NMatD0=    1 NMtDS0=    0 NMtDT0=    0
 Petite list used in FoFCou.
 E= -191.746596980323    
 DIIS: error= 2.20D-02 at cycle   1 NSaved=   1.
 NSaved= 1 IEnMin= 1 EnMin= -191.746596980323     IErMin= 1 ErrMin= 2.20D-02
 ErrMax= 2.20D-02  0.00D+00 EMaxC= 1.00D-01 BMatC= 7.72D-02 BMatP= 7.72D-02
 IDIUse=3 WtCom= 7.80D-01 WtEn= 2.20D-01
 Coeff-Com:  0.100D+01
 Coeff-En:   0.100D+01
 Coeff:      0.100D+01
 Gap=     0.057 Goal=   None    Shift=    0.000
 GapD=    0.057 DampG=0.500 DampE=0.500 DampFc=0.2500 IDamp=-1.
 Damping current iteration by 2.50D-01
 RMSDP=5.19D-03 MaxDP=1.43D-01              OVMax= 5.83D-01

 Cycle   2  Pass 1  IDiag  1:
 RMSU=  1.28D-03    CP:  1.01D+00
 E= -191.762934323540     Delta-E=       -0.016337343217 Rises=F Damp=T
 DIIS: error= 9.10D-03 at cycle   2 NSaved=   2.
 NSaved= 2 IEnMin= 2 EnMin= -191.762934323540     IErMin= 2 ErrMin= 9.10D-03
 ErrMax= 9.10D-03  0.00D+00 EMaxC= 1.00D-01 BMatC= 2.04D-02 BMatP= 7.72D-02
 IDIUse=3 WtCom= 9.09D-01 WtEn= 9.10D-02
 Coeff-Com: -0.207D+00 0.121D+01
 Coeff-En:   0.282D+00 0.718D+00
 Coeff:     -0.163D+00 0.116D+01
 Gap=     0.046 Goal=   None    Shift=    0.000
 RMSDP=3.00D-03 MaxDP=2.03D-01 DE=-1.63D-02 OVMax= 6.08D-01

 Cycle   3  Pass 1  IDiag  1:
 RMSU=  2.99D-03    CP:  1.01D+00  1.18D+00
 E= -191.751411561547     Delta-E=        0.011522761993 Rises=F Damp=F
 DIIS: error= 3.14D-02 at cycle   3 NSaved=   3.
 NSaved= 3 IEnMin= 2 EnMin= -191.762934323540     IErMin= 2 ErrMin= 9.10D-03
 ErrMax= 3.14D-02  0.00D+00 EMaxC= 1.00D-01 BMatC= 4.60D-02 BMatP= 2.04D-02
 IDIUse=2 WtCom= 0.00D+00 WtEn= 1.00D+00
 Coeff-En:   0.000D+00 0.576D+00 0.424D+00
 Coeff:      0.000D+00 0.576D+00 0.424D+00
 Gap=     0.086 Goal=   None    Shift=    0.000
 RMSDP=3.54D-03 MaxDP=1.78D-01 DE= 1.15D-02 OVMax= 4.14D-01

 Cycle   4  Pass 1  IDiag  1:
 RMSU=  1.05D-03    CP:  1.01D+00  2.72D+00  8.58D-02
 E= -191.706629124629     Delta-E=        0.044782436917 Rises=F Damp=F
 DIIS: error= 4.12D-02 at cycle   4 NSaved=   4.
 NSaved= 4 IEnMin= 2 EnMin= -191.762934323540     IErMin= 2 ErrMin= 9.10D-03
 ErrMax= 4.12D-02  0.00D+00 EMaxC= 1.00D-01 BMatC= 8.17D-02 BMatP= 2.04D-02
 IDIUse=2 WtCom= 0.00D+00 WtEn= 1.00D+00
 Coeff-En:   0.000D+00 0.000D+00 0.583D+00 0.417D+00
 Coeff:      0.000D+00 0.000D+00 0.583D+00 0.417D+00
 Gap=     0.099 Goal=   None    Shift=    0.000
 RMSDP=1.48D-03 MaxDP=3.92D-02 DE= 4.48D-02 OVMax= 2.46D-01

 Cycle   5  Pass 1  IDiag  1:
 RMSU=  4.95D-04    CP:  9.94D-01  1.75D+00  2.50D-01  1.09D+00
 E= -191.814264107412     Delta-E=       -0.107634982783 Rises=F Damp=F
 DIIS: error= 4.99D-03 at cycle   5 NSaved=   5.
 NSaved= 5 IEnMin= 5 EnMin= -191.814264107412     IErMin= 5 ErrMin= 4.99D-03
 ErrMax= 4.99D-03  0.00D+00 EMaxC= 1.00D-01 BMatC= 4.28D-03 BMatP= 2.04D-02
 IDIUse=3 WtCom= 9.50D-01 WtEn= 4.99D-02
 Coeff-Com: -0.380D+00 0.553D+00 0.278D+00-0.767D-01 0.627D+00
 Coeff-En:   0.000D+00 0.000D+00 0.475D-02 0.000D+00 0.995D+00
 Coeff:     -0.361D+00 0.525D+00 0.264D+00-0.728D-01 0.645D+00
 Gap=     0.108 Goal=   None    Shift=    0.000
 RMSDP=5.13D-04 MaxDP=2.16D-02 DE=-1.08D-01 OVMax= 3.05D-02

 Cycle   6  Pass 1  IDiag  1:
 RMSU=  3.39D-04    CP:  9.91D-01  1.78D+00  3.24D-01  8.14D-01  8.44D-01
 E= -191.817618344685     Delta-E=       -0.003354237273 Rises=F Damp=F
 DIIS: error= 2.61D-03 at cycle   6 NSaved=   6.
 NSaved= 6 IEnMin= 6 EnMin= -191.817618344685     IErMin= 6 ErrMin= 2.61D-03
 ErrMax= 2.61D-03  0.00D+00 EMaxC= 1.00D-01 BMatC= 9.26D-04 BMatP= 4.28D-03
 IDIUse=3 WtCom= 9.74D-01 WtEn= 2.61D-02
 Coeff-Com: -0.310D+00 0.430D+00 0.160D+00-0.112D+00 0.496D+00 0.337D+00
 Coeff-En:   0.000D+00 0.000D+00 0.000D+00 0.000D+00 0.939D-01 0.906D+00
 Coeff:     -0.302D+00 0.419D+00 0.155D+00-0.109D+00 0.485D+00 0.352D+00
 Gap=     0.108 Goal=   None    Shift=    0.000
 RMSDP=1.87D-04 MaxDP=1.01D-02 DE=-3.35D-03 OVMax= 1.35D-02

 Cycle   7  Pass 1  IDiag  1:
 RMSU=  1.00D-04    CP:  9.94D-01  1.78D+00  3.23D-01  7.95D-01  1.02D+00
                    CP:  7.11D-01
 E= -191.818490273401     Delta-E=       -0.000871928716 Rises=F Damp=F
 DIIS: error= 4.88D-04 at cycle   7 NSaved=   7.
 NSaved= 7 IEnMin= 7 EnMin= -191.818490273401     IErMin= 7 ErrMin= 4.88D-04
 ErrMax= 4.88D-04  0.00D+00 EMaxC= 1.00D-01 BMatC= 4.12D-05 BMatP= 9.26D-04
 IDIUse=3 WtCom= 9.95D-01 WtEn= 4.88D-03
 Coeff-Com: -0.118D+00 0.164D+00 0.414D-01-0.523D-01 0.164D+00-0.321D-01
 Coeff-Com:  0.833D+00
 Coeff-En:   0.000D+00 0.000D+00 0.000D+00 0.000D+00 0.000D+00 0.000D+00
 Coeff-En:   0.100D+01
 Coeff:     -0.117D+00 0.163D+00 0.412D-01-0.520D-01 0.163D+00-0.320D-01
 Coeff:      0.834D+00
 Gap=     0.109 Goal=   None    Shift=    0.000
 RMSDP=5.79D-05 MaxDP=2.28D-03 DE=-8.72D-04 OVMax= 2.55D-03

 Cycle   8  Pass 1  IDiag  1:
 RMSU=  4.83D-05    CP:  9.94D-01  1.79D+00  3.23D-01  7.97D-01  1.08D+00
                    CP:  6.91D-01  1.08D+00
 E= -191.818505815331     Delta-E=       -0.000015541930 Rises=F Damp=F
 DIIS: error= 3.58D-04 at cycle   8 NSaved=   8.
 NSaved= 8 IEnMin= 8 EnMin= -191.818505815331     IErMin= 8 ErrMin= 3.58D-04
 ErrMax= 3.58D-04  0.00D+00 EMaxC= 1.00D-01 BMatC= 2.47D-05 BMatP= 4.12D-05
 IDIUse=3 WtCom= 9.96D-01 WtEn= 3.58D-03
 Coeff-Com:  0.413D-03-0.116D-02-0.837D-02-0.320D-02-0.613D-02-0.185D+00
 Coeff-Com:  0.606D+00 0.597D+00
 Coeff-En:   0.000D+00 0.000D+00 0.000D+00 0.000D+00 0.000D+00 0.000D+00
 Coeff-En:   0.178D+00 0.822D+00
 Coeff:      0.411D-03-0.116D-02-0.834D-02-0.319D-02-0.611D-02-0.184D+00
 Coeff:      0.605D+00 0.597D+00
 Gap=     0.109 Goal=   None    Shift=    0.000
 RMSDP=4.73D-05 MaxDP=2.45D-03 DE=-1.55D-05 OVMax= 1.81D-03

 Cycle   9  Pass 1  IDiag  1:
 RMSU=  2.00D-05    CP:  9.93D-01  1.78D+00  3.16D-01  8.01D-01  1.12D+00
                    CP:  6.70D-01  1.36D+00  7.67D-01
 E= -191.818529780602     Delta-E=       -0.000023965271 Rises=F Damp=F
 DIIS: error= 1.41D-04 at cycle   9 NSaved=   9.
 NSaved= 9 IEnMin= 9 EnMin= -191.818529780602     IErMin= 9 ErrMin= 1.41D-04
 ErrMax= 1.41D-04  0.00D+00 EMaxC= 1.00D-01 BMatC= 1.06D-06 BMatP= 2.47D-05
 IDIUse=3 WtCom= 9.99D-01 WtEn= 1.41D-03
 Coeff-Com: -0.697D-03 0.805D-03 0.291D-03-0.219D-02 0.289D-02-0.428D-01
 Coeff-Com:  0.894D-01 0.931D-01 0.859D+00
 Coeff-En:   0.000D+00 0.000D+00 0.000D+00 0.000D+00 0.000D+00 0.000D+00
 Coeff-En:   0.000D+00 0.000D+00 0.100D+01
 Coeff:     -0.696D-03 0.804D-03 0.291D-03-0.218D-02 0.288D-02-0.427D-01
 Coeff:      0.893D-01 0.930D-01 0.859D+00
 Gap=     0.109 Goal=   None    Shift=    0.000
 RMSDP=1.25D-05 MaxDP=6.05D-04 DE=-2.40D-05 OVMax= 5.64D-04

 Cycle  10  Pass 1  IDiag  1:
 RMSU=  5.94D-06    CP:  9.93D-01  1.78D+00  3.18D-01  8.00D-01  1.12D+00
                    CP:  6.63D-01  1.39D+00  7.99D-01  1.08D+00
 E= -191.818531174973     Delta-E=       -0.000001394371 Rises=F Damp=F
 DIIS: error= 2.52D-05 at cycle  10 NSaved=  10.
 NSaved=10 IEnMin=10 EnMin= -191.818531174973     IErMin=10 ErrMin= 2.52D-05
 ErrMax= 2.52D-05  0.00D+00 EMaxC= 1.00D-01 BMatC= 6.35D-08 BMatP= 1.06D-06
 IDIUse=1 WtCom= 1.00D+00 WtEn= 0.00D+00
 Coeff-Com:  0.740D-03-0.880D-03 0.284D-03-0.236D-03-0.649D-03-0.122D-02
 Coeff-Com: -0.233D-01-0.283D-01 0.175D+00 0.879D+00
 Coeff:      0.740D-03-0.880D-03 0.284D-03-0.236D-03-0.649D-03-0.122D-02
 Coeff:     -0.233D-01-0.283D-01 0.175D+00 0.879D+00
 Gap=     0.109 Goal=   None    Shift=    0.000
 RMSDP=3.79D-06 MaxDP=2.02D-04 DE=-1.39D-06 OVMax= 1.26D-04

 Cycle  11  Pass 1  IDiag  1:
 RMSU=  1.57D-06    CP:  9.93D-01  1.78D+00  3.18D-01  8.00D-01  1.12D+00
                    CP:  6.61D-01  1.40D+00  8.18D-01  1.16D+00  1.01D+00
 E= -191.818531245184     Delta-E=       -0.000000070211 Rises=F Damp=F
 DIIS: error= 6.37D-06 at cycle  11 NSaved=  11.
 NSaved=11 IEnMin=11 EnMin= -191.818531245184     IErMin=11 ErrMin= 6.37D-06
 ErrMax= 6.37D-06  0.00D+00 EMaxC= 1.00D-01 BMatC= 2.56D-09 BMatP= 6.35D-08
 IDIUse=1 WtCom= 1.00D+00 WtEn= 0.00D+00
 Coeff-Com:  0.124D-03-0.178D-03 0.168D-03-0.218D-05 0.441D-05 0.645D-03
 Coeff-Com: -0.483D-02-0.743D-02-0.116D-01 0.187D+00 0.836D+00
 Coeff:      0.124D-03-0.178D-03 0.168D-03-0.218D-05 0.441D-05 0.645D-03
 Coeff:     -0.483D-02-0.743D-02-0.116D-01 0.187D+00 0.836D+00
 Gap=     0.109 Goal=   None    Shift=    0.000
 RMSDP=6.34D-07 MaxDP=2.86D-05 DE=-7.02D-08 OVMax= 2.18D-05

 Cycle  12  Pass 1  IDiag  1:
 RMSU=  3.53D-07    CP:  9.93D-01  1.78D+00  3.18D-01  8.00D-01  1.13D+00
                    CP:  6.61D-01  1.40D+00  8.19D-01  1.17D+00  1.05D+00
                    CP:  1.11D+00
 E= -191.818531248224     Delta-E=       -0.000000003040 Rises=F Damp=F
 DIIS: error= 2.84D-06 at cycle  12 NSaved=  12.
 NSaved=12 IEnMin=12 EnMin= -191.818531248224     IErMin=12 ErrMin= 2.84D-06
 ErrMax= 2.84D-06  0.00D+00 EMaxC= 1.00D-01 BMatC= 4.24D-10 BMatP= 2.56D-09
 IDIUse=1 WtCom= 1.00D+00 WtEn= 0.00D+00
 Coeff-Com:  0.456D-04-0.682D-04 0.138D-04 0.104D-04-0.218D-04-0.432D-04
 Coeff-Com:  0.125D-02 0.117D-02-0.143D-01-0.211D-01 0.932D-01 0.940D+00
 Coeff:      0.456D-04-0.682D-04 0.138D-04 0.104D-04-0.218D-04-0.432D-04
 Coeff:      0.125D-02 0.117D-02-0.143D-01-0.211D-01 0.932D-01 0.940D+00
 Gap=     0.109 Goal=   None    Shift=    0.000
 RMSDP=2.09D-07 MaxDP=1.27D-05 DE=-3.04D-09 OVMax= 1.07D-05

 Cycle  13  Pass 1  IDiag  1:
 RMSU=  8.51D-08    CP:  9.93D-01  1.78D+00  3.18D-01  8.00D-01  1.13D+00
                    CP:  6.61D-01  1.40D+00  8.19D-01  1.17D+00  1.05D+00
                    CP:  1.15D+00  1.05D+00
 E= -191.818531248812     Delta-E=       -0.000000000587 Rises=F Damp=F
 DIIS: error= 6.29D-07 at cycle  13 NSaved=  13.
 NSaved=13 IEnMin=13 EnMin= -191.818531248812     IErMin=13 ErrMin= 6.29D-07
 ErrMax= 6.29D-07  0.00D+00 EMaxC= 1.00D-01 BMatC= 2.13D-11 BMatP= 4.24D-10
 IDIUse=1 WtCom= 1.00D+00 WtEn= 0.00D+00
 Coeff-Com:  0.107D-04-0.158D-04-0.558D-06 0.115D-05-0.863D-06-0.292D-04
 Coeff-Com:  0.735D-03 0.819D-03-0.453D-02-0.177D-01-0.248D-01 0.278D+00
 Coeff-Com:  0.768D+00
 Coeff:      0.107D-04-0.158D-04-0.558D-06 0.115D-05-0.863D-06-0.292D-04
 Coeff:      0.735D-03 0.819D-03-0.453D-02-0.177D-01-0.248D-01 0.278D+00
 Coeff:      0.768D+00
 Gap=     0.109 Goal=   None    Shift=    0.000
 RMSDP=6.49D-08 MaxDP=2.97D-06 DE=-5.87D-10 OVMax= 2.30D-06

 Cycle  14  Pass 1  IDiag  1:
 RMSU=  1.88D-08    CP:  9.93D-01  1.78D+00  3.18D-01  8.00D-01  1.13D+00
                    CP:  6.60D-01  1.40D+00  8.19D-01  1.17D+00  1.05D+00
                    CP:  1.17D+00  1.13D+00  8.68D-01
 E= -191.818531248836     Delta-E=       -0.000000000024 Rises=F Damp=F
 DIIS: error= 6.36D-08 at cycle  14 NSaved=  14.
 NSaved=14 IEnMin=14 EnMin= -191.818531248836     IErMin=14 ErrMin= 6.36D-08
 ErrMax= 6.36D-08  0.00D+00 EMaxC= 1.00D-01 BMatC= 4.50D-13 BMatP= 2.13D-11
 IDIUse=1 WtCom= 1.00D+00 WtEn= 0.00D+00
 Coeff-Com: -0.147D-05 0.177D-05 0.602D-06-0.107D-05 0.609D-05 0.169D-05
 Coeff-Com:  0.775D-04 0.710D-04 0.141D-03-0.157D-02-0.106D-01-0.166D-01
 Coeff-Com:  0.125D+00 0.904D+00
 Coeff:     -0.147D-05 0.177D-05 0.602D-06-0.107D-05 0.609D-05 0.169D-05
 Coeff:      0.775D-04 0.710D-04 0.141D-03-0.157D-02-0.106D-01-0.166D-01
 Coeff:      0.125D+00 0.904D+00
 Gap=     0.109 Goal=   None    Shift=    0.000
 RMSDP=9.70D-09 MaxDP=4.92D-07 DE=-2.43D-11 OVMax= 4.12D-07

 SCF Done:  E(RB3LYP) =  -191.818531249     A.U. after   14 cycles
            NFock= 14  Conv=0.97D-08     -V/T= 2.0046
 KE= 1.909408871049D+02 PE=-6.857331768105D+02 EE= 1.784676438295D+02
 Leave Link  502 at Tue Jul 19 14:24:38 2016, MaxMem=    33554432 cpu:       416.2
 (Enter /home/proyectos/fulerenos/M3C-v2.0/M3C-deps_CCC/g09-AM64L-G09RevC.01/l801.exe)
 DoSCS=F DFT=T ScalE2(SS,OS)=  1.000000  1.000000
 Range of M.O.s used for correlation:     1   225
 NBasis=   225 NAE=    16 NBE=    16 NFC=     0 NFV=     0
 NROrb=    225 NOA=    16 NOB=    16 NVA=   209 NVB=   209

 **** Warning!!: The largest alpha MO coefficient is  0.20594964D+03

 Leave Link  801 at Tue Jul 19 14:24:39 2016, MaxMem=    33554432 cpu:         0.1
 (Enter /home/proyectos/fulerenos/M3C-v2.0/M3C-deps_CCC/g09-AM64L-G09RevC.01/l1101.exe)
 Using compressed storage, NAtomX=     8.
 Will process      9 centers per pass.
 Leave Link 1101 at Tue Jul 19 14:24:39 2016, MaxMem=    33554432 cpu:         0.7
 (Enter /home/proyectos/fulerenos/M3C-v2.0/M3C-deps_CCC/g09-AM64L-G09RevC.01/l1102.exe)
 Symmetrizing basis deriv contribution to polar:
 IMax=3 JMax=2 DiffMx= 0.00D+00
 Leave Link 1102 at Tue Jul 19 14:24:40 2016, MaxMem=    33554432 cpu:         0.1
 (Enter /home/proyectos/fulerenos/M3C-v2.0/M3C-deps_CCC/g09-AM64L-G09RevC.01/l1110.exe)
 Forming Gx(P) for the SCF density, NAtomX=     8.
 Integral derivatives from FoFJK, PRISM(SPDF).
 Do as many integral derivatives as possible in FoFJK.
 G2DrvN: MDV=      33554264.
 G2DrvN: will do     9 centers at a time, making    1 passes.
 Calling FoFCou, ICntrl=  3107 FMM=F I1Cent=   0 AccDes= 0.00D+00.
 FoFJK:  IHMeth= 1 ICntrl=    3107 DoSepK=F KAlg= 0 I1Cent=   0 FoldK=F
 IRaf=         0 NMat=   1 IRICut=       1 DoRegI=T DoRafI=F ISym2E= 1.
 FoFCou: FMM=F IPFlag=           0 FMFlag=      100000 FMFlg1=           0
         NFxFlg=           0 DoJE=F BraDBF=F KetDBF=F FulRan=T
         wScrn=  0.000000 ICntrl=    3107 IOpCl=  0 I1Cent=           0 NGrid=           0
         NMat0=    1 NMatS0=      1 NMatT0=    0 NMatD0=    1 NMtDS0=    0 NMtDT0=    0
 Petite list used in FoFCou.
 End of G2Drv F.D. properties file   721 does not exist.
 End of G2Drv F.D. properties file   722 does not exist.
 End of G2Drv F.D. properties file   788 does not exist.
 Leave Link 1110 at Tue Jul 19 14:31:56 2016, MaxMem=    33554432 cpu:       436.4
 (Enter /home/proyectos/fulerenos/M3C-v2.0/M3C-deps_CCC/g09-AM64L-G09RevC.01/l1002.exe)
 Minotr:  Closed shell wavefunction.
          IDoAtm=11111111
          Direct CPHF calculation.
          Differentiating once with respect to electric field.
                with respect to dipole field.
          Differentiating once with respect to nuclear coordinates.
          Using symmetry in CPHF.
          Requested convergence is 1.0D-08 RMS, and 1.0D-07 maximum.
          Secondary convergence is 1.0D-12 RMS, and 1.0D-12 maximum.
          NewPWx=T KeepS1=F KeepF1=F KeepIn=T MapXYZ=F SortEE=F KeepMc=T.
          MDV=      33554123 using IRadAn=       2.
 Generate precomputed XC quadrature information.
          Solving linear equations simultaneously, MaxMat=       0.
 FoFJK:  IHMeth= 1 ICntrl=       0 DoSepK=F KAlg= 0 I1Cent=   0 FoldK=F
 IRaf= 980000000 NMat=  27 IRICut=      67 DoRegI=T DoRafI=T ISym2E= 2.
 FoFCou: FMM=F IPFlag=           0 FMFlag=      100000 FMFlg1=           0
         NFxFlg=           0 DoJE=F BraDBF=F KetDBF=F FulRan=T
         wScrn=  0.000000 ICntrl=       0 IOpCl=  0 I1Cent=           0 NGrid=           0
         NMat0=   27 NMatS0=     27 NMatT0=    0 NMatD0=   27 NMtDS0=    0 NMtDT0=    0
 Integrals replicated using symmetry in FoFCou.
          There are    27 degrees of freedom in the 1st order CPHF.  IDoFFX=6 NUNeed=     3.
     24 vectors produced by pass  0 Test12= 1.24D-14 3.70D-09 XBig12= 4.62D+02 1.95D+01.
 AX will form    24 AO Fock derivatives at one time.
     24 vectors produced by pass  1 Test12= 1.24D-14 3.70D-09 XBig12= 1.44D+02 3.51D+00.
     24 vectors produced by pass  2 Test12= 1.24D-14 3.70D-09 XBig12= 2.41D+00 2.80D-01.
     24 vectors produced by pass  3 Test12= 1.24D-14 3.70D-09 XBig12= 1.04D-02 1.83D-02.
     24 vectors produced by pass  4 Test12= 1.24D-14 3.70D-09 XBig12= 2.12D-05 6.81D-04.
     24 vectors produced by pass  5 Test12= 1.24D-14 3.70D-09 XBig12= 3.65D-08 2.89D-05.
      6 vectors produced by pass  6 Test12= 1.24D-14 3.70D-09 XBig12= 4.50D-11 9.48D-07.
      3 vectors produced by pass  7 Test12= 1.24D-14 3.70D-09 XBig12= 4.32D-13 1.87D-07.
      3 vectors produced by pass  8 Test12= 1.24D-14 3.70D-09 XBig12= 3.92D-14 4.32D-08.
      1 vectors produced by pass  9 Test12= 1.24D-14 3.70D-09 XBig12= 4.11D-16 6.05D-09.
 InvSVY:  IOpt=1 It=  1 EMax= 3.55D-15
 Solved reduced A of dimension   157 with    27 vectors.
 FullF1:  Do perturbations    1 to     3.
 Isotropic polarizability for W=    0.000000       57.39 Bohr**3.
 End of Minotr F.D. properties file   721 does not exist.
 End of Minotr F.D. properties file   722 does not exist.
 End of Minotr F.D. properties file   788 does not exist.
 Leave Link 1002 at Tue Jul 19 14:45:50 2016, MaxMem=    33554432 cpu:       832.3
 (Enter /home/proyectos/fulerenos/M3C-v2.0/M3C-deps_CCC/g09-AM64L-G09RevC.01/l601.exe)
 Copying SCF densities to generalized density rwf, IOpCl= 0 IROHF=0.

 **********************************************************************

            Population analysis using the SCF density.

 **********************************************************************

 Orbital symmetries:
       Occupied  (A') (A') (A') (A') (A') (A') (A') (A') (A') (A')
                 (A') (A') (A") (A') (A') (A")
       Virtual   (A") (A') (A") (A") (A') (A') (A') (A') (A') (A")
                 (A') (A') (A") (A') (A") (A') (A') (A') (A') (A')
                 (A") (A") (A') (A') (A') (A') (A') (A') (A') (A')
                 (A') (A") (A') (A') (A") (A') (A') (A') (A") (A')
                 (A') (A') (A") (A") (A') (A') (A') (A") (A") (A')
                 (A") (A') (A') (A") (A') (A') (A") (A') (A') (A')
                 (A') (A') (A") (A') (A") (A') (A") (A') (A") (A')
                 (A') (A") (A") (A') (A') (A') (A") (A') (A") (A')
                 (A') (A') (A') (A') (A') (A') (A') (A') (A') (A')
                 (A") (A") (A') (A') (A") (A') (A") (A") (A') (A')
                 (A") (A") (A') (A') (A') (A") (A') (A') (A') (A")
                 (A') (A') (A") (A') (A") (A') (A') (A") (A') (A')
                 (A") (A") (A') (A') (A") (A') (A') (A") (A') (A")
                 (A") (A') (A") (A') (A") (A') (A') (A") (A') (A')
                 (A") (A') (A') (A") (A') (A") (A') (A') (A") (A')
                 (A') (A') (A') (A') (A') (A") (A') (A') (A") (A")
                 (A') (A') (A') (A") (A") (A') (A") (A') (A') (A')
                 (A') (A") (A") (A') (A') (A') (A') (A') (A') (A")
                 (A') (A") (A') (A") (A") (A') (A') (A") (A') (A")
                 (A") (A") (A') (A') (A") (A') (A') (A") (A') (A')
                 (A') (A') (A') (A') (A') (A') (A') (A') (A')
 The electronic state is 1-A'.
 Alpha  occ. eigenvalues --  -10.52803 -10.50019 -10.49024 -10.45331 -10.45255
 Alpha  occ. eigenvalues --   -1.19018  -1.00348  -0.97087  -0.83543  -0.76000
 Alpha  occ. eigenvalues --   -0.71045  -0.66446  -0.66032  -0.59217  -0.52742
 Alpha  occ. eigenvalues --   -0.50202
 Alpha virt. eigenvalues --   -0.39270  -0.34234  -0.21358  -0.17287  -0.16022
 Alpha virt. eigenvalues --   -0.14061  -0.12309  -0.11221  -0.09775  -0.09629
 Alpha virt. eigenvalues --   -0.07924  -0.06948  -0.05525  -0.05084  -0.04665
 Alpha virt. eigenvalues --   -0.03601  -0.02443  -0.01686  -0.00460  -0.00125
 Alpha virt. eigenvalues --   -0.00075   0.01281   0.01613   0.01973   0.02721
 Alpha virt. eigenvalues --    0.04056   0.04926   0.06217   0.08132   0.09273
 Alpha virt. eigenvalues --    0.10182   0.10278   0.11364   0.16221   0.16363
 Alpha virt. eigenvalues --    0.17427   0.20147   0.20374   0.21233   0.23892
 Alpha virt. eigenvalues --    0.24332   0.24358   0.25157   0.27698   0.27947
 Alpha virt. eigenvalues --    0.28879   0.30735   0.33163   0.33999   0.35553
 Alpha virt. eigenvalues --    0.35688   0.36204   0.37042   0.37458   0.39259
 Alpha virt. eigenvalues --    0.39320   0.40170   0.42499   0.44150   0.46000
 Alpha virt. eigenvalues --    0.51423   0.52501   0.53967   0.56758   0.59442
 Alpha virt. eigenvalues --    0.60252   0.63355   0.63762   0.65843   0.67025
 Alpha virt. eigenvalues --    0.69424   0.70852   0.76887   0.78240   0.83475
 Alpha virt. eigenvalues --    0.85678   0.86717   0.88038   0.91115   0.92796
 Alpha virt. eigenvalues --    0.93320   0.96186   0.98122   1.03387   1.07028
 Alpha virt. eigenvalues --    1.09408   1.11954   1.15499   1.16064   1.18373
 Alpha virt. eigenvalues --    1.22544   1.24637   1.24690   1.27662   1.34743
 Alpha virt. eigenvalues --    1.35027   1.39824   1.40762   1.41592   1.45010
 Alpha virt. eigenvalues --    1.46404   1.51624   1.55219   1.64517   1.71370
 Alpha virt. eigenvalues --    1.72359   1.80100   1.86072   1.87626   1.95594
 Alpha virt. eigenvalues --    1.97460   2.04003   2.04729   2.13127   2.23494
 Alpha virt. eigenvalues --    2.30764   2.35252   2.37511   2.37584   2.44728
 Alpha virt. eigenvalues --    2.45106   2.47806   2.48870   2.52083   2.52748
 Alpha virt. eigenvalues --    2.55862   2.57544   2.58229   2.63039   2.63895
 Alpha virt. eigenvalues --    2.66331   2.69707   2.70204   2.72596   2.73991
 Alpha virt. eigenvalues --    2.77346   2.77664   2.86405   2.89528   2.94748
 Alpha virt. eigenvalues --    2.96082   3.01830   3.04590   3.04691   3.07763
 Alpha virt. eigenvalues --    3.09661   3.17471   3.21961   3.29022   3.30576
 Alpha virt. eigenvalues --    3.40509   3.41823   3.44812   3.58640   3.63154
 Alpha virt. eigenvalues --    3.69021   3.76905   3.81035   3.86865   3.96243
 Alpha virt. eigenvalues --    3.97664   4.00353   4.08728   4.09326   4.12509
 Alpha virt. eigenvalues --    4.21907   4.31951   4.35066   4.41972   4.51866
 Alpha virt. eigenvalues --    4.66388   4.94101   5.03076   5.03120   5.32661
 Alpha virt. eigenvalues --    5.38075   6.02388   6.13682   6.34459   6.69370
 Alpha virt. eigenvalues --    6.72624   6.77842   6.80922   6.81880   6.83735
 Alpha virt. eigenvalues --    6.89554   6.91071   6.94973   7.03054   7.03338
 Alpha virt. eigenvalues --    7.06134   7.08909   7.10699   7.13359   7.34028
 Alpha virt. eigenvalues --    7.35374   7.39393   7.45934   7.73987   7.75994
 Alpha virt. eigenvalues --    7.91799   8.15874   8.23409   8.49278  23.68941
 Alpha virt. eigenvalues --   24.52012  25.23812  25.52022  25.61807
          Condensed to atoms (all electrons):
               1          2          3          4          5          6
     1  C    9.794490   0.478193   0.474535  -0.318374  -1.126692  -0.012345
     2  H    0.478193   0.387371  -0.000524  -0.098388   0.009061  -0.000291
     3  H    0.474535  -0.000524   0.384397  -0.141887   0.008211   0.000627
     4  C   -0.318374  -0.098388  -0.141887   9.143974  -0.556485  -0.020722
     5  C   -1.126692   0.009061   0.008211  -0.556485   6.736259   0.300812
     6  H   -0.012345  -0.000291   0.000627  -0.020722   0.300812   0.418697
     7  C   -1.490897  -0.009503   0.022052   0.162514   0.613411   0.028989
     8  C   -1.496420  -0.009169   0.013738  -2.336979  -0.104831  -0.047325
               7          8
     1  C   -1.490897  -1.496420
     2  H   -0.009503  -0.009169
     3  H    0.022052   0.013738
     4  C    0.162514  -2.336979
     5  C    0.613411  -0.104831
     6  H    0.028989  -0.047325
     7  C    9.586716  -3.564840
     8  C   -3.564840  13.995153
 Mulliken charges:
               1
     1  C   -0.302490
     2  H    0.243252
     3  H    0.238850
     4  C    0.166346
     5  C    0.120254
     6  H    0.331558
     7  C    0.651557
     8  C   -0.449327
 Sum of Mulliken charges =   1.00000
 Mulliken charges with hydrogens summed into heavy atoms:
               1
     1  C    0.179612
     4  C    0.166346
     5  C    0.451811
     7  C    0.651557
     8  C   -0.449327
 APT charges:
               1
     1  C    0.248519
     2  H    0.156087
     3  H    0.155478
     4  C   -0.237053
     5  C    0.630757
     6  H    0.220675
     7  C   -0.703519
     8  C    0.529056
 Sum of APT charges =   1.00000
 APT charges with hydrogens summed into heavy atoms:
               1
     1  C    0.560083
     4  C   -0.237053
     5  C    0.851432
     7  C   -0.703519
     8  C    0.529056
 Electronic spatial extent (au):  <R**2>=            343.4194
 Charge=              1.0000 electrons
 Dipole moment (field-independent basis, Debye):
    X=              1.6112    Y=              2.7560    Z=              0.0000  Tot=              3.1924
 Quadrupole moment (field-independent basis, Debye-Ang):
   XX=            -16.4120   YY=            -18.7849   ZZ=            -27.2963
   XY=             -4.3921   XZ=              0.0000   YZ=             -0.0000
 Traceless Quadrupole moment (field-independent basis, Debye-Ang):
   XX=              4.4191   YY=              2.0461   ZZ=             -6.4653
   XY=             -4.3921   XZ=              0.0000   YZ=             -0.0000
 Octapole moment (field-independent basis, Debye-Ang**2):
  XXX=             11.3888  YYY=             33.0654  ZZZ=              0.0000  XYY=             -2.0312
  XXY=              7.0737  XXZ=              0.0000  XZZ=              1.1749  YZZ=              1.6328
  YYZ=              0.0000  XYZ=              0.0000
 Hexadecapole moment (field-independent basis, Debye-Ang**3):
 XXXX=            -69.6306 YYYY=           -307.3414 ZZZZ=            -28.3192 XXXY=              0.5428
 XXXZ=             -0.0000 YYYX=            -11.1923 YYYZ=             -0.0000 ZZZX=             -0.0000
 ZZZY=             -0.0000 XXYY=            -70.0839 XXZZ=            -24.4469 YYZZ=            -62.3906
 XXYZ=             -0.0000 YYXZ=             -0.0000 ZZXY=              4.3020
 N-N= 1.245061146273D+02 E-N=-6.857331777032D+02  KE= 1.909408871049D+02
 Symmetry A'   KE= 1.863641756168D+02
 Symmetry A"   KE= 4.576711488033D+00
  Exact polarizability:  47.652  -5.594  94.235  -0.000  -0.000  30.277
 Approx polarizability:  78.289  -9.642 268.161   0.000   0.000  45.304
 No NMR shielding tensors so no spin-rotation constants.
 Leave Link  601 at Tue Jul 19 14:45:51 2016, MaxMem=    33554432 cpu:         0.6
 (Enter /home/proyectos/fulerenos/M3C-v2.0/M3C-deps_CCC/g09-AM64L-G09RevC.01/l701.exe)
 Compute integral second derivatives.
 ... and contract with generalized density number  0.
 Leave Link  701 at Tue Jul 19 14:45:52 2016, MaxMem=    33554432 cpu:         1.2
 (Enter /home/proyectos/fulerenos/M3C-v2.0/M3C-deps_CCC/g09-AM64L-G09RevC.01/l702.exe)
 L702 exits ... SP integral derivatives will be done elsewhere.
 Leave Link  702 at Tue Jul 19 14:45:52 2016, MaxMem=    33554432 cpu:         0.1
 (Enter /home/proyectos/fulerenos/M3C-v2.0/M3C-deps_CCC/g09-AM64L-G09RevC.01/l703.exe)
 Compute integral second derivatives, UseDBF=F ICtDFT=           0.
 Integral derivatives from FoFJK, PRISM(SPDF).
 Calling FoFJK, ICntrl=    100127 FMM=F ISym2X=1 I1Cent= 0 IOpClX= 0 NMat=1 NMatS=1 NMatT=0.
 FoFJK:  IHMeth= 1 ICntrl=  100127 DoSepK=F KAlg= 0 I1Cent=   0 FoldK=F
 IRaf=         0 NMat=   1 IRICut=       1 DoRegI=T DoRafI=F ISym2E= 1.
 FoFCou: FMM=F IPFlag=           0 FMFlag=      100000 FMFlg1=         800
         NFxFlg=           0 DoJE=F BraDBF=F KetDBF=F FulRan=T
         wScrn=  0.000000 ICntrl=  100127 IOpCl=  0 I1Cent=           0 NGrid=           0
         NMat0=    1 NMatS0=      1 NMatT0=    0 NMatD0=    1 NMtDS0=    0 NMtDT0=    0
 Petite list used in FoFCou.
 Leave Link  703 at Tue Jul 19 15:02:56 2016, MaxMem=    33554432 cpu:      1023.4
 (Enter /home/proyectos/fulerenos/M3C-v2.0/M3C-deps_CCC/g09-AM64L-G09RevC.01/l716.exe)
 Dipole        = 6.33892537D-01 1.08428199D+00 6.05724167D-20
 Polarizability= 4.76521574D+01-5.59356008D+00 9.42353603D+01
                -1.27585386D-08-3.09666449D-08 3.02767460D+01
 Full mass-weighted force constant matrix:
 Low frequencies ---   -0.0008   -0.0006   -0.0005    2.3272    3.0441    9.0269
 Low frequencies ---  104.6915  225.1454  342.3225
 Diagonal vibrational polarizability:
       10.9162489      13.2581935       5.9050396
 Harmonic frequencies (cm**-1), IR intensities (KM/Mole), Raman scattering
 activities (A**4/AMU), depolarization ratios for plane and unpolarized
 incident light, reduced masses (AMU), force constants (mDyne/A),
 and normal coordinates:
                      1                      2                      3
                     A'                     A"                     A"
 Frequencies --    104.6915               225.1451               342.3225
 Red. masses --      6.6535                 3.8166                 2.5700
 Frc consts  --      0.0430                 0.1140                 0.1774
 IR Inten    --      3.6298                 0.1397                20.4729
  Atom  AN      X      Y      Z        X      Y      Z        X      Y      Z
     1   6     0.15   0.21  -0.00    -0.00  -0.00  -0.08    -0.00  -0.00  -0.12
     2   1     0.37   0.10  -0.00     0.00  -0.00  -0.69    -0.00   0.00   0.16
     3   1     0.14   0.45   0.00    -0.00   0.00   0.37    -0.00  -0.00  -0.72
     4   6    -0.09   0.02   0.00    -0.00  -0.00   0.08     0.00   0.00   0.34
     5   6    -0.16  -0.10  -0.00     0.00   0.00  -0.09     0.00  -0.00  -0.07
     6   1    -0.17  -0.30  -0.00     0.00   0.00  -0.37     0.00  -0.00  -0.56
     7   6    -0.36   0.11   0.00     0.00  -0.00   0.41    -0.00   0.00  -0.07
     8   6     0.44  -0.26  -0.00    -0.00   0.00  -0.26    -0.00   0.00   0.01
                      4                      5                      6
                     A'                     A"                     A'
 Frequencies --    363.4474               529.6075               579.3877
 Red. masses --      2.6841                 1.4081                 7.7099
 Frc consts  --      0.2089                 0.2327                 1.5249
 IR Inten    --      5.8018                 0.5057                18.2774
  Atom  AN      X      Y      Z        X      Y      Z        X      Y      Z
     1   6    -0.10  -0.10   0.00     0.00  -0.00   0.02    -0.10   0.27  -0.00
     2   1    -0.53   0.10  -0.00     0.00  -0.00   0.77    -0.41   0.43   0.00
     3   1    -0.07  -0.57   0.00     0.00  -0.00  -0.50    -0.09  -0.03  -0.00
     4   6     0.21   0.13  -0.00    -0.00  -0.00  -0.13     0.17   0.45   0.00
     5   6     0.06  -0.15   0.00     0.00  -0.00   0.00    -0.16  -0.08  -0.00
     6   1     0.05  -0.47   0.00     0.00  -0.00  -0.35    -0.16  -0.02  -0.00
     7   6    -0.16   0.14   0.00    -0.00   0.00   0.14     0.20  -0.37   0.00
     8   6     0.04   0.06  -0.00     0.00   0.00  -0.03    -0.06  -0.29  -0.00
                      7                      8                      9
                     A'                     A"                     A"
 Frequencies --    898.7373               919.9967               998.0319
 Red. masses --      1.7102                 1.4462                 1.3394
 Frc consts  --      0.8139                 0.7212                 0.7860
 IR Inten    --     24.7869                 6.3139                32.5737
  Atom  AN      X      Y      Z        X      Y      Z        X      Y      Z
     1   6     0.11  -0.04  -0.00    -0.00   0.00   0.02    -0.00  -0.00  -0.16
     2   1    -0.21   0.11   0.00     0.00  -0.00   0.16     0.00  -0.00   0.67
     3   1     0.14  -0.44  -0.00    -0.00   0.00  -0.32    -0.00   0.00   0.71
     4   6     0.07  -0.01   0.00    -0.00   0.00   0.04     0.00   0.00   0.05
     5   6    -0.00   0.12  -0.00    -0.00  -0.00  -0.18    -0.00   0.00  -0.02
     6   1     0.01   0.82   0.00    -0.00  -0.00   0.91    -0.00  -0.00   0.10
     7   6    -0.12   0.00   0.00     0.00  -0.00   0.07     0.00  -0.00   0.00
     8   6    -0.06  -0.11  -0.00     0.00   0.00  -0.00    -0.00  -0.00   0.00
                     10                     11                     12
                     A'                     A'                     A'
 Frequencies --   1050.9475              1097.3836              1109.8732
 Red. masses --      1.5620                 4.5357                 2.3106
 Frc consts  --      1.0164                 3.2182                 1.6770
 IR Inten    --      8.8033                 5.1437                 0.7319
  Atom  AN      X      Y      Z        X      Y      Z        X      Y      Z
     1   6    -0.08  -0.13  -0.00    -0.21   0.19   0.00     0.02  -0.10   0.00
     2   1     0.55  -0.42  -0.00    -0.13   0.16   0.00     0.26  -0.21  -0.00
     3   1    -0.12   0.51   0.00    -0.25   0.59  -0.00     0.03  -0.01  -0.00
     4   6     0.11   0.11   0.00     0.01  -0.09  -0.00     0.05   0.05  -0.00
     5   6    -0.03  -0.03   0.00     0.40  -0.00  -0.00     0.01   0.28   0.00
     6   1    -0.02   0.43  -0.00     0.46   0.13   0.00    -0.01  -0.88  -0.00
     7   6    -0.04   0.01  -0.00    -0.10   0.06  -0.00    -0.05  -0.02  -0.00
     8   6     0.00   0.00  -0.00    -0.11  -0.23   0.00    -0.06  -0.13   0.00
                     13                     14                     15
                     A'                     A'                     A'
 Frequencies --   1456.2543              1625.8885              1841.0979
 Red. masses --      1.1885                 9.4539                 8.3927
 Frc consts  --      1.4849                14.7246                16.7611
 IR Inten    --     78.0971               845.8925               191.9745
  Atom  AN      X      Y      Z        X      Y      Z        X      Y      Z
     1   6     0.05  -0.08   0.00     0.21  -0.27  -0.00    -0.12   0.14   0.00
     2   1    -0.63   0.25  -0.00    -0.35  -0.05  -0.00     0.12   0.04  -0.00
     3   1    -0.01   0.72  -0.00     0.23   0.21   0.00    -0.15  -0.00  -0.00
     4   6     0.05  -0.03  -0.00    -0.38   0.34   0.00     0.34  -0.32  -0.00
     5   6    -0.04   0.03   0.00     0.06  -0.18  -0.00    -0.33  -0.00   0.00
     6   1    -0.05  -0.03  -0.00     0.10   0.02   0.00    -0.53  -0.07  -0.00
     7   6    -0.01  -0.02  -0.00     0.24   0.42   0.00     0.27   0.42   0.00
     8   6     0.01   0.02   0.00    -0.14  -0.32  -0.00    -0.11  -0.24  -0.00
                     16                     17                     18
                     A'                     A'                     A'
 Frequencies --   3137.7450              3209.8964              3245.4654
 Red. masses --      1.0566                 1.1188                 1.1197
 Frc consts  --      6.1289                 6.7920                 6.9487
 IR Inten    --     38.1124                57.5502                24.5702
  Atom  AN      X      Y      Z        X      Y      Z        X      Y      Z
     1   6     0.03  -0.06  -0.00    -0.00   0.00   0.00    -0.09  -0.05  -0.00
     2   1     0.34   0.72   0.00    -0.00   0.00   0.00     0.25   0.54  -0.00
     3   1    -0.60  -0.05  -0.00     0.02   0.00   0.00     0.80   0.05   0.00
     4   6    -0.00   0.00  -0.00     0.01  -0.01  -0.00     0.00  -0.00   0.00
     5   6    -0.00   0.00   0.00    -0.10   0.00  -0.00     0.00  -0.00   0.00
     6   1     0.01  -0.00  -0.00     0.99  -0.02   0.00    -0.02   0.00  -0.00
     7   6    -0.00   0.00   0.00     0.01   0.01  -0.00    -0.00   0.00  -0.00
     8   6    -0.00  -0.00   0.00    -0.00  -0.00   0.00    -0.00  -0.00  -0.00

 -------------------
 - Thermochemistry -
 -------------------
 Temperature   298.150 Kelvin.  Pressure   1.00000 Atm.
 Atom     1 has atomic number  6 and mass  12.00000
 Atom     2 has atomic number  1 and mass   1.00783
 Atom     3 has atomic number  1 and mass   1.00783
 Atom     4 has atomic number  6 and mass  12.00000
 Atom     5 has atomic number  6 and mass  12.00000
 Atom     6 has atomic number  1 and mass   1.00783
 Atom     7 has atomic number  6 and mass  12.00000
 Atom     8 has atomic number  6 and mass  12.00000
 Molecular mass:    63.02348 amu.
 Principal axes and moments of inertia in atomic units:
                           1         2         3
     Eigenvalues --   120.31101 406.70553 527.01655
           X           -0.12566   0.99207   0.00000
           Y            0.99207   0.12566   0.00000
           Z           -0.00000  -0.00000   1.00000
 This molecule is an asymmetric top.
 Rotational symmetry number  1.
 Rotational temperatures (Kelvin)      0.71992     0.21296     0.16435
 Rotational constants (GHZ):          15.00063     4.43746     3.42445
 Zero-point vibrational energy     135991.0 (Joules/Mol)
                                   32.50263 (Kcal/Mol)
 Warning -- explicit consideration of   6 degrees of freedom as
           vibrations may cause significant error
 Vibrational temperatures:    150.63   323.93   492.53   522.92   761.99
          (Kelvin)            833.61  1293.08  1323.67  1435.94  1512.08
                             1578.89  1596.86  2095.22  2339.29  2648.93
                             4514.51  4618.32  4669.49
 
 Zero-point correction=                           0.051796 (Hartree/Particle)
 Thermal correction to Energy=                    0.057199
 Thermal correction to Enthalpy=                  0.058143
 Thermal correction to Gibbs Free Energy=         0.023766
 Sum of electronic and zero-point Energies=           -191.766735
 Sum of electronic and thermal Energies=              -191.761332
 Sum of electronic and thermal Enthalpies=            -191.760388
 Sum of electronic and thermal Free Energies=         -191.794765
 
                     E (Thermal)             CV                S
                      KCal/Mol        Cal/Mol-Kelvin    Cal/Mol-Kelvin
 Total                   35.893             17.499             72.353
 Electronic               0.000              0.000              0.000
 Translational            0.889              2.981             38.342
 Rotational               0.889              2.981             24.759
 Vibrational             34.115             11.537              9.252
 Vibration     1          0.605              1.945              3.365
 Vibration     2          0.650              1.803              1.917
 Vibration     3          0.721              1.591              1.201
 Vibration     4          0.737              1.548              1.107
 Vibration     5          0.885              1.184              0.588
 Vibration     6          0.936              1.076              0.486
                       Q            Log10(Q)             Ln(Q)
 Total Bot       0.117080D-10        -10.931516        -25.170745
 Total V=0       0.781714D+13         12.893048         29.687340
 Vib (Bot)       0.103568D-22        -22.984776        -52.924402
 Vib (Bot)    1  0.195849D+01          0.291922          0.672175
 Vib (Bot)    2  0.876647D+00         -0.057175         -0.131650
 Vib (Bot)    3  0.541629D+00         -0.266298         -0.613173
 Vib (Bot)    4  0.503150D+00         -0.298302         -0.686867
 Vib (Bot)    5  0.302087D+00         -0.519868         -1.197041
 Vib (Bot)    6  0.263167D+00         -0.579769         -1.334967
 Vib (V=0)       0.691493D+01          0.839788          1.933683
 Vib (V=0)    1  0.252131D+01          0.401626          0.924778
 Vib (V=0)    2  0.150921D+01          0.178751          0.411588
 Vib (V=0)    3  0.123713D+01          0.092416          0.212795
 Vib (V=0)    4  0.120934D+01          0.082548          0.190073
 Vib (V=0)    5  0.108417D+01          0.035098          0.080816
 Vib (V=0)    6  0.106503D+01          0.027361          0.063001
 Electronic      0.100000D+01          0.000000          0.000000
 Translational   0.196657D+08          7.293709         16.794385
 Rotational      0.574846D+05          4.759551         10.959272
 
                                                              b3lyp opt
                                                             IR Spectrum
 
     3 3  3                                                 1        1      1            111                                         
     2 2  1                                                 8        6      4            100 9  98            5 5     33    2   1    
     4 1  3                                                 4        2      5            195 9  29            7 3     64    2   0    
     5 0  8                                                 1        6      6            071 8  09            9 0     32    5   5    
 
     X X  X                                                 X        X      X            XXX X  XX            X X     XX    X   X    
                                                            X        X      X                                                        
                                                            X        X                                                               
                                                            X        X                                                               
                                                            X        X                                                               
                                                                     X                                                               
                                                                     X                                                               
                                                                     X                                                               
                                                                     X                                                               
                                                                     X                                                               
                                                                     X                                                               
                                                                     X                                                               
                                                                     X                                                               
                                                                     X                                                               
                                                                     X                                                               
                                                                     X                                                               
                                                                     X                                                               
                                                                     X                                                               
                                                                     X                                                               
                                                                     X                                                               
 
 ***** Axes restored to original set *****
 -------------------------------------------------------------------
 Center     Atomic                   Forces (Hartrees/Bohr)
 Number     Number              X              Y              Z
 -------------------------------------------------------------------
      1        6          -0.000013512    0.000018961    0.000000008
      2        1          -0.000007375    0.000009300    0.000000004
      3        1           0.000038636   -0.000013323   -0.000000007
      4        6          -0.000006610   -0.000019426   -0.000000008
      5        6           0.000008829   -0.000027632   -0.000000012
      6        1          -0.000001710    0.000032625    0.000000013
      7        6           0.000008735   -0.000021977   -0.000000009
      8        6          -0.000026993    0.000021472    0.000000010
 -------------------------------------------------------------------
 Cartesian Forces:  Max     0.000038636 RMS     0.000016371
 Z-matrix is all fixed cartesians, so copy forces.
 Force constants in Cartesian coordinates: 
                1             2             3             4             5 
      1  0.707462D+00
      2  0.585756D-01  0.668963D+00
      3 -0.352865D-05  0.223053D-03  0.114941D+00
      4 -0.241687D+00  0.135950D+00  0.649407D-04  0.255459D+00
      5  0.138258D+00 -0.152405D+00 -0.540980D-04 -0.143659D+00  0.150490D+00
      6  0.658811D-04 -0.539913D-04 -0.353364D-01 -0.695083D-04  0.605226D-04
      7 -0.547591D-01 -0.230834D-01 -0.876034D-05  0.753791D-02  0.218849D-01
      8 -0.291276D-01 -0.346558D+00 -0.123254D-03 -0.370105D-02 -0.798979D-02
      9 -0.112234D-04 -0.123533D-03 -0.407875D-01 -0.142800D-05 -0.804590D-05
     10 -0.337680D+00 -0.155010D+00 -0.497333D-04 -0.217614D-01 -0.108979D-01
     11 -0.142984D+00 -0.166691D+00 -0.420917D-04  0.136662D-01  0.938610D-02
     12 -0.448327D-04 -0.415355D-04 -0.471731D-01  0.683999D-05  0.199502D-05
     13 -0.341644D-01 -0.270749D-01 -0.927081D-05  0.279008D-03  0.507998D-03
     14  0.808437D-02 -0.128165D-01 -0.720249D-05 -0.386226D-03  0.255460D-02
     15  0.505643D-05 -0.557687D-05  0.394131D-02  0.000000D+00  0.548400D-05
     16 -0.869573D-03 -0.196593D-02  0.000000D+00 -0.284510D-03 -0.169833D-03
     17 -0.125618D-02  0.533135D-03  0.000000D+00 -0.204778D-03 -0.811838D-05
     18  0.000000D+00  0.000000D+00 -0.936945D-03  0.000000D+00 -0.126035D-05
     19 -0.457853D-01  0.156360D-01  0.872773D-05  0.261147D-03 -0.755463D-02
     20 -0.269123D-01  0.573105D-02  0.147517D-05 -0.126380D-02 -0.990871D-03
     21 -0.861081D-05  0.000000D+00  0.516498D-02  0.000000D+00 -0.447068D-05
     22  0.748463D-02 -0.302703D-02 -0.157107D-05  0.196125D-03  0.163113D-02
     23 -0.463734D-02  0.324314D-02  0.145996D-05 -0.401002D-03 -0.103712D-02
     24 -0.222703D-05  0.138569D-05  0.186360D-03  0.000000D+00  0.000000D+00
                6             7             8             9            10 
      6  0.182683D-01
      7  0.899817D-05  0.545013D-01
      8 -0.686276D-05  0.329887D-01  0.358599D+00
      9  0.927155D-02  0.118366D-04  0.136548D-03  0.197647D-01
     10 -0.316980D-05 -0.733230D-02 -0.200265D-02  0.000000D+00  0.654456D+00
     11  0.000000D+00 -0.308687D-01 -0.453199D-02 -0.457889D-05  0.364056D+00
     12  0.572689D-02 -0.117679D-04 -0.591378D-05  0.102075D-01  0.121110D-03
     13  0.000000D+00 -0.131972D-02  0.355915D-03  0.000000D+00 -0.165455D+00
     14  0.552532D-05 -0.307143D-02  0.133062D-03 -0.494932D-05 -0.274127D+00
     15 -0.109608D-01  0.000000D+00 -0.510767D-05  0.126272D-01 -0.105696D-03
     16  0.000000D+00 -0.693441D-03 -0.135194D-03  0.000000D+00  0.560843D-02
     17 -0.125875D-05  0.155791D-03 -0.466073D-04  0.101742D-05  0.424621D-02
     18  0.310408D-02  0.000000D+00  0.103090D-05 -0.256107D-02  0.203191D-05
     19 -0.258950D-05  0.251551D-02  0.277521D-02  0.000000D+00 -0.109261D+00
     20 -0.476159D-05  0.210989D-02 -0.391946D-03  0.360455D-05  0.760178D-01
     21  0.108375D-01  0.000000D+00  0.357383D-05 -0.947698D-02  0.354237D-04
     22  0.000000D+00 -0.450109D-03 -0.115337D-02  0.000000D+00 -0.185747D-01
     23  0.000000D+00 -0.115797D-03  0.786214D-03  0.000000D+00 -0.228240D-02
     24 -0.911198D-03  0.000000D+00  0.000000D+00  0.954503D-03  0.000000D+00
               11            12            13            14            15 
     11  0.458586D+00
     12  0.143427D-03  0.653051D-01
     13 -0.189882D+00 -0.713667D-04  0.371687D+00
     14 -0.282338D+00 -0.879173D-04  0.136405D+00  0.963060D+00
     15 -0.918126D-04 -0.354828D-01  0.434617D-04  0.341512D-03  0.109511D+00
     16 -0.917683D-02 -0.343797D-05 -0.579156D-01 -0.655302D-01 -0.260714D-04
     17  0.199668D-02 -0.432523D-05 -0.593010D-01 -0.344721D+00 -0.119700D-03
     18 -0.370440D-05  0.121290D-01 -0.235330D-04 -0.119412D-03 -0.442471D-01
     19 -0.367306D-01 -0.105214D-04 -0.799314D-01  0.211277D+00  0.879578D-04
     20  0.308055D-02  0.307663D-05  0.108343D+00 -0.321271D+00 -0.119772D-03
     21  0.828995D-05 -0.130954D-01  0.460125D-04 -0.124532D-03 -0.396429D-01
     22  0.319198D-01  0.139766D-04 -0.331801D-01 -0.126513D-01 -0.342452D-05
     23 -0.194889D-01 -0.880709D-05  0.306457D-01 -0.460198D-02 -0.502608D-05
     24 -0.103888D-04  0.238278D-02  0.142193D-04 -0.302400D-05  0.425448D-02
               16            17            18            19            20 
     16  0.455699D-01
     17  0.608126D-01  0.345415D+00
     18  0.236243D-04  0.129567D-03  0.205556D-01
     19  0.408735D-02 -0.437331D-02 -0.142461D-05  0.566798D+00
     20  0.192991D-01 -0.385664D-02 -0.727973D-05 -0.415746D+00  0.474068D+00
     21  0.822179D-05 -0.618485D-05  0.118176D-01 -0.193441D-03  0.193172D-03
     22  0.449748D-02 -0.793777D-04  0.000000D+00 -0.338685D+00  0.238152D+00
     23 -0.313367D-02  0.687702D-03  0.000000D+00  0.234716D+00 -0.156369D+00
     24 -0.147854D-05  0.000000D+00  0.138885D-03  0.110715D-03 -0.695148D-04
               21            22            23            24 
     21  0.471976D-01
     22  0.112115D-03  0.378712D+00
     23 -0.693560D-04 -0.254792D+00  0.176780D+00
     24 -0.128024D-01 -0.121070D-03  0.814566D-04  0.579659D-02
 Leave Link  716 at Tue Jul 19 15:02:56 2016, MaxMem=    33554432 cpu:         0.1
 (Enter /home/proyectos/fulerenos/M3C-v2.0/M3C-deps_CCC/g09-AM64L-G09RevC.01/l103.exe)

 GradGradGradGradGradGradGradGradGradGradGradGradGradGradGradGradGradGrad
 Berny optimization.
 Search for a local minimum.
 Step number   1 out of a maximum of    2
 All quantities printed in internal units (Hartrees-Bohrs-Radians)
 Second derivative matrix not updated -- analytic derivatives used.
 ITU=  0
     Eigenvalues ---    0.00331   0.00616   0.01392   0.01395   0.05464
     Eigenvalues ---    0.06072   0.07335   0.12801   0.13810   0.16661
     Eigenvalues ---    0.19344   0.24879   0.39815   0.58299   0.85159
     Eigenvalues ---    0.96323   1.24713   1.72403
 Angle between quadratic step and forces=  68.46 degrees.
 ClnCor:  largest displacement from symmetrization is 8.45D-12 for atom     2.
 Linear search not attempted -- first point.
 ClnCor:  largest displacement from symmetrization is 1.88D-15 for atom     3.
 B after Tr=    -0.000099    0.000001    0.000000
         Rot=    1.000000   -0.000000    0.000000   -0.000020 Ang=  -0.00 deg.
 Variable       Old X    -DE/DX   Delta X   Delta X   Delta X     New X
                                 (Linear)    (Quad)   (Total)
    X1        3.44474  -0.00001   0.00000   0.00011  -0.00003   3.44471
    Y1        0.90823   0.00002   0.00000   0.00001   0.00014   0.90837
    Z1        0.00020   0.00000   0.00000  -0.00000   0.00000   0.00020
    X2        5.12110  -0.00001   0.00000  -0.00032  -0.00040   5.12069
    Y2       -0.26959   0.00001   0.00000  -0.00056  -0.00036  -0.26994
    Z2       -0.00036   0.00000   0.00000  -0.00000  -0.00000  -0.00036
    X3        3.66055   0.00004   0.00000   0.00136   0.00115   3.66170
    Y3        2.94050  -0.00001   0.00000  -0.00016  -0.00001   2.94049
    Z3        0.00102  -0.00000   0.00000  -0.00000  -0.00000   0.00102
    X4        1.16912  -0.00001   0.00000  -0.00010  -0.00019   1.16893
    Y4       -0.20109  -0.00002   0.00000   0.00036   0.00041  -0.20068
    Z4       -0.00014  -0.00000   0.00000   0.00000   0.00000  -0.00014
    X5       -0.46992   0.00001   0.00000   0.00014   0.00012  -0.46980
    Y5       -2.15085  -0.00003   0.00000   0.00018   0.00016  -2.15069
    Z5       -0.00086  -0.00000   0.00000   0.00000   0.00000  -0.00086
    X6       -0.86179  -0.00000   0.00000   0.00021   0.00028  -0.86152
    Y6       -4.16123   0.00003   0.00000   0.00025   0.00022  -4.16101
    Z6       -0.00166   0.00000   0.00000   0.00000   0.00000  -0.00166
    X7       -1.69382   0.00001   0.00000  -0.00014  -0.00024  -1.69407
    Y7        0.15104  -0.00002   0.00000   0.00005  -0.00002   0.15102
    Z7        0.00013  -0.00000   0.00000   0.00000   0.00000   0.00013
    X8       -3.77009  -0.00003   0.00000  -0.00052  -0.00068  -3.77078
    Y8        1.54106   0.00002   0.00000  -0.00040  -0.00055   1.54051
    Z8        0.00079   0.00000   0.00000  -0.00000  -0.00000   0.00079
         Item               Value     Threshold  Converged?
 Maximum Force            0.000039     0.000450     YES
 RMS     Force            0.000016     0.000300     YES
 Maximum Displacement     0.001147     0.001800     YES
 RMS     Displacement     0.000343     0.001200     YES
 Predicted change in Energy=-2.297513D-08
 Optimization completed.
    -- Stationary point found.
 GradGradGradGradGradGradGradGradGradGradGradGradGradGradGradGradGradGrad

 Leave Link  103 at Tue Jul 19 15:02:56 2016, MaxMem=    33554432 cpu:         0.0
 (Enter /home/proyectos/fulerenos/M3C-v2.0/M3C-deps_CCC/g09-AM64L-G09RevC.01/l9999.exe)
 1\1\GINC-EINSTENIO\Freq\RB3LYP\6-311++G(3df,2p)\C5H3(1+)\ROOT\19-Jul-2
 016\0\\#p b3lyp/6-311++G(3df,2p) freq symmetry=Loose\\b3lyp opt\\1,1\C
 ,1.822878,0.480612,0.0001069999\H,2.709967,-0.14266,-0.0001880001\H,1.
 937079033,1.55604471,0.0005399545\C,0.618672999,-0.106413991,-0.000076
 529\C,-0.24867202,-1.138178822,-0.0004568638\H,-0.456042047,-2.2020305
 87,-0.0008807911\C,-0.896331997,0.07992697,0.0000694578\C,-1.995047981
 ,0.815495833,0.0004200041\\Version=EM64L-G09RevE.01\State=1-A'\HF=-191
 .8185312\RMSD=9.695e-09\RMSF=1.637e-05\ZeroPoint=0.0517962\Thermal=0.0
 571989\Dipole=0.9611358,-0.8085202,-0.0003739\DipoleDeriv=0.5618168,0.
 0935987,0.0000147,0.2833499,0.128023,0.0000164,0.0000921,0.0000251,0.0
 557164,0.2381271,-0.0108932,-0.0000098,-0.0592542,0.1070012,-0.0000038
 ,-0.0000295,-0.0000061,0.1231318,0.1351161,0.0499121,0.000022,0.104210
 5,0.1609891,-0.0000086,0.0000441,-0.0000061,0.1703285,-0.6775262,-0.03
 03825,0.0000205,-1.1321114,-0.0662204,0.0000121,-0.0004285,-0.0000389,
 0.0325886,1.1250493,-0.2010499,-0.0001219,0.0907131,0.5070561,0.000096
 4,-0.000003,0.0001099,0.2601668,0.1729008,0.035321,0.0000147,0.0205175
 ,0.3088731,0.0000515,0.0000087,0.0000508,0.1802509,-1.8389209,0.740533
 3,0.0003963,1.5842987,-0.4762874,-0.0003507,0.0007401,-0.0003117,0.204
 6527,1.2834371,-0.6770394,-0.0003365,-0.891724,0.3305654,0.0001869,-0.
 000424,0.0001769,-0.0268356\Polar=94.7657175,-2.5101558,47.1217971,-0.
 0040049,0.0069804,30.276749\PG=CS [SG(C5H3)]\NImag=0\\0.70746156,0.058
 57556,0.66896269,-0.00000353,0.00022305,0.11494123,-0.24168748,0.13594
 976,0.00006494,0.25545924,0.13825752,-0.15240470,-0.00005410,-0.143659
 12,0.15048990,0.00006588,-0.00005399,-0.03533636,-0.00006951,0.0000605
 2,0.01826834,-0.05475914,-0.02308336,-0.00000876,0.00753791,0.02188485
 ,0.00000900,0.05450129,-0.02912758,-0.34655796,-0.00012325,-0.00370105
 ,-0.00798979,-0.00000686,0.03298872,0.35859902,-0.00001122,-0.00012353
 ,-0.04078749,-0.00000143,-0.00000805,0.00927155,0.00001184,0.00013655,
 0.01976472,-0.33768025,-0.15501009,-0.00004973,-0.02176145,-0.01089791
 ,-0.00000317,-0.00733230,-0.00200265,0.,0.65445620,-0.14298406,-0.1666
 9082,-0.00004209,0.01366621,0.00938610,0.00000086,-0.03086867,-0.00453
 199,-0.00000458,0.36405639,0.45858631,-0.00004483,-0.00004154,-0.04717
 308,0.00000684,0.00000200,0.00572689,-0.00001177,-0.00000591,0.0102075
 3,0.00012111,0.00014343,0.06530511,-0.03416439,-0.02707486,-0.00000927
 ,0.00027901,0.00050800,-0.00000031,-0.00131972,0.00035592,0.00000079,-
 0.16545514,-0.18988222,-0.00007137,0.37168732,0.00808437,-0.01281653,-
 0.00000720,-0.00038623,0.00255460,0.00000553,-0.00307143,0.00013306,-0
 .00000495,-0.27412739,-0.28233791,-0.00008792,0.13640497,0.96306039,0.
 00000506,-0.00000558,0.00394131,-0.00000068,0.00000548,-0.01096083,-0.
 00000061,-0.00000511,0.01262723,-0.00010570,-0.00009181,-0.03548284,0.
 00004346,0.00034151,0.10951062,-0.00086957,-0.00196593,-0.00000080,-0.
 00028451,-0.00016983,0.00000009,-0.00069344,-0.00013519,-0.00000014,0.
 00560843,-0.00917683,-0.00000344,-0.05791560,-0.06553024,-0.00002607,0
 .04556986,-0.00125618,0.00053314,0.00000066,-0.00020478,-0.00000812,-0
 .00000126,0.00015579,-0.00004661,0.00000102,0.00424621,0.00199668,-0.0
 0000433,-0.05930097,-0.34472087,-0.00011970,0.06081261,0.34541473,-0.0
 0000052,0.00000069,-0.00093694,0.00000007,-0.00000126,0.00310408,-0.00
 000002,0.00000103,-0.00256107,0.00000203,-0.00000370,0.01212898,-0.000
 02353,-0.00011941,-0.04424706,0.00002362,0.00012957,0.02055556,-0.0457
 8535,0.01563596,0.00000873,0.00026115,-0.00755463,-0.00000259,0.002515
 51,0.00277521,0.00000058,-0.10926077,-0.03673060,-0.00001052,-0.079931
 41,0.21127726,0.00008796,0.00408735,-0.00437331,-0.00000142,0.56679839
 ,-0.02691229,0.00573105,0.00000148,-0.00126380,-0.00099087,-0.00000476
 ,0.00210989,-0.00039195,0.00000360,0.07601785,0.00308055,0.00000308,0.
 10834349,-0.32127075,-0.00011977,0.01929909,-0.00385664,-0.00000728,-0
 .41574609,0.47406771,-0.00000861,-0.00000049,0.00516498,-0.00000003,-0
 .00000447,0.01083753,0.00000031,0.00000357,-0.00947698,0.00003542,0.00
 000829,-0.01309539,0.00004601,-0.00012453,-0.03964292,0.00000822,-0.00
 000618,0.01181757,-0.00019344,0.00019317,0.04719761,0.00748463,-0.0030
 2703,-0.00000157,0.00019612,0.00163113,0.00000061,-0.00045011,-0.00115
 337,-0.00000040,-0.01857471,0.03191978,0.00001398,-0.03318006,-0.01265
 132,-0.00000342,0.00449748,-0.00007938,-0.00000023,-0.33868486,0.23815
 187,0.00011211,0.37871151,-0.00463734,0.00324314,0.00000146,-0.0004010
 0,-0.00103712,-0.00000003,-0.00011580,0.00078621,-0.00000006,-0.002282
 40,-0.01948891,-0.00000881,0.03064568,-0.00460198,-0.00000503,-0.00313
 367,0.00068770,0.00000037,0.23471620,-0.15636910,-0.00006936,-0.254791
 67,0.17678006,-0.00000223,0.00000139,0.00018636,-0.00000021,-0.0000001
 3,-0.00091120,0.00000002,-0.00000002,0.00095450,0.00000004,-0.00001039
 ,0.00238278,0.00001422,-0.00000302,0.00425448,-0.00000148,0.00000023,0
 .00013888,0.00011071,-0.00006951,-0.01280240,-0.00012107,0.00008146,0.
 00579659\\0.00001351,-0.00001896,0.,0.00000738,-0.00000930,0.,-0.00003
 864,0.00001332,0.,0.00000661,0.00001943,0.,-0.00000883,0.00002763,0.00
 000001,0.00000171,-0.00003262,-0.00000001,-0.00000873,0.00002198,0.,0.
 00002699,-0.00002147,0.\\\@


 NOTHING WILL BE ATTEMPTED IF ALL POSSIBLE OBJECTIONS
 MUST FIRST BE OVERCOME.

                               -- THE GOLDEN PRINCIPLE,
                    PAUL DICKSON'S "THE OFFICIAL RULES"
 Job cpu time:       0 days  0 hours 45 minutes 20.9 seconds.
 File lengths (MBytes):  RWF=     40 Int=      0 D2E=      0 Chk=      4 Scr=      1
 Normal termination of Gaussian 09 at Tue Jul 19 15:02:56 2016.
