 Entering Gaussian System, Link 0=/home/proyectos/fulerenos/M3C-v1.9/M3C-deps_CCC/g09-AM64L-G09RevC.01/g09
 Initial command:
 /home/proyectos/fulerenos/M3C-v1.9/M3C-deps_CCC/g09-AM64L-G09RevC.01/l1.exe "/scratch/naguirre/gaussian/Gau-8037.inp" -scrdir="/scratch/naguirre/gaussian/"
 Entering Link 1 = /home/proyectos/fulerenos/M3C-v1.9/M3C-deps_CCC/g09-AM64L-G09RevC.01/l1.exe PID=      8042.
  
 Copyright (c) 1988,1990,1992,1993,1995,1998,2003,2009,2015,
            Gaussian, Inc.  All Rights Reserved.
  
 This is part of the Gaussian(R) 09 program.  It is based on
 the Gaussian(R) 03 system (copyright 2003, Gaussian, Inc.),
 the Gaussian(R) 98 system (copyright 1998, Gaussian, Inc.),
 the Gaussian(R) 94 system (copyright 1995, Gaussian, Inc.),
 the Gaussian 92(TM) system (copyright 1992, Gaussian, Inc.),
 the Gaussian 90(TM) system (copyright 1990, Gaussian, Inc.),
 the Gaussian 88(TM) system (copyright 1988, Gaussian, Inc.),
 the Gaussian 86(TM) system (copyright 1986, Carnegie Mellon
 University), and the Gaussian 82(TM) system (copyright 1983,
 Carnegie Mellon University). Gaussian is a federally registered
 trademark of Gaussian, Inc.
  
 This software contains proprietary and confidential information,
 including trade secrets, belonging to Gaussian, Inc.
  
 This software is provided under written license and may be
 used, copied, transmitted, or stored only in accord with that
 written license.
  
 The following legend is applicable only to US Government
 contracts under FAR:
  
                    RESTRICTED RIGHTS LEGEND
  
 Use, reproduction and disclosure by the US Government is
 subject to restrictions as set forth in subparagraphs (a)
 and (c) of the Commercial Computer Software - Restricted
 Rights clause in FAR 52.227-19.
  
 Gaussian, Inc.
 340 Quinnipiac St., Bldg. 40, Wallingford CT 06492
  
  
 ---------------------------------------------------------------
 Warning -- This program may not be used in any manner that
 competes with the business of Gaussian, Inc. or will provide
 assistance to any competitor of Gaussian, Inc.  The licensee
 of this program is prohibited from giving any competitor of
 Gaussian, Inc. access to this program.  By using this program,
 the user acknowledges that Gaussian, Inc. is engaged in the
 business of creating and licensing software in the field of
 computational chemistry and represents and warrants to the
 licensee that it is not a competitor of Gaussian, Inc. and that
 it will not use this program in any manner prohibited above.
 ---------------------------------------------------------------
  

 Cite this work as:
 Gaussian 09, Revision E.01,
 M. J. Frisch, G. W. Trucks, H. B. Schlegel, G. E. Scuseria, 
 M. A. Robb, J. R. Cheeseman, G. Scalmani, V. Barone, B. Mennucci, 
 G. A. Petersson, H. Nakatsuji, M. Caricato, X. Li, H. P. Hratchian, 
 A. F. Izmaylov, J. Bloino, G. Zheng, J. L. Sonnenberg, M. Hada, 
 M. Ehara, K. Toyota, R. Fukuda, J. Hasegawa, M. Ishida, T. Nakajima, 
 Y. Honda, O. Kitao, H. Nakai, T. Vreven, J. A. Montgomery, Jr., 
 J. E. Peralta, F. Ogliaro, M. Bearpark, J. J. Heyd, E. Brothers, 
 K. N. Kudin, V. N. Staroverov, T. Keith, R. Kobayashi, J. Normand, 
 K. Raghavachari, A. Rendell, J. C. Burant, S. S. Iyengar, J. Tomasi, 
 M. Cossi, N. Rega, J. M. Millam, M. Klene, J. E. Knox, J. B. Cross, 
 V. Bakken, C. Adamo, J. Jaramillo, R. Gomperts, R. E. Stratmann, 
 O. Yazyev, A. J. Austin, R. Cammi, C. Pomelli, J. W. Ochterski, 
 R. L. Martin, K. Morokuma, V. G. Zakrzewski, G. A. Voth, 
 P. Salvador, J. J. Dannenberg, S. Dapprich, A. D. Daniels, 
 O. Farkas, J. B. Foresman, J. V. Ortiz, J. Cioslowski, 
 and D. J. Fox, Gaussian, Inc., Wallingford CT, 2013.
 
 ******************************************
 Gaussian 09:  EM64L-G09RevE.01 30-Nov-2015
                19-Jun-2016 
 ******************************************
 %NProcShared=4
 Will use up to    4 processors via shared memory.
 ---------------------------------------------
 #p b3lyp/6-311++G(3df,2p) freq symmetry=Loose
 ---------------------------------------------
 1/10=4,30=1,38=1/1,3;
 2/12=2,17=4,18=3,40=1/2;
 3/5=4,6=6,7=1216,11=2,16=1,25=1,30=1,71=2,74=-5,140=1/1,2,3;
 4//1;
 5/5=2,38=5,98=1/2;
 8/6=4,10=90,11=11/1;
 11/6=1,8=1,9=11,15=111,16=1/1,2,10;
 10/6=1/2;
 6/7=2,8=2,9=2,10=2,18=1,28=1/1;
 7/8=1,10=1,25=1/1,2,3,16;
 1/10=4,30=1/3;
 99//99;
 Leave Link    1 at Sun Jun 19 14:46:06 2016, MaxMem=           0 cpu:         0.3
 (Enter /home/proyectos/fulerenos/M3C-v1.9/M3C-deps_CCC/g09-AM64L-G09RevC.01/l101.exe)
 ---------
 b3lyp opt
 ---------
 Symbolic Z-matrix:
 Charge =  3 Multiplicity = 3
 C                     2.28717  -0.56437   0. 
 H                     3.39151  -0.74707   0. 
 C                     0.99519  -0.54755   0. 
 H                     0.76791  -1.67331   0. 
 C                     0.        0.48129   0. 
 H                     0.325     1.55522   0. 
 C                    -1.3706    0.36122   0. 
 C                    -2.65917   0.41361   0. 
 
 NAtoms=      8 NQM=        8 NQMF=       0 NMMI=      0 NMMIF=      0
                NMic=       0 NMicF=      0.
                    Isotopes and Nuclear Properties:
 (Nuclear quadrupole moments (NQMom) in fm**2, nuclear magnetic moments (NMagM)
  in nuclear magnetons)

  Atom         1           2           3           4           5           6           7           8
 IAtWgt=          12           1          12           1          12           1          12          12
 AtmWgt=  12.0000000   1.0078250  12.0000000   1.0078250  12.0000000   1.0078250  12.0000000  12.0000000
 NucSpn=           0           1           0           1           0           1           0           0
 AtZEff=   0.0000000   0.0000000   0.0000000   0.0000000   0.0000000   0.0000000   0.0000000   0.0000000
 NQMom=    0.0000000   0.0000000   0.0000000   0.0000000   0.0000000   0.0000000   0.0000000   0.0000000
 NMagM=    0.0000000   2.7928460   0.0000000   2.7928460   0.0000000   2.7928460   0.0000000   0.0000000
 AtZNuc=   6.0000000   1.0000000   6.0000000   1.0000000   6.0000000   1.0000000   6.0000000   6.0000000
 Leave Link  101 at Sun Jun 19 14:46:06 2016, MaxMem=    33554432 cpu:         0.6
 (Enter /home/proyectos/fulerenos/M3C-v1.9/M3C-deps_CCC/g09-AM64L-G09RevC.01/l103.exe)

 GradGradGradGradGradGradGradGradGradGradGradGradGradGradGradGradGradGrad
 Berny optimization.
 Initialization pass.
 Trust Radius=3.00D-01 FncErr=1.00D-07 GrdErr=1.00D-07
 Number of steps in this run=      2 maximum allowed number of steps=      2.
 GradGradGradGradGradGradGradGradGradGradGradGradGradGradGradGradGradGrad

 Leave Link  103 at Sun Jun 19 14:46:06 2016, MaxMem=    33554432 cpu:         0.2
 (Enter /home/proyectos/fulerenos/M3C-v1.9/M3C-deps_CCC/g09-AM64L-G09RevC.01/l202.exe)
                          Input orientation:                          
 ---------------------------------------------------------------------
 Center     Atomic      Atomic             Coordinates (Angstroms)
 Number     Number       Type             X           Y           Z
 ---------------------------------------------------------------------
      1          6           0        2.287170   -0.564374    0.000000
      2          1           0        3.391514   -0.747071    0.000000
      3          6           0        0.995194   -0.547548    0.000000
      4          1           0        0.767906   -1.673305    0.000000
      5          6           0        0.000000    0.481287    0.000000
      6          1           0        0.324997    1.555221    0.000000
      7          6           0       -1.370601    0.361221    0.000000
      8          6           0       -2.659165    0.413606    0.000000
 ---------------------------------------------------------------------
                    Distance matrix (angstroms):
                    1          2          3          4          5
     1  C    0.000000
     2  H    1.119354   0.000000
     3  C    1.292086   2.404612   0.000000
     4  H    1.880928   2.782306   1.148472   0.000000
     5  C    2.514867   3.607108   1.431402   2.287345   0.000000
     6  H    2.888392   3.834589   2.206989   3.258765   1.122033
     7  C    3.773064   4.889381   2.534334   2.951696   1.375850
     8  C    5.042090   6.160997   3.778645   4.012482   2.660026
                    6          7          8
     6  H    0.000000
     7  C    2.073810   0.000000
     8  C    3.195076   1.289628   0.000000
 Stoichiometry    C5H3(3+,3)
 Framework group  CS[SG(C5H3)]
 Deg. of freedom    13
 Full point group                 CS      NOp   2
 Largest Abelian subgroup         CS      NOp   2
 Largest concise Abelian subgroup C1      NOp   1
                         Standard orientation:                         
 ---------------------------------------------------------------------
 Center     Atomic      Atomic             Coordinates (Angstroms)
 Number     Number       Type             X           Y           Z
 ---------------------------------------------------------------------
      1          6           0       -2.287170   -0.564375   -0.000000
      2          1           0       -3.391514   -0.747072   -0.000000
      3          6           0       -0.995194   -0.547548   -0.000000
      4          1           0       -0.767905   -1.673305   -0.000000
      5          6           0        0.000000    0.481287    0.000000
      6          1           0       -0.324997    1.555221   -0.000000
      7          6           0        1.370601    0.361222    0.000000
      8          6           0        2.659165    0.413607    0.000000
 ---------------------------------------------------------------------
 Rotational constants (GHZ):     56.4374571      2.4687805      2.3653131
 Leave Link  202 at Sun Jun 19 14:46:06 2016, MaxMem=    33554432 cpu:         0.6
 (Enter /home/proyectos/fulerenos/M3C-v1.9/M3C-deps_CCC/g09-AM64L-G09RevC.01/l301.exe)
 Standard basis: 6-311++G(3df,2p) (5D, 7F)
 Ernie: Thresh=  0.10000D-02 Tol=  0.10000D-05 Strict=F.
 There are   179 symmetry adapted cartesian basis functions of A'  symmetry.
 There are    76 symmetry adapted cartesian basis functions of A"  symmetry.
 There are   154 symmetry adapted basis functions of A'  symmetry.
 There are    71 symmetry adapted basis functions of A"  symmetry.
   225 basis functions,   326 primitive gaussians,   255 cartesian basis functions
    16 alpha electrons       14 beta electrons
       nuclear repulsion energy       115.0862516327 Hartrees.
 IExCor=  402 DFT=T Ex+Corr=B3LYP ExCW=0 ScaHFX=  0.200000
 ScaDFX=  0.800000  0.720000  1.000000  0.810000 ScalE2=  1.000000  1.000000
 IRadAn=      0 IRanWt=     -1 IRanGd=            0 ICorTp=0 IEmpDi=  4
 NAtoms=    8 NActive=    8 NUniq=    8 SFac= 1.00D+00 NAtFMM=   60 NAOKFM=F Big=F
 Integral buffers will be    131072 words long.
 Raffenetti 2 integral format.
 Two-electron integral symmetry is turned on.
 Leave Link  301 at Sun Jun 19 14:46:06 2016, MaxMem=    33554432 cpu:         0.4
 (Enter /home/proyectos/fulerenos/M3C-v1.9/M3C-deps_CCC/g09-AM64L-G09RevC.01/l302.exe)
 NPDir=0 NMtPBC=     1 NCelOv=     1 NCel=       1 NClECP=     1 NCelD=      1
         NCelK=      1 NCelE2=     1 NClLst=     1 CellRange=     0.0.
 One-electron integrals computed using PRISM.
 NBasis=   225 RedAO= T EigKep=  8.51D-06  NBF=   154    71
 NBsUse=   224 1.00D-06 EigRej=  8.98D-07 NBFU=   153    71
 Precomputing XC quadrature grid using
 IXCGrd= 4 IRadAn=           0 IRanWt=          -1 IRanGd=           0 AccXCQ= 0.00D+00.
 Generated NRdTot=       0 NPtTot=           0 NUsed=           0 NTot=          32
 NSgBfM=   255   255   255   255   255 MxSgAt=     8 MxSgA2=     8.
 Leave Link  302 at Sun Jun 19 14:46:06 2016, MaxMem=    33554432 cpu:         1.1
 (Enter /home/proyectos/fulerenos/M3C-v1.9/M3C-deps_CCC/g09-AM64L-G09RevC.01/l303.exe)
 DipDrv:  MaxL=1.
 Leave Link  303 at Sun Jun 19 14:46:07 2016, MaxMem=    33554432 cpu:         0.1
 (Enter /home/proyectos/fulerenos/M3C-v1.9/M3C-deps_CCC/g09-AM64L-G09RevC.01/l401.exe)
 ExpMin= 3.60D-02 ExpMax= 4.56D+03 ExpMxC= 6.82D+02 IAcc=3 IRadAn=         5 AccDes= 0.00D+00
 Harris functional with IExCor=  402 and IRadAn=       5 diagonalized for initial guess.
 HarFok:  IExCor=  402 AccDes= 0.00D+00 IRadAn=         5 IDoV= 1 UseB2=F ITyADJ=14
 ICtDFT=  3500011 ScaDFX=  1.000000  1.000000  1.000000  1.000000
 FoFCou: FMM=F IPFlag=           0 FMFlag=      100000 FMFlg1=           0
         NFxFlg=           0 DoJE=T BraDBF=F KetDBF=T FulRan=T
         wScrn=  0.000000 ICntrl=     500 IOpCl=  0 I1Cent=   200000004 NGrid=           0
         NMat0=    1 NMatS0=      1 NMatT0=    0 NMatD0=    1 NMtDS0=    0 NMtDT0=    0
 Petite list used in FoFCou.
 Harris En= -191.207321710727    
 JPrj=0 DoOrth=F DoCkMO=F.
 Initial guess orbital symmetries:
 Alpha Orbitals:
       Occupied  (A') (A') (A') (A') (A') (A') (A') (A') (A') (A')
                 (A') (A') (A") (A") (A') (A')
       Virtual   (A") (A') (A") (A') (A') (A") (A') (A') (A') (A")
                 (A') (A') (A') (A') (A") (A") (A') (A') (A') (A")
                 (A') (A') (A') (A') (A") (A') (A') (A') (A') (A')
                 (A') (A") (A') (A") (A') (A') (A') (A") (A') (A')
                 (A') (A") (A') (A") (A') (A') (A') (A") (A') (A")
                 (A') (A") (A') (A') (A") (A") (A') (A') (A') (A')
                 (A") (A') (A") (A') (A') (A') (A") (A') (A') (A")
                 (A') (A") (A') (A') (A') (A") (A') (A') (A") (A')
                 (A") (A') (A') (A') (A') (A') (A') (A") (A') (A')
                 (A") (A') (A") (A') (A') (A") (A') (A") (A') (A")
                 (A') (A') (A") (A') (A") (A') (A') (A') (A") (A')
                 (A') (A") (A') (A') (A") (A') (A") (A') (A') (A")
                 (A") (A') (A') (A") (A') (A') (A") (A") (A") (A')
                 (A') (A') (A") (A") (A') (A') (A") (A') (A') (A")
                 (A') (A') (A") (A') (A') (A') (A") (A') (A") (A')
                 (A') (A') (A') (A") (A') (A') (A') (A") (A') (A')
                 (A") (A") (A') (A') (A") (A') (A') (A") (A') (A')
                 (A") (A') (A") (A') (A') (A') (A') (A') (A") (A')
                 (A") (A') (A") (A') (A") (A") (A') (A") (A') (A")
                 (A') (A") (A') (A') (A") (A') (A') (A") (A') (A')
                 (A') (A') (A') (A') (A') (A') (A') (A')
 Beta  Orbitals:
       Occupied  (A') (A') (A') (A') (A') (A') (A') (A') (A') (A')
                 (A') (A') (A") (A")
       Virtual   (A') (A') (A") (A') (A") (A') (A') (A") (A') (A')
                 (A') (A") (A') (A') (A') (A') (A") (A") (A') (A')
                 (A') (A") (A') (A') (A') (A') (A") (A') (A') (A')
                 (A') (A') (A') (A") (A') (A") (A') (A') (A') (A")
                 (A') (A') (A') (A") (A') (A") (A') (A') (A') (A")
                 (A') (A") (A') (A") (A') (A') (A") (A") (A') (A')
                 (A') (A') (A") (A') (A") (A') (A') (A') (A") (A')
                 (A') (A") (A') (A") (A') (A') (A') (A") (A') (A')
                 (A") (A') (A") (A') (A') (A') (A') (A') (A') (A")
                 (A') (A') (A") (A') (A") (A') (A') (A") (A') (A")
                 (A') (A") (A') (A') (A") (A') (A") (A') (A') (A')
                 (A") (A') (A') (A") (A') (A') (A") (A') (A") (A')
                 (A') (A") (A") (A') (A') (A") (A') (A') (A") (A")
                 (A") (A') (A') (A') (A") (A") (A') (A') (A") (A')
                 (A') (A") (A') (A') (A") (A') (A') (A') (A") (A')
                 (A") (A') (A') (A') (A') (A") (A') (A') (A') (A")
                 (A') (A') (A") (A") (A') (A') (A") (A') (A') (A")
                 (A') (A') (A") (A') (A") (A') (A') (A') (A') (A')
                 (A") (A') (A") (A') (A") (A') (A") (A") (A') (A")
                 (A') (A") (A') (A") (A') (A') (A") (A') (A') (A")
                 (A') (A') (A') (A') (A') (A') (A') (A') (A') (A')
 The electronic state of the initial guess is 3-A'.
 Initial guess <Sx>= 0.0000 <Sy>= 0.0000 <Sz>= 1.0000 <S**2>= 2.0000 S= 1.0000
 Leave Link  401 at Sun Jun 19 14:46:09 2016, MaxMem=    33554432 cpu:         8.5
 (Enter /home/proyectos/fulerenos/M3C-v1.9/M3C-deps_CCC/g09-AM64L-G09RevC.01/l502.exe)
 UHF open shell SCF:
 Using DIIS extrapolation, IDIIS=  1040.
 Integral symmetry usage will be decided dynamically.
 IVT=      217056 IEndB=      217056 NGot=    33554432 MDV=    33419297
 LenX=    33419297 LenY=    33353831
 Requested convergence on RMS density matrix=1.00D-08 within 128 cycles.
 Requested convergence on MAX density matrix=1.00D-06.
 Requested convergence on             energy=1.00D-06.
 No special actions if energy rises.
 Fock matrices will be formed incrementally for  20 cycles.

 Cycle   1  Pass 1  IDiag  1:
 FoFJK:  IHMeth= 1 ICntrl=       0 DoSepK=F KAlg= 0 I1Cent=   0 FoldK=F
 IRaf= 970000000 NMat=   1 IRICut=       1 DoRegI=T DoRafI=F ISym2E= 1.
 FoFCou: FMM=F IPFlag=           0 FMFlag=      100000 FMFlg1=           0
         NFxFlg=           0 DoJE=F BraDBF=F KetDBF=F FulRan=T
         wScrn=  0.000000 ICntrl=       0 IOpCl=  1 I1Cent=           0 NGrid=           0
         NMat0=    1 NMatS0=      1 NMatT0=    0 NMatD0=    1 NMtDS0=    0 NMtDT0=    0
 Petite list used in FoFCou.
 E= -190.332168960633    
 DIIS: error= 1.73D-02 at cycle   1 NSaved=   1.
 NSaved= 1 IEnMin= 1 EnMin= -190.332168960633     IErMin= 1 ErrMin= 1.73D-02
 ErrMax= 1.73D-02  0.00D+00 EMaxC= 1.00D-01 BMatC= 2.95D-01 BMatP= 2.95D-01
 IDIUse=3 WtCom= 8.27D-01 WtEn= 1.73D-01
 Coeff-Com:  0.100D+01
 Coeff-En:   0.100D+01
 Coeff:      0.100D+01
 Gap=     0.146 Goal=   None    Shift=    0.000
 Gap=     0.027 Goal=   None    Shift=    0.000
 GapD=    0.027 DampG=0.250 DampE=0.500 DampFc=0.2500 IDamp=-1.
 Damping current iteration by 2.50D-01
 RMSDP=5.20D-03 MaxDP=3.47D-01              OVMax= 3.29D-01

 Cycle   2  Pass 1  IDiag  1:
 RMSU=  1.28D-03    CP:  1.01D+00
 E= -190.358280250155     Delta-E=       -0.026111289523 Rises=F Damp=T
 DIIS: error= 1.11D-02 at cycle   2 NSaved=   2.
 NSaved= 2 IEnMin= 2 EnMin= -190.358280250155     IErMin= 2 ErrMin= 1.11D-02
 ErrMax= 1.11D-02  0.00D+00 EMaxC= 1.00D-01 BMatC= 8.50D-02 BMatP= 2.95D-01
 IDIUse=3 WtCom= 8.89D-01 WtEn= 1.11D-01
 Coeff-Com: -0.504D+00 0.150D+01
 Coeff-En:   0.000D+00 0.100D+01
 Coeff:     -0.448D+00 0.145D+01
 Gap=     0.153 Goal=   None    Shift=    0.000
 Gap=     0.155 Goal=   None    Shift=    0.000
 RMSDP=3.95D-03 MaxDP=2.84D-01 DE=-2.61D-02 OVMax= 2.44D-01

 Cycle   3  Pass 1  IDiag  1:
 RMSU=  2.57D-03    CP:  1.11D+00  2.98D+00
 E= -190.402509303028     Delta-E=       -0.044229052873 Rises=F Damp=F
 DIIS: error= 1.47D-02 at cycle   3 NSaved=   3.
 NSaved= 3 IEnMin= 3 EnMin= -190.402509303028     IErMin= 2 ErrMin= 1.11D-02
 ErrMax= 1.47D-02  0.00D+00 EMaxC= 1.00D-01 BMatC= 6.99D-02 BMatP= 8.50D-02
 IDIUse=3 WtCom= 8.53D-01 WtEn= 1.47D-01
 Coeff-Com: -0.539D+00 0.965D+00 0.575D+00
 Coeff-En:   0.000D+00 0.000D+00 0.100D+01
 Coeff:     -0.460D+00 0.823D+00 0.637D+00
 Gap=     0.159 Goal=   None    Shift=    0.000
 Gap=     0.112 Goal=   None    Shift=    0.000
 RMSDP=1.11D-03 MaxDP=4.66D-02 DE=-4.42D-02 OVMax= 1.17D-01

 Cycle   4  Pass 1  IDiag  1:
 RMSU=  9.89D-04    CP:  1.12D+00  3.00D+00  8.20D-01
 E= -190.417779219628     Delta-E=       -0.015269916600 Rises=F Damp=F
 DIIS: error= 8.07D-03 at cycle   4 NSaved=   4.
 NSaved= 4 IEnMin= 4 EnMin= -190.417779219628     IErMin= 4 ErrMin= 8.07D-03
 ErrMax= 8.07D-03  0.00D+00 EMaxC= 1.00D-01 BMatC= 2.02D-02 BMatP= 6.99D-02
 IDIUse=3 WtCom= 9.19D-01 WtEn= 8.07D-02
 Coeff-Com: -0.169D+00 0.238D+00 0.402D+00 0.528D+00
 Coeff-En:   0.000D+00 0.000D+00 0.250D+00 0.750D+00
 Coeff:     -0.155D+00 0.219D+00 0.390D+00 0.546D+00
 Gap=     0.151 Goal=   None    Shift=    0.000
 Gap=     0.103 Goal=   None    Shift=    0.000
 RMSDP=4.85D-04 MaxDP=2.18D-02 DE=-1.53D-02 OVMax= 4.49D-02

 Cycle   5  Pass 1  IDiag  1:
 RMSU=  2.92D-04    CP:  1.12D+00  3.00D+00  9.16D-01  7.12D-01
 E= -190.423290754631     Delta-E=       -0.005511535003 Rises=F Damp=F
 DIIS: error= 2.15D-03 at cycle   5 NSaved=   5.
 NSaved= 5 IEnMin= 5 EnMin= -190.423290754631     IErMin= 5 ErrMin= 2.15D-03
 ErrMax= 2.15D-03  0.00D+00 EMaxC= 1.00D-01 BMatC= 9.46D-04 BMatP= 2.02D-02
 IDIUse=3 WtCom= 9.78D-01 WtEn= 2.15D-02
 Coeff-Com: -0.322D-01 0.357D-01 0.141D+00 0.277D+00 0.578D+00
 Coeff-En:   0.000D+00 0.000D+00 0.000D+00 0.000D+00 0.100D+01
 Coeff:     -0.315D-01 0.350D-01 0.138D+00 0.271D+00 0.587D+00
 Gap=     0.154 Goal=   None    Shift=    0.000
 Gap=     0.107 Goal=   None    Shift=    0.000
 RMSDP=1.21D-04 MaxDP=4.52D-03 DE=-5.51D-03 OVMax= 2.35D-02

 Cycle   6  Pass 1  IDiag  1:
 RMSU=  9.08D-05    CP:  1.12D+00  3.00D+00  9.16D-01  7.48D-01  7.80D-01
 E= -190.423643270465     Delta-E=       -0.000352515834 Rises=F Damp=F
 DIIS: error= 1.37D-03 at cycle   6 NSaved=   6.
 NSaved= 6 IEnMin= 6 EnMin= -190.423643270465     IErMin= 6 ErrMin= 1.37D-03
 ErrMax= 1.37D-03  0.00D+00 EMaxC= 1.00D-01 BMatC= 2.46D-04 BMatP= 9.46D-04
 IDIUse=3 WtCom= 9.86D-01 WtEn= 1.37D-02
 Coeff-Com:  0.768D-02-0.149D-01 0.331D-01 0.942D-01 0.349D+00 0.531D+00
 Coeff-En:   0.000D+00 0.000D+00 0.000D+00 0.000D+00 0.000D+00 0.100D+01
 Coeff:      0.758D-02-0.147D-01 0.327D-01 0.929D-01 0.344D+00 0.537D+00
 Gap=     0.153 Goal=   None    Shift=    0.000
 Gap=     0.105 Goal=   None    Shift=    0.000
 RMSDP=6.45D-05 MaxDP=5.38D-03 DE=-3.53D-04 OVMax= 1.55D-02

 Cycle   7  Pass 1  IDiag  1:
 RMSU=  5.97D-05    CP:  1.12D+00  3.00D+00  9.09D-01  7.44D-01  7.97D-01
                    CP:  1.14D+00
 E= -190.423779388911     Delta-E=       -0.000136118446 Rises=F Damp=F
 DIIS: error= 1.06D-03 at cycle   7 NSaved=   7.
 NSaved= 7 IEnMin= 7 EnMin= -190.423779388911     IErMin= 7 ErrMin= 1.06D-03
 ErrMax= 1.06D-03  0.00D+00 EMaxC= 1.00D-01 BMatC= 1.02D-04 BMatP= 2.46D-04
 IDIUse=3 WtCom= 9.89D-01 WtEn= 1.06D-02
 Coeff-Com:  0.218D-01-0.280D-01-0.443D-01-0.817D-01-0.883D-01 0.413D+00
 Coeff-Com:  0.808D+00
 Coeff-En:   0.000D+00 0.000D+00 0.000D+00 0.000D+00 0.000D+00 0.000D+00
 Coeff-En:   0.100D+01
 Coeff:      0.215D-01-0.277D-01-0.438D-01-0.808D-01-0.874D-01 0.409D+00
 Coeff:      0.810D+00
 Gap=     0.154 Goal=   None    Shift=    0.000
 Gap=     0.106 Goal=   None    Shift=    0.000
 RMSDP=5.82D-05 MaxDP=3.37D-03 DE=-1.36D-04 OVMax= 1.60D-02

 Cycle   8  Pass 1  IDiag  1:
 RMSU=  4.03D-05    CP:  1.12D+00  3.00D+00  9.13D-01  7.45D-01  8.51D-01
                    CP:  1.54D+00  1.18D+00
 E= -190.423905662209     Delta-E=       -0.000126273297 Rises=F Damp=F
 DIIS: error= 3.72D-04 at cycle   8 NSaved=   8.
 NSaved= 8 IEnMin= 8 EnMin= -190.423905662209     IErMin= 8 ErrMin= 3.72D-04
 ErrMax= 3.72D-04  0.00D+00 EMaxC= 1.00D-01 BMatC= 1.64D-05 BMatP= 1.02D-04
 IDIUse=3 WtCom= 9.96D-01 WtEn= 3.72D-03
 Coeff-Com: -0.256D-02 0.634D-02-0.384D-02-0.149D-01-0.118D+00-0.290D+00
 Coeff-Com: -0.263D+00 0.169D+01
 Coeff-En:   0.000D+00 0.000D+00 0.000D+00 0.000D+00 0.000D+00 0.000D+00
 Coeff-En:   0.000D+00 0.100D+01
 Coeff:     -0.255D-02 0.632D-02-0.382D-02-0.149D-01-0.117D+00-0.289D+00
 Coeff:     -0.262D+00 0.168D+01
 Gap=     0.154 Goal=   None    Shift=    0.000
 Gap=     0.106 Goal=   None    Shift=    0.000
 RMSDP=6.60D-05 MaxDP=3.60D-03 DE=-1.26D-04 OVMax= 1.67D-02

 Cycle   9  Pass 1  IDiag  1:
 RMSU=  2.17D-05    CP:  1.12D+00  3.00D+00  9.11D-01  7.38D-01  8.82D-01
                    CP:  1.97D+00  1.66D+00  1.91D+00
 E= -190.423973329440     Delta-E=       -0.000067667231 Rises=F Damp=F
 DIIS: error= 1.10D-04 at cycle   9 NSaved=   9.
 NSaved= 9 IEnMin= 9 EnMin= -190.423973329440     IErMin= 9 ErrMin= 1.10D-04
 ErrMax= 1.10D-04  0.00D+00 EMaxC= 1.00D-01 BMatC= 3.33D-06 BMatP= 1.64D-05
 IDIUse=3 WtCom= 9.99D-01 WtEn= 1.10D-03
 Coeff-Com: -0.187D-02 0.273D-02 0.850D-02 0.191D-01 0.814D-02-0.111D+00
 Coeff-Com: -0.169D+00 0.185D+00 0.106D+01
 Coeff-En:   0.000D+00 0.000D+00 0.000D+00 0.000D+00 0.000D+00 0.000D+00
 Coeff-En:   0.000D+00 0.000D+00 0.100D+01
 Coeff:     -0.187D-02 0.273D-02 0.849D-02 0.191D-01 0.813D-02-0.111D+00
 Coeff:     -0.169D+00 0.185D+00 0.106D+01
 Gap=     0.154 Goal=   None    Shift=    0.000
 Gap=     0.106 Goal=   None    Shift=    0.000
 RMSDP=2.01D-05 MaxDP=9.66D-04 DE=-6.77D-05 OVMax= 5.16D-03

 Cycle  10  Pass 1  IDiag  1:
 RMSU=  9.67D-06    CP:  1.12D+00  3.00D+00  9.11D-01  7.37D-01  8.90D-01
                    CP:  2.04D+00  1.75D+00  2.21D+00  1.44D+00
 E= -190.423981037979     Delta-E=       -0.000007708539 Rises=F Damp=F
 DIIS: error= 8.43D-05 at cycle  10 NSaved=  10.
 NSaved=10 IEnMin=10 EnMin= -190.423981037979     IErMin=10 ErrMin= 8.43D-05
 ErrMax= 8.43D-05  0.00D+00 EMaxC= 1.00D-01 BMatC= 1.91D-06 BMatP= 3.33D-06
 IDIUse=1 WtCom= 1.00D+00 WtEn= 0.00D+00
 Coeff-Com:  0.490D-03-0.128D-02 0.498D-02 0.141D-01 0.309D-01 0.254D-01
 Coeff-Com: -0.762D-02-0.325D+00 0.588D+00 0.670D+00
 Coeff:      0.490D-03-0.128D-02 0.498D-02 0.141D-01 0.309D-01 0.254D-01
 Coeff:     -0.762D-02-0.325D+00 0.588D+00 0.670D+00
 Gap=     0.154 Goal=   None    Shift=    0.000
 Gap=     0.107 Goal=   None    Shift=    0.000
 RMSDP=7.45D-06 MaxDP=3.73D-04 DE=-7.71D-06 OVMax= 1.61D-03

 Cycle  11  Pass 1  IDiag  1:
 RMSU=  6.10D-06    CP:  1.12D+00  3.00D+00  9.11D-01  7.39D-01  8.89D-01
                    CP:  2.04D+00  1.74D+00  2.24D+00  1.59D+00  1.10D+00
 E= -190.423982842670     Delta-E=       -0.000001804691 Rises=F Damp=F
 DIIS: error= 4.95D-05 at cycle  11 NSaved=  11.
 NSaved=11 IEnMin=11 EnMin= -190.423982842670     IErMin=11 ErrMin= 4.95D-05
 ErrMax= 4.95D-05  0.00D+00 EMaxC= 1.00D-01 BMatC= 4.88D-07 BMatP= 1.91D-06
 IDIUse=1 WtCom= 1.00D+00 WtEn= 0.00D+00
 Coeff-Com:  0.656D-03-0.111D-02-0.207D-02-0.310D-02 0.245D-02 0.565D-01
 Coeff-Com:  0.669D-01-0.201D+00-0.294D+00 0.234D+00 0.114D+01
 Coeff:      0.656D-03-0.111D-02-0.207D-02-0.310D-02 0.245D-02 0.565D-01
 Coeff:      0.669D-01-0.201D+00-0.294D+00 0.234D+00 0.114D+01
 Gap=     0.154 Goal=   None    Shift=    0.000
 Gap=     0.107 Goal=   None    Shift=    0.000
 RMSDP=8.09D-06 MaxDP=5.00D-04 DE=-1.80D-06 OVMax= 2.10D-03

 Cycle  12  Pass 1  IDiag  1:
 RMSU=  2.97D-06    CP:  1.12D+00  3.00D+00  9.11D-01  7.39D-01  8.88D-01
                    CP:  2.05D+00  1.76D+00  2.30D+00  1.84D+00  1.44D+00
                    CP:  1.43D+00
 E= -190.423983980111     Delta-E=       -0.000001137441 Rises=F Damp=F
 DIIS: error= 1.82D-05 at cycle  12 NSaved=  12.
 NSaved=12 IEnMin=12 EnMin= -190.423983980111     IErMin=12 ErrMin= 1.82D-05
 ErrMax= 1.82D-05  0.00D+00 EMaxC= 1.00D-01 BMatC= 7.04D-08 BMatP= 4.88D-07
 IDIUse=1 WtCom= 1.00D+00 WtEn= 0.00D+00
 Coeff-Com:  0.467D-04 0.138D-04-0.187D-02-0.418D-02-0.799D-02 0.603D-02
 Coeff-Com:  0.199D-01 0.352D-01-0.206D+00-0.110D+00 0.215D+00 0.105D+01
 Coeff:      0.467D-04 0.138D-04-0.187D-02-0.418D-02-0.799D-02 0.603D-02
 Coeff:      0.199D-01 0.352D-01-0.206D+00-0.110D+00 0.215D+00 0.105D+01
 Gap=     0.154 Goal=   None    Shift=    0.000
 Gap=     0.107 Goal=   None    Shift=    0.000
 RMSDP=3.21D-06 MaxDP=2.12D-04 DE=-1.14D-06 OVMax= 7.55D-04

 Cycle  13  Pass 1  IDiag  1:
 RMSU=  1.40D-06    CP:  1.12D+00  3.00D+00  9.11D-01  7.39D-01  8.88D-01
                    CP:  2.06D+00  1.77D+00  2.32D+00  1.89D+00  1.60D+00
                    CP:  1.69D+00  1.27D+00
 E= -190.423984143562     Delta-E=       -0.000000163451 Rises=F Damp=F
 DIIS: error= 6.58D-06 at cycle  13 NSaved=  13.
 NSaved=13 IEnMin=13 EnMin= -190.423984143562     IErMin=13 ErrMin= 6.58D-06
 ErrMax= 6.58D-06  0.00D+00 EMaxC= 1.00D-01 BMatC= 8.57D-09 BMatP= 7.04D-08
 IDIUse=1 WtCom= 1.00D+00 WtEn= 0.00D+00
 Coeff-Com: -0.382D-04 0.876D-04 0.332D-03 0.517D-03 0.119D-03-0.993D-02
 Coeff-Com: -0.949D-02 0.307D-01 0.478D-01-0.306D-01-0.195D+00 0.732D-02
 Coeff-Com:  0.116D+01
 Coeff:     -0.382D-04 0.876D-04 0.332D-03 0.517D-03 0.119D-03-0.993D-02
 Coeff:     -0.949D-02 0.307D-01 0.478D-01-0.306D-01-0.195D+00 0.732D-02
 Coeff:      0.116D+01
 Gap=     0.154 Goal=   None    Shift=    0.000
 Gap=     0.107 Goal=   None    Shift=    0.000
 RMSDP=9.91D-07 MaxDP=5.37D-05 DE=-1.63D-07 OVMax= 2.16D-04

 Cycle  14  Pass 1  IDiag  1:
 RMSU=  4.77D-07    CP:  1.12D+00  3.00D+00  9.11D-01  7.39D-01  8.87D-01
                    CP:  2.06D+00  1.77D+00  2.33D+00  1.90D+00  1.61D+00
                    CP:  1.75D+00  1.45D+00  1.23D+00
 E= -190.423984159257     Delta-E=       -0.000000015695 Rises=F Damp=F
 DIIS: error= 1.68D-06 at cycle  14 NSaved=  14.
 NSaved=14 IEnMin=14 EnMin= -190.423984159257     IErMin=14 ErrMin= 1.68D-06
 ErrMax= 1.68D-06  0.00D+00 EMaxC= 1.00D-01 BMatC= 1.03D-09 BMatP= 8.57D-09
 IDIUse=1 WtCom= 1.00D+00 WtEn= 0.00D+00
 Coeff-Com:  0.276D-04-0.443D-04 0.278D-03 0.572D-03 0.788D-03-0.138D-02
 Coeff-Com: -0.364D-02 0.640D-03 0.266D-01 0.112D-01-0.508D-01-0.109D+00
 Coeff-Com:  0.107D+00 0.102D+01
 Coeff:      0.276D-04-0.443D-04 0.278D-03 0.572D-03 0.788D-03-0.138D-02
 Coeff:     -0.364D-02 0.640D-03 0.266D-01 0.112D-01-0.508D-01-0.109D+00
 Coeff:      0.107D+00 0.102D+01
 Gap=     0.154 Goal=   None    Shift=    0.000
 Gap=     0.107 Goal=   None    Shift=    0.000
 RMSDP=3.24D-07 MaxDP=2.28D-05 DE=-1.57D-08 OVMax= 4.81D-05

 Cycle  15  Pass 1  IDiag  1:
 RMSU=  1.56D-07    CP:  1.12D+00  3.00D+00  9.11D-01  7.39D-01  8.87D-01
                    CP:  2.06D+00  1.77D+00  2.33D+00  1.90D+00  1.61D+00
                    CP:  1.75D+00  1.48D+00  1.34D+00  1.26D+00
 E= -190.423984160343     Delta-E=       -0.000000001086 Rises=F Damp=F
 DIIS: error= 4.02D-07 at cycle  15 NSaved=  15.
 NSaved=15 IEnMin=15 EnMin= -190.423984160343     IErMin=15 ErrMin= 4.02D-07
 ErrMax= 4.02D-07  0.00D+00 EMaxC= 1.00D-01 BMatC= 8.81D-11 BMatP= 1.03D-09
 IDIUse=1 WtCom= 1.00D+00 WtEn= 0.00D+00
 Coeff-Com:  0.130D-04-0.187D-04-0.729D-05-0.495D-05 0.892D-05 0.106D-02
 Coeff-Com:  0.550D-03-0.288D-02-0.357D-02 0.473D-02 0.138D-01-0.620D-02
 Coeff-Com: -0.115D+00 0.138D+00 0.969D+00
 Coeff:      0.130D-04-0.187D-04-0.729D-05-0.495D-05 0.892D-05 0.106D-02
 Coeff:      0.550D-03-0.288D-02-0.357D-02 0.473D-02 0.138D-01-0.620D-02
 Coeff:     -0.115D+00 0.138D+00 0.969D+00
 Gap=     0.154 Goal=   None    Shift=    0.000
 Gap=     0.107 Goal=   None    Shift=    0.000
 RMSDP=7.28D-08 MaxDP=4.00D-06 DE=-1.09D-09 OVMax= 1.07D-05

 Cycle  16  Pass 1  IDiag  1:
 RMSU=  4.05D-08    CP:  1.12D+00  3.00D+00  9.11D-01  7.39D-01  8.87D-01
                    CP:  2.06D+00  1.77D+00  2.33D+00  1.90D+00  1.61D+00
                    CP:  1.75D+00  1.48D+00  1.34D+00  1.37D+00  9.63D-01
 E= -190.423984160407     Delta-E=       -0.000000000063 Rises=F Damp=F
 DIIS: error= 7.50D-08 at cycle  16 NSaved=  16.
 NSaved=16 IEnMin=16 EnMin= -190.423984160407     IErMin=16 ErrMin= 7.50D-08
 ErrMax= 7.50D-08  0.00D+00 EMaxC= 1.00D-01 BMatC= 3.97D-12 BMatP= 8.81D-11
 IDIUse=1 WtCom= 1.00D+00 WtEn= 0.00D+00
 Coeff-Com: -0.234D-05 0.311D-05-0.157D-04-0.242D-04-0.286D-04 0.253D-06
 Coeff-Com:  0.120D-03 0.103D-03-0.131D-02-0.979D-03 0.253D-02 0.714D-02
 Coeff-Com: -0.372D-02-0.660D-01-0.249D-01 0.109D+01
 Coeff:     -0.234D-05 0.311D-05-0.157D-04-0.242D-04-0.286D-04 0.253D-06
 Coeff:      0.120D-03 0.103D-03-0.131D-02-0.979D-03 0.253D-02 0.714D-02
 Coeff:     -0.372D-02-0.660D-01-0.249D-01 0.109D+01
 Gap=     0.154 Goal=   None    Shift=    0.000
 Gap=     0.107 Goal=   None    Shift=    0.000
 RMSDP=2.05D-08 MaxDP=1.26D-06 DE=-6.35D-11 OVMax= 1.83D-06

 Cycle  17  Pass 1  IDiag  1:
 RMSU=  1.16D-08    CP:  1.12D+00  3.00D+00  9.11D-01  7.39D-01  8.87D-01
                    CP:  2.06D+00  1.77D+00  2.33D+00  1.90D+00  1.61D+00
                    CP:  1.75D+00  1.48D+00  1.34D+00  1.37D+00  1.02D+00
                    CP:  1.26D+00
 E= -190.423984160410     Delta-E=       -0.000000000004 Rises=F Damp=F
 DIIS: error= 3.20D-08 at cycle  17 NSaved=  17.
 NSaved=17 IEnMin=17 EnMin= -190.423984160410     IErMin=17 ErrMin= 3.20D-08
 ErrMax= 3.20D-08  0.00D+00 EMaxC= 1.00D-01 BMatC= 3.79D-13 BMatP= 3.97D-12
 IDIUse=1 WtCom= 1.00D+00 WtEn= 0.00D+00
 Coeff-Com: -0.699D-06 0.117D-05-0.781D-06-0.161D-05-0.300D-05-0.735D-04
 Coeff-Com: -0.274D-04 0.211D-03 0.224D-03-0.517D-03-0.748D-03 0.697D-03
 Coeff-Com:  0.835D-02-0.129D-01-0.731D-01 0.575D-02 0.107D+01
 Coeff:     -0.699D-06 0.117D-05-0.781D-06-0.161D-05-0.300D-05-0.735D-04
 Coeff:     -0.274D-04 0.211D-03 0.224D-03-0.517D-03-0.748D-03 0.697D-03
 Coeff:      0.835D-02-0.129D-01-0.731D-01 0.575D-02 0.107D+01
 Gap=     0.154 Goal=   None    Shift=    0.000
 Gap=     0.107 Goal=   None    Shift=    0.000
 RMSDP=6.35D-09 MaxDP=3.54D-07 DE=-3.75D-12 OVMax= 6.44D-07

 SCF Done:  E(UB3LYP) =  -190.423984160     A.U. after   17 cycles
            NFock= 17  Conv=0.64D-08     -V/T= 2.0043
 <Sx>= 0.0000 <Sy>= 0.0000 <Sz>= 1.0000 <S**2>= 2.0810 S= 1.0268
 <L.S>= 0.000000000000E+00
 KE= 1.896171639166D+02 PE=-6.500270559299D+02 EE= 1.548996562202D+02
 Annihilation of the first spin contaminant:
 S**2 before annihilation     2.0810,   after     2.0004
 Leave Link  502 at Sun Jun 19 14:48:34 2016, MaxMem=    33554432 cpu:       575.4
 (Enter /home/proyectos/fulerenos/M3C-v1.9/M3C-deps_CCC/g09-AM64L-G09RevC.01/l801.exe)
 DoSCS=F DFT=T ScalE2(SS,OS)=  1.000000  1.000000
 Range of M.O.s used for correlation:     1   224
 NBasis=   225 NAE=    16 NBE=    14 NFC=     0 NFV=     0
 NROrb=    224 NOA=    16 NOB=    14 NVA=   208 NVB=   210

 **** Warning!!: The largest alpha MO coefficient is  0.77602272D+02


 **** Warning!!: The largest beta MO coefficient is  0.88259907D+02

 Leave Link  801 at Sun Jun 19 14:48:34 2016, MaxMem=    33554432 cpu:         0.2
 (Enter /home/proyectos/fulerenos/M3C-v1.9/M3C-deps_CCC/g09-AM64L-G09RevC.01/l1101.exe)
 Using compressed storage, NAtomX=     8.
 Will process      9 centers per pass.
 Leave Link 1101 at Sun Jun 19 14:48:34 2016, MaxMem=    33554432 cpu:         1.1
 (Enter /home/proyectos/fulerenos/M3C-v1.9/M3C-deps_CCC/g09-AM64L-G09RevC.01/l1102.exe)
 Symmetrizing basis deriv contribution to polar:
 IMax=3 JMax=2 DiffMx= 0.00D+00
 Leave Link 1102 at Sun Jun 19 14:48:34 2016, MaxMem=    33554432 cpu:         0.2
 (Enter /home/proyectos/fulerenos/M3C-v1.9/M3C-deps_CCC/g09-AM64L-G09RevC.01/l1110.exe)
 Forming Gx(P) for the SCF density, NAtomX=     8.
 Integral derivatives from FoFJK, PRISM(SPDF).
 Do as many integral derivatives as possible in FoFJK.
 G2DrvN: MDV=      33554264.
 G2DrvN: will do     9 centers at a time, making    1 passes.
 Calling FoFCou, ICntrl=  3107 FMM=F I1Cent=   0 AccDes= 0.00D+00.
 FoFJK:  IHMeth= 1 ICntrl=    3107 DoSepK=F KAlg= 0 I1Cent=   0 FoldK=F
 IRaf=         0 NMat=   1 IRICut=       1 DoRegI=T DoRafI=F ISym2E= 1.
 FoFCou: FMM=F IPFlag=           0 FMFlag=      100000 FMFlg1=           0
         NFxFlg=           0 DoJE=F BraDBF=F KetDBF=F FulRan=T
         wScrn=  0.000000 ICntrl=    3107 IOpCl=  1 I1Cent=           0 NGrid=           0
         NMat0=    1 NMatS0=      1 NMatT0=    0 NMatD0=    1 NMtDS0=    0 NMtDT0=    0
 Petite list used in FoFCou.
 End of G2Drv F.D. properties file   721 does not exist.
 End of G2Drv F.D. properties file   722 does not exist.
 End of G2Drv F.D. properties file   788 does not exist.
 Leave Link 1110 at Sun Jun 19 14:49:48 2016, MaxMem=    33554432 cpu:       291.1
 (Enter /home/proyectos/fulerenos/M3C-v1.9/M3C-deps_CCC/g09-AM64L-G09RevC.01/l1002.exe)
 Minotr:  UHF open shell wavefunction.
          IDoAtm=11111111
          Direct CPHF calculation.
          Differentiating once with respect to electric field.
                with respect to dipole field.
          Differentiating once with respect to nuclear coordinates.
          Using symmetry in CPHF.
          Requested convergence is 1.0D-08 RMS, and 1.0D-07 maximum.
          Secondary convergence is 1.0D-12 RMS, and 1.0D-12 maximum.
          NewPWx=T KeepS1=F KeepF1=F KeepIn=T MapXYZ=F SortEE=F KeepMc=T.
          MDV=      33553900 using IRadAn=       2.
 Generate precomputed XC quadrature information.
          Solving linear equations simultaneously, MaxMat=       0.
 FoFJK:  IHMeth= 1 ICntrl=       0 DoSepK=F KAlg= 0 I1Cent=   0 FoldK=F
 IRaf= 970000000 NMat=  27 IRICut=      67 DoRegI=T DoRafI=T ISym2E= 2.
 FoFCou: FMM=F IPFlag=           0 FMFlag=      100000 FMFlg1=           0
         NFxFlg=           0 DoJE=F BraDBF=F KetDBF=F FulRan=T
         wScrn=  0.000000 ICntrl=       0 IOpCl=  1 I1Cent=           0 NGrid=           0
         NMat0=   27 NMatS0=     27 NMatT0=    0 NMatD0=   27 NMtDS0=    0 NMtDT0=    0
 Integrals replicated using symmetry in FoFCou.
          There are    27 degrees of freedom in the 1st order CPHF.  IDoFFX=6 NUNeed=     3.
     24 vectors produced by pass  0 Test12= 2.32D-14 3.70D-09 XBig12= 5.39D+02 1.53D+01.
 AX will form    24 AO Fock derivatives at one time.
     24 vectors produced by pass  1 Test12= 2.32D-14 3.70D-09 XBig12= 7.30D+01 1.87D+00.
     24 vectors produced by pass  2 Test12= 2.32D-14 3.70D-09 XBig12= 3.02D+00 6.97D-01.
     24 vectors produced by pass  3 Test12= 2.32D-14 3.70D-09 XBig12= 5.10D-02 3.30D-02.
     24 vectors produced by pass  4 Test12= 2.32D-14 3.70D-09 XBig12= 4.44D-04 2.44D-03.
     24 vectors produced by pass  5 Test12= 2.32D-14 3.70D-09 XBig12= 1.64D-06 1.52D-04.
     24 vectors produced by pass  6 Test12= 2.32D-14 3.70D-09 XBig12= 7.89D-09 1.26D-05.
      9 vectors produced by pass  7 Test12= 2.32D-14 3.70D-09 XBig12= 2.73D-11 9.58D-07.
      4 vectors produced by pass  8 Test12= 2.32D-14 3.70D-09 XBig12= 2.25D-13 8.61D-08.
      2 vectors produced by pass  9 Test12= 2.32D-14 3.70D-09 XBig12= 2.12D-14 2.56D-08.
 InvSVY:  IOpt=1 It=  1 EMax= 1.42D-14
 Solved reduced A of dimension   183 with    27 vectors.
 FullF1:  Do perturbations    1 to     3.
 Isotropic polarizability for W=    0.000000       49.72 Bohr**3.
 End of Minotr F.D. properties file   721 does not exist.
 End of Minotr F.D. properties file   722 does not exist.
 End of Minotr F.D. properties file   788 does not exist.
 Leave Link 1002 at Sun Jun 19 14:53:55 2016, MaxMem=    33554432 cpu:       988.6
 (Enter /home/proyectos/fulerenos/M3C-v1.9/M3C-deps_CCC/g09-AM64L-G09RevC.01/l601.exe)
 Copying SCF densities to generalized density rwf, IOpCl= 1 IROHF=0.

 **********************************************************************

            Population analysis using the SCF density.

 **********************************************************************

 Orbital symmetries:
 Alpha Orbitals:
       Occupied  (A') (A') (A') (A') (A') (A') (A') (A') (A') (A')
                 (A') (A') (A') (A") (A') (A")
       Virtual   (A") (A') (A') (A") (A") (A') (A') (A') (A') (A')
                 (A') (A") (A') (A") (A') (A') (A") (A') (A') (A')
                 (A") (A") (A') (A') (A') (A') (A") (A') (A') (A")
                 (A') (A') (A") (A') (A') (A') (A') (A") (A') (A')
                 (A') (A') (A') (A") (A") (A") (A') (A') (A') (A')
                 (A") (A') (A") (A') (A') (A") (A') (A') (A") (A')
                 (A') (A") (A') (A') (A") (A') (A') (A') (A') (A")
                 (A") (A') (A') (A') (A') (A") (A') (A') (A") (A')
                 (A') (A") (A') (A') (A') (A") (A') (A') (A') (A")
                 (A') (A") (A') (A') (A") (A') (A") (A') (A") (A')
                 (A') (A') (A") (A') (A") (A') (A') (A') (A') (A")
                 (A') (A") (A') (A') (A") (A") (A') (A') (A") (A')
                 (A") (A') (A') (A") (A') (A') (A") (A") (A') (A")
                 (A') (A') (A") (A") (A') (A') (A") (A') (A") (A')
                 (A') (A") (A') (A') (A') (A') (A") (A') (A") (A')
                 (A') (A') (A') (A") (A') (A') (A') (A") (A') (A')
                 (A") (A") (A') (A') (A") (A') (A") (A') (A') (A')
                 (A') (A") (A") (A') (A') (A') (A') (A') (A") (A')
                 (A") (A') (A") (A') (A") (A") (A') (A") (A") (A')
                 (A') (A") (A') (A') (A") (A') (A') (A") (A') (A')
                 (A') (A') (A') (A') (A') (A') (A') (A')
 Beta  Orbitals:
       Occupied  (A') (A') (A') (A') (A') (A') (A') (A') (A') (A')
                 (A') (A') (A") (A")
       Virtual   (A') (A') (A") (A') (A") (A') (A") (A') (A') (A')
                 (A') (A') (A') (A") (A') (A") (A') (A') (A") (A')
                 (A') (A") (A") (A') (A') (A') (A') (A') (A") (A')
                 (A') (A") (A') (A') (A") (A') (A') (A') (A') (A")
                 (A') (A') (A') (A') (A") (A') (A") (A") (A') (A')
                 (A') (A") (A') (A') (A") (A') (A") (A') (A') (A')
                 (A") (A') (A') (A") (A') (A') (A") (A') (A') (A')
                 (A') (A") (A") (A') (A') (A') (A') (A") (A') (A')
                 (A") (A') (A') (A") (A') (A') (A') (A") (A') (A')
                 (A') (A") (A') (A") (A') (A') (A") (A') (A") (A')
                 (A') (A") (A') (A') (A") (A') (A") (A') (A') (A')
                 (A") (A') (A') (A") (A') (A') (A") (A') (A") (A")
                 (A') (A') (A") (A") (A') (A') (A') (A') (A") (A")
                 (A") (A') (A') (A') (A") (A") (A') (A') (A") (A')
                 (A") (A') (A') (A") (A') (A') (A') (A") (A') (A')
                 (A") (A') (A') (A') (A') (A") (A') (A') (A') (A")
                 (A') (A') (A") (A") (A') (A') (A") (A') (A") (A')
                 (A') (A') (A") (A') (A") (A') (A') (A') (A') (A')
                 (A") (A") (A') (A') (A") (A') (A") (A") (A') (A")
                 (A") (A') (A') (A") (A') (A') (A") (A') (A') (A")
                 (A') (A') (A') (A') (A') (A') (A') (A') (A') (A')
 The electronic state is 3-A'.
 Alpha  occ. eigenvalues --  -11.07412 -11.01740 -10.99677 -10.99022 -10.92048
 Alpha  occ. eigenvalues --   -1.56839  -1.52489  -1.44500  -1.28706  -1.22115
 Alpha  occ. eigenvalues --   -1.19285  -1.12402  -1.10833  -1.07439  -1.04979
 Alpha  occ. eigenvalues --   -1.00944
 Alpha virt. eigenvalues --   -0.85508  -0.80121  -0.73453  -0.68985  -0.59616
 Alpha virt. eigenvalues --   -0.52597  -0.51061  -0.50089  -0.44459  -0.44070
 Alpha virt. eigenvalues --   -0.42139  -0.40667  -0.38934  -0.37813  -0.37525
 Alpha virt. eigenvalues --   -0.35286  -0.34771  -0.32304  -0.31764  -0.30138
 Alpha virt. eigenvalues --   -0.29755  -0.28821  -0.28014  -0.27003  -0.25818
 Alpha virt. eigenvalues --   -0.25029  -0.23899  -0.23616  -0.21614  -0.19824
 Alpha virt. eigenvalues --   -0.19709  -0.19366  -0.18555  -0.17917  -0.16421
 Alpha virt. eigenvalues --   -0.14835  -0.13478  -0.11261  -0.10977  -0.10112
 Alpha virt. eigenvalues --   -0.08802  -0.08064  -0.07369  -0.07174  -0.05920
 Alpha virt. eigenvalues --   -0.04962  -0.03663  -0.03495  -0.02612  -0.01693
 Alpha virt. eigenvalues --   -0.00687   0.00449   0.00486   0.01436   0.02809
 Alpha virt. eigenvalues --    0.03062   0.06547   0.07599   0.08253   0.08588
 Alpha virt. eigenvalues --    0.11286   0.13867   0.15859   0.17470   0.19181
 Alpha virt. eigenvalues --    0.19276   0.21227   0.22376   0.26962   0.28857
 Alpha virt. eigenvalues --    0.33620   0.35049   0.36550   0.41472   0.44603
 Alpha virt. eigenvalues --    0.45719   0.50984   0.54360   0.57204   0.59015
 Alpha virt. eigenvalues --    0.62511   0.63797   0.65362   0.66205   0.68836
 Alpha virt. eigenvalues --    0.72075   0.73222   0.76417   0.78558   0.79714
 Alpha virt. eigenvalues --    0.80026   0.81033   0.81818   0.84008   0.93205
 Alpha virt. eigenvalues --    0.94131   0.94681   0.96835   1.00642   1.01267
 Alpha virt. eigenvalues --    1.01399   1.03605   1.06389   1.18398   1.19237
 Alpha virt. eigenvalues --    1.23555   1.29578   1.34680   1.47170   1.47262
 Alpha virt. eigenvalues --    1.56939   1.57457   1.72344   1.79622   1.86734
 Alpha virt. eigenvalues --    1.90336   1.91607   1.92025   1.92792   1.95662
 Alpha virt. eigenvalues --    2.01705   2.02210   2.02675   2.03824   2.06840
 Alpha virt. eigenvalues --    2.07269   2.09925   2.12435   2.14347   2.15576
 Alpha virt. eigenvalues --    2.16185   2.17527   2.22571   2.22984   2.24539
 Alpha virt. eigenvalues --    2.27258   2.28397   2.33076   2.35102   2.36912
 Alpha virt. eigenvalues --    2.44293   2.44308   2.50084   2.52601   2.63386
 Alpha virt. eigenvalues --    2.70992   2.71260   2.72708   2.74618   2.79920
 Alpha virt. eigenvalues --    2.80908   2.98659   3.04135   3.06332   3.12281
 Alpha virt. eigenvalues --    3.17194   3.21524   3.30048   3.32451   3.40606
 Alpha virt. eigenvalues --    3.43508   3.52075   3.55142   3.59807   3.71305
 Alpha virt. eigenvalues --    3.78226   3.86508   3.87922   4.05057   4.22503
 Alpha virt. eigenvalues --    4.35296   4.35756   4.66396   4.73704   4.91682
 Alpha virt. eigenvalues --    5.09244   5.37235   5.50747   6.12129   6.13718
 Alpha virt. eigenvalues --    6.21300   6.25413   6.27276   6.28919   6.38178
 Alpha virt. eigenvalues --    6.39488   6.40130   6.45718   6.47067   6.47963
 Alpha virt. eigenvalues --    6.54276   6.62109   6.71674   6.74162   6.79704
 Alpha virt. eigenvalues --    6.87847   6.94257   6.96647   7.21895   7.28646
 Alpha virt. eigenvalues --    7.35820   7.62460   7.78127  23.06882  23.54931
 Alpha virt. eigenvalues --   24.63534  25.27001  25.39673
  Beta  occ. eigenvalues --  -11.03757 -11.01958 -10.99078 -10.98838 -10.91961
  Beta  occ. eigenvalues --   -1.55322  -1.49848  -1.42105  -1.28093  -1.21643
  Beta  occ. eigenvalues --   -1.18738  -1.10666  -1.06697  -0.99975
  Beta virt. eigenvalues --   -0.89294  -0.85758  -0.83706  -0.80201  -0.67208
  Beta virt. eigenvalues --   -0.63901  -0.58059  -0.51992  -0.50669  -0.49693
  Beta virt. eigenvalues --   -0.44169  -0.43604  -0.41368  -0.40679  -0.38371
  Beta virt. eigenvalues --   -0.37702  -0.36787  -0.34726  -0.34704  -0.31249
  Beta virt. eigenvalues --   -0.30526  -0.29320  -0.28582  -0.28317  -0.27301
  Beta virt. eigenvalues --   -0.26438  -0.25266  -0.24616  -0.23774  -0.23194
  Beta virt. eigenvalues --   -0.21433  -0.19359  -0.19343  -0.18756  -0.17976
  Beta virt. eigenvalues --   -0.17562  -0.16179  -0.14461  -0.12519  -0.11294
  Beta virt. eigenvalues --   -0.10469  -0.09712  -0.08570  -0.07588  -0.07230
  Beta virt. eigenvalues --   -0.06409  -0.05449  -0.04411  -0.03109  -0.01967
  Beta virt. eigenvalues --   -0.01561  -0.00625   0.00163   0.01468   0.01532
  Beta virt. eigenvalues --    0.02662   0.03967   0.04194   0.07073   0.07942
  Beta virt. eigenvalues --    0.08517   0.09139   0.11696   0.13901   0.17267
  Beta virt. eigenvalues --    0.17908   0.19629   0.20229   0.21816   0.23594
  Beta virt. eigenvalues --    0.28001   0.29145   0.34407   0.35602   0.37905
  Beta virt. eigenvalues --    0.41877   0.45264   0.45892   0.51767   0.54679
  Beta virt. eigenvalues --    0.57408   0.59777   0.63484   0.63755   0.65624
  Beta virt. eigenvalues --    0.66675   0.69578   0.73585   0.76511   0.77636
  Beta virt. eigenvalues --    0.79415   0.80359   0.82303   0.84331   0.84610
  Beta virt. eigenvalues --    0.85245   0.93838   0.94511   0.94972   0.96681
  Beta virt. eigenvalues --    1.03256   1.04025   1.05291   1.06829   1.09722
  Beta virt. eigenvalues --    1.20024   1.20306   1.25495   1.31677   1.43458
  Beta virt. eigenvalues --    1.47371   1.48593   1.58405   1.60342   1.74488
  Beta virt. eigenvalues --    1.82487   1.89104   1.92336   1.94075   1.95652
  Beta virt. eigenvalues --    1.96485   1.96701   2.01342   2.04046   2.04427
  Beta virt. eigenvalues --    2.05485   2.07616   2.10018   2.11443   2.13760
  Beta virt. eigenvalues --    2.16457   2.16667   2.17728   2.20893   2.23185
  Beta virt. eigenvalues --    2.24968   2.27341   2.31231   2.31279   2.36109
  Beta virt. eigenvalues --    2.37463   2.37964   2.44810   2.45961   2.50331
  Beta virt. eigenvalues --    2.53655   2.64522   2.71692   2.72865   2.75481
  Beta virt. eigenvalues --    2.75795   2.82038   2.83327   2.99908   3.04347
  Beta virt. eigenvalues --    3.09452   3.13471   3.18833   3.24130   3.31562
  Beta virt. eigenvalues --    3.39218   3.41487   3.44191   3.52563   3.55315
  Beta virt. eigenvalues --    3.60829   3.71657   3.79335   3.87079   3.88660
  Beta virt. eigenvalues --    4.05986   4.24031   4.35481   4.36714   4.68327
  Beta virt. eigenvalues --    4.75183   4.92258   5.10511   5.38019   5.51543
  Beta virt. eigenvalues --    6.18506   6.21098   6.21498   6.24588   6.31516
  Beta virt. eigenvalues --    6.33932   6.38597   6.39674   6.44783   6.46553
  Beta virt. eigenvalues --    6.52897   6.54136   6.58037   6.62050   6.73028
  Beta virt. eigenvalues --    6.78167   6.80816   6.89442   6.95326   6.96769
  Beta virt. eigenvalues --    7.22506   7.29418   7.36105   7.64713   7.79029
  Beta virt. eigenvalues --   23.08247  23.55673  24.63830  25.30072  25.39618
          Condensed to atoms (all electrons):
               1          2          3          4          5          6
     1  C    7.167969   0.277082  -1.716379  -0.120102  -0.254489   0.056320
     2  H    0.277082   0.234473  -0.015343   0.005435  -0.005475   0.000962
     3  C   -1.716379  -0.015343   7.562635   0.522229   0.071255  -0.146826
     4  H   -0.120102   0.005435   0.522229   0.414224  -0.079079  -0.000395
     5  C   -0.254489  -0.005475   0.071255  -0.079079   6.154255   0.449553
     6  H    0.056320   0.000962  -0.146826  -0.000395   0.449553   0.374505
     7  C    0.009705  -0.003304  -0.024988   0.004146  -0.122382  -0.116075
     8  C    0.218054   0.003616  -0.352736  -0.029023  -0.335889   0.080518
               7          8
     1  C    0.009705   0.218054
     2  H   -0.003304   0.003616
     3  C   -0.024988  -0.352736
     4  H    0.004146  -0.029023
     5  C   -0.122382  -0.335889
     6  H   -0.116075   0.080518
     7  C    7.683111  -2.200502
     8  C   -2.200502   8.057054
          Atomic-Atomic Spin Densities.
               1          2          3          4          5          6
     1  C    0.257254   0.007418  -0.357237  -0.012675  -0.063140  -0.009301
     2  H    0.007418   0.003574  -0.007220  -0.000196  -0.001019   0.000011
     3  C   -0.357237  -0.007220   0.425580   0.014135   0.038660   0.011656
     4  H   -0.012675  -0.000196   0.014135   0.000840   0.001077   0.000388
     5  C   -0.063140  -0.001019   0.038660   0.001077   0.116274   0.013144
     6  H   -0.009301   0.000011   0.011656   0.000388   0.013144   0.019944
     7  C    0.093961   0.000814  -0.122327  -0.004722  -0.080161  -0.004836
     8  C   -0.010343  -0.000012   0.017681   0.000790  -0.020723  -0.001232
               7          8
     1  C    0.093961  -0.010343
     2  H    0.000814  -0.000012
     3  C   -0.122327   0.017681
     4  H   -0.004722   0.000790
     5  C   -0.080161  -0.020723
     6  H   -0.004836  -0.001232
     7  C    1.229796  -0.730044
     8  C   -0.730044   2.397641
 Mulliken charges and spin densities:
               1          2
     1  C    0.361841  -0.094062
     2  H    0.502555   0.003371
     3  C    0.100153   0.020929
     4  H    0.282565  -0.000362
     5  C    0.122252   0.004112
     6  H    0.301438   0.029774
     7  C    0.770289   0.382481
     8  C    0.558907   1.653758
 Sum of Mulliken charges =   3.00000   2.00000
 Mulliken charges and spin densities with hydrogens summed into heavy atoms:
               1          2
     1  C    0.864396  -0.090691
     3  C    0.382718   0.020566
     5  C    0.423690   0.033887
     7  C    0.770289   0.382481
     8  C    0.558907   1.653758
 APT charges:
               1
     1  C    0.827250
     2  H    0.503177
     3  C   -0.643452
     4  H    0.325959
     5  C    0.740960
     6  H    0.304539
     7  C   -0.198626
     8  C    1.140193
 Sum of APT charges =   3.00000
 APT charges with hydrogens summed into heavy atoms:
               1
     1  C    1.330427
     3  C   -0.317493
     5  C    1.045500
     7  C   -0.198626
     8  C    1.140193
 Electronic spatial extent (au):  <R**2>=            403.0446
 Charge=              3.0000 electrons
 Dipole moment (field-independent basis, Debye):
    X=             -1.0819    Y=             -0.4811    Z=             -0.0000  Tot=              1.1840
 Quadrupole moment (field-independent basis, Debye-Ang):
   XX=             47.8518   YY=            -10.0234   ZZ=            -23.1923
   XY=             14.3950   XZ=              0.0000   YZ=              0.0000
 Traceless Quadrupole moment (field-independent basis, Debye-Ang):
   XX=             42.9731   YY=            -14.9021   ZZ=            -28.0710
   XY=             14.3950   XZ=              0.0000   YZ=              0.0000
 Octapole moment (field-independent basis, Debye-Ang**2):
  XXX=            -17.2518  YYY=             -3.1565  ZZZ=              0.0000  XYY=             -8.2964
  XXY=            -10.7057  XXZ=             -0.0000  XZZ=              0.2087  YZZ=              0.2043
  YYZ=             -0.0000  XYZ=             -0.0000
 Hexadecapole moment (field-independent basis, Debye-Ang**3):
 XXXX=            181.0725 YYYY=            -33.1251 ZZZZ=            -21.0153 XXXY=             65.9443
 XXXZ=              0.0000 YYYX=            -35.0948 YYYZ=             -0.0000 ZZZX=             -0.0000
 ZZZY=             -0.0000 XXYY=            -48.4969 XXZZ=            -72.4115 YYZZ=            -14.2736
 XXYZ=              0.0000 YYXZ=             -0.0000 ZZXY=            -15.9134
 N-N= 1.150862516327D+02 E-N=-6.500270560962D+02  KE= 1.896171639166D+02
 Symmetry A'   KE= 1.846537878085D+02
 Symmetry A"   KE= 4.963376108117D+00
  Exact polarizability:  94.496  13.466  32.280  -0.000  -0.000  22.397
 Approx polarizability: 207.293  25.030  49.587   0.000   0.000  31.012
                          Isotropic Fermi Contact Couplings
        Atom                 a.u.       MegaHertz       Gauss      10(-4) cm-1
     1  C(13)             -0.01002      -5.63304      -2.01001      -1.87898
     2  H(1)               0.00230       5.13843       1.83352       1.71400
     3  C(13)              0.03023      16.99222       6.06325       5.66799
     4  H(1)               0.00038       0.84815       0.30264       0.28291
     5  C(13)             -0.00546      -3.07021      -1.09553      -1.02411
     6  H(1)               0.02105      47.04960      16.78847      15.69406
     7  C(13)              0.19074     107.21233      38.25602      35.76218
     8  C(13)              1.47217     827.49869     295.27210     276.02385
 --------------------------------------------------------
       Center         ----  Spin Dipole Couplings  ----
                      3XX-RR        3YY-RR        3ZZ-RR
 --------------------------------------------------------
     1   Atom        0.099877      0.095091     -0.194967
     2   Atom       -0.007021      0.006966      0.000056
     3   Atom        0.000379     -0.002992      0.002613
     4   Atom        0.002272      0.003200     -0.005472
     5   Atom        0.060096      0.043712     -0.103808
     6   Atom        0.011286      0.003567     -0.014853
     7   Atom        0.007385      0.530177     -0.537562
     8   Atom        0.311849      0.251693     -0.563542
 --------------------------------------------------------
                        XY            XZ            YZ
 --------------------------------------------------------
     1   Atom       -0.004320      0.000000      0.000000
     2   Atom       -0.001677      0.000000      0.000000
     3   Atom        0.019396      0.000000      0.000000
     4   Atom        0.010495      0.000000      0.000000
     5   Atom       -0.019193      0.000000     -0.000000
     6   Atom       -0.009806      0.000000     -0.000000
     7   Atom       -0.018186      0.000000     -0.000000
     8   Atom       -0.022090      0.000000     -0.000000
 --------------------------------------------------------


 ---------------------------------------------------------------------------------
              Anisotropic Spin Dipole Couplings in Principal Axis System
 ---------------------------------------------------------------------------------

       Atom             a.u.   MegaHertz   Gauss  10(-4) cm-1        Axes

              Baa    -0.1950   -26.163    -9.336    -8.727  0.0000  0.0000  1.0000
     1 C(13)  Bbb     0.0925    12.419     4.431     4.142  0.5077  0.8616 -0.0000
              Bcc     0.1024    13.744     4.904     4.585  0.8616 -0.5077 -0.0000
 
              Baa    -0.0072    -3.852    -1.375    -1.285  0.9931  0.1174 -0.0000
     2 H(1)   Bbb     0.0001     0.030     0.011     0.010  0.0000  0.0000  1.0000
              Bcc     0.0072     3.822     1.364     1.275 -0.1174  0.9931 -0.0000
 
              Baa    -0.0208    -2.788    -0.995    -0.930 -0.6758  0.7371  0.0000
     3 C(13)  Bbb     0.0026     0.351     0.125     0.117  0.0000  0.0000  1.0000
              Bcc     0.0182     2.437     0.870     0.813  0.7371  0.6758 -0.0000
 
              Baa    -0.0078    -4.146    -1.479    -1.383  0.7226 -0.6913 -0.0000
     4 H(1)   Bbb    -0.0055    -2.919    -1.042    -0.974  0.0000  0.0000  1.0000
              Bcc     0.0132     7.065     2.521     2.357  0.6913  0.7226 -0.0000
 
              Baa    -0.1038   -13.930    -4.971    -4.647  0.0000  0.0000  1.0000
     5 C(13)  Bbb     0.0310     4.165     1.486     1.389  0.5511  0.8344  0.0000
              Bcc     0.0728     9.765     3.485     3.257  0.8344 -0.5511  0.0000
 
              Baa    -0.0149    -7.925    -2.828    -2.643  0.0000  0.0000  1.0000
     6 H(1)   Bbb    -0.0031    -1.660    -0.592    -0.554  0.5629  0.8265 -0.0000
              Bcc     0.0180     9.585     3.420     3.197  0.8265 -0.5629  0.0000
 
              Baa    -0.5376   -72.136   -25.740   -24.062  0.0000  0.0000  1.0000
     7 C(13)  Bbb     0.0068     0.906     0.323     0.302  0.9994  0.0347  0.0000
              Bcc     0.5308    71.229    25.416    23.760 -0.0347  0.9994 -0.0000
 
              Baa    -0.5635   -75.622   -26.984   -25.225  0.0000  0.0000  1.0000
     8 C(13)  Bbb     0.2445    32.803    11.705    10.942  0.3115  0.9503  0.0000
              Bcc     0.3191    42.819    15.279    14.283  0.9503 -0.3115  0.0000
 

 ---------------------------------------------------------------------------------

 No NMR shielding tensors so no spin-rotation constants.
 Leave Link  601 at Sun Jun 19 14:53:57 2016, MaxMem=    33554432 cpu:         6.1
 (Enter /home/proyectos/fulerenos/M3C-v1.9/M3C-deps_CCC/g09-AM64L-G09RevC.01/l701.exe)
 Compute integral second derivatives.
 ... and contract with generalized density number  0.
 Leave Link  701 at Sun Jun 19 14:53:58 2016, MaxMem=    33554432 cpu:         1.6
 (Enter /home/proyectos/fulerenos/M3C-v1.9/M3C-deps_CCC/g09-AM64L-G09RevC.01/l702.exe)
 L702 exits ... SP integral derivatives will be done elsewhere.
 Leave Link  702 at Sun Jun 19 14:53:58 2016, MaxMem=    33554432 cpu:         0.1
 (Enter /home/proyectos/fulerenos/M3C-v1.9/M3C-deps_CCC/g09-AM64L-G09RevC.01/l703.exe)
 Compute integral second derivatives, UseDBF=F ICtDFT=           0.
 Integral derivatives from FoFJK, PRISM(SPDF).
 Calling FoFJK, ICntrl=    100127 FMM=F ISym2X=1 I1Cent= 0 IOpClX= 1 NMat=1 NMatS=1 NMatT=0.
 FoFJK:  IHMeth= 1 ICntrl=  100127 DoSepK=F KAlg= 0 I1Cent=   0 FoldK=F
 IRaf=         0 NMat=   1 IRICut=       1 DoRegI=T DoRafI=F ISym2E= 1.
 FoFCou: FMM=F IPFlag=           0 FMFlag=      100000 FMFlg1=         800
         NFxFlg=           0 DoJE=F BraDBF=F KetDBF=F FulRan=T
         wScrn=  0.000000 ICntrl=  100127 IOpCl=  1 I1Cent=           0 NGrid=           0
         NMat0=    1 NMatS0=      1 NMatT0=    0 NMatD0=    1 NMtDS0=    0 NMtDT0=    0
 Petite list used in FoFCou.
 Leave Link  703 at Sun Jun 19 14:56:01 2016, MaxMem=    33554432 cpu:       492.1
 (Enter /home/proyectos/fulerenos/M3C-v1.9/M3C-deps_CCC/g09-AM64L-G09RevC.01/l716.exe)
 Dipole        =-4.25647206D-01-1.89280148D-01-2.13214794D-32
 Polarizability= 9.44963640D+01 1.34660127D+01 3.22804372D+01
                -1.24712444D-08-1.41370018D-08 2.23972750D+01
 Full mass-weighted force constant matrix:
 Low frequencies ---  -12.5452   -2.9010    0.0006    0.0006    0.0007    4.5457
 Low frequencies ---  147.2266  180.5920  293.5631
 Diagonal vibrational polarizability:
       16.7567982      19.2125999      25.9122156
 Harmonic frequencies (cm**-1), IR intensities (KM/Mole), Raman scattering
 activities (A**4/AMU), depolarization ratios for plane and unpolarized
 incident light, reduced masses (AMU), force constants (mDyne/A),
 and normal coordinates:
                      1                      2                      3
                     A"                     A'                     A'
 Frequencies --    147.2257               180.5920               293.5630
 Red. masses --      3.2007                 4.5004                 3.3118
 Frc consts  --      0.0409                 0.0865                 0.1682
 IR Inten    --     15.0229                17.2831                10.8107
  Atom  AN      X      Y      Z        X      Y      Z        X      Y      Z
     1   6     0.00  -0.00   0.25    -0.07   0.25   0.00    -0.13  -0.13   0.00
     2   1     0.00  -0.00   0.67    -0.15   0.72   0.00    -0.04  -0.70   0.00
     3   6     0.00   0.00  -0.23    -0.04  -0.20  -0.00    -0.17   0.25  -0.00
     4   1     0.00   0.00  -0.58    -0.17  -0.20  -0.00    -0.44   0.13  -0.00
     5   6    -0.00   0.00  -0.16     0.05  -0.27  -0.00     0.11  -0.05  -0.00
     6   1    -0.00   0.00  -0.08     0.09  -0.26   0.00     0.31   0.02  -0.00
     7   6    -0.00   0.00  -0.09     0.05  -0.13  -0.00     0.11  -0.17  -0.00
     8   6    -0.00  -0.00   0.23     0.03   0.34   0.00     0.10   0.15   0.00
                      4                      5                      6
                     A"                     A'                     A"
 Frequencies --    326.8005               531.9829               676.1672
 Red. masses --      5.4413                 6.8683                 1.2495
 Frc consts  --      0.3424                 1.1452                 0.3366
 IR Inten    --      1.3630                 2.0586               101.9659
  Atom  AN      X      Y      Z        X      Y      Z        X      Y      Z
     1   6    -0.00   0.00   0.06    -0.22  -0.02   0.00    -0.00  -0.00  -0.00
     2   1    -0.00   0.00   0.43    -0.22  -0.05  -0.00    -0.00  -0.00   0.27
     3   6    -0.00  -0.00  -0.19    -0.19  -0.10   0.00    -0.00  -0.00  -0.14
     4   1    -0.00  -0.00  -0.05    -0.50  -0.20  -0.00     0.00   0.00   0.88
     5   6     0.00  -0.00  -0.11     0.06  -0.19  -0.00    -0.00   0.00   0.03
     6   1    -0.00  -0.00  -0.64    -0.24  -0.28   0.00    -0.00   0.00   0.37
     7   6     0.00   0.00   0.53     0.18   0.53  -0.00     0.00   0.00  -0.02
     8   6     0.00   0.00  -0.26     0.25  -0.16   0.00     0.00  -0.00   0.01
                      7                      8                      9
                     A'                     A"                     A"
 Frequencies --    783.6537               790.4719               866.9066
 Red. masses --      2.4153                 1.3850                 1.8333
 Frc consts  --      0.8739                 0.5099                 0.8118
 IR Inten    --     21.4255                14.8347                 7.7168
  Atom  AN      X      Y      Z        X      Y      Z        X      Y      Z
     1   6    -0.16  -0.11   0.00    -0.00  -0.00  -0.15    -0.00  -0.00  -0.06
     2   1    -0.28   0.52  -0.00    -0.00   0.00   0.94    -0.00   0.00   0.27
     3   6    -0.07  -0.09  -0.00    -0.00  -0.00   0.06    -0.00   0.00   0.13
     4   1     0.67   0.14  -0.00     0.00   0.00  -0.10     0.00   0.00  -0.12
     5   6    -0.06   0.18  -0.00    -0.00   0.00   0.07     0.00  -0.00  -0.22
     6   1     0.04   0.20   0.00     0.00   0.00  -0.26     0.00   0.00   0.92
     7   6     0.10  -0.08   0.00     0.00  -0.00  -0.03     0.00   0.00   0.07
     8   6     0.15   0.02  -0.00     0.00  -0.00   0.00    -0.00   0.00  -0.01
                     10                     11                     12
                     A'                     A'                     A'
 Frequencies --    971.2169              1045.1360              1152.9687
 Red. masses --      1.9021                 1.3621                 1.7336
 Frc consts  --      1.0571                 0.8766                 1.3578
 IR Inten    --      7.8639                12.4237                20.2612
  Atom  AN      X      Y      Z        X      Y      Z        X      Y      Z
     1   6    -0.03  -0.07   0.00     0.08  -0.14   0.00    -0.05   0.01   0.00
     2   1    -0.12   0.36  -0.00    -0.05   0.78  -0.00    -0.04  -0.12  -0.00
     3   6    -0.01   0.10  -0.00    -0.02   0.07   0.00     0.00  -0.15  -0.00
     4   1     0.64   0.28   0.00    -0.58  -0.13   0.00    -0.41  -0.27   0.00
     5   6     0.14  -0.14   0.00     0.01   0.02  -0.00     0.13   0.13   0.00
     6   1     0.53   0.00  -0.00    -0.07   0.00   0.00     0.74   0.36  -0.00
     7   6    -0.06   0.08  -0.00    -0.00  -0.00   0.00    -0.02   0.02  -0.00
     8   6    -0.12  -0.02  -0.00    -0.01   0.00   0.00    -0.08  -0.00  -0.00
                     13                     14                     15
                     A'                     A'                     A'
 Frequencies --   1334.6699              1719.0183              1819.7099
 Red. masses --      2.2137                 5.2553                11.5716
 Frc consts  --      2.3234                 9.1498                22.5761
 IR Inten    --     17.4272               919.5142               410.9735
  Atom  AN      X      Y      Z        X      Y      Z        X      Y      Z
     1   6    -0.10  -0.01   0.00    -0.32  -0.04  -0.00     0.05   0.01   0.00
     2   1    -0.14  -0.01  -0.00    -0.64   0.05   0.00     0.06  -0.00  -0.00
     3   6     0.03  -0.03  -0.00     0.50   0.11   0.00    -0.06   0.00  -0.00
     4   1     0.02  -0.01  -0.00    -0.41  -0.09  -0.00     0.07  -0.03   0.00
     5   6     0.27   0.09   0.00    -0.13  -0.07   0.00    -0.23  -0.01   0.00
     6   1    -0.89  -0.28  -0.00     0.15  -0.03  -0.00     0.17   0.04  -0.00
     7   6     0.02  -0.03  -0.00     0.03   0.00   0.00     0.77   0.02  -0.00
     8   6    -0.13   0.00   0.00    -0.00  -0.00  -0.00    -0.56  -0.02   0.00
                     16                     17                     18
                     A'                     A'                     A'
 Frequencies --   2585.3942              2791.7889              2916.1171
 Red. masses --      1.0741                 1.0831                 1.1542
 Frc consts  --      4.2303                 4.9735                 5.7830
 IR Inten    --    350.7821               342.9010               532.0167
  Atom  AN      X      Y      Z        X      Y      Z        X      Y      Z
     1   6     0.01  -0.01  -0.00    -0.00   0.00   0.00    -0.11  -0.02  -0.00
     2   1    -0.01  -0.00   0.00     0.01   0.00  -0.00     0.98   0.17   0.00
     3   6     0.01  -0.08   0.00     0.01   0.00  -0.00     0.03   0.00   0.00
     4   1    -0.29   0.95  -0.00    -0.00   0.02   0.00    -0.02   0.02   0.00
     5   6    -0.00   0.00   0.00     0.02  -0.08   0.00    -0.00  -0.00  -0.00
     6   1     0.01  -0.02  -0.00    -0.32   0.94  -0.00     0.00  -0.01   0.00
     7   6     0.00   0.00   0.00     0.01  -0.00  -0.00     0.00   0.00   0.00
     8   6    -0.00   0.00  -0.00    -0.00  -0.00   0.00    -0.00  -0.00   0.00

 -------------------
 - Thermochemistry -
 -------------------
 Temperature   298.150 Kelvin.  Pressure   1.00000 Atm.
 Atom     1 has atomic number  6 and mass  12.00000
 Atom     2 has atomic number  1 and mass   1.00783
 Atom     3 has atomic number  6 and mass  12.00000
 Atom     4 has atomic number  1 and mass   1.00783
 Atom     5 has atomic number  6 and mass  12.00000
 Atom     6 has atomic number  1 and mass   1.00783
 Atom     7 has atomic number  6 and mass  12.00000
 Atom     8 has atomic number  6 and mass  12.00000
 Molecular mass:    63.02348 amu.
 Principal axes and moments of inertia in atomic units:
                           1         2         3
     Eigenvalues --    31.97772 731.02539 763.00311
           X            0.97235  -0.23351   0.00000
           Y            0.23351   0.97235   0.00000
           Z           -0.00000   0.00000   1.00000
 This molecule is an asymmetric top.
 Rotational symmetry number  1.
 Rotational temperatures (Kelvin)      2.70857     0.11848     0.11352
 Rotational constants (GHZ):          56.43746     2.46878     2.36531
 Zero-point vibrational energy     125209.4 (Joules/Mol)
                                   29.92577 (Kcal/Mol)
 Warning -- explicit consideration of   5 degrees of freedom as
           vibrations may cause significant error
 Vibrational temperatures:    211.82   259.83   422.37   470.19   765.40
          (Kelvin)            972.85  1127.50  1137.31  1247.28  1397.36
                             1503.72  1658.86  1920.29  2473.28  2618.15
                             3719.80  4016.76  4195.64
 
 Zero-point correction=                           0.047690 (Hartree/Particle)
 Thermal correction to Energy=                    0.053233
 Thermal correction to Enthalpy=                  0.054177
 Thermal correction to Gibbs Free Energy=         0.018801
 Sum of electronic and zero-point Energies=           -190.376294
 Sum of electronic and thermal Energies=              -190.370751
 Sum of electronic and thermal Enthalpies=            -190.369807
 Sum of electronic and thermal Free Energies=         -190.405183
 
                     E (Thermal)             CV                S
                      KCal/Mol        Cal/Mol-Kelvin    Cal/Mol-Kelvin
 Total                   33.404             18.157             74.456
 Electronic               0.000              0.000              2.183
 Translational            0.889              2.981             38.342
 Rotational               0.889              2.981             24.393
 Vibrational             31.627             12.195              9.538
 Vibration     1          0.617              1.906              2.708
 Vibration     2          0.630              1.866              2.322
 Vibration     3          0.688              1.686              1.453
 Vibration     4          0.710              1.622              1.276
 Vibration     5          0.887              1.179              0.583
                       Q            Log10(Q)             Ln(Q)
 Total Bot       0.224944D-08         -8.647926        -19.912584
 Total V=0       0.193996D+14         13.287793         30.596274
 Vib (Bot)       0.797526D-21        -21.098255        -48.580528
 Vib (Bot)    1  0.137836D+01          0.139363          0.320894
 Vib (Bot)    2  0.111195D+01          0.046086          0.106117
 Vib (Bot)    3  0.650150D+00         -0.186986         -0.430552
 Vib (Bot)    4  0.572865D+00         -0.241948         -0.557105
 Vib (Bot)    5  0.300072D+00         -0.522774         -1.203731
 Vib (V=0)       0.687802D+01          0.837463          1.928330
 Vib (V=0)    1  0.196625D+01          0.293638          0.676126
 Vib (V=0)    2  0.171920D+01          0.235325          0.541857
 Vib (V=0)    3  0.132018D+01          0.120633          0.277768
 Vib (V=0)    4  0.126038D+01          0.100501          0.231411
 Vib (V=0)    5  0.108313D+01          0.034682          0.079857
 Electronic      0.300000D+01          0.477121          1.098612
 Translational   0.196657D+08          7.293709         16.794385
 Rotational      0.478079D+05          4.679500         10.774946
 
                                                              b3lyp opt
                                                             IR Spectrum
 
     2     2        2                                1    1               1       1    1                                             
     9     7        5                                8    7               3       1    0  9    8 77    6     5        3 2    11      
     1     9        8                                2    1               3       5    4  7    6 98    7     3        2 9    84      
     6     2        5                                0    9               5       3    5  1    7 04    6     2        7 4    17      
 
     X     X        X                                X    X               X       X    X  X    X XX    X     X        X X    XX      
     X     X        X                                X    X                                            X                             
     X     X        X                                X    X                                                                          
     X     X        X                                X    X                                                                          
     X     X        X                                X    X                                                                          
     X     X        X                                X    X                                                                          
     X     X        X                                X    X                                                                          
     X              X                                X    X                                                                          
     X                                               X    X                                                                          
     X                                                    X                                                                          
     X                                                    X                                                                          
     X                                                    X                                                                          
                                                          X                                                                          
                                                          X                                                                          
                                                          X                                                                          
                                                          X                                                                          
                                                          X                                                                          
                                                          X                                                                          
                                                          X                                                                          
                                                          X                                                                          
 
 ***** Axes restored to original set *****
 -------------------------------------------------------------------
 Center     Atomic                   Forces (Hartrees/Bohr)
 Number     Number              X              Y              Z
 -------------------------------------------------------------------
      1        6           0.000003554   -0.000004192    0.000000000
      2        1           0.000002143    0.000002714    0.000000000
      3        6          -0.000011409    0.000004027   -0.000000000
      4        1           0.000005631   -0.000005838    0.000000000
      5        6          -0.000007905    0.000009420   -0.000000000
      6        1          -0.000002318   -0.000005294   -0.000000000
      7        6           0.000014438    0.000000010    0.000000000
      8        6          -0.000004133   -0.000000849   -0.000000000
 -------------------------------------------------------------------
 Cartesian Forces:  Max     0.000014438 RMS     0.000005265
 Z-matrix is all fixed cartesians, so copy forces.
 Force constants in Cartesian coordinates: 
                1             2             3             4             5 
      1  0.942722D+00
      2 -0.924182D-01  0.139030D+00
      3  0.000000D+00  0.000000D+00  0.688222D-01
      4 -0.298429D+00  0.373007D-01  0.000000D+00  0.282261D+00
      5  0.514404D-01 -0.607546D-01  0.000000D+00 -0.422801D-01  0.327518D-01
      6  0.000000D+00  0.000000D+00 -0.323724D-01  0.000000D+00  0.000000D+00
      7 -0.614555D+00  0.553165D-01  0.000000D+00  0.208381D-01 -0.134956D-01
      8  0.632131D-01 -0.573310D-01  0.000000D+00  0.347070D-02  0.294585D-01
      9  0.000000D+00  0.000000D+00 -0.423154D-01  0.000000D+00  0.000000D+00
     10  0.616569D-02 -0.207398D-01  0.000000D+00  0.558448D-03  0.522518D-02
     11 -0.231998D-01 -0.162305D-01  0.000000D+00 -0.277359D-02  0.474359D-03
     12  0.000000D+00  0.000000D+00  0.372843D-02  0.000000D+00  0.000000D+00
     13 -0.354700D-01  0.150827D-01  0.000000D+00 -0.649055D-02 -0.833914D-03
     14 -0.222131D-02 -0.560703D-02  0.000000D+00  0.298123D-02 -0.250717D-02
     15  0.000000D+00  0.000000D+00 -0.113006D-02  0.000000D+00  0.000000D+00
     16  0.381188D-02  0.443401D-02  0.000000D+00  0.476509D-03  0.216050D-03
     17  0.329903D-03  0.169750D-02  0.000000D+00  0.108736D-02 -0.332976D-04
     18  0.000000D+00  0.000000D+00 -0.239812D-02  0.000000D+00  0.000000D+00
     19 -0.218492D-02  0.247809D-02  0.000000D+00  0.488265D-02 -0.120050D-02
     20  0.280874D-02 -0.151422D-02  0.000000D+00 -0.936194D-04  0.694968D-03
     21  0.000000D+00  0.000000D+00  0.580935D-02  0.000000D+00  0.000000D+00
     22 -0.206013D-02 -0.145399D-02  0.000000D+00 -0.409748D-02  0.928571D-03
     23  0.472078D-04  0.709820D-03  0.000000D+00  0.307339D-03 -0.845589D-04
     24  0.000000D+00  0.000000D+00 -0.143912D-03  0.000000D+00  0.000000D+00
                6             7             8             9            10 
      6  0.178208D-01
      7  0.000000D+00  0.841987D+00
      8  0.000000D+00 -0.133165D+00  0.403513D+00
      9  0.105865D-01  0.000000D+00  0.000000D+00  0.920755D-01
     10  0.000000D+00 -0.664730D-01 -0.644156D-01  0.000000D+00  0.521136D-01
     11  0.000000D+00 -0.310433D-01 -0.189550D+00  0.000000D+00  0.553319D-01
     12  0.100966D-02  0.000000D+00  0.000000D+00 -0.247977D-01  0.000000D+00
     13  0.000000D+00 -0.146671D+00  0.108126D+00  0.000000D+00  0.829681D-02
     14  0.000000D+00  0.114056D+00 -0.171179D+00  0.000000D+00  0.205447D-01
     15  0.374068D-02  0.000000D+00  0.000000D+00 -0.566161D-01  0.000000D+00
     16  0.000000D+00  0.323215D-02  0.187355D-01  0.000000D+00 -0.324870D-02
     17  0.000000D+00 -0.778317D-02 -0.132394D-01  0.000000D+00  0.168815D-02
     18  0.844391D-03  0.000000D+00  0.000000D+00  0.105300D-01  0.000000D+00
     19  0.000000D+00 -0.470300D-01  0.139116D-01  0.000000D+00  0.147357D-02
     20  0.000000D+00  0.181597D-01 -0.339061D-03  0.000000D+00  0.181811D-02
     21 -0.180776D-02  0.000000D+00  0.000000D+00  0.100038D-01  0.000000D+00
     22  0.000000D+00  0.867238D-02 -0.987652D-02  0.000000D+00  0.111358D-02
     23  0.000000D+00 -0.204564D-02 -0.133303D-02  0.000000D+00  0.547346D-03
     24  0.178063D-03  0.000000D+00  0.000000D+00  0.533417D-03  0.000000D+00
               11            12            13            14            15 
     11  0.222412D+00
     12  0.000000D+00  0.112908D-01
     13  0.356562D-02  0.000000D+00  0.590582D+00
     14 -0.185342D-01  0.000000D+00 -0.744324D-01  0.482209D+00
     15  0.000000D+00  0.815624D-02  0.000000D+00  0.000000D+00  0.130053D+00
     16  0.202808D-02  0.000000D+00 -0.673923D-01 -0.706443D-01  0.000000D+00
     17 -0.677665D-03  0.000000D+00 -0.417890D-01 -0.236340D+00  0.000000D+00
     18  0.000000D+00  0.334900D-02  0.000000D+00  0.000000D+00 -0.399674D-01
     19 -0.765310D-02  0.000000D+00 -0.296948D+00  0.391581D-02  0.000000D+00
     20  0.188146D-02  0.000000D+00 -0.755330D-02 -0.656574D-01  0.000000D+00
     21  0.000000D+00 -0.337779D-02  0.000000D+00  0.000000D+00 -0.501985D-01
     22  0.374423D-02  0.000000D+00 -0.459065D-01  0.580017D-02  0.000000D+00
     23  0.223995D-03  0.000000D+00 -0.216538D-02  0.176158D-01  0.000000D+00
     24  0.000000D+00  0.641336D-03  0.000000D+00  0.000000D+00  0.596239D-02
               16            17            18            19            20 
     16  0.759504D-01
     17  0.684016D-01  0.252745D+00
     18  0.000000D+00  0.000000D+00  0.166205D-01
     19 -0.850790D-02 -0.205763D-01  0.000000D+00  0.965856D+00
     20 -0.255794D-01 -0.354479D-02  0.000000D+00 -0.158438D-01  0.101219D+00
     21  0.000000D+00  0.000000D+00  0.104855D-01  0.000000D+00  0.000000D+00
     22 -0.432204D-02 -0.135863D-02  0.000000D+00 -0.617542D+00  0.262835D-01
     23  0.240835D-02 -0.608284D-03  0.000000D+00  0.249681D-01 -0.327396D-01
     24  0.000000D+00  0.000000D+00  0.536148D-03  0.000000D+00  0.000000D+00
               21            22            23            24 
     21  0.461326D-01
     22  0.000000D+00  0.664142D+00
     23  0.000000D+00 -0.240673D-01  0.162159D-01
     24 -0.170473D-01  0.000000D+00  0.000000D+00  0.933986D-02
 Leave Link  716 at Sun Jun 19 14:56:02 2016, MaxMem=    33554432 cpu:         3.6
 (Enter /home/proyectos/fulerenos/M3C-v1.9/M3C-deps_CCC/g09-AM64L-G09RevC.01/l103.exe)

 GradGradGradGradGradGradGradGradGradGradGradGradGradGradGradGradGradGrad
 Berny optimization.
 Search for a local minimum.
 Step number   1 out of a maximum of    2
 All quantities printed in internal units (Hartrees-Bohrs-Radians)
 Second derivative matrix not updated -- analytic derivatives used.
 ITU=  0
     Eigenvalues ---    0.00290   0.00544   0.01306   0.02821   0.03809
     Eigenvalues ---    0.04135   0.08393   0.11266   0.11503   0.15235
     Eigenvalues ---    0.18662   0.18946   0.40074   0.45919   0.62692
     Eigenvalues ---    0.80587   1.50048   1.59649
 Angle between quadratic step and forces=  68.11 degrees.
 ClnCor:  largest displacement from symmetrization is 8.23D-13 for atom     2.
 Linear search not attempted -- first point.
 ClnCor:  largest displacement from symmetrization is 2.75D-15 for atom     2.
 B after Tr=    -0.000010    0.000007   -0.000000
         Rot=    1.000000   -0.000000    0.000000    0.000002 Ang=   0.00 deg.
 Variable       Old X    -DE/DX   Delta X   Delta X   Delta X     New X
                                 (Linear)    (Quad)   (Total)
    X1        4.32212   0.00000   0.00000  -0.00002  -0.00003   4.32209
    Y1       -1.06651  -0.00000   0.00000  -0.00000  -0.00001  -1.06653
    Z1        0.00000   0.00000   0.00000  -0.00000   0.00000   0.00000
    X2        6.40903   0.00000   0.00000   0.00000  -0.00001   6.40902
    Y2       -1.41176   0.00000   0.00000   0.00008   0.00006  -1.41170
    Z2        0.00000   0.00000   0.00000   0.00000   0.00000   0.00000
    X3        1.88064  -0.00001   0.00000  -0.00002  -0.00004   1.88061
    Y3       -1.03472   0.00000   0.00000  -0.00002  -0.00002  -1.03474
    Z3        0.00000  -0.00000   0.00000  -0.00000  -0.00000   0.00000
    X4        1.45113   0.00001   0.00000   0.00014   0.00012   1.45125
    Y4       -3.16209  -0.00001   0.00000  -0.00009  -0.00009  -3.16217
    Z4        0.00000   0.00000   0.00000   0.00000  -0.00000  -0.00000
    X5        0.00000  -0.00001   0.00000  -0.00002  -0.00002  -0.00002
    Y5        0.90950   0.00001   0.00000  -0.00001  -0.00001   0.90949
    Z5       -0.00000  -0.00000   0.00000  -0.00000   0.00000   0.00000
    X6        0.61416  -0.00000   0.00000  -0.00000  -0.00000   0.61415
    Y6        2.93894  -0.00001   0.00000  -0.00004  -0.00003   2.93891
    Z6        0.00000  -0.00000   0.00000  -0.00000   0.00000   0.00000
    X7       -2.59006   0.00001   0.00000   0.00000  -0.00000  -2.59006
    Y7        0.68261   0.00000   0.00000   0.00001   0.00003   0.68264
    Z7       -0.00000   0.00000   0.00000   0.00000  -0.00000  -0.00000
    X8       -5.02509  -0.00000   0.00000  -0.00000  -0.00001  -5.02510
    Y8        0.78160  -0.00000   0.00000   0.00004   0.00007   0.78167
    Z8       -0.00000  -0.00000   0.00000  -0.00000  -0.00000  -0.00000
         Item               Value     Threshold  Converged?
 Maximum Force            0.000014     0.000450     YES
 RMS     Force            0.000005     0.000300     YES
 Maximum Displacement     0.000118     0.001800     YES
 RMS     Displacement     0.000039     0.001200     YES
 Predicted change in Energy=-8.663788D-10
 Optimization completed.
    -- Stationary point found.
 GradGradGradGradGradGradGradGradGradGradGradGradGradGradGradGradGradGrad

 Leave Link  103 at Sun Jun 19 14:56:02 2016, MaxMem=    33554432 cpu:         0.7
 (Enter /home/proyectos/fulerenos/M3C-v1.9/M3C-deps_CCC/g09-AM64L-G09RevC.01/l9999.exe)
 1\1\GINC-BELVIS4\Freq\UB3LYP\6-311++G(3df,2p)\C5H3(3+,3)\ROOT\19-Jun-2
 016\0\\#p b3lyp/6-311++G(3df,2p) freq symmetry=Loose\\b3lyp opt\\3,3\C
 ,2.28717,-0.564374,0.\H,3.391514,-0.747071,0.\C,0.995194,-0.547548,0.\
 H,0.767906,-1.673305,0.\C,0.,0.481287,0.\H,0.324997,1.555221,0.\C,-1.3
 70601,0.361221,0.\C,-2.659165,0.413606,0.\\Version=EM64L-G09RevE.01\St
 ate=3-A'\HF=-190.4239842\S2=2.080966\S2-1=0.\S2A=2.000385\RMSD=6.352e-
 09\RMSF=5.265e-06\ZeroPoint=0.0476898\Thermal=0.0532333\Dipole=0.42564
 73,-0.18928,0.\DipoleDeriv=1.262958,-0.0776189,0.,0.2024522,0.6367878,
 0.,0.,0.,0.5820044,0.9793528,-0.1398347,0.,-0.1077159,0.2384576,0.,0.,
 0.,0.2917212,-1.6272748,0.4053234,0.,0.3854204,-0.4431734,0.,0.,0.,0.1
 400915,0.1101441,0.058018,0.,0.0669578,0.614702,0.,0.,0.,0.2530302,1.4
 762473,-0.491314,0.,-0.7492718,0.2916582,0.,0.,0.,0.454975,0.1846974,0
 .0934638,0.,0.210938,0.5404803,0.,0.,0.,0.1884405,-1.3155272,0.3097035
 ,0.,0.0454712,0.403329,0.,0.,0.,0.3163201,1.9294024,-0.157741,0.,-0.05
 4252,0.7177585,0.,0.,0.,0.7734171\Polar=94.4963725,-13.4659931,32.2804
 287,0.,0.,22.397275\PG=CS [SG(C5H3)]\NImag=0\\0.94272164,-0.09241822,0
 .13903003,0.,0.,0.06882217,-0.29842917,0.03730071,0.,0.28226145,0.0514
 4036,-0.06075460,0.,-0.04228012,0.03275182,0.,0.,-0.03237243,0.,0.,0.0
 1782084,-0.61455494,0.05531652,0.,0.02083814,-0.01349562,0.,0.84198672
 ,0.06321314,-0.05733100,0.,0.00347070,0.02945848,0.,-0.13316461,0.4035
 1276,0.,0.,-0.04231542,0.,0.,0.01058654,0.,0.,0.09207550,0.00616569,-0
 .02073979,0.,0.00055845,0.00522518,0.,-0.06647304,-0.06441558,0.,0.052
 11364,-0.02319982,-0.01623050,0.,-0.00277359,0.00047436,0.,-0.03104329
 ,-0.18954979,0.,0.05533187,0.22241236,0.,0.,0.00372843,0.,0.,0.0010096
 6,0.,0.,-0.02479771,0.,0.,0.01129084,-0.03547005,0.01508267,0.,-0.0064
 9055,-0.00083391,0.,-0.14667141,0.10812570,0.,0.00829681,0.00356562,0.
 ,0.59058192,-0.00222131,-0.00560703,0.,0.00298123,-0.00250717,0.,0.114
 05608,-0.17117898,0.,0.02054471,-0.01853422,0.,-0.07443239,0.48220857,
 0.,0.,-0.00113006,0.,0.,0.00374068,0.,0.,-0.05661612,0.,0.,0.00815624,
 0.,0.,0.13005274,0.00381188,0.00443401,0.,0.00047651,0.00021605,0.,0.0
 0323215,0.01873552,0.,-0.00324870,0.00202808,0.,-0.06739227,-0.0706443
 0,0.,0.07595037,0.00032990,0.00169750,0.,0.00108736,-0.00003330,0.,-0.
 00778317,-0.01323938,0.,0.00168815,-0.00067767,0.,-0.04178901,-0.23633
 958,0.,0.06840165,0.25274550,0.,0.,-0.00239812,0.,0.,0.00084439,0.,0.,
 0.01052999,0.,0.,0.00334900,0.,0.,-0.03996740,0.,0.,0.01662048,-0.0021
 8492,0.00247809,0.,0.00488265,-0.00120050,0.,-0.04703001,0.01391165,0.
 ,0.00147357,-0.00765310,0.,-0.29694798,0.00391581,0.,-0.00850790,-0.02
 057626,0.,0.96585642,0.00280874,-0.00151422,0.,-0.00009362,0.00069497,
 0.,0.01815973,-0.00033906,0.,0.00181811,0.00188146,0.,-0.00755330,-0.0
 6565737,0.,-0.02557935,-0.00354479,0.,-0.01584376,0.10121860,0.,0.,0.0
 0580935,0.,0.,-0.00180776,0.,0.,0.01000381,0.,0.,-0.00337779,0.,0.,-0.
 05019847,0.,0.,0.01048552,0.,0.,0.04613264,-0.00206013,-0.00145399,0.,
 -0.00409748,0.00092857,0.,0.00867238,-0.00987652,0.,0.00111358,0.00374
 423,0.,-0.04590647,0.00580017,0.,-0.00432204,-0.00135863,0.,-0.6175418
 3,0.02628345,0.,0.66414199,0.00004721,0.00070982,0.,0.00030734,-0.0000
 8456,0.,-0.00204564,-0.00133303,0.,0.00054735,0.00022400,0.,-0.0021653
 8,0.01761578,0.,0.00240835,-0.00060828,0.,0.02496807,-0.03273959,0.,-0
 .02406729,0.01621587,0.,0.,-0.00014391,0.,0.,0.00017806,0.,0.,0.000533
 42,0.,0.,0.00064134,0.,0.,0.00596239,0.,0.,0.00053615,0.,0.,-0.0170473
 0,0.,0.,0.00933986\\-0.00000355,0.00000419,0.,-0.00000214,-0.00000271,
 0.,0.00001141,-0.00000403,0.,-0.00000563,0.00000584,0.,0.00000791,-0.0
 0000942,0.,0.00000232,0.00000529,0.,-0.00001444,-0.00000001,0.,0.00000
 413,0.00000085,0.\\\@


 EDUCATION DOESN'T COST 
           ... IT PAYS!

 -- POSTMARK, UNIV. OF MISSISSIPPI, DEC 78
 Job cpu time:       0 days  0 hours 39 minutes 33.7 seconds.
 File lengths (MBytes):  RWF=     64 Int=      0 D2E=      0 Chk=      5 Scr=      1
 Normal termination of Gaussian 09 at Sun Jun 19 14:56:02 2016.
