 Entering Gaussian System, Link 0=/home/proyectos/fulerenos/M3C-v2.0/M3C-deps_CCC/g09-AM64L-G09RevC.01/g09
 Initial command:
 /home/proyectos/fulerenos/M3C-v2.0/M3C-deps_CCC/g09-AM64L-G09RevC.01/l1.exe "/scratch/naguirre/gaussian/Gau-28573.inp" -scrdir="/scratch/naguirre/gaussian/"
 Entering Link 1 = /home/proyectos/fulerenos/M3C-v2.0/M3C-deps_CCC/g09-AM64L-G09RevC.01/l1.exe PID=     28576.
  
 Copyright (c) 1988,1990,1992,1993,1995,1998,2003,2009,2015,
            Gaussian, Inc.  All Rights Reserved.
  
 This is part of the Gaussian(R) 09 program.  It is based on
 the Gaussian(R) 03 system (copyright 2003, Gaussian, Inc.),
 the Gaussian(R) 98 system (copyright 1998, Gaussian, Inc.),
 the Gaussian(R) 94 system (copyright 1995, Gaussian, Inc.),
 the Gaussian 92(TM) system (copyright 1992, Gaussian, Inc.),
 the Gaussian 90(TM) system (copyright 1990, Gaussian, Inc.),
 the Gaussian 88(TM) system (copyright 1988, Gaussian, Inc.),
 the Gaussian 86(TM) system (copyright 1986, Carnegie Mellon
 University), and the Gaussian 82(TM) system (copyright 1983,
 Carnegie Mellon University). Gaussian is a federally registered
 trademark of Gaussian, Inc.
  
 This software contains proprietary and confidential information,
 including trade secrets, belonging to Gaussian, Inc.
  
 This software is provided under written license and may be
 used, copied, transmitted, or stored only in accord with that
 written license.
  
 The following legend is applicable only to US Government
 contracts under FAR:
  
                    RESTRICTED RIGHTS LEGEND
  
 Use, reproduction and disclosure by the US Government is
 subject to restrictions as set forth in subparagraphs (a)
 and (c) of the Commercial Computer Software - Restricted
 Rights clause in FAR 52.227-19.
  
 Gaussian, Inc.
 340 Quinnipiac St., Bldg. 40, Wallingford CT 06492
  
  
 ---------------------------------------------------------------
 Warning -- This program may not be used in any manner that
 competes with the business of Gaussian, Inc. or will provide
 assistance to any competitor of Gaussian, Inc.  The licensee
 of this program is prohibited from giving any competitor of
 Gaussian, Inc. access to this program.  By using this program,
 the user acknowledges that Gaussian, Inc. is engaged in the
 business of creating and licensing software in the field of
 computational chemistry and represents and warrants to the
 licensee that it is not a competitor of Gaussian, Inc. and that
 it will not use this program in any manner prohibited above.
 ---------------------------------------------------------------
  

 Cite this work as:
 Gaussian 09, Revision E.01,
 M. J. Frisch, G. W. Trucks, H. B. Schlegel, G. E. Scuseria, 
 M. A. Robb, J. R. Cheeseman, G. Scalmani, V. Barone, B. Mennucci, 
 G. A. Petersson, H. Nakatsuji, M. Caricato, X. Li, H. P. Hratchian, 
 A. F. Izmaylov, J. Bloino, G. Zheng, J. L. Sonnenberg, M. Hada, 
 M. Ehara, K. Toyota, R. Fukuda, J. Hasegawa, M. Ishida, T. Nakajima, 
 Y. Honda, O. Kitao, H. Nakai, T. Vreven, J. A. Montgomery, Jr., 
 J. E. Peralta, F. Ogliaro, M. Bearpark, J. J. Heyd, E. Brothers, 
 K. N. Kudin, V. N. Staroverov, T. Keith, R. Kobayashi, J. Normand, 
 K. Raghavachari, A. Rendell, J. C. Burant, S. S. Iyengar, J. Tomasi, 
 M. Cossi, N. Rega, J. M. Millam, M. Klene, J. E. Knox, J. B. Cross, 
 V. Bakken, C. Adamo, J. Jaramillo, R. Gomperts, R. E. Stratmann, 
 O. Yazyev, A. J. Austin, R. Cammi, C. Pomelli, J. W. Ochterski, 
 R. L. Martin, K. Morokuma, V. G. Zakrzewski, G. A. Voth, 
 P. Salvador, J. J. Dannenberg, S. Dapprich, A. D. Daniels, 
 O. Farkas, J. B. Foresman, J. V. Ortiz, J. Cioslowski, 
 and D. J. Fox, Gaussian, Inc., Wallingford CT, 2013.
 
 ******************************************
 Gaussian 09:  EM64L-G09RevE.01 30-Nov-2015
                19-Jul-2016 
 ******************************************
 %NProcShared=1
 Will use up to    1 processors via shared memory.
 ---------------------------------------------
 #p b3lyp/6-311++G(3df,2p) freq symmetry=Loose
 ---------------------------------------------
 1/10=4,30=1,38=1/1,3;
 2/12=2,17=4,18=3,40=1/2;
 3/5=4,6=6,7=1216,11=2,16=1,25=1,30=1,71=2,74=-5,140=1/1,2,3;
 4//1;
 5/5=2,38=5,98=1/2;
 8/6=4,10=90,11=11/1;
 11/6=1,8=1,9=11,15=111,16=1/1,2,10;
 10/6=1/2;
 6/7=2,8=2,9=2,10=2,18=1,28=1/1;
 7/8=1,10=1,25=1/1,2,3,16;
 1/10=4,30=1/3;
 99//99;
 Leave Link    1 at Tue Jul 19 20:50:31 2016, MaxMem=           0 cpu:         0.1
 (Enter /home/proyectos/fulerenos/M3C-v2.0/M3C-deps_CCC/g09-AM64L-G09RevC.01/l101.exe)
 ---------
 b3lyp opt
 ---------
 Symbolic Z-matrix:
 Charge =  1 Multiplicity = 3
 C                     0.62851   1.06305   0. 
 C                     1.18041  -0.2417    0. 
 H                     2.21327  -0.55499   0. 
 C                    -0.00008  -1.09487   0. 
 H                    -0.00017  -2.17899   0. 
 C                    -1.18044  -0.24152   0. 
 H                    -2.21335  -0.55465   0. 
 C                    -0.62834   1.06314   0. 
 
 NAtoms=      8 NQM=        8 NQMF=       0 NMMI=      0 NMMIF=      0
                NMic=       0 NMicF=      0.
                    Isotopes and Nuclear Properties:
 (Nuclear quadrupole moments (NQMom) in fm**2, nuclear magnetic moments (NMagM)
  in nuclear magnetons)

  Atom         1           2           3           4           5           6           7           8
 IAtWgt=          12          12           1          12           1          12           1          12
 AtmWgt=  12.0000000  12.0000000   1.0078250  12.0000000   1.0078250  12.0000000   1.0078250  12.0000000
 NucSpn=           0           0           1           0           1           0           1           0
 AtZEff=   0.0000000   0.0000000   0.0000000   0.0000000   0.0000000   0.0000000   0.0000000   0.0000000
 NQMom=    0.0000000   0.0000000   0.0000000   0.0000000   0.0000000   0.0000000   0.0000000   0.0000000
 NMagM=    0.0000000   0.0000000   2.7928460   0.0000000   2.7928460   0.0000000   2.7928460   0.0000000
 AtZNuc=   6.0000000   6.0000000   1.0000000   6.0000000   1.0000000   6.0000000   1.0000000   6.0000000
 Leave Link  101 at Tue Jul 19 20:50:32 2016, MaxMem=    33554432 cpu:         0.5
 (Enter /home/proyectos/fulerenos/M3C-v2.0/M3C-deps_CCC/g09-AM64L-G09RevC.01/l103.exe)

 GradGradGradGradGradGradGradGradGradGradGradGradGradGradGradGradGradGrad
 Berny optimization.
 Initialization pass.
 Trust Radius=3.00D-01 FncErr=1.00D-07 GrdErr=1.00D-07
 Number of steps in this run=      2 maximum allowed number of steps=      2.
 GradGradGradGradGradGradGradGradGradGradGradGradGradGradGradGradGradGrad

 Leave Link  103 at Tue Jul 19 20:50:32 2016, MaxMem=    33554432 cpu:         0.1
 (Enter /home/proyectos/fulerenos/M3C-v2.0/M3C-deps_CCC/g09-AM64L-G09RevC.01/l202.exe)
                          Input orientation:                          
 ---------------------------------------------------------------------
 Center     Atomic      Atomic             Coordinates (Angstroms)
 Number     Number       Type             X           Y           Z
 ---------------------------------------------------------------------
      1          6           0        0.628510    1.063047    0.000000
      2          6           0        1.180407   -0.241697    0.000000
      3          1           0        2.213267   -0.554990    0.000000
      4          6           0       -0.000084   -1.094873    0.000000
      5          1           0       -0.000167   -2.178988    0.000000
      6          6           0       -1.180443   -0.241515    0.000000
      7          1           0       -2.213352   -0.554649    0.000000
      8          6           0       -0.628345    1.063143    0.000000
 ---------------------------------------------------------------------
                    Distance matrix (angstroms):
                    1          2          3          4          5
     1  C    0.000000
     2  C    1.416667   0.000000
     3  H    2.264840   1.079330   0.000000
     4  C    2.247609   1.456526   2.278244   0.000000
     5  H    3.302427   2.268668   2.745298   1.084115   0.000000
     6  C    2.230290   2.360850   3.408157   1.456526   2.268668
     7  H    3.270033   3.408157   4.426619   2.278244   2.745298
     8  C    1.256855   2.230290   3.270033   2.247609   3.302427
                    6          7          8
     6  C    0.000000
     7  H    1.079330   0.000000
     8  C    1.416667   2.264840   0.000000
 Stoichiometry    C5H3(1+,3)
 Framework group  C2V[C2(CH),SGV(C4H2)]
 Deg. of freedom     7
 Full point group                 C2V     NOp   4
 Largest Abelian subgroup         C2V     NOp   4
 Largest concise Abelian subgroup C2      NOp   2
                         Standard orientation:                         
 ---------------------------------------------------------------------
 Center     Atomic      Atomic             Coordinates (Angstroms)
 Number     Number       Type             X           Y           Z
 ---------------------------------------------------------------------
      1          6           0        0.000000   -0.628427   -1.063095
      2          6           0        0.000000   -1.180425    0.241606
      3          1           0        0.000000   -2.213309    0.554820
      4          6           0       -0.000000    0.000000    1.094873
      5          1           0       -0.000000    0.000000    2.178988
      6          6           0        0.000000    1.180425    0.241606
      7          1           0        0.000000    2.213309    0.554820
      8          6           0        0.000000    0.628427   -1.063095
 ---------------------------------------------------------------------
 Rotational constants (GHZ):     10.4966470      9.5726733      5.0066953
 Leave Link  202 at Tue Jul 19 20:50:32 2016, MaxMem=    33554432 cpu:         0.1
 (Enter /home/proyectos/fulerenos/M3C-v2.0/M3C-deps_CCC/g09-AM64L-G09RevC.01/l301.exe)
 Standard basis: 6-311++G(3df,2p) (5D, 7F)
 Ernie: Thresh=  0.10000D-02 Tol=  0.10000D-05 Strict=F.
 There are    97 symmetry adapted cartesian basis functions of A1  symmetry.
 There are    34 symmetry adapted cartesian basis functions of A2  symmetry.
 There are    42 symmetry adapted cartesian basis functions of B1  symmetry.
 There are    82 symmetry adapted cartesian basis functions of B2  symmetry.
 There are    83 symmetry adapted basis functions of A1  symmetry.
 There are    32 symmetry adapted basis functions of A2  symmetry.
 There are    39 symmetry adapted basis functions of B1  symmetry.
 There are    71 symmetry adapted basis functions of B2  symmetry.
   225 basis functions,   326 primitive gaussians,   255 cartesian basis functions
    17 alpha electrons       15 beta electrons
       nuclear repulsion energy       133.7500738513 Hartrees.
 IExCor=  402 DFT=T Ex+Corr=B3LYP ExCW=0 ScaHFX=  0.200000
 ScaDFX=  0.800000  0.720000  1.000000  0.810000 ScalE2=  1.000000  1.000000
 IRadAn=      0 IRanWt=     -1 IRanGd=            0 ICorTp=0 IEmpDi=  4
 NAtoms=    8 NActive=    8 NUniq=    5 SFac= 2.56D+00 NAtFMM=   60 NAOKFM=F Big=F
 Integral buffers will be    131072 words long.
 Raffenetti 2 integral format.
 Two-electron integral symmetry is turned on.
 Leave Link  301 at Tue Jul 19 20:50:33 2016, MaxMem=    33554432 cpu:         0.4
 (Enter /home/proyectos/fulerenos/M3C-v2.0/M3C-deps_CCC/g09-AM64L-G09RevC.01/l302.exe)
 NPDir=0 NMtPBC=     1 NCelOv=     1 NCel=       1 NClECP=     1 NCelD=      1
         NCelK=      1 NCelE2=     1 NClLst=     1 CellRange=     0.0.
 One-electron integrals computed using PRISM.
 One-electron integral symmetry used in STVInt
 NBasis=   225 RedAO= T EigKep=  7.24D-06  NBF=    83    32    39    71
 NBsUse=   225 1.00D-06 EigRej= -1.00D+00 NBFU=    83    32    39    71
 Precomputing XC quadrature grid using
 IXCGrd= 4 IRadAn=           0 IRanWt=          -1 IRanGd=           0 AccXCQ= 0.00D+00.
 Generated NRdTot=       0 NPtTot=           0 NUsed=           0 NTot=          32
 NSgBfM=   255   255   255   255   255 MxSgAt=     8 MxSgA2=     8.
 Leave Link  302 at Tue Jul 19 20:50:34 2016, MaxMem=    33554432 cpu:         0.8
 (Enter /home/proyectos/fulerenos/M3C-v2.0/M3C-deps_CCC/g09-AM64L-G09RevC.01/l303.exe)
 DipDrv:  MaxL=1.
 Leave Link  303 at Tue Jul 19 20:50:34 2016, MaxMem=    33554432 cpu:         0.2
 (Enter /home/proyectos/fulerenos/M3C-v2.0/M3C-deps_CCC/g09-AM64L-G09RevC.01/l401.exe)
 ExpMin= 3.60D-02 ExpMax= 4.56D+03 ExpMxC= 6.82D+02 IAcc=3 IRadAn=         5 AccDes= 0.00D+00
 Harris functional with IExCor=  402 and IRadAn=       5 diagonalized for initial guess.
 HarFok:  IExCor=  402 AccDes= 0.00D+00 IRadAn=         5 IDoV= 1 UseB2=F ITyADJ=14
 ICtDFT=  3500011 ScaDFX=  1.000000  1.000000  1.000000  1.000000
 FoFCou: FMM=F IPFlag=           0 FMFlag=      100000 FMFlg1=           0
         NFxFlg=           0 DoJE=T BraDBF=F KetDBF=T FulRan=T
         wScrn=  0.000000 ICntrl=     500 IOpCl=  0 I1Cent=   200000004 NGrid=           0
         NMat0=    1 NMatS0=      1 NMatT0=    0 NMatD0=    1 NMtDS0=    0 NMtDT0=    0
 Petite list used in FoFCou.
 Harris En= -191.858536303249    
 JPrj=0 DoOrth=F DoCkMO=F.
 Initial guess orbital symmetries:
 Alpha Orbitals:
       Occupied  (A1) (B2) (B2) (A1) (A1) (A1) (A1) (B2) (A1) (A1)
                 (B2) (B2) (A1) (B1) (A1) (B1) (A2)
       Virtual   (B2) (B1) (A2) (A1) (B2) (A1) (A1) (B1) (B2) (A1)
                 (A1) (A2) (B1) (A1) (B2) (B2) (A1) (A1) (B2) (B1)
                 (B2) (A1) (A2) (A1) (B2) (B2) (A1) (A1) (A1) (B2)
                 (B2) (B1) (B2) (A1) (A1) (B2) (A1) (A1) (A2) (B2)
                 (A2) (B1) (A1) (B1) (B2) (B1) (B1) (A1) (B2) (A2)
                 (A1) (B2) (B2) (A1) (A1) (A2) (B1) (A1) (B2) (B1)
                 (A2) (B2) (A1) (B2) (A1) (B1) (A2) (A1) (A2) (B2)
                 (A1) (B2) (A1) (A1) (B2) (B1) (B2) (A1) (B2) (A1)
                 (B2) (A2) (B2) (A1) (B1) (A1) (B1) (A2) (B1) (A1)
                 (B2) (B2) (A2) (B1) (B2) (A1) (A1) (A1) (A1) (B2)
                 (B1) (A1) (B2) (A2) (A1) (B2) (A2) (B1) (A1) (A2)
                 (B2) (A1) (B2) (B2) (B1) (B2) (A1) (A1) (B1) (B2)
                 (B1) (A1) (A2) (A2) (B1) (B1) (A1) (B2) (A2) (A1)
                 (B1) (B1) (A2) (A1) (B2) (A2) (A1) (B2) (B1) (A1)
                 (A1) (B2) (B2) (A1) (B2) (A1) (B2) (A1) (B2) (B1)
                 (A1) (B2) (A1) (A2) (B2) (B2) (B1) (A1) (A2) (B1)
                 (B1) (A1) (B2) (A2) (B2) (A2) (A1) (B1) (A1) (A2)
                 (B2) (B2) (A1) (A1) (B2) (B2) (B2) (A1) (B1) (A2)
                 (B1) (A2) (A1) (B1) (B2) (A1) (B2) (A1) (A2) (B1)
                 (B1) (A2) (A1) (B2) (A1) (A2) (B2) (A1) (B2) (A1)
                 (B2) (A1) (B2) (A1) (A1) (B2) (A1) (B2)
 Beta  Orbitals:
       Occupied  (A1) (B2) (B2) (A1) (A1) (A1) (A1) (B2) (A1) (A1)
                 (B2) (B2) (A1) (B1) (A1)
       Virtual   (B1) (A2) (B2) (B1) (A2) (A1) (B2) (A1) (A1) (B1)
                 (B2) (A1) (A1) (A2) (B1) (A1) (B2) (B2) (A1) (A1)
                 (B2) (B1) (B2) (A1) (A2) (A1) (B2) (B2) (A1) (A1)
                 (A1) (B2) (B2) (B1) (B2) (A1) (A1) (B2) (A1) (A1)
                 (A2) (B2) (A2) (B1) (A1) (B1) (B2) (B1) (B1) (A1)
                 (B2) (A2) (A1) (B2) (B2) (A1) (A1) (A2) (B1) (A1)
                 (B2) (B1) (A2) (B2) (A1) (B2) (A1) (B1) (A2) (A1)
                 (A2) (B2) (A1) (B2) (A1) (A1) (B2) (B1) (B2) (A1)
                 (B2) (A1) (B2) (A2) (B2) (A1) (B1) (A1) (B1) (A2)
                 (B1) (A1) (B2) (B2) (A2) (B1) (B2) (A1) (A1) (A1)
                 (A1) (B2) (B1) (A1) (B2) (A2) (A1) (B2) (A2) (B1)
                 (A1) (A2) (B2) (A1) (B2) (B2) (B1) (B2) (A1) (A1)
                 (B1) (B2) (B1) (A1) (A2) (A2) (B1) (B1) (A1) (B2)
                 (A2) (A1) (B1) (B1) (A2) (A1) (B2) (A2) (A1) (B2)
                 (B1) (A1) (A1) (B2) (B2) (A1) (B2) (A1) (B2) (A1)
                 (B2) (B1) (A1) (B2) (A1) (A2) (B2) (B2) (B1) (A1)
                 (A2) (B1) (B1) (A1) (B2) (A2) (B2) (A2) (A1) (B1)
                 (A1) (A2) (B2) (B2) (A1) (A1) (B2) (B2) (B2) (A1)
                 (B1) (A2) (B1) (A2) (A1) (B1) (B2) (A1) (B2) (A1)
                 (A2) (B1) (B1) (A2) (A1) (B2) (A1) (A2) (B2) (A1)
                 (B2) (A1) (B2) (A1) (B2) (A1) (A1) (B2) (A1) (B2)
 The electronic state of the initial guess is 3-B2.
 Initial guess <Sx>= 0.0000 <Sy>= 0.0000 <Sz>= 1.0000 <S**2>= 2.0000 S= 1.0000
 Leave Link  401 at Tue Jul 19 20:50:38 2016, MaxMem=    33554432 cpu:         4.2
 (Enter /home/proyectos/fulerenos/M3C-v2.0/M3C-deps_CCC/g09-AM64L-G09RevC.01/l502.exe)
 UHF open shell SCF:
 Using DIIS extrapolation, IDIIS=  1040.
 Integral symmetry usage will be decided dynamically.
 IVT=      217415 IEndB=      217415 NGot=    33554432 MDV=    33418938
 LenX=    33418938 LenY=    33353472
 Requested convergence on RMS density matrix=1.00D-08 within 128 cycles.
 Requested convergence on MAX density matrix=1.00D-06.
 Requested convergence on             energy=1.00D-06.
 No special actions if energy rises.
 Fock matrices will be formed incrementally for  20 cycles.

 Cycle   1  Pass 1  IDiag  1:
 FoFJK:  IHMeth= 1 ICntrl=       0 DoSepK=F KAlg= 0 I1Cent=   0 FoldK=F
 IRaf= 990000000 NMat=   1 IRICut=       1 DoRegI=T DoRafI=F ISym2E= 1.
 FoFCou: FMM=F IPFlag=           0 FMFlag=      100000 FMFlg1=           0
         NFxFlg=           0 DoJE=F BraDBF=F KetDBF=F FulRan=T
         wScrn=  0.000000 ICntrl=       0 IOpCl=  1 I1Cent=           0 NGrid=           0
         NMat0=    1 NMatS0=      1 NMatT0=    0 NMatD0=    1 NMtDS0=    0 NMtDT0=    0
 Petite list used in FoFCou.
 E= -191.780668764584    
 DIIS: error= 1.35D-02 at cycle   1 NSaved=   1.
 NSaved= 1 IEnMin= 1 EnMin= -191.780668764584     IErMin= 1 ErrMin= 1.35D-02
 ErrMax= 1.35D-02  0.00D+00 EMaxC= 1.00D-01 BMatC= 2.08D-01 BMatP= 2.08D-01
 IDIUse=3 WtCom= 8.65D-01 WtEn= 1.35D-01
 Coeff-Com:  0.100D+01
 Coeff-En:   0.100D+01
 Coeff:      0.100D+01
 Gap=     0.124 Goal=   None    Shift=    0.000
 Gap=     0.110 Goal=   None    Shift=    0.000
 GapD=    0.110 DampG=1.000 DampE=0.500 DampFc=0.5000 IDamp=-1.
 Damping current iteration by 5.00D-01
 RMSDP=2.03D-03 MaxDP=6.63D-02              OVMax= 8.97D-02

 Cycle   2  Pass 1  IDiag  1:
 RMSU=  1.01D-03    CP:  9.92D-01
 E= -191.800838583378     Delta-E=       -0.020169818793 Rises=F Damp=T
 DIIS: error= 4.75D-03 at cycle   2 NSaved=   2.
 NSaved= 2 IEnMin= 2 EnMin= -191.800838583378     IErMin= 2 ErrMin= 4.75D-03
 ErrMax= 4.75D-03  0.00D+00 EMaxC= 1.00D-01 BMatC= 2.38D-02 BMatP= 2.08D-01
 IDIUse=3 WtCom= 9.52D-01 WtEn= 4.75D-02
 Coeff-Com: -0.283D+00 0.128D+01
 Coeff-En:   0.000D+00 0.100D+01
 Coeff:     -0.270D+00 0.127D+01
 Gap=     0.131 Goal=   None    Shift=    0.000
 Gap=     0.113 Goal=   None    Shift=    0.000
 RMSDP=1.01D-03 MaxDP=3.78D-02 DE=-2.02D-02 OVMax= 5.39D-02

 Cycle   3  Pass 1  IDiag  1:
 RMSU=  9.71D-04    CP:  9.77D-01  1.23D+00
 E= -191.818480183592     Delta-E=       -0.017641600214 Rises=F Damp=F
 DIIS: error= 3.74D-03 at cycle   3 NSaved=   3.
 NSaved= 3 IEnMin= 3 EnMin= -191.818480183592     IErMin= 3 ErrMin= 3.74D-03
 ErrMax= 3.74D-03  0.00D+00 EMaxC= 1.00D-01 BMatC= 6.27D-03 BMatP= 2.38D-02
 IDIUse=3 WtCom= 9.63D-01 WtEn= 3.74D-02
 Coeff-Com: -0.194D+00 0.499D+00 0.696D+00
 Coeff-En:   0.000D+00 0.000D+00 0.100D+01
 Coeff:     -0.187D+00 0.480D+00 0.707D+00
 Gap=     0.135 Goal=   None    Shift=    0.000
 Gap=     0.106 Goal=   None    Shift=    0.000
 RMSDP=3.32D-04 MaxDP=8.66D-03 DE=-1.76D-02 OVMax= 2.81D-02

 Cycle   4  Pass 1  IDiag  1:
 RMSU=  2.30D-04    CP:  9.71D-01  1.34D+00  7.92D-01
 E= -191.819817266224     Delta-E=       -0.001337082632 Rises=F Damp=F
 DIIS: error= 2.04D-03 at cycle   4 NSaved=   4.
 NSaved= 4 IEnMin= 4 EnMin= -191.819817266224     IErMin= 4 ErrMin= 2.04D-03
 ErrMax= 2.04D-03  0.00D+00 EMaxC= 1.00D-01 BMatC= 1.33D-03 BMatP= 6.27D-03
 IDIUse=3 WtCom= 9.80D-01 WtEn= 2.04D-02
 Coeff-Com: -0.974D-01 0.224D+00 0.415D+00 0.458D+00
 Coeff-En:   0.000D+00 0.000D+00 0.117D+00 0.883D+00
 Coeff:     -0.955D-01 0.220D+00 0.409D+00 0.467D+00
 Gap=     0.132 Goal=   None    Shift=    0.000
 Gap=     0.111 Goal=   None    Shift=    0.000
 RMSDP=1.68D-04 MaxDP=1.07D-02 DE=-1.34D-03 OVMax= 1.74D-02

 Cycle   5  Pass 1  IDiag  1:
 RMSU=  1.10D-04    CP:  9.76D-01  1.31D+00  7.97D-01  5.09D-01
 E= -191.820167250429     Delta-E=       -0.000349984205 Rises=F Damp=F
 DIIS: error= 7.46D-04 at cycle   5 NSaved=   5.
 NSaved= 5 IEnMin= 5 EnMin= -191.820167250429     IErMin= 5 ErrMin= 7.46D-04
 ErrMax= 7.46D-04  0.00D+00 EMaxC= 1.00D-01 BMatC= 1.81D-04 BMatP= 1.33D-03
 IDIUse=3 WtCom= 9.93D-01 WtEn= 7.46D-03
 Coeff-Com: -0.156D-01 0.228D-01 0.988D-01 0.286D+00 0.608D+00
 Coeff-En:   0.000D+00 0.000D+00 0.000D+00 0.112D+00 0.888D+00
 Coeff:     -0.155D-01 0.227D-01 0.980D-01 0.285D+00 0.610D+00
 Gap=     0.133 Goal=   None    Shift=    0.000
 Gap=     0.110 Goal=   None    Shift=    0.000
 RMSDP=4.49D-05 MaxDP=2.60D-03 DE=-3.50D-04 OVMax= 3.71D-03

 Cycle   6  Pass 1  IDiag  1:
 RMSU=  1.50D-05    CP:  9.75D-01  1.33D+00  8.03D-01  6.08D-01  7.36D-01
 E= -191.820214224018     Delta-E=       -0.000046973589 Rises=F Damp=F
 DIIS: error= 1.01D-04 at cycle   6 NSaved=   6.
 NSaved= 6 IEnMin= 6 EnMin= -191.820214224018     IErMin= 6 ErrMin= 1.01D-04
 ErrMax= 1.01D-04  0.00D+00 EMaxC= 1.00D-01 BMatC= 5.03D-06 BMatP= 1.81D-04
 IDIUse=3 WtCom= 9.99D-01 WtEn= 1.01D-03
 Coeff-Com: -0.661D-03-0.308D-02 0.174D-01 0.926D-01 0.224D+00 0.670D+00
 Coeff-En:   0.000D+00 0.000D+00 0.000D+00 0.000D+00 0.000D+00 0.100D+01
 Coeff:     -0.660D-03-0.308D-02 0.173D-01 0.925D-01 0.223D+00 0.670D+00
 Gap=     0.133 Goal=   None    Shift=    0.000
 Gap=     0.110 Goal=   None    Shift=    0.000
 RMSDP=9.36D-06 MaxDP=4.84D-04 DE=-4.70D-05 OVMax= 1.04D-03

 Cycle   7  Pass 1  IDiag  1:
 RMSU=  8.07D-06    CP:  9.75D-01  1.33D+00  8.05D-01  6.04D-01  7.62D-01
                    CP:  9.14D-01
 E= -191.820215457904     Delta-E=       -0.000001233886 Rises=F Damp=F
 DIIS: error= 5.25D-05 at cycle   7 NSaved=   7.
 NSaved= 7 IEnMin= 7 EnMin= -191.820215457904     IErMin= 7 ErrMin= 5.25D-05
 ErrMax= 5.25D-05  0.00D+00 EMaxC= 1.00D-01 BMatC= 1.42D-06 BMatP= 5.03D-06
 IDIUse=1 WtCom= 1.00D+00 WtEn= 0.00D+00
 Coeff-Com:  0.326D-02-0.660D-02-0.148D-01-0.223D-01-0.578D-01 0.318D+00
 Coeff-Com:  0.780D+00
 Coeff:      0.326D-02-0.660D-02-0.148D-01-0.223D-01-0.578D-01 0.318D+00
 Coeff:      0.780D+00
 Gap=     0.133 Goal=   None    Shift=    0.000
 Gap=     0.110 Goal=   None    Shift=    0.000
 RMSDP=4.73D-06 MaxDP=2.45D-04 DE=-1.23D-06 OVMax= 4.67D-04

 Cycle   8  Pass 1  IDiag  1:
 RMSU=  2.37D-06    CP:  9.75D-01  1.33D+00  8.05D-01  6.15D-01  7.52D-01
                    CP:  1.09D+00  9.48D-01
 E= -191.820215947458     Delta-E=       -0.000000489554 Rises=F Damp=F
 DIIS: error= 8.85D-06 at cycle   8 NSaved=   8.
 NSaved= 8 IEnMin= 8 EnMin= -191.820215947458     IErMin= 8 ErrMin= 8.85D-06
 ErrMax= 8.85D-06  0.00D+00 EMaxC= 1.00D-01 BMatC= 4.17D-08 BMatP= 1.42D-06
 IDIUse=1 WtCom= 1.00D+00 WtEn= 0.00D+00
 Coeff-Com: -0.177D-03 0.754D-03-0.158D-02-0.689D-02-0.218D-01-0.635D-01
 Coeff-Com: -0.444D-01 0.114D+01
 Coeff:     -0.177D-03 0.754D-03-0.158D-02-0.689D-02-0.218D-01-0.635D-01
 Coeff:     -0.444D-01 0.114D+01
 Gap=     0.133 Goal=   None    Shift=    0.000
 Gap=     0.110 Goal=   None    Shift=    0.000
 RMSDP=1.59D-06 MaxDP=5.31D-05 DE=-4.90D-07 OVMax= 2.53D-04

 Cycle   9  Pass 1  IDiag  1:
 RMSU=  7.54D-07    CP:  9.75D-01  1.33D+00  8.05D-01  6.17D-01  7.49D-01
                    CP:  1.15D+00  1.02D+00  1.24D+00
 E= -191.820215987516     Delta-E=       -0.000000040058 Rises=F Damp=F
 DIIS: error= 3.32D-06 at cycle   9 NSaved=   9.
 NSaved= 9 IEnMin= 9 EnMin= -191.820215987516     IErMin= 9 ErrMin= 3.32D-06
 ErrMax= 3.32D-06  0.00D+00 EMaxC= 1.00D-01 BMatC= 3.42D-09 BMatP= 4.17D-08
 IDIUse=1 WtCom= 1.00D+00 WtEn= 0.00D+00
 Coeff-Com: -0.310D-03 0.633D-03 0.123D-02 0.220D-02 0.322D-02-0.249D-01
 Coeff-Com: -0.625D-01-0.436D-02 0.108D+01
 Coeff:     -0.310D-03 0.633D-03 0.123D-02 0.220D-02 0.322D-02-0.249D-01
 Coeff:     -0.625D-01-0.436D-02 0.108D+01
 Gap=     0.133 Goal=   None    Shift=    0.000
 Gap=     0.110 Goal=   None    Shift=    0.000
 RMSDP=4.64D-07 MaxDP=2.58D-05 DE=-4.01D-08 OVMax= 9.19D-05

 Cycle  10  Pass 1  IDiag  1:
 RMSU=  2.31D-07    CP:  9.75D-01  1.33D+00  8.05D-01  6.18D-01  7.49D-01
                    CP:  1.16D+00  1.03D+00  1.33D+00  1.25D+00
 E= -191.820215991163     Delta-E=       -0.000000003647 Rises=F Damp=F
 DIIS: error= 1.34D-06 at cycle  10 NSaved=  10.
 NSaved=10 IEnMin=10 EnMin= -191.820215991163     IErMin=10 ErrMin= 1.34D-06
 ErrMax= 1.34D-06  0.00D+00 EMaxC= 1.00D-01 BMatC= 4.41D-10 BMatP= 3.42D-09
 IDIUse=1 WtCom= 1.00D+00 WtEn= 0.00D+00
 Coeff-Com:  0.206D-04-0.635D-04 0.360D-04 0.406D-03 0.307D-03 0.644D-02
 Coeff-Com:  0.194D-02-0.641D-01-0.580D-01 0.111D+01
 Coeff:      0.206D-04-0.635D-04 0.360D-04 0.406D-03 0.307D-03 0.644D-02
 Coeff:      0.194D-02-0.641D-01-0.580D-01 0.111D+01
 Gap=     0.133 Goal=   None    Shift=    0.000
 Gap=     0.110 Goal=   None    Shift=    0.000
 RMSDP=1.69D-07 MaxDP=1.33D-05 DE=-3.65D-09 OVMax= 2.39D-05

 Cycle  11  Pass 1  IDiag  1:
 RMSU=  6.26D-08    CP:  9.75D-01  1.33D+00  8.05D-01  6.18D-01  7.48D-01
                    CP:  1.16D+00  1.03D+00  1.34D+00  1.35D+00  1.27D+00
 E= -191.820215991530     Delta-E=       -0.000000000367 Rises=F Damp=F
 DIIS: error= 2.84D-07 at cycle  11 NSaved=  11.
 NSaved=11 IEnMin=11 EnMin= -191.820215991530     IErMin=11 ErrMin= 2.84D-07
 ErrMax= 2.84D-07  0.00D+00 EMaxC= 1.00D-01 BMatC= 2.70D-11 BMatP= 4.41D-10
 IDIUse=1 WtCom= 1.00D+00 WtEn= 0.00D+00
 Coeff-Com:  0.276D-04-0.554D-04-0.121D-03-0.226D-03-0.360D-03 0.243D-02
 Coeff-Com:  0.488D-02 0.753D-02-0.108D+00-0.127D+00 0.122D+01
 Coeff:      0.276D-04-0.554D-04-0.121D-03-0.226D-03-0.360D-03 0.243D-02
 Coeff:      0.488D-02 0.753D-02-0.108D+00-0.127D+00 0.122D+01
 Gap=     0.133 Goal=   None    Shift=    0.000
 Gap=     0.110 Goal=   None    Shift=    0.000
 RMSDP=5.25D-08 MaxDP=3.50D-06 DE=-3.67D-10 OVMax= 9.69D-06

 Cycle  12  Pass 1  IDiag  1:
 RMSU=  1.41D-08    CP:  9.75D-01  1.33D+00  8.05D-01  6.18D-01  7.48D-01
                    CP:  1.16D+00  1.03D+00  1.35D+00  1.38D+00  1.41D+00
                    CP:  1.36D+00
 E= -191.820215991569     Delta-E=       -0.000000000038 Rises=F Damp=F
 DIIS: error= 4.73D-08 at cycle  12 NSaved=  12.
 NSaved=12 IEnMin=12 EnMin= -191.820215991569     IErMin=12 ErrMin= 4.73D-08
 ErrMax= 4.73D-08  0.00D+00 EMaxC= 1.00D-01 BMatC= 7.67D-13 BMatP= 2.70D-11
 IDIUse=1 WtCom= 1.00D+00 WtEn= 0.00D+00
 Coeff-Com:  0.603D-08 0.109D-05-0.109D-04-0.365D-04-0.457D-04-0.246D-03
 Coeff-Com:  0.327D-04 0.431D-02-0.119D-02-0.644D-01 0.281D-01 0.103D+01
 Coeff:      0.603D-08 0.109D-05-0.109D-04-0.365D-04-0.457D-04-0.246D-03
 Coeff:      0.327D-04 0.431D-02-0.119D-02-0.644D-01 0.281D-01 0.103D+01
 Gap=     0.133 Goal=   None    Shift=    0.000
 Gap=     0.110 Goal=   None    Shift=    0.000
 RMSDP=8.01D-09 MaxDP=4.30D-07 DE=-3.85D-11 OVMax= 1.17D-06

 SCF Done:  E(UB3LYP) =  -191.820215992     A.U. after   12 cycles
            NFock= 12  Conv=0.80D-08     -V/T= 2.0044
 <Sx>= 0.0000 <Sy>= 0.0000 <Sz>= 1.0000 <S**2>= 2.0043 S= 1.0014
 <L.S>= 0.000000000000E+00
 KE= 1.909710569934D+02 PE=-7.042702760070D+02 EE= 1.877289291708D+02
 Annihilation of the first spin contaminant:
 S**2 before annihilation     2.0043,   after     2.0000
 Leave Link  502 at Tue Jul 19 20:56:06 2016, MaxMem=    33554432 cpu:       326.8
 (Enter /home/proyectos/fulerenos/M3C-v2.0/M3C-deps_CCC/g09-AM64L-G09RevC.01/l801.exe)
 DoSCS=F DFT=T ScalE2(SS,OS)=  1.000000  1.000000
 Range of M.O.s used for correlation:     1   225
 NBasis=   225 NAE=    17 NBE=    15 NFC=     0 NFV=     0
 NROrb=    225 NOA=    17 NOB=    15 NVA=   208 NVB=   210

 **** Warning!!: The largest alpha MO coefficient is  0.12732004D+03


 **** Warning!!: The largest beta MO coefficient is  0.12704761D+03

 Leave Link  801 at Tue Jul 19 20:56:06 2016, MaxMem=    33554432 cpu:         0.1
 (Enter /home/proyectos/fulerenos/M3C-v2.0/M3C-deps_CCC/g09-AM64L-G09RevC.01/l1101.exe)
 Using compressed storage, NAtomX=     8.
 Will process      9 centers per pass.
 Leave Link 1101 at Tue Jul 19 20:56:06 2016, MaxMem=    33554432 cpu:         0.6
 (Enter /home/proyectos/fulerenos/M3C-v2.0/M3C-deps_CCC/g09-AM64L-G09RevC.01/l1102.exe)
 Symmetrizing basis deriv contribution to polar:
 IMax=3 JMax=2 DiffMx= 0.00D+00
 Leave Link 1102 at Tue Jul 19 20:56:07 2016, MaxMem=    33554432 cpu:         0.1
 (Enter /home/proyectos/fulerenos/M3C-v2.0/M3C-deps_CCC/g09-AM64L-G09RevC.01/l1110.exe)
 Forming Gx(P) for the SCF density, NAtomX=     8.
 Integral derivatives from FoFJK, PRISM(SPDF).
 Do as many integral derivatives as possible in FoFJK.
 G2DrvN: MDV=      33554264.
 G2DrvN: will do     9 centers at a time, making    1 passes.
 Calling FoFCou, ICntrl=  3107 FMM=F I1Cent=   0 AccDes= 0.00D+00.
 FoFJK:  IHMeth= 1 ICntrl=    3107 DoSepK=F KAlg= 0 I1Cent=   0 FoldK=F
 IRaf=         0 NMat=   1 IRICut=       1 DoRegI=T DoRafI=F ISym2E= 1.
 FoFCou: FMM=F IPFlag=           0 FMFlag=      100000 FMFlg1=           0
         NFxFlg=           0 DoJE=F BraDBF=F KetDBF=F FulRan=T
         wScrn=  0.000000 ICntrl=    3107 IOpCl=  1 I1Cent=           0 NGrid=           0
         NMat0=    1 NMatS0=      1 NMatT0=    0 NMatD0=    1 NMtDS0=    0 NMtDT0=    0
 Petite list used in FoFCou.
 End of G2Drv F.D. properties file   721 does not exist.
 End of G2Drv F.D. properties file   722 does not exist.
 End of G2Drv F.D. properties file   788 does not exist.
 Leave Link 1110 at Tue Jul 19 20:59:58 2016, MaxMem=    33554432 cpu:       231.3
 (Enter /home/proyectos/fulerenos/M3C-v2.0/M3C-deps_CCC/g09-AM64L-G09RevC.01/l1002.exe)
 Minotr:  UHF open shell wavefunction.
          IDoAtm=11111111
          Direct CPHF calculation.
          Differentiating once with respect to electric field.
                with respect to dipole field.
          Differentiating once with respect to nuclear coordinates.
          Using symmetry in CPHF.
          Requested convergence is 1.0D-08 RMS, and 1.0D-07 maximum.
          Secondary convergence is 1.0D-12 RMS, and 1.0D-12 maximum.
          NewPWx=T KeepS1=F KeepF1=F KeepIn=T MapXYZ=F SortEE=F KeepMc=T.
          MDV=      33553898 using IRadAn=       2.
 Generate precomputed XC quadrature information.
          Solving linear equations simultaneously, MaxMat=       0.
 FoFJK:  IHMeth= 1 ICntrl=       0 DoSepK=F KAlg= 0 I1Cent=   0 FoldK=F
 IRaf= 990000000 NMat=  18 IRICut=      45 DoRegI=T DoRafI=T ISym2E= 2.
 FoFCou: FMM=F IPFlag=           0 FMFlag=      100000 FMFlg1=           0
         NFxFlg=           0 DoJE=F BraDBF=F KetDBF=F FulRan=T
         wScrn=  0.000000 ICntrl=       0 IOpCl=  1 I1Cent=           0 NGrid=           0
         NMat0=   18 NMatS0=     18 NMatT0=    0 NMatD0=   18 NMtDS0=    0 NMtDT0=    0
 Integrals replicated using symmetry in FoFCou.
          There are    18 degrees of freedom in the 1st order CPHF.  IDoFFX=4 NUNeed=    18.
     18 vectors produced by pass  0 Test12= 3.71D-14 5.56D-09 XBig12= 2.85D+02 8.82D+00.
 AX will form    18 AO Fock derivatives at one time.
     18 vectors produced by pass  1 Test12= 3.71D-14 5.56D-09 XBig12= 2.54D+02 3.70D+00.
     18 vectors produced by pass  2 Test12= 3.71D-14 5.56D-09 XBig12= 9.00D+00 9.43D-01.
     18 vectors produced by pass  3 Test12= 3.71D-14 5.56D-09 XBig12= 1.23D-01 7.63D-02.
     18 vectors produced by pass  4 Test12= 3.71D-14 5.56D-09 XBig12= 1.34D-03 7.17D-03.
     18 vectors produced by pass  5 Test12= 3.71D-14 5.56D-09 XBig12= 8.99D-06 4.69D-04.
     18 vectors produced by pass  6 Test12= 3.71D-14 5.56D-09 XBig12= 4.95D-08 3.15D-05.
     14 vectors produced by pass  7 Test12= 3.71D-14 5.56D-09 XBig12= 3.50D-10 2.46D-06.
      4 vectors produced by pass  8 Test12= 3.71D-14 5.56D-09 XBig12= 1.89D-12 1.71D-07.
      3 vectors produced by pass  9 Test12= 3.71D-14 5.56D-09 XBig12= 1.30D-13 9.80D-08.
      3 vectors produced by pass 10 Test12= 3.71D-14 5.56D-09 XBig12= 2.92D-15 1.09D-08.
 InvSVY:  IOpt=1 It=  1 EMax= 3.55D-15
 Solved reduced A of dimension   150 with    18 vectors.
 FullF1:  Do perturbations    1 to    18.
 Isotropic polarizability for W=    0.000000       45.58 Bohr**3.
 End of Minotr F.D. properties file   721 does not exist.
 End of Minotr F.D. properties file   722 does not exist.
 End of Minotr F.D. properties file   788 does not exist.
 Leave Link 1002 at Tue Jul 19 21:25:51 2016, MaxMem=    33554432 cpu:      1552.6
 (Enter /home/proyectos/fulerenos/M3C-v2.0/M3C-deps_CCC/g09-AM64L-G09RevC.01/l601.exe)
 Copying SCF densities to generalized density rwf, IOpCl= 1 IROHF=0.

 **********************************************************************

            Population analysis using the SCF density.

 **********************************************************************

 Orbital symmetries:
 Alpha Orbitals:
       Occupied  (B2) (A1) (A1) (A1) (B2) (A1) (A1) (B2) (A1) (B2)
                 (A1) (B1) (B2) (A1) (A1) (B1) (A2)
       Virtual   (B2) (B1) (A2) (A1) (B2) (A1) (A1) (B1) (B2) (A1)
                 (A2) (B1) (A1) (B2) (A1) (A1) (B2) (A1) (B2) (A1)
                 (B2) (B1) (A2) (A1) (B2) (A1) (B2) (A1) (B1) (A1)
                 (B2) (B2) (A1) (B2) (A1) (A2) (B2) (A1) (A2) (B1)
                 (A1) (B1) (B2) (A1) (B2) (B1) (B1) (A1) (B2) (A2)
                 (A1) (B2) (A2) (B2) (A1) (B1) (A1) (B1) (A2) (A1)
                 (B2) (B2) (A1) (B1) (A1) (B2) (A2) (A2) (A1) (B2)
                 (A1) (B2) (A1) (A1) (B1) (B2) (B2) (A1) (B2) (A1)
                 (B2) (A2) (B2) (A1) (B1) (B1) (A1) (A2) (B1) (A1)
                 (B2) (B2) (A2) (B1) (B2) (A1) (A1) (A1) (B2) (A1)
                 (B1) (A1) (A2) (B2) (A1) (B2) (A2) (B1) (A2) (A1)
                 (B2) (A1) (B2) (B1) (B2) (A1) (B2) (A1) (B1) (B2)
                 (B1) (A1) (A2) (B1) (A2) (B1) (A1) (B2) (A2) (A1)
                 (B1) (B1) (A2) (A1) (B2) (A2) (A1) (B1) (A1) (B2)
                 (A1) (B2) (B2) (B2) (A1) (A1) (B2) (B2) (A1) (B1)
                 (B2) (A1) (A2) (A1) (B2) (B2) (B1) (A2) (A1) (B1)
                 (B1) (A1) (B2) (A2) (A2) (B2) (A1) (B1) (A1) (A2)
                 (B2) (B2) (A1) (A1) (B2) (B2) (B2) (A1) (B1) (A2)
                 (B1) (A2) (A1) (B1) (B2) (A1) (B2) (A1) (A2) (B1)
                 (A2) (B1) (A1) (B2) (A1) (A2) (B2) (A1) (B2) (A1)
                 (B2) (A1) (B2) (A1) (A1) (B2) (A1) (B2)
 Beta  Orbitals:
       Occupied  (B2) (A1) (A1) (A1) (B2) (A1) (A1) (B2) (A1) (A1)
                 (B2) (B2) (A1) (B1) (A1)
       Virtual   (B1) (A2) (B2) (B1) (A1) (A2) (B2) (A1) (A1) (B1)
                 (B2) (A1) (A2) (B1) (A1) (B2) (A1) (A1) (B2) (A1)
                 (B2) (A1) (B2) (B1) (A2) (B2) (A1) (A1) (B2) (A1)
                 (B1) (A1) (B2) (B2) (A1) (B2) (A1) (A2) (B2) (A1)
                 (A1) (B1) (A2) (B1) (B2) (A1) (B2) (B1) (B1) (A1)
                 (B2) (A1) (A2) (B2) (B2) (A1) (A2) (A1) (B1) (B1)
                 (A2) (A1) (B2) (B2) (A1) (A1) (B2) (B1) (A2) (A2)
                 (A1) (B2) (A1) (B2) (A1) (A1) (B1) (B2) (B2) (B2)
                 (A1) (A1) (B2) (A2) (B2) (A1) (B1) (A1) (B1) (A2)
                 (A1) (B1) (B2) (B2) (A2) (B2) (B1) (A1) (A1) (A1)
                 (A1) (B2) (B1) (A1) (A2) (B2) (A1) (B2) (A2) (B1)
                 (A1) (A2) (B2) (A1) (B2) (B2) (B1) (A1) (B2) (A1)
                 (B1) (B2) (A1) (B1) (A2) (B1) (A2) (B1) (A1) (B2)
                 (A1) (A2) (B1) (B1) (A2) (A1) (B2) (A2) (A1) (B1)
                 (B2) (A1) (A1) (B2) (B2) (B2) (A1) (A1) (B2) (A1)
                 (B2) (B1) (B2) (A1) (A2) (A1) (B2) (B2) (B1) (A2)
                 (A1) (B1) (B1) (A1) (B2) (A2) (A2) (B2) (A1) (B1)
                 (A1) (A2) (B2) (B2) (A1) (A1) (B2) (B2) (B2) (A1)
                 (B1) (A2) (B1) (A2) (A1) (B1) (B2) (A1) (B2) (A1)
                 (A2) (B1) (A2) (B1) (A1) (B2) (A1) (A2) (B2) (A1)
                 (B2) (A1) (B2) (A1) (B2) (A1) (A1) (B2) (A1) (B2)
 The electronic state is 3-B2.
 Alpha  occ. eigenvalues --  -10.49054 -10.49051 -10.48508 -10.47094 -10.46939
 Alpha  occ. eigenvalues --   -1.17113  -0.98478  -0.98067  -0.82653  -0.76052
 Alpha  occ. eigenvalues --   -0.75833  -0.67641  -0.66616  -0.66255  -0.52509
 Alpha  occ. eigenvalues --   -0.51892  -0.50995
 Alpha virt. eigenvalues --   -0.37672  -0.25326  -0.18312  -0.15270  -0.12523
 Alpha virt. eigenvalues --   -0.12096  -0.11393  -0.10649  -0.08668  -0.08397
 Alpha virt. eigenvalues --   -0.05901  -0.05640  -0.05408  -0.03781  -0.02138
 Alpha virt. eigenvalues --   -0.01678  -0.01648  -0.00882  -0.00382  -0.00115
 Alpha virt. eigenvalues --   -0.00002   0.00095   0.01408   0.06221   0.06222
 Alpha virt. eigenvalues --    0.06842   0.07779   0.08139   0.09272   0.10107
 Alpha virt. eigenvalues --    0.10824   0.12114   0.14885   0.16714   0.19041
 Alpha virt. eigenvalues --    0.22068   0.22797   0.23324   0.24019   0.24054
 Alpha virt. eigenvalues --    0.24741   0.25068   0.26450   0.27232   0.29005
 Alpha virt. eigenvalues --    0.29867   0.31859   0.33764   0.35762   0.37823
 Alpha virt. eigenvalues --    0.38435   0.41002   0.42047   0.42120   0.42566
 Alpha virt. eigenvalues --    0.43784   0.43918   0.47517   0.47863   0.49175
 Alpha virt. eigenvalues --    0.50368   0.55540   0.59176   0.63314   0.63983
 Alpha virt. eigenvalues --    0.64042   0.65814   0.67642   0.68036   0.68608
 Alpha virt. eigenvalues --    0.75803   0.76106   0.83196   0.84863   0.85676
 Alpha virt. eigenvalues --    0.85894   0.91546   0.93393   0.93530   0.96661
 Alpha virt. eigenvalues --    0.97832   1.00445   1.00885   1.02298   1.03626
 Alpha virt. eigenvalues --    1.07376   1.07773   1.10029   1.11494   1.12064
 Alpha virt. eigenvalues --    1.15452   1.18160   1.23392   1.24923   1.26648
 Alpha virt. eigenvalues --    1.30395   1.34934   1.40616   1.55390   1.55770
 Alpha virt. eigenvalues --    1.59438   1.64830   1.65016   1.67653   1.67656
 Alpha virt. eigenvalues --    1.70728   1.75679   1.75874   2.01636   2.01793
 Alpha virt. eigenvalues --    2.03938   2.06189   2.14686   2.20794   2.22570
 Alpha virt. eigenvalues --    2.28419   2.29802   2.30634   2.37523   2.46709
 Alpha virt. eigenvalues --    2.48406   2.49037   2.50591   2.57425   2.58781
 Alpha virt. eigenvalues --    2.62424   2.66817   2.67191   2.68528   2.69694
 Alpha virt. eigenvalues --    2.70759   2.72493   2.79269   2.86154   2.90585
 Alpha virt. eigenvalues --    2.91642   2.96599   2.99833   3.01053   3.01693
 Alpha virt. eigenvalues --    3.01812   3.02461   3.12312   3.21478   3.25873
 Alpha virt. eigenvalues --    3.29309   3.38806   3.39461   3.39476   3.43476
 Alpha virt. eigenvalues --    3.56034   3.56110   3.60663   3.63974   3.74643
 Alpha virt. eigenvalues --    3.86582   3.86788   3.89281   3.92534   3.95547
 Alpha virt. eigenvalues --    3.99341   4.04545   4.07261   4.22265   4.25825
 Alpha virt. eigenvalues --    4.29677   4.32364   4.38630   4.44337   4.45770
 Alpha virt. eigenvalues --    4.59142   4.66463   4.72193   5.15019   5.38152
 Alpha virt. eigenvalues --    5.59679   5.76266   5.90982   6.72584   6.74456
 Alpha virt. eigenvalues --    6.77079   6.79423   6.87355   6.88125   6.94686
 Alpha virt. eigenvalues --    7.03992   7.05045   7.09650   7.16339   7.17034
 Alpha virt. eigenvalues --    7.23643   7.23726   7.28998   7.31240   7.40408
 Alpha virt. eigenvalues --    7.45130   7.63318   7.73440   7.77662   7.96549
 Alpha virt. eigenvalues --    8.13142   8.37257   9.11543  23.40065  24.56573
 Alpha virt. eigenvalues --   24.69951  24.80031  26.10248
  Beta  occ. eigenvalues --  -10.48307 -10.48305 -10.47825 -10.46625 -10.46474
  Beta  occ. eigenvalues --   -1.14898  -0.96000  -0.95484  -0.81076  -0.75105
  Beta  occ. eigenvalues --   -0.74748  -0.65837  -0.65497  -0.60902  -0.51759
  Beta virt. eigenvalues --   -0.40774  -0.39471  -0.36542  -0.18622  -0.15090
  Beta virt. eigenvalues --   -0.13425  -0.12367  -0.11782  -0.10826  -0.10121
  Beta virt. eigenvalues --   -0.08557  -0.08169  -0.05268  -0.05148  -0.05066
  Beta virt. eigenvalues --   -0.03545  -0.01965  -0.01152  -0.01047  -0.00453
  Beta virt. eigenvalues --   -0.00183   0.00172   0.00276   0.00716   0.02021
  Beta virt. eigenvalues --    0.06450   0.06510   0.07306   0.08182   0.08606
  Beta virt. eigenvalues --    0.10141   0.10800   0.10803   0.12741   0.15728
  Beta virt. eigenvalues --    0.16979   0.19350   0.23620   0.23840   0.24099
  Beta virt. eigenvalues --    0.25012   0.25381   0.25476   0.26286   0.26986
  Beta virt. eigenvalues --    0.28014   0.29621   0.32119   0.33513   0.34209
  Beta virt. eigenvalues --    0.36484   0.39134   0.39148   0.41657   0.42555
  Beta virt. eigenvalues --    0.43027   0.44092   0.44440   0.45478   0.48278
  Beta virt. eigenvalues --    0.48587   0.49484   0.50932   0.55908   0.59443
  Beta virt. eigenvalues --    0.64406   0.64514   0.64926   0.67103   0.67983
  Beta virt. eigenvalues --    0.68930   0.69763   0.76211   0.76635   0.84019
  Beta virt. eigenvalues --    0.85331   0.86120   0.86303   0.92650   0.94019
  Beta virt. eigenvalues --    0.94077   0.97442   0.98017   1.01097   1.01547
  Beta virt. eigenvalues --    1.03047   1.04437   1.08282   1.09741   1.13080
  Beta virt. eigenvalues --    1.13195   1.13875   1.16304   1.18324   1.26108
  Beta virt. eigenvalues --    1.27308   1.27372   1.32677   1.35637   1.41591
  Beta virt. eigenvalues --    1.56357   1.56696   1.62459   1.65509   1.67901
  Beta virt. eigenvalues --    1.68301   1.70075   1.73433   1.78217   1.78782
  Beta virt. eigenvalues --    2.03074   2.04511   2.05649   2.07587   2.15349
  Beta virt. eigenvalues --    2.22978   2.23092   2.29848   2.30268   2.31822
  Beta virt. eigenvalues --    2.40318   2.47670   2.50616   2.51534   2.54176
  Beta virt. eigenvalues --    2.61085   2.61318   2.65657   2.67542   2.69768
  Beta virt. eigenvalues --    2.71458   2.71482   2.73667   2.75605   2.82170
  Beta virt. eigenvalues --    2.87183   2.92234   2.94526   2.99684   3.02239
  Beta virt. eigenvalues --    3.02605   3.03177   3.03645   3.05029   3.13514
  Beta virt. eigenvalues --    3.23402   3.26612   3.30072   3.39816   3.40206
  Beta virt. eigenvalues --    3.42138   3.45107   3.56623   3.56744   3.62225
  Beta virt. eigenvalues --    3.64475   3.75579   3.86888   3.89708   3.92386
  Beta virt. eigenvalues --    3.92874   3.97944   4.00500   4.05371   4.07248
  Beta virt. eigenvalues --    4.23567   4.28065   4.30368   4.32954   4.39626
  Beta virt. eigenvalues --    4.44783   4.48252   4.59516   4.66726   4.72384
  Beta virt. eigenvalues --    5.15274   5.38361   5.60133   5.76882   5.91381
  Beta virt. eigenvalues --    6.75824   6.78177   6.80321   6.82708   6.89705
  Beta virt. eigenvalues --    6.91018   6.97273   7.07382   7.09565   7.14161
  Beta virt. eigenvalues --    7.19083   7.20660   7.26856   7.26857   7.29796
  Beta virt. eigenvalues --    7.31679   7.42437   7.48319   7.63946   7.74317
  Beta virt. eigenvalues --    7.78718   7.97255   8.13651   8.37849   9.12475
  Beta virt. eigenvalues --   23.40776  24.57347  24.70846  24.80818  26.10866
          Condensed to atoms (all electrons):
               1          2          3          4          5          6
     1  C    6.765728  -0.028897  -0.103141  -0.039949   0.000471  -0.321239
     2  C   -0.028897   5.814351   0.454706   0.256939  -0.046227   0.074275
     3  H   -0.103141   0.454706   0.416031  -0.055255   0.004572   0.012709
     4  C   -0.039949   0.256939  -0.055255   5.259068   0.404512   0.256939
     5  H    0.000471  -0.046227   0.004572   0.404512   0.429415  -0.046227
     6  C   -0.321239   0.074275   0.012709   0.256939  -0.046227   5.814351
     7  H    0.008125   0.012709   0.001156  -0.055255   0.004572   0.454706
     8  C   -0.605925  -0.321239   0.008125  -0.039949   0.000471  -0.028897
               7          8
     1  C    0.008125  -0.605925
     2  C    0.012709  -0.321239
     3  H    0.001156   0.008125
     4  C   -0.055255  -0.039949
     5  H    0.004572   0.000471
     6  C    0.454706  -0.028897
     7  H    0.416031  -0.103141
     8  C   -0.103141   6.765728
          Atomic-Atomic Spin Densities.
               1          2          3          4          5          6
     1  C    0.189002   0.045745   0.005059  -0.023773  -0.000285  -0.015887
     2  C    0.045745   0.449137  -0.002346   0.056351   0.002881  -0.017720
     3  H    0.005059  -0.002346  -0.023238   0.004438  -0.000392  -0.000278
     4  C   -0.023773   0.056351   0.004438   0.382554   0.000134   0.056351
     5  H   -0.000285   0.002881  -0.000392   0.000134  -0.020825   0.002881
     6  C   -0.015887  -0.017720  -0.000278   0.056351   0.002881   0.449137
     7  H   -0.001630  -0.000278  -0.000047   0.004438  -0.000392  -0.002346
     8  C    0.082102  -0.015887  -0.001630  -0.023773  -0.000285   0.045745
               7          8
     1  C   -0.001630   0.082102
     2  C   -0.000278  -0.015887
     3  H   -0.000047  -0.001630
     4  C    0.004438  -0.023773
     5  H   -0.000392  -0.000285
     6  C   -0.002346   0.045745
     7  H   -0.023238   0.005059
     8  C    0.005059   0.189002
 Mulliken charges and spin densities:
               1          2
     1  C    0.324827   0.280333
     2  C   -0.216618   0.517883
     3  H    0.261096  -0.018435
     4  C    0.012950   0.456719
     5  H    0.248439  -0.016283
     6  C   -0.216618   0.517883
     7  H    0.261096  -0.018435
     8  C    0.324827   0.280333
 Sum of Mulliken charges =   1.00000   2.00000
 Mulliken charges and spin densities with hydrogens summed into heavy atoms:
               1          2
     1  C    0.324827   0.280333
     2  C    0.044478   0.499449
     4  C    0.261389   0.440436
     6  C    0.044478   0.499449
     8  C    0.324827   0.280333
 APT charges:
               1
     1  C   -0.112753
     2  C    0.268697
     3  H    0.146753
     4  C    0.268049
     5  H    0.126555
     6  C    0.268697
     7  H    0.146753
     8  C   -0.112753
 Sum of APT charges =   1.00000
 APT charges with hydrogens summed into heavy atoms:
               1
     1  C   -0.112753
     2  C    0.415451
     4  C    0.394604
     6  C    0.415451
     8  C   -0.112753
 Electronic spatial extent (au):  <R**2>=            254.4324
 Charge=              1.0000 electrons
 Dipole moment (field-independent basis, Debye):
    X=              0.0000    Y=              0.0000    Z=              1.8219  Tot=              1.8219
 Quadrupole moment (field-independent basis, Debye-Ang):
   XX=            -27.0782   YY=            -16.1679   ZZ=            -20.0231
   XY=              0.0000   XZ=              0.0000   YZ=              0.0000
 Traceless Quadrupole moment (field-independent basis, Debye-Ang):
   XX=             -5.9885   YY=              4.9219   ZZ=              1.0666
   XY=              0.0000   XZ=              0.0000   YZ=              0.0000
 Octapole moment (field-independent basis, Debye-Ang**2):
  XXX=             -0.0000  YYY=              0.0000  ZZZ=             11.8804  XYY=              0.0000
  XXY=             -0.0000  XXZ=              0.8443  XZZ=             -0.0000  YZZ=             -0.0000
  YYZ=              5.7658  XYZ=              0.0000
 Hexadecapole moment (field-independent basis, Debye-Ang**3):
 XXXX=            -28.2477 YYYY=           -115.2505 ZZZZ=           -131.3822 XXXY=             -0.0000
 XXXZ=              0.0000 YYYX=             -0.0000 YYYZ=             -0.0000 ZZZX=              0.0000
 ZZZY=             -0.0000 XXYY=            -33.2275 XXZZ=            -30.8648 YYZZ=            -49.9487
 XXYZ=              0.0000 YYXZ=              0.0000 ZZXY=             -0.0000
 N-N= 1.337500738513D+02 E-N=-7.042702740051D+02  KE= 1.909710569934D+02
 Symmetry A1   KE= 1.134634068684D+02
 Symmetry A2   KE= 1.284498748451D+00
 Symmetry B1   KE= 3.326628157677D+00
 Symmetry B2   KE= 7.289652321892D+01
  Exact polarizability:  28.395  -0.000  57.354  -0.000   0.000  50.993
 Approx polarizability:  41.266   0.000 134.052  -0.000  -0.000  91.621
                          Isotropic Fermi Contact Couplings
        Atom                 a.u.       MegaHertz       Gauss      10(-4) cm-1
     1  C(13)             -0.01348      -7.57823      -2.70410      -2.52783
     2  C(13)              0.01489       8.37095       2.98696       2.79225
     3  H(1)              -0.00834     -18.64131      -6.65168      -6.21807
     4  C(13)              0.00814       4.57491       1.63244       1.52602
     5  H(1)              -0.00730     -16.30560      -5.81824      -5.43896
     6  C(13)              0.01489       8.37095       2.98696       2.79225
     7  H(1)              -0.00834     -18.64131      -6.65168      -6.21807
     8  C(13)             -0.01348      -7.57823      -2.70410      -2.52783
 --------------------------------------------------------
       Center         ----  Spin Dipole Couplings  ----
                      3XX-RR        3YY-RR        3ZZ-RR
 --------------------------------------------------------
     1   Atom        0.437216     -0.214970     -0.222246
     2   Atom        0.656298     -0.317071     -0.339227
     3   Atom       -0.010427      0.047252     -0.036825
     4   Atom        0.608320     -0.308486     -0.299834
     5   Atom       -0.011379     -0.040325      0.051704
     6   Atom        0.656298     -0.317071     -0.339227
     7   Atom       -0.010427      0.047252     -0.036825
     8   Atom        0.437216     -0.214970     -0.222246
 --------------------------------------------------------
                        XY            XZ            YZ
 --------------------------------------------------------
     1   Atom       -0.000000      0.000000      0.001019
     2   Atom        0.000000     -0.000000      0.000028
     3   Atom        0.000000     -0.000000     -0.024656
     4   Atom       -0.000000      0.000000     -0.000000
     5   Atom        0.000000     -0.000000      0.000000
     6   Atom       -0.000000      0.000000     -0.000028
     7   Atom       -0.000000     -0.000000      0.024656
     8   Atom       -0.000000     -0.000000     -0.001019
 --------------------------------------------------------


 ---------------------------------------------------------------------------------
              Anisotropic Spin Dipole Couplings in Principal Axis System
 ---------------------------------------------------------------------------------

       Atom             a.u.   MegaHertz   Gauss  10(-4) cm-1        Axes

              Baa    -0.2224   -29.842   -10.648    -9.954 -0.0000 -0.1361  0.9907
     1 C(13)  Bbb    -0.2148   -28.828   -10.287    -9.616  0.0000  0.9907  0.1361
              Bcc     0.4372    58.670    20.935    19.570  1.0000 -0.0000  0.0000
 
              Baa    -0.3392   -45.521   -16.243   -15.184  0.0000 -0.0013  1.0000
     2 C(13)  Bbb    -0.3171   -42.548   -15.182   -14.192 -0.0000  1.0000  0.0013
              Bcc     0.6563    88.069    31.425    29.377  1.0000  0.0000 -0.0000
 
              Baa    -0.0435   -23.221    -8.286    -7.746  0.0000  0.2621  0.9650
     3 H(1)   Bbb    -0.0104    -5.563    -1.985    -1.856  1.0000 -0.0000  0.0000
              Bcc     0.0539    28.784    10.271     9.601  0.0000  0.9650 -0.2621
 
              Baa    -0.3085   -41.396   -14.771   -13.808  0.0000  1.0000  0.0000
     4 C(13)  Bbb    -0.2998   -40.235   -14.357   -13.421  0.0000  0.0000  1.0000
              Bcc     0.6083    81.631    29.128    27.229  1.0000 -0.0000  0.0000
 
              Baa    -0.0403   -21.515    -7.677    -7.177 -0.0000  1.0000 -0.0000
     5 H(1)   Bbb    -0.0114    -6.071    -2.166    -2.025  1.0000  0.0000  0.0000
              Bcc     0.0517    27.587     9.844     9.202  0.0000  0.0000  1.0000
 
              Baa    -0.3392   -45.521   -16.243   -15.184 -0.0000  0.0013  1.0000
     6 C(13)  Bbb    -0.3171   -42.548   -15.182   -14.192  0.0000  1.0000 -0.0013
              Bcc     0.6563    88.069    31.425    29.377  1.0000 -0.0000  0.0000
 
              Baa    -0.0435   -23.221    -8.286    -7.746  0.0000 -0.2621  0.9650
     7 H(1)   Bbb    -0.0104    -5.563    -1.985    -1.856  1.0000  0.0000  0.0000
              Bcc     0.0539    28.784    10.271     9.601 -0.0000  0.9650  0.2621
 
              Baa    -0.2224   -29.842   -10.648    -9.954  0.0000  0.1361  0.9907
     8 C(13)  Bbb    -0.2148   -28.828   -10.287    -9.616  0.0000  0.9907 -0.1361
              Bcc     0.4372    58.670    20.935    19.570  1.0000 -0.0000  0.0000
 

 ---------------------------------------------------------------------------------

 No NMR shielding tensors so no spin-rotation constants.
 Leave Link  601 at Tue Jul 19 21:25:52 2016, MaxMem=    33554432 cpu:         1.0
 (Enter /home/proyectos/fulerenos/M3C-v2.0/M3C-deps_CCC/g09-AM64L-G09RevC.01/l701.exe)
 Compute integral second derivatives.
 ... and contract with generalized density number  0.
 Leave Link  701 at Tue Jul 19 21:25:54 2016, MaxMem=    33554432 cpu:         1.3
 (Enter /home/proyectos/fulerenos/M3C-v2.0/M3C-deps_CCC/g09-AM64L-G09RevC.01/l702.exe)
 L702 exits ... SP integral derivatives will be done elsewhere.
 Leave Link  702 at Tue Jul 19 21:25:54 2016, MaxMem=    33554432 cpu:         0.1
 (Enter /home/proyectos/fulerenos/M3C-v2.0/M3C-deps_CCC/g09-AM64L-G09RevC.01/l703.exe)
 Compute integral second derivatives, UseDBF=F ICtDFT=           0.
 Integral derivatives from FoFJK, PRISM(SPDF).
 Calling FoFJK, ICntrl=    100127 FMM=F ISym2X=1 I1Cent= 0 IOpClX= 1 NMat=1 NMatS=1 NMatT=0.
 FoFJK:  IHMeth= 1 ICntrl=  100127 DoSepK=F KAlg= 0 I1Cent=   0 FoldK=F
 IRaf=         0 NMat=   1 IRICut=       1 DoRegI=T DoRafI=F ISym2E= 1.
 FoFCou: FMM=F IPFlag=           0 FMFlag=      100000 FMFlg1=         800
         NFxFlg=           0 DoJE=F BraDBF=F KetDBF=F FulRan=T
         wScrn=  0.000000 ICntrl=  100127 IOpCl=  1 I1Cent=           0 NGrid=           0
         NMat0=    1 NMatS0=      1 NMatT0=    0 NMatD0=    1 NMtDS0=    0 NMtDT0=    0
 Petite list used in FoFCou.
 Leave Link  703 at Tue Jul 19 21:38:43 2016, MaxMem=    33554432 cpu:       768.4
 (Enter /home/proyectos/fulerenos/M3C-v2.0/M3C-deps_CCC/g09-AM64L-G09RevC.01/l716.exe)
 Dipole        = 1.25721822D-16-1.05899501D-13 7.16789131D-01
 Polarizability= 2.83949317D+01-8.00197223D-08 5.73542505D+01
                -2.52445379D-08 2.73119734D-07 5.09930378D+01
 Full mass-weighted force constant matrix:
 Low frequencies ---   -7.6149    0.0002    0.0006    0.0008   12.2559   19.2426
 Low frequencies ---  202.9230  324.1273  399.3008
 Diagonal vibrational polarizability:
        1.6073327      22.1656154       1.2516571
 Harmonic frequencies (cm**-1), IR intensities (KM/Mole), Raman scattering
 activities (A**4/AMU), depolarization ratios for plane and unpolarized
 incident light, reduced masses (AMU), force constants (mDyne/A),
 and normal coordinates:
                      1                      2                      3
                     A2                     B1                     B2
 Frequencies --    202.9227               324.1273               399.2993
 Red. masses --      4.7187                 2.1490                10.6018
 Frc consts  --      0.1145                 0.1330                 0.9959
 IR Inten    --      0.0000                 0.8889               125.5297
  Atom  AN      X      Y      Z        X      Y      Z        X      Y      Z
     1   6     0.39   0.00  -0.00     0.09  -0.00   0.00    -0.00   0.30   0.53
     2   6    -0.12   0.00   0.00    -0.17  -0.00  -0.00     0.00  -0.20   0.12
     3   1    -0.58   0.00   0.00    -0.42   0.00   0.00    -0.00  -0.24  -0.02
     4   6    -0.00  -0.00  -0.00     0.17  -0.00  -0.00     0.00  -0.14   0.00
     5   1     0.00  -0.00  -0.00     0.74   0.00  -0.00    -0.00  -0.11   0.00
     6   6     0.12  -0.00   0.00    -0.17   0.00   0.00     0.00  -0.20  -0.12
     7   1     0.58  -0.00   0.00    -0.42   0.00  -0.00    -0.00  -0.24   0.02
     8   6    -0.39   0.00  -0.00     0.09   0.00   0.00     0.00   0.30  -0.53
                      4                      5                      6
                     B1                     A2                     A1
 Frequencies --    638.9949               756.6957               830.1460
 Red. masses --      1.1587                 1.4416                 7.1682
 Frc consts  --      0.2788                 0.4864                 2.9105
 IR Inten    --     19.9739                 0.0000                 0.0289
  Atom  AN      X      Y      Z        X      Y      Z        X      Y      Z
     1   6     0.02   0.00   0.00     0.04  -0.00   0.00     0.00  -0.01  -0.24
     2   6    -0.04  -0.00   0.00    -0.13  -0.00  -0.00    -0.00   0.40   0.05
     3   1     0.54   0.00   0.00     0.69  -0.00  -0.00     0.00   0.39  -0.06
     4   6    -0.10  -0.00  -0.00     0.00   0.00  -0.00     0.00   0.00   0.35
     5   1     0.63  -0.00  -0.00     0.00   0.00  -0.00    -0.00  -0.00   0.36
     6   6    -0.04   0.00  -0.00     0.13   0.00  -0.00     0.00  -0.40   0.05
     7   1     0.54   0.00  -0.00    -0.69   0.00  -0.00    -0.00  -0.39  -0.06
     8   6     0.02   0.00  -0.00    -0.04   0.00   0.00    -0.00   0.01  -0.24
                      7                      8                      9
                     B1                     A1                     B2
 Frequencies --    895.1887               967.2703              1008.1537
 Red. masses --      1.7031                 2.2406                 1.7221
 Frc consts  --      0.8041                 1.2351                 1.0313
 IR Inten    --      1.8821                 1.1219                 0.4193
  Atom  AN      X      Y      Z        X      Y      Z        X      Y      Z
     1   6    -0.02  -0.00  -0.00     0.00   0.02   0.03    -0.00   0.04  -0.05
     2   6     0.12   0.00  -0.00     0.00  -0.08  -0.12     0.00  -0.13   0.00
     3   1    -0.48   0.00   0.00    -0.00  -0.23  -0.59    -0.00  -0.21  -0.23
     4   6    -0.18  -0.00   0.00    -0.00  -0.00   0.26    -0.00   0.15   0.00
     5   1     0.69  -0.00   0.00     0.00  -0.00   0.28     0.00   0.86   0.00
     6   6     0.12  -0.00   0.00     0.00   0.08  -0.12     0.00  -0.13  -0.00
     7   1    -0.48  -0.00   0.00     0.00   0.23  -0.59    -0.00  -0.21   0.23
     8   6    -0.02  -0.00  -0.00    -0.00  -0.02   0.03    -0.00   0.04   0.05
                     10                     11                     12
                     A1                     B2                     B2
 Frequencies --   1166.9954              1188.7601              1301.7790
 Red. masses --      5.6067                 1.8698                 1.9306
 Frc consts  --      4.4988                 1.5568                 1.9276
 IR Inten    --     24.5657                16.9181                21.4306
  Atom  AN      X      Y      Z        X      Y      Z        X      Y      Z
     1   6     0.00   0.07   0.30    -0.00   0.10  -0.11    -0.00   0.03  -0.07
     2   6     0.00   0.26  -0.16     0.00  -0.09   0.09     0.00   0.00   0.19
     3   1    -0.00   0.21  -0.47    -0.00   0.07   0.67    -0.00  -0.22  -0.51
     4   6    -0.00   0.00  -0.18    -0.00  -0.04   0.00    -0.00   0.01   0.00
     5   1     0.00  -0.00  -0.21     0.00  -0.12   0.00     0.00  -0.54   0.00
     6   6    -0.00  -0.26  -0.16     0.00  -0.09  -0.09     0.00   0.00  -0.19
     7   1     0.00  -0.21  -0.47    -0.00   0.07  -0.67    -0.00  -0.22   0.51
     8   6    -0.00  -0.07   0.30    -0.00   0.10   0.11    -0.00   0.03   0.07
                     13                     14                     15
                     A1                     B2                     A1
 Frequencies --   1304.7057              1381.7571              1872.7076
 Red. masses --      1.6873                 2.5001                11.4773
 Frc consts  --      1.6923                 2.8124                23.7153
 IR Inten    --     28.3456                15.3298                34.7795
  Atom  AN      X      Y      Z        X      Y      Z        X      Y      Z
     1   6     0.00   0.01   0.04     0.00  -0.01   0.02    -0.00   0.68  -0.07
     2   6     0.00  -0.02  -0.15    -0.00  -0.10  -0.09    -0.00  -0.03   0.07
     3   1    -0.00   0.22   0.64    -0.00  -0.05   0.09     0.00  -0.02   0.15
     4   6    -0.00   0.00   0.11     0.00   0.31  -0.00    -0.00   0.00  -0.01
     5   1     0.00   0.00   0.13     0.00  -0.92  -0.00     0.00  -0.00  -0.01
     6   6    -0.00   0.02  -0.15    -0.00  -0.10   0.09     0.00   0.03   0.07
     7   1     0.00  -0.22   0.64     0.00  -0.05  -0.09    -0.00   0.02   0.15
     8   6    -0.00  -0.01   0.04    -0.00  -0.01  -0.02     0.00  -0.68  -0.07
                     16                     17                     18
                     A1                     B2                     A1
 Frequencies --   3188.4567              3234.2878              3240.3612
 Red. masses --      1.0939                 1.0934                 1.1010
 Frc consts  --      6.5520                 6.7388                 6.8111
 IR Inten    --      6.3104                34.3237                 0.4399
  Atom  AN      X      Y      Z        X      Y      Z        X      Y      Z
     1   6    -0.00   0.00   0.00     0.00   0.00  -0.00     0.00   0.00  -0.00
     2   6     0.00  -0.01   0.00    -0.00  -0.06   0.02    -0.00  -0.06   0.02
     3   1    -0.00   0.10  -0.03     0.00   0.67  -0.20     0.00   0.67  -0.20
     4   6     0.00   0.00  -0.09     0.00   0.00  -0.00     0.00   0.00   0.01
     5   1    -0.00  -0.00   0.99    -0.00  -0.00   0.00    -0.00  -0.00  -0.14
     6   6    -0.00   0.01   0.00    -0.00  -0.06  -0.02     0.00   0.06   0.02
     7   1     0.00  -0.10  -0.03     0.00   0.67   0.20    -0.00  -0.67  -0.20
     8   6    -0.00  -0.00   0.00     0.00   0.00   0.00    -0.00  -0.00  -0.00

 -------------------
 - Thermochemistry -
 -------------------
 Temperature   298.150 Kelvin.  Pressure   1.00000 Atm.
 Atom     1 has atomic number  6 and mass  12.00000
 Atom     2 has atomic number  6 and mass  12.00000
 Atom     3 has atomic number  1 and mass   1.00783
 Atom     4 has atomic number  6 and mass  12.00000
 Atom     5 has atomic number  1 and mass   1.00783
 Atom     6 has atomic number  6 and mass  12.00000
 Atom     7 has atomic number  1 and mass   1.00783
 Atom     8 has atomic number  6 and mass  12.00000
 Molecular mass:    63.02348 amu.
 Principal axes and moments of inertia in atomic units:
                           1         2         3
     Eigenvalues --   171.93502 188.53053 360.46555
           X           -0.00000   0.00000   1.00000
           Y            1.00000   0.00000   0.00000
           Z            0.00000   1.00000  -0.00000
 This molecule is an asymmetric top.
 Rotational symmetry number  2.
 Rotational temperatures (Kelvin)      0.50376     0.45942     0.24028
 Rotational constants (GHZ):          10.49665     9.57267     5.00670
 Zero-point vibrational energy     142969.4 (Joules/Mol)
                                   34.17049 (Kcal/Mol)
 Warning -- explicit consideration of   3 degrees of freedom as
           vibrations may cause significant error
 Vibrational temperatures:    291.96   466.35   574.50   919.37  1088.71
          (Kelvin)           1194.39  1287.98  1391.68  1450.51  1679.04
                             1710.36  1872.97  1877.18  1988.04  2694.41
                             4587.47  4653.41  4662.15
 
 Zero-point correction=                           0.054454 (Hartree/Particle)
 Thermal correction to Energy=                    0.059046
 Thermal correction to Enthalpy=                  0.059990
 Thermal correction to Gibbs Free Energy=         0.027299
 Sum of electronic and zero-point Energies=           -191.765762
 Sum of electronic and thermal Energies=              -191.761170
 Sum of electronic and thermal Enthalpies=            -191.760226
 Sum of electronic and thermal Free Energies=         -191.792917
 
                     E (Thermal)             CV                S
                      KCal/Mol        Cal/Mol-Kelvin    Cal/Mol-Kelvin
 Total                   37.052             15.328             68.804
 Electronic               0.000              0.000              2.183
 Translational            0.889              2.981             38.342
 Rotational               0.889              2.981             22.595
 Vibrational             35.274              9.366              5.684
 Vibration     1          0.639              1.836              2.106
 Vibration     2          0.709              1.627              1.289
 Vibration     3          0.765              1.472              0.965
                       Q            Log10(Q)             Ln(Q)
 Total Bot       0.277583D-12        -12.556607        -28.912655
 Total V=0       0.309393D+13         12.490510         28.760463
 Vib (Bot)       0.243188D-24        -24.614058        -56.675963
 Vib (Bot)    1  0.981512D+00         -0.008104         -0.018661
 Vib (Bot)    2  0.578528D+00         -0.237676         -0.547269
 Vib (Bot)    3  0.446602D+00         -0.350080         -0.806088
 Vib (V=0)       0.271056D+01          0.433059          0.997155
 Vib (V=0)    1  0.160153D+01          0.204535          0.470959
 Vib (V=0)    2  0.126465D+01          0.101971          0.234798
 Vib (V=0)    3  0.117041D+01          0.068339          0.157356
 Electronic      0.300000D+01          0.477121          1.098612
 Translational   0.196657D+08          7.293709         16.794385
 Rotational      0.193473D+05          4.286621          9.870310
 
                                                              b3lyp opt
                                                             IR Spectrum
 
     33 3                                                  1                  1 11    11     1                                       
     22 1                                                  8                  3 33    11     0 9 8  8  7   6         3  3    2       
     43 8                                                  7                  8 00    86     0 6 9  3  5   3         9  2    0       
     04 8                                                  3                  2 52    97     8 7 5  0  7   9         9  4    3       
 
     XX X                                                  X                  X XX    XX     X X X         X         X  X            
      X                                                    X                  X XX    XX                   X         X               
      X                                                    X                    XX    XX                   X         X               
      X                                                    X                    X      X                             X               
      X                                                    X                    X                                    X               
                                                           X                                                         X               
                                                                                                                     X               
                                                                                                                     X               
                                                                                                                     X               
                                                                                                                     X               
                                                                                                                     X               
                                                                                                                     X               
                                                                                                                     X               
                                                                                                                     X               
                                                                                                                     X               
                                                                                                                     X               
                                                                                                                     X               
                                                                                                                     X               
                                                                                                                     X               
                                                                                                                     X               
 
 ***** Axes restored to original set *****
 -------------------------------------------------------------------
 Center     Atomic                   Forces (Hartrees/Bohr)
 Number     Number              X              Y              Z
 -------------------------------------------------------------------
      1        6          -0.000051545   -0.000062263    0.000000000
      2        6          -0.000012098    0.000046924   -0.000000000
      3        1           0.000013778    0.000002977    0.000000000
      4        6           0.000000003    0.000041286    0.000000000
      5        1          -0.000000001   -0.000016554   -0.000000000
      6        6           0.000012105    0.000046922   -0.000000000
      7        1          -0.000013778    0.000002980   -0.000000000
      8        6           0.000051536   -0.000062271    0.000000000
 -------------------------------------------------------------------
 Cartesian Forces:  Max     0.000062271 RMS     0.000028968
 Z-matrix is all fixed cartesians, so copy forces.
 Force constants in Cartesian coordinates: 
                1             2             3             4             5 
      1  0.843900D+00
      2 -0.106638D+00  0.281992D+00
      3  0.000000D+00  0.000000D+00  0.161093D-01
      4 -0.752141D-01  0.108078D+00  0.000000D+00  0.709147D+00
      5  0.123814D+00 -0.234226D+00  0.000000D+00 -0.120354D+00  0.480039D+00
      6  0.000000D+00  0.000000D+00 -0.284171D-01  0.000000D+00  0.000000D+00
      7  0.235383D-02 -0.199043D-02  0.000000D+00 -0.336066D+00  0.828074D-01
      8  0.235988D-01 -0.114790D-01  0.000000D+00  0.796645D-01 -0.762682D-01
      9  0.000000D+00  0.000000D+00  0.790510D-02  0.000000D+00  0.000000D+00
     10 -0.173147D-01  0.114314D-01  0.000000D+00 -0.184000D+00 -0.118880D+00
     11 -0.114179D-01 -0.814737D-01  0.000000D+00 -0.666936D-01 -0.118877D+00
     12  0.000000D+00  0.000000D+00  0.118198D-01  0.000000D+00  0.000000D+00
     13  0.252649D-02 -0.289087D-03  0.000000D+00  0.538047D-02 -0.157376D-01
     14 -0.770532D-03 -0.213127D-02  0.000000D+00  0.502584D-02 -0.284356D-02
     15  0.000000D+00  0.000000D+00 -0.373875D-03  0.000000D+00  0.000000D+00
     16 -0.361416D-01 -0.764417D-02  0.000000D+00 -0.825308D-01  0.193550D-01
     17 -0.265505D-01 -0.998394D-02  0.000000D+00 -0.193482D-01 -0.380214D-01
     18  0.000000D+00  0.000000D+00  0.191703D-02  0.000000D+00  0.000000D+00
     19  0.948511D-03 -0.206995D-02  0.000000D+00 -0.580088D-03  0.244006D-02
     20 -0.303452D-02 -0.897214D-03  0.000000D+00  0.597933D-02  0.186815D-03
     21  0.000000D+00  0.000000D+00 -0.160281D-02  0.000000D+00  0.000000D+00
     22 -0.721058D+00 -0.878003D-03  0.000000D+00 -0.361364D-01  0.265545D-01
     23  0.998029D-03  0.581993D-01  0.000000D+00  0.764820D-02 -0.998921D-02
     24  0.000000D+00  0.000000D+00 -0.735746D-02  0.000000D+00  0.000000D+00
                6             7             8             9            10 
      6  0.891853D-01
      7  0.000000D+00  0.340897D+00
      8  0.000000D+00 -0.873330D-01  0.773701D-01
      9 -0.310709D-01  0.000000D+00  0.000000D+00  0.159175D-01
     10  0.000000D+00 -0.735742D-02 -0.129310D-01  0.000000D+00  0.484763D+00
     11  0.000000D+00  0.690710D-02  0.105034D-01  0.000000D+00  0.186033D-04
     12 -0.563547D-01  0.000000D+00  0.000000D+00  0.782155D-02  0.000000D+00
     13  0.000000D+00 -0.910036D-04  0.300810D-03  0.000000D+00 -0.674481D-01
     14  0.000000D+00 -0.376224D-03 -0.183922D-03  0.000000D+00 -0.215033D-04
     15  0.117172D-01  0.000000D+00  0.000000D+00 -0.194675D-02  0.000000D+00
     16  0.000000D+00 -0.581385D-03 -0.597921D-02  0.000000D+00 -0.183972D+00
     17  0.000000D+00 -0.243994D-02  0.188112D-03  0.000000D+00  0.118890D+00
     18  0.110877D-01  0.000000D+00  0.000000D+00  0.193556D-02  0.000000D+00
     19  0.000000D+00 -0.104093D-03 -0.355231D-03  0.000000D+00 -0.735649D-02
     20  0.000000D+00  0.355366D-03  0.767456D-03  0.000000D+00  0.129338D-01
     21  0.193556D-02  0.000000D+00  0.000000D+00  0.104080D-02  0.000000D+00
     22  0.000000D+00  0.949297D-03  0.303423D-02  0.000000D+00 -0.173147D-01
     23  0.000000D+00  0.206967D-02 -0.898000D-03  0.000000D+00 -0.114413D-01
     24  0.191703D-02  0.000000D+00  0.000000D+00 -0.160281D-02  0.000000D+00
               11            12            13            14            15 
     11  0.726430D+00
     12  0.000000D+00  0.107247D+00
     13 -0.215055D-04  0.000000D+00  0.518143D-01
     14 -0.346706D+00  0.000000D+00  0.235053D-04  0.357026D+00
     15  0.000000D+00 -0.338204D-01  0.000000D+00  0.000000D+00  0.150273D-01
     16  0.667036D-01  0.000000D+00  0.538212D-02 -0.502711D-02  0.000000D+00
     17 -0.118905D+00  0.000000D+00  0.157363D-01 -0.284521D-02  0.000000D+00
     18  0.000000D+00 -0.563547D-01  0.000000D+00  0.000000D+00  0.117172D-01
     19 -0.690435D-02  0.000000D+00 -0.909919D-04  0.376210D-03  0.000000D+00
     20  0.105025D-01  0.000000D+00 -0.300824D-03 -0.183934D-03  0.000000D+00
     21  0.000000D+00  0.782155D-02  0.000000D+00  0.000000D+00 -0.194676D-02
     22  0.114080D-01  0.000000D+00  0.252666D-02  0.769815D-03  0.000000D+00
     23 -0.814737D-01  0.000000D+00  0.288371D-03 -0.213144D-02  0.000000D+00
     24  0.000000D+00  0.118198D-01  0.000000D+00  0.000000D+00 -0.373875D-03
               16            17            18            19            20 
     16  0.709184D+00
     17  0.120319D+00  0.480002D+00
     18  0.000000D+00  0.000000D+00  0.891853D-01
     19 -0.336091D+00 -0.827674D-01  0.000000D+00  0.340924D+00
     20 -0.796245D-01 -0.762431D-01  0.000000D+00  0.872924D-01  0.773432D-01
     21  0.000000D+00  0.000000D+00 -0.310709D-01  0.000000D+00  0.000000D+00
     22 -0.752498D-01 -0.123839D+00  0.000000D+00  0.235050D-02 -0.236010D-01
     23 -0.108103D+00 -0.234191D+00  0.000000D+00  0.198830D-02 -0.114757D-01
     24  0.000000D+00  0.000000D+00 -0.284171D-01  0.000000D+00  0.000000D+00
               21            22            23            24 
     21  0.159175D-01
     22  0.000000D+00  0.843933D+00
     23  0.000000D+00  0.106551D+00  0.281960D+00
     24  0.790510D-02  0.000000D+00  0.000000D+00  0.161093D-01
 Leave Link  716 at Tue Jul 19 21:38:43 2016, MaxMem=    33554432 cpu:         0.1
 (Enter /home/proyectos/fulerenos/M3C-v2.0/M3C-deps_CCC/g09-AM64L-G09RevC.01/l103.exe)

 GradGradGradGradGradGradGradGradGradGradGradGradGradGradGradGradGradGrad
 Berny optimization.
 Search for a local minimum.
 Step number   1 out of a maximum of    2
 All quantities printed in internal units (Hartrees-Bohrs-Radians)
 Second derivative matrix not updated -- analytic derivatives used.
 ITU=  0
     Eigenvalues ---    0.00841   0.01068   0.03260   0.04828   0.05571
     Eigenvalues ---    0.06514   0.09592   0.13703   0.14799   0.19890
     Eigenvalues ---    0.24487   0.34978   0.53592   0.77968   0.95522
     Eigenvalues ---    0.99029   1.07526   1.59385
 Angle between quadratic step and forces=  49.50 degrees.
 ClnCor:  largest displacement from symmetrization is 6.47D-12 for atom     7.
 Linear search not attempted -- first point.
 ClnCor:  largest displacement from symmetrization is 8.90D-16 for atom     2.
 B after Tr=    -0.000000   -0.000023    0.000000
         Rot=    1.000000   -0.000000    0.000000    0.000000 Ang=   0.00 deg.
 Variable       Old X    -DE/DX   Delta X   Delta X   Delta X     New X
                                 (Linear)    (Quad)   (Total)
    X1        1.18771  -0.00005   0.00000  -0.00005  -0.00005   1.18766
    Y1        2.00887  -0.00006   0.00000  -0.00015  -0.00017   2.00869
    Z1       -0.00000   0.00000   0.00000   0.00000   0.00000  -0.00000
    X2        2.23065  -0.00001   0.00000   0.00005   0.00005   2.23070
    Y2       -0.45674   0.00005   0.00000   0.00007   0.00004  -0.45670
    Z2       -0.00000  -0.00000   0.00000  -0.00000   0.00000  -0.00000
    X3        4.18247   0.00001   0.00000   0.00011   0.00011   4.18258
    Y3       -1.04878   0.00000   0.00000   0.00016   0.00013  -1.04864
    Z3       -0.00000   0.00000   0.00000  -0.00000   0.00000  -0.00000
    X4       -0.00016   0.00000   0.00000   0.00000   0.00000  -0.00016
    Y4       -2.06901   0.00004   0.00000   0.00004   0.00002  -2.06899
    Z4        0.00000   0.00000   0.00000  -0.00000  -0.00000   0.00000
    X5       -0.00032  -0.00000   0.00000  -0.00000  -0.00000  -0.00032
    Y5       -4.11769  -0.00002   0.00000  -0.00001  -0.00003  -4.11772
    Z5        0.00000  -0.00000   0.00000   0.00000  -0.00000   0.00000
    X6       -2.23071   0.00001   0.00000  -0.00005  -0.00005  -2.23077
    Y6       -0.45640   0.00005   0.00000   0.00007   0.00004  -0.45635
    Z6        0.00000  -0.00000   0.00000   0.00000  -0.00000   0.00000
    X7       -4.18263  -0.00001   0.00000  -0.00011  -0.00011  -4.18274
    Y7       -1.04813   0.00000   0.00000   0.00016   0.00013  -1.04800
    Z7        0.00000  -0.00000   0.00000   0.00000  -0.00000   0.00000
    X8       -1.18740   0.00005   0.00000   0.00005   0.00005  -1.18735
    Y8        2.00905  -0.00006   0.00000  -0.00015  -0.00017   2.00888
    Z8        0.00000   0.00000   0.00000  -0.00000   0.00000   0.00000
         Item               Value     Threshold  Converged?
 Maximum Force            0.000062     0.000450     YES
 RMS     Force            0.000029     0.000300     YES
 Maximum Displacement     0.000174     0.001800     YES
 RMS     Displacement     0.000076     0.001200     YES
 Predicted change in Energy=-1.741335D-08
 Optimization completed.
    -- Stationary point found.
 GradGradGradGradGradGradGradGradGradGradGradGradGradGradGradGradGradGrad

 Leave Link  103 at Tue Jul 19 21:38:44 2016, MaxMem=    33554432 cpu:         0.1
 (Enter /home/proyectos/fulerenos/M3C-v2.0/M3C-deps_CCC/g09-AM64L-G09RevC.01/l9999.exe)
 1\1\GINC-EINSTENIO\Freq\UB3LYP\6-311++G(3df,2p)\C5H3(1+,3)\ROOT\19-Jul
 -2016\0\\#p b3lyp/6-311++G(3df,2p) freq symmetry=Loose\\b3lyp opt\\1,3
 \C,0.628510019,1.063046602,0.\C,1.180407048,-0.241696913,0.\H,2.213267
 393,-0.55498995,0.\C,-0.0000836576,-1.094872994,0.\H,-0.000167149,-2.1
 78988018,0.\C,-1.1804429371,-0.2415150958,0.\H,-2.2133515254,-0.554649
 0408,0.\C,-0.6283449491,1.0631433967,0.\\Version=EM64L-G09RevE.01\Stat
 e=3-B2\HF=-191.820216\S2=2.004309\S2-1=0.\S2A=2.000011\RMSD=8.009e-09\
 RMSF=2.897e-05\ZeroPoint=0.0544542\Thermal=0.0590457\Dipole=-0.0000552
 ,-0.7167891,0.\DipoleDeriv=-0.4078961,0.4191261,0.,-0.463223,-0.026648
 8,0.,0.,0.,0.096286,0.5600299,-0.2881741,0.,-0.3137672,0.0942856,0.,0.
 ,0.,0.1517766,0.1912545,0.0014973,0.,-0.0387615,0.1295777,0.,0.,0.,0.1
 194282,0.1462225,0.0000253,0.,0.0000253,0.4742056,0.,0.,0.,0.1837203,0
 .1668951,-0.0000027,0.,-0.0000028,0.1314707,0.,0.,0.,0.0812982,0.56012
 24,0.2881024,0.,0.3136953,0.0941929,0.,0.,0.,0.1517766,0.1912603,-0.00
 15068,0.,0.0387519,0.129572,0.,0.,0.,0.1194282,-0.4078886,-0.4190673,0
 .,0.4632819,-0.0266556,0.,0.,0.,0.096286\Polar=57.3542504,-0.0004896,5
 0.9930378,0.,0.,28.3949317\PG=C02V [C2(C1H1),SGV(C4H2)]\NImag=0\\0.843
 89980,-0.10663790,0.28199234,0.,0.,0.01610935,-0.07521410,0.10807818,0
 .,0.70914726,0.12381449,-0.23422650,0.,-0.12035436,0.48003881,0.,0.,-0
 .02841709,0.,0.,0.08918535,0.00235383,-0.00199043,0.,-0.33606619,0.082
 80745,0.,0.34089697,0.02359885,-0.01147901,0.,0.07966454,-0.07626816,0
 .,-0.08733299,0.07737009,0.,0.,0.00790510,0.,0.,-0.03107092,0.,0.,0.01
 591747,-0.01731467,0.01143138,0.,-0.18400020,-0.11887964,0.,-0.0073574
 2,-0.01293100,0.,0.48476318,-0.01141787,-0.08147370,0.,-0.06669357,-0.
 11887675,0.,0.00690710,0.01050343,0.,0.00001860,0.72642971,0.,0.,0.011
 81977,0.,0.,-0.05635474,0.,0.,0.00782155,0.,0.,0.10724721,0.00252649,-
 0.00028909,0.,0.00538047,-0.01573757,0.,-0.00009100,0.00030081,0.,-0.0
 6744806,-0.00002151,0.,0.05181432,-0.00077053,-0.00213127,0.,0.0050258
 4,-0.00284356,0.,-0.00037622,-0.00018392,0.,-0.00002150,-0.34670618,0.
 ,0.00002351,0.35702552,0.,0.,-0.00037387,0.,0.,0.01171715,0.,0.,-0.001
 94675,0.,0.,-0.03382035,0.,0.,0.01502731,-0.03614162,-0.00764417,0.,-0
 .08253080,0.01935503,0.,-0.00058138,-0.00597921,0.,-0.18397161,0.06670
 360,0.,0.00538212,-0.00502711,0.,0.70918433,-0.02655052,-0.00998394,0.
 ,-0.01934817,-0.03802144,0.,-0.00243994,0.00018811,0.,0.11888967,-0.11
 890533,0.,0.01573630,-0.00284521,0.,0.12031906,0.48000174,0.,0.,0.0019
 1703,0.,0.,0.01108766,0.,0.,0.00193556,0.,0.,-0.05635474,0.,0.,0.01171
 716,0.,0.,0.08918535,0.00094851,-0.00206995,0.,-0.00058009,0.00244006,
 0.,-0.00010409,-0.00035523,0.,-0.00735649,-0.00690435,0.,-0.00009099,0
 .00037621,0.,-0.33609121,-0.08276743,0.,0.34092386,-0.00303452,-0.0008
 9721,0.,0.00597933,0.00018681,0.,0.00035537,0.00076746,0.,0.01293375,0
 .01050250,0.,-0.00030082,-0.00018393,0.,-0.07962452,-0.07624314,0.,0.0
 8729239,0.07734320,0.,0.,-0.00160281,0.,0.,0.00193556,0.,0.,0.00104080
 ,0.,0.,0.00782155,0.,0.,-0.00194676,0.,0.,-0.03107092,0.,0.,0.01591747
 ,-0.72105822,-0.00087800,0.,-0.03613635,0.02655455,0.,0.00094930,0.003
 03423,0.,-0.01731471,0.01140799,0.,0.00252666,0.00076982,0.,-0.0752498
 2,-0.12383897,0.,0.00235050,-0.02360098,0.,0.84393264,0.00099803,0.058
 19927,0.,0.00764820,-0.00998921,0.,0.00206967,-0.00089800,0.,-0.011441
 27,-0.08147368,0.,0.00028837,-0.00213144,0.,-0.10810266,-0.23419078,0.
 ,0.00198830,-0.01147568,0.,0.10655135,0.28195950,0.,0.,-0.00735746,0.,
 0.,0.00191703,0.,0.,-0.00160281,0.,0.,0.01181976,0.,0.,-0.00037387,0.,
 0.,-0.02841709,0.,0.,0.00790510,0.,0.,0.01610935\\0.00005155,0.0000622
 6,0.,0.00001210,-0.00004692,0.,-0.00001378,-0.00000298,0.,0.,-0.000041
 29,0.,0.,0.00001655,0.,-0.00001211,-0.00004692,0.,0.00001378,-0.000002
 98,0.,-0.00005154,0.00006227,0.\\\@



 WE LOSE BECAUSE WE WIN

 GAMBLERS,

 RECOLLECTING WHICH,

 TOSS THEIR DICE AGAIN....


                          EMILY DICKINSON  BOLTS OF MELODY NO. 533
 Job cpu time:       0 days  0 hours 48 minutes 10.4 seconds.
 File lengths (MBytes):  RWF=     56 Int=      0 D2E=      0 Chk=      5 Scr=      1
 Normal termination of Gaussian 09 at Tue Jul 19 21:38:44 2016.
