 Entering Gaussian System, Link 0=/home/proyectos/fulerenos/M3C-v2.0/M3C-deps_CCC/g09-AM64L-G09RevC.01/g09
 Initial command:
 /home/proyectos/fulerenos/M3C-v2.0/M3C-deps_CCC/g09-AM64L-G09RevC.01/l1.exe "/scratch/naguirre/gaussian/Gau-16769.inp" -scrdir="/scratch/naguirre/gaussian/"
 Entering Link 1 = /home/proyectos/fulerenos/M3C-v2.0/M3C-deps_CCC/g09-AM64L-G09RevC.01/l1.exe PID=     16776.
  
 Copyright (c) 1988,1990,1992,1993,1995,1998,2003,2009,2015,
            Gaussian, Inc.  All Rights Reserved.
  
 This is part of the Gaussian(R) 09 program.  It is based on
 the Gaussian(R) 03 system (copyright 2003, Gaussian, Inc.),
 the Gaussian(R) 98 system (copyright 1998, Gaussian, Inc.),
 the Gaussian(R) 94 system (copyright 1995, Gaussian, Inc.),
 the Gaussian 92(TM) system (copyright 1992, Gaussian, Inc.),
 the Gaussian 90(TM) system (copyright 1990, Gaussian, Inc.),
 the Gaussian 88(TM) system (copyright 1988, Gaussian, Inc.),
 the Gaussian 86(TM) system (copyright 1986, Carnegie Mellon
 University), and the Gaussian 82(TM) system (copyright 1983,
 Carnegie Mellon University). Gaussian is a federally registered
 trademark of Gaussian, Inc.
  
 This software contains proprietary and confidential information,
 including trade secrets, belonging to Gaussian, Inc.
  
 This software is provided under written license and may be
 used, copied, transmitted, or stored only in accord with that
 written license.
  
 The following legend is applicable only to US Government
 contracts under FAR:
  
                    RESTRICTED RIGHTS LEGEND
  
 Use, reproduction and disclosure by the US Government is
 subject to restrictions as set forth in subparagraphs (a)
 and (c) of the Commercial Computer Software - Restricted
 Rights clause in FAR 52.227-19.
  
 Gaussian, Inc.
 340 Quinnipiac St., Bldg. 40, Wallingford CT 06492
  
  
 ---------------------------------------------------------------
 Warning -- This program may not be used in any manner that
 competes with the business of Gaussian, Inc. or will provide
 assistance to any competitor of Gaussian, Inc.  The licensee
 of this program is prohibited from giving any competitor of
 Gaussian, Inc. access to this program.  By using this program,
 the user acknowledges that Gaussian, Inc. is engaged in the
 business of creating and licensing software in the field of
 computational chemistry and represents and warrants to the
 licensee that it is not a competitor of Gaussian, Inc. and that
 it will not use this program in any manner prohibited above.
 ---------------------------------------------------------------
  

 Cite this work as:
 Gaussian 09, Revision E.01,
 M. J. Frisch, G. W. Trucks, H. B. Schlegel, G. E. Scuseria, 
 M. A. Robb, J. R. Cheeseman, G. Scalmani, V. Barone, B. Mennucci, 
 G. A. Petersson, H. Nakatsuji, M. Caricato, X. Li, H. P. Hratchian, 
 A. F. Izmaylov, J. Bloino, G. Zheng, J. L. Sonnenberg, M. Hada, 
 M. Ehara, K. Toyota, R. Fukuda, J. Hasegawa, M. Ishida, T. Nakajima, 
 Y. Honda, O. Kitao, H. Nakai, T. Vreven, J. A. Montgomery, Jr., 
 J. E. Peralta, F. Ogliaro, M. Bearpark, J. J. Heyd, E. Brothers, 
 K. N. Kudin, V. N. Staroverov, T. Keith, R. Kobayashi, J. Normand, 
 K. Raghavachari, A. Rendell, J. C. Burant, S. S. Iyengar, J. Tomasi, 
 M. Cossi, N. Rega, J. M. Millam, M. Klene, J. E. Knox, J. B. Cross, 
 V. Bakken, C. Adamo, J. Jaramillo, R. Gomperts, R. E. Stratmann, 
 O. Yazyev, A. J. Austin, R. Cammi, C. Pomelli, J. W. Ochterski, 
 R. L. Martin, K. Morokuma, V. G. Zakrzewski, G. A. Voth, 
 P. Salvador, J. J. Dannenberg, S. Dapprich, A. D. Daniels, 
 O. Farkas, J. B. Foresman, J. V. Ortiz, J. Cioslowski, 
 and D. J. Fox, Gaussian, Inc., Wallingford CT, 2013.
 
 ******************************************
 Gaussian 09:  EM64L-G09RevE.01 30-Nov-2015
                31-Jan-2019 
 ******************************************
 %NProcShared=4
 Will use up to    4 processors via shared memory.
 ------------------------------------------------------
 #p b3lyp/6-311++G(3df,2p) freq IOp(2/17=3) IOp(2/18=3)
 ------------------------------------------------------
 1/10=4,30=1,38=1/1,3;
 2/12=2,17=3,18=3,40=1/2;
 3/5=4,6=6,7=1216,11=2,16=1,25=1,30=1,71=2,74=-5,140=1/1,2,3;
 4//1;
 5/5=2,38=5,98=1/2;
 8/6=4,10=90,11=11/1;
 11/6=1,8=1,9=11,15=111,16=1/1,2,10;
 10/6=1/2;
 6/7=2,8=2,9=2,10=2,18=1,28=1/1;
 7/8=1,10=1,25=1/1,2,3,16;
 1/10=4,30=1/3;
 99//99;
 Leave Link    1 at Thu Jan 31 06:02:21 2019, MaxMem=           0 cpu:         0.2
 (Enter /home/proyectos/fulerenos/M3C-v2.0/M3C-deps_CCC/g09-AM64L-G09RevC.01/l101.exe)
 ---------
 b3lyp opt
 ---------
 Symbolic Z-matrix:
 Charge =  0 Multiplicity = 3
 C                    -1.27879  -0.08429  -0.00005 
 H                    -2.12103   0.59512  -0.00014 
 H                    -1.51015  -1.14958   0.00006 
 C                     0.00002   0.35367  -0.00007 
 C                     1.27878  -0.08447   0.00001 
 H                     1.50999  -1.14979   0.00013 
 H                     2.1211    0.59483  -0.00005 
 
 NAtoms=      7 NQM=        7 NQMF=       0 NMMI=      0 NMMIF=      0
                NMic=       0 NMicF=      0.
                    Isotopes and Nuclear Properties:
 (Nuclear quadrupole moments (NQMom) in fm**2, nuclear magnetic moments (NMagM)
  in nuclear magnetons)

  Atom         1           2           3           4           5           6           7
 IAtWgt=          12           1           1          12          12           1           1
 AtmWgt=  12.0000000   1.0078250   1.0078250  12.0000000  12.0000000   1.0078250   1.0078250
 NucSpn=           0           1           1           0           0           1           1
 AtZEff=   0.0000000   0.0000000   0.0000000   0.0000000   0.0000000   0.0000000   0.0000000
 NQMom=    0.0000000   0.0000000   0.0000000   0.0000000   0.0000000   0.0000000   0.0000000
 NMagM=    0.0000000   2.7928460   2.7928460   0.0000000   0.0000000   2.7928460   2.7928460
 AtZNuc=   6.0000000   1.0000000   1.0000000   6.0000000   6.0000000   1.0000000   1.0000000
 Leave Link  101 at Thu Jan 31 06:02:21 2019, MaxMem=    33554432 cpu:         0.3
 (Enter /home/proyectos/fulerenos/M3C-v2.0/M3C-deps_CCC/g09-AM64L-G09RevC.01/l103.exe)

 GradGradGradGradGradGradGradGradGradGradGradGradGradGradGradGradGradGrad
 Berny optimization.
 Initialization pass.
 Trust Radius=3.00D-01 FncErr=1.00D-07 GrdErr=1.00D-07
 Number of steps in this run=      2 maximum allowed number of steps=      2.
 GradGradGradGradGradGradGradGradGradGradGradGradGradGradGradGradGradGrad

 Leave Link  103 at Thu Jan 31 06:02:21 2019, MaxMem=    33554432 cpu:         0.1
 (Enter /home/proyectos/fulerenos/M3C-v2.0/M3C-deps_CCC/g09-AM64L-G09RevC.01/l202.exe)
                          Input orientation:                          
 ---------------------------------------------------------------------
 Center     Atomic      Atomic             Coordinates (Angstroms)
 Number     Number       Type             X           Y           Z
 ---------------------------------------------------------------------
      1          6           0       -1.278793   -0.084292   -0.000046
      2          1           0       -2.121026    0.595122   -0.000137
      3          1           0       -1.510153   -1.149581    0.000064
      4          6           0        0.000022    0.353667   -0.000068
      5          6           0        1.278775   -0.084470    0.000006
      6          1           0        1.509987   -1.149792    0.000126
      7          1           0        2.121104    0.594826   -0.000050
 ---------------------------------------------------------------------
                    Distance matrix (angstroms):
                    1          2          3          4          5
     1  C    0.000000
     2  H    1.082109   0.000000
     3  H    1.090123   1.848555   0.000000
     4  C    1.351730   2.134747   2.130818   0.000000
     5  C    2.557568   3.467059   2.985395   1.351730   0.000000
     6  H    2.985395   4.028521   3.020140   2.130818   1.090123
     7  H    3.467059   4.242130   4.028521   2.134747   1.082109
                    6          7
     6  H    0.000000
     7  H    1.848555   0.000000
 Stoichiometry    C3H4(3)
 Framework group  C2V[C2(C),SGV'(C2H4)]
 Deg. of freedom     6
 Full point group                 C2V     NOp   4
 Largest Abelian subgroup         C2V     NOp   4
 Largest concise Abelian subgroup C2      NOp   2
                         Standard orientation:                         
 ---------------------------------------------------------------------
 Center     Atomic      Atomic             Coordinates (Angstroms)
 Number     Number       Type             X           Y           Z
 ---------------------------------------------------------------------
      1          6           0        1.278784   -0.000000   -0.084381
      2          1           0        2.121065   -0.000000    0.594974
      3          1           0        1.510070   -0.000000   -1.149687
      4          6           0       -0.000000    0.000000    0.353667
      5          6           0       -1.278784    0.000000   -0.084381
      6          1           0       -1.510070    0.000000   -1.149687
      7          1           0       -2.121065    0.000000    0.594974
 ---------------------------------------------------------------------
 Rotational constants (GHZ):    100.6860992      9.5514063      8.7238353
 Leave Link  202 at Thu Jan 31 06:02:21 2019, MaxMem=    33554432 cpu:         0.1
 (Enter /home/proyectos/fulerenos/M3C-v2.0/M3C-deps_CCC/g09-AM64L-G09RevC.01/l301.exe)
 Standard basis: 6-311++G(3df,2p) (5D, 7F)
 Ernie: Thresh=  0.10000D-02 Tol=  0.10000D-05 Strict=F.
 There are    68 symmetry adapted cartesian basis functions of A1  symmetry.
 There are    22 symmetry adapted cartesian basis functions of A2  symmetry.
 There are    57 symmetry adapted cartesian basis functions of B1  symmetry.
 There are    28 symmetry adapted cartesian basis functions of B2  symmetry.
 There are    59 symmetry adapted basis functions of A1  symmetry.
 There are    21 symmetry adapted basis functions of A2  symmetry.
 There are    51 symmetry adapted basis functions of B1  symmetry.
 There are    26 symmetry adapted basis functions of B2  symmetry.
   157 basis functions,   222 primitive gaussians,   175 cartesian basis functions
    12 alpha electrons       10 beta electrons
       nuclear repulsion energy        58.3773369834 Hartrees.
 IExCor=  402 DFT=T Ex+Corr=B3LYP ExCW=0 ScaHFX=  0.200000
 ScaDFX=  0.800000  0.720000  1.000000  0.810000 ScalE2=  1.000000  1.000000
 IRadAn=      0 IRanWt=     -1 IRanGd=            0 ICorTp=0 IEmpDi=  4
 NAtoms=    7 NActive=    7 NUniq=    4 SFac= 3.06D+00 NAtFMM=   60 NAOKFM=F Big=F
 Integral buffers will be    131072 words long.
 Raffenetti 2 integral format.
 Two-electron integral symmetry is turned on.
 Leave Link  301 at Thu Jan 31 06:02:21 2019, MaxMem=    33554432 cpu:         0.3
 (Enter /home/proyectos/fulerenos/M3C-v2.0/M3C-deps_CCC/g09-AM64L-G09RevC.01/l302.exe)
 NPDir=0 NMtPBC=     1 NCelOv=     1 NCel=       1 NClECP=     1 NCelD=      1
         NCelK=      1 NCelE2=     1 NClLst=     1 CellRange=     0.0.
 One-electron integrals computed using PRISM.
 One-electron integral symmetry used in STVInt
 NBasis=   157 RedAO= T EigKep=  3.10D-05  NBF=    59    21    51    26
 NBsUse=   157 1.00D-06 EigRej= -1.00D+00 NBFU=    59    21    51    26
 Precomputing XC quadrature grid using
 IXCGrd= 4 IRadAn=           0 IRanWt=          -1 IRanGd=           0 AccXCQ= 0.00D+00.
 Generated NRdTot=       0 NPtTot=           0 NUsed=           0 NTot=          32
 NSgBfM=   175   175   175   175   175 MxSgAt=     7 MxSgA2=     7.
 Leave Link  302 at Thu Jan 31 06:02:21 2019, MaxMem=    33554432 cpu:         1.5
 (Enter /home/proyectos/fulerenos/M3C-v2.0/M3C-deps_CCC/g09-AM64L-G09RevC.01/l303.exe)
 DipDrv:  MaxL=1.
 Leave Link  303 at Thu Jan 31 06:02:21 2019, MaxMem=    33554432 cpu:         0.1
 (Enter /home/proyectos/fulerenos/M3C-v2.0/M3C-deps_CCC/g09-AM64L-G09RevC.01/l401.exe)
 ExpMin= 3.60D-02 ExpMax= 4.56D+03 ExpMxC= 6.82D+02 IAcc=3 IRadAn=         5 AccDes= 0.00D+00
 Harris functional with IExCor=  402 and IRadAn=       5 diagonalized for initial guess.
 HarFok:  IExCor=  402 AccDes= 0.00D+00 IRadAn=         5 IDoV= 1 UseB2=F ITyADJ=14
 ICtDFT=  3500011 ScaDFX=  1.000000  1.000000  1.000000  1.000000
 FoFCou: FMM=F IPFlag=           0 FMFlag=      100000 FMFlg1=           0
         NFxFlg=           0 DoJE=T BraDBF=F KetDBF=T FulRan=T
         wScrn=  0.000000 ICntrl=     500 IOpCl=  0 I1Cent=   200000004 NGrid=           0
         NMat0=    1 NMatS0=      1 NMatT0=    0 NMatD0=    1 NMtDS0=    0 NMtDT0=    0
 Petite list used in FoFCou.
 Harris En= -116.621602203781    
 JPrj=0 DoOrth=F DoCkMO=F.
 Initial guess orbital symmetries:
 Alpha Orbitals:
       Occupied  (B1) (A1) (A1) (A1) (B1) (A1) (B1) (A1) (B1) (B2)
                 (A2) (A1)
       Virtual   (B2) (A1) (B1) (A1) (B1) (A1) (B2) (A1) (A2) (B1)
                 (A1) (A1) (B2) (B1) (B1) (A1) (B1) (A1) (B1) (A1)
                 (B2) (A1) (B1) (A2) (B1) (A1) (A1) (B1) (B1) (A2)
                 (B2) (A1) (A1) (B1) (B2) (B2) (A1) (A1) (A2) (B1)
                 (A1) (B1) (A1) (B1) (A1) (B1) (A2) (B2) (B1) (A1)
                 (A2) (B2) (B2) (B1) (A2) (A1) (B1) (B1) (A1) (A1)
                 (A1) (B1) (A1) (B1) (A2) (A1) (B1) (B2) (A1) (A2)
                 (B2) (B1) (A1) (B2) (B1) (B1) (A1) (A2) (A1) (B1)
                 (A1) (B2) (A1) (B1) (A2) (A1) (B2) (B1) (A2) (B2)
                 (A1) (A1) (B1) (B2) (A2) (B1) (A1) (B2) (B1) (A1)
                 (B2) (A1) (A2) (B1) (B1) (A1) (B1) (A1) (A1) (A2)
                 (B1) (B2) (B1) (A1) (A2) (A1) (B2) (B1) (A2) (B1)
                 (B2) (A1) (B1) (A1) (B1) (A1) (B1) (B2) (A2) (A1)
                 (B2) (A2) (A1) (B1) (B2) (A1) (A2) (B1) (B1) (A1)
                 (B1) (A1) (A1) (B1) (A1)
 Beta  Orbitals:
       Occupied  (B1) (A1) (A1) (A1) (B1) (A1) (B1) (A1) (B1) (B2)
       Virtual   (A2) (A1) (B2) (A1) (B1) (A1) (B1) (A1) (B2) (A1)
                 (A2) (B1) (A1) (A1) (B2) (B1) (B1) (A1) (B1) (A1)
                 (B1) (A1) (B2) (A1) (B1) (A2) (B1) (A1) (A1) (B1)
                 (B1) (A2) (B2) (A1) (A1) (B1) (B2) (B2) (A1) (A1)
                 (A2) (B1) (A1) (B1) (A1) (B1) (A1) (B1) (A2) (B2)
                 (B1) (A1) (A2) (B2) (B2) (B1) (A2) (A1) (B1) (B1)
                 (A1) (A1) (A1) (B1) (A1) (B1) (A2) (A1) (B1) (B2)
                 (A1) (A2) (B2) (B1) (A1) (B2) (B1) (B1) (A1) (A2)
                 (A1) (B1) (A1) (B2) (A1) (B1) (A2) (A1) (B2) (B1)
                 (A2) (B2) (A1) (A1) (B1) (B2) (A2) (B1) (A1) (B2)
                 (B1) (A1) (B2) (A1) (A2) (B1) (B1) (A1) (B1) (A1)
                 (A1) (A2) (B1) (B2) (B1) (A1) (A2) (A1) (B2) (B1)
                 (A2) (B1) (B2) (A1) (B1) (A1) (B1) (A1) (B1) (B2)
                 (A2) (A1) (B2) (A2) (A1) (B1) (B2) (A1) (A2) (B1)
                 (B1) (A1) (B1) (A1) (A1) (B1) (A1)
 The electronic state of the initial guess is 3-A2.
 Initial guess <Sx>= 0.0000 <Sy>= 0.0000 <Sz>= 1.0000 <S**2>= 2.0000 S= 1.0000
 Leave Link  401 at Thu Jan 31 06:02:22 2019, MaxMem=    33554432 cpu:         2.8
 (Enter /home/proyectos/fulerenos/M3C-v2.0/M3C-deps_CCC/g09-AM64L-G09RevC.01/l502.exe)
 UHF open shell SCF:
 Using DIIS extrapolation, IDIIS=  1040.
 Integral symmetry usage will be decided dynamically.
 IVT=      113069 IEndB=      113069 NGot=    33554432 MDV=    33488804
 LenX=    33488804 LenY=    33457738
 Requested convergence on RMS density matrix=1.00D-08 within 128 cycles.
 Requested convergence on MAX density matrix=1.00D-06.
 Requested convergence on             energy=1.00D-06.
 No special actions if energy rises.
 Fock matrices will be formed incrementally for  20 cycles.

 Cycle   1  Pass 1  IDiag  1:
 FoFJK:  IHMeth= 1 ICntrl=       0 DoSepK=F KAlg= 0 I1Cent=   0 FoldK=F
 IRaf= 990000000 NMat=   1 IRICut=       1 DoRegI=T DoRafI=F ISym2E= 1.
 FoFCou: FMM=F IPFlag=           0 FMFlag=      100000 FMFlg1=           0
         NFxFlg=           0 DoJE=F BraDBF=F KetDBF=F FulRan=T
         wScrn=  0.000000 ICntrl=       0 IOpCl=  1 I1Cent=           0 NGrid=           0
         NMat0=    1 NMatS0=      1 NMatT0=    0 NMatD0=    1 NMtDS0=    0 NMtDT0=    0
 Petite list used in FoFCou.
 E= -116.526954602912    
 DIIS: error= 3.38D-02 at cycle   1 NSaved=   1.
 NSaved= 1 IEnMin= 1 EnMin= -116.526954602912     IErMin= 1 ErrMin= 3.38D-02
 ErrMax= 3.38D-02  0.00D+00 EMaxC= 1.00D-01 BMatC= 3.82D-01 BMatP= 3.82D-01
 IDIUse=3 WtCom= 6.62D-01 WtEn= 3.38D-01
 Coeff-Com:  0.100D+01
 Coeff-En:   0.100D+01
 Coeff:      0.100D+01
 Gap=     0.123 Goal=   None    Shift=    0.000
 Gap=     0.198 Goal=   None    Shift=    0.000
 GapD=    0.123 DampG=1.000 DampE=0.500 DampFc=0.5000 IDamp=-1.
 Damping current iteration by 5.00D-01
 RMSDP=4.13D-03 MaxDP=2.24D-01              OVMax= 1.99D-01

 Cycle   2  Pass 1  IDiag  1:
 RMSU=  1.68D-03    CP:  9.20D-01
 E= -116.572838015210     Delta-E=       -0.045883412299 Rises=F Damp=T
 DIIS: error= 4.63D-03 at cycle   2 NSaved=   2.
 NSaved= 2 IEnMin= 2 EnMin= -116.572838015210     IErMin= 2 ErrMin= 4.63D-03
 ErrMax= 4.63D-03  0.00D+00 EMaxC= 1.00D-01 BMatC= 1.56D-02 BMatP= 3.82D-01
 IDIUse=3 WtCom= 9.54D-01 WtEn= 4.63D-02
 Coeff-Com: -0.189D-01 0.102D+01
 Coeff-En:   0.136D-01 0.986D+00
 Coeff:     -0.174D-01 0.102D+01
 Gap=     0.212 Goal=   None    Shift=    0.000
 Gap=     0.204 Goal=   None    Shift=    0.000
 RMSDP=7.99D-04 MaxDP=2.48D-02 DE=-4.59D-02 OVMax= 1.22D-01

 Cycle   3  Pass 1  IDiag  1:
 RMSU=  7.74D-04    CP:  9.11D-01  9.13D-01
 E= -116.623894558478     Delta-E=       -0.051056543267 Rises=F Damp=F
 DIIS: error= 5.60D-03 at cycle   3 NSaved=   3.
 NSaved= 3 IEnMin= 3 EnMin= -116.623894558478     IErMin= 2 ErrMin= 4.63D-03
 ErrMax= 5.60D-03  0.00D+00 EMaxC= 1.00D-01 BMatC= 3.13D-03 BMatP= 1.56D-02
 IDIUse=3 WtCom= 9.44D-01 WtEn= 5.60D-02
 Coeff-Com: -0.569D-01 0.204D+00 0.853D+00
 Coeff-En:   0.000D+00 0.000D+00 0.100D+01
 Coeff:     -0.537D-01 0.193D+00 0.861D+00
 Gap=     0.214 Goal=   None    Shift=    0.000
 Gap=     0.190 Goal=   None    Shift=    0.000
 RMSDP=3.77D-04 MaxDP=2.52D-02 DE=-5.11D-02 OVMax= 2.67D-02

 Cycle   4  Pass 1  IDiag  1:
 RMSU=  2.66D-04    CP:  8.98D-01  1.02D+00  9.44D-01
 E= -116.624504862781     Delta-E=       -0.000610304303 Rises=F Damp=F
 DIIS: error= 4.01D-03 at cycle   4 NSaved=   4.
 NSaved= 4 IEnMin= 4 EnMin= -116.624504862781     IErMin= 4 ErrMin= 4.01D-03
 ErrMax= 4.01D-03  0.00D+00 EMaxC= 1.00D-01 BMatC= 1.81D-03 BMatP= 3.13D-03
 IDIUse=3 WtCom= 9.60D-01 WtEn= 4.01D-02
 Coeff-Com: -0.330D-01 0.486D-01 0.505D+00 0.479D+00
 Coeff-En:   0.000D+00 0.000D+00 0.248D+00 0.752D+00
 Coeff:     -0.316D-01 0.466D-01 0.495D+00 0.490D+00
 Gap=     0.214 Goal=   None    Shift=    0.000
 Gap=     0.195 Goal=   None    Shift=    0.000
 RMSDP=1.49D-04 MaxDP=8.33D-03 DE=-6.10D-04 OVMax= 1.32D-02

 Cycle   5  Pass 1  IDiag  1:
 RMSU=  9.00D-05    CP:  9.01D-01  9.96D-01  1.01D+00  6.51D-01
 E= -116.624973737282     Delta-E=       -0.000468874502 Rises=F Damp=F
 DIIS: error= 5.96D-04 at cycle   5 NSaved=   5.
 NSaved= 5 IEnMin= 5 EnMin= -116.624973737282     IErMin= 5 ErrMin= 5.96D-04
 ErrMax= 5.96D-04  0.00D+00 EMaxC= 1.00D-01 BMatC= 4.15D-05 BMatP= 1.81D-03
 IDIUse=3 WtCom= 9.94D-01 WtEn= 5.96D-03
 Coeff-Com:  0.213D-02-0.231D-01-0.227D-01 0.804D-01 0.963D+00
 Coeff-En:   0.000D+00 0.000D+00 0.000D+00 0.000D+00 0.100D+01
 Coeff:      0.212D-02-0.230D-01-0.225D-01 0.799D-01 0.964D+00
 Gap=     0.215 Goal=   None    Shift=    0.000
 Gap=     0.196 Goal=   None    Shift=    0.000
 RMSDP=4.53D-05 MaxDP=1.75D-03 DE=-4.69D-04 OVMax= 4.14D-03

 Cycle   6  Pass 1  IDiag  1:
 RMSU=  3.57D-05    CP:  9.01D-01  9.97D-01  1.03D+00  7.25D-01  1.15D+00
 E= -116.624995417431     Delta-E=       -0.000021680148 Rises=F Damp=F
 DIIS: error= 1.53D-04 at cycle   6 NSaved=   6.
 NSaved= 6 IEnMin= 6 EnMin= -116.624995417431     IErMin= 6 ErrMin= 1.53D-04
 ErrMax= 1.53D-04  0.00D+00 EMaxC= 1.00D-01 BMatC= 4.13D-06 BMatP= 4.15D-05
 IDIUse=3 WtCom= 9.98D-01 WtEn= 1.53D-03
 Coeff-Com:  0.411D-02-0.892D-02-0.611D-01-0.411D-01 0.133D+00 0.975D+00
 Coeff-En:   0.000D+00 0.000D+00 0.000D+00 0.000D+00 0.000D+00 0.100D+01
 Coeff:      0.410D-02-0.890D-02-0.610D-01-0.410D-01 0.132D+00 0.975D+00
 Gap=     0.215 Goal=   None    Shift=    0.000
 Gap=     0.197 Goal=   None    Shift=    0.000
 RMSDP=1.77D-05 MaxDP=7.95D-04 DE=-2.17D-05 OVMax= 1.73D-03

 Cycle   7  Pass 1  IDiag  1:
 RMSU=  1.05D-05    CP:  9.01D-01  9.97D-01  1.04D+00  7.40D-01  1.26D+00
                    CP:  1.19D+00
 E= -116.624998436094     Delta-E=       -0.000003018664 Rises=F Damp=F
 DIIS: error= 5.84D-05 at cycle   7 NSaved=   7.
 NSaved= 7 IEnMin= 7 EnMin= -116.624998436094     IErMin= 7 ErrMin= 5.84D-05
 ErrMax= 5.84D-05  0.00D+00 EMaxC= 1.00D-01 BMatC= 5.06D-07 BMatP= 4.13D-06
 IDIUse=1 WtCom= 1.00D+00 WtEn= 0.00D+00
 Coeff-Com:  0.391D-03 0.127D-02-0.815D-02-0.118D-01-0.803D-01 0.166D+00
 Coeff-Com:  0.932D+00
 Coeff:      0.391D-03 0.127D-02-0.815D-02-0.118D-01-0.803D-01 0.166D+00
 Coeff:      0.932D+00
 Gap=     0.215 Goal=   None    Shift=    0.000
 Gap=     0.197 Goal=   None    Shift=    0.000
 RMSDP=6.08D-06 MaxDP=4.57D-04 DE=-3.02D-06 OVMax= 5.23D-04

 Cycle   8  Pass 1  IDiag  1:
 RMSU=  4.44D-06    CP:  9.01D-01  9.98D-01  1.04D+00  7.49D-01  1.26D+00
                    CP:  1.25D+00  1.13D+00
 E= -116.624998761176     Delta-E=       -0.000000325082 Rises=F Damp=F
 DIIS: error= 1.35D-05 at cycle   8 NSaved=   8.
 NSaved= 8 IEnMin= 8 EnMin= -116.624998761176     IErMin= 8 ErrMin= 1.35D-05
 ErrMax= 1.35D-05  0.00D+00 EMaxC= 1.00D-01 BMatC= 3.19D-08 BMatP= 5.06D-07
 IDIUse=1 WtCom= 1.00D+00 WtEn= 0.00D+00
 Coeff-Com: -0.411D-03 0.100D-02 0.548D-02 0.268D-02-0.161D-01-0.988D-01
 Coeff-Com:  0.417D-01 0.106D+01
 Coeff:     -0.411D-03 0.100D-02 0.548D-02 0.268D-02-0.161D-01-0.988D-01
 Coeff:      0.417D-01 0.106D+01
 Gap=     0.215 Goal=   None    Shift=    0.000
 Gap=     0.197 Goal=   None    Shift=    0.000
 RMSDP=2.09D-06 MaxDP=9.37D-05 DE=-3.25D-07 OVMax= 1.59D-04

 Cycle   9  Pass 1  IDiag  1:
 RMSU=  6.40D-07    CP:  9.01D-01  9.98D-01  1.04D+00  7.51D-01  1.27D+00
                    CP:  1.27D+00  1.26D+00  1.20D+00
 E= -116.624998786760     Delta-E=       -0.000000025583 Rises=F Damp=F
 DIIS: error= 1.62D-06 at cycle   9 NSaved=   9.
 NSaved= 9 IEnMin= 9 EnMin= -116.624998786760     IErMin= 9 ErrMin= 1.62D-06
 ErrMax= 1.62D-06  0.00D+00 EMaxC= 1.00D-01 BMatC= 6.81D-10 BMatP= 3.19D-08
 IDIUse=1 WtCom= 1.00D+00 WtEn= 0.00D+00
 Coeff-Com: -0.132D-04-0.314D-04 0.462D-03 0.388D-03 0.196D-02-0.678D-02
 Coeff-Com: -0.356D-01 0.236D-01 0.102D+01
 Coeff:     -0.132D-04-0.314D-04 0.462D-03 0.388D-03 0.196D-02-0.678D-02
 Coeff:     -0.356D-01 0.236D-01 0.102D+01
 Gap=     0.215 Goal=   None    Shift=    0.000
 Gap=     0.197 Goal=   None    Shift=    0.000
 RMSDP=3.15D-07 MaxDP=2.31D-05 DE=-2.56D-08 OVMax= 1.46D-05

 Cycle  10  Pass 1  IDiag  1:
 RMSU=  1.16D-07    CP:  9.01D-01  9.98D-01  1.04D+00  7.51D-01  1.27D+00
                    CP:  1.27D+00  1.27D+00  1.25D+00  1.14D+00
 E= -116.624998787165     Delta-E=       -0.000000000405 Rises=F Damp=F
 DIIS: error= 3.02D-07 at cycle  10 NSaved=  10.
 NSaved=10 IEnMin=10 EnMin= -116.624998787165     IErMin=10 ErrMin= 3.02D-07
 ErrMax= 3.02D-07  0.00D+00 EMaxC= 1.00D-01 BMatC= 1.58D-11 BMatP= 6.81D-10
 IDIUse=1 WtCom= 1.00D+00 WtEn= 0.00D+00
 Coeff-Com:  0.114D-04-0.223D-04-0.153D-03-0.599D-04 0.280D-03 0.274D-02
 Coeff-Com: -0.559D-03-0.236D-01-0.551D-01 0.108D+01
 Coeff:      0.114D-04-0.223D-04-0.153D-03-0.599D-04 0.280D-03 0.274D-02
 Coeff:     -0.559D-03-0.236D-01-0.551D-01 0.108D+01
 Gap=     0.215 Goal=   None    Shift=    0.000
 Gap=     0.197 Goal=   None    Shift=    0.000
 RMSDP=5.13D-08 MaxDP=4.06D-06 DE=-4.05D-10 OVMax= 2.05D-06

 Cycle  11  Pass 1  IDiag  1:
 RMSU=  1.82D-08    CP:  9.01D-01  9.98D-01  1.04D+00  7.51D-01  1.27D+00
                    CP:  1.27D+00  1.27D+00  1.25D+00  1.18D+00  1.13D+00
 E= -116.624998787171     Delta-E=       -0.000000000007 Rises=F Damp=F
 DIIS: error= 4.27D-08 at cycle  11 NSaved=  11.
 NSaved=11 IEnMin=11 EnMin= -116.624998787171     IErMin=11 ErrMin= 4.27D-08
 ErrMax= 4.27D-08  0.00D+00 EMaxC= 1.00D-01 BMatC= 5.40D-13 BMatP= 1.58D-11
 IDIUse=1 WtCom= 1.00D+00 WtEn= 0.00D+00
 Coeff-Com:  0.240D-06 0.262D-06-0.167D-04-0.178D-04-0.915D-05 0.225D-03
 Coeff-Com:  0.656D-03-0.585D-03-0.256D-01 0.655D-02 0.102D+01
 Coeff:      0.240D-06 0.262D-06-0.167D-04-0.178D-04-0.915D-05 0.225D-03
 Coeff:      0.656D-03-0.585D-03-0.256D-01 0.655D-02 0.102D+01
 Gap=     0.215 Goal=   None    Shift=    0.000
 Gap=     0.197 Goal=   None    Shift=    0.000
 RMSDP=4.16D-09 MaxDP=1.66D-07 DE=-6.54D-12 OVMax= 1.95D-07

 SCF Done:  E(UB3LYP) =  -116.624998787     A.U. after   11 cycles
            NFock= 11  Conv=0.42D-08     -V/T= 2.0049
 <Sx>= 0.0000 <Sy>= 0.0000 <Sz>= 1.0000 <S**2>= 2.0147 S= 1.0049
 <L.S>= 0.000000000000E+00
 KE= 1.160589235270D+02 PE=-3.868121486731D+02 EE= 9.575088937547D+01
 Annihilation of the first spin contaminant:
 S**2 before annihilation     2.0147,   after     2.0001
 Leave Link  502 at Thu Jan 31 06:02:40 2019, MaxMem=    33554432 cpu:        69.4
 (Enter /home/proyectos/fulerenos/M3C-v2.0/M3C-deps_CCC/g09-AM64L-G09RevC.01/l801.exe)
 DoSCS=F DFT=T ScalE2(SS,OS)=  1.000000  1.000000
 Range of M.O.s used for correlation:     1   157
 NBasis=   157 NAE=    12 NBE=    10 NFC=     0 NFV=     0
 NROrb=    157 NOA=    12 NOB=    10 NVA=   145 NVB=   147

 **** Warning!!: The largest alpha MO coefficient is  0.83985582D+02


 **** Warning!!: The largest beta MO coefficient is  0.84864143D+02

 Leave Link  801 at Thu Jan 31 06:02:40 2019, MaxMem=    33554432 cpu:         0.1
 (Enter /home/proyectos/fulerenos/M3C-v2.0/M3C-deps_CCC/g09-AM64L-G09RevC.01/l1101.exe)
 Using compressed storage, NAtomX=     7.
 Will process      8 centers per pass.
 Leave Link 1101 at Thu Jan 31 06:02:40 2019, MaxMem=    33554432 cpu:         1.5
 (Enter /home/proyectos/fulerenos/M3C-v2.0/M3C-deps_CCC/g09-AM64L-G09RevC.01/l1102.exe)
 Symmetrizing basis deriv contribution to polar:
 IMax=3 JMax=2 DiffMx= 0.00D+00
 Leave Link 1102 at Thu Jan 31 06:02:40 2019, MaxMem=    33554432 cpu:         0.1
 (Enter /home/proyectos/fulerenos/M3C-v2.0/M3C-deps_CCC/g09-AM64L-G09RevC.01/l1110.exe)
 Forming Gx(P) for the SCF density, NAtomX=     7.
 Integral derivatives from FoFJK, PRISM(SPDF).
 Do as many integral derivatives as possible in FoFJK.
 G2DrvN: MDV=      33554272.
 G2DrvN: will do     8 centers at a time, making    1 passes.
 Calling FoFCou, ICntrl=  3107 FMM=F I1Cent=   0 AccDes= 0.00D+00.
 FoFJK:  IHMeth= 1 ICntrl=    3107 DoSepK=F KAlg= 0 I1Cent=   0 FoldK=F
 IRaf=         0 NMat=   1 IRICut=       1 DoRegI=T DoRafI=F ISym2E= 1.
 FoFCou: FMM=F IPFlag=           0 FMFlag=      100000 FMFlg1=           0
         NFxFlg=           0 DoJE=F BraDBF=F KetDBF=F FulRan=T
         wScrn=  0.000000 ICntrl=    3107 IOpCl=  1 I1Cent=           0 NGrid=           0
         NMat0=    1 NMatS0=      1 NMatT0=    0 NMatD0=    1 NMtDS0=    0 NMtDT0=    0
 Petite list used in FoFCou.
 End of G2Drv F.D. properties file   721 does not exist.
 End of G2Drv F.D. properties file   722 does not exist.
 End of G2Drv F.D. properties file   788 does not exist.
 Leave Link 1110 at Thu Jan 31 06:02:56 2019, MaxMem=    33554432 cpu:        63.1
 (Enter /home/proyectos/fulerenos/M3C-v2.0/M3C-deps_CCC/g09-AM64L-G09RevC.01/l1002.exe)
 Minotr:  UHF open shell wavefunction.
          IDoAtm=1111111
          Direct CPHF calculation.
          Differentiating once with respect to electric field.
                with respect to dipole field.
          Differentiating once with respect to nuclear coordinates.
          Using symmetry in CPHF.
          Requested convergence is 1.0D-08 RMS, and 1.0D-07 maximum.
          Secondary convergence is 1.0D-12 RMS, and 1.0D-12 maximum.
          NewPWx=T KeepS1=F KeepF1=F KeepIn=T MapXYZ=F SortEE=F KeepMc=T.
          MDV=      33554044 using IRadAn=       2.
 Generate precomputed XC quadrature information.
          Solving linear equations simultaneously, MaxMat=       0.
 FoFJK:  IHMeth= 1 ICntrl=       0 DoSepK=F KAlg= 0 I1Cent=   0 FoldK=F
 IRaf= 990000000 NMat=  15 IRICut=      37 DoRegI=T DoRafI=T ISym2E= 2.
 FoFCou: FMM=F IPFlag=           0 FMFlag=      100000 FMFlg1=           0
         NFxFlg=           0 DoJE=F BraDBF=F KetDBF=F FulRan=T
         wScrn=  0.000000 ICntrl=       0 IOpCl=  1 I1Cent=           0 NGrid=           0
         NMat0=   15 NMatS0=     15 NMatT0=    0 NMatD0=   15 NMtDS0=    0 NMtDT0=    0
 Integrals replicated using symmetry in FoFCou.
          There are    15 degrees of freedom in the 1st order CPHF.  IDoFFX=4 NUNeed=    15.
     15 vectors produced by pass  0 Test12= 2.14D-14 6.67D-09 XBig12= 1.67D+02 8.75D+00.
 AX will form    15 AO Fock derivatives at one time.
     15 vectors produced by pass  1 Test12= 2.14D-14 6.67D-09 XBig12= 3.28D+01 2.50D+00.
     15 vectors produced by pass  2 Test12= 2.14D-14 6.67D-09 XBig12= 3.58D+00 6.05D-01.
     15 vectors produced by pass  3 Test12= 2.14D-14 6.67D-09 XBig12= 4.82D-02 5.99D-02.
     15 vectors produced by pass  4 Test12= 2.14D-14 6.67D-09 XBig12= 4.32D-04 4.96D-03.
     15 vectors produced by pass  5 Test12= 2.14D-14 6.67D-09 XBig12= 1.69D-06 2.39D-04.
     15 vectors produced by pass  6 Test12= 2.14D-14 6.67D-09 XBig12= 1.01D-08 1.77D-05.
      6 vectors produced by pass  7 Test12= 2.14D-14 6.67D-09 XBig12= 4.86D-11 1.00D-06.
      3 vectors produced by pass  8 Test12= 2.14D-14 6.67D-09 XBig12= 2.44D-13 7.36D-08.
      3 vectors produced by pass  9 Test12= 2.14D-14 6.67D-09 XBig12= 3.30D-14 4.82D-08.
 InvSVY:  IOpt=1 It=  1 EMax= 1.78D-15
 Solved reduced A of dimension   117 with    15 vectors.
 FullF1:  Do perturbations    1 to    15.
 Isotropic polarizability for W=    0.000000       42.52 Bohr**3.
 End of Minotr F.D. properties file   721 does not exist.
 End of Minotr F.D. properties file   722 does not exist.
 End of Minotr F.D. properties file   788 does not exist.
 Leave Link 1002 at Thu Jan 31 06:04:20 2019, MaxMem=    33554432 cpu:       335.4
 (Enter /home/proyectos/fulerenos/M3C-v2.0/M3C-deps_CCC/g09-AM64L-G09RevC.01/l601.exe)
 Copying SCF densities to generalized density rwf, IOpCl= 1 IROHF=0.

 **********************************************************************

            Population analysis using the SCF density.

 **********************************************************************

 Orbital symmetries:
 Alpha Orbitals:
       Occupied  (A1) (B1) (A1) (A1) (B1) (A1) (A1) (B1) (B1) (B2)
                 (A1) (A2)
       Virtual   (A1) (B1) (B2) (A1) (B1) (A1) (B2) (A2) (A1) (B1)
                 (A1) (A1) (B2) (B1) (B1) (A1) (B1) (B1) (A1) (A1)
                 (B2) (B1) (A1) (A2) (B1) (A1) (A1) (B1) (B1) (A2)
                 (A1) (B2) (A1) (B1) (B2) (A1) (B2) (A1) (A2) (B1)
                 (A1) (B1) (A1) (A1) (B1) (A2) (B1) (B2) (B1) (A1)
                 (A2) (B2) (B2) (B1) (A2) (A1) (B1) (B1) (A1) (A1)
                 (A1) (B1) (A1) (B1) (A1) (B1) (A2) (B2) (A1) (A2)
                 (B2) (B1) (A1) (B2) (B1) (B1) (A1) (A2) (A1) (B1)
                 (A1) (A1) (B2) (B1) (A1) (A2) (B2) (B1) (A2) (B2)
                 (A1) (A1) (B1) (B2) (A2) (B1) (B2) (A1) (B1) (A1)
                 (B2) (A1) (A2) (B1) (B1) (A1) (B1) (A1) (A2) (A1)
                 (B1) (B2) (B1) (A1) (A2) (B2) (A1) (B1) (A2) (B1)
                 (B2) (A1) (B1) (A1) (B1) (A1) (B1) (B2) (A2) (A1)
                 (B2) (A1) (A2) (B1) (B2) (A1) (A2) (B1) (B1) (A1)
                 (B1) (A1) (A1) (B1) (A1)
 Beta  Orbitals:
       Occupied  (A1) (B1) (A1) (A1) (B1) (A1) (A1) (B1) (B1) (B2)
       Virtual   (A2) (A1) (A1) (B1) (A1) (B2) (B1) (A1) (B2) (A1)
                 (A2) (B1) (A1) (A1) (B1) (B2) (B1) (A1) (B1) (B1)
                 (A1) (A1) (B2) (B1) (A1) (A2) (B1) (A1) (A1) (B1)
                 (B1) (A2) (A1) (B2) (A1) (B1) (B2) (A1) (B2) (A1)
                 (A2) (B1) (A1) (B1) (A1) (A1) (B1) (A2) (B1) (B2)
                 (B1) (A1) (A2) (B2) (B2) (B1) (A2) (A1) (B1) (A1)
                 (B1) (A1) (A1) (B1) (A1) (B1) (A1) (B1) (A2) (B2)
                 (A1) (A2) (B2) (B1) (A1) (B2) (B1) (B1) (A1) (A2)
                 (A1) (B1) (A1) (A1) (B2) (B1) (A1) (A2) (B2) (B1)
                 (A2) (B2) (A1) (B1) (A1) (B2) (A2) (B1) (B2) (A1)
                 (B1) (A1) (B2) (A1) (A2) (B1) (B1) (A1) (B1) (A1)
                 (A2) (A1) (B1) (B2) (B1) (A1) (A2) (B2) (A1) (B1)
                 (A2) (B1) (B2) (A1) (B1) (A1) (B1) (A1) (B1) (B2)
                 (A2) (A1) (B2) (A2) (A1) (B1) (B2) (A1) (A2) (B1)
                 (B1) (A1) (B1) (A1) (A1) (B1) (A1)
 The electronic state is 3-A2.
 Alpha  occ. eigenvalues --  -10.20030 -10.19288 -10.19280  -0.80905  -0.71125
 Alpha  occ. eigenvalues --   -0.54639  -0.47582  -0.46235  -0.42165  -0.34433
 Alpha  occ. eigenvalues --   -0.22536  -0.21806
 Alpha virt. eigenvalues --   -0.00315   0.01430   0.02090   0.02216   0.04448
 Alpha virt. eigenvalues --    0.05859   0.07219   0.09327   0.09662   0.11259
 Alpha virt. eigenvalues --    0.12109   0.12940   0.13411   0.13764   0.14723
 Alpha virt. eigenvalues --    0.14919   0.15548   0.19811   0.20125   0.23496
 Alpha virt. eigenvalues --    0.26486   0.28313   0.30309   0.33414   0.35058
 Alpha virt. eigenvalues --    0.36204   0.38670   0.40610   0.43037   0.44236
 Alpha virt. eigenvalues --    0.45554   0.46250   0.47377   0.51379   0.52465
 Alpha virt. eigenvalues --    0.54515   0.56577   0.59282   0.59446   0.63570
 Alpha virt. eigenvalues --    0.67199   0.68065   0.70647   0.73364   0.74890
 Alpha virt. eigenvalues --    0.75766   0.77344   0.79230   0.89939   0.91278
 Alpha virt. eigenvalues --    0.94968   0.95821   1.03544   1.06022   1.08928
 Alpha virt. eigenvalues --    1.13716   1.14868   1.19679   1.19712   1.21514
 Alpha virt. eigenvalues --    1.29808   1.35105   1.36353   1.37674   1.42085
 Alpha virt. eigenvalues --    1.42368   1.44071   1.49454   1.60668   1.65409
 Alpha virt. eigenvalues --    1.67182   1.76633   1.80222   1.87133   2.05774
 Alpha virt. eigenvalues --    2.07511   2.12414   2.17808   2.21045   2.38019
 Alpha virt. eigenvalues --    2.52978   2.61815   2.64766   2.67236   2.69671
 Alpha virt. eigenvalues --    2.71258   2.71831   2.74764   2.81358   2.87576
 Alpha virt. eigenvalues --    2.87594   2.92406   2.95990   2.96759   2.97901
 Alpha virt. eigenvalues --    3.09294   3.11666   3.12009   3.16095   3.27595
 Alpha virt. eigenvalues --    3.39952   3.42523   3.47256   3.51914   3.56789
 Alpha virt. eigenvalues --    3.61147   3.69478   3.88782   4.12621   4.14721
 Alpha virt. eigenvalues --    4.15132   4.16584   4.20706   4.20920   4.24329
 Alpha virt. eigenvalues --    4.33290   4.34803   4.37811   4.46359   4.60034
 Alpha virt. eigenvalues --    4.91854   5.01923   5.48046   5.52688   5.59437
 Alpha virt. eigenvalues --    5.61950   6.32300   6.99517   7.03956   7.05935
 Alpha virt. eigenvalues --    7.09447   7.15843   7.15926   7.26710   7.32010
 Alpha virt. eigenvalues --    7.39841   7.65653   7.72706   7.82436   7.92009
 Alpha virt. eigenvalues --    8.21591   8.28691  24.02409  25.18125  25.79398
  Beta  occ. eigenvalues --  -10.18885 -10.18444 -10.18436  -0.77643  -0.68263
  Beta  occ. eigenvalues --   -0.52234  -0.45037  -0.44642  -0.40847  -0.30159
  Beta virt. eigenvalues --   -0.10483  -0.08068   0.00007   0.01542   0.02358
  Beta virt. eigenvalues --    0.03621   0.04500   0.06091   0.09297   0.09941
  Beta virt. eigenvalues --    0.10189   0.11217   0.12740   0.13522   0.14020
  Beta virt. eigenvalues --    0.14451   0.15456   0.15549   0.15954   0.20077
  Beta virt. eigenvalues --    0.20336   0.24875   0.27433   0.29004   0.30877
  Beta virt. eigenvalues --    0.34582   0.35260   0.37841   0.39349   0.42627
  Beta virt. eigenvalues --    0.44102   0.45726   0.47871   0.48581   0.49049
  Beta virt. eigenvalues --    0.52118   0.54177   0.55780   0.57526   0.59977
  Beta virt. eigenvalues --    0.62325   0.64785   0.68829   0.69042   0.72220
  Beta virt. eigenvalues --    0.74274   0.75828   0.76832   0.78562   0.80131
  Beta virt. eigenvalues --    0.90768   0.92684   0.96052   0.96845   1.04744
  Beta virt. eigenvalues --    1.06913   1.09993   1.14410   1.15924   1.20425
  Beta virt. eigenvalues --    1.21217   1.22859   1.31636   1.36025   1.38337
  Beta virt. eigenvalues --    1.38673   1.43132   1.43547   1.46145   1.52933
  Beta virt. eigenvalues --    1.64636   1.68343   1.70481   1.78530   1.82340
  Beta virt. eigenvalues --    1.90821   2.07684   2.10010   2.13819   2.20621
  Beta virt. eigenvalues --    2.24139   2.40484   2.54184   2.64006   2.67679
  Beta virt. eigenvalues --    2.68930   2.72728   2.74738   2.76188   2.76859
  Beta virt. eigenvalues --    2.84857   2.89062   2.90641   2.96983   2.97506
  Beta virt. eigenvalues --    3.00034   3.00727   3.11428   3.13497   3.14558
  Beta virt. eigenvalues --    3.18669   3.30486   3.42534   3.43608   3.50440
  Beta virt. eigenvalues --    3.53022   3.58349   3.62745   3.71767   3.90517
  Beta virt. eigenvalues --    4.14186   4.16050   4.16662   4.18187   4.21448
  Beta virt. eigenvalues --    4.21883   4.25833   4.34845   4.37186   4.39031
  Beta virt. eigenvalues --    4.48399   4.61577   4.94347   5.03712   5.49936
  Beta virt. eigenvalues --    5.54168   5.60554   5.62976   6.34004   7.04174
  Beta virt. eigenvalues --    7.07994   7.08776   7.14014   7.18517   7.20852
  Beta virt. eigenvalues --    7.31765   7.36070   7.44169   7.67087   7.75234
  Beta virt. eigenvalues --    7.83870   7.92816   8.24359   8.30310  24.03529
  Beta virt. eigenvalues --   25.19173  25.80639
          Condensed to atoms (all electrons):
               1          2          3          4          5          6
     1  C    6.607766   0.529287   0.385015  -0.587146  -0.441105   0.014656
     2  H    0.529287   0.495662  -0.039178  -0.161142   0.001688  -0.003627
     3  H    0.385015  -0.039178   0.527640  -0.028721   0.014656   0.013203
     4  C   -0.587146  -0.161142  -0.028721   7.146033  -0.587146  -0.028721
     5  C   -0.441105   0.001688   0.014656  -0.587146   6.607766   0.385015
     6  H    0.014656  -0.003627   0.013203  -0.028721   0.385015   0.527640
     7  H    0.001688   0.002152  -0.003627  -0.161142   0.529287  -0.039178
               7
     1  C    0.001688
     2  H    0.002152
     3  H   -0.003627
     4  C   -0.161142
     5  C    0.529287
     6  H   -0.039178
     7  H    0.495662
          Atomic-Atomic Spin Densities.
               1          2          3          4          5          6
     1  C    0.808305   0.049486  -0.024436  -0.282017   0.025802  -0.024727
     2  H    0.049486   0.014525  -0.013626  -0.056280   0.009000  -0.002647
     3  H   -0.024436  -0.013626   0.076690   0.038144  -0.024727   0.011016
     4  C   -0.282017  -0.056280   0.038144   1.352723  -0.282017   0.038144
     5  C    0.025802   0.009000  -0.024727  -0.282017   0.808305  -0.024436
     6  H   -0.024727  -0.002647   0.011016   0.038144  -0.024436   0.076690
     7  H    0.009000   0.001506  -0.002647  -0.056280   0.049486  -0.013626
               7
     1  C    0.009000
     2  H    0.001506
     3  H   -0.002647
     4  C   -0.056280
     5  C    0.049486
     6  H   -0.013626
     7  H    0.014525
 Mulliken charges and spin densities:
               1          2
     1  C   -0.510161   0.561413
     2  H    0.175157   0.001964
     3  H    0.131011   0.060414
     4  C    0.407986   0.752418
     5  C   -0.510161   0.561413
     6  H    0.131011   0.060414
     7  H    0.175157   0.001964
 Sum of Mulliken charges =  -0.00000   2.00000
 Mulliken charges and spin densities with hydrogens summed into heavy atoms:
               1          2
     1  C   -0.203993   0.623791
     4  C    0.407986   0.752418
     5  C   -0.203993   0.623791
 APT charges:
               1
     1  C   -0.000458
     2  H    0.063450
     3  H    0.025115
     4  C   -0.176213
     5  C   -0.000458
     6  H    0.025115
     7  H    0.063450
 Sum of APT charges =  -0.00000
 APT charges with hydrogens summed into heavy atoms:
               1
     1  C    0.088106
     4  C   -0.176213
     5  C    0.088106
 Electronic spatial extent (au):  <R**2>=            175.4393
 Charge=              0.0000 electrons
 Dipole moment (field-independent basis, Debye):
    X=              0.0000    Y=              0.0000    Z=             -0.6207  Tot=              0.6207
 Quadrupole moment (field-independent basis, Debye-Ang):
   XX=            -16.2478   YY=            -21.6916   ZZ=            -18.5396
   XY=              0.0000   XZ=              0.0000   YZ=              0.0000
 Traceless Quadrupole moment (field-independent basis, Debye-Ang):
   XX=              2.5785   YY=             -2.8653   ZZ=              0.2867
   XY=              0.0000   XZ=              0.0000   YZ=              0.0000
 Octapole moment (field-independent basis, Debye-Ang**2):
  XXX=              0.0000  YYY=             -0.0000  ZZZ=             -3.1682  XYY=             -0.0000
  XXY=             -0.0000  XXZ=              1.3235  XZZ=             -0.0000  YZZ=             -0.0000
  YYZ=             -0.2431  XYZ=             -0.0000
 Hexadecapole moment (field-independent basis, Debye-Ang**3):
 XXXX=           -173.3792 YYYY=            -28.0086 ZZZZ=            -41.7157 XXXY=              0.0000
 XXXZ=              0.0000 YYYX=              0.0000 YYYZ=              0.0000 ZZZX=             -0.0000
 ZZZY=              0.0000 XXYY=            -40.0114 XXZZ=            -33.7051 YYZZ=            -12.3055
 XXYZ=              0.0000 YYXZ=              0.0000 ZZXY=              0.0000
 N-N= 5.837733698343D+01 E-N=-3.868121476705D+02  KE= 1.160589235270D+02
 Symmetry A1   KE= 7.298449178955D+01
 Symmetry A2   KE= 1.195629294619D+00
 Symmetry B1   KE= 3.981410428223D+01
 Symmetry B2   KE= 2.064698160643D+00
  Exact polarizability:  63.482  -0.000  29.464  -0.000  -0.000  34.610
 Approx polarizability:  93.921  -0.000  39.114  -0.000  -0.000  46.865
                          Isotropic Fermi Contact Couplings
        Atom                 a.u.       MegaHertz       Gauss      10(-4) cm-1
     1  C(13)              0.04274      24.02462       8.57258       8.01375
     2  H(1)               0.00909      20.30801       7.24640       6.77402
     3  H(1)               0.02340      52.29510      18.66019      17.44377
     4  C(13)              0.16592      93.26448      33.27908      31.10968
     5  C(13)              0.04274      24.02462       8.57258       8.01375
     6  H(1)               0.02340      52.29510      18.66019      17.44377
     7  H(1)               0.00909      20.30801       7.24640       6.77402
 --------------------------------------------------------
       Center         ----  Spin Dipole Couplings  ----
                      3XX-RR        3YY-RR        3ZZ-RR
 --------------------------------------------------------
     1   Atom       -0.308565      0.675997     -0.367432
     2   Atom        0.031109     -0.010489     -0.020620
     3   Atom       -0.033794     -0.009803      0.043597
     4   Atom       -0.432657     -0.701021      1.133678
     5   Atom       -0.308565      0.675997     -0.367432
     6   Atom       -0.033794     -0.009803      0.043597
     7   Atom        0.031109     -0.010489     -0.020620
 --------------------------------------------------------
                        XY            XZ            YZ
 --------------------------------------------------------
     1   Atom       -0.000000     -0.030796      0.000000
     2   Atom       -0.000000      0.045196      0.000000
     3   Atom       -0.000000     -0.026869      0.000000
     4   Atom        0.000000     -0.000000     -0.000000
     5   Atom       -0.000000      0.030796     -0.000000
     6   Atom       -0.000000      0.026869     -0.000000
     7   Atom       -0.000000     -0.045196     -0.000000
 --------------------------------------------------------


 ---------------------------------------------------------------------------------
              Anisotropic Spin Dipole Couplings in Principal Axis System
 ---------------------------------------------------------------------------------

       Atom             a.u.   MegaHertz   Gauss  10(-4) cm-1        Axes

              Baa    -0.3806   -51.073   -18.224   -17.036  0.3931  0.0000  0.9195
     1 C(13)  Bbb    -0.2954   -39.640   -14.144   -13.222  0.9195 -0.0000 -0.3931
              Bcc     0.6760    90.712    32.368    30.258  0.0000  1.0000  0.0000
 
              Baa    -0.0468   -24.986    -8.916    -8.334 -0.5017  0.0000  0.8651
     2 H(1)   Bbb    -0.0105    -5.597    -1.997    -1.867 -0.0000  1.0000 -0.0000
              Bcc     0.0573    30.582    10.913    10.201  0.8651  0.0000  0.5017
 
              Baa    -0.0422   -22.520    -8.036    -7.512  0.9543  0.0000  0.2988
     3 H(1)   Bbb    -0.0098    -5.230    -1.866    -1.745  0.0000  1.0000  0.0000
              Bcc     0.0520    27.751     9.902     9.257 -0.2988  0.0000  0.9543
 
              Baa    -0.7010   -94.070   -33.567   -31.378  0.0000  1.0000  0.0000
     4 C(13)  Bbb    -0.4327   -58.058   -20.717   -19.366  1.0000 -0.0000  0.0000
              Bcc     1.1337   152.129    54.283    50.745 -0.0000 -0.0000  1.0000
 
              Baa    -0.3806   -51.073   -18.224   -17.036 -0.3931  0.0000  0.9195
     5 C(13)  Bbb    -0.2954   -39.640   -14.144   -13.222  0.9195 -0.0000  0.3931
              Bcc     0.6760    90.712    32.368    30.258  0.0000  1.0000  0.0000
 
              Baa    -0.0422   -22.520    -8.036    -7.512  0.9543 -0.0000 -0.2988
     6 H(1)   Bbb    -0.0098    -5.230    -1.866    -1.745  0.0000  1.0000  0.0000
              Bcc     0.0520    27.751     9.902     9.257  0.2988  0.0000  0.9543
 
              Baa    -0.0468   -24.986    -8.916    -8.334  0.5017  0.0000  0.8651
     7 H(1)   Bbb    -0.0105    -5.597    -1.997    -1.867 -0.0000  1.0000 -0.0000
              Bcc     0.0573    30.582    10.913    10.201  0.8651  0.0000 -0.5017
 

 ---------------------------------------------------------------------------------

 No NMR shielding tensors so no spin-rotation constants.
 Leave Link  601 at Thu Jan 31 06:04:21 2019, MaxMem=    33554432 cpu:         2.7
 (Enter /home/proyectos/fulerenos/M3C-v2.0/M3C-deps_CCC/g09-AM64L-G09RevC.01/l701.exe)
 Compute integral second derivatives.
 ... and contract with generalized density number  0.
 Leave Link  701 at Thu Jan 31 06:04:21 2019, MaxMem=    33554432 cpu:         2.0
 (Enter /home/proyectos/fulerenos/M3C-v2.0/M3C-deps_CCC/g09-AM64L-G09RevC.01/l702.exe)
 L702 exits ... SP integral derivatives will be done elsewhere.
 Leave Link  702 at Thu Jan 31 06:04:21 2019, MaxMem=    33554432 cpu:         0.1
 (Enter /home/proyectos/fulerenos/M3C-v2.0/M3C-deps_CCC/g09-AM64L-G09RevC.01/l703.exe)
 Compute integral second derivatives, UseDBF=F ICtDFT=           0.
 Integral derivatives from FoFJK, PRISM(SPDF).
 Calling FoFJK, ICntrl=    100127 FMM=F ISym2X=1 I1Cent= 0 IOpClX= 1 NMat=1 NMatS=1 NMatT=0.
 FoFJK:  IHMeth= 1 ICntrl=  100127 DoSepK=F KAlg= 0 I1Cent=   0 FoldK=F
 IRaf=         0 NMat=   1 IRICut=       1 DoRegI=T DoRafI=F ISym2E= 1.
 FoFCou: FMM=F IPFlag=           0 FMFlag=      100000 FMFlg1=         800
         NFxFlg=           0 DoJE=F BraDBF=F KetDBF=F FulRan=T
         wScrn=  0.000000 ICntrl=  100127 IOpCl=  1 I1Cent=           0 NGrid=           0
         NMat0=    1 NMatS0=      1 NMatT0=    0 NMatD0=    1 NMtDS0=    0 NMtDT0=    0
 Petite list used in FoFCou.
 Leave Link  703 at Thu Jan 31 06:04:50 2019, MaxMem=    33554432 cpu:       113.3
 (Enter /home/proyectos/fulerenos/M3C-v2.0/M3C-deps_CCC/g09-AM64L-G09RevC.01/l716.exe)
 Dipole        =-4.73308458D-15 1.06660189D-17-2.44195627D-01
 Polarizability= 6.34821072D+01-9.63364959D-09 2.94639679D+01
                -6.46953837D-08-1.08104624D-08 3.46098454D+01
 Full mass-weighted force constant matrix:
 Low frequencies ---  -29.8548  -17.5775   -7.5356   -0.0007    0.0002    0.0005
 Low frequencies ---  305.9397  444.3663  746.6809
 Diagonal vibrational polarizability:
        0.1711268       5.3000940       0.9429413
 Harmonic frequencies (cm**-1), IR intensities (KM/Mole), Raman scattering
 activities (A**4/AMU), depolarization ratios for plane and unpolarized
 incident light, reduced masses (AMU), force constants (mDyne/A),
 and normal coordinates:
                      1                      2                      3
                     A1                     B2                     A2
 Frequencies --    305.9397               444.3662               746.6809
 Red. masses --      2.0610                 1.7355                 1.0560
 Frc consts  --      0.1137                 0.2019                 0.3469
 IR Inten    --      2.6726                13.3370                 0.0000
  Atom  AN      X      Y      Z        X      Y      Z        X      Y      Z
     1   6    -0.10   0.00  -0.08    -0.00  -0.07  -0.00     0.00  -0.05  -0.00
     2   1     0.13   0.00  -0.38     0.00  -0.67  -0.00     0.00   0.60  -0.00
     3   1    -0.51  -0.00  -0.17    -0.00   0.15  -0.00     0.00  -0.37  -0.00
     4   6    -0.00  -0.00   0.25    -0.00   0.23   0.00     0.00  -0.00   0.00
     5   6     0.10   0.00  -0.08     0.00  -0.07  -0.00    -0.00   0.05  -0.00
     6   1     0.51  -0.00  -0.17     0.00   0.15   0.00    -0.00   0.37  -0.00
     7   1    -0.13   0.00  -0.38     0.00  -0.67  -0.00    -0.00  -0.60  -0.00
                      4                      5                      6
                     A2                     B2                     B1
 Frequencies --    773.7008               775.2501               904.7904
 Red. masses --      1.2457                 1.4422                 1.2293
 Frc consts  --      0.4394                 0.5107                 0.5929
 IR Inten    --      0.0000                77.7742                 0.3048
  Atom  AN      X      Y      Z        X      Y      Z        X      Y      Z
     1   6    -0.00  -0.10  -0.00     0.00  -0.13   0.00    -0.01  -0.00  -0.10
     2   1    -0.00   0.30   0.00     0.00   0.47  -0.00    -0.33   0.00   0.31
     3   1     0.00   0.63   0.00    -0.00   0.51  -0.00     0.53   0.00   0.03
     4   6    -0.00   0.00  -0.00    -0.00   0.09   0.00    -0.01   0.00   0.00
     5   6     0.00   0.10  -0.00     0.00  -0.13  -0.00    -0.01  -0.00   0.10
     6   1    -0.00  -0.63   0.00    -0.00   0.51   0.00     0.53   0.00  -0.03
     7   1     0.00  -0.30   0.00     0.00   0.47  -0.00    -0.33   0.00  -0.31
                      7                      8                      9
                     A1                     A1                     B1
 Frequencies --   1020.4521              1139.6386              1398.2882
 Red. masses --      1.8691                 2.7205                 1.4717
 Frc consts  --      1.1468                 2.0818                 1.6954
 IR Inten    --      0.1577                 4.7389                10.3746
  Atom  AN      X      Y      Z        X      Y      Z        X      Y      Z
     1   6     0.19  -0.00   0.05     0.14   0.00  -0.14    -0.03  -0.00   0.00
     2   1     0.53  -0.00  -0.37    -0.03  -0.00   0.09    -0.36  -0.00   0.39
     3   1    -0.21   0.00  -0.05     0.64   0.00  -0.02    -0.44   0.00  -0.07
     4   6     0.00  -0.00  -0.03     0.00   0.00   0.27     0.20   0.00  -0.00
     5   6    -0.19   0.00   0.05    -0.14  -0.00  -0.14    -0.03  -0.00  -0.00
     6   1     0.21  -0.00  -0.05    -0.64  -0.00  -0.02    -0.44   0.00   0.07
     7   1    -0.53   0.00  -0.37     0.03   0.00   0.09    -0.36  -0.00  -0.39
                     10                     11                     12
                     A1                     B1                     B1
 Frequencies --   1461.4284              1474.8511              3049.4360
 Red. masses --      1.2383                 2.8831                 1.0593
 Frc consts  --      1.5582                 3.6949                 5.8040
 IR Inten    --      1.5621                 0.0821                 5.5900
  Atom  AN      X      Y      Z        X      Y      Z        X      Y      Z
     1   6    -0.10  -0.00   0.03    -0.20  -0.00   0.06     0.03  -0.00  -0.04
     2   1     0.28   0.00  -0.42     0.18   0.00  -0.39    -0.17  -0.00  -0.16
     3   1     0.46   0.00   0.14     0.44   0.00   0.18    -0.13   0.00   0.65
     4   6    -0.00   0.00  -0.02     0.29   0.00  -0.00    -0.00   0.00  -0.00
     5   6     0.10  -0.00   0.03    -0.20  -0.00  -0.06     0.03  -0.00   0.04
     6   1    -0.46   0.00   0.14     0.44   0.00  -0.18    -0.13   0.00  -0.65
     7   1    -0.28  -0.00  -0.42     0.18   0.00   0.39    -0.17  -0.00   0.16
                     13                     14                     15
                     A1                     B1                     A1
 Frequencies --   3058.2853              3178.5058              3179.4180
 Red. masses --      1.0617                 1.1007                 1.1028
 Frc consts  --      5.8506                 6.5516                 6.5681
 IR Inten    --     14.9954                 0.4198                 3.5430
  Atom  AN      X      Y      Z        X      Y      Z        X      Y      Z
     1   6     0.03   0.00  -0.04    -0.04  -0.00  -0.05    -0.04  -0.00  -0.05
     2   1    -0.16   0.00  -0.15     0.52   0.00   0.42     0.53   0.00   0.42
     3   1    -0.14   0.00   0.66    -0.06   0.00   0.21    -0.05  -0.00   0.20
     4   6     0.00  -0.00  -0.00    -0.00   0.00  -0.00    -0.00   0.00  -0.00
     5   6    -0.03   0.00  -0.04    -0.04  -0.00   0.05     0.04  -0.00  -0.05
     6   1     0.14  -0.00   0.66    -0.06   0.00  -0.21     0.05   0.00   0.20
     7   1     0.16   0.00  -0.15     0.52   0.00  -0.42    -0.53  -0.00   0.42

 -------------------
 - Thermochemistry -
 -------------------
 Temperature   298.150 Kelvin.  Pressure   1.00000 Atm.
 Atom     1 has atomic number  6 and mass  12.00000
 Atom     2 has atomic number  1 and mass   1.00783
 Atom     3 has atomic number  1 and mass   1.00783
 Atom     4 has atomic number  6 and mass  12.00000
 Atom     5 has atomic number  6 and mass  12.00000
 Atom     6 has atomic number  1 and mass   1.00783
 Atom     7 has atomic number  1 and mass   1.00783
 Molecular mass:    40.03130 amu.
 Principal axes and moments of inertia in atomic units:
                           1         2         3
     Eigenvalues --    17.92443 188.95031 206.87474
           X            1.00000   0.00000  -0.00000
           Y           -0.00000   0.00000   1.00000
           Z            0.00000   1.00000  -0.00000
 This molecule is an asymmetric top.
 Rotational symmetry number  2.
 Rotational temperatures (Kelvin)      4.83216     0.45839     0.41868
 Rotational constants (GHZ):         100.68610     9.55141     8.72384
 Zero-point vibrational energy     137038.4 (Joules/Mol)
                                   32.75296 (Kcal/Mol)
 Warning -- explicit consideration of   2 degrees of freedom as
           vibrations may cause significant error
 Vibrational temperatures:    440.18   639.34  1074.31  1113.18  1115.41
          (Kelvin)           1301.79  1468.20  1639.68  2011.82  2102.67
                             2121.98  4387.45  4400.18  4573.16  4574.47
 
 Zero-point correction=                           0.052195 (Hartree/Particle)
 Thermal correction to Energy=                    0.056104
 Thermal correction to Enthalpy=                  0.057048
 Thermal correction to Gibbs Free Energy=         0.027493
 Sum of electronic and zero-point Energies=           -116.572804
 Sum of electronic and thermal Energies=              -116.568895
 Sum of electronic and thermal Enthalpies=            -116.567951
 Sum of electronic and thermal Free Energies=         -116.597506
 
                     E (Thermal)             CV                S
                      KCal/Mol        Cal/Mol-Kelvin    Cal/Mol-Kelvin
 Total                   35.206             12.499             62.203
 Electronic               0.000              0.000              2.183
 Translational            0.889              2.981             36.989
 Rotational               0.889              2.981             19.799
 Vibrational             33.428              6.537              3.232
 Vibration     1          0.696              1.662              1.384
 Vibration     2          0.804              1.373              0.813
                       Q            Log10(Q)             Ln(Q)
 Total Bot       0.225997D-12        -12.645898        -29.118255
 Total V=0       0.230231D+12         11.362163         26.162347
 Vib (Bot)       0.159720D-23        -23.796640        -54.793789
 Vib (Bot)    1  0.619522D+00         -0.207944         -0.478808
 Vib (Bot)    2  0.387673D+00         -0.411534         -0.947592
 Vib (V=0)       0.162712D+01          0.211420          0.486813
 Vib (V=0)    1  0.129612D+01          0.112645          0.259375
 Vib (V=0)    2  0.113269D+01          0.054109          0.124591
 Electronic      0.300000D+01          0.477121          1.098612
 Translational   0.995531D+07          6.998055         16.113617
 Rotational      0.473769D+04          3.675567          8.463305
 
                                                              b3lyp opt
                                                             IR Spectrum
 
     33   33                                                             11  1         1    1                                        
     11   00                                                             44  3         1    0   9    777           4    3            
     77   54                                                             76  9         4    2   0    774           4    0            
     99   89                                                             51  8         0    0   5    547           4    6            
 
     XX   XX                                                             XX  X         X    X   X    X             X    X            
          X                                                                  X                       X             X                 
          X                                                                  X                       X             X                 
          X                                                                                          X                               
                                                                                                     X                               
                                                                                                     X                               
                                                                                                     X                               
                                                                                                     X                               
                                                                                                     X                               
                                                                                                     X                               
                                                                                                     X                               
                                                                                                     X                               
                                                                                                     X                               
                                                                                                     X                               
                                                                                                     X                               
                                                                                                     X                               
                                                                                                     X                               
                                                                                                     X                               
                                                                                                     X                               
                                                                                                     X                               
 
 ***** Axes restored to original set *****
 -------------------------------------------------------------------
 Center     Atomic                   Forces (Hartrees/Bohr)
 Number     Number              X              Y              Z
 -------------------------------------------------------------------
      1        6           0.000035003   -0.000052409   -0.000000000
      2        1          -0.000029249    0.000021209    0.000000000
      3        1           0.000004540    0.000033614    0.000000000
      4        6          -0.000000000   -0.000004831    0.000000000
      5        6          -0.000035010   -0.000052404   -0.000000000
      6        1          -0.000004535    0.000033615   -0.000000000
      7        1           0.000029252    0.000021205   -0.000000000
 -------------------------------------------------------------------
 Cartesian Forces:  Max     0.000052409 RMS     0.000024765
 Z-matrix is all fixed cartesians, so copy forces.
 Force constants in Cartesian coordinates: 
                1             2             3             4             5 
      1  0.651446D+00
      2 -0.529423D-02  0.550772D+00
      3  0.000000D+00  0.000000D+00  0.742060D-01
      4 -0.214550D+00  0.142170D+00  0.000000D+00  0.235032D+00
      5  0.139310D+00 -0.165009D+00  0.000000D+00 -0.148719D+00  0.169825D+00
      6  0.000000D+00  0.000000D+00 -0.221895D-01  0.000000D+00  0.000000D+00
      7 -0.581651D-01 -0.516961D-01  0.000000D+00  0.673275D-02  0.213307D-01
      8 -0.449101D-01 -0.297487D+00  0.000000D+00 -0.512244D-02 -0.147719D-01
      9  0.000000D+00  0.000000D+00 -0.232406D-01  0.000000D+00  0.000000D+00
     10 -0.284153D+00 -0.807562D-01  0.000000D+00 -0.243550D-01 -0.790669D-02
     11 -0.938407D-01 -0.107678D+00  0.000000D+00  0.116422D-01  0.104844D-01
     12  0.000000D+00  0.000000D+00 -0.359122D-01  0.000000D+00  0.000000D+00
     13 -0.944830D-01 -0.263566D-02  0.000000D+00 -0.239285D-02 -0.354134D-02
     14  0.265137D-02  0.181153D-01  0.000000D+00 -0.679570D-03 -0.730987D-03
     15  0.000000D+00  0.000000D+00  0.482204D-02  0.000000D+00  0.000000D+00
     16  0.229737D-02 -0.246801D-02  0.000000D+00 -0.119782D-03 -0.107868D-03
     17 -0.145828D-02  0.201923D-02  0.000000D+00  0.341567D-03 -0.529381D-04
     18  0.000000D+00  0.000000D+00 -0.258871D-02  0.000000D+00  0.000000D+00
     19 -0.239226D-02  0.679801D-03  0.000000D+00 -0.347070D-03 -0.366439D-03
     20  0.354157D-02 -0.731576D-03  0.000000D+00  0.366523D-03  0.255237D-03
     21  0.000000D+00  0.000000D+00  0.490290D-02  0.000000D+00  0.000000D+00
                6             7             8             9            10 
      6  0.143456D-01
      7  0.000000D+00  0.603486D-01
      8  0.000000D+00  0.590805D-01  0.320644D+00
      9  0.233465D-02  0.000000D+00  0.000000D+00  0.145089D-01
     10  0.000000D+00 -0.998466D-02 -0.895723D-02  0.000000D+00  0.636956D+00
     11  0.000000D+00 -0.324985D-01 -0.107701D-01  0.000000D+00 -0.293722D-04
     12 -0.362499D-03  0.000000D+00  0.000000D+00  0.104432D-01  0.000000D+00
     13  0.000000D+00  0.229791D-02  0.145824D-02  0.000000D+00 -0.284129D+00
     14  0.000000D+00  0.246798D-02  0.201868D-02  0.000000D+00  0.807808D-01
     15  0.490290D-02  0.000000D+00  0.000000D+00 -0.258871D-02  0.000000D+00
     16  0.000000D+00 -0.110961D-02 -0.120738D-02  0.000000D+00 -0.997887D-02
     17  0.000000D+00  0.120760D-02  0.419216D-03  0.000000D+00  0.895712D-02
     18  0.446122D-02  0.000000D+00  0.000000D+00 -0.591870D-02  0.000000D+00
     19  0.000000D+00 -0.119814D-03 -0.341558D-03  0.000000D+00 -0.243555D-01
     20  0.000000D+00  0.107877D-03 -0.529055D-04  0.000000D+00  0.791155D-02
     21 -0.349239D-02  0.000000D+00  0.000000D+00  0.446122D-02  0.000000D+00
               11            12            13            14            15 
     11  0.215957D+00
     12  0.000000D+00  0.516629D-01
     13  0.938653D-01  0.000000D+00  0.651448D+00
     14 -0.107702D+00  0.000000D+00  0.528019D-02  0.550770D+00
     15  0.000000D+00 -0.359122D-01  0.000000D+00  0.000000D+00  0.742060D-01
     16  0.324984D-01  0.000000D+00 -0.581517D-01  0.516627D-01  0.000000D+00
     17 -0.107759D-01  0.000000D+00  0.448767D-01 -0.297501D+00  0.000000D+00
     18  0.000000D+00  0.104432D-01  0.000000D+00  0.000000D+00 -0.232406D-01
     19 -0.116374D-01  0.000000D+00 -0.214589D+00 -0.142164D+00  0.000000D+00
     20  0.104849D-01  0.000000D+00 -0.139303D+00 -0.164970D+00  0.000000D+00
     21  0.000000D+00 -0.362500D-03  0.000000D+00  0.000000D+00 -0.221895D-01
               16            17            18            19            20 
     16  0.603321D-01
     17 -0.590442D-01  0.320661D+00
     18  0.000000D+00  0.000000D+00  0.145089D-01
     19  0.673049D-02  0.511944D-02  0.000000D+00  0.235074D+00
     20 -0.213337D-01 -0.147696D-01  0.000000D+00  0.148710D+00  0.169784D+00
     21  0.000000D+00  0.000000D+00  0.233465D-02  0.000000D+00  0.000000D+00
               21 
     21  0.143456D-01
 Leave Link  716 at Thu Jan 31 06:04:50 2019, MaxMem=    33554432 cpu:         0.2
 (Enter /home/proyectos/fulerenos/M3C-v2.0/M3C-deps_CCC/g09-AM64L-G09RevC.01/l103.exe)

 GradGradGradGradGradGradGradGradGradGradGradGradGradGradGradGradGradGrad
 Berny optimization.
 Search for a local minimum.
 Step number   1 out of a maximum of    2
 All quantities printed in internal units (Hartrees-Bohrs-Radians)
 Second derivative matrix not updated -- analytic derivatives used.
 ITU=  0
     Eigenvalues ---    0.00770   0.01950   0.02154   0.05604   0.06895
     Eigenvalues ---    0.07173   0.11043   0.11844   0.17522   0.30024
     Eigenvalues ---    0.40799   0.74319   0.78045   0.89805   1.03728
 Angle between quadratic step and forces=  48.88 degrees.
 ClnCor:  largest displacement from symmetrization is 1.35D-12 for atom     7.
 Linear search not attempted -- first point.
 ClnCor:  largest displacement from symmetrization is 1.83D-15 for atom     7.
 B after Tr=    -0.000000   -0.000025   -0.000000
         Rot=    1.000000    0.000000   -0.000000    0.000000 Ang=   0.00 deg.
 Variable       Old X    -DE/DX   Delta X   Delta X   Delta X     New X
                                 (Linear)    (Quad)   (Total)
    X1       -2.41657   0.00004   0.00000   0.00002   0.00002  -2.41655
    Y1       -0.15929  -0.00005   0.00000  -0.00003  -0.00006  -0.15935
    Z1       -0.00006  -0.00000   0.00000   0.00000   0.00000  -0.00006
    X2       -4.00816  -0.00003   0.00000  -0.00005  -0.00005  -4.00821
    Y2        1.12462   0.00002   0.00000   0.00006   0.00003   1.12465
    Z2       -0.00006   0.00000   0.00000  -0.00000   0.00000  -0.00006
    X3       -2.85378   0.00000   0.00000  -0.00007  -0.00007  -2.85385
    Y3       -2.17239   0.00003   0.00000   0.00009   0.00006  -2.17233
    Z3       -0.00006   0.00000   0.00000  -0.00000   0.00000  -0.00006
    X4        0.00004  -0.00000   0.00000  -0.00000  -0.00000   0.00004
    Y4        0.66833  -0.00000   0.00000  -0.00005  -0.00008   0.66825
    Z4       -0.00006   0.00000   0.00000   0.00000  -0.00000  -0.00006
    X5        2.41654  -0.00004   0.00000  -0.00002  -0.00002   2.41652
    Y5       -0.15963  -0.00005   0.00000  -0.00003  -0.00006  -0.15968
    Z5       -0.00006  -0.00000   0.00000  -0.00000  -0.00000  -0.00006
    X6        2.85346  -0.00000   0.00000   0.00007   0.00007   2.85353
    Y6       -2.17279   0.00003   0.00000   0.00009   0.00006  -2.17273
    Z6       -0.00006  -0.00000   0.00000   0.00000  -0.00000  -0.00006
    X7        4.00831   0.00003   0.00000   0.00005   0.00005   4.00835
    Y7        1.12406   0.00002   0.00000   0.00006   0.00003   1.12409
    Z7       -0.00006  -0.00000   0.00000   0.00000  -0.00000  -0.00006
         Item               Value     Threshold  Converged?
 Maximum Force            0.000052     0.000450     YES
 RMS     Force            0.000025     0.000300     YES
 Maximum Displacement     0.000080     0.001800     YES
 RMS     Displacement     0.000043     0.001200     YES
 Predicted change in Energy=-7.719180D-09
 Optimization completed.
    -- Stationary point found.
 GradGradGradGradGradGradGradGradGradGradGradGradGradGradGradGradGradGrad

 Leave Link  103 at Thu Jan 31 06:04:50 2019, MaxMem=    33554432 cpu:         0.1
 (Enter /home/proyectos/fulerenos/M3C-v2.0/M3C-deps_CCC/g09-AM64L-G09RevC.01/l9999.exe)

 Test job not archived.
 1\1\GINC-COPERNICIO\Freq\UB3LYP\6-311++G(3df,2p)\C3H4(3)\ROOT\31-Jan-2
 019\0\\#p b3lyp/6-311++G(3df,2p) freq IOp(2/17=3) IOp(2/18=3)\\b3lyp o
 pt\\0,3\C,-1.278792616,-0.084291797,-0.0000292761\H,-2.121026216,0.595
 121896,-0.0000292761\H,-1.510152935,-1.149581148,-0.0000292761\C,0.000
 0219382,0.353667024,-0.0000292761\C,1.2787753728,-0.0844702219,-0.0000
 292761\H,1.5099870529,-1.1497918436,-0.0000292761\H,2.1211037612,0.594
 8259501,-0.0000292761\\Version=EM64L-G09RevE.01\State=3-A2\HF=-116.624
 9988\S2=2.01474\S2-1=0.\S2A=2.000052\RMSD=4.165e-09\RMSF=2.476e-05\Zer
 oPoint=0.0521952\Thermal=0.0561037\Dipole=-0.000017,-0.2441956,0.\Dipo
 leDeriv=0.0587593,0.0166845,0.,-0.032542,0.1820977,0.,0.,0.,-0.2422307
 ,0.0124415,0.0296592,0.,0.056217,0.0224705,0.,0.,0.,0.1554366,0.025127
 7,0.0032771,0.,-0.0541418,-0.0885196,0.,0.,0.,0.1387359,-0.1926542,-0.
 0000027,0.,-0.0000027,-0.2320998,0.,0.,0.,-0.1038837,0.0587615,-0.0166
 674,0.,0.0325591,0.1820955,0.,0.,0.,-0.2422306,0.0251348,-0.0032929,0.
 ,0.0541259,-0.0885267,0.,0.,0.,0.1387359,0.0124295,-0.0296578,0.,-0.05
 62156,0.0224825,0.,0.,0.,0.1554366\Polar=63.4821071,-0.0020142,34.6098
 455,0.,0.,29.4639679\PG=C02V [C2(C1),SGV'(C2H4)]\NImag=0\\0.65144649,-
 0.00529423,0.55077157,0.,0.,0.07420598,-0.21455022,0.14217043,0.,0.235
 03219,0.13931037,-0.16500932,0.,-0.14871873,0.16982548,0.,0.,-0.022189
 49,0.,0.,0.01434559,-0.05816514,-0.05169613,0.,0.00673275,0.02133070,0
 .,0.06034856,-0.04491010,-0.29748734,0.,-0.00512244,-0.01477185,0.,0.0
 5908048,0.32064431,0.,0.,-0.02324057,0.,0.,0.00233465,0.,0.,0.01450889
 ,-0.28415321,-0.08075619,0.,-0.02435503,-0.00790669,0.,-0.00998466,-0.
 00895723,0.,0.63695613,-0.09384069,-0.10767785,0.,0.01164222,0.0104843
 8,0.,-0.03249850,-0.01077011,0.,-0.00002937,0.21595678,0.,0.,-0.035912
 15,0.,0.,-0.00036250,0.,0.,0.01044321,0.,0.,0.05166288,-0.09448301,-0.
 00263566,0.,-0.00239285,-0.00354134,0.,0.00229791,0.00145824,0.,-0.284
 12884,0.09386531,0.,0.65144796,0.00265137,0.01811529,0.,-0.00067957,-0
 .00073099,0.,0.00246798,0.00201868,0.,0.08078081,-0.10770221,0.,0.0052
 8019,0.55077010,0.,0.,0.00482204,0.,0.,0.00490290,0.,0.,-0.00258871,0.
 ,0.,-0.03591216,0.,0.,0.07420598,0.00229737,-0.00246801,0.,-0.00011978
 ,-0.00010787,0.,-0.00110961,-0.00120738,0.,-0.00997887,0.03249839,0.,-
 0.05815167,0.05166274,0.,0.06033208,-0.00145828,0.00201923,0.,0.000341
 57,-0.00005294,0.,0.00120760,0.00041922,0.,0.00895712,-0.01077589,0.,0
 .04487671,-0.29750081,0.,-0.05904416,0.32066079,0.,0.,-0.00258871,0.,0
 .,0.00446122,0.,0.,-0.00591870,0.,0.,0.01044322,0.,0.,-0.02324057,0.,0
 .,0.01450889,-0.00239226,0.00067980,0.,-0.00034707,-0.00036644,0.,-0.0
 0011981,-0.00034156,0.,-0.02435554,-0.01163736,0.,-0.21458949,-0.14216
 351,0.,0.00673049,0.00511944,0.,0.23507369,0.00354157,-0.00073158,0.,0
 .00036652,0.00025524,0.,0.00010788,-0.00005291,0.,0.00791155,0.0104849
 0,0.,-0.13930345,-0.16497005,0.,-0.02133370,-0.01476959,0.,0.14870963,
 0.16978398,0.,0.,0.00490290,0.,0.,-0.00349239,0.,0.,0.00446122,0.,0.,-
 0.00036250,0.,0.,-0.02218949,0.,0.,0.00233465,0.,0.,0.01434559\\-0.000
 03500,0.00005241,0.,0.00002925,-0.00002121,0.,-0.00000454,-0.00003361,
 0.,0.,0.00000483,0.,0.00003501,0.00005240,0.,0.00000453,-0.00003362,0.
 ,-0.00002925,-0.00002121,0.\\\@


 LET US LEARN TO DREAM, GENTLEMEN, THEN PERHAPS WE SHALL
 DISCOVER THE TRUTH;  BUT LET US BEWARE OF PUBLISHING
 OUR DREAMS ABROAD BEFORE THEY HAVE BEEN SCRUTINIZED
 BY OUR VIGILANT INTELLECT ... LET US ALWAYS ALLOW
 THE FRUIT TO HANG UNTIL IT IS RIPE.  UNRIPE FRUIT
 BRINGS EVEN THE GROWER BUT LITTLE PROFIT; IT DAMAGES
 THE HEALTH OF THOSE WHO CONSUME IT; IT ENDANGERS
 PARTICULARLY THE YOUTH WHO CANNOT YET DISTINGUISH
 BETWEEN RIPE AND UNRIPE FRUIT.

                                  -- KEKULE, 1890
 Job cpu time:       0 days  0 hours  9 minutes 53.9 seconds.
 File lengths (MBytes):  RWF=     25 Int=      0 D2E=      0 Chk=      3 Scr=      1
 Normal termination of Gaussian 09 at Thu Jan 31 06:04:50 2019.
