 Entering Gaussian System, Link 0=/home/proyectos/fulerenos/M3C-v2.0/M3C-deps_CCC/g09-AM64L-G09RevC.01/g09
 Initial command:
 /home/proyectos/fulerenos/M3C-v2.0/M3C-deps_CCC/g09-AM64L-G09RevC.01/l1.exe "/scratch/naguirre/gaussian/Gau-27116.inp" -scrdir="/scratch/naguirre/gaussian/"
 Entering Link 1 = /home/proyectos/fulerenos/M3C-v2.0/M3C-deps_CCC/g09-AM64L-G09RevC.01/l1.exe PID=     27120.
  
 Copyright (c) 1988,1990,1992,1993,1995,1998,2003,2009,2015,
            Gaussian, Inc.  All Rights Reserved.
  
 This is part of the Gaussian(R) 09 program.  It is based on
 the Gaussian(R) 03 system (copyright 2003, Gaussian, Inc.),
 the Gaussian(R) 98 system (copyright 1998, Gaussian, Inc.),
 the Gaussian(R) 94 system (copyright 1995, Gaussian, Inc.),
 the Gaussian 92(TM) system (copyright 1992, Gaussian, Inc.),
 the Gaussian 90(TM) system (copyright 1990, Gaussian, Inc.),
 the Gaussian 88(TM) system (copyright 1988, Gaussian, Inc.),
 the Gaussian 86(TM) system (copyright 1986, Carnegie Mellon
 University), and the Gaussian 82(TM) system (copyright 1983,
 Carnegie Mellon University). Gaussian is a federally registered
 trademark of Gaussian, Inc.
  
 This software contains proprietary and confidential information,
 including trade secrets, belonging to Gaussian, Inc.
  
 This software is provided under written license and may be
 used, copied, transmitted, or stored only in accord with that
 written license.
  
 The following legend is applicable only to US Government
 contracts under FAR:
  
                    RESTRICTED RIGHTS LEGEND
  
 Use, reproduction and disclosure by the US Government is
 subject to restrictions as set forth in subparagraphs (a)
 and (c) of the Commercial Computer Software - Restricted
 Rights clause in FAR 52.227-19.
  
 Gaussian, Inc.
 340 Quinnipiac St., Bldg. 40, Wallingford CT 06492
  
  
 ---------------------------------------------------------------
 Warning -- This program may not be used in any manner that
 competes with the business of Gaussian, Inc. or will provide
 assistance to any competitor of Gaussian, Inc.  The licensee
 of this program is prohibited from giving any competitor of
 Gaussian, Inc. access to this program.  By using this program,
 the user acknowledges that Gaussian, Inc. is engaged in the
 business of creating and licensing software in the field of
 computational chemistry and represents and warrants to the
 licensee that it is not a competitor of Gaussian, Inc. and that
 it will not use this program in any manner prohibited above.
 ---------------------------------------------------------------
  

 Cite this work as:
 Gaussian 09, Revision E.01,
 M. J. Frisch, G. W. Trucks, H. B. Schlegel, G. E. Scuseria, 
 M. A. Robb, J. R. Cheeseman, G. Scalmani, V. Barone, B. Mennucci, 
 G. A. Petersson, H. Nakatsuji, M. Caricato, X. Li, H. P. Hratchian, 
 A. F. Izmaylov, J. Bloino, G. Zheng, J. L. Sonnenberg, M. Hada, 
 M. Ehara, K. Toyota, R. Fukuda, J. Hasegawa, M. Ishida, T. Nakajima, 
 Y. Honda, O. Kitao, H. Nakai, T. Vreven, J. A. Montgomery, Jr., 
 J. E. Peralta, F. Ogliaro, M. Bearpark, J. J. Heyd, E. Brothers, 
 K. N. Kudin, V. N. Staroverov, T. Keith, R. Kobayashi, J. Normand, 
 K. Raghavachari, A. Rendell, J. C. Burant, S. S. Iyengar, J. Tomasi, 
 M. Cossi, N. Rega, J. M. Millam, M. Klene, J. E. Knox, J. B. Cross, 
 V. Bakken, C. Adamo, J. Jaramillo, R. Gomperts, R. E. Stratmann, 
 O. Yazyev, A. J. Austin, R. Cammi, C. Pomelli, J. W. Ochterski, 
 R. L. Martin, K. Morokuma, V. G. Zakrzewski, G. A. Voth, 
 P. Salvador, J. J. Dannenberg, S. Dapprich, A. D. Daniels, 
 O. Farkas, J. B. Foresman, J. V. Ortiz, J. Cioslowski, 
 and D. J. Fox, Gaussian, Inc., Wallingford CT, 2013.
 
 ******************************************
 Gaussian 09:  EM64L-G09RevE.01 30-Nov-2015
                19-Jul-2016 
 ******************************************
 %NProcShared=1
 Will use up to    1 processors via shared memory.
 ---------------------------------------------
 #p b3lyp/6-311++G(3df,2p) freq symmetry=Loose
 ---------------------------------------------
 1/10=4,30=1,38=1/1,3;
 2/12=2,17=4,18=3,40=1/2;
 3/5=4,6=6,7=1216,11=2,16=1,25=1,30=1,71=2,74=-5,140=1/1,2,3;
 4//1;
 5/5=2,38=5,98=1/2;
 8/6=4,10=90,11=11/1;
 11/6=1,8=1,9=11,15=111,16=1/1,2,10;
 10/6=1/2;
 6/7=2,8=2,9=2,10=2,18=1,28=1/1;
 7/8=1,10=1,25=1/1,2,3,16;
 1/10=4,30=1/3;
 99//99;
 Leave Link    1 at Tue Jul 19 18:11:01 2016, MaxMem=           0 cpu:         0.1
 (Enter /home/proyectos/fulerenos/M3C-v2.0/M3C-deps_CCC/g09-AM64L-G09RevC.01/l101.exe)
 ---------
 b3lyp opt
 ---------
 Symbolic Z-matrix:
 Charge =  2 Multiplicity = 3
 C                    -0.0001    0.11813   0. 
 C                     1.25323  -0.5516    0. 
 H                     2.19628   0.00028   0. 
 H                     1.30273  -1.64501   0. 
 C                    -0.00135   1.53655   0. 
 C                    -1.25224  -0.55381   0. 
 H                    -1.29981  -1.6473    0. 
 H                    -2.19626  -0.0036    0. 
 
 NAtoms=      8 NQM=        8 NQMF=       0 NMMI=      0 NMMIF=      0
                NMic=       0 NMicF=      0.
                    Isotopes and Nuclear Properties:
 (Nuclear quadrupole moments (NQMom) in fm**2, nuclear magnetic moments (NMagM)
  in nuclear magnetons)

  Atom         1           2           3           4           5           6           7           8
 IAtWgt=          12          12           1           1          12          12           1           1
 AtmWgt=  12.0000000  12.0000000   1.0078250   1.0078250  12.0000000  12.0000000   1.0078250   1.0078250
 NucSpn=           0           0           1           1           0           0           1           1
 AtZEff=   0.0000000   0.0000000   0.0000000   0.0000000   0.0000000   0.0000000   0.0000000   0.0000000
 NQMom=    0.0000000   0.0000000   0.0000000   0.0000000   0.0000000   0.0000000   0.0000000   0.0000000
 NMagM=    0.0000000   0.0000000   2.7928460   2.7928460   0.0000000   0.0000000   2.7928460   2.7928460
 AtZNuc=   6.0000000   6.0000000   1.0000000   1.0000000   6.0000000   6.0000000   1.0000000   1.0000000
 Leave Link  101 at Tue Jul 19 18:11:01 2016, MaxMem=    33554432 cpu:         0.3
 (Enter /home/proyectos/fulerenos/M3C-v2.0/M3C-deps_CCC/g09-AM64L-G09RevC.01/l103.exe)

 GradGradGradGradGradGradGradGradGradGradGradGradGradGradGradGradGradGrad
 Berny optimization.
 Initialization pass.
 Trust Radius=3.00D-01 FncErr=1.00D-07 GrdErr=1.00D-07
 Number of steps in this run=      2 maximum allowed number of steps=      2.
 GradGradGradGradGradGradGradGradGradGradGradGradGradGradGradGradGradGrad

 Leave Link  103 at Tue Jul 19 18:11:02 2016, MaxMem=    33554432 cpu:         0.1
 (Enter /home/proyectos/fulerenos/M3C-v2.0/M3C-deps_CCC/g09-AM64L-G09RevC.01/l202.exe)
                          Input orientation:                          
 ---------------------------------------------------------------------
 Center     Atomic      Atomic             Coordinates (Angstroms)
 Number     Number       Type             X           Y           Z
 ---------------------------------------------------------------------
      1          6           0       -0.000096    0.118127    0.000000
      2          6           0        1.253230   -0.551601    0.000000
      3          1           0        2.196277    0.000279    0.000000
      4          1           0        1.302727   -1.645005    0.000000
      5          6           0       -0.001347    1.536555    0.000000
      6          6           0       -1.252238   -0.553811    0.000000
      7          1           0       -1.299806   -1.647300    0.000000
      8          1           0       -2.196257   -0.003595    0.000000
 ---------------------------------------------------------------------
                    Distance matrix (angstroms):
                    1          2          3          4          5
     1  C    0.000000
     2  C    1.421042   0.000000
     3  H    2.199532   1.092661   0.000000
     4  H    2.192255   1.094524   1.872269   0.000000
     5  C    1.418428   2.436054   2.681360   3.438449   0.000000
     6  C    1.421042   2.505470   3.492745   2.778228   2.436054
     7  H    2.192255   2.778228   3.864856   2.602534   3.438449
     8  H    2.199532   3.492745   4.392535   3.864856   2.681360
                    6          7          8
     6  C    0.000000
     7  H    1.094524   0.000000
     8  H    1.092661   1.872269   0.000000
 Stoichiometry    C4H4(2+,3)
 Framework group  C2V[C2(CC),SGV(C2H4)]
 Deg. of freedom     7
 Full point group                 C2V     NOp   4
 Largest Abelian subgroup         C2V     NOp   4
 Largest concise Abelian subgroup C2      NOp   2
                         Standard orientation:                         
 ---------------------------------------------------------------------
 Center     Atomic      Atomic             Coordinates (Angstroms)
 Number     Number       Type             X           Y           Z
 ---------------------------------------------------------------------
      1          6           0        0.000000    0.000000    0.118127
      2          6           0        0.000000   -1.252735   -0.552706
      3          1           0        0.000000   -2.196267   -0.001658
      4          1           0        0.000000   -1.301267   -1.646153
      5          6           0        0.000000    0.000000    1.536555
      6          6           0        0.000000    1.252735   -0.552706
      7          1           0        0.000000    1.301267   -1.646153
      8          1           0        0.000000    2.196267   -0.001658
 ---------------------------------------------------------------------
 Rotational constants (GHZ):     12.3000189      9.9484000      5.4999642
 Leave Link  202 at Tue Jul 19 18:11:02 2016, MaxMem=    33554432 cpu:         0.0
 (Enter /home/proyectos/fulerenos/M3C-v2.0/M3C-deps_CCC/g09-AM64L-G09RevC.01/l301.exe)
 Standard basis: 6-311++G(3df,2p) (5D, 7F)
 Ernie: Thresh=  0.10000D-02 Tol=  0.10000D-05 Strict=F.
 There are    89 symmetry adapted cartesian basis functions of A1  symmetry.
 There are    26 symmetry adapted cartesian basis functions of A2  symmetry.
 There are    38 symmetry adapted cartesian basis functions of B1  symmetry.
 There are    67 symmetry adapted cartesian basis functions of B2  symmetry.
 There are    76 symmetry adapted basis functions of A1  symmetry.
 There are    25 symmetry adapted basis functions of A2  symmetry.
 There are    35 symmetry adapted basis functions of B1  symmetry.
 There are    60 symmetry adapted basis functions of B2  symmetry.
   196 basis functions,   280 primitive gaussians,   220 cartesian basis functions
    14 alpha electrons       12 beta electrons
       nuclear repulsion energy        90.3650746130 Hartrees.
 IExCor=  402 DFT=T Ex+Corr=B3LYP ExCW=0 ScaHFX=  0.200000
 ScaDFX=  0.800000  0.720000  1.000000  0.810000 ScalE2=  1.000000  1.000000
 IRadAn=      0 IRanWt=     -1 IRanGd=            0 ICorTp=0 IEmpDi=  4
 NAtoms=    8 NActive=    8 NUniq=    5 SFac= 2.56D+00 NAtFMM=   60 NAOKFM=F Big=F
 Integral buffers will be    131072 words long.
 Raffenetti 2 integral format.
 Two-electron integral symmetry is turned on.
 Leave Link  301 at Tue Jul 19 18:11:02 2016, MaxMem=    33554432 cpu:         0.2
 (Enter /home/proyectos/fulerenos/M3C-v2.0/M3C-deps_CCC/g09-AM64L-G09RevC.01/l302.exe)
 NPDir=0 NMtPBC=     1 NCelOv=     1 NCel=       1 NClECP=     1 NCelD=      1
         NCelK=      1 NCelE2=     1 NClLst=     1 CellRange=     0.0.
 One-electron integrals computed using PRISM.
 One-electron integral symmetry used in STVInt
 NBasis=   196 RedAO= T EigKep=  2.03D-05  NBF=    76    25    35    60
 NBsUse=   196 1.00D-06 EigRej= -1.00D+00 NBFU=    76    25    35    60
 Precomputing XC quadrature grid using
 IXCGrd= 4 IRadAn=           0 IRanWt=          -1 IRanGd=           0 AccXCQ= 0.00D+00.
 Generated NRdTot=       0 NPtTot=           0 NUsed=           0 NTot=          32
 NSgBfM=   220   220   220   220   220 MxSgAt=     8 MxSgA2=     8.
 Leave Link  302 at Tue Jul 19 18:11:03 2016, MaxMem=    33554432 cpu:         0.5
 (Enter /home/proyectos/fulerenos/M3C-v2.0/M3C-deps_CCC/g09-AM64L-G09RevC.01/l303.exe)
 DipDrv:  MaxL=1.
 Leave Link  303 at Tue Jul 19 18:11:04 2016, MaxMem=    33554432 cpu:         0.1
 (Enter /home/proyectos/fulerenos/M3C-v2.0/M3C-deps_CCC/g09-AM64L-G09RevC.01/l401.exe)
 ExpMin= 3.60D-02 ExpMax= 4.56D+03 ExpMxC= 6.82D+02 IAcc=3 IRadAn=         5 AccDes= 0.00D+00
 Harris functional with IExCor=  402 and IRadAn=       5 diagonalized for initial guess.
 HarFok:  IExCor=  402 AccDes= 0.00D+00 IRadAn=         5 IDoV= 1 UseB2=F ITyADJ=14
 ICtDFT=  3500011 ScaDFX=  1.000000  1.000000  1.000000  1.000000
 FoFCou: FMM=F IPFlag=           0 FMFlag=      100000 FMFlg1=           0
         NFxFlg=           0 DoJE=T BraDBF=F KetDBF=T FulRan=T
         wScrn=  0.000000 ICntrl=     500 IOpCl=  0 I1Cent=   200000004 NGrid=           0
         NMat0=    1 NMatS0=      1 NMatT0=    0 NMatD0=    1 NMtDS0=    0 NMtDT0=    0
 Petite list used in FoFCou.
 Harris En= -154.069829033839    
 JPrj=0 DoOrth=F DoCkMO=F.
 Initial guess orbital symmetries:
 Alpha Orbitals:
       Occupied  (B2) (A1) (A1) (A1) (A1) (B2) (A1) (A1) (B2) (A1)
                 (B2) (B1) (A1) (A2)
       Virtual   (B1) (B2) (B1) (A1) (B2) (A1) (B2) (A1) (B1) (A1)
                 (A1) (A2) (B1) (B2) (A1) (A1) (B2) (B2) (A1) (B2)
                 (B1) (B2) (A1) (A1) (B2) (A1) (A1) (B1) (B2) (A2)
                 (B2) (A1) (A1) (A1) (B2) (A1) (B2) (A2) (B1) (A1)
                 (A2) (B1) (A1) (B2) (B2) (A1) (B1) (B2) (A1) (A2)
                 (B1) (A1) (B2) (A1) (A1) (B1) (B2) (A2) (B1) (A1)
                 (B2) (B2) (A1) (B2) (B1) (A2) (A1) (B1) (A1) (A2)
                 (B2) (B2) (A1) (B2) (A1) (A1) (A1) (B2) (A2) (A1)
                 (A1) (B1) (B2) (B2) (A2) (A1) (B2) (B1) (A2) (A1)
                 (B1) (A1) (B2) (A2) (B1) (B2) (B2) (A1) (A1) (A1)
                 (B2) (A1) (B1) (A2) (B2) (A1) (B1) (B2) (A1) (B1)
                 (A2) (B1) (B1) (A1) (B2) (B1) (A2) (A1) (B2) (A2)
                 (B2) (A1) (B1) (B2) (B2) (A1) (B2) (A1) (B2) (B1)
                 (A2) (A1) (A1) (B2) (A1) (B2) (A1) (A1) (A2) (B1)
                 (A1) (B2) (B1) (B2) (A1) (A2) (B1) (A2) (B1) (B2)
                 (B2) (A1) (A1) (B2) (A1) (B2) (A1) (B2) (A2) (A1)
                 (A2) (B1) (A2) (B1) (A1) (B1) (B2) (A1) (B2) (A1)
                 (B1) (A2) (A1) (B2) (B2) (A1) (A1) (B2) (A1) (B2)
                 (A1) (A1)
 Beta  Orbitals:
       Occupied  (B2) (A1) (A1) (A1) (A1) (B2) (A1) (A1) (B2) (A1)
                 (B2) (B1)
       Virtual   (A1) (A2) (B1) (B2) (B1) (A1) (B2) (A1) (B2) (A1)
                 (B1) (A1) (A1) (A2) (B1) (B2) (A1) (A1) (B2) (B2)
                 (A1) (B2) (B1) (B2) (A1) (A1) (B2) (A1) (A1) (B1)
                 (B2) (A2) (B2) (A1) (A1) (A1) (B2) (A1) (B2) (A2)
                 (B1) (A1) (A2) (B1) (A1) (B2) (B2) (A1) (B1) (B2)
                 (A1) (A2) (B1) (A1) (B2) (A1) (A1) (B1) (B2) (A2)
                 (B1) (A1) (B2) (B2) (A1) (B2) (B1) (A2) (A1) (B1)
                 (A1) (A2) (B2) (B2) (A1) (B2) (A1) (A1) (A1) (B2)
                 (A2) (A1) (A1) (B1) (B2) (B2) (A2) (A1) (B2) (B1)
                 (A2) (A1) (B1) (A1) (B2) (A2) (B1) (B2) (B2) (A1)
                 (A1) (A1) (B2) (A1) (B1) (A2) (B2) (A1) (B1) (B2)
                 (A1) (B1) (A2) (B1) (B1) (A1) (B2) (B1) (A2) (A1)
                 (B2) (A2) (B2) (A1) (B1) (B2) (B2) (A1) (B2) (A1)
                 (B2) (B1) (A2) (A1) (A1) (B2) (A1) (B2) (A1) (A1)
                 (A2) (B1) (A1) (B2) (B1) (B2) (A1) (A2) (B1) (A2)
                 (B1) (B2) (B2) (A1) (A1) (B2) (A1) (B2) (A1) (B2)
                 (A2) (A1) (A2) (B1) (A2) (B1) (A1) (B1) (B2) (A1)
                 (B2) (A1) (B1) (A2) (A1) (B2) (B2) (A1) (A1) (B2)
                 (A1) (B2) (A1) (A1)
 The electronic state of the initial guess is 3-A2.
 Initial guess <Sx>= 0.0000 <Sy>= 0.0000 <Sz>= 1.0000 <S**2>= 2.0000 S= 1.0000
 Leave Link  401 at Tue Jul 19 18:11:07 2016, MaxMem=    33554432 cpu:         2.9
 (Enter /home/proyectos/fulerenos/M3C-v2.0/M3C-deps_CCC/g09-AM64L-G09RevC.01/l502.exe)
 UHF open shell SCF:
 Using DIIS extrapolation, IDIIS=  1040.
 Integral symmetry usage will be decided dynamically.
 IVT=      167050 IEndB=      167050 NGot=    33554432 MDV=    33452643
 LenX=    33452643 LenY=    33403802
 Requested convergence on RMS density matrix=1.00D-08 within 128 cycles.
 Requested convergence on MAX density matrix=1.00D-06.
 Requested convergence on             energy=1.00D-06.
 No special actions if energy rises.
 Fock matrices will be formed incrementally for  20 cycles.

 Cycle   1  Pass 1  IDiag  1:
 FoFJK:  IHMeth= 1 ICntrl=       0 DoSepK=F KAlg= 0 I1Cent=   0 FoldK=F
 IRaf= 990000000 NMat=   1 IRICut=       1 DoRegI=T DoRafI=F ISym2E= 1.
 FoFCou: FMM=F IPFlag=           0 FMFlag=      100000 FMFlg1=           0
         NFxFlg=           0 DoJE=F BraDBF=F KetDBF=F FulRan=T
         wScrn=  0.000000 ICntrl=       0 IOpCl=  1 I1Cent=           0 NGrid=           0
         NMat0=    1 NMatS0=      1 NMatT0=    0 NMatD0=    1 NMtDS0=    0 NMtDT0=    0
 Petite list used in FoFCou.
 E= -153.353526887204    
 DIIS: error= 6.75D-02 at cycle   1 NSaved=   1.
 NSaved= 1 IEnMin= 1 EnMin= -153.353526887204     IErMin= 1 ErrMin= 6.75D-02
 ErrMax= 6.75D-02  0.00D+00 EMaxC= 1.00D-01 BMatC= 7.39D-01 BMatP= 7.39D-01
 IDIUse=3 WtCom= 3.25D-01 WtEn= 6.75D-01
 Coeff-Com:  0.100D+01
 Coeff-En:   0.100D+01
 Coeff:      0.100D+01
 Gap=    -0.205 Goal=   None    Shift=    0.000
 Gap=     0.051 Goal=   None    Shift=    0.000
 GapD=   -0.205 DampG=0.250 DampE=0.500 DampFc=0.2500 IDamp=-1.
 Damping current iteration by 2.50D-01
 RMSDP=1.28D-02 MaxDP=4.55D-01              OVMax= 7.98D-01

 Cycle   2  Pass 1  IDiag  1:
 RMSU=  3.20D-03    CP:  1.00D+00
 E= -153.402397062745     Delta-E=       -0.048870175541 Rises=F Damp=T
 DIIS: error= 1.23D-02 at cycle   2 NSaved=   2.
 NSaved= 2 IEnMin= 2 EnMin= -153.402397062745     IErMin= 2 ErrMin= 1.23D-02
 ErrMax= 1.23D-02  0.00D+00 EMaxC= 1.00D-01 BMatC= 9.62D-02 BMatP= 7.39D-01
 IDIUse=3 WtCom= 8.77D-01 WtEn= 1.23D-01
 Coeff-Com:  0.154D+00 0.846D+00
 Coeff-En:   0.436D+00 0.564D+00
 Coeff:      0.189D+00 0.811D+00
 Gap=     0.003 Goal=   None    Shift=    0.000
 Gap=     0.013 Goal=   None    Shift=    0.000
 RMSDP=4.34D-03 MaxDP=3.42D-01 DE=-4.89D-02 OVMax= 9.60D-01

 Cycle   3  Pass 1  IDiag  1:
 RMSU=  3.59D-03    CP:  1.14D+00  4.84D-01
 E= -153.582420132233     Delta-E=       -0.180023069488 Rises=F Damp=F
 DIIS: error= 3.95D-02 at cycle   3 NSaved=   3.
 NSaved= 3 IEnMin= 3 EnMin= -153.582420132233     IErMin= 2 ErrMin= 1.23D-02
 ErrMax= 3.95D-02  0.00D+00 EMaxC= 1.00D-01 BMatC= 1.79D-01 BMatP= 9.62D-02
 IDIUse=2 WtCom= 0.00D+00 WtEn= 1.00D+00
 Coeff-En:   0.000D+00 0.000D+00 0.100D+01
 Coeff:      0.000D+00 0.000D+00 0.100D+01
 Gap=     0.068 Goal=   None    Shift=    0.000
 Gap=     0.051 Goal=   None    Shift=    0.000
 RMSDP=1.11D-02 MaxDP=6.69D-01 DE=-1.80D-01 OVMax= 5.61D-01

 Cycle   4  Pass 1  IDiag  1:
 RMSU=  5.21D-03    CP:  1.10D+00  3.00D+00  4.11D-01
 E= -151.369225983735     Delta-E=        2.213194148498 Rises=F Damp=F
 DIIS: error= 1.82D-01 at cycle   4 NSaved=   4.
 NSaved= 4 IEnMin= 3 EnMin= -153.582420132233     IErMin= 2 ErrMin= 1.23D-02
 ErrMax= 1.82D-01  0.00D+00 EMaxC= 1.00D-01 BMatC= 7.50D+00 BMatP= 9.62D-02
 IDIUse=2 WtCom= 0.00D+00 WtEn= 1.00D+00
 Coeff-En:   0.000D+00 0.000D+00 0.901D+00 0.986D-01
 Coeff:      0.000D+00 0.000D+00 0.901D+00 0.986D-01
 Gap=     0.057 Goal=   None    Shift=    0.000
 Gap=     0.017 Goal=   None    Shift=    0.000
 RMSDP=7.11D-03 MaxDP=5.04D-01 DE= 2.21D+00 OVMax= 5.96D-01

 Cycle   5  Pass 1  IDiag  1:
 RMSU=  4.20D-03    CP:  1.14D+00  1.96D+00  9.16D-01  4.72D-01
 E= -153.380372443291     Delta-E=       -2.011146459556 Rises=F Damp=F
 DIIS: error= 9.15D-02 at cycle   5 NSaved=   5.
 NSaved= 5 IEnMin= 3 EnMin= -153.582420132233     IErMin= 2 ErrMin= 1.23D-02
 ErrMax= 9.15D-02  0.00D+00 EMaxC= 1.00D-01 BMatC= 1.10D+00 BMatP= 9.62D-02
 IDIUse=2 WtCom= 0.00D+00 WtEn= 1.00D+00
 Coeff-En:   0.000D+00 0.000D+00 0.668D+00 0.000D+00 0.332D+00
 Coeff:      0.000D+00 0.000D+00 0.668D+00 0.000D+00 0.332D+00
 Gap=     0.034 Goal=   None    Shift=    0.000
 Gap=     0.106 Goal=   None    Shift=    0.000
 RMSDP=2.83D-03 MaxDP=1.60D-01 DE=-2.01D+00 OVMax= 2.30D-01

 Cycle   6  Pass 1  IDiag  1:
 RMSU=  1.72D-03    CP:  1.12D+00  1.28D+00  9.20D-01  3.82D-01  9.83D-01
 E= -153.688269165344     Delta-E=       -0.307896722053 Rises=F Damp=F
 DIIS: error= 3.21D-02 at cycle   6 NSaved=   6.
 NSaved= 6 IEnMin= 6 EnMin= -153.688269165344     IErMin= 2 ErrMin= 1.23D-02
 ErrMax= 3.21D-02  0.00D+00 EMaxC= 1.00D-01 BMatC= 1.02D-01 BMatP= 9.62D-02
 IDIUse=3 WtCom= 6.79D-01 WtEn= 3.21D-01
 EnCoef did   100 forward-backward iterations
 Coeff-Com: -0.150D-01 0.146D+00 0.289D+00-0.686D-02-0.116D+00 0.702D+00
 Coeff-En:   0.986D-01 0.000D+00 0.930D-03 0.000D+00 0.000D+00 0.900D+00
 Coeff:      0.214D-01 0.994D-01 0.197D+00-0.466D-02-0.785D-01 0.766D+00
 Gap=     0.053 Goal=   None    Shift=    0.000
 Gap=     0.162 Goal=   None    Shift=    0.000
 RMSDP=1.44D-03 MaxDP=7.68D-02 DE=-3.08D-01 OVMax= 1.35D-01

 Cycle   7  Pass 1  IDiag  1:
 RMSU=  5.36D-04    CP:  1.10D+00  9.68D-01  8.54D-01  3.49D-01  9.41D-01
                    CP:  1.46D+00
 E= -153.728108676881     Delta-E=       -0.039839511537 Rises=F Damp=F
 DIIS: error= 3.76D-03 at cycle   7 NSaved=   7.
 NSaved= 7 IEnMin= 7 EnMin= -153.728108676881     IErMin= 7 ErrMin= 3.76D-03
 ErrMax= 3.76D-03  0.00D+00 EMaxC= 1.00D-01 BMatC= 2.64D-03 BMatP= 9.62D-02
 IDIUse=3 WtCom= 9.62D-01 WtEn= 3.76D-02
 Coeff-Com: -0.772D-01 0.126D+00 0.187D+00-0.396D-02 0.650D-01-0.246D+00
 Coeff-Com:  0.948D+00
 Coeff-En:   0.000D+00 0.000D+00 0.000D+00 0.000D+00 0.000D+00 0.000D+00
 Coeff-En:   0.100D+01
 Coeff:     -0.743D-01 0.121D+00 0.180D+00-0.381D-02 0.626D-01-0.236D+00
 Coeff:      0.950D+00
 Gap=     0.090 Goal=   None    Shift=    0.000
 Gap=     0.164 Goal=   None    Shift=    0.000
 RMSDP=4.09D-04 MaxDP=2.08D-02 DE=-3.98D-02 OVMax= 3.31D-02

 Cycle   8  Pass 1  IDiag  1:
 RMSU=  3.10D-04    CP:  1.10D+00  1.01D+00  8.61D-01  3.55D-01  9.75D-01
                    CP:  1.45D+00  1.28D+00
 E= -153.728136650686     Delta-E=       -0.000027973805 Rises=F Damp=F
 DIIS: error= 7.04D-03 at cycle   8 NSaved=   8.
 NSaved= 8 IEnMin= 8 EnMin= -153.728136650686     IErMin= 7 ErrMin= 3.76D-03
 ErrMax= 7.04D-03  0.00D+00 EMaxC= 1.00D-01 BMatC= 4.86D-03 BMatP= 2.64D-03
 IDIUse=3 WtCom= 9.62D-01 WtEn= 3.76D-02
 Coeff-Com: -0.221D-01 0.428D-01 0.517D-01 0.354D-03 0.704D-01-0.429D+00
 Coeff-Com:  0.419D+00 0.867D+00
 Coeff-En:   0.000D+00 0.000D+00 0.000D+00 0.000D+00 0.000D+00 0.000D+00
 Coeff-En:   0.465D+00 0.535D+00
 Coeff:     -0.213D-01 0.412D-01 0.497D-01 0.341D-03 0.677D-01-0.413D+00
 Coeff:      0.421D+00 0.854D+00
 Gap=     0.108 Goal=   None    Shift=    0.000
 Gap=     0.176 Goal=   None    Shift=    0.000
 RMSDP=3.80D-04 MaxDP=2.03D-02 DE=-2.80D-05 OVMax= 3.93D-02

 Cycle   9  Pass 1  IDiag  1:
 RMSU=  1.67D-04    CP:  1.09D+00  9.70D-01  8.38D-01  3.57D-01  9.75D-01
                    CP:  1.53D+00  1.68D+00  1.40D+00
 E= -153.730309047005     Delta-E=       -0.002172396319 Rises=F Damp=F
 DIIS: error= 2.08D-03 at cycle   9 NSaved=   9.
 NSaved= 9 IEnMin= 9 EnMin= -153.730309047005     IErMin= 9 ErrMin= 2.08D-03
 ErrMax= 2.08D-03  0.00D+00 EMaxC= 1.00D-01 BMatC= 3.48D-04 BMatP= 2.64D-03
 IDIUse=3 WtCom= 9.79D-01 WtEn= 2.08D-02
 Coeff-Com: -0.159D-02 0.575D-03 0.847D-02-0.587D-03 0.154D-01-0.103D+00
 Coeff-Com: -0.162D+00 0.108D+00 0.113D+01
 Coeff-En:   0.000D+00 0.000D+00 0.000D+00 0.000D+00 0.000D+00 0.000D+00
 Coeff-En:   0.000D+00 0.000D+00 0.100D+01
 Coeff:     -0.156D-02 0.563D-03 0.830D-02-0.575D-03 0.151D-01-0.101D+00
 Coeff:     -0.158D+00 0.105D+00 0.113D+01
 Gap=     0.116 Goal=   None    Shift=    0.000
 Gap=     0.183 Goal=   None    Shift=    0.000
 RMSDP=1.77D-04 MaxDP=7.82D-03 DE=-2.17D-03 OVMax= 1.88D-02

 Cycle  10  Pass 1  IDiag  1:
 RMSU=  6.24D-05    CP:  1.09D+00  9.53D-01  8.35D-01  3.56D-01  9.69D-01
                    CP:  1.55D+00  1.86D+00  1.64D+00  1.39D+00
 E= -153.730590327433     Delta-E=       -0.000281280429 Rises=F Damp=F
 DIIS: error= 8.13D-04 at cycle  10 NSaved=  10.
 NSaved=10 IEnMin=10 EnMin= -153.730590327433     IErMin=10 ErrMin= 8.13D-04
 ErrMax= 8.13D-04  0.00D+00 EMaxC= 1.00D-01 BMatC= 5.73D-05 BMatP= 3.48D-04
 IDIUse=3 WtCom= 9.92D-01 WtEn= 8.13D-03
 Coeff-Com: -0.522D-03 0.215D-02 0.481D-02-0.264D-03 0.135D-02-0.155D-01
 Coeff-Com: -0.463D-02-0.427D-01 0.127D+00 0.928D+00
 Coeff-En:   0.000D+00 0.000D+00 0.000D+00 0.000D+00 0.000D+00 0.000D+00
 Coeff-En:   0.000D+00 0.000D+00 0.000D+00 0.100D+01
 Coeff:     -0.517D-03 0.213D-02 0.477D-02-0.261D-03 0.133D-02-0.154D-01
 Coeff:     -0.459D-02-0.423D-01 0.126D+00 0.929D+00
 Gap=     0.115 Goal=   None    Shift=    0.000
 Gap=     0.185 Goal=   None    Shift=    0.000
 RMSDP=3.30D-05 MaxDP=2.04D-03 DE=-2.81D-04 OVMax= 4.60D-03

 Cycle  11  Pass 1  IDiag  1:
 RMSU=  2.49D-05    CP:  1.09D+00  9.49D-01  8.33D-01  3.55D-01  9.68D-01
                    CP:  1.56D+00  1.87D+00  1.63D+00  1.41D+00  1.09D+00
 E= -153.730618155863     Delta-E=       -0.000027828430 Rises=F Damp=F
 DIIS: error= 4.64D-04 at cycle  11 NSaved=  11.
 NSaved=11 IEnMin=11 EnMin= -153.730618155863     IErMin=11 ErrMin= 4.64D-04
 ErrMax= 4.64D-04  0.00D+00 EMaxC= 1.00D-01 BMatC= 1.46D-05 BMatP= 5.73D-05
 IDIUse=3 WtCom= 9.95D-01 WtEn= 4.64D-03
 Coeff-Com:  0.281D-03 0.136D-03-0.916D-03 0.197D-04 0.197D-02-0.608D-02
 Coeff-Com:  0.464D-01-0.440D-01-0.163D+00 0.853D-01 0.108D+01
 Coeff-En:   0.000D+00 0.000D+00 0.000D+00 0.000D+00 0.000D+00 0.000D+00
 Coeff-En:   0.000D+00 0.000D+00 0.000D+00 0.000D+00 0.100D+01
 Coeff:      0.279D-03 0.135D-03-0.911D-03 0.196D-04 0.196D-02-0.606D-02
 Coeff:      0.462D-01-0.438D-01-0.162D+00 0.849D-01 0.108D+01
 Gap=     0.116 Goal=   None    Shift=    0.000
 Gap=     0.186 Goal=   None    Shift=    0.000
 RMSDP=3.21D-05 MaxDP=1.74D-03 DE=-2.78D-05 OVMax= 4.82D-03

 Cycle  12  Pass 1  IDiag  1:
 RMSU=  7.44D-06    CP:  1.09D+00  9.44D-01  8.31D-01  3.54D-01  9.65D-01
                    CP:  1.56D+00  1.89D+00  1.62D+00  1.45D+00  1.24D+00
                    CP:  1.32D+00
 E= -153.730627653081     Delta-E=       -0.000009497218 Rises=F Damp=F
 DIIS: error= 9.21D-05 at cycle  12 NSaved=  12.
 NSaved=12 IEnMin=12 EnMin= -153.730627653081     IErMin=12 ErrMin= 9.21D-05
 ErrMax= 9.21D-05  0.00D+00 EMaxC= 1.00D-01 BMatC= 7.67D-07 BMatP= 1.46D-05
 IDIUse=1 WtCom= 1.00D+00 WtEn= 0.00D+00
 Coeff-Com: -0.385D-03 0.497D-03 0.973D-03-0.757D-06-0.663D-03 0.623D-02
 Coeff-Com:  0.537D-02-0.411D-02-0.558D-01-0.888D-01 0.223D+00 0.914D+00
 Coeff:     -0.385D-03 0.497D-03 0.973D-03-0.757D-06-0.663D-03 0.623D-02
 Coeff:      0.537D-02-0.411D-02-0.558D-01-0.888D-01 0.223D+00 0.914D+00
 Gap=     0.116 Goal=   None    Shift=    0.000
 Gap=     0.186 Goal=   None    Shift=    0.000
 RMSDP=5.41D-06 MaxDP=2.46D-04 DE=-9.50D-06 OVMax= 1.14D-03

 Cycle  13  Pass 1  IDiag  1:
 RMSU=  2.35D-06    CP:  1.09D+00  9.45D-01  8.31D-01  3.54D-01  9.65D-01
                    CP:  1.56D+00  1.88D+00  1.62D+00  1.45D+00  1.27D+00
                    CP:  1.44D+00  1.09D+00
 E= -153.730628068095     Delta-E=       -0.000000415014 Rises=F Damp=F
 DIIS: error= 3.57D-05 at cycle  13 NSaved=  13.
 NSaved=13 IEnMin=13 EnMin= -153.730628068095     IErMin=13 ErrMin= 3.57D-05
 ErrMax= 3.57D-05  0.00D+00 EMaxC= 1.00D-01 BMatC= 1.12D-07 BMatP= 7.67D-07
 IDIUse=1 WtCom= 1.00D+00 WtEn= 0.00D+00
 Coeff-Com:  0.150D-04-0.356D-04-0.625D-04-0.362D-05 0.541D-04-0.188D-03
 Coeff-Com: -0.266D-02-0.107D-02 0.107D-01-0.162D-01-0.454D-01 0.836D-01
 Coeff-Com:  0.971D+00
 Coeff:      0.150D-04-0.356D-04-0.625D-04-0.362D-05 0.541D-04-0.188D-03
 Coeff:     -0.266D-02-0.107D-02 0.107D-01-0.162D-01-0.454D-01 0.836D-01
 Coeff:      0.971D+00
 Gap=     0.116 Goal=   None    Shift=    0.000
 Gap=     0.186 Goal=   None    Shift=    0.000
 RMSDP=2.59D-06 MaxDP=1.12D-04 DE=-4.15D-07 OVMax= 3.95D-04

 Cycle  14  Pass 1  IDiag  1:
 RMSU=  6.26D-07    CP:  1.09D+00  9.44D-01  8.31D-01  3.54D-01  9.65D-01
                    CP:  1.56D+00  1.89D+00  1.62D+00  1.46D+00  1.27D+00
                    CP:  1.45D+00  1.15D+00  1.15D+00
 E= -153.730628128709     Delta-E=       -0.000000060614 Rises=F Damp=F
 DIIS: error= 2.38D-06 at cycle  14 NSaved=  14.
 NSaved=14 IEnMin=14 EnMin= -153.730628128709     IErMin=14 ErrMin= 2.38D-06
 ErrMax= 2.38D-06  0.00D+00 EMaxC= 1.00D-01 BMatC= 2.12D-09 BMatP= 1.12D-07
 IDIUse=1 WtCom= 1.00D+00 WtEn= 0.00D+00
 Coeff-Com: -0.912D-05 0.139D-05 0.363D-04-0.204D-05 0.307D-04-0.304D-03
 Coeff-Com: -0.858D-04 0.855D-03 0.144D-02-0.582D-03-0.628D-02-0.394D-01
 Coeff-Com:  0.475D-01 0.997D+00
 Coeff:     -0.912D-05 0.139D-05 0.363D-04-0.204D-05 0.307D-04-0.304D-03
 Coeff:     -0.858D-04 0.855D-03 0.144D-02-0.582D-03-0.628D-02-0.394D-01
 Coeff:      0.475D-01 0.997D+00
 Gap=     0.116 Goal=   None    Shift=    0.000
 Gap=     0.186 Goal=   None    Shift=    0.000
 RMSDP=4.32D-07 MaxDP=2.82D-05 DE=-6.06D-08 OVMax= 2.47D-05

 Cycle  15  Pass 1  IDiag  1:
 RMSU=  1.23D-07    CP:  1.09D+00  9.44D-01  8.31D-01  3.54D-01  9.65D-01
                    CP:  1.56D+00  1.89D+00  1.62D+00  1.46D+00  1.27D+00
                    CP:  1.46D+00  1.15D+00  1.21D+00  1.18D+00
 E= -153.730628129407     Delta-E=       -0.000000000698 Rises=F Damp=F
 DIIS: error= 1.75D-06 at cycle  15 NSaved=  15.
 NSaved=15 IEnMin=15 EnMin= -153.730628129407     IErMin=15 ErrMin= 1.75D-06
 ErrMax= 1.75D-06  0.00D+00 EMaxC= 1.00D-01 BMatC= 3.54D-10 BMatP= 2.12D-09
 IDIUse=1 WtCom= 1.00D+00 WtEn= 0.00D+00
 Coeff-Com:  0.519D-05-0.403D-05-0.128D-04-0.624D-06 0.125D-04-0.899D-04
 Coeff-Com:  0.122D-03 0.123D-03-0.325D-03-0.503D-03 0.301D-02-0.171D-02
 Coeff-Com: -0.505D-01-0.805D-02 0.106D+01
 Coeff:      0.519D-05-0.403D-05-0.128D-04-0.624D-06 0.125D-04-0.899D-04
 Coeff:      0.122D-03 0.123D-03-0.325D-03-0.503D-03 0.301D-02-0.171D-02
 Coeff:     -0.505D-01-0.805D-02 0.106D+01
 Gap=     0.116 Goal=   None    Shift=    0.000
 Gap=     0.186 Goal=   None    Shift=    0.000
 RMSDP=1.20D-07 MaxDP=5.91D-06 DE=-6.98D-10 OVMax= 1.82D-05

 Cycle  16  Pass 1  IDiag  1:
 RMSU=  3.17D-08    CP:  1.09D+00  9.44D-01  8.31D-01  3.54D-01  9.65D-01
                    CP:  1.56D+00  1.89D+00  1.62D+00  1.46D+00  1.27D+00
                    CP:  1.46D+00  1.15D+00  1.22D+00  1.24D+00  1.09D+00
 E= -153.730628129546     Delta-E=       -0.000000000139 Rises=F Damp=F
 DIIS: error= 2.78D-07 at cycle  16 NSaved=  16.
 NSaved=16 IEnMin=16 EnMin= -153.730628129546     IErMin=16 ErrMin= 2.78D-07
 ErrMax= 2.78D-07  0.00D+00 EMaxC= 1.00D-01 BMatC= 1.38D-11 BMatP= 3.54D-10
 IDIUse=1 WtCom= 1.00D+00 WtEn= 0.00D+00
 Coeff-Com:  0.393D-06 0.253D-07-0.484D-06 0.238D-07-0.976D-06 0.825D-05
 Coeff-Com:  0.155D-04 0.131D-04-0.917D-04-0.877D-04 0.554D-03 0.167D-02
 Coeff-Com: -0.741D-02-0.478D-01 0.158D+00 0.896D+00
 Coeff:      0.393D-06 0.253D-07-0.484D-06 0.238D-07-0.976D-06 0.825D-05
 Coeff:      0.155D-04 0.131D-04-0.917D-04-0.877D-04 0.554D-03 0.167D-02
 Coeff:     -0.741D-02-0.478D-01 0.158D+00 0.896D+00
 Gap=     0.116 Goal=   None    Shift=    0.000
 Gap=     0.186 Goal=   None    Shift=    0.000
 RMSDP=2.94D-08 MaxDP=2.08D-06 DE=-1.39D-10 OVMax= 2.71D-06

 Cycle  17  Pass 1  IDiag  1:
 RMSU=  6.32D-09    CP:  1.09D+00  9.44D-01  8.31D-01  3.54D-01  9.65D-01
                    CP:  1.56D+00  1.89D+00  1.62D+00  1.46D+00  1.27D+00
                    CP:  1.46D+00  1.15D+00  1.22D+00  1.25D+00  1.14D+00
                    CP:  9.55D-01
 E= -153.730628129555     Delta-E=       -0.000000000009 Rises=F Damp=F
 DIIS: error= 1.51D-08 at cycle  17 NSaved=  17.
 NSaved=17 IEnMin=17 EnMin= -153.730628129555     IErMin=17 ErrMin= 1.51D-08
 ErrMax= 1.51D-08  0.00D+00 EMaxC= 1.00D-01 BMatC= 6.51D-14 BMatP= 1.38D-11
 IDIUse=1 WtCom= 1.00D+00 WtEn= 0.00D+00
 Coeff-Com: -0.206D-06 0.234D-06 0.284D-06 0.131D-08-0.296D-06 0.278D-05
 Coeff-Com: -0.318D-05-0.642D-05 0.964D-05 0.255D-04-0.112D-03-0.304D-05
 Coeff-Com:  0.194D-02 0.374D-02-0.480D-01-0.631D-01 0.111D+01
 Coeff:     -0.206D-06 0.234D-06 0.284D-06 0.131D-08-0.296D-06 0.278D-05
 Coeff:     -0.318D-05-0.642D-05 0.964D-05 0.255D-04-0.112D-03-0.304D-05
 Coeff:      0.194D-02 0.374D-02-0.480D-01-0.631D-01 0.111D+01
 Gap=     0.116 Goal=   None    Shift=    0.000
 Gap=     0.186 Goal=   None    Shift=    0.000
 RMSDP=2.71D-09 MaxDP=1.32D-07 DE=-8.70D-12 OVMax= 2.11D-07

 SCF Done:  E(UB3LYP) =  -153.730628130     A.U. after   17 cycles
            NFock= 17  Conv=0.27D-08     -V/T= 2.0043
 <Sx>= 0.0000 <Sy>= 0.0000 <Sz>= 1.0000 <S**2>= 2.0154 S= 1.0051
 <L.S>= 0.000000000000E+00
 KE= 1.530788321141D+02 PE=-5.237667230727D+02 EE= 1.265921882161D+02
 Annihilation of the first spin contaminant:
 S**2 before annihilation     2.0154,   after     2.0000
 Leave Link  502 at Tue Jul 19 18:15:16 2016, MaxMem=    33554432 cpu:       246.2
 (Enter /home/proyectos/fulerenos/M3C-v2.0/M3C-deps_CCC/g09-AM64L-G09RevC.01/l801.exe)
 DoSCS=F DFT=T ScalE2(SS,OS)=  1.000000  1.000000
 Range of M.O.s used for correlation:     1   196
 NBasis=   196 NAE=    14 NBE=    12 NFC=     0 NFV=     0
 NROrb=    196 NOA=    14 NOB=    12 NVA=   182 NVB=   184

 **** Warning!!: The largest alpha MO coefficient is  0.80503774D+02


 **** Warning!!: The largest beta MO coefficient is  0.84577088D+02

 Leave Link  801 at Tue Jul 19 18:15:17 2016, MaxMem=    33554432 cpu:         0.1
 (Enter /home/proyectos/fulerenos/M3C-v2.0/M3C-deps_CCC/g09-AM64L-G09RevC.01/l1101.exe)
 Using compressed storage, NAtomX=     8.
 Will process      9 centers per pass.
 Leave Link 1101 at Tue Jul 19 18:15:17 2016, MaxMem=    33554432 cpu:         0.7
 (Enter /home/proyectos/fulerenos/M3C-v2.0/M3C-deps_CCC/g09-AM64L-G09RevC.01/l1102.exe)
 Symmetrizing basis deriv contribution to polar:
 IMax=3 JMax=2 DiffMx= 0.00D+00
 Leave Link 1102 at Tue Jul 19 18:15:18 2016, MaxMem=    33554432 cpu:         0.2
 (Enter /home/proyectos/fulerenos/M3C-v2.0/M3C-deps_CCC/g09-AM64L-G09RevC.01/l1110.exe)
 Forming Gx(P) for the SCF density, NAtomX=     8.
 Integral derivatives from FoFJK, PRISM(SPDF).
 Do as many integral derivatives as possible in FoFJK.
 G2DrvN: MDV=      33554264.
 G2DrvN: will do     9 centers at a time, making    1 passes.
 Calling FoFCou, ICntrl=  3107 FMM=F I1Cent=   0 AccDes= 0.00D+00.
 FoFJK:  IHMeth= 1 ICntrl=    3107 DoSepK=F KAlg= 0 I1Cent=   0 FoldK=F
 IRaf=         0 NMat=   1 IRICut=       1 DoRegI=T DoRafI=F ISym2E= 1.
 FoFCou: FMM=F IPFlag=           0 FMFlag=      100000 FMFlg1=           0
         NFxFlg=           0 DoJE=F BraDBF=F KetDBF=F FulRan=T
         wScrn=  0.000000 ICntrl=    3107 IOpCl=  1 I1Cent=           0 NGrid=           0
         NMat0=    1 NMatS0=      1 NMatT0=    0 NMatD0=    1 NMtDS0=    0 NMtDT0=    0
 Petite list used in FoFCou.
 End of G2Drv F.D. properties file   721 does not exist.
 End of G2Drv F.D. properties file   722 does not exist.
 End of G2Drv F.D. properties file   788 does not exist.
 Leave Link 1110 at Tue Jul 19 18:18:22 2016, MaxMem=    33554432 cpu:       184.4
 (Enter /home/proyectos/fulerenos/M3C-v2.0/M3C-deps_CCC/g09-AM64L-G09RevC.01/l1002.exe)
 Minotr:  UHF open shell wavefunction.
          IDoAtm=11111111
          Direct CPHF calculation.
          Differentiating once with respect to electric field.
                with respect to dipole field.
          Differentiating once with respect to nuclear coordinates.
          Using symmetry in CPHF.
          Requested convergence is 1.0D-08 RMS, and 1.0D-07 maximum.
          Secondary convergence is 1.0D-12 RMS, and 1.0D-12 maximum.
          NewPWx=T KeepS1=F KeepF1=F KeepIn=T MapXYZ=F SortEE=F KeepMc=T.
          MDV=      33553956 using IRadAn=       2.
 Generate precomputed XC quadrature information.
          Solving linear equations simultaneously, MaxMat=       0.
 FoFJK:  IHMeth= 1 ICntrl=       0 DoSepK=F KAlg= 0 I1Cent=   0 FoldK=F
 IRaf= 990000000 NMat=  18 IRICut=      45 DoRegI=T DoRafI=T ISym2E= 2.
 FoFCou: FMM=F IPFlag=           0 FMFlag=      100000 FMFlg1=           0
         NFxFlg=           0 DoJE=F BraDBF=F KetDBF=F FulRan=T
         wScrn=  0.000000 ICntrl=       0 IOpCl=  1 I1Cent=           0 NGrid=           0
         NMat0=   18 NMatS0=     18 NMatT0=    0 NMatD0=   18 NMtDS0=    0 NMtDT0=    0
 Integrals replicated using symmetry in FoFCou.
          There are    18 degrees of freedom in the 1st order CPHF.  IDoFFX=4 NUNeed=    18.
     18 vectors produced by pass  0 Test12= 2.64D-14 5.56D-09 XBig12= 1.09D+02 6.53D+00.
 AX will form    18 AO Fock derivatives at one time.
     18 vectors produced by pass  1 Test12= 2.64D-14 5.56D-09 XBig12= 1.66D+01 8.44D-01.
     18 vectors produced by pass  2 Test12= 2.64D-14 5.56D-09 XBig12= 5.37D-01 2.88D-01.
     18 vectors produced by pass  3 Test12= 2.64D-14 5.56D-09 XBig12= 2.11D-02 7.13D-02.
     18 vectors produced by pass  4 Test12= 2.64D-14 5.56D-09 XBig12= 3.82D-04 4.46D-03.
     18 vectors produced by pass  5 Test12= 2.64D-14 5.56D-09 XBig12= 2.02D-06 2.83D-04.
     18 vectors produced by pass  6 Test12= 2.64D-14 5.56D-09 XBig12= 9.91D-09 1.81D-05.
      8 vectors produced by pass  7 Test12= 2.64D-14 5.56D-09 XBig12= 4.50D-11 1.21D-06.
      3 vectors produced by pass  8 Test12= 2.64D-14 5.56D-09 XBig12= 2.25D-13 5.76D-08.
      3 vectors produced by pass  9 Test12= 2.64D-14 5.56D-09 XBig12= 3.21D-14 2.70D-08.
 InvSVY:  IOpt=1 It=  1 EMax= 3.55D-15
 Solved reduced A of dimension   140 with    18 vectors.
 FullF1:  Do perturbations    1 to    18.
 Isotropic polarizability for W=    0.000000       36.05 Bohr**3.
 End of Minotr F.D. properties file   721 does not exist.
 End of Minotr F.D. properties file   722 does not exist.
 End of Minotr F.D. properties file   788 does not exist.
 Leave Link 1002 at Tue Jul 19 18:33:27 2016, MaxMem=    33554432 cpu:       904.0
 (Enter /home/proyectos/fulerenos/M3C-v2.0/M3C-deps_CCC/g09-AM64L-G09RevC.01/l601.exe)
 Copying SCF densities to generalized density rwf, IOpCl= 1 IROHF=0.

 **********************************************************************

            Population analysis using the SCF density.

 **********************************************************************

 Orbital symmetries:
 Alpha Orbitals:
       Occupied  (A1) (B2) (A1) (A1) (A1) (B2) (A1) (A1) (B2) (A1)
                 (B2) (A1) (B1) (B2)
       Virtual   (B1) (A2) (B1) (A1) (A1) (A1) (B2) (B2) (A1) (B1)
                 (A1) (B1) (B2) (A2) (B2) (A1) (A1) (A1) (B2) (B1)
                 (B2) (A2) (B1) (A1) (A1) (B2) (A1) (B2) (B2) (A1)
                 (A1) (A1) (A1) (B2) (A2) (B2) (A1) (B2) (A2) (B1)
                 (A1) (B1) (A1) (B2) (B1) (A1) (B2) (B1) (A2) (A1)
                 (B2) (A1) (B2) (A1) (B1) (A2) (A1) (B1) (B2) (A1)
                 (B2) (B2) (A1) (B2) (B1) (A2) (A1) (B1) (A1) (A2)
                 (B2) (B2) (A1) (B2) (A1) (A1) (A1) (B2) (B1) (A2)
                 (A1) (A1) (B2) (B2) (A2) (A1) (B2) (A2) (B1) (A1)
                 (A1) (B1) (B2) (B1) (A2) (B2) (B2) (A1) (A1) (A1)
                 (B2) (A1) (B1) (A2) (B2) (B1) (A1) (B2) (B1) (A1)
                 (B1) (A2) (B1) (B2) (A1) (B1) (B2) (A2) (A1) (A2)
                 (B2) (B1) (A1) (B2) (B2) (A1) (A1) (B2) (B1) (B2)
                 (A2) (A1) (A1) (B2) (A1) (B2) (A1) (A1) (B1) (A2)
                 (A1) (B2) (B1) (B2) (A2) (A1) (B1) (A2) (B1) (B2)
                 (B2) (A1) (A1) (B2) (A1) (B2) (A1) (B2) (A2) (A1)
                 (B1) (A2) (B1) (A2) (A1) (B2) (B1) (A1) (B2) (A1)
                 (B1) (A2) (A1) (B2) (A1) (B2) (A1) (B2) (A1) (A1)
                 (B2) (A1)
 Beta  Orbitals:
       Occupied  (A1) (B2) (A1) (A1) (A1) (B2) (A1) (A1) (B2) (A1)
                 (B2) (B1)
       Virtual   (A1) (A2) (B1) (B2) (B1) (A1) (A1) (A1) (B2) (B2)
                 (A1) (B1) (A1) (A2) (B1) (B2) (B2) (A1) (A1) (B2)
                 (B1) (A1) (B1) (B2) (A2) (A1) (A1) (B2) (A1) (B2)
                 (B2) (A1) (A1) (A1) (A1) (B2) (A2) (A1) (B2) (B2)
                 (B1) (A2) (A1) (B1) (B2) (B1) (A1) (A1) (B2) (B1)
                 (A2) (A1) (B2) (A1) (B2) (A1) (B1) (A2) (B1) (A1)
                 (B2) (A1) (B2) (B2) (A1) (B2) (B1) (A2) (A1) (B1)
                 (A1) (A2) (B2) (A1) (B2) (B2) (A1) (A1) (A1) (B2)
                 (A2) (B1) (A1) (A1) (B2) (B2) (A2) (A1) (B2) (A2)
                 (B1) (B1) (A1) (A1) (B2) (B1) (A2) (B2) (B2) (A1)
                 (A1) (A1) (B2) (A1) (B1) (A2) (B1) (B2) (A1) (B2)
                 (A1) (B1) (A2) (B1) (B1) (B2) (B1) (A1) (A2) (A1)
                 (A2) (B2) (B2) (B1) (A1) (B2) (B2) (A1) (B2) (A1)
                 (B1) (B2) (A2) (A1) (A1) (B2) (A1) (B2) (A1) (A1)
                 (B1) (A2) (A1) (B2) (B1) (A2) (B2) (A1) (B1) (A2)
                 (B1) (B2) (B2) (A1) (A1) (B2) (A1) (B2) (A1) (B2)
                 (A2) (A1) (A2) (B1) (A2) (B1) (A1) (B1) (B2) (A1)
                 (B2) (A1) (B1) (A2) (A1) (B2) (B2) (A1) (A1) (B2)
                 (A1) (A1) (B2) (A1)
 The electronic state is 3-B2.
 Alpha  occ. eigenvalues --  -10.82751 -10.75575 -10.75574 -10.74003  -1.35995
 Alpha  occ. eigenvalues --   -1.19886  -1.18510  -1.01734  -0.96858  -0.94355
 Alpha  occ. eigenvalues --   -0.89579  -0.86847  -0.85649  -0.75489
 Alpha virt. eigenvalues --   -0.63921  -0.62367  -0.43413  -0.34010  -0.31052
 Alpha virt. eigenvalues --   -0.29357  -0.29086  -0.27289  -0.26995  -0.25358
 Alpha virt. eigenvalues --   -0.24308  -0.20822  -0.20784  -0.20679  -0.19159
 Alpha virt. eigenvalues --   -0.18947  -0.16401  -0.15495  -0.14724  -0.14328
 Alpha virt. eigenvalues --   -0.13036  -0.12793  -0.12615  -0.11975  -0.11048
 Alpha virt. eigenvalues --   -0.10734  -0.08276  -0.07316  -0.05815  -0.05720
 Alpha virt. eigenvalues --   -0.02011   0.00159   0.02303   0.02869   0.03221
 Alpha virt. eigenvalues --    0.04688   0.04766   0.05941   0.07610   0.07930
 Alpha virt. eigenvalues --    0.08295   0.10629   0.12716   0.13068   0.14282
 Alpha virt. eigenvalues --    0.15420   0.15452   0.17751   0.19234   0.19882
 Alpha virt. eigenvalues --    0.21506   0.26228   0.28074   0.29907   0.30441
 Alpha virt. eigenvalues --    0.32123   0.32271   0.32816   0.34601   0.36190
 Alpha virt. eigenvalues --    0.40291   0.47033   0.51639   0.53773   0.55497
 Alpha virt. eigenvalues --    0.56100   0.57865   0.63260   0.69133   0.70506
 Alpha virt. eigenvalues --    0.71897   0.74830   0.74968   0.78187   0.82609
 Alpha virt. eigenvalues --    0.85849   0.88549   0.90890   0.95544   0.95964
 Alpha virt. eigenvalues --    0.97235   1.00614   1.01688   1.02315   1.09302
 Alpha virt. eigenvalues --    1.15501   1.16623   1.21208   1.21516   1.25134
 Alpha virt. eigenvalues --    1.29539   1.30134   1.37423   1.53778   1.56141
 Alpha virt. eigenvalues --    1.59485   1.60014   1.60984   1.69361   1.83648
 Alpha virt. eigenvalues --    1.87806   1.98118   2.11598   2.12805   2.17203
 Alpha virt. eigenvalues --    2.17690   2.20708   2.22983   2.24268   2.25069
 Alpha virt. eigenvalues --    2.33339   2.33743   2.35482   2.39107   2.41348
 Alpha virt. eigenvalues --    2.43175   2.44003   2.44354   2.46176   2.49529
 Alpha virt. eigenvalues --    2.55793   2.58373   2.59023   2.60102   2.72574
 Alpha virt. eigenvalues --    2.74147   2.89334   2.89885   2.93557   2.94706
 Alpha virt. eigenvalues --    2.97823   3.00467   3.06978   3.09451   3.20540
 Alpha virt. eigenvalues --    3.30293   3.37222   3.59499   3.64278   3.65030
 Alpha virt. eigenvalues --    3.70297   3.73373   3.77252   3.79556   3.79845
 Alpha virt. eigenvalues --    3.80285   3.89660   3.94288   4.00469   4.05754
 Alpha virt. eigenvalues --    4.18434   4.35807   4.44153   5.01482   5.05344
 Alpha virt. eigenvalues --    5.13364   5.18310   5.44796   6.37951   6.40258
 Alpha virt. eigenvalues --    6.51222   6.51637   6.55338   6.55940   6.65773
 Alpha virt. eigenvalues --    6.67955   6.73826   6.78753   6.78835   7.00394
 Alpha virt. eigenvalues --    7.05235   7.10115   7.24316   7.26094   7.33455
 Alpha virt. eigenvalues --    7.33494   7.79549   7.80006  23.34296  24.11196
 Alpha virt. eigenvalues --   24.16643  24.79992
  Beta  occ. eigenvalues --  -10.79068 -10.75512 -10.75511 -10.73750  -1.34245
  Beta  occ. eigenvalues --   -1.19548  -1.14023  -1.00470  -0.95739  -0.90998
  Beta  occ. eigenvalues --   -0.89437  -0.84962
  Beta virt. eigenvalues --   -0.66391  -0.62718  -0.59936  -0.54322  -0.42024
  Beta virt. eigenvalues --   -0.33798  -0.30501  -0.29198  -0.28621  -0.26949
  Beta virt. eigenvalues --   -0.26002  -0.25258  -0.23394  -0.20646  -0.20481
  Beta virt. eigenvalues --   -0.20013  -0.19085  -0.18318  -0.16136  -0.14326
  Beta virt. eigenvalues --   -0.14314  -0.14295  -0.12480  -0.12349  -0.12123
  Beta virt. eigenvalues --   -0.11083  -0.10566  -0.10427  -0.07337  -0.06261
  Beta virt. eigenvalues --   -0.05344  -0.05109  -0.01104   0.01047   0.02494
  Beta virt. eigenvalues --    0.03100   0.03817   0.05581   0.05694   0.06127
  Beta virt. eigenvalues --    0.08232   0.08337   0.09066   0.11705   0.14454
  Beta virt. eigenvalues --    0.14687   0.15458   0.16279   0.17348   0.19117
  Beta virt. eigenvalues --    0.19388   0.20409   0.21861   0.26653   0.29392
  Beta virt. eigenvalues --    0.30353   0.30509   0.32369   0.33014   0.33380
  Beta virt. eigenvalues --    0.34776   0.36938   0.42256   0.47127   0.52209
  Beta virt. eigenvalues --    0.54564   0.55521   0.56305   0.60227   0.63644
  Beta virt. eigenvalues --    0.69728   0.70554   0.72587   0.75101   0.75364
  Beta virt. eigenvalues --    0.78326   0.83735   0.86476   0.89537   0.91534
  Beta virt. eigenvalues --    0.96000   0.98085   0.98984   1.01572   1.02203
  Beta virt. eigenvalues --    1.02758   1.15627   1.18854   1.21988   1.22893
  Beta virt. eigenvalues --    1.23475   1.30120   1.30727   1.32839   1.39242
  Beta virt. eigenvalues --    1.56799   1.56891   1.59826   1.62041   1.63969
  Beta virt. eigenvalues --    1.71857   1.84783   1.91456   1.99465   2.12769
  Beta virt. eigenvalues --    2.15017   2.18945   2.19483   2.21291   2.24247
  Beta virt. eigenvalues --    2.25301   2.29758   2.34180   2.35794   2.36658
  Beta virt. eigenvalues --    2.44376   2.44958   2.46801   2.47264   2.48679
  Beta virt. eigenvalues --    2.49561   2.50520   2.58598   2.59655   2.60237
  Beta virt. eigenvalues --    2.62882   2.72738   2.75625   2.90092   2.91872
  Beta virt. eigenvalues --    2.94697   2.95185   3.00458   3.03433   3.07945
  Beta virt. eigenvalues --    3.10072   3.21385   3.33496   3.39049   3.61929
  Beta virt. eigenvalues --    3.65218   3.65285   3.70669   3.73869   3.78250
  Beta virt. eigenvalues --    3.79992   3.80417   3.80676   3.90653   3.94777
  Beta virt. eigenvalues --    4.01191   4.07128   4.19456   4.38783   4.44512
  Beta virt. eigenvalues --    5.02182   5.05772   5.14178   5.18800   5.45353
  Beta virt. eigenvalues --    6.47377   6.49827   6.52387   6.54120   6.56022
  Beta virt. eigenvalues --    6.56383   6.68303   6.75696   6.77801   6.78566
  Beta virt. eigenvalues --    6.81202   7.05909   7.07143   7.10076   7.26187
  Beta virt. eigenvalues --    7.26501   7.33880   7.34463   7.80621   7.81461
  Beta virt. eigenvalues --   23.35966  24.13611  24.16734  24.80542
          Condensed to atoms (all electrons):
               1          2          3          4          5          6
     1  C    7.372267  -0.656993  -0.059517  -0.088325  -0.924631  -0.656993
     2  C   -0.656993   7.335248   0.399278   0.456038  -0.473651  -0.764577
     3  H   -0.059517   0.399278   0.346801  -0.000017  -0.012392   0.032339
     4  H   -0.088325   0.456038  -0.000017   0.361305   0.016019  -0.026595
     5  C   -0.924631  -0.473651  -0.012392   0.016019   7.582385  -0.473651
     6  C   -0.656993  -0.764577   0.032339  -0.026595  -0.473651   7.335248
     7  H   -0.088325  -0.026595   0.000121  -0.004357   0.016019   0.456038
     8  H   -0.059517   0.032339   0.000276   0.000121  -0.012392   0.399278
               7          8
     1  C   -0.088325  -0.059517
     2  C   -0.026595   0.032339
     3  H    0.000121   0.000276
     4  H   -0.004357   0.000121
     5  C    0.016019  -0.012392
     6  C    0.456038   0.399278
     7  H    0.361305  -0.000017
     8  H   -0.000017   0.346801
          Atomic-Atomic Spin Densities.
               1          2          3          4          5          6
     1  C    1.012336  -0.263772  -0.002805  -0.023565  -0.407642  -0.263772
     2  C   -0.263772   0.594268  -0.005379   0.057491   0.095257  -0.388345
     3  H   -0.002805  -0.005379   0.000011  -0.000832   0.004530   0.006765
     4  H   -0.023565   0.057491  -0.000832   0.024283   0.003495  -0.038305
     5  C   -0.407642   0.095257   0.004530   0.003495   2.017631   0.095257
     6  C   -0.263772  -0.388345   0.006765  -0.038305   0.095257   0.594268
     7  H   -0.023565  -0.038305   0.000257  -0.003875   0.003495   0.057491
     8  H   -0.002805   0.006765   0.000040   0.000257   0.004530  -0.005379
               7          8
     1  C   -0.023565  -0.002805
     2  C   -0.038305   0.006765
     3  H    0.000257   0.000040
     4  H   -0.003875   0.000257
     5  C    0.003495   0.004530
     6  C    0.057491  -0.005379
     7  H    0.024283  -0.000832
     8  H   -0.000832   0.000011
 Mulliken charges and spin densities:
               1          2
     1  C    1.162034   0.024412
     2  C   -0.301087   0.057981
     3  H    0.293112   0.002588
     4  H    0.285811   0.018949
     5  C    0.282295   1.816553
     6  C   -0.301087   0.057981
     7  H    0.285811   0.018949
     8  H    0.293112   0.002588
 Sum of Mulliken charges =   2.00000   2.00000
 Mulliken charges and spin densities with hydrogens summed into heavy atoms:
               1          2
     1  C    1.162034   0.024412
     2  C    0.277835   0.079518
     5  C    0.282295   1.816553
     6  C    0.277835   0.079518
 APT charges:
               1
     1  C   -0.453583
     2  C    0.496707
     3  H    0.213355
     4  H    0.210056
     5  C    0.613347
     6  C    0.496707
     7  H    0.210056
     8  H    0.213355
 Sum of APT charges =   2.00000
 APT charges with hydrogens summed into heavy atoms:
               1
     1  C   -0.453583
     2  C    0.920118
     5  C    0.613347
     6  C    0.920118
 Electronic spatial extent (au):  <R**2>=            216.7390
 Charge=              2.0000 electrons
 Dipole moment (field-independent basis, Debye):
    X=              0.0000    Y=              0.0000    Z=             -0.6515  Tot=              0.6515
 Quadrupole moment (field-independent basis, Debye-Ang):
   XX=            -19.1719   YY=             -1.5362   ZZ=             -5.6711
   XY=              0.0000   XZ=             -0.0000   YZ=             -0.0000
 Traceless Quadrupole moment (field-independent basis, Debye-Ang):
   XX=            -10.3788   YY=              7.2569   ZZ=              3.1220
   XY=              0.0000   XZ=             -0.0000   YZ=             -0.0000
 Octapole moment (field-independent basis, Debye-Ang**2):
  XXX=             -0.0000  YYY=             -0.0000  ZZZ=             -0.4445  XYY=              0.0000
  XXY=              0.0000  XXZ=             -0.3093  XZZ=             -0.0000  YZZ=              0.0000
  YYZ=             -9.4125  XYZ=             -0.0000
 Hexadecapole moment (field-independent basis, Debye-Ang**3):
 XXXX=            -17.0762 YYYY=            -69.6975 ZZZZ=            -68.0577 XXXY=             -0.0000
 XXXZ=              0.0000 YYYX=              0.0000 YYYZ=              0.0000 ZZZX=              0.0000
 ZZZY=             -0.0000 XXYY=            -25.0622 XXZZ=            -19.9246 YYZZ=            -31.3169
 XXYZ=             -0.0000 YYXZ=              0.0000 ZZXY=             -0.0000
 N-N= 9.036507461295D+01 E-N=-5.237667226639D+02  KE= 1.530788321141D+02
 Symmetry A1   KE= 1.091522975970D+02
 Symmetry A2   KE= 7.160590722328D-20
 Symmetry B1   KE= 2.180688290794D+00
 Symmetry B2   KE= 4.174584622630D+01
  Exact polarizability:  21.145   0.000  44.113   0.000  -0.000  42.890
 Approx polarizability:  31.417   0.000  66.068  -0.000  -0.000  71.797
                          Isotropic Fermi Contact Couplings
        Atom                 a.u.       MegaHertz       Gauss      10(-4) cm-1
     1  C(13)              0.07539      42.37598      15.12080      14.13511
     2  C(13)              0.04530      25.46292       9.08580       8.49352
     3  H(1)               0.00085       1.89837       0.67739       0.63323
     4  H(1)               0.00915      20.45138       7.29756       6.82185
     5  C(13)              1.05000     590.20031     210.59814     196.86963
     6  C(13)              0.04530      25.46292       9.08580       8.49352
     7  H(1)               0.00915      20.45138       7.29756       6.82185
     8  H(1)               0.00085       1.89837       0.67739       0.63323
 --------------------------------------------------------
       Center         ----  Spin Dipole Couplings  ----
                      3XX-RR        3YY-RR        3ZZ-RR
 --------------------------------------------------------
     1   Atom       -0.215656     -0.138116      0.353773
     2   Atom       -0.086921      0.024714      0.062206
     3   Atom       -0.017493      0.015945      0.001548
     4   Atom       -0.009530     -0.003717      0.013247
     5   Atom       -1.148145      1.080347      0.067798
     6   Atom       -0.086921      0.024714      0.062206
     7   Atom       -0.009530     -0.003717      0.013247
     8   Atom       -0.017493      0.015945      0.001548
 --------------------------------------------------------
                        XY            XZ            YZ
 --------------------------------------------------------
     1   Atom        0.000000     -0.000000      0.000000
     2   Atom        0.000000      0.000000      0.067947
     3   Atom        0.000000     -0.000000      0.019898
     4   Atom        0.000000      0.000000      0.004233
     5   Atom        0.000000      0.000000      0.000000
     6   Atom        0.000000     -0.000000     -0.067947
     7   Atom        0.000000     -0.000000     -0.004233
     8   Atom        0.000000     -0.000000     -0.019898
 --------------------------------------------------------


 ---------------------------------------------------------------------------------
              Anisotropic Spin Dipole Couplings in Principal Axis System
 ---------------------------------------------------------------------------------

       Atom             a.u.   MegaHertz   Gauss  10(-4) cm-1        Axes

              Baa    -0.2157   -28.939   -10.326    -9.653  1.0000 -0.0000  0.0000
     1 C(13)  Bbb    -0.1381   -18.534    -6.613    -6.182  0.0000  1.0000  0.0000
              Bcc     0.3538    47.473    16.940    15.835  0.0000  0.0000  1.0000
 
              Baa    -0.0869   -11.664    -4.162    -3.891  1.0000 -0.0000  0.0000
     2 C(13)  Bbb    -0.0270    -3.627    -1.294    -1.210  0.0000  0.7956 -0.6058
              Bcc     0.1139    15.290     5.456     5.100  0.0000  0.6058  0.7956
 
              Baa    -0.0175    -9.334    -3.330    -3.113  1.0000  0.0000  0.0000
     3 H(1)   Bbb    -0.0124    -6.623    -2.363    -2.209  0.0000 -0.5744  0.8186
              Bcc     0.0299    15.957     5.694     5.323 -0.0000  0.8186  0.5744
 
              Baa    -0.0095    -5.085    -1.814    -1.696  1.0000 -0.0000  0.0000
     4 H(1)   Bbb    -0.0047    -2.515    -0.898    -0.839  0.0000  0.9733 -0.2294
              Bcc     0.0142     7.600     2.712     2.535  0.0000  0.2294  0.9733
 
              Baa    -1.1481  -154.070   -54.976   -51.392  1.0000 -0.0000 -0.0000
     5 C(13)  Bbb     0.0678     9.098     3.246     3.035  0.0000  0.0000  1.0000
              Bcc     1.0803   144.972    51.730    48.358  0.0000  1.0000 -0.0000
 
              Baa    -0.0869   -11.664    -4.162    -3.891  1.0000 -0.0000  0.0000
     6 C(13)  Bbb    -0.0270    -3.627    -1.294    -1.210  0.0000  0.7956  0.6058
              Bcc     0.1139    15.290     5.456     5.100 -0.0000 -0.6058  0.7956
 
              Baa    -0.0095    -5.085    -1.814    -1.696  1.0000 -0.0000  0.0000
     7 H(1)   Bbb    -0.0047    -2.515    -0.898    -0.839  0.0000  0.9733  0.2294
              Bcc     0.0142     7.600     2.712     2.535 -0.0000 -0.2294  0.9733
 
              Baa    -0.0175    -9.334    -3.330    -3.113  1.0000 -0.0000  0.0000
     8 H(1)   Bbb    -0.0124    -6.623    -2.363    -2.209  0.0000  0.5744  0.8186
              Bcc     0.0299    15.957     5.694     5.323  0.0000  0.8186 -0.5744
 

 ---------------------------------------------------------------------------------

 No NMR shielding tensors so no spin-rotation constants.
 Leave Link  601 at Tue Jul 19 18:33:28 2016, MaxMem=    33554432 cpu:         0.9
 (Enter /home/proyectos/fulerenos/M3C-v2.0/M3C-deps_CCC/g09-AM64L-G09RevC.01/l701.exe)
 Compute integral second derivatives.
 ... and contract with generalized density number  0.
 Leave Link  701 at Tue Jul 19 18:33:30 2016, MaxMem=    33554432 cpu:         1.2
 (Enter /home/proyectos/fulerenos/M3C-v2.0/M3C-deps_CCC/g09-AM64L-G09RevC.01/l702.exe)
 L702 exits ... SP integral derivatives will be done elsewhere.
 Leave Link  702 at Tue Jul 19 18:33:30 2016, MaxMem=    33554432 cpu:         0.1
 (Enter /home/proyectos/fulerenos/M3C-v2.0/M3C-deps_CCC/g09-AM64L-G09RevC.01/l703.exe)
 Compute integral second derivatives, UseDBF=F ICtDFT=           0.
 Integral derivatives from FoFJK, PRISM(SPDF).
 Calling FoFJK, ICntrl=    100127 FMM=F ISym2X=1 I1Cent= 0 IOpClX= 1 NMat=1 NMatS=1 NMatT=0.
 FoFJK:  IHMeth= 1 ICntrl=  100127 DoSepK=F KAlg= 0 I1Cent=   0 FoldK=F
 IRaf=         0 NMat=   1 IRICut=       1 DoRegI=T DoRafI=F ISym2E= 1.
 FoFCou: FMM=F IPFlag=           0 FMFlag=      100000 FMFlg1=         800
         NFxFlg=           0 DoJE=F BraDBF=F KetDBF=F FulRan=T
         wScrn=  0.000000 ICntrl=  100127 IOpCl=  1 I1Cent=           0 NGrid=           0
         NMat0=    1 NMatS0=      1 NMatT0=    0 NMatD0=    1 NMtDS0=    0 NMtDT0=    0
 Petite list used in FoFCou.
 Leave Link  703 at Tue Jul 19 18:40:58 2016, MaxMem=    33554432 cpu:       447.7
 (Enter /home/proyectos/fulerenos/M3C-v2.0/M3C-deps_CCC/g09-AM64L-G09RevC.01/l716.exe)
 Dipole        = 2.11098412D-16-1.51224519D-14-2.56323737D-01
 Polarizability= 2.11445379D+01 8.16758861D-09 4.41131176D+01
                 6.38291514D-09-1.16238032D-07 4.28899653D+01
 Full mass-weighted force constant matrix:
 Low frequencies ---   -0.0190   -0.0040   -0.0002    1.0559    2.4906   12.4375
 Low frequencies ---  325.4648  409.9301  411.7232
 Diagonal vibrational polarizability:
        4.6857037       6.0720079       3.0411464
 Harmonic frequencies (cm**-1), IR intensities (KM/Mole), Raman scattering
 activities (A**4/AMU), depolarization ratios for plane and unpolarized
 incident light, reduced masses (AMU), force constants (mDyne/A),
 and normal coordinates:
                      1                      2                      3
                     B1                     B1                     A1
 Frequencies --    325.4645               409.9299               411.7232
 Red. masses --      1.1058                 3.6493                 2.2206
 Frc consts  --      0.0690                 0.3613                 0.2218
 IR Inten    --      0.3990                27.0229                 0.0265
  Atom  AN      X      Y      Z        X      Y      Z        X      Y      Z
     1   6     0.05  -0.00   0.00     0.45   0.00   0.00    -0.00   0.00   0.14
     2   6     0.02  -0.00  -0.00    -0.09   0.00  -0.00     0.00   0.15  -0.10
     3   1     0.51  -0.00  -0.00    -0.57  -0.00  -0.00     0.00  -0.03  -0.42
     4   1    -0.49   0.00  -0.00    -0.24   0.00  -0.00    -0.00   0.50  -0.12
     5   6    -0.08   0.00   0.00    -0.14  -0.00   0.00     0.00  -0.00   0.16
     6   6     0.02  -0.00   0.00    -0.09  -0.00  -0.00     0.00  -0.15  -0.10
     7   1    -0.49  -0.00   0.00    -0.24  -0.00  -0.00     0.00  -0.50  -0.12
     8   1     0.51  -0.00   0.00    -0.57   0.00  -0.00    -0.00   0.03  -0.42
                      4                      5                      6
                     A2                     B2                     A1
 Frequencies --    432.3910               464.5099               939.0864
 Red. masses --      1.0094                 4.4365                 4.5509
 Frc consts  --      0.1112                 0.5640                 2.3646
 IR Inten    --      0.0000                 3.9431                 4.2021
  Atom  AN      X      Y      Z        X      Y      Z        X      Y      Z
     1   6    -0.00   0.00   0.00    -0.00  -0.18   0.00     0.00  -0.00   0.02
     2   6     0.01   0.00  -0.00    -0.00  -0.12  -0.20     0.00  -0.29  -0.14
     3   1    -0.40   0.00  -0.00    -0.00  -0.26  -0.44    -0.00  -0.40  -0.29
     4   1     0.58   0.00  -0.00     0.00   0.19  -0.21    -0.00  -0.26  -0.16
     5   6     0.00  -0.00   0.00     0.00   0.42   0.00    -0.00   0.00   0.34
     6   6    -0.01  -0.00  -0.00    -0.00  -0.12   0.20    -0.00   0.29  -0.14
     7   1    -0.58  -0.00  -0.00     0.00   0.19   0.21    -0.00   0.26  -0.16
     8   1     0.40   0.00  -0.00    -0.00  -0.26   0.44     0.00   0.40  -0.29
                      7                      8                      9
                     B2                     A1                     A2
 Frequencies --    962.3479              1009.4178              1170.1974
 Red. masses --      1.3086                 1.9056                 1.3179
 Frc consts  --      0.7140                 1.1440                 1.0633
 IR Inten    --     15.2176                41.5098                 0.0000
  Atom  AN      X      Y      Z        X      Y      Z        X      Y      Z
     1   6     0.00  -0.03  -0.00     0.00  -0.00  -0.10     0.00   0.00   0.00
     2   6    -0.00  -0.00   0.11     0.00   0.10  -0.07    -0.12  -0.00  -0.00
     3   1     0.00  -0.26  -0.33    -0.00   0.38   0.37     0.56   0.00   0.00
     4   1     0.00   0.55   0.10    -0.00  -0.41  -0.06     0.41  -0.00  -0.00
     5   6    -0.00  -0.02   0.00    -0.00  -0.00   0.20     0.00   0.00   0.00
     6   6    -0.00  -0.00  -0.11    -0.00  -0.10  -0.07     0.12   0.00  -0.00
     7   1     0.00   0.55  -0.10     0.00   0.41  -0.06    -0.41   0.00  -0.00
     8   1     0.00  -0.26   0.33     0.00  -0.38   0.37    -0.56  -0.00   0.00
                     10                     11                     12
                     B1                     A1                     B2
 Frequencies --   1196.8835              1236.1206              1331.2162
 Red. masses --      1.4522                 3.7697                 3.3760
 Frc consts  --      1.2257                 3.3938                 3.5249
 IR Inten    --     13.6678                70.9363               306.7587
  Atom  AN      X      Y      Z        X      Y      Z        X      Y      Z
     1   6     0.09  -0.00  -0.00     0.00   0.00   0.43     0.00   0.42  -0.00
     2   6    -0.13   0.00  -0.00     0.00  -0.01  -0.13    -0.00  -0.14  -0.03
     3   1     0.47   0.00   0.00    -0.00   0.17   0.19     0.00  -0.40  -0.41
     4   1     0.50  -0.00   0.00    -0.00  -0.54  -0.13     0.00  -0.25  -0.05
     5   6    -0.01   0.00   0.00    -0.00   0.00  -0.17     0.00  -0.03   0.00
     6   6    -0.13   0.00   0.00    -0.00   0.01  -0.13    -0.00  -0.14   0.03
     7   1     0.50  -0.00   0.00     0.00   0.54  -0.13     0.00  -0.25   0.05
     8   1     0.47   0.00  -0.00     0.00  -0.17   0.19     0.00  -0.40   0.41
                     13                     14                     15
                     B2                     A1                     B2
 Frequencies --   1476.4872              1491.9501              3050.7639
 Red. masses --      1.3218                 1.1713                 1.0586
 Frc consts  --      1.6977                 1.5361                 5.8048
 IR Inten    --      0.7082                 2.8898               114.6197
  Atom  AN      X      Y      Z        X      Y      Z        X      Y      Z
     1   6     0.00   0.08   0.00    -0.00  -0.00   0.02     0.00   0.01  -0.00
     2   6    -0.00  -0.09  -0.04     0.00  -0.07  -0.04    -0.00  -0.04  -0.03
     3   1     0.00   0.18   0.44    -0.00   0.22   0.46     0.00   0.38  -0.23
     4   1     0.00   0.50  -0.07    -0.00   0.48  -0.07     0.00   0.02   0.55
     5   6     0.00  -0.01   0.00     0.00   0.00   0.00    -0.00   0.00   0.00
     6   6    -0.00  -0.09   0.04    -0.00   0.07  -0.04    -0.00  -0.04   0.03
     7   1     0.00   0.50   0.07     0.00  -0.48  -0.07     0.00   0.02  -0.55
     8   1     0.00   0.18  -0.44     0.00  -0.22   0.46     0.00   0.38   0.23
                     16                     17                     18
                     A1                     B2                     A1
 Frequencies --   3055.5421              3163.5532              3166.5386
 Red. masses --      1.0561                 1.1237                 1.1265
 Frc consts  --      5.8092                 6.6258                 6.6548
 IR Inten    --     55.1614                51.8790               137.5246
  Atom  AN      X      Y      Z        X      Y      Z        X      Y      Z
     1   6    -0.00   0.00   0.00    -0.00   0.00   0.00     0.00  -0.00  -0.00
     2   6     0.00  -0.04  -0.03     0.00  -0.04   0.06    -0.00  -0.04   0.06
     3   1    -0.00   0.39  -0.23     0.00   0.48  -0.28     0.00   0.47  -0.28
     4   1    -0.00   0.02   0.54    -0.00  -0.01  -0.43     0.00  -0.01  -0.44
     5   6     0.00  -0.00   0.00    -0.00  -0.00   0.00    -0.00   0.00  -0.00
     6   6    -0.00   0.04  -0.03     0.00  -0.04  -0.06     0.00   0.04   0.06
     7   1     0.00  -0.02   0.54    -0.00  -0.01   0.43    -0.00   0.01  -0.44
     8   1     0.00  -0.39  -0.23     0.00   0.48   0.28    -0.00  -0.47  -0.28

 -------------------
 - Thermochemistry -
 -------------------
 Temperature   298.150 Kelvin.  Pressure   1.00000 Atm.
 Atom     1 has atomic number  6 and mass  12.00000
 Atom     2 has atomic number  6 and mass  12.00000
 Atom     3 has atomic number  1 and mass   1.00783
 Atom     4 has atomic number  1 and mass   1.00783
 Atom     5 has atomic number  6 and mass  12.00000
 Atom     6 has atomic number  6 and mass  12.00000
 Atom     7 has atomic number  1 and mass   1.00783
 Atom     8 has atomic number  1 and mass   1.00783
 Molecular mass:    52.03130 amu.
 Principal axes and moments of inertia in atomic units:
                           1         2         3
     Eigenvalues --   146.72670 181.41020 328.13690
           X            0.00000   0.00000   1.00000
           Y            1.00000   0.00000  -0.00000
           Z           -0.00000   1.00000   0.00000
 This molecule is an asymmetric top.
 Rotational symmetry number  2.
 Rotational temperatures (Kelvin)      0.59031     0.47745     0.26396
 Rotational constants (GHZ):          12.30002     9.94840     5.49996
 Zero-point vibrational energy     151292.5 (Joules/Mol)
                                   36.15976 (Kcal/Mol)
 Warning -- explicit consideration of   5 degrees of freedom as
           vibrations may cause significant error
 Vibrational temperatures:    468.27   589.80   592.38   622.11   668.33
          (Kelvin)           1351.13  1384.60  1452.33  1683.65  1722.05
                             1778.50  1915.32  2124.33  2146.58  4389.36
                             4396.24  4551.64  4555.94
 
 Zero-point correction=                           0.057624 (Hartree/Particle)
 Thermal correction to Energy=                    0.062170
 Thermal correction to Enthalpy=                  0.063114
 Thermal correction to Gibbs Free Energy=         0.031050
 Sum of electronic and zero-point Energies=           -153.673004
 Sum of electronic and thermal Energies=              -153.668458
 Sum of electronic and thermal Enthalpies=            -153.667514
 Sum of electronic and thermal Free Energies=         -153.699578
 
                     E (Thermal)             CV                S
                      KCal/Mol        Cal/Mol-Kelvin    Cal/Mol-Kelvin
 Total                   39.012             15.351             67.486
 Electronic               0.000              0.000              2.183
 Translational            0.889              2.981             37.771
 Rotational               0.889              2.981             22.306
 Vibrational             37.235              9.389              5.226
 Vibration     1          0.710              1.625              1.283
 Vibration     2          0.774              1.449              0.927
 Vibration     3          0.776              1.445              0.921
 Vibration     4          0.793              1.400              0.851
 Vibration     5          0.822              1.329              0.753
                       Q            Log10(Q)             Ln(Q)
 Total Bot       0.522464D-14        -14.281943        -32.885390
 Total V=0       0.167231D+13         12.223316         28.145226
 Vib (Bot)       0.705755D-26        -26.151346        -60.215700
 Vib (Bot)    1  0.575684D+00         -0.239816         -0.552196
 Vib (Bot)    2  0.431614D+00         -0.364904         -0.840223
 Vib (Bot)    3  0.429157D+00         -0.367384         -0.845933
 Vib (Bot)    4  0.402213D+00         -0.395544         -0.910773
 Vib (Bot)    5  0.364798D+00         -0.437948         -1.008412
 Vib (V=0)       0.225899D+01          0.353914          0.814916
 Vib (V=0)    1  0.126250D+01          0.101233          0.233097
 Vib (V=0)    2  0.116052D+01          0.064654          0.148871
 Vib (V=0)    3  0.115892D+01          0.064053          0.147489
 Vib (V=0)    4  0.114170D+01          0.057551          0.132516
 Vib (V=0)    5  0.111893D+01          0.048804          0.112375
 Electronic      0.300000D+01          0.477121          1.098612
 Translational   0.147520D+08          7.168852         16.506892
 Rotational      0.167274D+05          4.223429          9.724806
 
                                                              b3lyp opt
                                                             IR Spectrum
 
     33  33                                                             11     1   11 1     1                                        
     11  00                                                             44     3   21 1     0 99                 4444  3             
     66  55                                                             97     3   39 7     0 63                 6311  2             
     74  61                                                             26     1   67 0     9 29                 5220  5             
 
     XX  XX                                                             XX     X   XX       X XX                 X  X  X             
     XX  XX                                                                    X   X        X                       X                
     XX  XX                                                                    X   X        X                                        
     X   XX                                                                    X   X                                                 
     X    X                                                                    X   X                                                 
     X    X                                                                    X                                                     
     X    X                                                                    X                                                     
     X                                                                         X                                                     
     X                                                                         X                                                     
                                                                               X                                                     
                                                                               X                                                     
                                                                               X                                                     
                                                                               X                                                     
                                                                               X                                                     
                                                                               X                                                     
                                                                               X                                                     
                                                                               X                                                     
                                                                               X                                                     
                                                                               X                                                     
                                                                               X                                                     
 
 ***** Axes restored to original set *****
 -------------------------------------------------------------------
 Center     Atomic                   Forces (Hartrees/Bohr)
 Number     Number              X              Y              Z
 -------------------------------------------------------------------
      1        6          -0.000000031    0.000034979   -0.000000000
      2        6           0.000070937   -0.000014333    0.000000000
      3        1          -0.000032876    0.000002713   -0.000000000
      4        1           0.000007184   -0.000005831   -0.000000000
      5        6          -0.000000000    0.000000001   -0.000000000
      6        6          -0.000070912   -0.000014458    0.000000000
      7        1          -0.000007173   -0.000005843   -0.000000000
      8        1           0.000032871    0.000002771    0.000000000
 -------------------------------------------------------------------
 Cartesian Forces:  Max     0.000070937 RMS     0.000024192
 Z-matrix is all fixed cartesians, so copy forces.
 Force constants in Cartesian coordinates: 
                1             2             3             4             5 
      1  0.571166D+00
      2  0.104959D-03  0.452168D+00
      3  0.000000D+00  0.000000D+00  0.996506D-01
      4 -0.249090D+00  0.578660D-01  0.000000D+00  0.614103D+00
      5  0.722829D-01 -0.126667D+00  0.000000D+00  0.258786D-01  0.624851D+00
      6  0.000000D+00  0.000000D+00 -0.729473D-01  0.000000D+00  0.000000D+00
      7 -0.958611D-02 -0.938466D-02  0.000000D+00 -0.260964D+00 -0.120251D+00
      8  0.189034D-01  0.966996D-02  0.000000D+00 -0.129413D+00 -0.134372D+00
      9  0.000000D+00  0.000000D+00  0.156379D-01  0.000000D+00  0.000000D+00
     10  0.913767D-03  0.222820D-01  0.000000D+00 -0.592242D-01  0.348321D-02
     11 -0.410066D-02 -0.461364D-02  0.000000D+00  0.983443D-02 -0.329860D+00
     12  0.000000D+00  0.000000D+00  0.181076D-01  0.000000D+00  0.000000D+00
     13 -0.559194D-01  0.134721D-03  0.000000D+00  0.422868D-02  0.281553D-01
     14  0.134720D-03 -0.208667D+00  0.000000D+00  0.314091D-01 -0.530311D-01
     15  0.000000D+00  0.000000D+00 -0.212470D-01  0.000000D+00  0.000000D+00
     16 -0.248860D+00 -0.580815D-01  0.000000D+00 -0.474907D-01 -0.818148D-02
     17 -0.724984D-01 -0.126897D+00  0.000000D+00  0.806219D-02  0.201368D-01
     18  0.000000D+00  0.000000D+00 -0.729473D-01  0.000000D+00  0.000000D+00
     19  0.945824D-03 -0.222722D-01  0.000000D+00  0.228592D-02 -0.637988D-03
     20  0.411046D-02 -0.464569D-02  0.000000D+00 -0.574015D-03  0.202057D-02
     21  0.000000D+00  0.000000D+00  0.181076D-01  0.000000D+00  0.000000D+00
     22 -0.956926D-02  0.935073D-02  0.000000D+00 -0.384830D-02 -0.729048D-03
     23 -0.189374D-01  0.965311D-02  0.000000D+00 -0.306339D-02 -0.307790D-02
     24  0.000000D+00  0.000000D+00  0.156379D-01  0.000000D+00  0.000000D+00
                6             7             8             9            10 
      6  0.166923D+00
      7  0.000000D+00  0.265760D+00
      8  0.000000D+00  0.127436D+00  0.128907D+00
      9 -0.575949D-01  0.000000D+00  0.000000D+00  0.238729D-01
     10  0.000000D+00  0.810582D-02 -0.219661D-01  0.000000D+00  0.520042D-01
     11  0.000000D+00  0.273462D-02 -0.510327D-02  0.000000D+00 -0.987723D-02
     12 -0.513156D-01  0.000000D+00  0.000000D+00  0.159829D-01  0.000000D+00
     13  0.000000D+00  0.983414D-03  0.135338D-02  0.000000D+00 -0.303867D-02
     14  0.000000D+00 -0.490544D-03  0.311701D-02  0.000000D+00  0.568531D-02
     15  0.702589D-02  0.000000D+00  0.000000D+00 -0.153027D-02  0.000000D+00
     16  0.000000D+00 -0.385499D-02  0.306202D-02  0.000000D+00  0.228378D-02
     17  0.000000D+00  0.727678D-03 -0.307121D-02  0.000000D+00  0.638452D-03
     18  0.709987D-02  0.000000D+00  0.000000D+00  0.657544D-02  0.000000D+00
     19  0.000000D+00 -0.363733D-04  0.114161D-03  0.000000D+00 -0.100801D-02
     20  0.000000D+00 -0.260075D-03 -0.125939D-04  0.000000D+00 -0.131414D-03
     21 -0.576681D-02  0.000000D+00  0.000000D+00  0.831553D-03  0.000000D+00
     22  0.000000D+00 -0.408365D-03  0.509645D-03  0.000000D+00 -0.366307D-04
     23  0.000000D+00 -0.511893D-03  0.865959D-03  0.000000D+00 -0.114203D-03
     24  0.657544D-02  0.000000D+00  0.000000D+00 -0.377546D-02  0.000000D+00
               11            12            13            14            15 
     11  0.336948D+00
     12  0.000000D+00  0.197905D-01
     13  0.446526D-03  0.000000D+00  0.514553D-01
     14 -0.424220D-03  0.000000D+00 -0.227561D-03  0.309461D+00
     15  0.000000D+00  0.871735D-03  0.000000D+00  0.000000D+00  0.851220D-02
     16  0.574479D-03  0.000000D+00  0.433357D-02 -0.313079D-01  0.000000D+00
     17  0.202271D-02  0.000000D+00 -0.280542D-01 -0.531360D-01  0.000000D+00
     18  0.000000D+00 -0.576681D-02  0.000000D+00  0.000000D+00  0.702589D-02
     19  0.127797D-03  0.000000D+00 -0.302784D-02 -0.568990D-02  0.000000D+00
     20  0.104214D-02  0.000000D+00 -0.451118D-03 -0.435044D-03  0.000000D+00
     21  0.000000D+00  0.149813D-02  0.000000D+00  0.000000D+00  0.871734D-03
     22  0.260033D-03  0.000000D+00  0.984942D-03  0.486783D-03  0.000000D+00
     23 -0.123366D-04  0.000000D+00 -0.135714D-02  0.311548D-02  0.000000D+00
     24  0.000000D+00  0.831553D-03  0.000000D+00  0.000000D+00 -0.153027D-02
               16            17            18            19            20 
     16  0.614194D+00
     17 -0.258974D-01  0.624760D+00
     18  0.000000D+00  0.000000D+00  0.166923D+00
     19 -0.592016D-01 -0.300577D-02  0.000000D+00  0.519702D-01
     20 -0.935699D-02 -0.329882D+00  0.000000D+00  0.937453D-02  0.336982D+00
     21  0.000000D+00  0.000000D+00 -0.513156D-01  0.000000D+00  0.000000D+00
     22 -0.261404D+00  0.120027D+00  0.000000D+00  0.807186D-02 -0.271138D-02
     23  0.129189D+00 -0.133932D+00  0.000000D+00  0.219894D-01 -0.506931D-02
     24  0.000000D+00  0.000000D+00 -0.575949D-01  0.000000D+00  0.000000D+00
               21            22            23            24 
     21  0.197905D-01
     22  0.000000D+00  0.266210D+00
     23  0.000000D+00 -0.127194D+00  0.128457D+00
     24  0.159829D-01  0.000000D+00  0.000000D+00  0.238729D-01
 Leave Link  716 at Tue Jul 19 18:40:58 2016, MaxMem=    33554432 cpu:         0.2
 (Enter /home/proyectos/fulerenos/M3C-v2.0/M3C-deps_CCC/g09-AM64L-G09RevC.01/l103.exe)

 GradGradGradGradGradGradGradGradGradGradGradGradGradGradGradGradGradGrad
 Berny optimization.
 Search for a local minimum.
 Step number   1 out of a maximum of    2
 All quantities printed in internal units (Hartrees-Bohrs-Radians)
 Second derivative matrix not updated -- analytic derivatives used.
 ITU=  0
     Eigenvalues ---    0.00539   0.00716   0.01373   0.03651   0.03921
     Eigenvalues ---    0.07105   0.07404   0.13955   0.14304   0.16552
     Eigenvalues ---    0.25154   0.26005   0.39929   0.57305   0.81109
     Eigenvalues ---    0.81696   0.91714   0.97764
 Angle between quadratic step and forces=  72.58 degrees.
 ClnCor:  largest displacement from symmetrization is 1.15D-11 for atom     8.
 Linear search not attempted -- first point.
 ClnCor:  largest displacement from symmetrization is 9.16D-16 for atom     6.
 B after Tr=     0.000000   -0.000108    0.000000
         Rot=    1.000000   -0.000000   -0.000000   -0.000000 Ang=   0.00 deg.
 Variable       Old X    -DE/DX   Delta X   Delta X   Delta X     New X
                                 (Linear)    (Quad)   (Total)
    X1       -0.00018  -0.00000   0.00000   0.00000   0.00000  -0.00018
    Y1        0.22323   0.00003   0.00000  -0.00028  -0.00038   0.22284
    Z1       -0.00000  -0.00000   0.00000   0.00000   0.00000   0.00000
    X2        2.36826   0.00007   0.00000   0.00029   0.00029   2.36855
    Y2       -1.04237  -0.00001   0.00000  -0.00001  -0.00012  -1.04249
    Z2        0.00000   0.00000   0.00000   0.00000  -0.00000   0.00000
    X3        4.15036  -0.00003   0.00000  -0.00023  -0.00023   4.15013
    Y3        0.00053   0.00000   0.00000   0.00073   0.00062   0.00115
    Z3        0.00000  -0.00000   0.00000  -0.00000  -0.00000   0.00000
    X4        2.46180   0.00001   0.00000   0.00096   0.00096   2.46276
    Y4       -3.10861  -0.00001   0.00000   0.00000  -0.00011  -3.10871
    Z4        0.00000  -0.00000   0.00000   0.00000  -0.00000   0.00000
    X5       -0.00255  -0.00000   0.00000   0.00000   0.00000  -0.00254
    Y5        2.90367   0.00000   0.00000  -0.00030  -0.00041   2.90326
    Z5       -0.00000  -0.00000   0.00000   0.00000   0.00000   0.00000
    X6       -2.36639  -0.00007   0.00000  -0.00029  -0.00029  -2.36668
    Y6       -1.04655  -0.00001   0.00000  -0.00001  -0.00012  -1.04667
    Z6       -0.00000   0.00000   0.00000  -0.00000   0.00000  -0.00000
    X7       -2.45628  -0.00001   0.00000  -0.00096  -0.00096  -2.45724
    Y7       -3.11295  -0.00001   0.00000   0.00000  -0.00011  -3.11305
    Z7       -0.00000  -0.00000   0.00000  -0.00000   0.00000  -0.00000
    X8       -4.15032   0.00003   0.00000   0.00023   0.00023  -4.15009
    Y8       -0.00679   0.00000   0.00000   0.00073   0.00062  -0.00618
    Z8       -0.00000   0.00000   0.00000   0.00000   0.00000  -0.00000
         Item               Value     Threshold  Converged?
 Maximum Force            0.000071     0.000450     YES
 RMS     Force            0.000024     0.000300     YES
 Maximum Displacement     0.000959     0.001800     YES
 RMS     Displacement     0.000367     0.001200     YES
 Predicted change in Energy=-3.239658D-08
 Optimization completed.
    -- Stationary point found.
 GradGradGradGradGradGradGradGradGradGradGradGradGradGradGradGradGradGrad

 Leave Link  103 at Tue Jul 19 18:40:58 2016, MaxMem=    33554432 cpu:         0.1
 (Enter /home/proyectos/fulerenos/M3C-v2.0/M3C-deps_CCC/g09-AM64L-G09RevC.01/l9999.exe)
 1\1\GINC-EINSTENIO\Freq\UB3LYP\6-311++G(3df,2p)\C4H4(2+,3)\ROOT\19-Jul
 -2016\0\\#p b3lyp/6-311++G(3df,2p) freq symmetry=Loose\\b3lyp opt\\2,3
 \C,-0.0000957321,0.118126916,0.\C,1.253230254,-0.55160094,0.\H,2.19627
 6504,0.000279067,0.\H,1.302726652,-1.645005017,0.\C,-0.0013467921,1.53
 6554765,0.\C,-1.2522383628,-0.5538107751,0.\H,-1.2998059102,-1.6473004
 63,0.\H,-2.1962566664,-0.003595168,0.\\Version=EM64L-G09RevE.01\State=
 3-B2\HF=-153.7306281\S2=2.015383\S2-1=0.\S2A=2.000034\RMSD=2.708e-09\R
 MSF=2.419e-05\ZeroPoint=0.0576243\Thermal=0.0621703\Dipole=0.0002261,-
 0.2563236,0.\DipoleDeriv=-1.0251341,-0.0005344,0.,-0.0005344,-0.419243
 6,0.,0.,0.,0.08363,0.8110023,-0.3431488,0.,-0.3297756,0.2306307,0.,0.,
 0.,0.448487,0.3686431,0.0200925,0.,0.052652,0.1452327,0.,0.,0.,0.12618
 92,0.1658416,-0.0571502,0.,-0.1213224,0.3342668,0.,0.,0.,0.1300602,0.3
 355357,-0.000584,0.,-0.000584,0.9976075,0.,0.,0.,0.5068971,0.8098134,0
 .3441705,0.,0.3307973,0.2318196,0.,0.,0.,0.4484871,0.1655273,0.0568525
 ,0.,0.1210247,0.3345811,0.,0.,0.,0.1300602,0.3687708,-0.0196981,0.,-0.
 0522577,0.1451051,0.,0.,0.,0.1261892\Polar=44.1131167,0.0010789,42.889
 9663,0.,0.,21.1445379\PG=C02V [C2(C1C1),SGV(C2H4)]\NImag=0\\0.57116589
 ,0.00010496,0.45216784,0.,0.,0.09965055,-0.24909034,0.05786596,0.,0.61
 410283,0.07228285,-0.12666747,0.,0.02587855,0.62485133,0.,0.,-0.072947
 26,0.,0.,0.16692338,-0.00958611,-0.00938466,0.,-0.26096382,-0.12025144
 ,0.,0.26576042,0.01890343,0.00966996,0.,-0.12941285,-0.13437244,0.,0.1
 2743632,0.12890659,0.,0.,0.01563789,0.,0.,-0.05759491,0.,0.,0.02387286
 ,0.00091377,0.02228199,0.,-0.05922424,0.00348321,0.,0.00810582,-0.0219
 6611,0.,0.05200418,-0.00410066,-0.00461364,0.,0.00983443,-0.32985979,0
 .,0.00273462,-0.00510327,0.,-0.00987723,0.33694840,0.,0.,0.01810756,0.
 ,0.,-0.05131557,0.,0.,0.01598290,0.,0.,0.01979050,-0.05591940,0.000134
 72,0.,0.00422868,0.02815534,0.,0.00098341,0.00135338,0.,-0.00303867,0.
 00044653,0.,0.05145530,0.00013472,-0.20866667,0.,0.03140913,-0.0530311
 0,0.,-0.00049054,0.00311701,0.,0.00568531,-0.00042422,0.,-0.00022756,0
 .30946053,0.,0.,-0.02124696,0.,0.,0.00702589,0.,0.,-0.00153027,0.,0.,0
 .00087173,0.,0.,0.00851220,-0.24886037,-0.05808151,0.,-0.04749072,-0.0
 0818148,0.,-0.00385499,0.00306202,0.,0.00228378,0.00057448,0.,0.004333
 57,-0.03130794,0.,0.61419416,-0.07249840,-0.12689743,0.,0.00806219,0.0
 2013680,0.,0.00072768,-0.00307121,0.,0.00063845,0.00202271,0.,-0.02805
 415,-0.05313599,0.,-0.02589735,0.62476000,0.,0.,-0.07294726,0.,0.,0.00
 709987,0.,0.,0.00657544,0.,0.,-0.00576681,0.,0.,0.00702589,0.,0.,0.166
 92338,0.00094582,-0.02227218,0.,0.00228592,-0.00063799,0.,-0.00003637,
 0.00011416,0.,-0.00100801,0.00012780,0.,-0.00302784,-0.00568990,0.,-0.
 05920159,-0.00300577,0.,0.05197022,0.00411046,-0.00464569,0.,-0.000574
 01,0.00202057,0.,-0.00026008,-0.00001259,0.,-0.00013141,0.00104214,0.,
 -0.00045112,-0.00043504,0.,-0.00935699,-0.32988244,0.,0.00937453,0.336
 98236,0.,0.,0.01810756,0.,0.,-0.00576681,0.,0.,0.00083155,0.,0.,0.0014
 9813,0.,0.,0.00087173,0.,0.,-0.05131557,0.,0.,0.01979050,-0.00956926,0
 .00935073,0.,-0.00384830,-0.00072905,0.,-0.00040837,0.00050965,0.,-0.0
 0003663,0.00026003,0.,0.00098494,0.00048678,0.,-0.26140383,0.12002736,
 0.,0.00807186,-0.00271138,0.,0.26620959,-0.01893737,0.00965311,0.,-0.0
 0306339,-0.00307790,0.,-0.00051189,0.00086596,0.,-0.00011420,-0.000012
 34,0.,-0.00135714,0.00311548,0.,0.12918876,-0.13393242,0.,0.02198935,-
 0.00506931,0.,-0.12719412,0.12845742,0.,0.,0.01563789,0.,0.,0.00657544
 ,0.,0.,-0.00377546,0.,0.,0.00083155,0.,0.,-0.00153027,0.,0.,-0.0575949
 1,0.,0.,0.01598290,0.,0.,0.02387286\\0.00000003,-0.00003498,0.,-0.0000
 7094,0.00001433,0.,0.00003288,-0.00000271,0.,-0.00000718,0.00000583,0.
 ,0.,0.,0.,0.00007091,0.00001446,0.,0.00000717,0.00000584,0.,-0.0000328
 7,-0.00000277,0.\\\@


 CONTRAIWISE...CONTINUED TWEEDLEDEE, IF IT WAS SO, IT MIGHT BE,
 AND IF IT WERE SO, IT WOULD BE.....
 BUT AS IT ISN'T, IT AIN'T....
 THAT'S LOGIC.....
 ALICE THROUGH THE LOOKING GLASS
 Job cpu time:       0 days  0 hours 29 minutes 51.0 seconds.
 File lengths (MBytes):  RWF=     43 Int=      0 D2E=      0 Chk=      4 Scr=      1
 Normal termination of Gaussian 09 at Tue Jul 19 18:40:59 2016.
