 Entering Gaussian System, Link 0=/home/proyectos/fulerenos/M3C-v1.9/M3C-deps_CCC/g09-AM64L-G09RevC.01/g09
 Initial command:
 /home/proyectos/fulerenos/M3C-v1.9/M3C-deps_CCC/g09-AM64L-G09RevC.01/l1.exe "/scratch/naguirre/gaussian/Gau-2223.inp" -scrdir="/scratch/naguirre/gaussian/"
 Entering Link 1 = /home/proyectos/fulerenos/M3C-v1.9/M3C-deps_CCC/g09-AM64L-G09RevC.01/l1.exe PID=      2229.
  
 Copyright (c) 1988,1990,1992,1993,1995,1998,2003,2009,2015,
            Gaussian, Inc.  All Rights Reserved.
  
 This is part of the Gaussian(R) 09 program.  It is based on
 the Gaussian(R) 03 system (copyright 2003, Gaussian, Inc.),
 the Gaussian(R) 98 system (copyright 1998, Gaussian, Inc.),
 the Gaussian(R) 94 system (copyright 1995, Gaussian, Inc.),
 the Gaussian 92(TM) system (copyright 1992, Gaussian, Inc.),
 the Gaussian 90(TM) system (copyright 1990, Gaussian, Inc.),
 the Gaussian 88(TM) system (copyright 1988, Gaussian, Inc.),
 the Gaussian 86(TM) system (copyright 1986, Carnegie Mellon
 University), and the Gaussian 82(TM) system (copyright 1983,
 Carnegie Mellon University). Gaussian is a federally registered
 trademark of Gaussian, Inc.
  
 This software contains proprietary and confidential information,
 including trade secrets, belonging to Gaussian, Inc.
  
 This software is provided under written license and may be
 used, copied, transmitted, or stored only in accord with that
 written license.
  
 The following legend is applicable only to US Government
 contracts under FAR:
  
                    RESTRICTED RIGHTS LEGEND
  
 Use, reproduction and disclosure by the US Government is
 subject to restrictions as set forth in subparagraphs (a)
 and (c) of the Commercial Computer Software - Restricted
 Rights clause in FAR 52.227-19.
  
 Gaussian, Inc.
 340 Quinnipiac St., Bldg. 40, Wallingford CT 06492
  
  
 ---------------------------------------------------------------
 Warning -- This program may not be used in any manner that
 competes with the business of Gaussian, Inc. or will provide
 assistance to any competitor of Gaussian, Inc.  The licensee
 of this program is prohibited from giving any competitor of
 Gaussian, Inc. access to this program.  By using this program,
 the user acknowledges that Gaussian, Inc. is engaged in the
 business of creating and licensing software in the field of
 computational chemistry and represents and warrants to the
 licensee that it is not a competitor of Gaussian, Inc. and that
 it will not use this program in any manner prohibited above.
 ---------------------------------------------------------------
  

 Cite this work as:
 Gaussian 09, Revision E.01,
 M. J. Frisch, G. W. Trucks, H. B. Schlegel, G. E. Scuseria, 
 M. A. Robb, J. R. Cheeseman, G. Scalmani, V. Barone, B. Mennucci, 
 G. A. Petersson, H. Nakatsuji, M. Caricato, X. Li, H. P. Hratchian, 
 A. F. Izmaylov, J. Bloino, G. Zheng, J. L. Sonnenberg, M. Hada, 
 M. Ehara, K. Toyota, R. Fukuda, J. Hasegawa, M. Ishida, T. Nakajima, 
 Y. Honda, O. Kitao, H. Nakai, T. Vreven, J. A. Montgomery, Jr., 
 J. E. Peralta, F. Ogliaro, M. Bearpark, J. J. Heyd, E. Brothers, 
 K. N. Kudin, V. N. Staroverov, T. Keith, R. Kobayashi, J. Normand, 
 K. Raghavachari, A. Rendell, J. C. Burant, S. S. Iyengar, J. Tomasi, 
 M. Cossi, N. Rega, J. M. Millam, M. Klene, J. E. Knox, J. B. Cross, 
 V. Bakken, C. Adamo, J. Jaramillo, R. Gomperts, R. E. Stratmann, 
 O. Yazyev, A. J. Austin, R. Cammi, C. Pomelli, J. W. Ochterski, 
 R. L. Martin, K. Morokuma, V. G. Zakrzewski, G. A. Voth, 
 P. Salvador, J. J. Dannenberg, S. Dapprich, A. D. Daniels, 
 O. Farkas, J. B. Foresman, J. V. Ortiz, J. Cioslowski, 
 and D. J. Fox, Gaussian, Inc., Wallingford CT, 2013.
 
 ******************************************
 Gaussian 09:  EM64L-G09RevE.01 30-Nov-2015
                22-Jun-2016 
 ******************************************
 %NProcShared=4
 Will use up to    4 processors via shared memory.
 ---------------------------------------------
 #p b3lyp/6-311++G(3df,2p) freq symmetry=Loose
 ---------------------------------------------
 1/10=4,30=1,38=1/1,3;
 2/12=2,17=4,18=3,40=1/2;
 3/5=4,6=6,7=1216,11=2,16=1,25=1,30=1,71=2,74=-5,140=1/1,2,3;
 4//1;
 5/5=2,38=5,98=1/2;
 8/6=4,10=90,11=11/1;
 11/6=1,8=1,9=11,15=111,16=1/1,2,10;
 10/6=1/2;
 6/7=2,8=2,9=2,10=2,18=1,28=1/1;
 7/8=1,10=1,25=1/1,2,3,16;
 1/10=4,30=1/3;
 99//99;
 Leave Link    1 at Wed Jun 22 00:19:54 2016, MaxMem=           0 cpu:         0.1
 (Enter /home/proyectos/fulerenos/M3C-v1.9/M3C-deps_CCC/g09-AM64L-G09RevC.01/l101.exe)
 ---------
 b3lyp opt
 ---------
 Symbolic Z-matrix:
 Charge =  3 Multiplicity = 2
 C                    -0.26011   0.66361   0. 
 H                    -1.39589   0.87786   0. 
 C                     0.26011  -0.66361   0. 
 H                     1.39589  -0.87786   0. 
 C                     0.26011   1.88139   0. 
 C                    -0.26011  -1.88139   0. 
 H                    -0.54261  -2.97616   0. 
 H                     0.54261   2.97616   0. 
 
 NAtoms=      8 NQM=        8 NQMF=       0 NMMI=      0 NMMIF=      0
                NMic=       0 NMicF=      0.
                    Isotopes and Nuclear Properties:
 (Nuclear quadrupole moments (NQMom) in fm**2, nuclear magnetic moments (NMagM)
  in nuclear magnetons)

  Atom         1           2           3           4           5           6           7           8
 IAtWgt=          12           1          12           1          12          12           1           1
 AtmWgt=  12.0000000   1.0078250  12.0000000   1.0078250  12.0000000  12.0000000   1.0078250   1.0078250
 NucSpn=           0           1           0           1           0           0           1           1
 AtZEff=   0.0000000   0.0000000   0.0000000   0.0000000   0.0000000   0.0000000   0.0000000   0.0000000
 NQMom=    0.0000000   0.0000000   0.0000000   0.0000000   0.0000000   0.0000000   0.0000000   0.0000000
 NMagM=    0.0000000   2.7928460   0.0000000   2.7928460   0.0000000   0.0000000   2.7928460   2.7928460
 AtZNuc=   6.0000000   1.0000000   6.0000000   1.0000000   6.0000000   6.0000000   1.0000000   1.0000000
 Leave Link  101 at Wed Jun 22 00:19:54 2016, MaxMem=    33554432 cpu:         0.3
 (Enter /home/proyectos/fulerenos/M3C-v1.9/M3C-deps_CCC/g09-AM64L-G09RevC.01/l103.exe)

 GradGradGradGradGradGradGradGradGradGradGradGradGradGradGradGradGradGrad
 Berny optimization.
 Initialization pass.
 Trust Radius=3.00D-01 FncErr=1.00D-07 GrdErr=1.00D-07
 Number of steps in this run=      2 maximum allowed number of steps=      2.
 GradGradGradGradGradGradGradGradGradGradGradGradGradGradGradGradGradGrad

 Leave Link  103 at Wed Jun 22 00:19:54 2016, MaxMem=    33554432 cpu:         0.1
 (Enter /home/proyectos/fulerenos/M3C-v1.9/M3C-deps_CCC/g09-AM64L-G09RevC.01/l202.exe)
                          Input orientation:                          
 ---------------------------------------------------------------------
 Center     Atomic      Atomic             Coordinates (Angstroms)
 Number     Number       Type             X           Y           Z
 ---------------------------------------------------------------------
      1          6           0       -0.260114    0.663605    0.000000
      2          1           0       -1.395887    0.877862    0.000000
      3          6           0        0.260114   -0.663605    0.000000
      4          1           0        1.395887   -0.877862    0.000000
      5          6           0        0.260114    1.881394    0.000000
      6          6           0       -0.260114   -1.881394    0.000000
      7          1           0       -0.542606   -2.976160    0.000000
      8          1           0        0.542606    2.976160    0.000000
 ---------------------------------------------------------------------
                    Distance matrix (angstroms):
                    1          2          3          4          5
     1  C    0.000000
     2  H    1.155806   0.000000
     3  C    1.425526   2.262401   0.000000
     4  H    2.262401   3.297964   1.155806   0.000000
     5  C    1.324253   1.936341   2.544999   2.983869   0.000000
     6  C    2.544999   2.983869   1.324253   1.936341   3.798580
     7  H    3.650711   3.947350   2.447911   2.856678   4.923433
     8  H    2.447911   2.856678   3.650711   3.947350   1.130626
                    6          7          8
     6  C    0.000000
     7  H    1.130626   0.000000
     8  H    4.923433   6.050438   0.000000
 Stoichiometry    C4H4(3+,2)
 Framework group  C2H[SGH(C4H4)]
 Deg. of freedom     7
 Full point group                 C2H     NOp   4
 Largest Abelian subgroup         C2H     NOp   4
 Largest concise Abelian subgroup C2      NOp   2
                         Standard orientation:                         
 ---------------------------------------------------------------------
 Center     Atomic      Atomic             Coordinates (Angstroms)
 Number     Number       Type             X           Y           Z
 ---------------------------------------------------------------------
      1          6           0       -0.260114    0.663605    0.000000
      2          1           0       -1.395887    0.877862    0.000000
      3          6           0        0.260114   -0.663605    0.000000
      4          1           0        1.395887   -0.877862    0.000000
      5          6           0        0.260114    1.881394    0.000000
      6          6           0       -0.260114   -1.881394    0.000000
      7          1           0       -0.542606   -2.976160    0.000000
      8          1           0        0.542606    2.976160    0.000000
 ---------------------------------------------------------------------
 Rotational constants (GHZ):     71.0193357      4.3725511      4.1189535
 Leave Link  202 at Wed Jun 22 00:19:54 2016, MaxMem=    33554432 cpu:         0.0
 (Enter /home/proyectos/fulerenos/M3C-v1.9/M3C-deps_CCC/g09-AM64L-G09RevC.01/l301.exe)
 Standard basis: 6-311++G(3df,2p) (5D, 7F)
 Ernie: Thresh=  0.10000D-02 Tol=  0.10000D-05 Strict=F.
 There are    78 symmetry adapted cartesian basis functions of AG  symmetry.
 There are    32 symmetry adapted cartesian basis functions of BG  symmetry.
 There are    32 symmetry adapted cartesian basis functions of AU  symmetry.
 There are    78 symmetry adapted cartesian basis functions of BU  symmetry.
 There are    68 symmetry adapted basis functions of AG  symmetry.
 There are    30 symmetry adapted basis functions of BG  symmetry.
 There are    30 symmetry adapted basis functions of AU  symmetry.
 There are    68 symmetry adapted basis functions of BU  symmetry.
   196 basis functions,   280 primitive gaussians,   220 cartesian basis functions
    13 alpha electrons       12 beta electrons
       nuclear repulsion energy        87.9560321188 Hartrees.
 IExCor=  402 DFT=T Ex+Corr=B3LYP ExCW=0 ScaHFX=  0.200000
 ScaDFX=  0.800000  0.720000  1.000000  0.810000 ScalE2=  1.000000  1.000000
 IRadAn=      0 IRanWt=     -1 IRanGd=            0 ICorTp=0 IEmpDi=  4
 NAtoms=    8 NActive=    8 NUniq=    4 SFac= 4.00D+00 NAtFMM=   60 NAOKFM=F Big=F
 Integral buffers will be    131072 words long.
 Raffenetti 2 integral format.
 Two-electron integral symmetry is turned on.
 Leave Link  301 at Wed Jun 22 00:19:54 2016, MaxMem=    33554432 cpu:         0.3
 (Enter /home/proyectos/fulerenos/M3C-v1.9/M3C-deps_CCC/g09-AM64L-G09RevC.01/l302.exe)
 NPDir=0 NMtPBC=     1 NCelOv=     1 NCel=       1 NClECP=     1 NCelD=      1
         NCelK=      1 NCelE2=     1 NClLst=     1 CellRange=     0.0.
 One-electron integrals computed using PRISM.
 One-electron integral symmetry used in STVInt
 NBasis=   196 RedAO= T EigKep=  5.47D-06  NBF=    68    30    30    68
 NBsUse=   196 1.00D-06 EigRej= -1.00D+00 NBFU=    68    30    30    68
 Precomputing XC quadrature grid using
 IXCGrd= 4 IRadAn=           0 IRanWt=          -1 IRanGd=           0 AccXCQ= 0.00D+00.
 Generated NRdTot=       0 NPtTot=           0 NUsed=           0 NTot=          32
 NSgBfM=   220   220   220   220   220 MxSgAt=     8 MxSgA2=     8.
 Leave Link  302 at Wed Jun 22 00:19:54 2016, MaxMem=    33554432 cpu:         1.2
 (Enter /home/proyectos/fulerenos/M3C-v1.9/M3C-deps_CCC/g09-AM64L-G09RevC.01/l303.exe)
 DipDrv:  MaxL=1.
 Leave Link  303 at Wed Jun 22 00:19:54 2016, MaxMem=    33554432 cpu:         0.1
 (Enter /home/proyectos/fulerenos/M3C-v1.9/M3C-deps_CCC/g09-AM64L-G09RevC.01/l401.exe)
 ExpMin= 3.60D-02 ExpMax= 4.56D+03 ExpMxC= 6.82D+02 IAcc=3 IRadAn=         5 AccDes= 0.00D+00
 Harris functional with IExCor=  402 and IRadAn=       5 diagonalized for initial guess.
 HarFok:  IExCor=  402 AccDes= 0.00D+00 IRadAn=         5 IDoV= 1 UseB2=F ITyADJ=14
 ICtDFT=  3500011 ScaDFX=  1.000000  1.000000  1.000000  1.000000
 FoFCou: FMM=F IPFlag=           0 FMFlag=      100000 FMFlg1=           0
         NFxFlg=           0 DoJE=T BraDBF=F KetDBF=T FulRan=T
         wScrn=  0.000000 ICntrl=     500 IOpCl=  0 I1Cent=   200000004 NGrid=           0
         NMat0=    1 NMatS0=      1 NMatT0=    0 NMatD0=    1 NMtDS0=    0 NMtDT0=    0
 Petite list used in FoFCou.
 Harris En= -153.850913585127    
 JPrj=0 DoOrth=F DoCkMO=F.
 Initial guess orbital symmetries:
 Alpha Orbitals:
       Occupied  (AG) (BU) (BU) (AG) (AG) (BU) (AG) (BU) (AG) (BU)
                 (AG) (AU) (BG)
       Virtual   (BU) (AG) (AU) (BG) (BU) (AG) (BU) (AG) (BU) (AU)
                 (AG) (BU) (AG) (BG) (AG) (BG) (BU) (AG) (BU) (AU)
                 (BU) (AG) (BU) (AG) (BU) (BU) (AG) (AG) (BU) (AU)
                 (BG) (BU) (AG) (AG) (AG) (BU) (AG) (AU) (BG) (BU)
                 (AG) (AU) (BU) (BG) (BU) (BG) (AU) (BU) (AG) (AG)
                 (BU) (BU) (AU) (AG) (BU) (AG) (AU) (BG) (AG) (BU)
                 (AG) (BG) (AG) (BU) (BU) (BG) (AG) (BU) (AU) (BU)
                 (AG) (BG) (AU) (BU) (AG) (BU) (AG) (AG) (AU) (BU)
                 (AG) (BU) (AU) (BG) (BU) (AG) (BG) (AG) (BU) (AG)
                 (AU) (BU) (BG) (AG) (BU) (AU) (AG) (BG) (BU) (BU)
                 (AG) (AG) (BU) (AU) (AG) (BG) (AU) (BU) (BG) (AU)
                 (AG) (AG) (BU) (AU) (AG) (BG) (BU) (BG) (BG) (BU)
                 (BU) (AG) (AU) (BU) (AG) (BU) (AG) (BG) (AG) (AG)
                 (AU) (BU) (AU) (BU) (AG) (BU) (AG) (BU) (BG) (AG)
                 (AU) (BU) (BG) (AG) (BU) (AU) (AG) (BU) (BG) (BU)
                 (AG) (BG) (AU) (AG) (BU) (BU) (AG) (AG) (BU) (AU)
                 (BG) (BU) (AG) (BG) (AU) (AU) (BU) (BG) (AG) (AG)
                 (AU) (BU) (BU) (BG) (AG) (BU) (AG) (BU) (AG) (AG)
                 (BU) (AG) (BU)
 Beta  Orbitals:
       Occupied  (AG) (BU) (BU) (AG) (AG) (BU) (AG) (BU) (AG) (BU)
                 (AG) (AU)
       Virtual   (BG) (BU) (AG) (AU) (BG) (BU) (AG) (BU) (AG) (BU)
                 (AU) (AG) (BU) (AG) (BG) (AG) (BG) (BU) (AG) (BU)
                 (AU) (BU) (AG) (BU) (AG) (BU) (BU) (AG) (AG) (BU)
                 (AU) (BG) (BU) (AG) (AG) (AG) (BU) (AG) (AU) (BG)
                 (BU) (AG) (AU) (BU) (BG) (BU) (BG) (AU) (BU) (AG)
                 (AG) (BU) (BU) (AU) (AG) (BU) (AG) (AU) (BG) (AG)
                 (BU) (AG) (BG) (AG) (BU) (BU) (BG) (AG) (BU) (AU)
                 (BU) (AG) (BG) (AU) (BU) (AG) (BU) (AG) (AG) (AU)
                 (BU) (AG) (BU) (AU) (BG) (BU) (AG) (BG) (AG) (BU)
                 (AG) (AU) (BU) (BG) (AG) (BU) (AU) (AG) (BG) (BU)
                 (BU) (AG) (AG) (BU) (AU) (AG) (BG) (AU) (BU) (BG)
                 (AU) (AG) (AG) (BU) (AU) (AG) (BG) (BU) (BG) (BG)
                 (BU) (BU) (AG) (AU) (BU) (AG) (BU) (AG) (BG) (AG)
                 (AG) (AU) (BU) (AU) (BU) (AG) (BU) (AG) (BU) (BG)
                 (AG) (AU) (BU) (BG) (AG) (BU) (AU) (AG) (BU) (BG)
                 (BU) (AG) (BG) (AU) (AG) (BU) (BU) (AG) (AG) (BU)
                 (AU) (BG) (BU) (AG) (BG) (AU) (AU) (BU) (BG) (AG)
                 (AG) (AU) (BU) (BU) (BG) (AG) (BU) (AG) (BU) (AG)
                 (AG) (BU) (AG) (BU)
 The electronic state of the initial guess is 2-BG.
 Initial guess <Sx>= 0.0000 <Sy>= 0.0000 <Sz>= 0.5000 <S**2>= 0.7500 S= 0.5000
 Leave Link  401 at Wed Jun 22 00:19:55 2016, MaxMem=    33554432 cpu:         3.5
 (Enter /home/proyectos/fulerenos/M3C-v1.9/M3C-deps_CCC/g09-AM64L-G09RevC.01/l502.exe)
 UHF open shell SCF:
 Using DIIS extrapolation, IDIIS=  1040.
 Integral symmetry usage will be decided dynamically.
 IVT=      167050 IEndB=      167050 NGot=    33554432 MDV=    33452643
 LenX=    33452643 LenY=    33403802
 Requested convergence on RMS density matrix=1.00D-08 within 128 cycles.
 Requested convergence on MAX density matrix=1.00D-06.
 Requested convergence on             energy=1.00D-06.
 No special actions if energy rises.
 Fock matrices will be formed incrementally for  20 cycles.

 Cycle   1  Pass 1  IDiag  1:
 FoFJK:  IHMeth= 1 ICntrl=       0 DoSepK=F KAlg= 0 I1Cent=   0 FoldK=F
 IRaf= 980000000 NMat=   1 IRICut=       1 DoRegI=T DoRafI=F ISym2E= 1.
 FoFCou: FMM=F IPFlag=           0 FMFlag=      100000 FMFlg1=           0
         NFxFlg=           0 DoJE=F BraDBF=F KetDBF=F FulRan=T
         wScrn=  0.000000 ICntrl=       0 IOpCl=  1 I1Cent=           0 NGrid=           0
         NMat0=    1 NMatS0=      1 NMatT0=    0 NMatD0=    1 NMtDS0=    0 NMtDT0=    0
 Petite list used in FoFCou.
 E= -152.913913121274    
 DIIS: error= 2.62D-02 at cycle   1 NSaved=   1.
 NSaved= 1 IEnMin= 1 EnMin= -152.913913121274     IErMin= 1 ErrMin= 2.62D-02
 ErrMax= 2.62D-02  0.00D+00 EMaxC= 1.00D-01 BMatC= 2.59D-01 BMatP= 2.59D-01
 IDIUse=3 WtCom= 7.38D-01 WtEn= 2.62D-01
 Coeff-Com:  0.100D+01
 Coeff-En:   0.100D+01
 Coeff:      0.100D+01
 Gap=     0.145 Goal=   None    Shift=    0.000
 Gap=     0.094 Goal=   None    Shift=    0.000
 GapD=    0.094 DampG=0.500 DampE=0.500 DampFc=0.2500 IDamp=-1.
 Damping current iteration by 2.50D-01
 RMSDP=4.08D-03 MaxDP=2.00D-01              OVMax= 2.65D-01

 Cycle   2  Pass 1  IDiag  1:
 RMSU=  8.84D-04    CP:  1.04D+00
 E= -152.937389142698     Delta-E=       -0.023476021424 Rises=F Damp=T
 DIIS: error= 1.41D-02 at cycle   2 NSaved=   2.
 NSaved= 2 IEnMin= 2 EnMin= -152.937389142698     IErMin= 2 ErrMin= 1.41D-02
 ErrMax= 1.41D-02  0.00D+00 EMaxC= 1.00D-01 BMatC= 6.76D-02 BMatP= 2.59D-01
 IDIUse=3 WtCom= 8.59D-01 WtEn= 1.41D-01
 Coeff-Com: -0.546D+00 0.155D+01
 Coeff-En:   0.000D+00 0.100D+01
 Coeff:     -0.470D+00 0.147D+01
 Gap=     0.163 Goal=   None    Shift=    0.000
 Gap=     0.136 Goal=   None    Shift=    0.000
 RMSDP=2.76D-03 MaxDP=1.20D-01 DE=-2.35D-02 OVMax= 2.05D-01

 Cycle   3  Pass 1  IDiag  1:
 RMSU=  1.51D-03    CP:  1.17D+00  2.65D+00
 E= -152.984185430237     Delta-E=       -0.046796287539 Rises=F Damp=F
 DIIS: error= 1.05D-02 at cycle   3 NSaved=   3.
 NSaved= 3 IEnMin= 3 EnMin= -152.984185430237     IErMin= 3 ErrMin= 1.05D-02
 ErrMax= 1.05D-02  0.00D+00 EMaxC= 1.00D-01 BMatC= 2.43D-02 BMatP= 6.76D-02
 IDIUse=3 WtCom= 8.95D-01 WtEn= 1.05D-01
 Coeff-Com: -0.423D+00 0.736D+00 0.687D+00
 Coeff-En:   0.000D+00 0.000D+00 0.100D+01
 Coeff:     -0.379D+00 0.659D+00 0.720D+00
 Gap=     0.167 Goal=   None    Shift=    0.000
 Gap=     0.132 Goal=   None    Shift=    0.000
 RMSDP=6.63D-04 MaxDP=2.19D-02 DE=-4.68D-02 OVMax= 5.35D-02

 Cycle   4  Pass 1  IDiag  1:
 RMSU=  5.87D-04    CP:  1.16D+00  2.60D+00  8.30D-01
 E= -152.990669229400     Delta-E=       -0.006483799164 Rises=F Damp=F
 DIIS: error= 3.36D-03 at cycle   4 NSaved=   4.
 NSaved= 4 IEnMin= 4 EnMin= -152.990669229400     IErMin= 4 ErrMin= 3.36D-03
 ErrMax= 3.36D-03  0.00D+00 EMaxC= 1.00D-01 BMatC= 2.51D-03 BMatP= 2.43D-02
 IDIUse=3 WtCom= 9.66D-01 WtEn= 3.36D-02
 Coeff-Com: -0.731D-01 0.103D+00 0.289D+00 0.681D+00
 Coeff-En:   0.000D+00 0.000D+00 0.754D-02 0.992D+00
 Coeff:     -0.707D-01 0.993D-01 0.280D+00 0.692D+00
 Gap=     0.171 Goal=   None    Shift=    0.000
 Gap=     0.136 Goal=   None    Shift=    0.000
 RMSDP=1.93D-04 MaxDP=6.80D-03 DE=-6.48D-03 OVMax= 1.62D-02

 Cycle   5  Pass 1  IDiag  1:
 RMSU=  1.08D-04    CP:  1.16D+00  2.63D+00  8.70D-01  7.64D-01
 E= -152.991402027117     Delta-E=       -0.000732797717 Rises=F Damp=F
 DIIS: error= 5.95D-04 at cycle   5 NSaved=   5.
 NSaved= 5 IEnMin= 5 EnMin= -152.991402027117     IErMin= 5 ErrMin= 5.95D-04
 ErrMax= 5.95D-04  0.00D+00 EMaxC= 1.00D-01 BMatC= 5.40D-05 BMatP= 2.51D-03
 IDIUse=3 WtCom= 9.94D-01 WtEn= 5.95D-03
 Coeff-Com:  0.199D-01-0.334D-01-0.287D-01 0.844D-03 0.104D+01
 Coeff-En:   0.000D+00 0.000D+00 0.000D+00 0.000D+00 0.100D+01
 Coeff:      0.198D-01-0.332D-01-0.285D-01 0.839D-03 0.104D+01
 Gap=     0.171 Goal=   None    Shift=    0.000
 Gap=     0.138 Goal=   None    Shift=    0.000
 RMSDP=5.75D-05 MaxDP=1.69D-03 DE=-7.33D-04 OVMax= 7.70D-03

 Cycle   6  Pass 1  IDiag  1:
 RMSU=  5.17D-05    CP:  1.16D+00  2.62D+00  8.70D-01  7.79D-01  1.20D+00
 E= -152.991471244827     Delta-E=       -0.000069217710 Rises=F Damp=F
 DIIS: error= 3.03D-04 at cycle   6 NSaved=   6.
 NSaved= 6 IEnMin= 6 EnMin= -152.991471244827     IErMin= 6 ErrMin= 3.03D-04
 ErrMax= 3.03D-04  0.00D+00 EMaxC= 1.00D-01 BMatC= 1.15D-05 BMatP= 5.40D-05
 IDIUse=3 WtCom= 9.97D-01 WtEn= 3.03D-03
 Coeff-Com:  0.113D-01-0.147D-01-0.453D-01-0.129D+00-0.226D+00 0.140D+01
 Coeff-En:   0.000D+00 0.000D+00 0.000D+00 0.000D+00 0.000D+00 0.100D+01
 Coeff:      0.112D-01-0.147D-01-0.452D-01-0.128D+00-0.226D+00 0.140D+01
 Gap=     0.172 Goal=   None    Shift=    0.000
 Gap=     0.140 Goal=   None    Shift=    0.000
 RMSDP=4.09D-05 MaxDP=1.72D-03 DE=-6.92D-05 OVMax= 5.99D-03

 Cycle   7  Pass 1  IDiag  1:
 RMSU=  1.93D-05    CP:  1.16D+00  2.62D+00  8.74D-01  7.85D-01  1.47D+00
                    CP:  1.39D+00
 E= -152.991489977475     Delta-E=       -0.000018732648 Rises=F Damp=F
 DIIS: error= 5.06D-05 at cycle   7 NSaved=   7.
 NSaved= 7 IEnMin= 7 EnMin= -152.991489977475     IErMin= 7 ErrMin= 5.06D-05
 ErrMax= 5.06D-05  0.00D+00 EMaxC= 1.00D-01 BMatC= 7.84D-07 BMatP= 1.15D-05
 IDIUse=1 WtCom= 1.00D+00 WtEn= 0.00D+00
 Coeff-Com:  0.262D-02-0.296D-02-0.462D-02-0.163D-01-0.104D+00 0.213D+00
 Coeff-Com:  0.912D+00
 Coeff:      0.262D-02-0.296D-02-0.462D-02-0.163D-01-0.104D+00 0.213D+00
 Coeff:      0.912D+00
 Gap=     0.172 Goal=   None    Shift=    0.000
 Gap=     0.140 Goal=   None    Shift=    0.000
 RMSDP=7.27D-06 MaxDP=3.45D-04 DE=-1.87D-05 OVMax= 7.64D-04

 Cycle   8  Pass 1  IDiag  1:
 RMSU=  2.89D-06    CP:  1.16D+00  2.61D+00  8.74D-01  7.89D-01  1.50D+00
                    CP:  1.48D+00  1.02D+00
 E= -152.991490386200     Delta-E=       -0.000000408725 Rises=F Damp=F
 DIIS: error= 1.23D-05 at cycle   8 NSaved=   8.
 NSaved= 8 IEnMin= 8 EnMin= -152.991490386200     IErMin= 8 ErrMin= 1.23D-05
 ErrMax= 1.23D-05  0.00D+00 EMaxC= 1.00D-01 BMatC= 4.85D-08 BMatP= 7.84D-07
 IDIUse=1 WtCom= 1.00D+00 WtEn= 0.00D+00
 Coeff-Com:  0.250D-03-0.323D-03 0.236D-02 0.642D-02-0.304D-02-0.470D-01
 Coeff-Com:  0.137D+00 0.905D+00
 Coeff:      0.250D-03-0.323D-03 0.236D-02 0.642D-02-0.304D-02-0.470D-01
 Coeff:      0.137D+00 0.905D+00
 Gap=     0.172 Goal=   None    Shift=    0.000
 Gap=     0.140 Goal=   None    Shift=    0.000
 RMSDP=1.14D-06 MaxDP=4.14D-05 DE=-4.09D-07 OVMax= 6.49D-05

 Cycle   9  Pass 1  IDiag  1:
 RMSU=  6.11D-07    CP:  1.16D+00  2.61D+00  8.75D-01  7.89D-01  1.49D+00
                    CP:  1.48D+00  1.07D+00  9.72D-01
 E= -152.991490402298     Delta-E=       -0.000000016098 Rises=F Damp=F
 DIIS: error= 1.88D-06 at cycle   9 NSaved=   9.
 NSaved= 9 IEnMin= 9 EnMin= -152.991490402298     IErMin= 9 ErrMin= 1.88D-06
 ErrMax= 1.88D-06  0.00D+00 EMaxC= 1.00D-01 BMatC= 1.29D-09 BMatP= 4.85D-08
 IDIUse=1 WtCom= 1.00D+00 WtEn= 0.00D+00
 Coeff-Com: -0.125D-03 0.153D-03 0.108D-03 0.139D-03 0.426D-02-0.494D-02
 Coeff-Com: -0.537D-01-0.506D-01 0.110D+01
 Coeff:     -0.125D-03 0.153D-03 0.108D-03 0.139D-03 0.426D-02-0.494D-02
 Coeff:     -0.537D-01-0.506D-01 0.110D+01
 Gap=     0.172 Goal=   None    Shift=    0.000
 Gap=     0.140 Goal=   None    Shift=    0.000
 RMSDP=2.90D-07 MaxDP=1.12D-05 DE=-1.61D-08 OVMax= 2.63D-05

 Cycle  10  Pass 1  IDiag  1:
 RMSU=  1.20D-07    CP:  1.16D+00  2.61D+00  8.75D-01  7.89D-01  1.50D+00
                    CP:  1.49D+00  1.07D+00  1.03D+00  1.26D+00
 E= -152.991490403307     Delta-E=       -0.000000001009 Rises=F Damp=F
 DIIS: error= 7.44D-07 at cycle  10 NSaved=  10.
 NSaved=10 IEnMin=10 EnMin= -152.991490403307     IErMin=10 ErrMin= 7.44D-07
 ErrMax= 7.44D-07  0.00D+00 EMaxC= 1.00D-01 BMatC= 1.38D-10 BMatP= 1.29D-09
 IDIUse=1 WtCom= 1.00D+00 WtEn= 0.00D+00
 Coeff-Com: -0.181D-04 0.256D-04-0.164D-03-0.345D-03-0.507D-03 0.303D-02
 Coeff-Com:  0.344D-02-0.403D-01-0.228D+00 0.126D+01
 Coeff:     -0.181D-04 0.256D-04-0.164D-03-0.345D-03-0.507D-03 0.303D-02
 Coeff:      0.344D-02-0.403D-01-0.228D+00 0.126D+01
 Gap=     0.172 Goal=   None    Shift=    0.000
 Gap=     0.140 Goal=   None    Shift=    0.000
 RMSDP=9.46D-08 MaxDP=3.78D-06 DE=-1.01D-09 OVMax= 1.12D-05

 Cycle  11  Pass 1  IDiag  1:
 RMSU=  4.15D-08    CP:  1.16D+00  2.61D+00  8.75D-01  7.89D-01  1.50D+00
                    CP:  1.49D+00  1.07D+00  1.03D+00  1.36D+00  1.34D+00
 E= -152.991490403422     Delta-E=       -0.000000000115 Rises=F Damp=F
 DIIS: error= 1.44D-07 at cycle  11 NSaved=  11.
 NSaved=11 IEnMin=11 EnMin= -152.991490403422     IErMin=11 ErrMin= 1.44D-07
 ErrMax= 1.44D-07  0.00D+00 EMaxC= 1.00D-01 BMatC= 4.17D-12 BMatP= 1.38D-10
 IDIUse=1 WtCom= 1.00D+00 WtEn= 0.00D+00
 Coeff-Com:  0.788D-05-0.103D-04 0.423D-05 0.111D-04-0.140D-03-0.313D-04
 Coeff-Com:  0.216D-02 0.411D-02-0.350D-01-0.898D-01 0.112D+01
 Coeff:      0.788D-05-0.103D-04 0.423D-05 0.111D-04-0.140D-03-0.313D-04
 Coeff:      0.216D-02 0.411D-02-0.350D-01-0.898D-01 0.112D+01
 Gap=     0.172 Goal=   None    Shift=    0.000
 Gap=     0.140 Goal=   None    Shift=    0.000
 RMSDP=2.46D-08 MaxDP=1.26D-06 DE=-1.15D-10 OVMax= 2.32D-06

 Cycle  12  Pass 1  IDiag  1:
 RMSU=  1.50D-08    CP:  1.16D+00  2.61D+00  8.75D-01  7.89D-01  1.50D+00
                    CP:  1.49D+00  1.07D+00  1.03D+00  1.37D+00  1.43D+00
                    CP:  1.19D+00
 E= -152.991490403428     Delta-E=       -0.000000000006 Rises=F Damp=F
 DIIS: error= 3.80D-08 at cycle  12 NSaved=  12.
 NSaved=12 IEnMin=12 EnMin= -152.991490403428     IErMin=12 ErrMin= 3.80D-08
 ErrMax= 3.80D-08  0.00D+00 EMaxC= 1.00D-01 BMatC= 3.75D-13 BMatP= 4.17D-12
 IDIUse=1 WtCom= 1.00D+00 WtEn= 0.00D+00
 Coeff-Com:  0.418D-06-0.602D-06 0.133D-04 0.259D-04 0.587D-04-0.227D-03
 Coeff-Com: -0.597D-03 0.252D-02 0.258D-01-0.890D-01-0.203D+00 0.126D+01
 Coeff:      0.418D-06-0.602D-06 0.133D-04 0.259D-04 0.587D-04-0.227D-03
 Coeff:     -0.597D-03 0.252D-02 0.258D-01-0.890D-01-0.203D+00 0.126D+01
 Gap=     0.172 Goal=   None    Shift=    0.000
 Gap=     0.140 Goal=   None    Shift=    0.000
 RMSDP=9.70D-09 MaxDP=3.91D-07 DE=-6.42D-12 OVMax= 6.42D-07

 SCF Done:  E(UB3LYP) =  -152.991490403     A.U. after   12 cycles
            NFock= 12  Conv=0.97D-08     -V/T= 2.0044
 <Sx>= 0.0000 <Sy>= 0.0000 <Sz>= 0.5000 <S**2>= 0.7785 S= 0.5141
 <L.S>= 0.000000000000E+00
 KE= 1.523237237870D+02 PE=-5.111271799801D+02 EE= 1.178559336709D+02
 Annihilation of the first spin contaminant:
 S**2 before annihilation     0.7785,   after     0.7501
 Leave Link  502 at Wed Jun 22 00:20:51 2016, MaxMem=    33554432 cpu:       200.5
 (Enter /home/proyectos/fulerenos/M3C-v1.9/M3C-deps_CCC/g09-AM64L-G09RevC.01/l801.exe)
 DoSCS=F DFT=T ScalE2(SS,OS)=  1.000000  1.000000
 Range of M.O.s used for correlation:     1   196
 NBasis=   196 NAE=    13 NBE=    12 NFC=     0 NFV=     0
 NROrb=    196 NOA=    13 NOB=    12 NVA=   183 NVB=   184

 **** Warning!!: The largest alpha MO coefficient is  0.99276549D+02


 **** Warning!!: The largest beta MO coefficient is  0.96146728D+02

 Leave Link  801 at Wed Jun 22 00:20:51 2016, MaxMem=    33554432 cpu:         1.5
 (Enter /home/proyectos/fulerenos/M3C-v1.9/M3C-deps_CCC/g09-AM64L-G09RevC.01/l1101.exe)
 Using compressed storage, NAtomX=     8.
 Will process      9 centers per pass.
 Leave Link 1101 at Wed Jun 22 00:20:52 2016, MaxMem=    33554432 cpu:         2.3
 (Enter /home/proyectos/fulerenos/M3C-v1.9/M3C-deps_CCC/g09-AM64L-G09RevC.01/l1102.exe)
 Symmetrizing basis deriv contribution to polar:
 IMax=3 JMax=2 DiffMx= 0.00D+00
 Leave Link 1102 at Wed Jun 22 00:20:53 2016, MaxMem=    33554432 cpu:         0.3
 (Enter /home/proyectos/fulerenos/M3C-v1.9/M3C-deps_CCC/g09-AM64L-G09RevC.01/l1110.exe)
 Forming Gx(P) for the SCF density, NAtomX=     8.
 Integral derivatives from FoFJK, PRISM(SPDF).
 Do as many integral derivatives as possible in FoFJK.
 G2DrvN: MDV=      33554264.
 G2DrvN: will do     9 centers at a time, making    1 passes.
 Calling FoFCou, ICntrl=  3107 FMM=F I1Cent=   0 AccDes= 0.00D+00.
 FoFJK:  IHMeth= 1 ICntrl=    3107 DoSepK=F KAlg= 0 I1Cent=   0 FoldK=F
 IRaf=         0 NMat=   1 IRICut=       1 DoRegI=T DoRafI=F ISym2E= 1.
 FoFCou: FMM=F IPFlag=           0 FMFlag=      100000 FMFlg1=           0
         NFxFlg=           0 DoJE=F BraDBF=F KetDBF=F FulRan=T
         wScrn=  0.000000 ICntrl=    3107 IOpCl=  1 I1Cent=           0 NGrid=           0
         NMat0=    1 NMatS0=      1 NMatT0=    0 NMatD0=    1 NMtDS0=    0 NMtDT0=    0
 Petite list used in FoFCou.
 End of G2Drv F.D. properties file   721 does not exist.
 End of G2Drv F.D. properties file   722 does not exist.
 End of G2Drv F.D. properties file   788 does not exist.
 Leave Link 1110 at Wed Jun 22 00:21:32 2016, MaxMem=    33554432 cpu:       146.8
 (Enter /home/proyectos/fulerenos/M3C-v1.9/M3C-deps_CCC/g09-AM64L-G09RevC.01/l1002.exe)
 Minotr:  UHF open shell wavefunction.
          IDoAtm=11111111
          Direct CPHF calculation.
          Differentiating once with respect to electric field.
                with respect to dipole field.
          Differentiating once with respect to nuclear coordinates.
          Using symmetry in CPHF.
          Requested convergence is 1.0D-08 RMS, and 1.0D-07 maximum.
          Secondary convergence is 1.0D-12 RMS, and 1.0D-12 maximum.
          NewPWx=T KeepS1=F KeepF1=F KeepIn=T MapXYZ=F SortEE=F KeepMc=T.
          MDV=      33553956 using IRadAn=       2.
 Generate precomputed XC quadrature information.
          Solving linear equations simultaneously, MaxMat=       0.
 FoFJK:  IHMeth= 1 ICntrl=       0 DoSepK=F KAlg= 0 I1Cent=   0 FoldK=F
 IRaf= 980000000 NMat=  15 IRICut=      37 DoRegI=T DoRafI=T ISym2E= 2.
 FoFCou: FMM=F IPFlag=           0 FMFlag=      100000 FMFlg1=           0
         NFxFlg=           0 DoJE=F BraDBF=F KetDBF=F FulRan=T
         wScrn=  0.000000 ICntrl=       0 IOpCl=  1 I1Cent=           0 NGrid=           0
         NMat0=   15 NMatS0=     15 NMatT0=    0 NMatD0=   15 NMtDS0=    0 NMtDT0=    0
 Integrals replicated using symmetry in FoFCou.
          There are    15 degrees of freedom in the 1st order CPHF.  IDoFFX=4 NUNeed=    15.
     15 vectors produced by pass  0 Test12= 3.06D-14 6.67D-09 XBig12= 3.22D+02 1.51D+01.
 AX will form    15 AO Fock derivatives at one time.
     15 vectors produced by pass  1 Test12= 3.06D-14 6.67D-09 XBig12= 5.48D+01 2.45D+00.
     15 vectors produced by pass  2 Test12= 3.06D-14 6.67D-09 XBig12= 7.78D+00 1.14D+00.
     15 vectors produced by pass  3 Test12= 3.06D-14 6.67D-09 XBig12= 9.57D-02 5.54D-02.
     15 vectors produced by pass  4 Test12= 3.06D-14 6.67D-09 XBig12= 1.08D-03 8.30D-03.
     15 vectors produced by pass  5 Test12= 3.06D-14 6.67D-09 XBig12= 1.24D-05 6.62D-04.
     15 vectors produced by pass  6 Test12= 3.06D-14 6.67D-09 XBig12= 5.73D-08 4.45D-05.
      9 vectors produced by pass  7 Test12= 3.06D-14 6.67D-09 XBig12= 2.73D-10 2.63D-06.
      4 vectors produced by pass  8 Test12= 3.06D-14 6.67D-09 XBig12= 1.72D-12 1.64D-07.
      3 vectors produced by pass  9 Test12= 3.06D-14 6.67D-09 XBig12= 8.01D-14 5.05D-08.
      1 vectors produced by pass 10 Test12= 3.06D-14 6.67D-09 XBig12= 3.61D-15 1.17D-08.
 InvSVY:  IOpt=1 It=  1 EMax= 3.55D-15
 Solved reduced A of dimension   122 with    15 vectors.
 FullF1:  Do perturbations    1 to    15.
 Isotropic polarizability for W=    0.000000       39.97 Bohr**3.
 End of Minotr F.D. properties file   721 does not exist.
 End of Minotr F.D. properties file   722 does not exist.
 End of Minotr F.D. properties file   788 does not exist.
 Leave Link 1002 at Wed Jun 22 00:24:58 2016, MaxMem=    33554432 cpu:       815.7
 (Enter /home/proyectos/fulerenos/M3C-v1.9/M3C-deps_CCC/g09-AM64L-G09RevC.01/l601.exe)
 Copying SCF densities to generalized density rwf, IOpCl= 1 IROHF=0.

 **********************************************************************

            Population analysis using the SCF density.

 **********************************************************************

 Orbital symmetries:
 Alpha Orbitals:
       Occupied  (BU) (AG) (AG) (BU) (AG) (BU) (AG) (BU) (AG) (BU)
                 (AG) (AU) (BG)
       Virtual   (BU) (AG) (AU) (BG) (BU) (BU) (AG) (AG) (AG) (BU)
                 (AU) (BU) (BG) (BU) (AG) (AG) (BG) (BU) (AG) (AU)
                 (AU) (BU) (AG) (BU) (BG) (BU) (AG) (BU) (AG) (BU)
                 (AG) (AG) (BU) (BG) (AU) (BU) (AG) (AG) (AU) (AG)
                 (BG) (AG) (BU) (BU) (AU) (BG) (BU) (BU) (AG) (AU)
                 (BU) (AG) (BU) (AU) (AG) (BG) (BU) (AG) (BU) (AG)
                 (AG) (BG) (AG) (BU) (BU) (BG) (AG) (BU) (AU) (BU)
                 (AG) (BG) (AU) (BU) (AG) (BU) (AG) (AU) (AG) (BU)
                 (AU) (BU) (AG) (BG) (BG) (AG) (BU) (BU) (AG) (AU)
                 (AG) (BU) (BG) (AG) (BU) (AU) (AG) (BG) (BU) (BU)
                 (AG) (AG) (BU) (AU) (AG) (AU) (BG) (BU) (BG) (AU)
                 (AG) (AG) (AG) (BU) (AU) (BG) (BU) (BG) (BG) (BU)
                 (AG) (AU) (BU) (BU) (AG) (BU) (AG) (BG) (AG) (AU)
                 (AG) (BU) (AU) (BU) (AG) (BU) (AG) (BU) (BG) (AG)
                 (AU) (BU) (BG) (AG) (BU) (AU) (AG) (BG) (BU) (BU)
                 (AG) (BG) (AU) (AG) (BU) (AG) (BU) (AG) (BU) (AU)
                 (BG) (AG) (BU) (BG) (AU) (AU) (BU) (BG) (AG) (AG)
                 (AU) (BU) (BU) (BG) (AG) (BU) (AG) (BU) (AG) (AG)
                 (BU) (AG) (BU)
 Beta  Orbitals:
       Occupied  (BU) (AG) (AG) (BU) (AG) (BU) (AG) (BU) (AG) (BU)
                 (AG) (AU)
       Virtual   (BG) (BU) (AG) (AU) (BG) (BU) (BU) (AG) (AG) (AG)
                 (BU) (AU) (BU) (BU) (BG) (AG) (AG) (BG) (BU) (AG)
                 (AU) (AU) (BU) (AG) (BU) (BG) (BU) (AG) (BU) (AG)
                 (BU) (AG) (AG) (BU) (BG) (AU) (AG) (BU) (AG) (AU)
                 (AG) (BG) (AG) (BU) (BU) (AU) (BG) (BU) (BU) (AG)
                 (BU) (AU) (AG) (BU) (AU) (AG) (BG) (BU) (AG) (BU)
                 (AG) (AG) (BG) (AG) (BU) (BU) (BG) (AG) (BU) (AU)
                 (BU) (AG) (BG) (AU) (BU) (AG) (BU) (AG) (AU) (AG)
                 (BU) (AG) (AU) (BU) (BG) (BG) (AG) (BU) (BU) (AG)
                 (AU) (AG) (BU) (BG) (AG) (BU) (AU) (AG) (BG) (BU)
                 (BU) (AG) (AG) (BU) (AU) (AG) (AU) (BG) (BU) (BG)
                 (AU) (AG) (AG) (BU) (AG) (AU) (BG) (BU) (BG) (BG)
                 (BU) (AG) (AU) (BU) (BU) (AG) (BU) (AG) (BG) (AG)
                 (AU) (AG) (BU) (AU) (BU) (AG) (BU) (AG) (BU) (BG)
                 (AG) (AU) (BU) (BG) (AG) (BU) (AU) (AG) (BG) (BU)
                 (BU) (AG) (BG) (AU) (AG) (BU) (AG) (BU) (AG) (BU)
                 (AU) (BG) (AG) (BU) (BG) (AU) (AU) (BU) (AG) (BG)
                 (AG) (AU) (BU) (BU) (BG) (AG) (BU) (AG) (BU) (AG)
                 (AG) (BU) (AG) (BU)
 The electronic state is 2-BG.
 Alpha  occ. eigenvalues --  -11.08671 -11.08670 -10.99626 -10.99586  -1.60285
 Alpha  occ. eigenvalues --   -1.54444  -1.36917  -1.27920  -1.23910  -1.22829
 Alpha  occ. eigenvalues --   -1.14622  -1.11461  -1.04413
 Alpha virt. eigenvalues --   -0.87220  -0.84596  -0.81521  -0.67054  -0.58239
 Alpha virt. eigenvalues --   -0.55317  -0.54653  -0.49659  -0.46715  -0.45600
 Alpha virt. eigenvalues --   -0.42630  -0.41662  -0.40489  -0.40470  -0.38116
 Alpha virt. eigenvalues --   -0.36383  -0.35969  -0.32588  -0.31725  -0.31308
 Alpha virt. eigenvalues --   -0.31015  -0.27993  -0.27131  -0.26394  -0.24862
 Alpha virt. eigenvalues --   -0.24114  -0.23646  -0.21960  -0.20815  -0.20351
 Alpha virt. eigenvalues --   -0.18079  -0.16963  -0.15699  -0.15681  -0.13860
 Alpha virt. eigenvalues --   -0.12654  -0.12440  -0.12116  -0.11040  -0.09885
 Alpha virt. eigenvalues --   -0.09848  -0.07830  -0.07536  -0.06326  -0.05981
 Alpha virt. eigenvalues --   -0.05676  -0.02668  -0.00008   0.01070   0.01278
 Alpha virt. eigenvalues --    0.01724   0.04614   0.07644   0.09441   0.09925
 Alpha virt. eigenvalues --    0.11738   0.12818   0.12938   0.15022   0.16428
 Alpha virt. eigenvalues --    0.19247   0.22982   0.28171   0.33628   0.38735
 Alpha virt. eigenvalues --    0.39420   0.46497   0.49537   0.50385   0.51929
 Alpha virt. eigenvalues --    0.52934   0.56196   0.58015   0.60192   0.60944
 Alpha virt. eigenvalues --    0.62574   0.65862   0.67695   0.72013   0.73507
 Alpha virt. eigenvalues --    0.76290   0.78119   0.78177   0.80206   0.84136
 Alpha virt. eigenvalues --    0.85292   0.87527   0.89721   0.93330   0.95262
 Alpha virt. eigenvalues --    0.96413   0.96957   1.02282   1.15644   1.24531
 Alpha virt. eigenvalues --    1.34614   1.43106   1.43507   1.45997   1.66548
 Alpha virt. eigenvalues --    1.72884   1.85013   1.85176   1.85937   1.89654
 Alpha virt. eigenvalues --    1.94584   1.94609   1.98873   1.99594   1.99746
 Alpha virt. eigenvalues --    2.03177   2.05315   2.06752   2.07266   2.07510
 Alpha virt. eigenvalues --    2.13584   2.14021   2.18282   2.21769   2.25364
 Alpha virt. eigenvalues --    2.28787   2.28942   2.29683   2.39866   2.43548
 Alpha virt. eigenvalues --    2.48204   2.55409   2.59464   2.64227   2.65083
 Alpha virt. eigenvalues --    2.67983   2.72086   2.76803   2.87488   2.92870
 Alpha virt. eigenvalues --    3.01037   3.11339   3.17647   3.27675   3.31655
 Alpha virt. eigenvalues --    3.33680   3.42482   3.44015   3.53974   3.56830
 Alpha virt. eigenvalues --    3.64158   3.70506   3.79609   3.80860   3.99149
 Alpha virt. eigenvalues --    4.06948   4.18414   4.27006   4.44456   4.69215
 Alpha virt. eigenvalues --    4.89438   4.90322   5.36161   5.39259   6.11742
 Alpha virt. eigenvalues --    6.14186   6.16689   6.16915   6.29851   6.33063
 Alpha virt. eigenvalues --    6.34421   6.39912   6.46026   6.47067   6.59932
 Alpha virt. eigenvalues --    6.66474   6.72038   6.83784   6.90987   7.03400
 Alpha virt. eigenvalues --    7.13450   7.32866   7.45170   7.68462  23.07760
 Alpha virt. eigenvalues --   23.67473  24.98215  25.11773
  Beta  occ. eigenvalues --  -11.07845 -11.07844 -10.99558 -10.99515  -1.58993
  Beta  occ. eigenvalues --   -1.52097  -1.35808  -1.27095  -1.23401  -1.22617
  Beta  occ. eigenvalues --   -1.14316  -1.07435
  Beta virt. eigenvalues --   -0.93466  -0.86114  -0.83664  -0.76557  -0.64292
  Beta virt. eigenvalues --   -0.57373  -0.55144  -0.53988  -0.49413  -0.46563
  Beta virt. eigenvalues --   -0.45437  -0.42246  -0.41242  -0.40186  -0.40101
  Beta virt. eigenvalues --   -0.37954  -0.36354  -0.35024  -0.32413  -0.31734
  Beta virt. eigenvalues --   -0.30922  -0.30191  -0.27838  -0.27088  -0.26283
  Beta virt. eigenvalues --   -0.24626  -0.24053  -0.23395  -0.21824  -0.20783
  Beta virt. eigenvalues --   -0.20293  -0.17261  -0.16719  -0.15515  -0.14897
  Beta virt. eigenvalues --   -0.13370  -0.12406  -0.12339  -0.12180  -0.10749
  Beta virt. eigenvalues --   -0.09773  -0.09203  -0.07563  -0.07331  -0.06108
  Beta virt. eigenvalues --   -0.05089  -0.04303  -0.02499   0.00131   0.01656
  Beta virt. eigenvalues --    0.01983   0.02639   0.04649   0.07853   0.09792
  Beta virt. eigenvalues --    0.09979   0.11972   0.13030   0.13065   0.15141
  Beta virt. eigenvalues --    0.16561   0.19326   0.23439   0.28605   0.33903
  Beta virt. eigenvalues --    0.38856   0.39632   0.47043   0.49700   0.50567
  Beta virt. eigenvalues --    0.51973   0.53176   0.56860   0.58158   0.60794
  Beta virt. eigenvalues --    0.60918   0.62754   0.65943   0.69142   0.72252
  Beta virt. eigenvalues --    0.73855   0.78166   0.78330   0.78421   0.81540
  Beta virt. eigenvalues --    0.86863   0.87227   0.88217   0.91422   0.94101
  Beta virt. eigenvalues --    0.97138   0.97218   0.98387   1.03878   1.15931
  Beta virt. eigenvalues --    1.24668   1.36252   1.43615   1.44809   1.46405
  Beta virt. eigenvalues --    1.66866   1.73764   1.85323   1.86401   1.87775
  Beta virt. eigenvalues --    1.90102   1.97218   1.97496   2.00087   2.02171
  Beta virt. eigenvalues --    2.02264   2.04412   2.06830   2.08167   2.08283
  Beta virt. eigenvalues --    2.09925   2.15269   2.16581   2.20530   2.22946
  Beta virt. eigenvalues --    2.25717   2.29532   2.29947   2.29961   2.40447
  Beta virt. eigenvalues --    2.43974   2.48455   2.56232   2.60965   2.64635
  Beta virt. eigenvalues --    2.66295   2.68155   2.72318   2.78128   2.87836
  Beta virt. eigenvalues --    2.94154   3.02059   3.11323   3.18048   3.28434
  Beta virt. eigenvalues --    3.31681   3.34022   3.42741   3.43924   3.54398
  Beta virt. eigenvalues --    3.56850   3.64259   3.70350   3.80148   3.80788
  Beta virt. eigenvalues --    3.99304   4.07075   4.19910   4.28634   4.44371
  Beta virt. eigenvalues --    4.69344   4.89708   4.90492   5.36432   5.39661
  Beta virt. eigenvalues --    6.15461   6.18173   6.20451   6.20625   6.31900
  Beta virt. eigenvalues --    6.34100   6.37038   6.40384   6.47469   6.48147
  Beta virt. eigenvalues --    6.60691   6.68149   6.72963   6.84218   6.91859
  Beta virt. eigenvalues --    7.04189   7.13502   7.32985   7.46140   7.69001
  Beta virt. eigenvalues --   23.08341  23.68093  24.98737  25.12222
          Condensed to atoms (all electrons):
               1          2          3          4          5          6
     1  C    7.111236   0.518245  -0.761156  -0.171069  -1.045339   0.167406
     2  H    0.518245   0.387447  -0.171069  -0.001367  -0.098642   0.057304
     3  C   -0.761156  -0.171069   7.111236   0.518245   0.167406  -1.045339
     4  H   -0.171069  -0.001367   0.518245   0.387447   0.057304  -0.098642
     5  C   -1.045339  -0.098642   0.167406   0.057304   6.313479  -0.139100
     6  C    0.167406   0.057304  -1.045339  -0.098642  -0.139100   6.313479
     7  H   -0.000596   0.001019  -0.011182   0.003976   0.000078   0.262879
     8  H   -0.011182   0.003976  -0.000596   0.001019   0.262879   0.000078
               7          8
     1  C   -0.000596  -0.011182
     2  H    0.001019   0.003976
     3  C   -0.011182  -0.000596
     4  H    0.003976   0.001019
     5  C    0.000078   0.262879
     6  C    0.262879   0.000078
     7  H    0.221263   0.000044
     8  H    0.000044   0.221263
          Atomic-Atomic Spin Densities.
               1          2          3          4          5          6
     1  C    0.030746  -0.001033   0.002495   0.001867   0.049006   0.006973
     2  H   -0.001033  -0.007650   0.001867  -0.000114   0.000548  -0.001539
     3  C    0.002495   0.001867   0.030746  -0.001033   0.006973   0.049006
     4  H    0.001867  -0.000114  -0.001033  -0.007650  -0.001539   0.000548
     5  C    0.049006   0.000548   0.006973  -0.001539   0.369222   0.007365
     6  C    0.006973  -0.001539   0.049006   0.000548   0.007365   0.369222
     7  H    0.000477  -0.000015  -0.001407  -0.000227  -0.000204  -0.000912
     8  H   -0.001407  -0.000227   0.000477  -0.000015  -0.000912  -0.000204
               7          8
     1  C    0.000477  -0.001407
     2  H   -0.000015  -0.000227
     3  C   -0.001407   0.000477
     4  H   -0.000227  -0.000015
     5  C   -0.000204  -0.000912
     6  C   -0.000912  -0.000204
     7  H   -0.009122  -0.000010
     8  H   -0.000010  -0.009122
 Mulliken charges and spin densities:
               1          2
     1  C    0.192456   0.089124
     2  H    0.303088  -0.008163
     3  C    0.192456   0.089124
     4  H    0.303088  -0.008163
     5  C    0.481936   0.430458
     6  C    0.481936   0.430458
     7  H    0.522520  -0.011420
     8  H    0.522520  -0.011420
 Sum of Mulliken charges =   3.00000   1.00000
 Mulliken charges and spin densities with hydrogens summed into heavy atoms:
               1          2
     1  C    0.495544   0.080961
     3  C    0.495544   0.080961
     5  C    1.004456   0.419039
     6  C    1.004456   0.419039
 APT charges:
               1
     1  C   -0.251944
     2  H    0.361936
     3  C   -0.251944
     4  H    0.361936
     5  C    0.871171
     6  C    0.871171
     7  H    0.518838
     8  H    0.518838
 Sum of APT charges =   3.00000
 APT charges with hydrogens summed into heavy atoms:
               1
     1  C    0.109991
     3  C    0.109991
     5  C    1.390009
     6  C    1.390009
 Electronic spatial extent (au):  <R**2>=            251.8846
 Charge=              3.0000 electrons
 Dipole moment (field-independent basis, Debye):
    X=              0.0000    Y=              0.0000    Z=              0.0000  Tot=              0.0000
 Quadrupole moment (field-independent basis, Debye-Ang):
   XX=             -8.6605   YY=             39.9976   ZZ=            -18.8905
   XY=              4.9594   XZ=              0.0000   YZ=              0.0000
 Traceless Quadrupole moment (field-independent basis, Debye-Ang):
   XX=            -12.8094   YY=             35.8487   ZZ=            -23.0394
   XY=              4.9594   XZ=              0.0000   YZ=              0.0000
 Octapole moment (field-independent basis, Debye-Ang**2):
  XXX=              0.0000  YYY=              0.0000  ZZZ=              0.0000  XYY=              0.0000
  XXY=              0.0000  XXZ=              0.0000  XZZ=             -0.0000  YZZ=             -0.0000
  YYZ=              0.0000  XYZ=              0.0000
 Hexadecapole moment (field-independent basis, Debye-Ang**3):
 XXXX=            -13.2005 YYYY=            154.2058 ZZZZ=            -16.5500 XXXY=            -13.4232
 XXXZ=              0.0000 YYYX=             58.8417 YYYZ=              0.0000 ZZZX=              0.0000
 ZZZY=              0.0000 XXYY=            -25.5132 XXZZ=             -8.2215 YYZZ=            -45.0516
 XXYZ=              0.0000 YYXZ=              0.0000 ZZXY=             -2.3279
 N-N= 8.795603211881D+01 E-N=-5.111271801406D+02  KE= 1.523237237870D+02
 Symmetry AG   KE= 7.603172451491D+01
 Symmetry BG   KE= 1.383223757887D+00
 Symmetry AU   KE= 2.377327148083D+00
 Symmetry BU   KE= 7.253144836610D+01
  Exact polarizability:  27.016   3.792  74.480  -0.000   0.000  18.427
 Approx polarizability:  45.368  15.566 136.308  -0.000  -0.000  25.618
                          Isotropic Fermi Contact Couplings
        Atom                 a.u.       MegaHertz       Gauss      10(-4) cm-1
     1  C(13)             -0.01061     -11.92581      -4.25543      -3.97802
     2  H(1)              -0.00402     -17.98494      -6.41747      -5.99913
     3  C(13)             -0.01061     -11.92581      -4.25543      -3.97802
     4  H(1)              -0.00402     -17.98494      -6.41747      -5.99913
     5  C(13)              0.03377      37.96577      13.54713      12.66402
     6  C(13)              0.03377      37.96577      13.54713      12.66402
     7  H(1)              -0.00867     -38.73153     -13.82037     -12.91945
     8  H(1)              -0.00867     -38.73153     -13.82037     -12.91945
 --------------------------------------------------------
       Center         ----  Spin Dipole Couplings  ----
                      3XX-RR        3YY-RR        3ZZ-RR
 --------------------------------------------------------
     1   Atom       -0.077677     -0.018489      0.096166
     2   Atom        0.011794     -0.003662     -0.008131
     3   Atom       -0.077677     -0.018489      0.096166
     4   Atom        0.011794     -0.003662     -0.008131
     5   Atom       -0.355062     -0.338370      0.693432
     6   Atom       -0.355062     -0.338370      0.693432
     7   Atom       -0.027310      0.036377     -0.009068
     8   Atom       -0.027310      0.036377     -0.009068
 --------------------------------------------------------
                        XY            XZ            YZ
 --------------------------------------------------------
     1   Atom        0.014852      0.000000      0.000000
     2   Atom        0.011254      0.000000      0.000000
     3   Atom        0.014852      0.000000      0.000000
     4   Atom        0.011254      0.000000      0.000000
     5   Atom        0.000733      0.000000      0.000000
     6   Atom        0.000733      0.000000      0.000000
     7   Atom        0.018803      0.000000      0.000000
     8   Atom        0.018803      0.000000      0.000000
 --------------------------------------------------------


 ---------------------------------------------------------------------------------
              Anisotropic Spin Dipole Couplings in Principal Axis System
 ---------------------------------------------------------------------------------

       Atom             a.u.   MegaHertz   Gauss  10(-4) cm-1        Axes

              Baa    -0.0812   -10.896    -3.888    -3.634  0.9731 -0.2305 -0.0000
     1 C(13)  Bbb    -0.0150    -2.009    -0.717    -0.670  0.2305  0.9731  0.0000
              Bcc     0.0962    12.905     4.605     4.305  0.0000  0.0000  1.0000
 
              Baa    -0.0096    -5.115    -1.825    -1.706 -0.4658  0.8849 -0.0000
     2 H(1)   Bbb    -0.0081    -4.339    -1.548    -1.447  0.0000  0.0000  1.0000
              Bcc     0.0177     9.453     3.373     3.153  0.8849  0.4658  0.0000
 
              Baa    -0.0812   -10.896    -3.888    -3.634  0.9731 -0.2305 -0.0000
     3 C(13)  Bbb    -0.0150    -2.009    -0.717    -0.670  0.2305  0.9731  0.0000
              Bcc     0.0962    12.905     4.605     4.305  0.0000  0.0000  1.0000
 
              Baa    -0.0096    -5.115    -1.825    -1.706 -0.4658  0.8849 -0.0000
     4 H(1)   Bbb    -0.0081    -4.339    -1.548    -1.447  0.0000  0.0000  1.0000
              Bcc     0.0177     9.453     3.373     3.153  0.8849  0.4658  0.0000
 
              Baa    -0.3551   -47.650   -17.003   -15.894  0.9990 -0.0438 -0.0000
     5 C(13)  Bbb    -0.3383   -45.402   -16.200   -15.144  0.0438  0.9990  0.0000
              Bcc     0.6934    93.052    33.203    31.039  0.0000  0.0000  1.0000
 
              Baa    -0.3551   -47.650   -17.003   -15.894  0.9990 -0.0438 -0.0000
     6 C(13)  Bbb    -0.3383   -45.402   -16.200   -15.144  0.0438  0.9990  0.0000
              Bcc     0.6934    93.052    33.203    31.039  0.0000  0.0000  1.0000
 
              Baa    -0.0324   -17.312    -6.177    -5.775  0.9646 -0.2635 -0.0000
     7 H(1)   Bbb    -0.0091    -4.838    -1.726    -1.614  0.0000  0.0000  1.0000
              Bcc     0.0415    22.150     7.904     7.389  0.2635  0.9646  0.0000
 
              Baa    -0.0324   -17.312    -6.177    -5.775  0.9646 -0.2635 -0.0000
     8 H(1)   Bbb    -0.0091    -4.838    -1.726    -1.614  0.0000  0.0000  1.0000
              Bcc     0.0415    22.150     7.904     7.389  0.2635  0.9646  0.0000
 

 ---------------------------------------------------------------------------------

 No NMR shielding tensors so no spin-rotation constants.
 Leave Link  601 at Wed Jun 22 00:24:59 2016, MaxMem=    33554432 cpu:         3.3
 (Enter /home/proyectos/fulerenos/M3C-v1.9/M3C-deps_CCC/g09-AM64L-G09RevC.01/l701.exe)
 Compute integral second derivatives.
 ... and contract with generalized density number  0.
 Leave Link  701 at Wed Jun 22 00:25:00 2016, MaxMem=    33554432 cpu:         2.3
 (Enter /home/proyectos/fulerenos/M3C-v1.9/M3C-deps_CCC/g09-AM64L-G09RevC.01/l702.exe)
 L702 exits ... SP integral derivatives will be done elsewhere.
 Leave Link  702 at Wed Jun 22 00:25:00 2016, MaxMem=    33554432 cpu:         0.1
 (Enter /home/proyectos/fulerenos/M3C-v1.9/M3C-deps_CCC/g09-AM64L-G09RevC.01/l703.exe)
 Compute integral second derivatives, UseDBF=F ICtDFT=           0.
 Integral derivatives from FoFJK, PRISM(SPDF).
 Calling FoFJK, ICntrl=    100127 FMM=F ISym2X=1 I1Cent= 0 IOpClX= 1 NMat=1 NMatS=1 NMatT=0.
 FoFJK:  IHMeth= 1 ICntrl=  100127 DoSepK=F KAlg= 0 I1Cent=   0 FoldK=F
 IRaf=         0 NMat=   1 IRICut=       1 DoRegI=T DoRafI=F ISym2E= 1.
 FoFCou: FMM=F IPFlag=           0 FMFlag=      100000 FMFlg1=         800
         NFxFlg=           0 DoJE=F BraDBF=F KetDBF=F FulRan=T
         wScrn=  0.000000 ICntrl=  100127 IOpCl=  1 I1Cent=           0 NGrid=           0
         NMat0=    1 NMatS0=      1 NMatT0=    0 NMatD0=    1 NMtDS0=    0 NMtDT0=    0
 Petite list used in FoFCou.
 Leave Link  703 at Wed Jun 22 00:26:12 2016, MaxMem=    33554432 cpu:       268.3
 (Enter /home/proyectos/fulerenos/M3C-v1.9/M3C-deps_CCC/g09-AM64L-G09RevC.01/l716.exe)
 Dipole        = 3.57418088D-15 4.90961438D-14 0.00000000D+00
 Polarizability= 2.70162224D+01 3.79235633D+00 7.44801769D+01
                -4.15099345D-10 9.66785496D-09 1.84270465D+01
 Full mass-weighted force constant matrix:
 Low frequencies ---   -1.6295   -0.0005   -0.0005   -0.0005    3.6707   16.1671
 Low frequencies ---  191.0415  237.1593  349.7099
 Diagonal vibrational polarizability:
       29.7611363      18.3400859      30.0305421
 Harmonic frequencies (cm**-1), IR intensities (KM/Mole), Raman scattering
 activities (A**4/AMU), depolarization ratios for plane and unpolarized
 incident light, reduced masses (AMU), force constants (mDyne/A),
 and normal coordinates:
                      1                      2                      3
                     AU                     BU                     AG
 Frequencies --    191.0415               237.1593               349.7098
 Red. masses --      2.5104                 2.6114                 2.5935
 Frc consts  --      0.0540                 0.0865                 0.1869
 IR Inten    --     27.2630                49.8863                 0.0000
  Atom  AN      X      Y      Z        X      Y      Z        X      Y      Z
     1   6    -0.00  -0.00   0.19     0.20  -0.07   0.00     0.21   0.07   0.00
     2   1    -0.00  -0.00   0.35     0.17  -0.10  -0.00     0.21   0.33   0.00
     3   6     0.00   0.00   0.19     0.20  -0.07  -0.00    -0.21  -0.07   0.00
     4   1     0.00   0.00   0.35     0.17  -0.10   0.00    -0.21  -0.33   0.00
     5   6     0.00  -0.00  -0.18    -0.16   0.06  -0.00    -0.03   0.15  -0.00
     6   6    -0.00   0.00  -0.18    -0.16   0.06   0.00     0.03  -0.15  -0.00
     7   1    -0.00   0.00  -0.56    -0.60   0.17   0.00     0.46  -0.26   0.00
     8   1     0.00  -0.00  -0.56    -0.60   0.17  -0.00    -0.46   0.26   0.00
                      4                      5                      6
                     BG                     AU                     AU
 Frequencies --    644.2613               693.2218               723.3602
 Red. masses --      1.2882                 1.0847                 1.4768
 Frc consts  --      0.3150                 0.3071                 0.4553
 IR Inten    --      0.0000               161.9705                16.6757
  Atom  AN      X      Y      Z        X      Y      Z        X      Y      Z
     1   6    -0.00   0.00   0.09     0.00  -0.00  -0.05    -0.00  -0.00   0.08
     2   1    -0.00   0.00  -0.31     0.00   0.00   0.65    -0.00  -0.00  -0.23
     3   6    -0.00   0.00  -0.09    -0.00   0.00  -0.05     0.00   0.00   0.08
     4   1    -0.00   0.00   0.31    -0.00  -0.00   0.65     0.00   0.00  -0.23
     5   6     0.00  -0.00   0.06    -0.00  -0.00  -0.02     0.00  -0.00  -0.12
     6   6     0.00  -0.00  -0.06     0.00   0.00  -0.02    -0.00   0.00  -0.12
     7   1    -0.00  -0.00   0.62     0.00   0.00   0.27    -0.00   0.00   0.65
     8   1    -0.00  -0.00  -0.62    -0.00  -0.00   0.27     0.00  -0.00   0.65
                      7                      8                      9
                     BG                     AG                     BU
 Frequencies --    773.1946               817.4684               840.5101
 Red. masses --      2.0749                 2.8326                 1.1565
 Frc consts  --      0.7309                 1.1153                 0.4814
 IR Inten    --      0.0000                 0.0000                49.2606
  Atom  AN      X      Y      Z        X      Y      Z        X      Y      Z
     1   6    -0.00   0.00   0.19    -0.08   0.13  -0.00    -0.02   0.01  -0.00
     2   1     0.00   0.00  -0.49    -0.10  -0.23   0.00     0.04   0.59   0.00
     3   6    -0.00   0.00  -0.19     0.08  -0.13  -0.00    -0.02   0.01   0.00
     4   1     0.00   0.00   0.49     0.10   0.23   0.00     0.04   0.59  -0.00
     5   6     0.00  -0.00  -0.11    -0.01   0.24  -0.00     0.04  -0.07   0.00
     6   6     0.00  -0.00   0.11     0.01  -0.24  -0.00     0.04  -0.07  -0.00
     7   1    -0.00  -0.00  -0.46    -0.58  -0.12   0.00    -0.37   0.03   0.00
     8   1    -0.00  -0.00   0.46     0.58   0.12   0.00    -0.37   0.03  -0.00
                     10                     11                     12
                     BU                     AG                     AG
 Frequencies --   1025.0404              1040.1693              1105.0445
 Red. masses --      1.4605                 1.9312                 1.2459
 Frc consts  --      0.9041                 1.2311                 0.8964
 IR Inten    --     71.1074                 0.0000                 0.0000
  Atom  AN      X      Y      Z        X      Y      Z        X      Y      Z
     1   6     0.07   0.01  -0.00    -0.13   0.03  -0.00    -0.09   0.05   0.00
     2   1     0.10   0.41   0.00    -0.12  -0.13   0.00    -0.03   0.70   0.00
     3   6     0.07   0.01   0.00     0.13  -0.03  -0.00     0.09  -0.05   0.00
     4   1     0.10   0.41  -0.00     0.12   0.13   0.00     0.03  -0.70   0.00
     5   6    -0.12  -0.03   0.00     0.15   0.04   0.00    -0.02  -0.01  -0.00
     6   6    -0.12  -0.03  -0.00    -0.15  -0.04   0.00     0.02   0.01  -0.00
     7   1     0.51  -0.22   0.00     0.60  -0.26   0.00    -0.04   0.03  -0.00
     8   1     0.51  -0.22  -0.00    -0.60   0.26   0.00     0.04  -0.03  -0.00
                     13                     14                     15
                     BU                     AG                     AG
 Frequencies --   1444.2933              1696.7228              2513.3454
 Red. masses --      3.9111                 5.6083                 1.0805
 Frc consts  --      4.8068                 9.5126                 4.0213
 IR Inten    --    943.7005                 0.0000                 0.0000
  Atom  AN      X      Y      Z        X      Y      Z        X      Y      Z
     1   6     0.07   0.28  -0.00     0.04   0.41   0.00    -0.05   0.02   0.00
     2   1    -0.04  -0.45   0.00    -0.17  -0.32  -0.00     0.70  -0.07  -0.00
     3   6     0.07   0.28   0.00    -0.04  -0.41   0.00     0.05  -0.02   0.00
     4   1    -0.04  -0.45  -0.00     0.17   0.32  -0.00    -0.70   0.07  -0.00
     5   6    -0.05  -0.22   0.00    -0.05  -0.19  -0.00    -0.01  -0.01  -0.00
     6   6    -0.05  -0.22  -0.00     0.05   0.19  -0.00     0.01   0.01  -0.00
     7   1    -0.25  -0.32   0.00     0.21   0.34   0.00     0.00  -0.02   0.00
     8   1    -0.25  -0.32  -0.00    -0.21  -0.34   0.00    -0.00   0.02   0.00
                     16                     17                     18
                     BU                     BU                     AG
 Frequencies --   2513.8000              2794.1310              2809.5756
 Red. masses --      1.0753                 1.1406                 1.1379
 Frc consts  --      4.0035                 5.2464                 5.2924
 IR Inten    --    917.8169              1291.3271                 0.0000
  Atom  AN      X      Y      Z        X      Y      Z        X      Y      Z
     1   6    -0.05   0.01   0.00     0.01   0.02   0.00    -0.01  -0.02  -0.00
     2   1     0.70  -0.07  -0.00    -0.00  -0.01  -0.00     0.03   0.00  -0.00
     3   6    -0.05   0.01  -0.00     0.01   0.02  -0.00     0.01   0.02  -0.00
     4   1     0.70  -0.07   0.00    -0.00  -0.01   0.00    -0.03  -0.00  -0.00
     5   6    -0.00  -0.00   0.00    -0.02  -0.07  -0.00     0.02   0.07   0.00
     6   6    -0.00  -0.00  -0.00    -0.02  -0.07   0.00    -0.02  -0.07   0.00
     7   1    -0.00   0.00   0.00     0.17   0.68  -0.00     0.17   0.68  -0.00
     8   1    -0.00   0.00  -0.00     0.17   0.68   0.00    -0.17  -0.68  -0.00

 -------------------
 - Thermochemistry -
 -------------------
 Temperature   298.150 Kelvin.  Pressure   1.00000 Atm.
 Atom     1 has atomic number  6 and mass  12.00000
 Atom     2 has atomic number  1 and mass   1.00783
 Atom     3 has atomic number  6 and mass  12.00000
 Atom     4 has atomic number  1 and mass   1.00783
 Atom     5 has atomic number  6 and mass  12.00000
 Atom     6 has atomic number  6 and mass  12.00000
 Atom     7 has atomic number  1 and mass   1.00783
 Atom     8 has atomic number  1 and mass   1.00783
 Molecular mass:    52.03130 amu.
 Principal axes and moments of inertia in atomic units:
                           1         2         3
     Eigenvalues --    25.41197 412.74331 438.15528
           X            0.07756   0.99699   0.00000
           Y            0.99699  -0.07756   0.00000
           Z            0.00000  -0.00000   1.00000
 This molecule is an asymmetric top.
 Rotational symmetry number  2.
 Rotational temperatures (Kelvin)      3.40839     0.20985     0.19768
 Rotational constants (GHZ):          71.01934     4.37255     4.11895
 Zero-point vibrational energy     132857.6 (Joules/Mol)
                                   31.75372 (Kcal/Mol)
 Warning -- explicit consideration of   3 degrees of freedom as
           vibrations may cause significant error
 Vibrational temperatures:    274.87   341.22   503.15   926.95   997.39
          (Kelvin)           1040.75  1112.45  1176.15  1209.31  1474.80
                             1496.57  1589.91  2078.01  2441.20  3616.14
                             3616.79  4020.13  4042.35
 
 Zero-point correction=                           0.050603 (Hartree/Particle)
 Thermal correction to Energy=                    0.055558
 Thermal correction to Enthalpy=                  0.056502
 Thermal correction to Gibbs Free Energy=         0.024267
 Sum of electronic and zero-point Energies=           -152.940888
 Sum of electronic and thermal Energies=              -152.935932
 Sum of electronic and thermal Enthalpies=            -152.934988
 Sum of electronic and thermal Free Energies=         -152.967223
 
                     E (Thermal)             CV                S
                      KCal/Mol        Cal/Mol-Kelvin    Cal/Mol-Kelvin
 Total                   34.863             16.739             67.845
 Electronic               0.000              0.000              1.377
 Translational            0.889              2.981             37.771
 Rotational               0.889              2.981             21.668
 Vibrational             33.086             10.777              7.029
 Vibration     1          0.634              1.852              2.218
 Vibration     2          0.656              1.784              1.824
 Vibration     3          0.727              1.576              1.168
                       Q            Log10(Q)             Ln(Q)
 Total Bot       0.688455D-11        -11.162125        -25.701742
 Total V=0       0.129863D+13         12.113485         27.892330
 Vib (Bot)       0.192311D-22        -22.715996        -52.305515
 Vib (Bot)    1  0.104723D+01          0.020042          0.046149
 Vib (Bot)    2  0.827854D+00         -0.082046         -0.188918
 Vib (Bot)    3  0.527679D+00         -0.277631         -0.639268
 Vib (V=0)       0.362755D+01          0.559613          1.288557
 Vib (V=0)    1  0.166047D+01          0.220231          0.507101
 Vib (V=0)    2  0.146713D+01          0.166469          0.383309
 Vib (V=0)    3  0.122694D+01          0.088824          0.204525
 Electronic      0.200000D+01          0.301030          0.693147
 Translational   0.147520D+08          7.168852         16.506892
 Rotational      0.121336D+05          4.083990          9.403734
 
                                                              b3lyp opt
                                                             IR Spectrum
 
     22           22                                    1          1               1 11                                              
     87           55                                    6          4               1 00        88 7 76 6             3    2 1        
     19           11                                    9          4               0 42        41 7 29 4             5    3 9        
     04           43                                    7          4               5 05        17 3 33 4             0    7 1        
 
      X           X                                                X                  X        X    XX                    X X        
      X           X                                                X                                 X                               
      X           X                                                X                                 X                               
      X           X                                                X                                                                 
      X           X                                                X                                                                 
      X           X                                                X                                                                 
      X           X                                                X                                                                 
      X           X                                                X                                                                 
      X           X                                                X                                                                 
      X           X                                                X                                                                 
      X           X                                                X                                                                 
      X           X                                                X                                                                 
      X           X                                                X                                                                 
      X           X                                                X                                                                 
      X                                                            X                                                                 
      X                                                                                                                              
      X                                                                                                                              
      X                                                                                                                              
      X                                                                                                                              
      X                                                                                                                              
 
 ***** Axes restored to original set *****
 -------------------------------------------------------------------
 Center     Atomic                   Forces (Hartrees/Bohr)
 Number     Number              X              Y              Z
 -------------------------------------------------------------------
      1        6          -0.000036615    0.000054166   -0.000000000
      2        1           0.000086617   -0.000058982   -0.000000000
      3        6           0.000036615   -0.000054166   -0.000000000
      4        1          -0.000086617    0.000058982   -0.000000000
      5        6           0.000002696    0.000005344   -0.000000000
      6        6          -0.000002696   -0.000005344   -0.000000000
      7        1          -0.000010719   -0.000037470   -0.000000000
      8        1           0.000010719    0.000037470   -0.000000000
 -------------------------------------------------------------------
 Cartesian Forces:  Max     0.000086617 RMS     0.000037428
 Z-matrix is all fixed cartesians, so copy forces.
 Force constants in Cartesian coordinates: 
                1             2             3             4             5 
      1  0.344398D+00
      2  0.178132D-01  0.777263D+00
      3  0.000000D+00  0.000000D+00  0.968619D-01
      4 -0.193852D+00  0.319862D-01  0.000000D+00  0.223307D+00
      5 -0.469451D-02 -0.526034D-01  0.000000D+00 -0.191259D-01  0.404819D-01
      6  0.000000D+00  0.000000D+00 -0.266297D-01  0.000000D+00  0.000000D+00
      7 -0.739431D-01  0.754358D-01  0.000000D+00 -0.800907D-02  0.234076D-01
      8  0.754358D-01 -0.292124D+00  0.000000D+00 -0.230547D-02 -0.456061D-02
      9  0.000000D+00  0.000000D+00 -0.491192D-01  0.000000D+00  0.000000D+00
     10 -0.800907D-02 -0.230547D-02  0.000000D+00 -0.449510D-03  0.304206D-03
     11  0.234076D-01 -0.456061D-02  0.000000D+00  0.304206D-03 -0.417990D-02
     12  0.000000D+00  0.000000D+00  0.671168D-02  0.000000D+00  0.000000D+00
     13 -0.897276D-01 -0.125273D+00  0.000000D+00 -0.272488D-01 -0.896990D-02
     14 -0.109951D+00 -0.452173D+00  0.000000D+00 -0.121712D-01  0.183486D-01
     15  0.000000D+00  0.000000D+00 -0.417788D-01  0.000000D+00  0.000000D+00
     16 -0.164370D-02  0.167539D-01  0.000000D+00  0.504564D-02  0.388439D-02
     17 -0.646507D-02 -0.276266D-04  0.000000D+00  0.282799D-02  0.313570D-02
     18  0.000000D+00  0.000000D+00  0.354249D-02  0.000000D+00  0.000000D+00
     19 -0.190165D-02  0.190021D-03  0.000000D+00  0.746481D-03  0.249593D-03
     20  0.174539D-02  0.347295D-02  0.000000D+00  0.183533D-02 -0.228138D-03
     21  0.000000D+00  0.000000D+00  0.224620D-02  0.000000D+00  0.000000D+00
     22  0.246792D-01 -0.146002D-01  0.000000D+00  0.460062D-03  0.494455D-02
     23  0.270881D-02  0.207527D-01  0.000000D+00 -0.335115D-02 -0.394148D-03
     24  0.000000D+00  0.000000D+00  0.816550D-02  0.000000D+00  0.000000D+00
                6             7             8             9            10 
      6  0.119069D-01
      7  0.000000D+00  0.344398D+00
      8  0.000000D+00  0.178132D-01  0.777263D+00
      9  0.671168D-02  0.000000D+00  0.000000D+00  0.968619D-01
     10  0.000000D+00 -0.193852D+00  0.319862D-01  0.000000D+00  0.223307D+00
     11  0.000000D+00 -0.469451D-02 -0.526034D-01  0.000000D+00 -0.191259D-01
     12  0.417086D-02  0.000000D+00  0.000000D+00 -0.266297D-01  0.000000D+00
     13  0.000000D+00 -0.164370D-02  0.167539D-01  0.000000D+00  0.504564D-02
     14  0.000000D+00 -0.646507D-02 -0.276266D-04  0.000000D+00  0.282799D-02
     15  0.530841D-02  0.000000D+00  0.000000D+00  0.354249D-02  0.000000D+00
     16  0.000000D+00 -0.897276D-01 -0.125273D+00  0.000000D+00 -0.272488D-01
     17  0.000000D+00 -0.109951D+00 -0.452173D+00  0.000000D+00 -0.121712D-01
     18 -0.306439D-02  0.000000D+00  0.000000D+00 -0.417788D-01  0.000000D+00
     19  0.000000D+00  0.246792D-01 -0.146002D-01  0.000000D+00  0.460062D-03
     20  0.000000D+00  0.270881D-02  0.207527D-01  0.000000D+00 -0.335115D-02
     21  0.865350D-03  0.000000D+00  0.000000D+00  0.816550D-02  0.000000D+00
     22  0.000000D+00 -0.190165D-02  0.190021D-03  0.000000D+00  0.746481D-03
     23  0.000000D+00  0.174539D-02  0.347295D-02  0.000000D+00  0.183533D-02
     24  0.730930D-03  0.000000D+00  0.000000D+00  0.224620D-02  0.000000D+00
               11            12            13            14            15 
     11  0.404819D-01
     12  0.000000D+00  0.119069D-01
     13  0.388439D-02  0.000000D+00  0.181919D+00
     14  0.313570D-02  0.000000D+00  0.186440D+00  0.741225D+00
     15  0.000000D+00 -0.306439D-02  0.000000D+00  0.000000D+00  0.567699D-01
     16 -0.896990D-02  0.000000D+00 -0.463703D-02 -0.113698D-01  0.000000D+00
     17  0.183486D-01  0.000000D+00 -0.113698D-01 -0.358803D-01  0.000000D+00
     18  0.000000D+00  0.530841D-02  0.000000D+00  0.000000D+00  0.558301D-02
     19  0.494455D-02  0.000000D+00 -0.794792D-04 -0.156444D-02  0.000000D+00
     20 -0.394148D-03  0.000000D+00 -0.191808D-02 -0.311486D-02  0.000000D+00
     21  0.000000D+00  0.730930D-03  0.000000D+00  0.000000D+00 -0.820424D-03
     22  0.249593D-03  0.000000D+00 -0.636285D-01 -0.477466D-01  0.000000D+00
     23 -0.228138D-03  0.000000D+00 -0.595474D-01 -0.271514D+00  0.000000D+00
     24  0.000000D+00  0.865350D-03  0.000000D+00  0.000000D+00 -0.255402D-01
               16            17            18            19            20 
     16  0.181919D+00
     17  0.186440D+00  0.741225D+00
     18  0.000000D+00  0.000000D+00  0.567699D-01
     19 -0.636285D-01 -0.477466D-01  0.000000D+00  0.399673D-01
     20 -0.595474D-01 -0.271514D+00  0.000000D+00  0.589636D-01  0.253146D+00
     21  0.000000D+00  0.000000D+00 -0.255402D-01  0.000000D+00  0.000000D+00
     22 -0.794792D-04 -0.156444D-02  0.000000D+00 -0.243399D-03 -0.436541D-03
     23 -0.191808D-02 -0.311486D-02  0.000000D+00 -0.436541D-03 -0.212084D-02
     24  0.000000D+00  0.000000D+00 -0.820424D-03  0.000000D+00  0.000000D+00
               21            22            23            24 
     21  0.143495D-01
     22  0.000000D+00  0.399673D-01
     23  0.000000D+00  0.589636D-01  0.253146D+00
     24  0.313942D-05  0.000000D+00  0.000000D+00  0.143495D-01
 Leave Link  716 at Wed Jun 22 00:26:12 2016, MaxMem=    33554432 cpu:         0.3
 (Enter /home/proyectos/fulerenos/M3C-v1.9/M3C-deps_CCC/g09-AM64L-G09RevC.01/l103.exe)

 GradGradGradGradGradGradGradGradGradGradGradGradGradGradGradGradGradGrad
 Berny optimization.
 Search for a local minimum.
 Step number   1 out of a maximum of    2
 All quantities printed in internal units (Hartrees-Bohrs-Radians)
 Second derivative matrix not updated -- analytic derivatives used.
 ITU=  0
     Eigenvalues ---    0.00324   0.00559   0.01131   0.02824   0.03598
     Eigenvalues ---    0.03846   0.07564   0.10400   0.11447   0.15513
     Eigenvalues ---    0.15933   0.17693   0.29609   0.41817   0.45977
     Eigenvalues ---    0.67461   1.19448   1.47417
 Angle between quadratic step and forces=  46.39 degrees.
 ClnCor:  largest displacement from symmetrization is 6.19D-12 for atom     8.
 Linear search not attempted -- first point.
 ClnCor:  largest displacement from symmetrization is 0.00D+00 for atom     0.
 B after Tr=     0.000000    0.000000    0.000000
         Rot=    1.000000    0.000000    0.000000    0.000004 Ang=   0.00 deg.
 Variable       Old X    -DE/DX   Delta X   Delta X   Delta X     New X
                                 (Linear)    (Quad)   (Total)
    X1       -0.49154  -0.00004   0.00000   0.00004   0.00005  -0.49149
    Y1        1.25403   0.00005   0.00000   0.00008   0.00008   1.25412
    Z1        0.00000  -0.00000   0.00000   0.00000   0.00000   0.00000
    X2       -2.63784   0.00009   0.00000   0.00034   0.00036  -2.63749
    Y2        1.65892  -0.00006   0.00000  -0.00113  -0.00111   1.65781
    Z2        0.00000  -0.00000   0.00000   0.00000   0.00000   0.00000
    X3        0.49154   0.00004   0.00000  -0.00004  -0.00005   0.49149
    Y3       -1.25403  -0.00005   0.00000  -0.00008  -0.00008  -1.25412
    Z3        0.00000  -0.00000   0.00000   0.00000   0.00000   0.00000
    X4        2.63784  -0.00009   0.00000  -0.00034  -0.00036   2.63749
    Y4       -1.65892   0.00006   0.00000   0.00113   0.00111  -1.65781
    Z4        0.00000  -0.00000   0.00000   0.00000   0.00000   0.00000
    X5        0.49154   0.00000   0.00000   0.00009   0.00012   0.49166
    Y5        3.55532   0.00001   0.00000   0.00018   0.00018   3.55550
    Z5        0.00000  -0.00000   0.00000   0.00000   0.00000   0.00000
    X6       -0.49154  -0.00000   0.00000  -0.00009  -0.00012  -0.49166
    Y6       -3.55532  -0.00001   0.00000  -0.00018  -0.00018  -3.55550
    Z6        0.00000  -0.00000   0.00000   0.00000   0.00000   0.00000
    X7       -1.02538  -0.00001   0.00000  -0.00034  -0.00039  -1.02576
    Y7       -5.62413  -0.00004   0.00000  -0.00028  -0.00027  -5.62440
    Z7        0.00000  -0.00000   0.00000   0.00000   0.00000   0.00000
    X8        1.02538   0.00001   0.00000   0.00034   0.00039   1.02576
    Y8        5.62413   0.00004   0.00000   0.00028   0.00027   5.62440
    Z8        0.00000  -0.00000   0.00000   0.00000   0.00000   0.00000
         Item               Value     Threshold  Converged?
 Maximum Force            0.000087     0.000450     YES
 RMS     Force            0.000037     0.000300     YES
 Maximum Displacement     0.001109     0.001800     YES
 RMS     Displacement     0.000369     0.001200     YES
 Predicted change in Energy=-1.144314D-07
 Optimization completed.
    -- Stationary point found.
 GradGradGradGradGradGradGradGradGradGradGradGradGradGradGradGradGradGrad

 Leave Link  103 at Wed Jun 22 00:26:12 2016, MaxMem=    33554432 cpu:         0.1
 (Enter /home/proyectos/fulerenos/M3C-v1.9/M3C-deps_CCC/g09-AM64L-G09RevC.01/l9999.exe)
 1\1\GINC-BLADI10\Freq\UB3LYP\6-311++G(3df,2p)\C4H4(3+,2)\ROOT\22-Jun-2
 016\0\\#p b3lyp/6-311++G(3df,2p) freq symmetry=Loose\\b3lyp opt\\3,2\C
 ,-0.260114,0.663605,0.\H,-1.395887,0.877862,0.\C,0.260114,-0.663605,0.
 \H,1.395887,-0.877862,0.\C,0.260114,1.881394,0.\C,-0.260114,-1.881394,
 0.\H,-0.542606,-2.97616,0.\H,0.542606,2.97616,0.\\Version=EM64L-G09Rev
 E.01\State=2-BG\HF=-152.9914904\S2=0.778495\S2-1=0.\S2A=0.750144\RMSD=
 9.702e-09\RMSF=3.743e-05\ZeroPoint=0.0506028\Thermal=0.0555582\Dipole=
 0.,0.,0.\DipoleDeriv=-0.2432237,-0.4436745,0.,-0.0196841,-0.8118237,0.
 ,0.,0.,0.2992144,0.6816835,-0.1121259,0.,-0.1358132,0.1515806,0.,0.,0.
 ,0.2525425,-0.2432236,-0.4436746,0.,-0.0196841,-0.8118237,0.,0.,0.,0.2
 992144,0.6816835,-0.1121259,0.,-0.1358132,0.1515805,0.,0.,0.,0.2525425
 ,0.7820879,0.3318859,0.,-0.0010098,1.177004,0.,0.,0.,0.6544199,0.78208
 79,0.3318858,0.,-0.0010098,1.1770041,0.,0.,0.,0.6544199,0.2794522,0.22
 39146,0.,0.1565071,0.9832391,0.,0.,0.,0.2938232,0.2794522,0.2239145,0.
 ,0.1565071,0.9832391,0.,0.,0.,0.2938232\Polar=27.0162224,3.7923563,74.
 4801769,0.,0.,18.4270465\PG=C02H [SGH(C4H4)]\NImag=0\\0.34439820,0.017
 81316,0.77726262,0.,0.,0.09686185,-0.19385222,0.03198622,0.,0.22330737
 ,-0.00469451,-0.05260342,0.,-0.01912588,0.04048188,0.,0.,-0.02662973,0
 .,0.,0.01190689,-0.07394313,0.07543576,0.,-0.00800907,0.02340755,0.,0.
 34439820,0.07543576,-0.29212401,0.,-0.00230547,-0.00456061,0.,0.017813
 16,0.77726262,0.,0.,-0.04911918,0.,0.,0.00671168,0.,0.,0.09686185,-0.0
 0800907,-0.00230547,0.,-0.00044951,0.00030421,0.,-0.19385222,0.0319862
 2,0.,0.22330737,0.02340755,-0.00456061,0.,0.00030421,-0.00417990,0.,-0
 .00469451,-0.05260342,0.,-0.01912588,0.04048188,0.,0.,0.00671168,0.,0.
 ,0.00417086,0.,0.,-0.02662973,0.,0.,0.01190689,-0.08972763,-0.12527339
 ,0.,-0.02724876,-0.00896990,0.,-0.00164370,0.01675386,0.,0.00504564,0.
 00388439,0.,0.18191948,-0.10995109,-0.45217263,0.,-0.01217124,0.018348
 64,0.,-0.00646507,-0.00002763,0.,0.00282799,0.00313570,0.,0.18644026,0
 .74122489,0.,0.,-0.04177882,0.,0.,0.00530841,0.,0.,0.00354249,0.,0.,-0
 .00306439,0.,0.,0.05676990,-0.00164370,0.01675386,0.,0.00504564,0.0038
 8439,0.,-0.08972763,-0.12527339,0.,-0.02724876,-0.00896990,0.,-0.00463
 703,-0.01136978,0.,0.18191948,-0.00646507,-0.00002763,0.,0.00282799,0.
 00313570,0.,-0.10995109,-0.45217263,0.,-0.01217124,0.01834864,0.,-0.01
 136978,-0.03588033,0.,0.18644026,0.74122489,0.,0.,0.00354249,0.,0.,-0.
 00306439,0.,0.,-0.04177882,0.,0.,0.00530841,0.,0.,0.00558301,0.,0.,0.0
 5676990,-0.00190165,0.00019002,0.,0.00074648,0.00024959,0.,0.02467919,
 -0.01460016,0.,0.00046006,0.00494455,0.,-0.00007948,-0.00156444,0.,-0.
 06362852,-0.04774663,0.,0.03996731,0.00174539,0.00347295,0.,0.00183533
 ,-0.00022814,0.,0.00270881,0.02075273,0.,-0.00335115,-0.00039415,0.,-0
 .00191808,-0.00311486,0.,-0.05954736,-0.27151378,0.,0.05896360,0.25314
 609,0.,0.,0.00224620,0.,0.,0.00086535,0.,0.,0.00816550,0.,0.,0.0007309
 3,0.,0.,-0.00082042,0.,0.,-0.02554018,0.,0.,0.01434948,0.02467919,-0.0
 1460016,0.,0.00046006,0.00494455,0.,-0.00190165,0.00019002,0.,0.000746
 48,0.00024959,0.,-0.06362852,-0.04774663,0.,-0.00007948,-0.00156444,0.
 ,-0.00024340,-0.00043654,0.,0.03996731,0.00270881,0.02075273,0.,-0.003
 35115,-0.00039415,0.,0.00174539,0.00347295,0.,0.00183533,-0.00022814,0
 .,-0.05954736,-0.27151378,0.,-0.00191808,-0.00311486,0.,-0.00043654,-0
 .00212084,0.,0.05896360,0.25314609,0.,0.,0.00816550,0.,0.,0.00073093,0
 .,0.,0.00224620,0.,0.,0.00086535,0.,0.,-0.02554018,0.,0.,-0.00082042,0
 .,0.,0.00000314,0.,0.,0.01434948\\0.00003662,-0.00005417,0.,-0.0000866
 2,0.00005898,0.,-0.00003662,0.00005417,0.,0.00008662,-0.00005898,0.,-0
 .00000270,-0.00000534,0.,0.00000270,0.00000534,0.,0.00001072,0.0000374
 7,0.,-0.00001072,-0.00003747,0.\\\@


 It is also a good rule not to put too much confidence in
 experimental results until they have been confirmed by
 Theory.
                             -- Sir Arthur Eddington
 Job cpu time:       0 days  0 hours 24 minutes  9.1 seconds.
 File lengths (MBytes):  RWF=     38 Int=      0 D2E=      0 Chk=      4 Scr=      1
 Normal termination of Gaussian 09 at Wed Jun 22 00:26:12 2016.
