 Entering Gaussian System, Link 0=/home/proyectos/fulerenos/M3C-v1.9/M3C-deps_CCC/g09-AM64L-G09RevC.01/g09
 Initial command:
 /home/proyectos/fulerenos/M3C-v1.9/M3C-deps_CCC/g09-AM64L-G09RevC.01/l1.exe "/scratch/naguirre/gaussian/Gau-26138.inp" -scrdir="/scratch/naguirre/gaussian/"
 Entering Link 1 = /home/proyectos/fulerenos/M3C-v1.9/M3C-deps_CCC/g09-AM64L-G09RevC.01/l1.exe PID=     26146.
  
 Copyright (c) 1988,1990,1992,1993,1995,1998,2003,2009,2015,
            Gaussian, Inc.  All Rights Reserved.
  
 This is part of the Gaussian(R) 09 program.  It is based on
 the Gaussian(R) 03 system (copyright 2003, Gaussian, Inc.),
 the Gaussian(R) 98 system (copyright 1998, Gaussian, Inc.),
 the Gaussian(R) 94 system (copyright 1995, Gaussian, Inc.),
 the Gaussian 92(TM) system (copyright 1992, Gaussian, Inc.),
 the Gaussian 90(TM) system (copyright 1990, Gaussian, Inc.),
 the Gaussian 88(TM) system (copyright 1988, Gaussian, Inc.),
 the Gaussian 86(TM) system (copyright 1986, Carnegie Mellon
 University), and the Gaussian 82(TM) system (copyright 1983,
 Carnegie Mellon University). Gaussian is a federally registered
 trademark of Gaussian, Inc.
  
 This software contains proprietary and confidential information,
 including trade secrets, belonging to Gaussian, Inc.
  
 This software is provided under written license and may be
 used, copied, transmitted, or stored only in accord with that
 written license.
  
 The following legend is applicable only to US Government
 contracts under FAR:
  
                    RESTRICTED RIGHTS LEGEND
  
 Use, reproduction and disclosure by the US Government is
 subject to restrictions as set forth in subparagraphs (a)
 and (c) of the Commercial Computer Software - Restricted
 Rights clause in FAR 52.227-19.
  
 Gaussian, Inc.
 340 Quinnipiac St., Bldg. 40, Wallingford CT 06492
  
  
 ---------------------------------------------------------------
 Warning -- This program may not be used in any manner that
 competes with the business of Gaussian, Inc. or will provide
 assistance to any competitor of Gaussian, Inc.  The licensee
 of this program is prohibited from giving any competitor of
 Gaussian, Inc. access to this program.  By using this program,
 the user acknowledges that Gaussian, Inc. is engaged in the
 business of creating and licensing software in the field of
 computational chemistry and represents and warrants to the
 licensee that it is not a competitor of Gaussian, Inc. and that
 it will not use this program in any manner prohibited above.
 ---------------------------------------------------------------
  

 Cite this work as:
 Gaussian 09, Revision E.01,
 M. J. Frisch, G. W. Trucks, H. B. Schlegel, G. E. Scuseria, 
 M. A. Robb, J. R. Cheeseman, G. Scalmani, V. Barone, B. Mennucci, 
 G. A. Petersson, H. Nakatsuji, M. Caricato, X. Li, H. P. Hratchian, 
 A. F. Izmaylov, J. Bloino, G. Zheng, J. L. Sonnenberg, M. Hada, 
 M. Ehara, K. Toyota, R. Fukuda, J. Hasegawa, M. Ishida, T. Nakajima, 
 Y. Honda, O. Kitao, H. Nakai, T. Vreven, J. A. Montgomery, Jr., 
 J. E. Peralta, F. Ogliaro, M. Bearpark, J. J. Heyd, E. Brothers, 
 K. N. Kudin, V. N. Staroverov, T. Keith, R. Kobayashi, J. Normand, 
 K. Raghavachari, A. Rendell, J. C. Burant, S. S. Iyengar, J. Tomasi, 
 M. Cossi, N. Rega, J. M. Millam, M. Klene, J. E. Knox, J. B. Cross, 
 V. Bakken, C. Adamo, J. Jaramillo, R. Gomperts, R. E. Stratmann, 
 O. Yazyev, A. J. Austin, R. Cammi, C. Pomelli, J. W. Ochterski, 
 R. L. Martin, K. Morokuma, V. G. Zakrzewski, G. A. Voth, 
 P. Salvador, J. J. Dannenberg, S. Dapprich, A. D. Daniels, 
 O. Farkas, J. B. Foresman, J. V. Ortiz, J. Cioslowski, 
 and D. J. Fox, Gaussian, Inc., Wallingford CT, 2013.
 
 ******************************************
 Gaussian 09:  EM64L-G09RevE.01 30-Nov-2015
                20-Jun-2016 
 ******************************************
 %NProcShared=4
 Will use up to    4 processors via shared memory.
 ---------------------------------------------
 #p b3lyp/6-311++G(3df,2p) freq symmetry=Loose
 ---------------------------------------------
 1/10=4,30=1,38=1/1,3;
 2/12=2,17=4,18=3,40=1/2;
 3/5=4,6=6,7=1216,11=2,16=1,25=1,30=1,71=2,74=-5,140=1/1,2,3;
 4//1;
 5/5=2,38=5,98=1/2;
 8/6=4,10=90,11=11/1;
 11/6=1,8=1,9=11,15=111,16=1/1,2,10;
 10/6=1/2;
 6/7=2,8=2,9=2,10=2,18=1,28=1/1;
 7/8=1,10=1,25=1/1,2,3,16;
 1/10=4,30=1/3;
 99//99;
 Leave Link    1 at Mon Jun 20 04:39:51 2016, MaxMem=           0 cpu:         0.2
 (Enter /home/proyectos/fulerenos/M3C-v1.9/M3C-deps_CCC/g09-AM64L-G09RevC.01/l101.exe)
 ---------
 b3lyp opt
 ---------
 Symbolic Z-matrix:
 Charge =  1 Multiplicity = 2
 C                    -1.44219  -0.06515  -0.0082 
 H                    -2.5095   -0.09067  -0.15866 
 C                    -0.44496   0.92806  -0.04203 
 C                    -0.42899  -0.88744   0.16182 
 H                     1.31997  -1.09208  -1.04138 
 C                     0.90462   0.81526  -0.00935 
 H                     1.61973   1.56092   0.30772 
 C                     1.05554  -0.67051  -0.06877 
 H                     1.70317  -1.09305   0.70059 
 
 NAtoms=      9 NQM=        9 NQMF=       0 NMMI=      0 NMMIF=      0
                NMic=       0 NMicF=      0.
                    Isotopes and Nuclear Properties:
 (Nuclear quadrupole moments (NQMom) in fm**2, nuclear magnetic moments (NMagM)
  in nuclear magnetons)

  Atom         1           2           3           4           5           6           7           8           9
 IAtWgt=          12           1          12          12           1          12           1          12           1
 AtmWgt=  12.0000000   1.0078250  12.0000000  12.0000000   1.0078250  12.0000000   1.0078250  12.0000000   1.0078250
 NucSpn=           0           1           0           0           1           0           1           0           1
 AtZEff=   0.0000000   0.0000000   0.0000000   0.0000000   0.0000000   0.0000000   0.0000000   0.0000000   0.0000000
 NQMom=    0.0000000   0.0000000   0.0000000   0.0000000   0.0000000   0.0000000   0.0000000   0.0000000   0.0000000
 NMagM=    0.0000000   2.7928460   0.0000000   0.0000000   2.7928460   0.0000000   2.7928460   0.0000000   2.7928460
 AtZNuc=   6.0000000   1.0000000   6.0000000   6.0000000   1.0000000   6.0000000   1.0000000   6.0000000   1.0000000
 Leave Link  101 at Mon Jun 20 04:39:51 2016, MaxMem=    33554432 cpu:         0.2
 (Enter /home/proyectos/fulerenos/M3C-v1.9/M3C-deps_CCC/g09-AM64L-G09RevC.01/l103.exe)

 GradGradGradGradGradGradGradGradGradGradGradGradGradGradGradGradGradGrad
 Berny optimization.
 Initialization pass.
 Trust Radius=3.00D-01 FncErr=1.00D-07 GrdErr=1.00D-07
 Number of steps in this run=      2 maximum allowed number of steps=      2.
 GradGradGradGradGradGradGradGradGradGradGradGradGradGradGradGradGradGrad

 Leave Link  103 at Mon Jun 20 04:39:51 2016, MaxMem=    33554432 cpu:         0.1
 (Enter /home/proyectos/fulerenos/M3C-v1.9/M3C-deps_CCC/g09-AM64L-G09RevC.01/l202.exe)
                          Input orientation:                          
 ---------------------------------------------------------------------
 Center     Atomic      Atomic             Coordinates (Angstroms)
 Number     Number       Type             X           Y           Z
 ---------------------------------------------------------------------
      1          6           0       -1.442188   -0.065151   -0.008198
      2          1           0       -2.509497   -0.090674   -0.158662
      3          6           0       -0.444963    0.928055   -0.042025
      4          6           0       -0.428987   -0.887435    0.161818
      5          1           0        1.319967   -1.092077   -1.041377
      6          6           0        0.904615    0.815262   -0.009349
      7          1           0        1.619726    1.560916    0.307719
      8          6           0        1.055543   -0.670507   -0.068767
      9          1           0        1.703166   -1.093049    0.700593
 ---------------------------------------------------------------------
                    Distance matrix (angstroms):
                    1          2          3          4          5
     1  C    0.000000
     2  H    1.078165   0.000000
     3  C    1.407857   2.305149   0.000000
     4  C    1.315915   2.250790   1.826968   0.000000
     5  H    3.122745   4.055464   2.862624   2.132697   0.000000
     6  C    2.506514   3.535417   1.354677   2.169555   2.208063
     7  H    3.481266   4.471660   2.187641   3.195768   2.991369
     8  C    2.570756   3.613004   2.192632   1.517912   1.092525
     9  H    3.384112   4.414703   3.041513   2.208763   1.783620
                    6          7          8          9
     6  C    0.000000
     7  H    1.080702   0.000000
     8  C    1.494597   2.332229   0.000000
     9  H    2.187088   2.684184   1.090813   0.000000
 Stoichiometry    C5H4(1+,2)
 Framework group  C1[X(C5H4)]
 Deg. of freedom    21
 Full point group                 C1      NOp   1
 Largest Abelian subgroup         C1      NOp   1
 Largest concise Abelian subgroup C1      NOp   1
                         Standard orientation:                         
 ---------------------------------------------------------------------
 Center     Atomic      Atomic             Coordinates (Angstroms)
 Number     Number       Type             X           Y           Z
 ---------------------------------------------------------------------
      1          6           0        1.442118   -0.065234    0.008618
      2          1           0        2.509411   -0.090713    0.159200
      3          6           0        0.444814    0.927888    0.042568
      4          6           0        0.428999   -0.887554   -0.161712
      5          1           0       -1.320079   -1.092616    1.041231
      6          6           0       -0.904752    0.815001    0.009709
      7          1           0       -1.619882    1.560678   -0.307263
      8          6           0       -1.055574   -0.670793    0.068753
      9          1           0       -1.703076   -1.093199   -0.700784
 ---------------------------------------------------------------------
 Rotational constants (GHZ):     12.5868368      7.3856793      4.8393913
 Leave Link  202 at Mon Jun 20 04:39:51 2016, MaxMem=    33554432 cpu:         0.0
 (Enter /home/proyectos/fulerenos/M3C-v1.9/M3C-deps_CCC/g09-AM64L-G09RevC.01/l301.exe)
 Standard basis: 6-311++G(3df,2p) (5D, 7F)
 Ernie: Thresh=  0.10000D-02 Tol=  0.10000D-05 Strict=F.
 There are   265 symmetry adapted cartesian basis functions of A   symmetry.
 There are   235 symmetry adapted basis functions of A   symmetry.
   235 basis functions,   338 primitive gaussians,   265 cartesian basis functions
    17 alpha electrons       16 beta electrons
       nuclear repulsion energy       142.2211469944 Hartrees.
 IExCor=  402 DFT=T Ex+Corr=B3LYP ExCW=0 ScaHFX=  0.200000
 ScaDFX=  0.800000  0.720000  1.000000  0.810000 ScalE2=  1.000000  1.000000
 IRadAn=      0 IRanWt=     -1 IRanGd=            0 ICorTp=0 IEmpDi=  4
 NAtoms=    9 NActive=    9 NUniq=    9 SFac= 1.00D+00 NAtFMM=   60 NAOKFM=F Big=F
 Integral buffers will be    131072 words long.
 Raffenetti 2 integral format.
 Two-electron integral symmetry is turned on.
 Leave Link  301 at Mon Jun 20 04:39:51 2016, MaxMem=    33554432 cpu:         0.2
 (Enter /home/proyectos/fulerenos/M3C-v1.9/M3C-deps_CCC/g09-AM64L-G09RevC.01/l302.exe)
 NPDir=0 NMtPBC=     1 NCelOv=     1 NCel=       1 NClECP=     1 NCelD=      1
         NCelK=      1 NCelE2=     1 NClLst=     1 CellRange=     0.0.
 One-electron integrals computed using PRISM.
 NBasis=   235 RedAO= T EigKep=  8.97D-06  NBF=   235
 NBsUse=   235 1.00D-06 EigRej= -1.00D+00 NBFU=   235
 Precomputing XC quadrature grid using
 IXCGrd= 4 IRadAn=           0 IRanWt=          -1 IRanGd=           0 AccXCQ= 0.00D+00.
 Generated NRdTot=       0 NPtTot=           0 NUsed=           0 NTot=          32
 NSgBfM=   265   265   265   265   265 MxSgAt=     9 MxSgA2=     9.
 Leave Link  302 at Mon Jun 20 04:39:51 2016, MaxMem=    33554432 cpu:         1.3
 (Enter /home/proyectos/fulerenos/M3C-v1.9/M3C-deps_CCC/g09-AM64L-G09RevC.01/l303.exe)
 DipDrv:  MaxL=1.
 Leave Link  303 at Mon Jun 20 04:39:51 2016, MaxMem=    33554432 cpu:         0.1
 (Enter /home/proyectos/fulerenos/M3C-v1.9/M3C-deps_CCC/g09-AM64L-G09RevC.01/l401.exe)
 ExpMin= 3.60D-02 ExpMax= 4.56D+03 ExpMxC= 6.82D+02 IAcc=3 IRadAn=         5 AccDes= 0.00D+00
 Harris functional with IExCor=  402 and IRadAn=       5 diagonalized for initial guess.
 HarFok:  IExCor=  402 AccDes= 0.00D+00 IRadAn=         5 IDoV= 1 UseB2=F ITyADJ=14
 ICtDFT=  3500011 ScaDFX=  1.000000  1.000000  1.000000  1.000000
 FoFCou: FMM=F IPFlag=           0 FMFlag=      100000 FMFlg1=           0
         NFxFlg=           0 DoJE=T BraDBF=F KetDBF=T FulRan=T
         wScrn=  0.000000 ICntrl=     500 IOpCl=  0 I1Cent=   200000004 NGrid=           0
         NMat0=    1 NMatS0=      1 NMatT0=    0 NMatD0=    1 NMtDS0=    0 NMtDT0=    0
 Petite list used in FoFCou.
 Harris En= -192.520117840876    
 JPrj=0 DoOrth=F DoCkMO=F.
 Initial guess <Sx>= 0.0000 <Sy>= 0.0000 <Sz>= 0.5000 <S**2>= 0.7500 S= 0.5000
 Leave Link  401 at Mon Jun 20 04:39:54 2016, MaxMem=    33554432 cpu:        11.5
 (Enter /home/proyectos/fulerenos/M3C-v1.9/M3C-deps_CCC/g09-AM64L-G09RevC.01/l502.exe)
 UHF open shell SCF:
 Using DIIS extrapolation, IDIIS=  1040.
 Integral symmetry usage will be decided dynamically.
 IVT=      232727 IEndB=      232727 NGot=    33554432 MDV=    33408836
 LenX=    33408836 LenY=    33338170
 Requested convergence on RMS density matrix=1.00D-08 within 128 cycles.
 Requested convergence on MAX density matrix=1.00D-06.
 Requested convergence on             energy=1.00D-06.
 No special actions if energy rises.
 Fock matrices will be formed incrementally for  20 cycles.

 Cycle   1  Pass 1  IDiag  1:
 FoFJK:  IHMeth= 1 ICntrl=       0 DoSepK=F KAlg= 0 I1Cent=   0 FoldK=F
 IRaf= 990000000 NMat=   1 IRICut=       1 DoRegI=T DoRafI=F ISym2E= 0.
 FoFCou: FMM=F IPFlag=           0 FMFlag=      100000 FMFlg1=           0
         NFxFlg=           0 DoJE=F BraDBF=F KetDBF=F FulRan=T
         wScrn=  0.000000 ICntrl=       0 IOpCl=  1 I1Cent=           0 NGrid=           0
         NMat0=    1 NMatS0=      1 NMatT0=    0 NMatD0=    1 NMtDS0=    0 NMtDT0=    0
 Symmetry not used in FoFCou.
 E= -192.405880776626    
 DIIS: error= 1.76D-02 at cycle   1 NSaved=   1.
 NSaved= 1 IEnMin= 1 EnMin= -192.405880776626     IErMin= 1 ErrMin= 1.76D-02
 ErrMax= 1.76D-02  0.00D+00 EMaxC= 1.00D-01 BMatC= 3.33D-01 BMatP= 3.33D-01
 IDIUse=3 WtCom= 8.24D-01 WtEn= 1.76D-01
 Coeff-Com:  0.100D+01
 Coeff-En:   0.100D+01
 Coeff:      0.100D+01
 Gap=     0.132 Goal=   None    Shift=    0.000
 Gap=     0.100 Goal=   None    Shift=    0.000
 GapD=    0.100 DampG=1.000 DampE=0.500 DampFc=0.5000 IDamp=-1.
 Damping current iteration by 5.00D-01
 RMSDP=3.24D-03 MaxDP=2.92D-01              OVMax= 2.83D-01

 Cycle   2  Pass 1  IDiag  1:
 RMSU=  1.61D-03    CP:  1.01D+00
 E= -192.425501150069     Delta-E=       -0.019620373443 Rises=F Damp=T
 DIIS: error= 7.34D-03 at cycle   2 NSaved=   2.
 NSaved= 2 IEnMin= 2 EnMin= -192.425501150069     IErMin= 2 ErrMin= 7.34D-03
 ErrMax= 7.34D-03  0.00D+00 EMaxC= 1.00D-01 BMatC= 6.32D-02 BMatP= 3.33D-01
 IDIUse=3 WtCom= 9.27D-01 WtEn= 7.34D-02
 Coeff-Com:  0.181D+00 0.819D+00
 Coeff-En:   0.347D+00 0.653D+00
 Coeff:      0.194D+00 0.806D+00
 Gap=     0.166 Goal=   None    Shift=    0.000
 Gap=     0.121 Goal=   None    Shift=    0.000
 RMSDP=1.63D-03 MaxDP=1.06D-01 DE=-1.96D-02 OVMax= 2.44D-01

 Cycle   3  Pass 1  IDiag  1:
 RMSU=  1.44D-03    CP:  1.00D+00  5.36D-01
 E= -192.459711089666     Delta-E=       -0.034209939597 Rises=F Damp=F
 DIIS: error= 1.05D-02 at cycle   3 NSaved=   3.
 NSaved= 3 IEnMin= 3 EnMin= -192.459711089666     IErMin= 2 ErrMin= 7.34D-03
 ErrMax= 1.05D-02  0.00D+00 EMaxC= 1.00D-01 BMatC= 7.38D-02 BMatP= 6.32D-02
 IDIUse=2 WtCom= 0.00D+00 WtEn= 1.00D+00
 Coeff-En:   0.000D+00 0.843D-01 0.916D+00
 Coeff:      0.000D+00 0.843D-01 0.916D+00
 Gap=     0.139 Goal=   None    Shift=    0.000
 Gap=     0.123 Goal=   None    Shift=    0.000
 RMSDP=3.27D-03 MaxDP=2.38D-01 DE=-3.42D-02 OVMax= 2.78D-01

 Cycle   4  Pass 1  IDiag  1:
 RMSU=  1.34D-03    CP:  1.02D+00  1.65D+00 -6.41D-01
 E= -192.341487797747     Delta-E=        0.118223291919 Rises=F Damp=F
 DIIS: error= 2.96D-02 at cycle   4 NSaved=   4.
 NSaved= 4 IEnMin= 3 EnMin= -192.459711089666     IErMin= 2 ErrMin= 7.34D-03
 ErrMax= 2.96D-02  0.00D+00 EMaxC= 1.00D-01 BMatC= 5.12D-01 BMatP= 6.32D-02
 IDIUse=2 WtCom= 0.00D+00 WtEn= 1.00D+00
 Coeff-En:   0.000D+00 0.000D+00 0.797D+00 0.203D+00
 Coeff:      0.000D+00 0.000D+00 0.797D+00 0.203D+00
 Gap=     0.153 Goal=   None    Shift=    0.000
 Gap=     0.114 Goal=   None    Shift=    0.000
 RMSDP=1.71D-03 MaxDP=1.30D-01 DE= 1.18D-01 OVMax= 1.45D-01

 Cycle   5  Pass 1  IDiag  1:
 RMSU=  3.03D-04    CP:  1.01D+00  1.09D+00  1.95D-01  4.39D-01
 E= -192.469676476910     Delta-E=       -0.128188679163 Rises=F Damp=F
 DIIS: error= 7.74D-03 at cycle   5 NSaved=   5.
 NSaved= 5 IEnMin= 5 EnMin= -192.469676476910     IErMin= 2 ErrMin= 7.34D-03
 ErrMax= 7.74D-03  0.00D+00 EMaxC= 1.00D-01 BMatC= 4.09D-02 BMatP= 6.32D-02
 IDIUse=3 WtCom= 9.23D-01 WtEn= 7.74D-02
 Coeff-Com:  0.187D-01-0.346D-01 0.387D+00-0.259D-01 0.655D+00
 Coeff-En:   0.000D+00 0.000D+00 0.391D+00 0.000D+00 0.609D+00
 Coeff:      0.172D-01-0.319D-01 0.387D+00-0.239D-01 0.651D+00
 Gap=     0.163 Goal=   None    Shift=    0.000
 Gap=     0.114 Goal=   None    Shift=    0.000
 RMSDP=6.83D-04 MaxDP=5.17D-02 DE=-1.28D-01 OVMax= 5.58D-02

 Cycle   6  Pass 1  IDiag  1:
 RMSU=  1.19D-04    CP:  1.00D+00  8.43D-01  5.36D-01  2.91D-01  7.58D-01
 E= -192.480963635085     Delta-E=       -0.011287158175 Rises=F Damp=F
 DIIS: error= 9.12D-04 at cycle   6 NSaved=   6.
 NSaved= 6 IEnMin= 6 EnMin= -192.480963635085     IErMin= 6 ErrMin= 9.12D-04
 ErrMax= 9.12D-04  0.00D+00 EMaxC= 1.00D-01 BMatC= 5.80D-04 BMatP= 4.09D-02
 IDIUse=3 WtCom= 9.91D-01 WtEn= 9.12D-03
 Coeff-Com:  0.662D-02-0.239D-01 0.120D+00-0.631D-01 0.400D+00 0.560D+00
 Coeff-En:   0.000D+00 0.000D+00 0.000D+00 0.000D+00 0.000D+00 0.100D+01
 Coeff:      0.656D-02-0.237D-01 0.119D+00-0.625D-01 0.397D+00 0.564D+00
 Gap=     0.163 Goal=   None    Shift=    0.000
 Gap=     0.115 Goal=   None    Shift=    0.000
 RMSDP=7.09D-05 MaxDP=3.47D-03 DE=-1.13D-02 OVMax= 7.25D-03

 Cycle   7  Pass 1  IDiag  1:
 RMSU=  5.16D-05    CP:  1.00D+00  8.49D-01  5.49D-01  2.83D-01  8.85D-01
                    CP:  8.43D-01
 E= -192.481129309539     Delta-E=       -0.000165674454 Rises=F Damp=F
 DIIS: error= 2.52D-04 at cycle   7 NSaved=   7.
 NSaved= 7 IEnMin= 7 EnMin= -192.481129309539     IErMin= 7 ErrMin= 2.52D-04
 ErrMax= 2.52D-04  0.00D+00 EMaxC= 1.00D-01 BMatC= 3.33D-05 BMatP= 5.80D-04
 IDIUse=3 WtCom= 9.97D-01 WtEn= 2.52D-03
 Coeff-Com:  0.258D-03-0.324D-02-0.159D-02-0.145D-01 0.415D-01 0.175D+00
 Coeff-Com:  0.802D+00
 Coeff-En:   0.000D+00 0.000D+00 0.000D+00 0.000D+00 0.000D+00 0.000D+00
 Coeff-En:   0.100D+01
 Coeff:      0.257D-03-0.323D-02-0.158D-02-0.145D-01 0.414D-01 0.175D+00
 Coeff:      0.803D+00
 Gap=     0.163 Goal=   None    Shift=    0.000
 Gap=     0.115 Goal=   None    Shift=    0.000
 RMSDP=4.01D-05 MaxDP=2.65D-03 DE=-1.66D-04 OVMax= 4.15D-03

 Cycle   8  Pass 1  IDiag  1:
 RMSU=  2.77D-05    CP:  1.00D+00  8.51D-01  5.61D-01  2.80D-01  9.29D-01
                    CP:  9.69D-01  1.21D+00
 E= -192.481148546538     Delta-E=       -0.000019236999 Rises=F Damp=F
 DIIS: error= 1.67D-04 at cycle   8 NSaved=   8.
 NSaved= 8 IEnMin= 8 EnMin= -192.481148546538     IErMin= 8 ErrMin= 1.67D-04
 ErrMax= 1.67D-04  0.00D+00 EMaxC= 1.00D-01 BMatC= 1.54D-05 BMatP= 3.33D-05
 IDIUse=3 WtCom= 9.98D-01 WtEn= 1.67D-03
 Coeff-Com: -0.182D-02 0.306D-02-0.423D-01 0.162D-01-0.120D+00-0.866D-01
 Coeff-Com:  0.464D+00 0.767D+00
 Coeff-En:   0.000D+00 0.000D+00 0.000D+00 0.000D+00 0.000D+00 0.000D+00
 Coeff-En:   0.000D+00 0.100D+01
 Coeff:     -0.182D-02 0.305D-02-0.422D-01 0.162D-01-0.119D+00-0.865D-01
 Coeff:      0.464D+00 0.767D+00
 Gap=     0.164 Goal=   None    Shift=    0.000
 Gap=     0.116 Goal=   None    Shift=    0.000
 RMSDP=2.95D-05 MaxDP=2.25D-03 DE=-1.92D-05 OVMax= 3.51D-03

 Cycle   9  Pass 1  IDiag  1:
 RMSU=  1.48D-05    CP:  1.00D+00  8.53D-01  5.65D-01  2.84D-01  9.48D-01
                    CP:  1.07D+00  1.57D+00  1.25D+00
 E= -192.481159768544     Delta-E=       -0.000011222006 Rises=F Damp=F
 DIIS: error= 7.49D-05 at cycle   9 NSaved=   9.
 NSaved= 9 IEnMin= 9 EnMin= -192.481159768544     IErMin= 9 ErrMin= 7.49D-05
 ErrMax= 7.49D-05  0.00D+00 EMaxC= 1.00D-01 BMatC= 2.05D-06 BMatP= 1.54D-05
 IDIUse=1 WtCom= 1.00D+00 WtEn= 0.00D+00
 Coeff-Com: -0.248D-03 0.335D-03-0.575D-02 0.490D-02-0.205D-01-0.268D-01
 Coeff-Com: -0.660D-01 0.105D-01 0.110D+01
 Coeff:     -0.248D-03 0.335D-03-0.575D-02 0.490D-02-0.205D-01-0.268D-01
 Coeff:     -0.660D-01 0.105D-01 0.110D+01
 Gap=     0.164 Goal=   None    Shift=    0.000
 Gap=     0.116 Goal=   None    Shift=    0.000
 RMSDP=2.11D-05 MaxDP=1.82D-03 DE=-1.12D-05 OVMax= 3.01D-03

 Cycle  10  Pass 1  IDiag  1:
 RMSU=  7.16D-06    CP:  1.00D+00  8.55D-01  5.67D-01  2.86D-01  9.61D-01
                    CP:  1.13D+00  1.79D+00  1.59D+00  1.58D+00
 E= -192.481163544668     Delta-E=       -0.000003776124 Rises=F Damp=F
 DIIS: error= 3.48D-05 at cycle  10 NSaved=  10.
 NSaved=10 IEnMin=10 EnMin= -192.481163544668     IErMin=10 ErrMin= 3.48D-05
 ErrMax= 3.48D-05  0.00D+00 EMaxC= 1.00D-01 BMatC= 9.71D-07 BMatP= 2.05D-06
 IDIUse=1 WtCom= 1.00D+00 WtEn= 0.00D+00
 Coeff-Com:  0.388D-03-0.484D-03 0.806D-02-0.185D-02 0.214D-01 0.105D-01
 Coeff-Com: -0.157D+00-0.212D+00 0.557D+00 0.774D+00
 Coeff:      0.388D-03-0.484D-03 0.806D-02-0.185D-02 0.214D-01 0.105D-01
 Coeff:     -0.157D+00-0.212D+00 0.557D+00 0.774D+00
 Gap=     0.164 Goal=   None    Shift=    0.000
 Gap=     0.116 Goal=   None    Shift=    0.000
 RMSDP=1.34D-05 MaxDP=1.28D-03 DE=-3.78D-06 OVMax= 1.85D-03

 Cycle  11  Pass 1  IDiag  1:
 RMSU=  3.71D-06    CP:  1.00D+00  8.57D-01  5.68D-01  2.87D-01  9.71D-01
                    CP:  1.16D+00  1.92D+00  1.83D+00  1.97D+00  1.49D+00
 E= -192.481165125063     Delta-E=       -0.000001580395 Rises=F Damp=F
 DIIS: error= 2.79D-05 at cycle  11 NSaved=  11.
 NSaved=11 IEnMin=11 EnMin= -192.481165125063     IErMin=11 ErrMin= 2.79D-05
 ErrMax= 2.79D-05  0.00D+00 EMaxC= 1.00D-01 BMatC= 2.60D-07 BMatP= 9.71D-07
 IDIUse=1 WtCom= 1.00D+00 WtEn= 0.00D+00
 Coeff-Com:  0.332D-03-0.632D-03 0.608D-02-0.284D-02 0.169D-01 0.165D-01
 Coeff-Com: -0.194D-01-0.474D-01-0.350D+00-0.841D-02 0.139D+01
 Coeff:      0.332D-03-0.632D-03 0.608D-02-0.284D-02 0.169D-01 0.165D-01
 Coeff:     -0.194D-01-0.474D-01-0.350D+00-0.841D-02 0.139D+01
 Gap=     0.164 Goal=   None    Shift=    0.000
 Gap=     0.116 Goal=   None    Shift=    0.000
 RMSDP=1.57D-05 MaxDP=1.48D-03 DE=-1.58D-06 OVMax= 2.25D-03

 Cycle  12  Pass 1  IDiag  1:
 RMSU=  2.25D-06    CP:  1.00D+00  8.58D-01  5.69D-01  2.88D-01  9.79D-01
                    CP:  1.20D+00  2.05D+00  2.10D+00  2.46D+00  2.37D+00
                    CP:  1.90D+00
 E= -192.481166174576     Delta-E=       -0.000001049513 Rises=F Damp=F
 DIIS: error= 1.08D-05 at cycle  12 NSaved=  12.
 NSaved=12 IEnMin=12 EnMin= -192.481166174576     IErMin=12 ErrMin= 1.08D-05
 ErrMax= 1.08D-05  0.00D+00 EMaxC= 1.00D-01 BMatC= 7.76D-08 BMatP= 2.60D-07
 IDIUse=1 WtCom= 1.00D+00 WtEn= 0.00D+00
 Coeff-Com: -0.379D-04-0.152D-03-0.243D-02 0.120D-02-0.862D-02-0.573D-02
 Coeff-Com:  0.445D-01 0.855D-01-0.110D+00-0.381D+00-0.854D-01 0.146D+01
 Coeff:     -0.379D-04-0.152D-03-0.243D-02 0.120D-02-0.862D-02-0.573D-02
 Coeff:      0.445D-01 0.855D-01-0.110D+00-0.381D+00-0.854D-01 0.146D+01
 Gap=     0.164 Goal=   None    Shift=    0.000
 Gap=     0.116 Goal=   None    Shift=    0.000
 RMSDP=1.08D-05 MaxDP=9.98D-04 DE=-1.05D-06 OVMax= 1.47D-03

 Cycle  13  Pass 1  IDiag  1:
 RMSU=  1.04D-06    CP:  1.00D+00  8.60D-01  5.71D-01  2.88D-01  9.85D-01
                    CP:  1.22D+00  2.14D+00  2.28D+00  2.76D+00  3.00D+00
                    CP:  2.76D+00  1.81D+00
 E= -192.481166462442     Delta-E=       -0.000000287865 Rises=F Damp=F
 DIIS: error= 5.70D-06 at cycle  13 NSaved=  13.
 NSaved=13 IEnMin=13 EnMin= -192.481166462442     IErMin=13 ErrMin= 5.70D-06
 ErrMax= 5.70D-06  0.00D+00 EMaxC= 1.00D-01 BMatC= 1.37D-08 BMatP= 7.76D-08
 IDIUse=1 WtCom= 1.00D+00 WtEn= 0.00D+00
 Coeff-Com: -0.243D-04 0.118D-04-0.495D-03 0.223D-03-0.642D-03 0.128D-02
 Coeff-Com: -0.352D-02-0.144D-01 0.592D-01 0.531D-01-0.148D+00-0.244D+00
 Coeff-Com:  0.130D+01
 Coeff:     -0.243D-04 0.118D-04-0.495D-03 0.223D-03-0.642D-03 0.128D-02
 Coeff:     -0.352D-02-0.144D-01 0.592D-01 0.531D-01-0.148D+00-0.244D+00
 Coeff:      0.130D+01
 Gap=     0.164 Goal=   None    Shift=    0.000
 Gap=     0.116 Goal=   None    Shift=    0.000
 RMSDP=2.92D-06 MaxDP=3.03D-04 DE=-2.88D-07 OVMax= 3.87D-04

 Cycle  14  Pass 1  IDiag  1:
 RMSU=  1.20D-06    CP:  1.00D+00  8.60D-01  5.71D-01  2.89D-01  9.87D-01
                    CP:  1.22D+00  2.16D+00  2.32D+00  2.84D+00  3.00D+00
                    CP:  2.99D+00  2.15D+00  1.74D+00
 E= -192.481166485974     Delta-E=       -0.000000023532 Rises=F Damp=F
 DIIS: error= 1.59D-06 at cycle  14 NSaved=  14.
 NSaved=14 IEnMin=14 EnMin= -192.481166485974     IErMin=14 ErrMin= 1.59D-06
 ErrMax= 1.59D-06  0.00D+00 EMaxC= 1.00D-01 BMatC= 1.42D-09 BMatP= 1.37D-08
 IDIUse=1 WtCom= 1.00D+00 WtEn= 0.00D+00
 Coeff-Com: -0.488D-06 0.280D-04 0.972D-04-0.676D-04 0.656D-03 0.828D-03
 Coeff-Com: -0.449D-02-0.119D-01 0.213D-01 0.510D-01-0.110D-01-0.211D+00
 Coeff-Com:  0.190D+00 0.975D+00
 Coeff:     -0.488D-06 0.280D-04 0.972D-04-0.676D-04 0.656D-03 0.828D-03
 Coeff:     -0.449D-02-0.119D-01 0.213D-01 0.510D-01-0.110D-01-0.211D+00
 Coeff:      0.190D+00 0.975D+00
 Gap=     0.164 Goal=   None    Shift=    0.000
 Gap=     0.116 Goal=   None    Shift=    0.000
 RMSDP=7.60D-07 MaxDP=6.91D-05 DE=-2.35D-08 OVMax= 7.52D-05

 Cycle  15  Pass 1  IDiag  1:
 RMSU=  3.18D-07    CP:  1.00D+00  8.60D-01  5.71D-01  2.89D-01  9.87D-01
                    CP:  1.22D+00  2.16D+00  2.33D+00  2.85D+00  3.00D+00
                    CP:  3.00D+00  2.25D+00  2.06D+00  1.23D+00
 E= -192.481166488808     Delta-E=       -0.000000002834 Rises=F Damp=F
 DIIS: error= 8.89D-07 at cycle  15 NSaved=  15.
 NSaved=15 IEnMin=15 EnMin= -192.481166488808     IErMin=15 ErrMin= 8.89D-07
 ErrMax= 8.89D-07  0.00D+00 EMaxC= 1.00D-01 BMatC= 4.98D-10 BMatP= 1.42D-09
 IDIUse=1 WtCom= 1.00D+00 WtEn= 0.00D+00
 Coeff-Com:  0.761D-05-0.109D-04 0.103D-03-0.396D-04 0.102D-03-0.323D-03
 Coeff-Com:  0.149D-02 0.319D-02-0.170D-01-0.907D-02 0.391D-01 0.491D-01
 Coeff-Com: -0.334D+00 0.523D-01 0.121D+01
 Coeff:      0.761D-05-0.109D-04 0.103D-03-0.396D-04 0.102D-03-0.323D-03
 Coeff:      0.149D-02 0.319D-02-0.170D-01-0.907D-02 0.391D-01 0.491D-01
 Coeff:     -0.334D+00 0.523D-01 0.121D+01
 Gap=     0.164 Goal=   None    Shift=    0.000
 Gap=     0.116 Goal=   None    Shift=    0.000
 RMSDP=5.52D-07 MaxDP=4.31D-05 DE=-2.83D-09 OVMax= 5.46D-05

 Cycle  16  Pass 1  IDiag  1:
 RMSU=  1.51D-07    CP:  1.00D+00  8.60D-01  5.71D-01  2.89D-01  9.87D-01
                    CP:  1.22D+00  2.16D+00  2.33D+00  2.86D+00  3.00D+00
                    CP:  3.00D+00  2.30D+00  2.27D+00  1.40D+00  1.98D+00
 E= -192.481166490180     Delta-E=       -0.000000001372 Rises=F Damp=F
 DIIS: error= 5.71D-07 at cycle  16 NSaved=  16.
 NSaved=16 IEnMin=16 EnMin= -192.481166490180     IErMin=16 ErrMin= 5.71D-07
 ErrMax= 5.71D-07  0.00D+00 EMaxC= 1.00D-01 BMatC= 1.69D-10 BMatP= 4.98D-10
 IDIUse=1 WtCom= 1.00D+00 WtEn= 0.00D+00
 Coeff-Com:  0.119D-05-0.162D-04-0.283D-04 0.255D-04-0.240D-03-0.299D-03
 Coeff-Com:  0.231D-02 0.484D-02-0.132D-01-0.172D-01 0.109D-01 0.837D-01
 Coeff-Com: -0.114D+00-0.389D+00 0.149D+00 0.128D+01
 Coeff:      0.119D-05-0.162D-04-0.283D-04 0.255D-04-0.240D-03-0.299D-03
 Coeff:      0.231D-02 0.484D-02-0.132D-01-0.172D-01 0.109D-01 0.837D-01
 Coeff:     -0.114D+00-0.389D+00 0.149D+00 0.128D+01
 Gap=     0.164 Goal=   None    Shift=    0.000
 Gap=     0.116 Goal=   None    Shift=    0.000
 RMSDP=4.21D-07 MaxDP=3.16D-05 DE=-1.37D-09 OVMax= 4.78D-05

 Cycle  17  Pass 1  IDiag  1:
 RMSU=  6.78D-08    CP:  1.00D+00  8.60D-01  5.71D-01  2.89D-01  9.87D-01
                    CP:  1.23D+00  2.17D+00  2.33D+00  2.87D+00  3.00D+00
                    CP:  3.00D+00  2.33D+00  2.43D+00  1.51D+00  2.84D+00
                    CP:  1.79D+00
 E= -192.481166490704     Delta-E=       -0.000000000524 Rises=F Damp=F
 DIIS: error= 2.35D-07 at cycle  17 NSaved=  17.
 NSaved=17 IEnMin=17 EnMin= -192.481166490704     IErMin=17 ErrMin= 2.35D-07
 ErrMax= 2.35D-07  0.00D+00 EMaxC= 1.00D-01 BMatC= 2.95D-11 BMatP= 1.69D-10
 IDIUse=1 WtCom= 1.00D+00 WtEn= 0.00D+00
 Coeff-Com: -0.363D-05 0.921D-05-0.415D-04 0.725D-05-0.429D-04 0.500D-04
 Coeff-Com:  0.175D-05-0.450D-03 0.205D-02 0.282D-02-0.640D-02-0.111D-01
 Coeff-Com:  0.709D-01-0.206D-02-0.248D+00-0.899D-01 0.128D+01
 Coeff:     -0.363D-05 0.921D-05-0.415D-04 0.725D-05-0.429D-04 0.500D-04
 Coeff:      0.175D-05-0.450D-03 0.205D-02 0.282D-02-0.640D-02-0.111D-01
 Coeff:      0.709D-01-0.206D-02-0.248D+00-0.899D-01 0.128D+01
 Gap=     0.164 Goal=   None    Shift=    0.000
 Gap=     0.116 Goal=   None    Shift=    0.000
 RMSDP=1.54D-07 MaxDP=1.23D-05 DE=-5.24D-10 OVMax= 2.25D-05

 Cycle  18  Pass 1  IDiag  1:
 RMSU=  6.27D-08    CP:  1.00D+00  8.60D-01  5.71D-01  2.89D-01  9.87D-01
                    CP:  1.23D+00  2.17D+00  2.34D+00  2.87D+00  3.00D+00
                    CP:  3.00D+00  2.34D+00  2.49D+00  1.54D+00  3.00D+00
                    CP:  2.21D+00  1.52D+00
 E= -192.481166490774     Delta-E=       -0.000000000070 Rises=F Damp=F
 DIIS: error= 7.98D-08 at cycle  18 NSaved=  18.
 NSaved=18 IEnMin=18 EnMin= -192.481166490774     IErMin=18 ErrMin= 7.98D-08
 ErrMax= 7.98D-08  0.00D+00 EMaxC= 1.00D-01 BMatC= 3.61D-12 BMatP= 2.95D-11
 IDIUse=1 WtCom= 1.00D+00 WtEn= 0.00D+00
 Coeff-Com: -0.206D-06 0.756D-06 0.235D-05-0.232D-05 0.279D-04 0.139D-04
 Coeff-Com: -0.163D-03-0.607D-03 0.113D-02 0.235D-02-0.842D-03-0.103D-01
 Coeff-Com:  0.817D-02 0.467D-01 0.595D-02-0.151D+00-0.121D+00 0.122D+01
 Coeff:     -0.206D-06 0.756D-06 0.235D-05-0.232D-05 0.279D-04 0.139D-04
 Coeff:     -0.163D-03-0.607D-03 0.113D-02 0.235D-02-0.842D-03-0.103D-01
 Coeff:      0.817D-02 0.467D-01 0.595D-02-0.151D+00-0.121D+00 0.122D+01
 Gap=     0.164 Goal=   None    Shift=    0.000
 Gap=     0.116 Goal=   None    Shift=    0.000
 RMSDP=3.78D-08 MaxDP=3.28D-06 DE=-7.03D-11 OVMax= 5.43D-06

 Cycle  19  Pass 1  IDiag  1:
 RMSU=  8.60D-09    CP:  1.00D+00  8.60D-01  5.71D-01  2.89D-01  9.87D-01
                    CP:  1.23D+00  2.17D+00  2.34D+00  2.87D+00  3.00D+00
                    CP:  3.00D+00  2.35D+00  2.50D+00  1.55D+00  3.00D+00
                    CP:  2.30D+00  1.67D+00  1.40D+00
 E= -192.481166490780     Delta-E=       -0.000000000005 Rises=F Damp=F
 DIIS: error= 1.49D-08 at cycle  19 NSaved=  19.
 NSaved=19 IEnMin=19 EnMin= -192.481166490780     IErMin=19 ErrMin= 1.49D-08
 ErrMax= 1.49D-08  0.00D+00 EMaxC= 1.00D-01 BMatC= 1.96D-13 BMatP= 3.61D-12
 IDIUse=1 WtCom= 1.00D+00 WtEn= 0.00D+00
 Coeff-Com:  0.202D-06-0.307D-06 0.369D-05-0.884D-06 0.303D-05-0.129D-04
 Coeff-Com:  0.171D-04 0.897D-04-0.311D-03-0.292D-03 0.619D-03 0.158D-02
 Coeff-Com: -0.737D-02-0.224D-02 0.261D-01 0.159D-01-0.133D+00 0.133D-01
 Coeff-Com:  0.109D+01
 Coeff:      0.202D-06-0.307D-06 0.369D-05-0.884D-06 0.303D-05-0.129D-04
 Coeff:      0.171D-04 0.897D-04-0.311D-03-0.292D-03 0.619D-03 0.158D-02
 Coeff:     -0.737D-02-0.224D-02 0.261D-01 0.159D-01-0.133D+00 0.133D-01
 Coeff:      0.109D+01
 Gap=     0.164 Goal=   None    Shift=    0.000
 Gap=     0.116 Goal=   None    Shift=    0.000
 RMSDP=5.39D-09 MaxDP=3.92D-07 DE=-5.12D-12 OVMax= 9.57D-07

 SCF Done:  E(UB3LYP) =  -192.481166491     A.U. after   19 cycles
            NFock= 19  Conv=0.54D-08     -V/T= 2.0046
 <Sx>= 0.0000 <Sy>= 0.0000 <Sz>= 0.5000 <S**2>= 0.7695 S= 0.5097
 <L.S>= 0.000000000000E+00
 KE= 1.915963029108D+02 PE=-7.222527102727D+02 EE= 1.959540938768D+02
 Annihilation of the first spin contaminant:
 S**2 before annihilation     0.7695,   after     0.7502
 Leave Link  502 at Mon Jun 20 04:44:05 2016, MaxMem=    33554432 cpu:       953.1
 (Enter /home/proyectos/fulerenos/M3C-v1.9/M3C-deps_CCC/g09-AM64L-G09RevC.01/l801.exe)
 DoSCS=F DFT=T ScalE2(SS,OS)=  1.000000  1.000000
 Range of M.O.s used for correlation:     1   235
 NBasis=   235 NAE=    17 NBE=    16 NFC=     0 NFV=     0
 NROrb=    235 NOA=    17 NOB=    16 NVA=   218 NVB=   219

 **** Warning!!: The largest alpha MO coefficient is  0.94477926D+02


 **** Warning!!: The largest beta MO coefficient is  0.96021568D+02

 Leave Link  801 at Mon Jun 20 04:44:06 2016, MaxMem=    33554432 cpu:         0.1
 (Enter /home/proyectos/fulerenos/M3C-v1.9/M3C-deps_CCC/g09-AM64L-G09RevC.01/l1101.exe)
 Using compressed storage, NAtomX=     9.
 Will process     10 centers per pass.
 Leave Link 1101 at Mon Jun 20 04:44:06 2016, MaxMem=    33554432 cpu:         2.0
 (Enter /home/proyectos/fulerenos/M3C-v1.9/M3C-deps_CCC/g09-AM64L-G09RevC.01/l1102.exe)
 Symmetrizing basis deriv contribution to polar:
 IMax=3 JMax=2 DiffMx= 0.00D+00
 Leave Link 1102 at Mon Jun 20 04:44:06 2016, MaxMem=    33554432 cpu:         0.6
 (Enter /home/proyectos/fulerenos/M3C-v1.9/M3C-deps_CCC/g09-AM64L-G09RevC.01/l1110.exe)
 Forming Gx(P) for the SCF density, NAtomX=     9.
 Integral derivatives from FoFJK, PRISM(SPDF).
 Do as many integral derivatives as possible in FoFJK.
 G2DrvN: MDV=      33554256.
 G2DrvN: will do    10 centers at a time, making    1 passes.
 Calling FoFCou, ICntrl=  3107 FMM=F I1Cent=   0 AccDes= 0.00D+00.
 FoFJK:  IHMeth= 1 ICntrl=    3107 DoSepK=F KAlg= 0 I1Cent=   0 FoldK=F
 IRaf=         0 NMat=   1 IRICut=       1 DoRegI=T DoRafI=F ISym2E= 0.
 FoFCou: FMM=F IPFlag=           0 FMFlag=      100000 FMFlg1=           0
         NFxFlg=           0 DoJE=F BraDBF=F KetDBF=F FulRan=T
         wScrn=  0.000000 ICntrl=    3107 IOpCl=  1 I1Cent=           0 NGrid=           0
         NMat0=    1 NMatS0=      1 NMatT0=    0 NMatD0=    1 NMtDS0=    0 NMtDT0=    0
 Symmetry not used in FoFCou.
 End of G2Drv F.D. properties file   721 does not exist.
 End of G2Drv F.D. properties file   722 does not exist.
 End of G2Drv F.D. properties file   788 does not exist.
 Leave Link 1110 at Mon Jun 20 04:46:21 2016, MaxMem=    33554432 cpu:       526.4
 (Enter /home/proyectos/fulerenos/M3C-v1.9/M3C-deps_CCC/g09-AM64L-G09RevC.01/l1002.exe)
 Minotr:  UHF open shell wavefunction.
          IDoAtm=111111111
          Direct CPHF calculation.
          Differentiating once with respect to electric field.
                with respect to dipole field.
          Differentiating once with respect to nuclear coordinates.
          Requested convergence is 1.0D-08 RMS, and 1.0D-07 maximum.
          Secondary convergence is 1.0D-12 RMS, and 1.0D-12 maximum.
          NewPWx=T KeepS1=F KeepF1=F KeepIn=T MapXYZ=F SortEE=F KeepMc=T.
          MDV=      33553868 using IRadAn=       2.
 Generate precomputed XC quadrature information.
          Solving linear equations simultaneously, MaxMat=       0.
 FoFJK:  IHMeth= 1 ICntrl=       0 DoSepK=F KAlg= 0 I1Cent=   0 FoldK=F
 IRaf= 990000000 NMat=  30 IRICut=      75 DoRegI=T DoRafI=T ISym2E= 2.
 FoFCou: FMM=F IPFlag=           0 FMFlag=      100000 FMFlg1=           0
         NFxFlg=           0 DoJE=F BraDBF=F KetDBF=F FulRan=T
         wScrn=  0.000000 ICntrl=       0 IOpCl=  1 I1Cent=           0 NGrid=           0
         NMat0=   30 NMatS0=     30 NMatT0=    0 NMatD0=   30 NMtDS0=    0 NMtDT0=    0
 Integrals replicated using symmetry in FoFCou.
          There are    30 degrees of freedom in the 1st order CPHF.  IDoFFX=6 NUNeed=     3.
     27 vectors produced by pass  0 Test12= 2.40D-14 3.33D-09 XBig12= 2.23D+02 7.39D+00.
 AX will form    27 AO Fock derivatives at one time.
     27 vectors produced by pass  1 Test12= 2.40D-14 3.33D-09 XBig12= 1.20D+02 1.76D+00.
     27 vectors produced by pass  2 Test12= 2.40D-14 3.33D-09 XBig12= 1.78D+00 2.29D-01.
     27 vectors produced by pass  3 Test12= 2.40D-14 3.33D-09 XBig12= 1.64D-02 2.32D-02.
     27 vectors produced by pass  4 Test12= 2.40D-14 3.33D-09 XBig12= 1.67D-04 2.20D-03.
     27 vectors produced by pass  5 Test12= 2.40D-14 3.33D-09 XBig12= 1.20D-06 1.20D-04.
     27 vectors produced by pass  6 Test12= 2.40D-14 3.33D-09 XBig12= 5.75D-09 1.17D-05.
      8 vectors produced by pass  7 Test12= 2.40D-14 3.33D-09 XBig12= 2.18D-11 5.82D-07.
      3 vectors produced by pass  8 Test12= 2.40D-14 3.33D-09 XBig12= 1.20D-13 5.33D-08.
      2 vectors produced by pass  9 Test12= 2.40D-14 3.33D-09 XBig12= 2.30D-14 3.15D-08.
 InvSVY:  IOpt=1 It=  1 EMax= 3.55D-15
 Solved reduced A of dimension   202 with    30 vectors.
 FullF1:  Do perturbations    1 to     3.
 Isotropic polarizability for W=    0.000000       47.27 Bohr**3.
 End of Minotr F.D. properties file   721 does not exist.
 End of Minotr F.D. properties file   722 does not exist.
 End of Minotr F.D. properties file   788 does not exist.
 Leave Link 1002 at Mon Jun 20 04:54:37 2016, MaxMem=    33554432 cpu:      1981.2
 (Enter /home/proyectos/fulerenos/M3C-v1.9/M3C-deps_CCC/g09-AM64L-G09RevC.01/l601.exe)
 Copying SCF densities to generalized density rwf, IOpCl= 1 IROHF=0.

 **********************************************************************

            Population analysis using the SCF density.

 **********************************************************************

 Orbital symmetries:
 Alpha Orbitals:
       Occupied  (A) (A) (A) (A) (A) (A) (A) (A) (A) (A) (A) (A)
                 (A) (A) (A) (A) (A)
       Virtual   (A) (A) (A) (A) (A) (A) (A) (A) (A) (A) (A) (A)
                 (A) (A) (A) (A) (A) (A) (A) (A) (A) (A) (A) (A)
                 (A) (A) (A) (A) (A) (A) (A) (A) (A) (A) (A) (A)
                 (A) (A) (A) (A) (A) (A) (A) (A) (A) (A) (A) (A)
                 (A) (A) (A) (A) (A) (A) (A) (A) (A) (A) (A) (A)
                 (A) (A) (A) (A) (A) (A) (A) (A) (A) (A) (A) (A)
                 (A) (A) (A) (A) (A) (A) (A) (A) (A) (A) (A) (A)
                 (A) (A) (A) (A) (A) (A) (A) (A) (A) (A) (A) (A)
                 (A) (A) (A) (A) (A) (A) (A) (A) (A) (A) (A) (A)
                 (A) (A) (A) (A) (A) (A) (A) (A) (A) (A) (A) (A)
                 (A) (A) (A) (A) (A) (A) (A) (A) (A) (A) (A) (A)
                 (A) (A) (A) (A) (A) (A) (A) (A) (A) (A) (A) (A)
                 (A) (A) (A) (A) (A) (A) (A) (A) (A) (A) (A) (A)
                 (A) (A) (A) (A) (A) (A) (A) (A) (A) (A) (A) (A)
                 (A) (A) (A) (A) (A) (A) (A) (A) (A) (A) (A) (A)
                 (A) (A) (A) (A) (A) (A) (A) (A) (A) (A) (A) (A)
                 (A) (A) (A) (A) (A) (A) (A) (A) (A) (A) (A) (A)
                 (A) (A) (A) (A) (A) (A) (A) (A) (A) (A) (A) (A)
                 (A) (A)
 Beta  Orbitals:
       Occupied  (A) (A) (A) (A) (A) (A) (A) (A) (A) (A) (A) (A)
                 (A) (A) (A) (A)
       Virtual   (A) (A) (A) (A) (A) (A) (A) (A) (A) (A) (A) (A)
                 (A) (A) (A) (A) (A) (A) (A) (A) (A) (A) (A) (A)
                 (A) (A) (A) (A) (A) (A) (A) (A) (A) (A) (A) (A)
                 (A) (A) (A) (A) (A) (A) (A) (A) (A) (A) (A) (A)
                 (A) (A) (A) (A) (A) (A) (A) (A) (A) (A) (A) (A)
                 (A) (A) (A) (A) (A) (A) (A) (A) (A) (A) (A) (A)
                 (A) (A) (A) (A) (A) (A) (A) (A) (A) (A) (A) (A)
                 (A) (A) (A) (A) (A) (A) (A) (A) (A) (A) (A) (A)
                 (A) (A) (A) (A) (A) (A) (A) (A) (A) (A) (A) (A)
                 (A) (A) (A) (A) (A) (A) (A) (A) (A) (A) (A) (A)
                 (A) (A) (A) (A) (A) (A) (A) (A) (A) (A) (A) (A)
                 (A) (A) (A) (A) (A) (A) (A) (A) (A) (A) (A) (A)
                 (A) (A) (A) (A) (A) (A) (A) (A) (A) (A) (A) (A)
                 (A) (A) (A) (A) (A) (A) (A) (A) (A) (A) (A) (A)
                 (A) (A) (A) (A) (A) (A) (A) (A) (A) (A) (A) (A)
                 (A) (A) (A) (A) (A) (A) (A) (A) (A) (A) (A) (A)
                 (A) (A) (A) (A) (A) (A) (A) (A) (A) (A) (A) (A)
                 (A) (A) (A) (A) (A) (A) (A) (A) (A) (A) (A) (A)
                 (A) (A) (A)
 The electronic state is 2-A.
 Alpha  occ. eigenvalues --  -10.50329 -10.49364 -10.47601 -10.45477 -10.45088
 Alpha  occ. eigenvalues --   -1.18823  -1.01885  -0.93692  -0.80474  -0.78202
 Alpha  occ. eigenvalues --   -0.72168  -0.70128  -0.69378  -0.65376  -0.59516
 Alpha  occ. eigenvalues --   -0.50528  -0.48171
 Alpha virt. eigenvalues --   -0.31736  -0.28701  -0.20662  -0.15741  -0.12706
 Alpha virt. eigenvalues --   -0.12411  -0.11316  -0.10699  -0.09770  -0.08468
 Alpha virt. eigenvalues --   -0.07200  -0.05673  -0.04978  -0.03854  -0.03336
 Alpha virt. eigenvalues --   -0.02689  -0.01842  -0.01428  -0.00517  -0.00089
 Alpha virt. eigenvalues --    0.00399   0.00652   0.00901   0.01131   0.01440
 Alpha virt. eigenvalues --    0.04463   0.05383   0.06461   0.06748   0.08082
 Alpha virt. eigenvalues --    0.08972   0.11295   0.13926   0.14498   0.15506
 Alpha virt. eigenvalues --    0.18090   0.18440   0.20340   0.20465   0.23037
 Alpha virt. eigenvalues --    0.23627   0.24313   0.25672   0.27721   0.28021
 Alpha virt. eigenvalues --    0.29123   0.29933   0.31097   0.33474   0.33817
 Alpha virt. eigenvalues --    0.35158   0.37518   0.38258   0.38970   0.39651
 Alpha virt. eigenvalues --    0.40976   0.42317   0.42826   0.44863   0.44975
 Alpha virt. eigenvalues --    0.47089   0.48972   0.50657   0.52547   0.56981
 Alpha virt. eigenvalues --    0.57521   0.58465   0.59845   0.60660   0.63552
 Alpha virt. eigenvalues --    0.66918   0.71487   0.72222   0.77277   0.77889
 Alpha virt. eigenvalues --    0.83597   0.84197   0.85807   0.86651   0.89782
 Alpha virt. eigenvalues --    0.93222   0.93932   0.96881   0.98611   1.00031
 Alpha virt. eigenvalues --    1.02025   1.02296   1.04308   1.07098   1.09921
 Alpha virt. eigenvalues --    1.11358   1.11818   1.14087   1.15537   1.17133
 Alpha virt. eigenvalues --    1.17928   1.22984   1.25066   1.26193   1.28091
 Alpha virt. eigenvalues --    1.30077   1.40931   1.45097   1.47881   1.51721
 Alpha virt. eigenvalues --    1.56442   1.57763   1.63867   1.69712   1.70686
 Alpha virt. eigenvalues --    1.74664   1.76582   1.83381   1.88550   1.92057
 Alpha virt. eigenvalues --    1.97804   2.00582   2.07955   2.08361   2.13096
 Alpha virt. eigenvalues --    2.22215   2.27786   2.32140   2.36646   2.43110
 Alpha virt. eigenvalues --    2.45197   2.51752   2.53286   2.55487   2.56018
 Alpha virt. eigenvalues --    2.62355   2.64289   2.65897   2.68164   2.69200
 Alpha virt. eigenvalues --    2.74172   2.78693   2.80325   2.83974   2.85045
 Alpha virt. eigenvalues --    2.87634   2.92670   2.94755   2.95803   3.01703
 Alpha virt. eigenvalues --    3.02960   3.08463   3.11203   3.12839   3.16129
 Alpha virt. eigenvalues --    3.19976   3.25323   3.26976   3.30671   3.36326
 Alpha virt. eigenvalues --    3.41578   3.49837   3.60485   3.64324   3.71641
 Alpha virt. eigenvalues --    3.76088   3.77354   3.81045   3.81652   3.84410
 Alpha virt. eigenvalues --    3.91399   3.98082   3.98969   4.04933   4.07509
 Alpha virt. eigenvalues --    4.15330   4.24847   4.26052   4.33942   4.36725
 Alpha virt. eigenvalues --    4.40413   4.44197   4.47957   4.51849   4.59739
 Alpha virt. eigenvalues --    4.68848   4.85893   5.07476   5.38322   5.44615
 Alpha virt. eigenvalues --    5.49817   5.81170   5.93820   6.70251   6.73838
 Alpha virt. eigenvalues --    6.81935   6.86197   6.86869   6.92968   6.94814
 Alpha virt. eigenvalues --    6.98734   7.06436   7.10238   7.14650   7.21457
 Alpha virt. eigenvalues --    7.29647   7.34896   7.40225   7.50697   7.52710
 Alpha virt. eigenvalues --    7.62717   7.77934   7.85740   7.94377   7.97740
 Alpha virt. eigenvalues --    8.06678   8.28821   8.72943  23.74009  24.28446
 Alpha virt. eigenvalues --   24.55595  25.39363  25.64491
  Beta  occ. eigenvalues --  -10.49846 -10.48685 -10.47603 -10.45019 -10.44992
  Beta  occ. eigenvalues --   -1.17780  -1.01068  -0.92342  -0.79890  -0.76962
  Beta  occ. eigenvalues --   -0.71459  -0.69351  -0.67720  -0.64886  -0.58430
  Beta  occ. eigenvalues --   -0.49325
  Beta virt. eigenvalues --   -0.37729  -0.29600  -0.26534  -0.18873  -0.15613
  Beta virt. eigenvalues --   -0.12492  -0.12320  -0.11096  -0.10408  -0.09367
  Beta virt. eigenvalues --   -0.08344  -0.07153  -0.05455  -0.04559  -0.03634
  Beta virt. eigenvalues --   -0.03093  -0.02540  -0.01589  -0.01251  -0.00286
  Beta virt. eigenvalues --   -0.00023   0.00522   0.00762   0.01021   0.01351
  Beta virt. eigenvalues --    0.01777   0.04642   0.05567   0.06550   0.06872
  Beta virt. eigenvalues --    0.08152   0.09369   0.11639   0.14121   0.14678
  Beta virt. eigenvalues --    0.15785   0.18486   0.19029   0.20620   0.20815
  Beta virt. eigenvalues --    0.23543   0.24015   0.24589   0.26151   0.28261
  Beta virt. eigenvalues --    0.28482   0.29714   0.30350   0.31982   0.33879
  Beta virt. eigenvalues --    0.34371   0.35592   0.38047   0.38524   0.39519
  Beta virt. eigenvalues --    0.40033   0.41280   0.42590   0.43492   0.45093
  Beta virt. eigenvalues --    0.45435   0.47459   0.49326   0.51104   0.52935
  Beta virt. eigenvalues --    0.57267   0.57944   0.58795   0.60282   0.61076
  Beta virt. eigenvalues --    0.63963   0.67158   0.71768   0.72586   0.77494
  Beta virt. eigenvalues --    0.78333   0.84040   0.84520   0.86181   0.86843
  Beta virt. eigenvalues --    0.90133   0.93660   0.94487   0.97417   0.98896
  Beta virt. eigenvalues --    1.00580   1.02458   1.02782   1.04712   1.07379
  Beta virt. eigenvalues --    1.10245   1.11905   1.12227   1.14972   1.16128
  Beta virt. eigenvalues --    1.17464   1.18327   1.23728   1.26018   1.26738
  Beta virt. eigenvalues --    1.28508   1.30845   1.41868   1.45861   1.48657
  Beta virt. eigenvalues --    1.53129   1.57346   1.58842   1.64680   1.71475
  Beta virt. eigenvalues --    1.72021   1.75671   1.77238   1.84352   1.89413
  Beta virt. eigenvalues --    1.92962   1.98426   2.01303   2.08870   2.09073
  Beta virt. eigenvalues --    2.13943   2.23100   2.29068   2.33386   2.37997
  Beta virt. eigenvalues --    2.44004   2.45917   2.52541   2.53898   2.56264
  Beta virt. eigenvalues --    2.57289   2.62974   2.64849   2.66981   2.69070
  Beta virt. eigenvalues --    2.70609   2.75481   2.79840   2.80932   2.85289
  Beta virt. eigenvalues --    2.85856   2.89013   2.93465   2.95243   2.96351
  Beta virt. eigenvalues --    3.02819   3.03679   3.09611   3.11994   3.13915
  Beta virt. eigenvalues --    3.16990   3.21164   3.25955   3.28131   3.31922
  Beta virt. eigenvalues --    3.36878   3.42090   3.50396   3.61214   3.65055
  Beta virt. eigenvalues --    3.72409   3.76752   3.77794   3.81712   3.82445
  Beta virt. eigenvalues --    3.85018   3.92076   3.98986   3.99421   4.05533
  Beta virt. eigenvalues --    4.07903   4.15709   4.25535   4.26630   4.34470
  Beta virt. eigenvalues --    4.37414   4.40941   4.44807   4.48701   4.52473
  Beta virt. eigenvalues --    4.60216   4.69457   4.86340   5.08278   5.38650
  Beta virt. eigenvalues --    5.45031   5.50125   5.81739   5.94326   6.72723
  Beta virt. eigenvalues --    6.76147   6.83004   6.86951   6.87977   6.94989
  Beta virt. eigenvalues --    6.96510   6.99821   7.07659   7.11770   7.15700
  Beta virt. eigenvalues --    7.22663   7.30910   7.35865   7.41711   7.51631
  Beta virt. eigenvalues --    7.53571   7.63384   7.78884   7.86107   7.94860
  Beta virt. eigenvalues --    7.98159   8.07772   8.29546   8.73488  23.74480
  Beta virt. eigenvalues --   24.28575  24.56060  25.39970  25.64911
          Condensed to atoms (all electrons):
               1          2          3          4          5          6
     1  C    6.981525   0.523736  -0.389743  -0.967437   0.009260  -0.076152
     2  H    0.523736   0.392063  -0.122892  -0.110724  -0.000288   0.019492
     3  C   -0.389743  -0.122892   7.387588  -0.086059   0.003099  -1.034287
     4  C   -0.967437  -0.110724  -0.086059   7.406590  -0.047005  -0.069484
     5  H    0.009260  -0.000288   0.003099  -0.047005   0.416476  -0.036692
     6  C   -0.076152   0.019492  -1.034287  -0.069484  -0.036692   7.027775
     7  H    0.028580   0.001123  -0.135222  -0.003404  -0.001527   0.489515
     8  C   -0.295890  -0.001242   0.201016  -0.094952   0.442765  -0.277754
     9  H    0.015515   0.000562  -0.008866  -0.079447  -0.021310  -0.019118
               7          8          9
     1  C    0.028580  -0.295890   0.015515
     2  H    0.001123  -0.001242   0.000562
     3  C   -0.135222   0.201016  -0.008866
     4  C   -0.003404  -0.094952  -0.079447
     5  H   -0.001527   0.442765  -0.021310
     6  C    0.489515  -0.277754  -0.019118
     7  H    0.440287  -0.065083   0.004001
     8  C   -0.065083   5.997628   0.465528
     9  H    0.004001   0.465528   0.430843
          Atomic-Atomic Spin Densities.
               1          2          3          4          5          6
     1  C   -0.098126   0.006385  -0.008332   0.083086  -0.002214  -0.007648
     2  H    0.006385   0.010222  -0.003094  -0.003188  -0.000076  -0.000479
     3  C   -0.008332  -0.003094   0.639303  -0.042399   0.001696  -0.181525
     4  C    0.083086  -0.003188  -0.042399   0.283543   0.003377  -0.002906
     5  H   -0.002214  -0.000076   0.001696   0.003377   0.001724  -0.002575
     6  C   -0.007648  -0.000479  -0.181525  -0.002906  -0.002575   0.450321
     7  H   -0.000888  -0.000303   0.004546   0.000152  -0.000073   0.002260
     8  C    0.029083   0.001464  -0.029351  -0.019747   0.000574   0.033604
     9  H    0.001150   0.000130  -0.005333  -0.001090   0.000049  -0.004120
               7          8          9
     1  C   -0.000888   0.029083   0.001150
     2  H   -0.000303   0.001464   0.000130
     3  C    0.004546  -0.029351  -0.005333
     4  C    0.000152  -0.019747  -0.001090
     5  H   -0.000073   0.000574   0.000049
     6  C    0.002260   0.033604  -0.004120
     7  H   -0.000926   0.002912  -0.000648
     8  C    0.002912  -0.020897   0.008057
     9  H   -0.000648   0.008057   0.009760
 Mulliken charges and spin densities:
               1          2
     1  C    0.170606   0.002497
     2  H    0.298169   0.011061
     3  C    0.185366   0.375512
     4  C    0.051922   0.300828
     5  H    0.235222   0.002482
     6  C   -0.023295   0.286933
     7  H    0.241732   0.007033
     8  C   -0.372016   0.005701
     9  H    0.212293   0.007954
 Sum of Mulliken charges =   1.00000   1.00000
 Mulliken charges and spin densities with hydrogens summed into heavy atoms:
               1          2
     1  C    0.468775   0.013557
     3  C    0.185366   0.375512
     4  C    0.051922   0.300828
     6  C    0.218437   0.293965
     8  C    0.075499   0.016138
 APT charges:
               1
     1  C    0.296912
     2  H    0.211337
     3  C   -0.234497
     4  C   -0.126470
     5  H    0.155849
     6  C    0.214807
     7  H    0.179298
     8  C    0.146615
     9  H    0.156149
 Sum of APT charges =   1.00000
 APT charges with hydrogens summed into heavy atoms:
               1
     1  C    0.508250
     3  C   -0.234497
     4  C   -0.126470
     6  C    0.394104
     8  C    0.458613
 Electronic spatial extent (au):  <R**2>=            272.7755
 Charge=              1.0000 electrons
 Dipole moment (field-independent basis, Debye):
    X=             -0.2483    Y=             -0.3173    Z=              0.0741  Tot=              0.4097
 Quadrupole moment (field-independent basis, Debye-Ang):
   XX=            -13.9376   YY=            -22.2674   ZZ=            -26.8425
   XY=              0.0400   XZ=              0.9476   YZ=             -1.1323
 Traceless Quadrupole moment (field-independent basis, Debye-Ang):
   XX=              7.0782   YY=             -1.2515   ZZ=             -5.8267
   XY=              0.0400   XZ=              0.9476   YZ=             -1.1323
 Octapole moment (field-independent basis, Debye-Ang**2):
  XXX=              8.8841  YYY=              1.3213  ZZZ=              1.1175  XYY=             -6.8328
  XXY=             -0.6257  XXZ=              0.1402  XZZ=             -2.9994  YZZ=             -2.0905
  YYZ=             -0.3642  XYZ=              0.7945
 Hexadecapole moment (field-independent basis, Debye-Ang**3):
 XXXX=           -137.3009 YYYY=           -117.7090 ZZZZ=            -34.7567 XXXY=             -2.0296
 XXXZ=              7.5401 YYYX=             -3.5193 YYYZ=             -3.6879 ZZZX=             -0.0201
 ZZZY=             -2.5600 XXYY=            -44.5430 XXZZ=            -36.9556 YYZZ=            -26.1106
 XXYZ=             -1.6703 YYXZ=              1.6689 ZZXY=              3.2085
 N-N= 1.422211469944D+02 E-N=-7.222527107359D+02  KE= 1.915963029108D+02
  Exact polarizability:  58.107  -1.886  52.391   0.179   1.385  31.305
 Approx polarizability:  97.516  -1.988 121.494   0.106   7.742  47.642
                          Isotropic Fermi Contact Couplings
        Atom                 a.u.       MegaHertz       Gauss      10(-4) cm-1
     1  C(13)              0.00784       8.81422       3.14513       2.94011
     2  H(1)               0.00717      32.02876      11.42866      10.68364
     3  C(13)              0.17170     193.02445      68.87592      64.38603
     4  C(13)              0.04770      53.62930      19.13627      17.88881
     5  H(1)              -0.00019      -0.86196      -0.30757      -0.28752
     6  C(13)              0.01080      12.14598       4.33399       4.05146
     7  H(1)               0.00523      23.39488       8.34788       7.80369
     8  C(13)             -0.00095      -1.06366      -0.37954      -0.35480
     9  H(1)               0.00459      20.50939       7.31826       6.84120
 --------------------------------------------------------
       Center         ----  Spin Dipole Couplings  ----
                      3XX-RR        3YY-RR        3ZZ-RR
 --------------------------------------------------------
     1   Atom        0.008761     -0.062410      0.053649
     2   Atom        0.008909     -0.005223     -0.003687
     3   Atom       -0.095004      0.194351     -0.099347
     4   Atom       -0.110839      0.099330      0.011509
     5   Atom       -0.000878      0.000745      0.000133
     6   Atom       -0.197567     -0.044465      0.242032
     7   Atom        0.006709     -0.008328      0.001620
     8   Atom       -0.052057      0.108305     -0.056249
     9   Atom        0.004661      0.000953     -0.005614
 --------------------------------------------------------
                        XY            XZ            YZ
 --------------------------------------------------------
     1   Atom       -0.004169     -0.003931      0.020569
     2   Atom       -0.002819      0.008194     -0.000893
     3   Atom        0.254613     -0.172514     -0.377300
     4   Atom       -0.170539      0.168469     -0.395282
     5   Atom        0.004092     -0.006626     -0.006709
     6   Atom        0.013196      0.021425      0.276504
     7   Atom       -0.023878      0.020011     -0.010326
     8   Atom       -0.020671     -0.001920      0.012970
     9   Atom        0.006015      0.009514      0.002561
 --------------------------------------------------------


 ---------------------------------------------------------------------------------
              Anisotropic Spin Dipole Couplings in Principal Axis System
 ---------------------------------------------------------------------------------

       Atom             a.u.   MegaHertz   Gauss  10(-4) cm-1        Axes

              Baa    -0.0661    -8.871    -3.165    -2.959  0.0460  0.9848 -0.1676
     1 C(13)  Bbb     0.0085     1.139     0.406     0.380  0.9946 -0.0295  0.1000
              Bcc     0.0576     7.732     2.759     2.579 -0.0935  0.1713  0.9808
 
              Baa    -0.0078    -4.169    -1.488    -1.391 -0.4581 -0.2000  0.8661
     2 H(1)   Bbb    -0.0056    -2.983    -1.064    -0.995  0.0476  0.9675  0.2485
              Bcc     0.0134     7.152     2.552     2.386  0.8876 -0.1551  0.4337
 
              Baa    -0.3574   -47.957   -17.112   -15.997 -0.0091  0.5673  0.8234
     3 C(13)  Bbb    -0.2330   -31.266   -11.157   -10.429  0.9123 -0.3324  0.2391
              Bcc     0.5904    79.223    28.269    26.426  0.4094  0.7534 -0.5145
 
              Baa    -0.3432   -46.049   -16.431   -15.360 -0.0733  0.6485  0.7576
     4 C(13)  Bbb    -0.1979   -26.560    -9.477    -8.859  0.9358  0.3074 -0.1726
              Bcc     0.5411    72.609    25.909    24.220 -0.3448  0.6963 -0.6294
 
              Baa    -0.0076    -4.062    -1.449    -1.355  0.5405  0.3497  0.7653
     5 H(1)   Bbb    -0.0041    -2.200    -0.785    -0.734 -0.6626  0.7375  0.1310
              Bcc     0.0117     6.261     2.234     2.089 -0.5186 -0.5778  0.6303
 
              Baa    -0.2126   -28.532   -10.181    -9.517 -0.0101  0.8546 -0.5192
     6 C(13)  Bbb    -0.1986   -26.651    -9.510    -8.890  0.9991 -0.0128 -0.0405
              Bcc     0.4112    55.183    19.691    18.407  0.0413  0.5192  0.8537
 
              Baa    -0.0265   -14.146    -5.048    -4.719  0.6451  0.7409 -0.1869
     7 H(1)   Bbb    -0.0114    -6.088    -2.172    -2.031 -0.2987  0.4696  0.8308
              Bcc     0.0379    20.235     7.220     6.750  0.7033 -0.4801  0.5242
 
              Baa    -0.0573    -7.689    -2.744    -2.565  0.1123 -0.0636  0.9916
     8 C(13)  Bbb    -0.0546    -7.333    -2.617    -2.446  0.9857  0.1332 -0.1031
              Bcc     0.1119    15.022     5.360     5.011 -0.1256  0.9890  0.0777
 
              Baa    -0.0114    -6.063    -2.163    -2.022 -0.5320  0.0846  0.8425
     9 H(1)   Bbb    -0.0023    -1.220    -0.435    -0.407 -0.3462  0.8863 -0.3076
              Bcc     0.0136     7.283     2.599     2.429  0.7728  0.4553  0.4422
 

 ---------------------------------------------------------------------------------

 No NMR shielding tensors so no spin-rotation constants.
 Leave Link  601 at Mon Jun 20 04:54:37 2016, MaxMem=    33554432 cpu:         2.3
 (Enter /home/proyectos/fulerenos/M3C-v1.9/M3C-deps_CCC/g09-AM64L-G09RevC.01/l701.exe)
 Compute integral second derivatives.
 ... and contract with generalized density number  0.
 Leave Link  701 at Mon Jun 20 04:54:38 2016, MaxMem=    33554432 cpu:         1.8
 (Enter /home/proyectos/fulerenos/M3C-v1.9/M3C-deps_CCC/g09-AM64L-G09RevC.01/l702.exe)
 L702 exits ... SP integral derivatives will be done elsewhere.
 Leave Link  702 at Mon Jun 20 04:54:38 2016, MaxMem=    33554432 cpu:         0.1
 (Enter /home/proyectos/fulerenos/M3C-v1.9/M3C-deps_CCC/g09-AM64L-G09RevC.01/l703.exe)
 Compute integral second derivatives, UseDBF=F ICtDFT=           0.
 Integral derivatives from FoFJK, PRISM(SPDF).
 Calling FoFJK, ICntrl=    100127 FMM=F ISym2X=0 I1Cent= 0 IOpClX= 1 NMat=1 NMatS=1 NMatT=0.
 FoFJK:  IHMeth= 1 ICntrl=  100127 DoSepK=F KAlg= 0 I1Cent=   0 FoldK=F
 IRaf=         0 NMat=   1 IRICut=       1 DoRegI=T DoRafI=F ISym2E= 0.
 FoFCou: FMM=F IPFlag=           0 FMFlag=      100000 FMFlg1=         800
         NFxFlg=           0 DoJE=F BraDBF=F KetDBF=F FulRan=T
         wScrn=  0.000000 ICntrl=  100127 IOpCl=  1 I1Cent=           0 NGrid=           0
         NMat0=    1 NMatS0=      1 NMatT0=    0 NMatD0=    1 NMtDS0=    0 NMtDT0=    0
 Symmetry not used in FoFCou.
 Leave Link  703 at Mon Jun 20 04:57:47 2016, MaxMem=    33554432 cpu:       755.1
 (Enter /home/proyectos/fulerenos/M3C-v1.9/M3C-deps_CCC/g09-AM64L-G09RevC.01/l716.exe)
 Dipole        =-9.76888115D-02-1.24852815D-01 2.91596491D-02
 Polarizability= 5.81066142D+01-1.88571180D+00 5.23912107D+01
                 1.78915696D-01 1.38546789D+00 3.13050775D+01
 Full mass-weighted force constant matrix:
 Low frequencies ---   -0.0006    0.0001    0.0006    8.7667   11.0492   21.8868
 Low frequencies ---  256.2609  410.4976  425.4774
 Diagonal vibrational polarizability:
        2.6118810      21.6794391       5.4304998
 Harmonic frequencies (cm**-1), IR intensities (KM/Mole), Raman scattering
 activities (A**4/AMU), depolarization ratios for plane and unpolarized
 incident light, reduced masses (AMU), force constants (mDyne/A),
 and normal coordinates:
                      1                      2                      3
                      A                      A                      A
 Frequencies --    256.2586               410.4972               425.4773
 Red. masses --      4.4331                 2.5848                 3.0809
 Frc consts  --      0.1715                 0.2566                 0.3286
 IR Inten    --     33.0563                58.8049                 3.2194
  Atom  AN      X      Y      Z        X      Y      Z        X      Y      Z
     1   6     0.04   0.11  -0.24     0.05  -0.04  -0.10     0.03   0.03  -0.13
     2   1     0.05   0.20  -0.25     0.07  -0.11  -0.25     0.06  -0.08  -0.33
     3   6    -0.11  -0.22   0.11     0.09   0.10  -0.03     0.04  -0.02   0.33
     4   6     0.11  -0.19   0.27    -0.10   0.18   0.19    -0.05   0.09  -0.01
     5   1    -0.40   0.06  -0.23    -0.48  -0.38  -0.27     0.17   0.28   0.23
     6   6    -0.07   0.13   0.00     0.05  -0.10   0.07     0.01  -0.07  -0.20
     7   1    -0.01   0.26   0.20     0.09  -0.17  -0.20     0.18  -0.04  -0.50
     8   6     0.03   0.11  -0.10    -0.08  -0.10  -0.03    -0.06  -0.01   0.03
     9   1     0.31   0.16  -0.37     0.22   0.14  -0.43    -0.15  -0.36   0.31
                      4                      5                      6
                      A                      A                      A
 Frequencies --    547.5272               719.6025               770.7377
 Red. masses --      7.0041                 1.6278                 1.6109
 Frc consts  --      1.2371                 0.4966                 0.5638
 IR Inten    --      5.4692                29.3738                22.2621
  Atom  AN      X      Y      Z        X      Y      Z        X      Y      Z
     1   6    -0.27  -0.07  -0.07     0.02  -0.10  -0.07    -0.02   0.12  -0.11
     2   1    -0.24  -0.04  -0.36    -0.05  -0.22   0.45    -0.17  -0.09   0.92
     3   6     0.03   0.51   0.13    -0.04   0.01   0.01     0.06   0.02   0.00
     4   6    -0.00  -0.36   0.07    -0.05   0.12   0.07     0.02  -0.06   0.00
     5   1    -0.13   0.19  -0.02     0.14   0.17   0.07    -0.02  -0.06   0.01
     6   6     0.13  -0.02  -0.07    -0.01   0.04  -0.07     0.06  -0.06   0.02
     7   1    -0.22  -0.20   0.33    -0.23   0.15   0.67     0.14  -0.03  -0.05
     8   6     0.15  -0.05  -0.05     0.08  -0.06  -0.05    -0.10  -0.00   0.01
     9   1     0.10   0.06  -0.07     0.10  -0.30   0.07    -0.20   0.07   0.05
                      7                      8                      9
                      A                      A                      A
 Frequencies --    821.6237               885.4876               984.2952
 Red. masses --      1.7859                 2.1358                 2.5330
 Frc consts  --      0.7103                 0.9867                 1.4459
 IR Inten    --     18.3623                 3.4093                 9.3363
  Atom  AN      X      Y      Z        X      Y      Z        X      Y      Z
     1   6     0.05   0.07   0.07     0.06  -0.08  -0.02     0.01   0.00  -0.01
     2   1     0.12   0.21  -0.34     0.03   0.03   0.23     0.01  -0.40  -0.03
     3   6     0.07   0.01  -0.03    -0.05   0.02   0.07     0.03  -0.02  -0.01
     4   6     0.04  -0.02   0.01     0.06   0.02  -0.10    -0.04   0.02   0.06
     5   1    -0.17   0.18   0.05    -0.44  -0.28  -0.09     0.21   0.28  -0.05
     6   6     0.03  -0.12  -0.07    -0.03  -0.04  -0.15    -0.08  -0.21   0.05
     7   1    -0.07   0.14   0.79    -0.30  -0.17   0.18    -0.40  -0.56  -0.03
     8   6    -0.17   0.02  -0.03     0.01   0.08   0.20     0.10   0.24  -0.10
     9   1    -0.20  -0.08   0.04     0.23   0.54  -0.26    -0.17   0.24   0.14
                     10                     11                     12
                      A                      A                      A
 Frequencies --    997.0560              1076.5690              1119.3162
 Red. masses --      4.2974                 1.3543                 1.1193
 Frc consts  --      2.5171                 0.9248                 0.8263
 IR Inten    --      3.9233                 4.5180                 2.9384
  Atom  AN      X      Y      Z        X      Y      Z        X      Y      Z
     1   6    -0.24   0.25   0.06    -0.04  -0.06  -0.02     0.00   0.00   0.00
     2   1    -0.23  -0.33  -0.21    -0.05   0.90   0.12    -0.01  -0.05   0.08
     3   6     0.08  -0.19  -0.01    -0.04  -0.05   0.01    -0.01  -0.00  -0.01
     4   6    -0.22   0.04  -0.04    -0.06   0.04   0.02     0.01   0.00  -0.07
     5   1    -0.13  -0.25  -0.11    -0.01   0.21   0.04    -0.56   0.63   0.13
     6   6     0.15  -0.07  -0.10     0.10  -0.04   0.01    -0.00  -0.03   0.06
     7   1     0.26   0.20   0.35     0.03  -0.14  -0.01     0.06  -0.04  -0.10
     8   6     0.20   0.00   0.09     0.05   0.01  -0.03     0.01   0.00   0.01
     9   1     0.39   0.07  -0.13    -0.14   0.21   0.02     0.36  -0.32  -0.10
                     13                     14                     15
                      A                      A                      A
 Frequencies --   1164.4333              1232.7794              1316.5591
 Red. masses --      1.4802                 1.4478                 2.1273
 Frc consts  --      1.1825                 1.2964                 2.1725
 IR Inten    --      0.2279                 6.0184                44.1878
  Atom  AN      X      Y      Z        X      Y      Z        X      Y      Z
     1   6     0.01   0.05   0.01    -0.00  -0.05  -0.01    -0.05  -0.02  -0.00
     2   1     0.02  -0.40  -0.12    -0.01  -0.11   0.00    -0.05  -0.24  -0.09
     3   6    -0.09  -0.03  -0.00    -0.10   0.05  -0.01    -0.18  -0.01  -0.01
     4   6     0.04   0.03   0.01     0.04   0.03   0.01     0.08   0.04   0.01
     5   1    -0.20   0.37   0.13    -0.01   0.07  -0.00     0.59   0.03   0.17
     6   6     0.09   0.05  -0.01    -0.05  -0.13  -0.00     0.19  -0.04   0.01
     7   1    -0.13  -0.17  -0.01     0.70   0.60   0.02     0.06  -0.19   0.03
     8   6     0.02  -0.13  -0.02     0.06   0.03   0.00    -0.13   0.07   0.01
     9   1    -0.48   0.56   0.03    -0.13   0.25   0.04     0.49  -0.10  -0.40
                     16                     17                     18
                      A                      A                      A
 Frequencies --   1419.1763              1651.8554              3052.5628
 Red. masses --      1.3743                 7.2539                 1.0583
 Frc consts  --      1.6308                11.6618                 5.8102
 IR Inten    --     26.9057                27.7791                37.8906
  Atom  AN      X      Y      Z        X      Y      Z        X      Y      Z
     1   6    -0.01  -0.02   0.00     0.45   0.14   0.05     0.00  -0.00   0.00
     2   1    -0.01  -0.09  -0.03     0.59   0.01   0.10    -0.01   0.00  -0.00
     3   6    -0.11  -0.00  -0.00    -0.24   0.11  -0.00    -0.00   0.00  -0.00
     4   6     0.04   0.02  -0.00    -0.45  -0.23  -0.05     0.00   0.00  -0.00
     5   1    -0.45  -0.37  -0.32     0.14  -0.06   0.01    -0.19  -0.31   0.73
     6   6     0.11   0.00   0.01     0.10  -0.02  -0.00    -0.00   0.00   0.00
     7   1     0.01  -0.11   0.00     0.13  -0.01   0.02     0.02  -0.01   0.00
     8   6     0.02   0.08  -0.01     0.05   0.01   0.00     0.04   0.04  -0.03
     9   1    -0.26  -0.44   0.49     0.15  -0.02  -0.08    -0.33  -0.21  -0.41
                     19                     20                     21
                      A                      A                      A
 Frequencies --   3106.8730              3209.7912              3256.0188
 Red. masses --      1.1052                 1.0947                 1.1127
 Frc consts  --      6.2853                 6.6450                 6.9504
 IR Inten    --     23.5311                38.6426                74.8974
  Atom  AN      X      Y      Z        X      Y      Z        X      Y      Z
     1   6    -0.00  -0.00  -0.00     0.00   0.00   0.00    -0.10  -0.00  -0.01
     2   1     0.00   0.00  -0.00    -0.05   0.00  -0.01     0.98  -0.02   0.14
     3   6    -0.00   0.00  -0.00    -0.00  -0.00  -0.00     0.00  -0.00   0.00
     4   6     0.00   0.00   0.00    -0.00  -0.00   0.00     0.01   0.00   0.00
     5   1    -0.15  -0.22   0.50    -0.00  -0.00   0.01    -0.00  -0.00   0.01
     6   6     0.00  -0.00   0.00     0.06  -0.06   0.02     0.00  -0.00   0.00
     7   1    -0.01   0.01  -0.00    -0.66   0.68  -0.29    -0.03   0.03  -0.01
     8   6    -0.03  -0.01  -0.09     0.00   0.00   0.00     0.00   0.00   0.00
     9   1     0.49   0.32   0.57    -0.01  -0.01  -0.02    -0.01  -0.00  -0.01

 -------------------
 - Thermochemistry -
 -------------------
 Temperature   298.150 Kelvin.  Pressure   1.00000 Atm.
 Atom     1 has atomic number  6 and mass  12.00000
 Atom     2 has atomic number  1 and mass   1.00783
 Atom     3 has atomic number  6 and mass  12.00000
 Atom     4 has atomic number  6 and mass  12.00000
 Atom     5 has atomic number  1 and mass   1.00783
 Atom     6 has atomic number  6 and mass  12.00000
 Atom     7 has atomic number  1 and mass   1.00783
 Atom     8 has atomic number  6 and mass  12.00000
 Atom     9 has atomic number  1 and mass   1.00783
 Molecular mass:    64.03130 amu.
 Principal axes and moments of inertia in atomic units:
                           1         2         3
     Eigenvalues --   143.38322 244.35683 372.92732
           X            0.99973   0.02066   0.01075
           Y           -0.02040   0.99951  -0.02374
           Z           -0.01123   0.02351   0.99966
 This molecule is an asymmetric top.
 Rotational symmetry number  1.
 Rotational temperatures (Kelvin)      0.60407     0.35446     0.23225
 Rotational constants (GHZ):          12.58684     7.38568     4.83939
 Zero-point vibrational energy     170016.2 (Joules/Mol)
                                   40.63486 (Kcal/Mol)
 Warning -- explicit consideration of   4 degrees of freedom as
           vibrations may cause significant error
 Vibrational temperatures:    368.70   590.61   612.17   787.77  1035.35
          (Kelvin)           1108.92  1182.13  1274.02  1416.18  1434.54
                             1548.94  1610.44  1675.36  1773.69  1894.23
                             2041.88  2376.65  4391.95  4470.09  4618.17
                             4684.68
 
 Zero-point correction=                           0.064756 (Hartree/Particle)
 Thermal correction to Energy=                    0.069345
 Thermal correction to Enthalpy=                  0.070289
 Thermal correction to Gibbs Free Energy=         0.037413
 Sum of electronic and zero-point Energies=           -192.416411
 Sum of electronic and thermal Energies=              -192.411822
 Sum of electronic and thermal Enthalpies=            -192.410878
 Sum of electronic and thermal Free Energies=         -192.443753
 
                     E (Thermal)             CV                S
                      KCal/Mol        Cal/Mol-Kelvin    Cal/Mol-Kelvin
 Total                   43.514             16.386             69.192
 Electronic               0.000              0.000              1.377
 Translational            0.889              2.981             38.389
 Rotational               0.889              2.981             24.084
 Vibrational             41.737             10.425              5.342
 Vibration     1          0.666              1.752              1.687
 Vibration     2          0.775              1.447              0.925
 Vibration     3          0.787              1.415              0.874
 Vibration     4          0.903              1.145              0.549
                       Q            Log10(Q)             Ln(Q)
 Total Bot       0.618259D-17        -17.208830        -39.624794
 Total V=0       0.377306D+13         12.576693         28.958907
 Vib (Bot)       0.375126D-29        -29.425823        -67.755462
 Vib (Bot)    1  0.759338D+00         -0.119565         -0.275308
 Vib (Bot)    2  0.430835D+00         -0.365689         -0.842031
 Vib (Bot)    3  0.410954D+00         -0.386206         -0.889273
 Vib (Bot)    4  0.287300D+00         -0.541664         -1.247227
 Vib (V=0)       0.228928D+01          0.359700          0.828239
 Vib (V=0)    1  0.140917D+01          0.148964          0.343003
 Vib (V=0)    2  0.116001D+01          0.064463          0.148432
 Vib (V=0)    3  0.114721D+01          0.059644          0.137335
 Vib (V=0)    4  0.107666D+01          0.032080          0.073868
 Electronic      0.200000D+01          0.301030          0.693147
 Translational   0.201393D+08          7.304044         16.818182
 Rotational      0.409185D+05          4.611920         10.619338
 
                                                              b3lyp opt
                                                             IR Spectrum
 
     3 3   3 3                                                      1        1   1  1  1 1 1                                         
     2 2   1 0                                                      6        4   3  2  1 1 0 99   8 8 7 7      5   44      2         
     5 1   0 5                                                      5        1   1  3  6 1 7 98   8 2 7 2      4   21      5         
     6 0   7 3                                                      2        9   7  3  4 9 7 74   5 2 1 0      8   50      6         
 
     X X   X X                                                      X        X   X  X  X X X XX   X X X X      X   XX      X         
     X X   X X                                                      X        X   X  X         X     X X X           X      X         
     X X   X X                                                      X        X   X                  X X X           X      X         
     X X   X X                                                      X        X   X                  X X X           X      X         
     X X   X X                                                      X        X   X                  X X X           X      X         
     X X   X X                                                      X        X   X                    X X           X      X         
     X X     X                                                      X        X   X                      X           X      X         
     X X     X                                                                   X                      X           X      X         
     X X     X                                                                   X                                  X      X         
     X X     X                                                                   X                                  X                
     X                                                                           X                                  X                
     X                                                                           X                                  X                
     X                                                                                                              X                
     X                                                                                                              X                
     X                                                                                                              X                
     X                                                                                                              X                
     X                                                                                                                               
     X                                                                                                                               
     X                                                                                                                               
     X                                                                                                                               
 
 ***** Axes restored to original set *****
 -------------------------------------------------------------------
 Center     Atomic                   Forces (Hartrees/Bohr)
 Number     Number              X              Y              Z
 -------------------------------------------------------------------
      1        6           0.000029568   -0.000021595    0.000063656
      2        1           0.000000326   -0.000028893   -0.000018880
      3        6           0.000020523    0.000073493   -0.000012659
      4        6           0.000021185    0.000097315   -0.000041019
      5        1          -0.000001406   -0.000033132    0.000011489
      6        6          -0.000130573   -0.000003658    0.000018676
      7        1           0.000030939   -0.000021896    0.000006934
      8        6           0.000000077   -0.000079706   -0.000013570
      9        1           0.000029361    0.000018072   -0.000014627
 -------------------------------------------------------------------
 Cartesian Forces:  Max     0.000130573 RMS     0.000043985
 Z-matrix is all fixed cartesians, so copy forces.
 Force constants in Cartesian coordinates: 
                1             2             3             4             5 
      1  0.102485D+01
      2 -0.770318D-01  0.239472D+00
      3  0.101878D+00 -0.417367D-01  0.818850D-01
      4 -0.356227D+00 -0.634013D-02 -0.465034D-01  0.362156D+00
      5 -0.675195D-02 -0.306904D-01  0.330748D-02  0.761889D-02  0.401629D-01
      6 -0.460679D-01  0.203138D-02 -0.343235D-01  0.479009D-01 -0.244917D-02
      7 -0.223850D+00 -0.386345D-01 -0.205356D-01 -0.505956D-02 -0.255048D-01
      8 -0.150150D+00 -0.459111D-01  0.138620D-01 -0.468333D-02 -0.626948D-02
      9 -0.271937D-02  0.147086D-01 -0.265471D-01  0.505338D-03 -0.439589D-02
     10 -0.392032D+00  0.182579D+00 -0.493810D-01 -0.469850D-02  0.269754D-01
     11  0.233616D+00 -0.112002D+00  0.302643D-01  0.333360D-02 -0.340722D-02
     12 -0.516527D-01  0.282611D-01 -0.275744D-01  0.239529D-03  0.174144D-02
     13 -0.547987D-03  0.253187D-02 -0.217134D-02  0.342346D-03  0.464976D-04
     14 -0.220132D-02  0.287054D-02  0.128413D-03  0.447980D-03  0.192055D-03
     15 -0.694814D-03  0.254603D-02 -0.617737D-03  0.120152D-03 -0.145204D-04
     16 -0.293970D-01 -0.707547D-01  0.111447D-01  0.232753D-02 -0.279893D-02
     17 -0.788985D-02 -0.958000D-03 -0.810961D-02  0.670147D-03 -0.119640D-03
     18 -0.211480D-03  0.593371D-02 -0.245936D-02 -0.694771D-03 -0.276445D-03
     19 -0.165046D-02  0.319033D-02 -0.843361D-03  0.000000D+00 -0.384727D-03
     20  0.296277D-02 -0.236465D-02 -0.146440D-02 -0.659281D-04  0.441022D-03
     21  0.245013D-02 -0.440884D-02  0.619753D-02 -0.117887D-03  0.365908D-03
     22 -0.181968D-01  0.435838D-02  0.506444D-02  0.133316D-02  0.267959D-03
     23  0.107440D-01 -0.553913D-01  0.306034D-02 -0.859131D-03 -0.557245D-03
     24 -0.591588D-02 -0.935917D-02  0.411419D-02 -0.140067D-02  0.206933D-02
     25 -0.295302D-02  0.101284D-03  0.134767D-02 -0.174741D-03  0.531671D-03
     26 -0.329798D-02  0.497470D-02  0.688155D-03 -0.122098D-03  0.248060D-03
     27  0.293413D-02  0.202387D-02 -0.674563D-03 -0.492030D-04 -0.348141D-03
                6             7             8             9            10 
      6  0.265346D-01
      7  0.617156D-02  0.496912D+00
      8 -0.410170D-02  0.675175D-01  0.171059D+00
      9  0.175404D-02  0.108265D-01 -0.882162D-02  0.539545D-01
     10 -0.608568D-02  0.711760D-01  0.366363D-01 -0.299697D-02  0.569838D+00
     11  0.264751D-02 -0.236351D-01 -0.105574D+00  0.200999D-02 -0.202655D+00
     12 -0.418645D-02  0.168761D-01 -0.296824D-02 -0.763589D-02  0.282064D-01
     13 -0.114914D-02 -0.468034D-03 -0.250171D-02  0.588194D-03 -0.183635D-01
     14 -0.888436D-03 -0.867731D-02 -0.383321D-02  0.314182D-02  0.617342D-03
     15  0.126365D-03 -0.259370D-03  0.234383D-03 -0.956054D-03  0.566233D-02
     16 -0.445006D-02 -0.310028D+00  0.501491D-01 -0.723015D-02 -0.480275D-01
     17  0.355125D-02 -0.534556D-01 -0.219601D-01 -0.140271D-01 -0.177767D-01
     18  0.430572D-02 -0.164834D-01 -0.732292D-02 -0.470982D-01  0.147694D-01
     19  0.323140D-03 -0.225990D-01 -0.177097D-01 -0.618896D-02  0.887366D-03
     20 -0.148768D-03  0.949327D-02  0.114938D-01  0.501529D-02 -0.589383D-03
     21 -0.114587D-02  0.820830D-02 -0.541638D-04 -0.322038D-02 -0.415525D-02
     22  0.272630D-02 -0.897102D-02  0.221116D-01  0.874492D-02 -0.158045D+00
     23 -0.122315D-02  0.788232D-01  0.562363D-02  0.644651D-02 -0.279951D-01
     24  0.747420D-02 -0.799273D-03  0.891684D-02  0.308855D-01  0.686924D-02
     25  0.630857D-03  0.288804D-02 -0.137022D-02 -0.152955D-02 -0.207358D-01
     26  0.581084D-03 -0.592665D-02 -0.462832D-02 -0.407767D-02  0.220749D-02
     27 -0.539109D-03 -0.400490D-02  0.255376D-03 -0.113639D-02  0.711159D-02
               11            12            13            14            15 
     11  0.225880D+00
     12 -0.414085D-01  0.934217D-01
     13  0.808718D-02  0.281499D-01  0.618416D-01
     14  0.564550D-02  0.777143D-02 -0.262251D-01  0.844050D-01
     15 -0.319452D-02 -0.296906D-02 -0.635607D-01  0.997724D-01  0.273637D+00
     16 -0.150365D-01 -0.406218D-03 -0.165506D-02  0.133080D-01 -0.313181D-02
     17 -0.187051D-01  0.163859D-01  0.286063D-02 -0.189131D-01  0.197213D-02
     18  0.115415D-01  0.123524D-01 -0.399256D-02 -0.249177D-01  0.428382D-02
     19  0.568352D-03 -0.110388D-02  0.313544D-03  0.234034D-03  0.398175D-03
     20 -0.314244D-03 -0.153944D-02 -0.779289D-03 -0.123912D-02 -0.235980D-03
     21 -0.623386D-02  0.599099D-02  0.458732D-03  0.105926D-02 -0.458009D-03
     22 -0.129665D-01 -0.224706D-02 -0.473392D-01  0.251362D-01  0.564314D-01
     23  0.542003D-02  0.408176D-04  0.231869D-01 -0.743819D-01 -0.931324D-01
     24  0.826586D-02 -0.769505D-01  0.581886D-01 -0.964484D-01 -0.255323D+00
     25  0.868792D-02 -0.180620D-01  0.587628D-02 -0.263979D-02  0.503462D-02
     26  0.305756D-02 -0.828451D-02 -0.720704D-02  0.525419D-02 -0.794753D-02
     27 -0.389232D-02  0.755123D-02 -0.165117D-01  0.103812D-01 -0.177234D-01
               16            17            18            19            20 
     16  0.627606D+00
     17  0.175732D+00  0.463060D+00
     18  0.735475D-01  0.822206D-01  0.154057D+00
     19 -0.173081D+00 -0.135704D+00 -0.633370D-01  0.185819D+00
     20 -0.141398D+00 -0.193558D+00 -0.630863D-01  0.143224D+00  0.194082D+00
     21 -0.657616D-01 -0.619193D-01 -0.565010D-01  0.667592D-01  0.673283D-01
     22 -0.680673D-01  0.306417D-01 -0.616264D-02  0.102214D-01 -0.129957D-01
     23 -0.311427D-01 -0.193504D+00 -0.244070D-01  0.733611D-02 -0.987990D-02
     24 -0.705189D-02 -0.155868D-01 -0.694570D-01  0.443563D-02 -0.626768D-02
     25  0.322301D-03  0.492203D-02  0.256500D-02  0.888836D-04  0.148584D-03
     26  0.219423D-01 -0.153413D-01  0.203144D-01 -0.754206D-03  0.133873D-02
     27  0.333957D-02 -0.448717D-02  0.517102D-03 -0.442906D-03  0.398964D-03
               21            22            23            24            25 
     21  0.475535D-01
     22 -0.828257D-02  0.423698D+00
     23  0.440227D-02 -0.116639D+00  0.405026D+00
     24  0.451853D-03  0.590827D-01  0.281222D-01  0.537057D+00
     25  0.440987D-03 -0.134633D+00  0.565454D-01 -0.113409D+00  0.149322D+00
     26 -0.539587D-03  0.600851D-01 -0.823554D-01  0.802878D-01 -0.669269D-01
     27  0.113145D-02 -0.115358D+00  0.766904D-01 -0.178252D+00  0.122981D+00
               26            27 
     26  0.874518D-01
     27 -0.810222D-01  0.189125D+00
 Leave Link  716 at Mon Jun 20 04:57:47 2016, MaxMem=    33554432 cpu:         0.1
 (Enter /home/proyectos/fulerenos/M3C-v1.9/M3C-deps_CCC/g09-AM64L-G09RevC.01/l103.exe)

 GradGradGradGradGradGradGradGradGradGradGradGradGradGradGradGradGradGrad
 Berny optimization.
 Search for a local minimum.
 Step number   1 out of a maximum of    2
 All quantities printed in internal units (Hartrees-Bohrs-Radians)
 Second derivative matrix not updated -- analytic derivatives used.
 ITU=  0
     Eigenvalues ---    0.00987   0.01900   0.02580   0.03995   0.04712
     Eigenvalues ---    0.06042   0.07047   0.08990   0.11916   0.12515
     Eigenvalues ---    0.14155   0.17399   0.25220   0.27720   0.36634
     Eigenvalues ---    0.52885   0.60917   0.71966   0.78515   1.08095
     Eigenvalues ---    1.52704
 Angle between quadratic step and forces=  55.98 degrees.
 Linear search not attempted -- first point.
 B after Tr=    -0.000063    0.000368    0.000060
         Rot=    1.000000    0.000028   -0.000018    0.000007 Ang=   0.00 deg.
 Variable       Old X    -DE/DX   Delta X   Delta X   Delta X     New X
                                 (Linear)    (Quad)   (Total)
    X1       -2.72534   0.00003   0.00000   0.00010   0.00003  -2.72531
    Y1       -0.12312  -0.00002   0.00000  -0.00042  -0.00001  -0.12313
    Z1       -0.01549   0.00006   0.00000  -0.00038  -0.00022  -0.01571
    X2       -4.74226   0.00000   0.00000   0.00026   0.00019  -4.74208
    Y2       -0.17135  -0.00003   0.00000  -0.00190  -0.00148  -0.17283
    Z2       -0.29983  -0.00002   0.00000  -0.00126  -0.00102  -0.30085
    X3       -0.84086   0.00002   0.00000  -0.00089  -0.00093  -0.84179
    Y3        1.75377   0.00007   0.00000   0.00205   0.00242   1.75619
    Z3       -0.07942  -0.00001   0.00000   0.00041   0.00040  -0.07901
    X4       -0.81067   0.00002   0.00000   0.00094   0.00086  -0.80981
    Y4       -1.67701   0.00010   0.00000   0.00200   0.00240  -1.67461
    Z4        0.30579  -0.00004   0.00000   0.00091   0.00110   0.30689
    X5        2.49438  -0.00000   0.00000  -0.00080  -0.00097   2.49341
    Y5       -2.06373  -0.00003   0.00000  -0.00184  -0.00162  -2.06534
    Z5       -1.96792   0.00001   0.00000  -0.00018  -0.00010  -1.96801
    X6        1.70947  -0.00013   0.00000  -0.00082  -0.00086   1.70861
    Y6        1.54062  -0.00000   0.00000  -0.00065  -0.00031   1.54031
    Z6       -0.01767   0.00002   0.00000  -0.00023  -0.00032  -0.01798
    X7        3.06084   0.00003   0.00000   0.00010   0.00010   3.06094
    Y7        2.94970  -0.00002   0.00000  -0.00213  -0.00177   2.94793
    Z7        0.58150   0.00001   0.00000   0.00141   0.00120   0.58270
    X8        1.99469   0.00000   0.00000   0.00026   0.00017   1.99486
    Y8       -1.26707  -0.00008   0.00000  -0.00075  -0.00041  -1.26749
    Z8       -0.12995  -0.00001   0.00000  -0.00039  -0.00032  -0.13028
    X9        3.21852   0.00003   0.00000   0.00145   0.00140   3.21992
    Y9       -2.06556   0.00002   0.00000   0.00038   0.00078  -2.06479
    Z9        1.32393  -0.00001   0.00000  -0.00079  -0.00072   1.32320
         Item               Value     Threshold  Converged?
 Maximum Force            0.000131     0.000450     YES
 RMS     Force            0.000044     0.000300     YES
 Maximum Displacement     0.002425     0.001800     NO 
 RMS     Displacement     0.001061     0.001200     YES
 Predicted change in Energy=-3.649892D-07
 GradGradGradGradGradGradGradGradGradGradGradGradGradGradGradGradGradGrad

 Leave Link  103 at Mon Jun 20 04:57:47 2016, MaxMem=    33554432 cpu:         0.1
 (Enter /home/proyectos/fulerenos/M3C-v1.9/M3C-deps_CCC/g09-AM64L-G09RevC.01/l9999.exe)
 1\1\GINC-BELVIS17\Freq\UB3LYP\6-311++G(3df,2p)\C5H4(1+,2)\ROOT\20-Jun-
 2016\0\\#p b3lyp/6-311++G(3df,2p) freq symmetry=Loose\\b3lyp opt\\1,2\
 C,-1.442188,-0.065151,-0.008198\H,-2.509497,-0.090674,-0.158662\C,-0.4
 44963,0.928055,-0.042025\C,-0.428987,-0.887435,0.161818\H,1.319967,-1.
 092077,-1.041377\C,0.904615,0.815262,-0.009349\H,1.619726,1.560916,0.3
 07719\C,1.055543,-0.670507,-0.068767\H,1.703166,-1.093049,0.700593\\Ve
 rsion=EM64L-G09RevE.01\State=2-A\HF=-192.4811665\S2=0.76948\S2-1=0.\S2
 A=0.75022\RMSD=5.393e-09\RMSF=4.398e-05\ZeroPoint=0.0647558\Thermal=0.
 0693445\Dipole=0.0976949,-0.1248384,-0.0292009\DipoleDeriv=0.1651952,0
 .0346324,0.0151331,0.1188808,0.5591575,-0.1307108,0.0224913,-0.083695,
 0.1663846,0.3180578,-0.0042851,0.0156441,-0.0026656,0.1378155,0.012023
 9,0.0265588,0.0240084,0.1781391,-0.4323476,-0.0840346,0.0034898,0.0195
 421,-0.3614324,0.0159752,-0.1215707,-0.0334681,0.09029,-0.0000091,-0.1
 591185,-0.0508415,-0.0729117,-0.3962594,0.133525,-0.0189711,0.1240857,
 0.0168588,0.1377414,-0.0236261,-0.0141434,-0.0581768,0.1678814,0.01039
 56,-0.0464599,0.0285608,0.1619232,0.3697995,0.2767055,0.0237775,-0.229
 3782,0.2451059,0.0686349,0.1380605,0.0107617,0.0295143,0.1912108,0.043
 1063,-0.0052423,0.050711,0.1838987,0.0047011,-0.0109933,0.0034896,0.16
 27831,0.0637497,-0.0420791,0.0007344,0.1918677,0.3159236,-0.1195324,0.
 0117597,-0.0583282,0.0601727,0.1866023,-0.0413007,0.0114483,-0.0178693
 ,0.1479093,0.0049874,-0.0008752,-0.015415,0.1339341\Polar=58.1063707,1
 .8859402,52.3921589,0.1763667,-1.3806138,31.3043727\PG=C01 [X(C5H4)]\N
 Imag=0\\1.02485399,-0.07703176,0.23947248,0.10187788,-0.04173670,0.081
 88502,-0.35622717,-0.00634013,-0.04650337,0.36215620,-0.00675195,-0.03
 069045,0.00330748,0.00761889,0.04016290,-0.04606787,0.00203138,-0.0343
 2353,0.04790089,-0.00244917,0.02653462,-0.22385002,-0.03863448,-0.0205
 3558,-0.00505956,-0.02550480,0.00617156,0.49691199,-0.15014953,-0.0459
 1108,0.01386205,-0.00468333,-0.00626948,-0.00410170,0.06751747,0.17105
 880,-0.00271937,0.01470863,-0.02654714,0.00050534,-0.00439589,0.001754
 04,0.01082655,-0.00882162,0.05395453,-0.39203152,0.18257921,-0.0493810
 1,-0.00469850,0.02697539,-0.00608568,0.07117605,0.03663632,-0.00299697
 ,0.56983832,0.23361557,-0.11200225,0.03026427,0.00333360,-0.00340722,0
 .00264751,-0.02363510,-0.10557405,0.00200999,-0.20265455,0.22587977,-0
 .05165272,0.02826109,-0.02757441,0.00023953,0.00174144,-0.00418645,0.0
 1687612,-0.00296824,-0.00763589,0.02820638,-0.04140847,0.09342165,-0.0
 0054799,0.00253187,-0.00217134,0.00034235,0.00004650,-0.00114914,-0.00
 046803,-0.00250171,0.00058819,-0.01836352,0.00808718,0.02814987,0.0618
 4159,-0.00220132,0.00287054,0.00012841,0.00044798,0.00019205,-0.000888
 44,-0.00867731,-0.00383321,0.00314182,0.00061734,0.00564550,0.00777143
 ,-0.02622507,0.08440504,-0.00069481,0.00254603,-0.00061774,0.00012015,
 -0.00001452,0.00012636,-0.00025937,0.00023438,-0.00095605,0.00566233,-
 0.00319452,-0.00296906,-0.06356068,0.09977237,0.27363729,-0.02939698,-
 0.07075471,0.01114467,0.00232753,-0.00279893,-0.00445006,-0.31002841,0
 .05014909,-0.00723015,-0.04802749,-0.01503650,-0.00040622,-0.00165506,
 0.01330795,-0.00313181,0.62760636,-0.00788985,-0.00095800,-0.00810961,
 0.00067015,-0.00011964,0.00355125,-0.05345559,-0.02196011,-0.01402706,
 -0.01777667,-0.01870511,0.01638589,0.00286063,-0.01891309,0.00197213,0
 .17573184,0.46305976,-0.00021148,0.00593371,-0.00245936,-0.00069477,-0
 .00027644,0.00430572,-0.01648340,-0.00732292,-0.04709821,0.01476938,0.
 01154154,0.01235241,-0.00399256,-0.02491766,0.00428382,0.07354747,0.08
 222064,0.15405657,-0.00165046,0.00319033,-0.00084336,0.00000073,-0.000
 38473,0.00032314,-0.02259902,-0.01770969,-0.00618896,0.00088737,0.0005
 6835,-0.00110388,0.00031354,0.00023403,0.00039818,-0.17308098,-0.13570
 422,-0.06333700,0.18581854,0.00296277,-0.00236465,-0.00146440,-0.00006
 593,0.00044102,-0.00014877,0.00949327,0.01149382,0.00501529,-0.0005893
 8,-0.00031424,-0.00153944,-0.00077929,-0.00123912,-0.00023598,-0.14139
 833,-0.19355807,-0.06308631,0.14322401,0.19408242,0.00245013,-0.004408
 84,0.00619753,-0.00011789,0.00036591,-0.00114587,0.00820830,-0.0000541
 6,-0.00322038,-0.00415525,-0.00623386,0.00599099,0.00045873,0.00105926
 ,-0.00045801,-0.06576159,-0.06191932,-0.05650102,0.06675916,0.06732833
 ,0.04755346,-0.01819684,0.00435838,0.00506444,0.00133316,0.00026796,0.
 00272630,-0.00897102,0.02211160,0.00874492,-0.15804490,-0.01296647,-0.
 00224706,-0.04733916,0.02513618,0.05643141,-0.06806727,0.03064168,-0.0
 0616264,0.01022140,-0.01299571,-0.00828257,0.42369811,0.01074404,-0.05
 539130,0.00306034,-0.00085913,-0.00055724,-0.00122315,0.07882318,0.005
 62363,0.00644651,-0.02799515,0.00542003,0.00004082,0.02318694,-0.07438
 191,-0.09313237,-0.03114270,-0.19350443,-0.02440701,0.00733611,-0.0098
 7990,0.00440227,-0.11663871,0.40502649,-0.00591588,-0.00935917,0.00411
 419,-0.00140067,0.00206933,0.00747420,-0.00079927,0.00891684,0.0308854
 9,0.00686924,0.00826586,-0.07695048,0.05818865,-0.09644839,-0.25532318
 ,-0.00705189,-0.01558675,-0.06945704,0.00443563,-0.00626768,0.00045185
 ,0.05908274,0.02812220,0.53705666,-0.00295302,0.00010128,0.00134767,-0
 .00017474,0.00053167,0.00063086,0.00288804,-0.00137022,-0.00152955,-0.
 02073582,0.00868792,-0.01806201,0.00587628,-0.00263979,0.00503462,0.00
 032230,0.00492203,0.00256500,0.00008888,0.00014858,0.00044099,-0.13463
 349,0.05654543,-0.11340855,0.14932157,-0.00329798,0.00497470,0.0006881
 6,-0.00012210,0.00024806,0.00058108,-0.00592665,-0.00462832,-0.0040776
 7,0.00220749,0.00305756,-0.00828451,-0.00720704,0.00525419,-0.00794753
 ,0.02194229,-0.01534131,0.02031444,-0.00075421,0.00133873,-0.00053959,
 0.06008508,-0.08235537,0.08028778,-0.06692690,0.08745175,0.00293413,0.
 00202387,-0.00067456,-0.00004920,-0.00034814,-0.00053911,-0.00400490,0
 .00025538,-0.00113639,0.00711159,-0.00389232,0.00755123,-0.01651173,0.
 01038120,-0.01772344,0.00333957,-0.00448717,0.00051710,-0.00044291,0.0
 0039896,0.00113145,-0.11535752,0.07669039,-0.17825169,0.12298097,-0.08
 102217,0.18912541\\-0.00002957,0.00002160,-0.00006366,-0.00000033,0.00
 002889,0.00001888,-0.00002052,-0.00007349,0.00001266,-0.00002118,-0.00
 009732,0.00004102,0.00000141,0.00003313,-0.00001149,0.00013057,0.00000
 366,-0.00001868,-0.00003094,0.00002190,-0.00000693,-0.00000008,0.00007
 971,0.00001357,-0.00002936,-0.00001807,0.00001463\\\@


 GOD GAVE US TWO ENDS... ONE TO SIT ON...    
 AND THE OTHER TO THINK WITH...              
 YOUR SUCCESS DEPENDS UPON WHICH END YOU     
 USE THE MOST...                             
                                             
 IT'S A CASE OF HEADS YOU WIN TAILS YOU LOSE.
          SOURCE UNKNOWN(IT'S JUST AS WELL.) 
 Job cpu time:       0 days  1 hours 10 minutes 37.5 seconds.
 File lengths (MBytes):  RWF=     80 Int=      0 D2E=      0 Chk=      5 Scr=      1
 Normal termination of Gaussian 09 at Mon Jun 20 04:57:47 2016.
