 Entering Gaussian System, Link 0=/home/proyectos/fulerenos/M3C-v2.0/M3C-deps_CCC/g09-AM64L-G09RevC.01/g09
 Initial command:
 /home/proyectos/fulerenos/M3C-v2.0/M3C-deps_CCC/g09-AM64L-G09RevC.01/l1.exe "/scratch/naguirre/gaussian/Gau-4498.inp" -scrdir="/scratch/naguirre/gaussian/"
 Entering Link 1 = /home/proyectos/fulerenos/M3C-v2.0/M3C-deps_CCC/g09-AM64L-G09RevC.01/l1.exe PID=      4501.
  
 Copyright (c) 1988,1990,1992,1993,1995,1998,2003,2009,2015,
            Gaussian, Inc.  All Rights Reserved.
  
 This is part of the Gaussian(R) 09 program.  It is based on
 the Gaussian(R) 03 system (copyright 2003, Gaussian, Inc.),
 the Gaussian(R) 98 system (copyright 1998, Gaussian, Inc.),
 the Gaussian(R) 94 system (copyright 1995, Gaussian, Inc.),
 the Gaussian 92(TM) system (copyright 1992, Gaussian, Inc.),
 the Gaussian 90(TM) system (copyright 1990, Gaussian, Inc.),
 the Gaussian 88(TM) system (copyright 1988, Gaussian, Inc.),
 the Gaussian 86(TM) system (copyright 1986, Carnegie Mellon
 University), and the Gaussian 82(TM) system (copyright 1983,
 Carnegie Mellon University). Gaussian is a federally registered
 trademark of Gaussian, Inc.
  
 This software contains proprietary and confidential information,
 including trade secrets, belonging to Gaussian, Inc.
  
 This software is provided under written license and may be
 used, copied, transmitted, or stored only in accord with that
 written license.
  
 The following legend is applicable only to US Government
 contracts under FAR:
  
                    RESTRICTED RIGHTS LEGEND
  
 Use, reproduction and disclosure by the US Government is
 subject to restrictions as set forth in subparagraphs (a)
 and (c) of the Commercial Computer Software - Restricted
 Rights clause in FAR 52.227-19.
  
 Gaussian, Inc.
 340 Quinnipiac St., Bldg. 40, Wallingford CT 06492
  
  
 ---------------------------------------------------------------
 Warning -- This program may not be used in any manner that
 competes with the business of Gaussian, Inc. or will provide
 assistance to any competitor of Gaussian, Inc.  The licensee
 of this program is prohibited from giving any competitor of
 Gaussian, Inc. access to this program.  By using this program,
 the user acknowledges that Gaussian, Inc. is engaged in the
 business of creating and licensing software in the field of
 computational chemistry and represents and warrants to the
 licensee that it is not a competitor of Gaussian, Inc. and that
 it will not use this program in any manner prohibited above.
 ---------------------------------------------------------------
  

 Cite this work as:
 Gaussian 09, Revision E.01,
 M. J. Frisch, G. W. Trucks, H. B. Schlegel, G. E. Scuseria, 
 M. A. Robb, J. R. Cheeseman, G. Scalmani, V. Barone, B. Mennucci, 
 G. A. Petersson, H. Nakatsuji, M. Caricato, X. Li, H. P. Hratchian, 
 A. F. Izmaylov, J. Bloino, G. Zheng, J. L. Sonnenberg, M. Hada, 
 M. Ehara, K. Toyota, R. Fukuda, J. Hasegawa, M. Ishida, T. Nakajima, 
 Y. Honda, O. Kitao, H. Nakai, T. Vreven, J. A. Montgomery, Jr., 
 J. E. Peralta, F. Ogliaro, M. Bearpark, J. J. Heyd, E. Brothers, 
 K. N. Kudin, V. N. Staroverov, T. Keith, R. Kobayashi, J. Normand, 
 K. Raghavachari, A. Rendell, J. C. Burant, S. S. Iyengar, J. Tomasi, 
 M. Cossi, N. Rega, J. M. Millam, M. Klene, J. E. Knox, J. B. Cross, 
 V. Bakken, C. Adamo, J. Jaramillo, R. Gomperts, R. E. Stratmann, 
 O. Yazyev, A. J. Austin, R. Cammi, C. Pomelli, J. W. Ochterski, 
 R. L. Martin, K. Morokuma, V. G. Zakrzewski, G. A. Voth, 
 P. Salvador, J. J. Dannenberg, S. Dapprich, A. D. Daniels, 
 O. Farkas, J. B. Foresman, J. V. Ortiz, J. Cioslowski, 
 and D. J. Fox, Gaussian, Inc., Wallingford CT, 2013.
 
 ******************************************
 Gaussian 09:  EM64L-G09RevE.01 30-Nov-2015
                20-Jul-2016 
 ******************************************
 %NProcShared=1
 Will use up to    1 processors via shared memory.
 ---------------------------------------------
 #p b3lyp/6-311++G(3df,2p) freq symmetry=Loose
 ---------------------------------------------
 1/10=4,30=1,38=1/1,3;
 2/12=2,17=4,18=3,40=1/2;
 3/5=4,6=6,7=1216,11=2,16=1,25=1,30=1,71=2,74=-5,140=1/1,2,3;
 4//1;
 5/5=2,38=5,98=1/2;
 8/6=4,10=90,11=11/1;
 11/6=1,8=1,9=11,15=111,16=1/1,2,10;
 10/6=1/2;
 6/7=2,8=2,9=2,10=2,18=1,28=1/1;
 7/8=1,10=1,25=1/1,2,3,16;
 1/10=4,30=1/3;
 99//99;
 Leave Link    1 at Wed Jul 20 13:57:26 2016, MaxMem=           0 cpu:         0.1
 (Enter /home/proyectos/fulerenos/M3C-v2.0/M3C-deps_CCC/g09-AM64L-G09RevC.01/l101.exe)
 ---------
 b3lyp opt
 ---------
 Symbolic Z-matrix:
 Charge =  3 Multiplicity = 4
 C                    -1.32176   0.00003  -0.00003 
 H                    -2.39058   0.00005  -0.58689 
 H                    -2.3906    0.00005   0.58678 
 C                    -0.33003   1.05312  0. 
 C                    -0.33008  -1.05311  -0.00002 
 H                    -0.33828  -2.15917  -0.00002 
 C                     0.73367  -0.00002   0.00001 
 C                     2.15781  -0.00005   0.00004 
 H                    -0.33818   2.15918   0. 
 
 NAtoms=      9 NQM=        9 NQMF=       0 NMMI=      0 NMMIF=      0
                NMic=       0 NMicF=      0.
                    Isotopes and Nuclear Properties:
 (Nuclear quadrupole moments (NQMom) in fm**2, nuclear magnetic moments (NMagM)
  in nuclear magnetons)

  Atom         1           2           3           4           5           6           7           8           9
 IAtWgt=          12           1           1          12          12           1          12          12           1
 AtmWgt=  12.0000000   1.0078250   1.0078250  12.0000000  12.0000000   1.0078250  12.0000000  12.0000000   1.0078250
 NucSpn=           0           1           1           0           0           1           0           0           1
 AtZEff=   0.0000000   0.0000000   0.0000000   0.0000000   0.0000000   0.0000000   0.0000000   0.0000000   0.0000000
 NQMom=    0.0000000   0.0000000   0.0000000   0.0000000   0.0000000   0.0000000   0.0000000   0.0000000   0.0000000
 NMagM=    0.0000000   2.7928460   2.7928460   0.0000000   0.0000000   2.7928460   0.0000000   0.0000000   2.7928460
 AtZNuc=   6.0000000   1.0000000   1.0000000   6.0000000   6.0000000   1.0000000   6.0000000   6.0000000   1.0000000
 Leave Link  101 at Wed Jul 20 13:57:27 2016, MaxMem=    33554432 cpu:         0.4
 (Enter /home/proyectos/fulerenos/M3C-v2.0/M3C-deps_CCC/g09-AM64L-G09RevC.01/l103.exe)

 GradGradGradGradGradGradGradGradGradGradGradGradGradGradGradGradGradGrad
 Berny optimization.
 Initialization pass.
 Trust Radius=3.00D-01 FncErr=1.00D-07 GrdErr=1.00D-07
 Number of steps in this run=      2 maximum allowed number of steps=      2.
 GradGradGradGradGradGradGradGradGradGradGradGradGradGradGradGradGradGrad

 Leave Link  103 at Wed Jul 20 13:57:27 2016, MaxMem=    33554432 cpu:         0.1
 (Enter /home/proyectos/fulerenos/M3C-v2.0/M3C-deps_CCC/g09-AM64L-G09RevC.01/l202.exe)
                          Input orientation:                          
 ---------------------------------------------------------------------
 Center     Atomic      Atomic             Coordinates (Angstroms)
 Number     Number       Type             X           Y           Z
 ---------------------------------------------------------------------
      1          6           0       -1.321762    0.000026   -0.000030
      2          1           0       -2.390576    0.000053   -0.586889
      3          1           0       -2.390600    0.000047    0.586784
      4          6           0       -0.330030    1.053121   -0.000004
      5          6           0       -0.330078   -1.053114   -0.000015
      6          1           0       -0.338283   -2.159174   -0.000022
      7          6           0        0.733665   -0.000021    0.000013
      8          6           0        2.157812   -0.000053    0.000042
      9          1           0       -0.338185    2.159180    0.000002
 ---------------------------------------------------------------------
                    Distance matrix (angstroms):
                    1          2          3          4          5
     1  C    0.000000
     2  H    1.219330   0.000000
     3  H    1.219330   1.173673   0.000000
     4  C    1.446562   2.387307   2.387307   0.000000
     5  C    1.446562   2.387307   2.387307   2.106235   0.000000
     6  H    2.372630   3.036211   3.036211   3.212305   1.106090
     7  C    2.055427   3.178889   3.178889   1.496848   1.496848
     8  C    3.479574   4.586101   4.586101   2.701580   2.701580
     9  H    2.372630   3.036211   3.036211   1.106090   3.212305
                    6          7          8          9
     6  H    0.000000
     7  C    2.410604   0.000000
     8  C    3.300347   1.424147   0.000000
     9  H    4.318354   2.410604   3.300347   0.000000
 Stoichiometry    C5H4(3+,4)
 Framework group  C2V[C2(CCC),SGV(H2),SGV'(C2H2)]
 Deg. of freedom     8
 Full point group                 C2V     NOp   4
 Largest Abelian subgroup         C2V     NOp   4
 Largest concise Abelian subgroup C2V     NOp   4
                         Standard orientation:                         
 ---------------------------------------------------------------------
 Center     Atomic      Atomic             Coordinates (Angstroms)
 Number     Number       Type             X           Y           Z
 ---------------------------------------------------------------------
      1          6           0        0.000000    0.000000   -1.321762
      2          1           0        0.000000    0.586886   -2.390576
      3          1           0       -0.000000   -0.586886   -2.390576
      4          6           0       -1.053118    0.000000   -0.330054
      5          6           0        1.053118   -0.000000   -0.330054
      6          1           0        2.159177   -0.000000   -0.338234
      7          6           0       -0.000000    0.000000    0.733665
      8          6           0       -0.000000    0.000000    2.157812
      9          1           0       -2.159177    0.000000   -0.338234
 ---------------------------------------------------------------------
 Rotational constants (GHZ):     13.7672932      5.1622918      3.7936145
 Leave Link  202 at Wed Jul 20 13:57:27 2016, MaxMem=    33554432 cpu:         0.0
 (Enter /home/proyectos/fulerenos/M3C-v2.0/M3C-deps_CCC/g09-AM64L-G09RevC.01/l301.exe)
 Standard basis: 6-311++G(3df,2p) (5D, 7F)
 Ernie: Thresh=  0.10000D-02 Tol=  0.10000D-05 Strict=F.
 There are   110 symmetry adapted cartesian basis functions of A1  symmetry.
 There are    30 symmetry adapted cartesian basis functions of A2  symmetry.
 There are    71 symmetry adapted cartesian basis functions of B1  symmetry.
 There are    54 symmetry adapted cartesian basis functions of B2  symmetry.
 There are    93 symmetry adapted basis functions of A1  symmetry.
 There are    29 symmetry adapted basis functions of A2  symmetry.
 There are    63 symmetry adapted basis functions of B1  symmetry.
 There are    50 symmetry adapted basis functions of B2  symmetry.
   235 basis functions,   338 primitive gaussians,   265 cartesian basis functions
    17 alpha electrons       14 beta electrons
       nuclear repulsion energy       133.1937742627 Hartrees.
 IExCor=  402 DFT=T Ex+Corr=B3LYP ExCW=0 ScaHFX=  0.200000
 ScaDFX=  0.800000  0.720000  1.000000  0.810000 ScalE2=  1.000000  1.000000
 IRadAn=      0 IRanWt=     -1 IRanGd=            0 ICorTp=0 IEmpDi=  4
 NAtoms=    9 NActive=    9 NUniq=    6 SFac= 2.25D+00 NAtFMM=   60 NAOKFM=F Big=F
 Integral buffers will be    131072 words long.
 Raffenetti 2 integral format.
 Two-electron integral symmetry is turned on.
 Leave Link  301 at Wed Jul 20 13:57:28 2016, MaxMem=    33554432 cpu:         0.4
 (Enter /home/proyectos/fulerenos/M3C-v2.0/M3C-deps_CCC/g09-AM64L-G09RevC.01/l302.exe)
 NPDir=0 NMtPBC=     1 NCelOv=     1 NCel=       1 NClECP=     1 NCelD=      1
         NCelK=      1 NCelE2=     1 NClLst=     1 CellRange=     0.0.
 One-electron integrals computed using PRISM.
 One-electron integral symmetry used in STVInt
 NBasis=   235 RedAO= T EigKep=  3.58D-06  NBF=    93    29    63    50
 NBsUse=   235 1.00D-06 EigRej= -1.00D+00 NBFU=    93    29    63    50
 Precomputing XC quadrature grid using
 IXCGrd= 4 IRadAn=           0 IRanWt=          -1 IRanGd=           0 AccXCQ= 0.00D+00.
 Generated NRdTot=       0 NPtTot=           0 NUsed=           0 NTot=          32
 NSgBfM=   265   265   265   265   265 MxSgAt=     9 MxSgA2=     9.
 Leave Link  302 at Wed Jul 20 13:57:29 2016, MaxMem=    33554432 cpu:         1.0
 (Enter /home/proyectos/fulerenos/M3C-v2.0/M3C-deps_CCC/g09-AM64L-G09RevC.01/l303.exe)
 DipDrv:  MaxL=1.
 Leave Link  303 at Wed Jul 20 13:57:29 2016, MaxMem=    33554432 cpu:         0.3
 (Enter /home/proyectos/fulerenos/M3C-v2.0/M3C-deps_CCC/g09-AM64L-G09RevC.01/l401.exe)
 ExpMin= 3.60D-02 ExpMax= 4.56D+03 ExpMxC= 6.82D+02 IAcc=3 IRadAn=         5 AccDes= 0.00D+00
 Harris functional with IExCor=  402 and IRadAn=       5 diagonalized for initial guess.
 HarFok:  IExCor=  402 AccDes= 0.00D+00 IRadAn=         5 IDoV= 1 UseB2=F ITyADJ=14
 ICtDFT=  3500011 ScaDFX=  1.000000  1.000000  1.000000  1.000000
 FoFCou: FMM=F IPFlag=           0 FMFlag=      100000 FMFlg1=           0
         NFxFlg=           0 DoJE=T BraDBF=F KetDBF=T FulRan=T
         wScrn=  0.000000 ICntrl=     500 IOpCl=  0 I1Cent=   200000004 NGrid=           0
         NMat0=    1 NMatS0=      1 NMatT0=    0 NMatD0=    1 NMtDS0=    0 NMtDT0=    0
 Petite list used in FoFCou.
 Harris En= -191.750404598102    
 JPrj=0 DoOrth=F DoCkMO=F.
 Initial guess orbital symmetries:
 Alpha Orbitals:
       Occupied  (A1) (B1) (A1) (A1) (A1) (A1) (A1) (B1) (A1) (A1)
                 (A1) (B1) (B1) (B2) (A1) (B2) (A2)
       Virtual   (B1) (B2) (B2) (A1) (A1) (B1) (B2) (A1) (A1) (B1)
                 (A1) (B2) (A1) (B1) (A2) (B1) (A1) (B2) (A1) (B2)
                 (B1) (B1) (B2) (A1) (A1) (B1) (B2) (A1) (B1) (A1)
                 (A1) (B1) (A1) (A1) (B1) (A2) (B1) (A1) (B2) (A1)
                 (B2) (A2) (B1) (A1) (A2) (A1) (A1) (B2) (A1) (B2)
                 (B1) (A1) (B1) (A1) (A2) (B2) (B1) (B2) (A1) (B1)
                 (A1) (A1) (B2) (A2) (A1) (B1) (B2) (B1) (A1) (A2)
                 (A1) (B2) (B1) (B2) (A1) (B1) (A1) (B1) (A1) (B1)
                 (A1) (B1) (A1) (A2) (B2) (B1) (B2) (A1) (A2) (A1)
                 (A1) (A2) (B1) (B2) (A1) (A1) (A2) (A1) (B1) (B2)
                 (B2) (A1) (A2) (B2) (B1) (B1) (A1) (A1) (B1) (A1)
                 (A2) (A1) (A2) (B2) (B1) (A1) (A1) (B2) (A1) (B1)
                 (B1) (B2) (B1) (B2) (B2) (A2) (B1) (A1) (A1) (A2)
                 (B2) (B2) (B1) (A1) (B2) (B1) (B1) (B2) (A1) (A2)
                 (A1) (B2) (B1) (B2) (A2) (A1) (B1) (A1) (B1) (A2)
                 (B2) (A1) (B1) (A1) (B1) (A1) (A1) (B1) (A1) (A1)
                 (B2) (A1) (A2) (B1) (B2) (B1) (A1) (B2) (A2) (B2)
                 (A1) (B1) (A2) (B2) (B1) (A2) (A1) (A1) (B2) (A1)
                 (B1) (B1) (A1) (B2) (A1) (B1) (B1) (A1) (A2) (A2)
                 (A1) (A2) (B2) (A1) (B2) (A1) (B2) (B1) (A1) (A2)
                 (B1) (A2) (A1) (A1) (B2) (B1) (B2) (B1) (A1) (A1)
                 (B1) (A1) (B1) (A1) (A1) (B1) (A1) (A1)
 Beta  Orbitals:
       Occupied  (A1) (B1) (A1) (A1) (A1) (A1) (A1) (B1) (A1) (A1)
                 (A1) (B1) (B1) (B2)
       Virtual   (A1) (B2) (A2) (B1) (B2) (B2) (A1) (A1) (B1) (B2)
                 (A1) (A1) (B1) (A1) (B2) (A1) (B1) (A2) (B1) (A1)
                 (B2) (A1) (B2) (B1) (B1) (B2) (A1) (A1) (B1) (B2)
                 (A1) (B1) (A1) (A1) (B1) (A1) (A1) (B1) (A2) (B1)
                 (A1) (B2) (A1) (B2) (A2) (B1) (A1) (A2) (A1) (A1)
                 (B2) (A1) (B2) (B1) (A1) (B1) (A1) (A2) (B2) (B1)
                 (B2) (A1) (B1) (A1) (A1) (B2) (A2) (A1) (B1) (B2)
                 (B1) (A1) (A2) (A1) (B2) (B1) (B2) (A1) (B1) (A1)
                 (B1) (A1) (B1) (A1) (B1) (A1) (A2) (B2) (B1) (B2)
                 (A1) (A2) (A1) (A1) (A2) (B1) (B2) (A1) (A1) (A2)
                 (A1) (B1) (B2) (B2) (A1) (A2) (B2) (B1) (B1) (A1)
                 (A1) (B1) (A1) (A2) (A1) (A2) (B2) (B1) (A1) (A1)
                 (B2) (A1) (B1) (B1) (B2) (B1) (B2) (B2) (A2) (B1)
                 (A1) (A1) (A2) (B2) (B2) (B1) (A1) (B2) (B1) (B1)
                 (B2) (A1) (A2) (A1) (B2) (B1) (B2) (A2) (A1) (B1)
                 (A1) (B1) (A2) (B2) (A1) (B1) (A1) (B1) (A1) (A1)
                 (B1) (A1) (A1) (B2) (A1) (A2) (B1) (B2) (B1) (A1)
                 (B2) (A2) (B2) (A1) (B1) (A2) (B2) (B1) (A2) (A1)
                 (A1) (B2) (A1) (B1) (B1) (A1) (B2) (A1) (B1) (B1)
                 (A1) (A2) (A2) (A1) (A2) (B2) (A1) (B2) (A1) (B2)
                 (B1) (A1) (A2) (B1) (A2) (A1) (A1) (B2) (B1) (B2)
                 (B1) (A1) (A1) (B1) (A1) (B1) (A1) (A1) (B1) (A1)
                 (A1)
 The electronic state of the initial guess is 4-B1.
 Initial guess <Sx>= 0.0000 <Sy>= 0.0000 <Sz>= 1.5000 <S**2>= 3.7500 S= 1.5000
 Leave Link  401 at Wed Jul 20 13:57:35 2016, MaxMem=    33554432 cpu:         5.4
 (Enter /home/proyectos/fulerenos/M3C-v2.0/M3C-deps_CCC/g09-AM64L-G09RevC.01/l502.exe)
 UHF open shell SCF:
 Using DIIS extrapolation, IDIIS=  1040.
 Integral symmetry usage will be decided dynamically.
 IVT=      233651 IEndB=      233651 NGot=    33554432 MDV=    33407912
 LenX=    33407912 LenY=    33337246
 Requested convergence on RMS density matrix=1.00D-08 within 128 cycles.
 Requested convergence on MAX density matrix=1.00D-06.
 Requested convergence on             energy=1.00D-06.
 No special actions if energy rises.
 Fock matrices will be formed incrementally for  20 cycles.

 Cycle   1  Pass 1  IDiag  1:
 FoFJK:  IHMeth= 1 ICntrl=       0 DoSepK=F KAlg= 0 I1Cent=   0 FoldK=F
 IRaf= 990000000 NMat=   1 IRICut=       1 DoRegI=T DoRafI=F ISym2E= 1.
 FoFCou: FMM=F IPFlag=           0 FMFlag=      100000 FMFlg1=           0
         NFxFlg=           0 DoJE=F BraDBF=F KetDBF=F FulRan=T
         wScrn=  0.000000 ICntrl=       0 IOpCl=  1 I1Cent=           0 NGrid=           0
         NMat0=    1 NMatS0=      1 NMatT0=    0 NMatD0=    1 NMtDS0=    0 NMtDT0=    0
 Petite list used in FoFCou.
 E= -190.668012681356    
 DIIS: error= 4.86D-02 at cycle   1 NSaved=   1.
 NSaved= 1 IEnMin= 1 EnMin= -190.668012681356     IErMin= 1 ErrMin= 4.86D-02
 ErrMax= 4.86D-02  0.00D+00 EMaxC= 1.00D-01 BMatC= 5.76D-01 BMatP= 5.76D-01
 IDIUse=3 WtCom= 5.14D-01 WtEn= 4.86D-01
 Coeff-Com:  0.100D+01
 Coeff-En:   0.100D+01
 Coeff:      0.100D+01
 Gap=     0.145 Goal=   None    Shift=    0.000
 Gap=    -0.079 Goal=   None    Shift=    0.000
 GapD=   -0.079 DampG=0.250 DampE=0.500 DampFc=0.2500 IDamp=-1.
 Damping current iteration by 2.50D-01
 RMSDP=1.02D-02 MaxDP=5.89D-01              OVMax= 7.14D-01

 Cycle   2  Pass 1  IDiag  1:
 RMSU=  2.56D-03    CP:  9.97D-01
 E= -190.627308329428     Delta-E=        0.040704351928 Rises=F Damp=T
 DIIS: error= 2.69D-02 at cycle   2 NSaved=   2.
 NSaved= 2 IEnMin= 1 EnMin= -190.668012681356     IErMin= 2 ErrMin= 2.69D-02
 ErrMax= 2.69D-02  0.00D+00 EMaxC= 1.00D-01 BMatC= 1.71D-01 BMatP= 5.76D-01
 IDIUse=3 WtCom= 7.31D-01 WtEn= 2.69D-01
 Coeff-Com:  0.274D+00 0.726D+00
 Coeff-En:   0.552D+00 0.448D+00
 Coeff:      0.349D+00 0.651D+00
 Gap=     0.105 Goal=   None    Shift=    0.000
 Gap=    -0.030 Goal=   None    Shift=    0.000
 RMSDP=4.87D-03 MaxDP=2.71D-01 DE= 4.07D-02 OVMax= 9.49D-01

 Cycle   3  Pass 1  IDiag  1:
 RMSU=  4.78D-03    CP:  1.07D+00  1.04D+00
 E= -190.934238317892     Delta-E=       -0.306929988463 Rises=F Damp=F
 DIIS: error= 1.85D-02 at cycle   3 NSaved=   3.
 NSaved= 3 IEnMin= 3 EnMin= -190.934238317892     IErMin= 3 ErrMin= 1.85D-02
 ErrMax= 1.85D-02  0.00D+00 EMaxC= 1.00D-01 BMatC= 1.33D-01 BMatP= 1.71D-01
 IDIUse=3 WtCom= 8.15D-01 WtEn= 1.85D-01
 Coeff-Com:  0.248D+00 0.213D+00 0.539D+00
 Coeff-En:   0.568D-01 0.000D+00 0.943D+00
 Coeff:      0.213D+00 0.174D+00 0.614D+00
 Gap=     0.036 Goal=   None    Shift=    0.000
 Gap=     0.185 Goal=   None    Shift=    0.000
 RMSDP=1.34D-03 MaxDP=5.06D-02 DE=-3.07D-01 OVMax= 1.09D-01

 Cycle   4  Pass 1  IDiag  1:
 RMSU=  1.21D-03    CP:  1.08D+00  8.35D-01  9.53D-01
 E= -190.975417602863     Delta-E=       -0.041179284971 Rises=F Damp=F
 DIIS: error= 6.75D-03 at cycle   4 NSaved=   4.
 NSaved= 4 IEnMin= 4 EnMin= -190.975417602863     IErMin= 4 ErrMin= 6.75D-03
 ErrMax= 6.75D-03  0.00D+00 EMaxC= 1.00D-01 BMatC= 1.75D-02 BMatP= 1.33D-01
 IDIUse=3 WtCom= 9.33D-01 WtEn= 6.75D-02
 Coeff-Com:  0.102D+00-0.438D-01 0.245D+00 0.697D+00
 Coeff-En:   0.000D+00 0.000D+00 0.000D+00 0.100D+01
 Coeff:      0.951D-01-0.409D-01 0.228D+00 0.718D+00
 Gap=     0.102 Goal=   None    Shift=    0.000
 Gap=     0.183 Goal=   None    Shift=    0.000
 RMSDP=4.71D-04 MaxDP=1.78D-02 DE=-4.12D-02 OVMax= 5.12D-02

 Cycle   5  Pass 1  IDiag  1:
 RMSU=  4.59D-04    CP:  1.07D+00  8.11D-01  9.56D-01  1.01D+00
 E= -190.980122994645     Delta-E=       -0.004705391782 Rises=F Damp=F
 DIIS: error= 3.40D-03 at cycle   5 NSaved=   5.
 NSaved= 5 IEnMin= 5 EnMin= -190.980122994645     IErMin= 5 ErrMin= 3.40D-03
 ErrMax= 3.40D-03  0.00D+00 EMaxC= 1.00D-01 BMatC= 4.81D-03 BMatP= 1.75D-02
 IDIUse=3 WtCom= 9.66D-01 WtEn= 3.40D-02
 Coeff-Com:  0.315D-01-0.302D-01-0.517D-01 0.224D+00 0.826D+00
 Coeff-En:   0.000D+00 0.000D+00 0.000D+00 0.000D+00 0.100D+01
 Coeff:      0.305D-01-0.292D-01-0.500D-01 0.217D+00 0.832D+00
 Gap=     0.113 Goal=   None    Shift=    0.000
 Gap=     0.190 Goal=   None    Shift=    0.000
 RMSDP=2.75D-04 MaxDP=1.47D-02 DE=-4.71D-03 OVMax= 3.18D-02

 Cycle   6  Pass 1  IDiag  1:
 RMSU=  2.33D-04    CP:  1.07D+00  7.87D-01  9.50D-01  1.11D+00  1.07D+00
 E= -190.981250916857     Delta-E=       -0.001127922212 Rises=F Damp=F
 DIIS: error= 2.77D-03 at cycle   6 NSaved=   6.
 NSaved= 6 IEnMin= 6 EnMin= -190.981250916857     IErMin= 6 ErrMin= 2.77D-03
 ErrMax= 2.77D-03  0.00D+00 EMaxC= 1.00D-01 BMatC= 1.94D-03 BMatP= 4.81D-03
 IDIUse=3 WtCom= 9.72D-01 WtEn= 2.77D-02
 Coeff-Com:  0.140D-01-0.137D-01-0.772D-01 0.877D-02 0.540D+00 0.528D+00
 Coeff-En:   0.000D+00 0.000D+00 0.000D+00 0.000D+00 0.285D-01 0.971D+00
 Coeff:      0.136D-01-0.133D-01-0.751D-01 0.853D-02 0.526D+00 0.541D+00
 Gap=     0.114 Goal=   None    Shift=    0.000
 Gap=     0.191 Goal=   None    Shift=    0.000
 RMSDP=1.28D-04 MaxDP=4.80D-03 DE=-1.13D-03 OVMax= 1.66D-02

 Cycle   7  Pass 1  IDiag  1:
 RMSU=  9.33D-05    CP:  1.07D+00  7.83D-01  9.51D-01  1.15D+00  1.09D+00
                    CP:  6.91D-01
 E= -190.981840008212     Delta-E=       -0.000589091354 Rises=F Damp=F
 DIIS: error= 7.45D-04 at cycle   7 NSaved=   7.
 NSaved= 7 IEnMin= 7 EnMin= -190.981840008212     IErMin= 7 ErrMin= 7.45D-04
 ErrMax= 7.45D-04  0.00D+00 EMaxC= 1.00D-01 BMatC= 1.51D-04 BMatP= 1.94D-03
 IDIUse=3 WtCom= 9.93D-01 WtEn= 7.45D-03
 Coeff-Com:  0.436D-02-0.232D-02-0.244D-01-0.335D-01 0.551D-01 0.210D+00
 Coeff-Com:  0.791D+00
 Coeff-En:   0.000D+00 0.000D+00 0.000D+00 0.000D+00 0.000D+00 0.000D+00
 Coeff-En:   0.100D+01
 Coeff:      0.432D-02-0.230D-02-0.243D-01-0.332D-01 0.547D-01 0.208D+00
 Coeff:      0.793D+00
 Gap=     0.113 Goal=   None    Shift=    0.000
 Gap=     0.192 Goal=   None    Shift=    0.000
 RMSDP=6.64D-05 MaxDP=5.44D-03 DE=-5.89D-04 OVMax= 7.25D-03

 Cycle   8  Pass 1  IDiag  1:
 RMSU=  4.81D-05    CP:  1.07D+00  7.75D-01  9.50D-01  1.16D+00  1.12D+00
                    CP:  8.22D-01  1.14D+00
 E= -190.981902233566     Delta-E=       -0.000062225354 Rises=F Damp=F
 DIIS: error= 1.85D-04 at cycle   8 NSaved=   8.
 NSaved= 8 IEnMin= 8 EnMin= -190.981902233566     IErMin= 8 ErrMin= 1.85D-04
 ErrMax= 1.85D-04  0.00D+00 EMaxC= 1.00D-01 BMatC= 1.60D-05 BMatP= 1.51D-04
 IDIUse=3 WtCom= 9.98D-01 WtEn= 1.85D-03
 Coeff-Com:  0.202D-03 0.605D-03 0.776D-02-0.180D-03-0.863D-01-0.508D-01
 Coeff-Com:  0.218D+00 0.911D+00
 Coeff-En:   0.000D+00 0.000D+00 0.000D+00 0.000D+00 0.000D+00 0.000D+00
 Coeff-En:   0.000D+00 0.100D+01
 Coeff:      0.201D-03 0.603D-03 0.774D-02-0.179D-03-0.861D-01-0.507D-01
 Coeff:      0.217D+00 0.911D+00
 Gap=     0.114 Goal=   None    Shift=    0.000
 Gap=     0.192 Goal=   None    Shift=    0.000
 RMSDP=1.98D-05 MaxDP=6.90D-04 DE=-6.22D-05 OVMax= 2.42D-03

 Cycle   9  Pass 1  IDiag  1:
 RMSU=  1.63D-05    CP:  1.07D+00  7.75D-01  9.50D-01  1.17D+00  1.12D+00
                    CP:  8.46D-01  1.24D+00  9.99D-01
 E= -190.981909725143     Delta-E=       -0.000007491577 Rises=F Damp=F
 DIIS: error= 5.28D-05 at cycle   9 NSaved=   9.
 NSaved= 9 IEnMin= 9 EnMin= -190.981909725143     IErMin= 9 ErrMin= 5.28D-05
 ErrMax= 5.28D-05  0.00D+00 EMaxC= 1.00D-01 BMatC= 1.35D-06 BMatP= 1.60D-05
 IDIUse=1 WtCom= 1.00D+00 WtEn= 0.00D+00
 Coeff-Com: -0.798D-03 0.106D-02 0.124D-02 0.156D-02-0.482D-02-0.196D-01
 Coeff-Com: -0.793D-02 0.220D-01 0.101D+01
 Coeff:     -0.798D-03 0.106D-02 0.124D-02 0.156D-02-0.482D-02-0.196D-01
 Coeff:     -0.793D-02 0.220D-01 0.101D+01
 Gap=     0.114 Goal=   None    Shift=    0.000
 Gap=     0.192 Goal=   None    Shift=    0.000
 RMSDP=6.69D-06 MaxDP=2.32D-04 DE=-7.49D-06 OVMax= 1.18D-03

 Cycle  10  Pass 1  IDiag  1:
 RMSU=  5.70D-06    CP:  1.07D+00  7.75D-01  9.50D-01  1.16D+00  1.12D+00
                    CP:  8.46D-01  1.27D+00  1.03D+00  1.10D+00
 E= -190.981910382636     Delta-E=       -0.000000657493 Rises=F Damp=F
 DIIS: error= 4.45D-05 at cycle  10 NSaved=  10.
 NSaved=10 IEnMin=10 EnMin= -190.981910382636     IErMin=10 ErrMin= 4.45D-05
 ErrMax= 4.45D-05  0.00D+00 EMaxC= 1.00D-01 BMatC= 6.33D-07 BMatP= 1.35D-06
 IDIUse=1 WtCom= 1.00D+00 WtEn= 0.00D+00
 Coeff-Com: -0.451D-03 0.727D-03-0.130D-02-0.143D-02 0.852D-02 0.113D-01
 Coeff-Com:  0.220D-01-0.123D+00-0.267D+00 0.135D+01
 Coeff:     -0.451D-03 0.727D-03-0.130D-02-0.143D-02 0.852D-02 0.113D-01
 Coeff:      0.220D-01-0.123D+00-0.267D+00 0.135D+01
 Gap=     0.114 Goal=   None    Shift=    0.000
 Gap=     0.192 Goal=   None    Shift=    0.000
 RMSDP=4.09D-06 MaxDP=2.76D-04 DE=-6.57D-07 OVMax= 5.11D-04

 Cycle  11  Pass 1  IDiag  1:
 RMSU=  1.90D-06    CP:  1.07D+00  7.75D-01  9.50D-01  1.16D+00  1.12D+00
                    CP:  8.42D-01  1.27D+00  1.02D+00  1.21D+00  1.40D+00
 E= -190.981910679331     Delta-E=       -0.000000296695 Rises=F Damp=F
 DIIS: error= 1.52D-05 at cycle  11 NSaved=  11.
 NSaved=11 IEnMin=11 EnMin= -190.981910679331     IErMin=11 ErrMin= 1.52D-05
 ErrMax= 1.52D-05  0.00D+00 EMaxC= 1.00D-01 BMatC= 4.71D-08 BMatP= 6.33D-07
 IDIUse=1 WtCom= 1.00D+00 WtEn= 0.00D+00
 Coeff-Com: -0.563D-04 0.650D-04-0.284D-04-0.678D-03-0.168D-02 0.683D-03
 Coeff-Com:  0.134D-01 0.776D-02-0.105D+00-0.618D-01 0.115D+01
 Coeff:     -0.563D-04 0.650D-04-0.284D-04-0.678D-03-0.168D-02 0.683D-03
 Coeff:      0.134D-01 0.776D-02-0.105D+00-0.618D-01 0.115D+01
 Gap=     0.114 Goal=   None    Shift=    0.000
 Gap=     0.192 Goal=   None    Shift=    0.000
 RMSDP=1.31D-06 MaxDP=1.32D-04 DE=-2.97D-07 OVMax= 1.72D-04

 Cycle  12  Pass 1  IDiag  1:
 RMSU=  7.41D-07    CP:  1.07D+00  7.75D-01  9.50D-01  1.16D+00  1.12D+00
                    CP:  8.41D-01  1.27D+00  1.01D+00  1.23D+00  1.51D+00
                    CP:  1.13D+00
 E= -190.981910706755     Delta-E=       -0.000000027424 Rises=F Damp=F
 DIIS: error= 3.20D-06 at cycle  12 NSaved=  12.
 NSaved=12 IEnMin=12 EnMin= -190.981910706755     IErMin=12 ErrMin= 3.20D-06
 ErrMax= 3.20D-06  0.00D+00 EMaxC= 1.00D-01 BMatC= 2.01D-09 BMatP= 4.71D-08
 IDIUse=1 WtCom= 1.00D+00 WtEn= 0.00D+00
 Coeff-Com:  0.309D-05-0.186D-04 0.112D-03 0.471D-04-0.275D-03-0.128D-02
 Coeff-Com: -0.268D-02 0.442D-02 0.367D-01-0.419D-01-0.140D+00 0.114D+01
 Coeff:      0.309D-05-0.186D-04 0.112D-03 0.471D-04-0.275D-03-0.128D-02
 Coeff:     -0.268D-02 0.442D-02 0.367D-01-0.419D-01-0.140D+00 0.114D+01
 Gap=     0.114 Goal=   None    Shift=    0.000
 Gap=     0.192 Goal=   None    Shift=    0.000
 RMSDP=3.41D-07 MaxDP=1.58D-05 DE=-2.74D-08 OVMax= 4.47D-05

 Cycle  13  Pass 1  IDiag  1:
 RMSU=  2.16D-07    CP:  1.07D+00  7.75D-01  9.50D-01  1.16D+00  1.12D+00
                    CP:  8.41D-01  1.27D+00  1.01D+00  1.23D+00  1.49D+00
                    CP:  1.15D+00  1.23D+00
 E= -190.981910708751     Delta-E=       -0.000000001997 Rises=F Damp=F
 DIIS: error= 1.20D-06 at cycle  13 NSaved=  13.
 NSaved=13 IEnMin=13 EnMin= -190.981910708751     IErMin=13 ErrMin= 1.20D-06
 ErrMax= 1.20D-06  0.00D+00 EMaxC= 1.00D-01 BMatC= 2.91D-10 BMatP= 2.01D-09
 IDIUse=1 WtCom= 1.00D+00 WtEn= 0.00D+00
 Coeff-Com:  0.536D-05-0.367D-05-0.224D-04 0.185D-04 0.410D-03 0.158D-03
 Coeff-Com: -0.806D-03-0.388D-02 0.827D-03 0.304D-01-0.932D-01-0.188D+00
 Coeff-Com:  0.125D+01
 Coeff:      0.536D-05-0.367D-05-0.224D-04 0.185D-04 0.410D-03 0.158D-03
 Coeff:     -0.806D-03-0.388D-02 0.827D-03 0.304D-01-0.932D-01-0.188D+00
 Coeff:      0.125D+01
 Gap=     0.114 Goal=   None    Shift=    0.000
 Gap=     0.192 Goal=   None    Shift=    0.000
 RMSDP=1.30D-07 MaxDP=4.55D-06 DE=-2.00D-09 OVMax= 2.57D-05

 Cycle  14  Pass 1  IDiag  1:
 RMSU=  7.77D-08    CP:  1.07D+00  7.75D-01  9.50D-01  1.16D+00  1.12D+00
                    CP:  8.41D-01  1.27D+00  1.01D+00  1.23D+00  1.49D+00
                    CP:  1.14D+00  1.30D+00  1.34D+00
 E= -190.981910709047     Delta-E=       -0.000000000296 Rises=F Damp=F
 DIIS: error= 6.78D-07 at cycle  14 NSaved=  14.
 NSaved=14 IEnMin=14 EnMin= -190.981910709047     IErMin=14 ErrMin= 6.78D-07
 ErrMax= 6.78D-07  0.00D+00 EMaxC= 1.00D-01 BMatC= 4.06D-11 BMatP= 2.91D-10
 IDIUse=1 WtCom= 1.00D+00 WtEn= 0.00D+00
 Coeff-Com:  0.126D-05-0.202D-05-0.101D-04-0.144D-04 0.119D-04 0.527D-04
 Coeff-Com:  0.377D-03-0.338D-03-0.433D-02 0.368D-02 0.254D-01-0.688D-01
 Coeff-Com: -0.169D+00 0.121D+01
 Coeff:      0.126D-05-0.202D-05-0.101D-04-0.144D-04 0.119D-04 0.527D-04
 Coeff:      0.377D-03-0.338D-03-0.433D-02 0.368D-02 0.254D-01-0.688D-01
 Coeff:     -0.169D+00 0.121D+01
 Gap=     0.114 Goal=   None    Shift=    0.000
 Gap=     0.192 Goal=   None    Shift=    0.000
 RMSDP=3.96D-08 MaxDP=1.67D-06 DE=-2.96D-10 OVMax= 8.05D-06

 Cycle  15  Pass 1  IDiag  1:
 RMSU=  2.01D-08    CP:  1.07D+00  7.75D-01  9.50D-01  1.16D+00  1.12D+00
                    CP:  8.41D-01  1.27D+00  1.01D+00  1.23D+00  1.49D+00
                    CP:  1.14D+00  1.31D+00  1.44D+00  1.21D+00
 E= -190.981910709077     Delta-E=       -0.000000000029 Rises=F Damp=F
 DIIS: error= 7.73D-08 at cycle  15 NSaved=  15.
 NSaved=15 IEnMin=15 EnMin= -190.981910709077     IErMin=15 ErrMin= 7.73D-08
 ErrMax= 7.73D-08  0.00D+00 EMaxC= 1.00D-01 BMatC= 1.27D-12 BMatP= 4.06D-11
 IDIUse=1 WtCom= 1.00D+00 WtEn= 0.00D+00
 Coeff-Com:  0.162D-07 0.387D-06-0.785D-06-0.459D-05-0.212D-04 0.104D-04
 Coeff-Com:  0.113D-03 0.129D-03-0.932D-03-0.139D-02 0.874D-02 0.118D-01
 Coeff-Com: -0.839D-01 0.906D-02 0.106D+01
 Coeff:      0.162D-07 0.387D-06-0.785D-06-0.459D-05-0.212D-04 0.104D-04
 Coeff:      0.113D-03 0.129D-03-0.932D-03-0.139D-02 0.874D-02 0.118D-01
 Coeff:     -0.839D-01 0.906D-02 0.106D+01
 Gap=     0.114 Goal=   None    Shift=    0.000
 Gap=     0.192 Goal=   None    Shift=    0.000
 RMSDP=1.03D-08 MaxDP=8.70D-07 DE=-2.93D-11 OVMax= 2.03D-06

 Cycle  16  Pass 1  IDiag  1:
 RMSU=  5.04D-09    CP:  1.07D+00  7.75D-01  9.50D-01  1.16D+00  1.12D+00
                    CP:  8.41D-01  1.27D+00  1.01D+00  1.23D+00  1.49D+00
                    CP:  1.14D+00  1.30D+00  1.44D+00  1.25D+00  1.26D+00
 E= -190.981910709077     Delta-E=       -0.000000000000 Rises=F Damp=F
 DIIS: error= 2.40D-08 at cycle  16 NSaved=  16.
 NSaved=16 IEnMin=16 EnMin= -190.981910709077     IErMin=16 ErrMin= 2.40D-08
 ErrMax= 2.40D-08  0.00D+00 EMaxC= 1.00D-01 BMatC= 1.45D-13 BMatP= 1.27D-12
 IDIUse=1 WtCom= 1.00D+00 WtEn= 0.00D+00
 Coeff-Com: -0.409D-07 0.889D-08 0.980D-06 0.124D-05-0.354D-05-0.103D-04
 Coeff-Com: -0.188D-04 0.515D-04 0.449D-03-0.649D-03-0.224D-02 0.534D-02
 Coeff-Com:  0.115D-01-0.873D-01-0.217D-02 0.108D+01
 Coeff:     -0.409D-07 0.889D-08 0.980D-06 0.124D-05-0.354D-05-0.103D-04
 Coeff:     -0.188D-04 0.515D-04 0.449D-03-0.649D-03-0.224D-02 0.534D-02
 Coeff:      0.115D-01-0.873D-01-0.217D-02 0.108D+01
 Gap=     0.114 Goal=   None    Shift=    0.000
 Gap=     0.192 Goal=   None    Shift=    0.000
 RMSDP=3.30D-09 MaxDP=1.32D-07 DE=-3.98D-13 OVMax= 4.41D-07

 SCF Done:  E(UB3LYP) =  -190.981910709     A.U. after   16 cycles
            NFock= 16  Conv=0.33D-08     -V/T= 2.0041
 <Sx>= 0.0000 <Sy>= 0.0000 <Sz>= 1.5000 <S**2>= 3.7659 S= 1.5040
 <L.S>= 0.000000000000E+00
 KE= 1.901988887296D+02 PE=-6.864391267887D+02 EE= 1.720645530872D+02
 Annihilation of the first spin contaminant:
 S**2 before annihilation     3.7659,   after     3.7500
 Leave Link  502 at Wed Jul 20 14:05:26 2016, MaxMem=    33554432 cpu:       470.3
 (Enter /home/proyectos/fulerenos/M3C-v2.0/M3C-deps_CCC/g09-AM64L-G09RevC.01/l801.exe)
 DoSCS=F DFT=T ScalE2(SS,OS)=  1.000000  1.000000
 Range of M.O.s used for correlation:     1   235
 NBasis=   235 NAE=    17 NBE=    14 NFC=     0 NFV=     0
 NROrb=    235 NOA=    17 NOB=    14 NVA=   218 NVB=   221

 **** Warning!!: The largest alpha MO coefficient is  0.11814689D+03


 **** Warning!!: The largest beta MO coefficient is  0.11930905D+03

 Leave Link  801 at Wed Jul 20 14:05:26 2016, MaxMem=    33554432 cpu:         0.1
 (Enter /home/proyectos/fulerenos/M3C-v2.0/M3C-deps_CCC/g09-AM64L-G09RevC.01/l1101.exe)
 Using compressed storage, NAtomX=     9.
 Will process     10 centers per pass.
 Leave Link 1101 at Wed Jul 20 14:05:27 2016, MaxMem=    33554432 cpu:         1.0
 (Enter /home/proyectos/fulerenos/M3C-v2.0/M3C-deps_CCC/g09-AM64L-G09RevC.01/l1102.exe)
 Symmetrizing basis deriv contribution to polar:
 IMax=3 JMax=2 DiffMx= 0.00D+00
 Leave Link 1102 at Wed Jul 20 14:05:27 2016, MaxMem=    33554432 cpu:         0.2
 (Enter /home/proyectos/fulerenos/M3C-v2.0/M3C-deps_CCC/g09-AM64L-G09RevC.01/l1110.exe)
 Forming Gx(P) for the SCF density, NAtomX=     9.
 Integral derivatives from FoFJK, PRISM(SPDF).
 Do as many integral derivatives as possible in FoFJK.
 G2DrvN: MDV=      33554256.
 G2DrvN: will do    10 centers at a time, making    1 passes.
 Calling FoFCou, ICntrl=  3107 FMM=F I1Cent=   0 AccDes= 0.00D+00.
 FoFJK:  IHMeth= 1 ICntrl=    3107 DoSepK=F KAlg= 0 I1Cent=   0 FoldK=F
 IRaf=         0 NMat=   1 IRICut=       1 DoRegI=T DoRafI=F ISym2E= 1.
 FoFCou: FMM=F IPFlag=           0 FMFlag=      100000 FMFlg1=           0
         NFxFlg=           0 DoJE=F BraDBF=F KetDBF=F FulRan=T
         wScrn=  0.000000 ICntrl=    3107 IOpCl=  1 I1Cent=           0 NGrid=           0
         NMat0=    1 NMatS0=      1 NMatT0=    0 NMatD0=    1 NMtDS0=    0 NMtDT0=    0
 Petite list used in FoFCou.
 End of G2Drv F.D. properties file   721 does not exist.
 End of G2Drv F.D. properties file   722 does not exist.
 End of G2Drv F.D. properties file   788 does not exist.
 Leave Link 1110 at Wed Jul 20 14:11:46 2016, MaxMem=    33554432 cpu:       378.0
 (Enter /home/proyectos/fulerenos/M3C-v2.0/M3C-deps_CCC/g09-AM64L-G09RevC.01/l1002.exe)
 Minotr:  UHF open shell wavefunction.
          IDoAtm=111111111
          Direct CPHF calculation.
          Differentiating once with respect to electric field.
                with respect to dipole field.
          Differentiating once with respect to nuclear coordinates.
          Using symmetry in CPHF.
          Requested convergence is 1.0D-08 RMS, and 1.0D-07 maximum.
          Secondary convergence is 1.0D-12 RMS, and 1.0D-12 maximum.
          NewPWx=T KeepS1=F KeepF1=F KeepIn=T MapXYZ=F SortEE=F KeepMc=T.
          MDV=      33553868 using IRadAn=       2.
 Generate precomputed XC quadrature information.
          Solving linear equations simultaneously, MaxMat=       0.
 FoFJK:  IHMeth= 1 ICntrl=       0 DoSepK=F KAlg= 0 I1Cent=   0 FoldK=F
 IRaf= 990000000 NMat=  21 IRICut=      52 DoRegI=T DoRafI=T ISym2E= 2.
 FoFCou: FMM=F IPFlag=           0 FMFlag=      100000 FMFlg1=           0
         NFxFlg=           0 DoJE=F BraDBF=F KetDBF=F FulRan=T
         wScrn=  0.000000 ICntrl=       0 IOpCl=  1 I1Cent=           0 NGrid=           0
         NMat0=   21 NMatS0=     21 NMatT0=    0 NMatD0=   21 NMtDS0=    0 NMtDT0=    0
 Integrals replicated using symmetry in FoFCou.
          There are    21 degrees of freedom in the 1st order CPHF.  IDoFFX=4 NUNeed=    21.
     21 vectors produced by pass  0 Test12= 3.24D-14 4.76D-09 XBig12= 2.62D+02 1.22D+01.
 AX will form    21 AO Fock derivatives at one time.
     21 vectors produced by pass  1 Test12= 3.24D-14 4.76D-09 XBig12= 3.72D+01 1.61D+00.
     21 vectors produced by pass  2 Test12= 3.24D-14 4.76D-09 XBig12= 2.71D+00 4.54D-01.
     21 vectors produced by pass  3 Test12= 3.24D-14 4.76D-09 XBig12= 2.47D-02 4.06D-02.
     21 vectors produced by pass  4 Test12= 3.24D-14 4.76D-09 XBig12= 1.71D-04 2.68D-03.
     21 vectors produced by pass  5 Test12= 3.24D-14 4.76D-09 XBig12= 1.39D-06 1.69D-04.
     21 vectors produced by pass  6 Test12= 3.24D-14 4.76D-09 XBig12= 1.02D-08 2.03D-05.
     14 vectors produced by pass  7 Test12= 3.24D-14 4.76D-09 XBig12= 5.99D-11 1.40D-06.
      3 vectors produced by pass  8 Test12= 3.24D-14 4.76D-09 XBig12= 3.58D-13 9.89D-08.
      3 vectors produced by pass  9 Test12= 3.24D-14 4.76D-09 XBig12= 6.49D-14 4.87D-08.
      2 vectors produced by pass 10 Test12= 3.24D-14 4.76D-09 XBig12= 9.08D-16 5.31D-09.
      1 vectors produced by pass 11 Test12= 3.24D-14 4.76D-09 XBig12= 4.69D-16 4.93D-09.
 InvSVY:  IOpt=1 It=  1 EMax= 3.55D-15
 Solved reduced A of dimension   170 with    21 vectors.
 FullF1:  Do perturbations    1 to    21.
 Isotropic polarizability for W=    0.000000       43.65 Bohr**3.
 End of Minotr F.D. properties file   721 does not exist.
 End of Minotr F.D. properties file   722 does not exist.
 End of Minotr F.D. properties file   788 does not exist.
 Leave Link 1002 at Wed Jul 20 14:56:51 2016, MaxMem=    33554432 cpu:      2704.3
 (Enter /home/proyectos/fulerenos/M3C-v2.0/M3C-deps_CCC/g09-AM64L-G09RevC.01/l601.exe)
 Copying SCF densities to generalized density rwf, IOpCl= 1 IROHF=0.

 **********************************************************************

            Population analysis using the SCF density.

 **********************************************************************

 Orbital symmetries:
 Alpha Orbitals:
       Occupied  (A1) (A1) (B1) (A1) (A1) (A1) (A1) (A1) (B1) (A1)
                 (A1) (B1) (B2) (B1) (A1) (B2) (B1)
       Virtual   (B2) (A2) (B2) (A1) (A1) (B1) (B2) (A1) (A1) (B1)
                 (B1) (A1) (B2) (B1) (A1) (A1) (B1) (A2) (B2) (A2)
                 (A1) (B2) (A1) (B1) (A1) (B2) (A1) (B1) (B1) (B2)
                 (A1) (A1) (B1) (A2) (A1) (B2) (A1) (B1) (A1) (A1)
                 (B1) (A2) (B2) (A1) (A1) (B1) (B2) (A1) (A2) (B2)
                 (A1) (B1) (B1) (B2) (A1) (B2) (B1) (A1) (A1) (A1)
                 (B2) (A2) (B1) (A1) (B1) (A1) (B2) (A2) (B1) (A1)
                 (B2) (A1) (B1) (B2) (A1) (B1) (A1) (B1) (A1) (B1)
                 (A1) (A2) (B1) (B2) (A1) (B1) (A1) (B2) (A2) (A1)
                 (A1) (A2) (B2) (B1) (A2) (A1) (A1) (A1) (A2) (B2)
                 (B1) (B2) (A1) (B2) (B1) (B1) (A1) (A1) (B1) (A1)
                 (A2) (A1) (A2) (B2) (B1) (A1) (A1) (B2) (A1) (B1)
                 (B1) (B2) (B1) (B2) (A2) (B2) (A1) (B1) (A1) (B2)
                 (A2) (B2) (B1) (A1) (B1) (B2) (B1) (B2) (A1) (A2)
                 (B2) (A1) (B1) (B2) (A2) (A1) (B1) (A2) (B1) (A1)
                 (B2) (A1) (B1) (A1) (A1) (B1) (A1) (B1) (A1) (B2)
                 (A1) (A2) (A1) (B2) (B1) (B1) (A1) (B2) (A2) (B2)
                 (A1) (B1) (B2) (A2) (B1) (A2) (A1) (A1) (B2) (B1)
                 (A1) (B1) (A1) (B2) (A1) (B1) (B1) (A1) (A2) (A1)
                 (A2) (A2) (B2) (A1) (B2) (A1) (B1) (B2) (A1) (A2)
                 (B1) (A2) (A1) (B2) (A1) (B1) (B2) (A1) (B1) (A1)
                 (B1) (A1) (B1) (A1) (A1) (B1) (A1) (A1)
 Beta  Orbitals:
       Occupied  (A1) (B1) (A1) (A1) (A1) (A1) (A1) (B1) (A1) (A1)
                 (A1) (B1) (B2) (B1)
       Virtual   (B2) (A1) (A2) (B2) (B1) (B2) (A1) (A1) (B1) (B2)
                 (A1) (A1) (B1) (B1) (B2) (A1) (B1) (A1) (A2) (B1)
                 (B2) (A1) (A2) (A1) (B2) (A1) (A1) (B1) (B2) (A1)
                 (B1) (B1) (B2) (A1) (A1) (B1) (A1) (A2) (B1) (A1)
                 (B2) (A1) (B1) (A1) (A2) (B2) (A1) (B1) (B2) (A1)
                 (A1) (A2) (A1) (B2) (B1) (B1) (B2) (A1) (B2) (B1)
                 (A1) (A1) (A2) (A1) (B2) (A1) (B1) (B1) (A1) (B2)
                 (A2) (B1) (A1) (B2) (A1) (B1) (B2) (A1) (B1) (A1)
                 (B1) (A1) (B1) (A1) (A2) (B1) (A1) (B2) (B1) (A1)
                 (B2) (A2) (A1) (A2) (A1) (B2) (B1) (A2) (A1) (A1)
                 (A1) (B1) (B2) (B2) (A2) (B2) (A1) (B1) (B1) (A1)
                 (A1) (B1) (A1) (A2) (A2) (A1) (B2) (B1) (A1) (A1)
                 (B2) (A1) (B1) (B1) (B2) (B1) (B2) (A2) (B2) (A1)
                 (B1) (A1) (A2) (B2) (B2) (B1) (A1) (B1) (B2) (B2)
                 (B1) (A1) (A2) (A1) (B2) (A2) (B1) (B2) (A1) (B1)
                 (B1) (A1) (A2) (B2) (A1) (B1) (A1) (A1) (B1) (A1)
                 (B1) (A1) (B2) (A1) (A2) (A1) (B2) (B1) (B1) (B2)
                 (A1) (A2) (A1) (B2) (B1) (B2) (A2) (B1) (A2) (A1)
                 (A1) (B2) (A1) (B1) (B1) (A1) (B2) (A1) (B1) (B1)
                 (A1) (A2) (A2) (A1) (A2) (B2) (A1) (B2) (A1) (B2)
                 (B1) (A1) (A2) (B1) (A2) (A1) (A1) (B2) (B1) (B2)
                 (B1) (A1) (A1) (B1) (A1) (B1) (A1) (A1) (B1) (A1)
                 (A1)
 The electronic state is 4-A2.
 Alpha  occ. eigenvalues --  -11.03750 -10.99773 -10.99382 -10.99379 -10.96812
 Alpha  occ. eigenvalues --   -1.64716  -1.48578  -1.37949  -1.37735  -1.21656
 Alpha  occ. eigenvalues --   -1.19243  -1.16252  -1.13330  -1.10028  -1.07748
 Alpha  occ. eigenvalues --   -1.01845  -0.94827
 Alpha virt. eigenvalues --   -0.83409  -0.82658  -0.67679  -0.58617  -0.54686
 Alpha virt. eigenvalues --   -0.53614  -0.52473  -0.50721  -0.48364  -0.43893
 Alpha virt. eigenvalues --   -0.42676  -0.41213  -0.40570  -0.39980  -0.38492
 Alpha virt. eigenvalues --   -0.36415  -0.36384  -0.35818  -0.34126  -0.31398
 Alpha virt. eigenvalues --   -0.31334  -0.29902  -0.29726  -0.28676  -0.28620
 Alpha virt. eigenvalues --   -0.26575  -0.25984  -0.23607  -0.23058  -0.23008
 Alpha virt. eigenvalues --   -0.22759  -0.21101  -0.19824  -0.18260  -0.18161
 Alpha virt. eigenvalues --   -0.15987  -0.15847  -0.15643  -0.14517  -0.11923
 Alpha virt. eigenvalues --   -0.11619  -0.09731  -0.09599  -0.08753  -0.07008
 Alpha virt. eigenvalues --   -0.06873  -0.06736  -0.05453  -0.03332  -0.02629
 Alpha virt. eigenvalues --   -0.02008  -0.01750  -0.00077   0.00049   0.01045
 Alpha virt. eigenvalues --    0.01675   0.02234   0.03333   0.05336   0.07604
 Alpha virt. eigenvalues --    0.08257   0.08453   0.11871   0.11905   0.14573
 Alpha virt. eigenvalues --    0.15330   0.16365   0.18055   0.19224   0.20241
 Alpha virt. eigenvalues --    0.25617   0.28864   0.31332   0.31713   0.35447
 Alpha virt. eigenvalues --    0.39751   0.43946   0.46226   0.47236   0.50253
 Alpha virt. eigenvalues --    0.53471   0.54640   0.54661   0.56378   0.56811
 Alpha virt. eigenvalues --    0.57333   0.59351   0.60704   0.62133   0.66320
 Alpha virt. eigenvalues --    0.67206   0.67666   0.73802   0.75855   0.76229
 Alpha virt. eigenvalues --    0.76717   0.78729   0.85926   0.89641   0.89929
 Alpha virt. eigenvalues --    0.90296   0.93063   0.96602   0.98404   1.01549
 Alpha virt. eigenvalues --    1.03885   1.04502   1.06219   1.15947   1.17016
 Alpha virt. eigenvalues --    1.18700   1.29972   1.31993   1.33511   1.43366
 Alpha virt. eigenvalues --    1.46959   1.47584   1.51782   1.63581   1.68454
 Alpha virt. eigenvalues --    1.70334   1.75991   1.88954   1.90479   1.92999
 Alpha virt. eigenvalues --    1.94918   2.00541   2.02227   2.04216   2.05873
 Alpha virt. eigenvalues --    2.08050   2.09318   2.10241   2.14926   2.16987
 Alpha virt. eigenvalues --    2.20205   2.22050   2.22866   2.26937   2.29029
 Alpha virt. eigenvalues --    2.33466   2.33499   2.39725   2.39777   2.40896
 Alpha virt. eigenvalues --    2.41696   2.49510   2.54591   2.55266   2.57270
 Alpha virt. eigenvalues --    2.59126   2.62943   2.65765   2.68968   2.74803
 Alpha virt. eigenvalues --    2.76680   2.81493   2.91244   2.92097   3.01457
 Alpha virt. eigenvalues --    3.02160   3.11578   3.14798   3.19549   3.23292
 Alpha virt. eigenvalues --    3.32284   3.37503   3.39468   3.51080   3.61612
 Alpha virt. eigenvalues --    3.62433   3.66563   3.69519   3.72970   3.82590
 Alpha virt. eigenvalues --    3.83415   3.86581   4.01877   4.03072   4.13366
 Alpha virt. eigenvalues --    4.14333   4.17228   4.33933   4.52830   4.67008
 Alpha virt. eigenvalues --    5.13570   5.17443   5.56265   6.14186   6.19845
 Alpha virt. eigenvalues --    6.21657   6.31602   6.32649   6.41524   6.45193
 Alpha virt. eigenvalues --    6.46851   6.47724   6.51429   6.57927   6.62802
 Alpha virt. eigenvalues --    6.67781   6.80352   6.84855   6.87014   6.87525
 Alpha virt. eigenvalues --    6.94014   7.10513   7.18985   7.19761   7.32315
 Alpha virt. eigenvalues --    7.35022   7.99720   8.51377  23.08164  23.47492
 Alpha virt. eigenvalues --   23.99466  24.08731  24.27993
  Beta  occ. eigenvalues --  -10.99535 -10.99371 -10.99370 -10.98794 -10.96297
  Beta  occ. eigenvalues --   -1.63520  -1.43119  -1.37506  -1.33997  -1.21623
  Beta  occ. eigenvalues --   -1.15651  -1.14879  -1.09900  -1.09433
  Beta virt. eigenvalues --   -0.90196  -0.83530  -0.83259  -0.77152  -0.73839
  Beta virt. eigenvalues --   -0.61282  -0.57508  -0.52918  -0.51930  -0.50517
  Beta virt. eigenvalues --   -0.50435  -0.48120  -0.43068  -0.42448  -0.40188
  Beta virt. eigenvalues --   -0.40036  -0.39050  -0.36648  -0.35791  -0.34469
  Beta virt. eigenvalues --   -0.33408  -0.33275  -0.30368  -0.29707  -0.29442
  Beta virt. eigenvalues --   -0.28488  -0.27702  -0.27697  -0.26048  -0.25822
  Beta virt. eigenvalues --   -0.23378  -0.22928  -0.22545  -0.22291  -0.20814
  Beta virt. eigenvalues --   -0.19394  -0.17891  -0.16719  -0.15567  -0.15122
  Beta virt. eigenvalues --   -0.14855  -0.12887  -0.11428  -0.10837  -0.09744
  Beta virt. eigenvalues --   -0.09160  -0.08189  -0.06823  -0.06127  -0.05882
  Beta virt. eigenvalues --   -0.04710  -0.02092  -0.01612  -0.01562  -0.01199
  Beta virt. eigenvalues --    0.01711   0.02011   0.02255   0.03471   0.04032
  Beta virt. eigenvalues --    0.04255   0.06535   0.08470   0.08863   0.09545
  Beta virt. eigenvalues --    0.12780   0.13460   0.15544   0.16171   0.16997
  Beta virt. eigenvalues --    0.18845   0.19725   0.21131   0.27249   0.29798
  Beta virt. eigenvalues --    0.31777   0.32799   0.36561   0.40358   0.44884
  Beta virt. eigenvalues --    0.47487   0.48315   0.52128   0.53962   0.55242
  Beta virt. eigenvalues --    0.55372   0.57350   0.57443   0.57559   0.60173
  Beta virt. eigenvalues --    0.61135   0.62421   0.67262   0.68419   0.68921
  Beta virt. eigenvalues --    0.74907   0.76227   0.77373   0.79795   0.81166
  Beta virt. eigenvalues --    0.87434   0.90594   0.93755   0.94969   0.98927
  Beta virt. eigenvalues --    0.99753   1.00297   1.03464   1.07127   1.07693
  Beta virt. eigenvalues --    1.09597   1.18400   1.19691   1.20249   1.33917
  Beta virt. eigenvalues --    1.37622   1.38095   1.46259   1.48692   1.49960
  Beta virt. eigenvalues --    1.53440   1.65545   1.68464   1.74227   1.77397
  Beta virt. eigenvalues --    1.89911   1.93228   1.97420   1.98594   2.01551
  Beta virt. eigenvalues --    2.02478   2.06264   2.08484   2.12290   2.14532
  Beta virt. eigenvalues --    2.16985   2.21231   2.22296   2.22943   2.25984
  Beta virt. eigenvalues --    2.28272   2.28741   2.30308   2.35743   2.36105
  Beta virt. eigenvalues --    2.41248   2.42103   2.42682   2.44639   2.51542
  Beta virt. eigenvalues --    2.59026   2.59132   2.59278   2.62356   2.65413
  Beta virt. eigenvalues --    2.66845   2.70946   2.77316   2.77699   2.82869
  Beta virt. eigenvalues --    2.93353   2.95107   3.03451   3.03817   3.12967
  Beta virt. eigenvalues --    3.17034   3.22218   3.24723   3.32858   3.40525
  Beta virt. eigenvalues --    3.40711   3.53286   3.63590   3.64042   3.67967
  Beta virt. eigenvalues --    3.71330   3.73593   3.83691   3.84449   3.87947
  Beta virt. eigenvalues --    4.02522   4.05564   4.15255   4.15579   4.17909
  Beta virt. eigenvalues --    4.35342   4.54517   4.68818   5.13714   5.18752
  Beta virt. eigenvalues --    5.57033   6.20078   6.28416   6.32074   6.33920
  Beta virt. eigenvalues --    6.37858   6.43303   6.45556   6.52632   6.54925
  Beta virt. eigenvalues --    6.57792   6.60785   6.64410   6.69878   6.81802
  Beta virt. eigenvalues --    6.85297   6.90158   6.91110   6.94703   7.12509
  Beta virt. eigenvalues --    7.20598   7.22711   7.34343   7.35467   8.00245
  Beta virt. eigenvalues --    8.52101  23.09807  23.49962  23.99494  24.09323
  Beta virt. eigenvalues --   24.30082
          Condensed to atoms (all electrons):
               1          2          3          4          5          6
     1  C    6.278160   0.308340   0.308340  -0.266834  -0.266834  -0.050705
     2  H    0.308340   0.408344   0.056047  -0.035952  -0.035952  -0.000293
     3  H    0.308340   0.056047   0.408344  -0.035952  -0.035952  -0.000293
     4  C   -0.266834  -0.035952  -0.035952   6.037859  -0.235781   0.013773
     5  C   -0.266834  -0.035952  -0.035952  -0.235781   6.037859   0.298948
     6  H   -0.050705  -0.000293  -0.000293   0.013773   0.298948   0.292817
     7  C   -0.269431   0.005110   0.005110   0.200479   0.200479   0.006449
     8  C    0.113079   0.003614   0.003614  -0.312866  -0.312866   0.012517
     9  H   -0.050705  -0.000293  -0.000293   0.298948   0.013773  -0.000714
               7          8          9
     1  C   -0.269431   0.113079  -0.050705
     2  H    0.005110   0.003614  -0.000293
     3  H    0.005110   0.003614  -0.000293
     4  C    0.200479  -0.312866   0.298948
     5  C    0.200479  -0.312866   0.013773
     6  H    0.006449   0.012517  -0.000714
     7  C    6.120513  -0.722811   0.006449
     8  C   -0.722811   6.657173   0.012517
     9  H    0.006449   0.012517   0.292817
          Atomic-Atomic Spin Densities.
               1          2          3          4          5          6
     1  C    0.531565   0.023772   0.023772  -0.091430  -0.091430  -0.000725
     2  H    0.023772   0.065748  -0.024948   0.003488   0.003488   0.000076
     3  H    0.023772  -0.024948   0.065748   0.003488   0.003488   0.000076
     4  C   -0.091430   0.003488   0.003488   0.178738  -0.006649   0.000761
     5  C   -0.091430   0.003488   0.003488  -0.006649   0.178738   0.001850
     6  H   -0.000725   0.000076   0.000076   0.000761   0.001850  -0.000439
     7  C   -0.063577  -0.005630  -0.005630  -0.166564  -0.166564  -0.001014
     8  C    0.002235  -0.001198  -0.001198   0.088126   0.088126  -0.000101
     9  H   -0.000725   0.000076   0.000076   0.001850   0.000761  -0.000004
               7          8          9
     1  C   -0.063577   0.002235  -0.000725
     2  H   -0.005630  -0.001198   0.000076
     3  H   -0.005630  -0.001198   0.000076
     4  C   -0.166564   0.088126   0.001850
     5  C   -0.166564   0.088126   0.000761
     6  H   -0.001014  -0.000101  -0.000004
     7  C    1.370544  -0.410693  -0.001014
     8  C   -0.410693   2.197173  -0.000101
     9  H   -0.001014  -0.000101  -0.000439
 Mulliken charges and spin densities:
               1          2
     1  C   -0.103408   0.333456
     2  H    0.291034   0.064870
     3  H    0.291034   0.064870
     4  C    0.336327   0.011809
     5  C    0.336327   0.011809
     6  H    0.427502   0.000480
     7  C    0.447654   0.549857
     8  C    0.546029   1.962367
     9  H    0.427502   0.000480
 Sum of Mulliken charges =   3.00000   3.00000
 Mulliken charges and spin densities with hydrogens summed into heavy atoms:
               1          2
     1  C    0.478661   0.463197
     4  C    0.763828   0.012289
     5  C    0.763828   0.012289
     7  C    0.447654   0.549857
     8  C    0.546029   1.962367
 APT charges:
               1
     1  C   -0.526797
     2  H    0.578244
     3  H    0.578244
     4  C    0.458076
     5  C    0.458076
     6  H    0.303911
     7  C   -0.073910
     8  C    0.920243
     9  H    0.303911
 Sum of APT charges =   3.00000
 APT charges with hydrogens summed into heavy atoms:
               1
     1  C    0.629692
     4  C    0.761987
     5  C    0.761987
     7  C   -0.073910
     8  C    0.920243
 Electronic spatial extent (au):  <R**2>=            284.0919
 Charge=              3.0000 electrons
 Dipole moment (field-independent basis, Debye):
    X=             -0.0000    Y=             -0.0000    Z=             -2.9491  Tot=              2.9491
 Quadrupole moment (field-independent basis, Debye-Ang):
   XX=             -6.1209   YY=            -20.7209   ZZ=             19.0719
   XY=             -0.0000   XZ=              0.0000   YZ=              0.0000
 Traceless Quadrupole moment (field-independent basis, Debye-Ang):
   XX=             -3.5310   YY=            -18.1309   ZZ=             21.6619
   XY=             -0.0000   XZ=              0.0000   YZ=              0.0000
 Octapole moment (field-independent basis, Debye-Ang**2):
  XXX=             -0.0000  YYY=              0.0000  ZZZ=            -16.5219  XYY=             -0.0000
  XXY=              0.0000  XXZ=             -7.3369  XZZ=             -0.0000  YZZ=             -0.0000
  YYZ=             -3.4385  XYZ=              0.0000
 Hexadecapole moment (field-independent basis, Debye-Ang**3):
 XXXX=            -21.6792 YYYY=            -20.1176 ZZZZ=             15.8768 XXXY=             -0.0000
 XXXZ=              0.0000 YYYX=              0.0000 YYYZ=              0.0000 ZZZX=              0.0000
 ZZZY=              0.0000 XXYY=            -19.5935 XXZZ=            -55.6037 YYZZ=            -28.1266
 XXYZ=             -0.0000 YYXZ=              0.0000 ZZXY=              0.0000
 N-N= 1.331937742627D+02 E-N=-6.864391267076D+02  KE= 1.901988887296D+02
 Symmetry A1   KE= 1.443789133966D+02
 Symmetry A2   KE= 2.142424652379D-19
 Symmetry B1   KE= 4.245736495590D+01
 Symmetry B2   KE= 3.362610377148D+00
  Exact polarizability:  37.716   0.000  23.689  -0.000   0.000  69.534
 Approx polarizability:  59.396  -0.000  37.065  -0.000  -0.000 128.876
                          Isotropic Fermi Contact Couplings
        Atom                 a.u.       MegaHertz       Gauss      10(-4) cm-1
     1  C(13)              0.01990       7.45556       2.66033       2.48691
     2  H(1)               0.03207      47.78763      17.05181      15.94024
     3  H(1)               0.03207      47.78763      17.05181      15.94024
     4  C(13)              0.03969      14.87465       5.30765       4.96165
     5  C(13)              0.03969      14.87465       5.30765       4.96165
     6  H(1)               0.00081       1.21284       0.43277       0.40456
     7  C(13)              0.14546      54.50841      19.44996      18.18205
     8  C(13)              1.40858     527.83683     188.34530     176.06741
     9  H(1)               0.00081       1.21284       0.43277       0.40456
 --------------------------------------------------------
       Center         ----  Spin Dipole Couplings  ----
                      3XX-RR        3YY-RR        3ZZ-RR
 --------------------------------------------------------
     1   Atom       -0.220479      0.423996     -0.203517
     2   Atom       -0.030943     -0.025926      0.056869
     3   Atom       -0.030943     -0.025926      0.056869
     4   Atom        0.024110     -0.124332      0.100222
     5   Atom        0.024110     -0.124332      0.100222
     6   Atom        0.009618     -0.016325      0.006707
     7   Atom       -0.459348      0.459492     -0.000144
     8   Atom        0.960521     -0.812712     -0.147808
     9   Atom        0.009618     -0.016325      0.006707
 --------------------------------------------------------
                        XY            XZ            YZ
 --------------------------------------------------------
     1   Atom        0.000000      0.000000      0.000000
     2   Atom       -0.000000     -0.000000     -0.008067
     3   Atom       -0.000000     -0.000000      0.008067
     4   Atom       -0.000000      0.070077      0.000000
     5   Atom       -0.000000     -0.070077     -0.000000
     6   Atom       -0.000000     -0.013041      0.000000
     7   Atom        0.000000      0.000000     -0.000000
     8   Atom       -0.000000      0.000000     -0.000000
     9   Atom       -0.000000      0.013041     -0.000000
 --------------------------------------------------------


 ---------------------------------------------------------------------------------
              Anisotropic Spin Dipole Couplings in Principal Axis System
 ---------------------------------------------------------------------------------

       Atom             a.u.   MegaHertz   Gauss  10(-4) cm-1        Axes

              Baa    -0.2205   -29.586   -10.557    -9.869  1.0000 -0.0000 -0.0000
     1 C(13)  Bbb    -0.2035   -27.310    -9.745    -9.110  0.0000 -0.0000  1.0000
              Bcc     0.4240    56.896    20.302    18.979  0.0000  1.0000  0.0000
 
              Baa    -0.0309   -16.510    -5.891    -5.507  1.0000 -0.0000  0.0000
     2 H(1)   Bbb    -0.0267   -14.248    -5.084    -4.753  0.0000  0.9954  0.0961
              Bcc     0.0576    30.758    10.975    10.260 -0.0000 -0.0961  0.9954
 
              Baa    -0.0309   -16.510    -5.891    -5.507  1.0000  0.0000  0.0000
     3 H(1)   Bbb    -0.0267   -14.248    -5.084    -4.753 -0.0000  0.9954 -0.0961
              Bcc     0.0576    30.758    10.975    10.260 -0.0000  0.0961  0.9954
 
              Baa    -0.1243   -16.684    -5.953    -5.565  0.0000  1.0000 -0.0000
     4 C(13)  Bbb    -0.0176    -2.359    -0.842    -0.787  0.8594 -0.0000 -0.5113
              Bcc     0.1419    19.043     6.795     6.352  0.5113  0.0000  0.8594
 
              Baa    -0.1243   -16.684    -5.953    -5.565  0.0000  1.0000  0.0000
     5 C(13)  Bbb    -0.0176    -2.359    -0.842    -0.787  0.8594 -0.0000  0.5113
              Bcc     0.1419    19.043     6.795     6.352 -0.5113 -0.0000  0.8594
 
              Baa    -0.0163    -8.710    -3.108    -2.905 -0.0000  1.0000  0.0000
     6 H(1)   Bbb    -0.0050    -2.646    -0.944    -0.883  0.6667 -0.0000  0.7453
              Bcc     0.0213    11.356     4.052     3.788  0.7453 -0.0000 -0.6667
 
              Baa    -0.4593   -61.640   -21.995   -20.561  1.0000  0.0000 -0.0000
     7 C(13)  Bbb    -0.0001    -0.019    -0.007    -0.006  0.0000  0.0000  1.0000
              Bcc     0.4595    61.659    22.002    20.567  0.0000  1.0000 -0.0000
 
              Baa    -0.8127  -109.058   -38.915   -36.378  0.0000  1.0000  0.0000
     8 C(13)  Bbb    -0.1478   -19.834    -7.077    -6.616 -0.0000 -0.0000  1.0000
              Bcc     0.9605   128.893    45.992    42.994  1.0000  0.0000  0.0000
 
              Baa    -0.0163    -8.710    -3.108    -2.905  0.0000  1.0000 -0.0000
     9 H(1)   Bbb    -0.0050    -2.646    -0.944    -0.883 -0.6667  0.0000  0.7453
              Bcc     0.0213    11.356     4.052     3.788  0.7453 -0.0000  0.6667
 

 ---------------------------------------------------------------------------------

 No NMR shielding tensors so no spin-rotation constants.
 Leave Link  601 at Wed Jul 20 14:56:53 2016, MaxMem=    33554432 cpu:         1.1
 (Enter /home/proyectos/fulerenos/M3C-v2.0/M3C-deps_CCC/g09-AM64L-G09RevC.01/l701.exe)
 Compute integral second derivatives.
 ... and contract with generalized density number  0.
 Leave Link  701 at Wed Jul 20 14:56:54 2016, MaxMem=    33554432 cpu:         1.3
 (Enter /home/proyectos/fulerenos/M3C-v2.0/M3C-deps_CCC/g09-AM64L-G09RevC.01/l702.exe)
 L702 exits ... SP integral derivatives will be done elsewhere.
 Leave Link  702 at Wed Jul 20 14:56:55 2016, MaxMem=    33554432 cpu:         0.1
 (Enter /home/proyectos/fulerenos/M3C-v2.0/M3C-deps_CCC/g09-AM64L-G09RevC.01/l703.exe)
 Compute integral second derivatives, UseDBF=F ICtDFT=           0.
 Integral derivatives from FoFJK, PRISM(SPDF).
 Calling FoFJK, ICntrl=    100127 FMM=F ISym2X=1 I1Cent= 0 IOpClX= 1 NMat=1 NMatS=1 NMatT=0.
 FoFJK:  IHMeth= 1 ICntrl=  100127 DoSepK=F KAlg= 0 I1Cent=   0 FoldK=F
 IRaf=         0 NMat=   1 IRICut=       1 DoRegI=T DoRafI=F ISym2E= 1.
 FoFCou: FMM=F IPFlag=           0 FMFlag=      100000 FMFlg1=         800
         NFxFlg=           0 DoJE=F BraDBF=F KetDBF=F FulRan=T
         wScrn=  0.000000 ICntrl=  100127 IOpCl=  1 I1Cent=           0 NGrid=           0
         NMat0=    1 NMatS0=      1 NMatT0=    0 NMatD0=    1 NMtDS0=    0 NMtDT0=    0
 Petite list used in FoFCou.
 Leave Link  703 at Wed Jul 20 15:13:06 2016, MaxMem=    33554432 cpu:       969.0
 (Enter /home/proyectos/fulerenos/M3C-v2.0/M3C-deps_CCC/g09-AM64L-G09RevC.01/l716.exe)
 Dipole        = 1.95811249D-14-8.64941742D-16-1.16026572D+00
 Polarizability= 3.77159128D+01 5.61960409D-09 2.36887561D+01
                -3.66538593D-09 2.62270712D-09 6.95335222D+01
 Full mass-weighted force constant matrix:
 Low frequencies ---  -14.6300  -11.2110   -5.2390   -0.0006   -0.0006    0.0057
 Low frequencies ---   98.4909  385.0725  392.8558
 Diagonal vibrational polarizability:
        7.5285227      37.1464990      58.7072086
 Harmonic frequencies (cm**-1), IR intensities (KM/Mole), Raman scattering
 activities (A**4/AMU), depolarization ratios for plane and unpolarized
 incident light, reduced masses (AMU), force constants (mDyne/A),
 and normal coordinates:
                      1                      2                      3
                     B2                     B2                     B1
 Frequencies --     98.4908               385.0725               392.8557
 Red. masses --      2.1095                 2.5075                 4.8547
 Frc consts  --      0.0121                 0.2191                 0.4414
 IR Inten    --      5.6016                58.6918                 2.9787
  Atom  AN      X      Y      Z        X      Y      Z        X      Y      Z
     1   6    -0.00   0.18   0.00     0.00   0.04   0.00     0.08  -0.00   0.00
     2   1     0.00   0.44   0.16     0.00  -0.22  -0.13     0.34   0.00   0.00
     3   1     0.00   0.44  -0.16     0.00  -0.22   0.13     0.34   0.00  -0.00
     4   6     0.00  -0.14   0.00    -0.00  -0.03  -0.00    -0.15   0.00  -0.20
     5   6     0.00  -0.14  -0.00    -0.00  -0.03   0.00    -0.15   0.00   0.20
     6   1     0.00  -0.48  -0.00    -0.00  -0.61   0.00    -0.15   0.00   0.44
     7   6     0.00  -0.06   0.00    -0.00   0.33  -0.00    -0.22  -0.00   0.00
     8   6    -0.00   0.16   0.00     0.00  -0.16  -0.00     0.41   0.00  -0.00
     9   1     0.00  -0.48   0.00    -0.00  -0.61  -0.00    -0.15   0.00  -0.44
                      4                      5                      6
                     B2                     A2                     A1
 Frequencies --    577.6848               600.3022               660.4900
 Red. masses --      1.5679                 1.0087                 3.3651
 Frc consts  --      0.3083                 0.2142                 0.8649
 IR Inten    --    105.8052                 0.0000               386.8946
  Atom  AN      X      Y      Z        X      Y      Z        X      Y      Z
     1   6    -0.00   0.18  -0.00    -0.00   0.00  -0.00    -0.00  -0.00  -0.24
     2   1     0.00  -0.56  -0.38     0.69   0.00   0.00    -0.00   0.55   0.24
     3   1     0.00  -0.56   0.38    -0.69  -0.00   0.00     0.00  -0.55   0.24
     4   6    -0.00   0.01   0.00     0.00  -0.01  -0.00     0.05   0.00  -0.11
     5   6    -0.00   0.01  -0.00    -0.00   0.01  -0.00    -0.05  -0.00  -0.11
     6   1    -0.00  -0.12  -0.00    -0.00   0.15  -0.00    -0.05  -0.00  -0.18
     7   6     0.00  -0.13   0.00    -0.00  -0.00   0.00     0.00   0.00   0.11
     8   6    -0.00   0.03   0.00     0.00   0.00   0.00     0.00  -0.00   0.34
     9   1     0.00  -0.12  -0.00     0.00  -0.15  -0.00     0.05   0.00  -0.18
                      7                      8                      9
                     A1                     B1                     A1
 Frequencies --    742.5404               822.4015               893.2911
 Red. masses --      1.6932                 1.2819                 2.0349
 Frc consts  --      0.5501                 0.5108                 0.9567
 IR Inten    --    435.1328                17.6176               176.8191
  Atom  AN      X      Y      Z        X      Y      Z        X      Y      Z
     1   6     0.00   0.00  -0.11     0.03  -0.00   0.00     0.00  -0.00   0.17
     2   1     0.00   0.50   0.31     0.66   0.00   0.00    -0.00   0.29   0.48
     3   1    -0.00  -0.50   0.31     0.66   0.00  -0.00     0.00  -0.29   0.48
     4   6     0.01  -0.00   0.11    -0.07  -0.00   0.08    -0.16   0.00  -0.07
     5   6    -0.01   0.00   0.11    -0.07  -0.00  -0.08     0.16  -0.00  -0.07
     6   1    -0.00  -0.00   0.35    -0.08   0.00  -0.23     0.19   0.00  -0.32
     7   6    -0.00  -0.00  -0.12     0.03  -0.00  -0.00    -0.00   0.00  -0.02
     8   6    -0.00   0.00  -0.10    -0.01   0.00   0.00     0.00  -0.00  -0.04
     9   1     0.00   0.00   0.35    -0.08   0.00   0.23    -0.19  -0.00  -0.32
                     10                     11                     12
                     B2                     B1                     A2
 Frequencies --    999.5452              1019.2037              1048.5156
 Red. masses --      2.0648                 6.0317                 1.3455
 Frc consts  --      1.2154                 3.6916                 0.8715
 IR Inten    --      0.5435                25.4364                 0.0000
  Atom  AN      X      Y      Z        X      Y      Z        X      Y      Z
     1   6    -0.00   0.13   0.00    -0.17  -0.00  -0.00     0.00   0.00  -0.00
     2   1    -0.00  -0.07  -0.09     0.09  -0.00  -0.00    -0.14  -0.00  -0.00
     3   1    -0.00  -0.07   0.09     0.09   0.00  -0.00     0.14   0.00  -0.00
     4   6     0.00  -0.17  -0.00    -0.15   0.00  -0.18     0.00   0.12   0.00
     5   6     0.00  -0.17   0.00    -0.15   0.00   0.18    -0.00  -0.12   0.00
     6   1     0.00   0.66   0.00    -0.18  -0.00   0.48    -0.00   0.68   0.00
     7   6     0.00   0.14   0.00     0.56  -0.00  -0.00    -0.00   0.00  -0.00
     8   6    -0.00  -0.02   0.00    -0.07   0.00   0.00     0.00  -0.00  -0.00
     9   1     0.00   0.66  -0.00    -0.18  -0.00  -0.48     0.00  -0.68   0.00
                     13                     14                     15
                     A1                     B1                     B1
 Frequencies --   1084.5126              1187.5263              1262.6913
 Red. masses --      2.4269                 1.3796                 4.2004
 Frc consts  --      1.6818                 1.1462                 3.9458
 IR Inten    --      0.4160                11.5344               247.3426
  Atom  AN      X      Y      Z        X      Y      Z        X      Y      Z
     1   6    -0.00   0.00   0.10    -0.04  -0.00   0.00     0.44   0.00   0.00
     2   1     0.00   0.18   0.28     0.10   0.00   0.00    -0.53  -0.00  -0.00
     3   1     0.00  -0.18   0.28     0.10   0.00  -0.00    -0.53   0.00   0.00
     4   6     0.21   0.00   0.01     0.02   0.00   0.12    -0.19  -0.00   0.11
     5   6    -0.21  -0.00   0.01     0.02   0.00  -0.12    -0.19  -0.00  -0.11
     6   1    -0.25   0.00  -0.51     0.03  -0.00   0.69    -0.25   0.00   0.10
     7   6     0.00   0.00   0.07    -0.02  -0.00  -0.00     0.08   0.00  -0.00
     8   6    -0.00  -0.00  -0.15     0.00  -0.00   0.00    -0.02  -0.00   0.00
     9   1     0.25  -0.00  -0.51     0.03  -0.00  -0.69    -0.25   0.00  -0.10
                     16                     17                     18
                     A1                     A1                     B2
 Frequencies --   1275.3028              1283.3519              1904.3955
 Red. masses --      2.0642                 5.1521                 1.0344
 Frc consts  --      1.9781                 4.9995                 2.2103
 IR Inten    --     18.9319               144.7329               324.4917
  Atom  AN      X      Y      Z        X      Y      Z        X      Y      Z
     1   6     0.00   0.00   0.06     0.00   0.00  -0.27    -0.00   0.05  -0.00
     2   1    -0.00   0.06   0.15    -0.00   0.15  -0.29    -0.00  -0.32   0.63
     3   1    -0.00  -0.06   0.15    -0.00  -0.15  -0.29    -0.00  -0.32  -0.63
     4   6     0.03  -0.00  -0.14    -0.15  -0.00   0.11     0.00   0.00   0.00
     5   6    -0.03   0.00  -0.14     0.15   0.00   0.11     0.00   0.00  -0.00
     6   1    -0.02  -0.00   0.65     0.19  -0.00  -0.41     0.00   0.00   0.00
     7   6     0.00   0.00   0.20     0.00  -0.00   0.41     0.00   0.00  -0.00
     8   6    -0.00  -0.00  -0.11    -0.00   0.00  -0.25    -0.00  -0.00   0.00
     9   1     0.02   0.00   0.65    -0.19  -0.00  -0.41     0.00   0.00  -0.00
                     19                     20                     21
                     A1                     B1                     A1
 Frequencies --   2299.9175              3004.1178              3009.2388
 Red. masses --      1.1392                 1.1064                 1.1143
 Frc consts  --      3.5504                 5.8830                 5.9450
 IR Inten    --    970.7900               420.6143                 4.2567
  Atom  AN      X      Y      Z        X      Y      Z        X      Y      Z
     1   6     0.00  -0.00  -0.11     0.01  -0.00  -0.00     0.00   0.00   0.01
     2   1     0.00  -0.48   0.52    -0.00   0.00  -0.00     0.00   0.01  -0.01
     3   1    -0.00   0.48   0.52    -0.00   0.00   0.00    -0.00  -0.01  -0.01
     4   6    -0.00  -0.00   0.01    -0.07   0.00   0.00     0.07   0.00  -0.00
     5   6     0.00   0.00   0.01    -0.07   0.00  -0.00    -0.07   0.00  -0.00
     6   1     0.02  -0.00  -0.01     0.70  -0.00  -0.00     0.70   0.00  -0.00
     7   6     0.00  -0.00   0.01     0.01   0.00  -0.00     0.00  -0.00  -0.00
     8   6    -0.00   0.00  -0.00    -0.00  -0.00   0.00    -0.00   0.00   0.00
     9   1    -0.02   0.00  -0.01     0.70  -0.00   0.00    -0.70  -0.00  -0.00

 -------------------
 - Thermochemistry -
 -------------------
 Temperature   298.150 Kelvin.  Pressure   1.00000 Atm.
 Atom     1 has atomic number  6 and mass  12.00000
 Atom     2 has atomic number  1 and mass   1.00783
 Atom     3 has atomic number  1 and mass   1.00783
 Atom     4 has atomic number  6 and mass  12.00000
 Atom     5 has atomic number  6 and mass  12.00000
 Atom     6 has atomic number  1 and mass   1.00783
 Atom     7 has atomic number  6 and mass  12.00000
 Atom     8 has atomic number  6 and mass  12.00000
 Atom     9 has atomic number  1 and mass   1.00783
 Molecular mass:    64.03130 amu.
 Principal axes and moments of inertia in atomic units:
                           1         2         3
     Eigenvalues --   131.08904 349.60077 475.73131
           X            0.00000   1.00000   0.00000
           Y            0.00000  -0.00000   1.00000
           Z            1.00000   0.00000  -0.00000
 This molecule is an asymmetric top.
 Rotational symmetry number  2.
 Rotational temperatures (Kelvin)      0.66073     0.24775     0.18206
 Rotational constants (GHZ):          13.76729     5.16229     3.79361
 Zero-point vibrational energy     146850.3 (Joules/Mol)
                                   35.09806 (Kcal/Mol)
 Warning -- explicit consideration of   5 degrees of freedom as
           vibrations may cause significant error
 Vibrational temperatures:    141.71   554.03   565.23   831.16   863.70
          (Kelvin)            950.30  1068.35  1183.25  1285.25  1438.12
                             1466.40  1508.58  1560.37  1708.58  1816.73
                             1834.87  1846.45  2740.00  3309.06  4322.25
                             4329.62
 
 Zero-point correction=                           0.055932 (Hartree/Particle)
 Thermal correction to Energy=                    0.061013
 Thermal correction to Enthalpy=                  0.061958
 Thermal correction to Gibbs Free Energy=         0.027653
 Sum of electronic and zero-point Energies=           -190.925978
 Sum of electronic and thermal Energies=              -190.920897
 Sum of electronic and thermal Enthalpies=            -190.919953
 Sum of electronic and thermal Free Energies=         -190.954258
 
                     E (Thermal)             CV                S
                      KCal/Mol        Cal/Mol-Kelvin    Cal/Mol-Kelvin
 Total                   38.286             17.864             72.200
 Electronic               0.000              0.000              2.755
 Translational            0.889              2.981             38.389
 Rotational               0.889              2.981             23.215
 Vibrational             36.509             11.903              7.841
 Vibration     1          0.604              1.950              3.484
 Vibration     2          0.754              1.502              1.019
 Vibration     3          0.760              1.485              0.989
 Vibration     4          0.934              1.080              0.490
 Vibration     5          0.958              1.031              0.449
                       Q            Log10(Q)             Ln(Q)
 Total Bot       0.190821D-12        -12.719374        -29.287441
 Total V=0       0.101777D+14         13.007649         29.951219
 Vib (Bot)       0.896304D-25        -25.047545        -57.674103
 Vib (Bot)    1  0.208433D+01          0.318966          0.734447
 Vib (Bot)    2  0.467864D+00         -0.329880         -0.759577
 Vib (Bot)    3  0.456054D+00         -0.340984         -0.785144
 Vib (Bot)    4  0.264392D+00         -0.577751         -1.330322
 Vib (Bot)    5  0.248664D+00         -0.604388         -1.391654
 Vib (V=0)       0.478056D+01          0.679479          1.564558
 Vib (V=0)    1  0.264346D+01          0.422173          0.972089
 Vib (V=0)    2  0.118476D+01          0.073631          0.169541
 Vib (V=0)    3  0.117675D+01          0.070683          0.162753
 Vib (V=0)    4  0.106560D+01          0.027594          0.063538
 Vib (V=0)    5  0.105842D+01          0.024658          0.056778
 Electronic      0.400000D+01          0.602060          1.386294
 Translational   0.201393D+08          7.304044         16.818182
 Rotational      0.264281D+05          4.422067         10.182185
 
                                                              b3lyp opt
                                                             IR Spectrum
 
     33                            2                1                        111  1    1111                                          
     00                            3                9                        222  1    0000    8  8  7   6 65      33                
     00                            0                0                        876  8    8410    9  2  4   6 07      98           9    
     94                            0                4                        353  8    5990    3  2  3   0 08      35           8    
 
     XX                            X                X                        XXX  X    X XX    X  X  X   X  X      XX           X    
      X                            X                X                        X X               X     X   X  X                        
      X                            X                X                        X X               X     X   X                           
      X                            X                X                          X               X     X   X                           
      X                            X                X                          X                     X   X                           
      X                            X                X                                                X   X                           
      X                            X                X                                                X   X                           
      X                            X                                                                 X   X                           
      X                            X                                                                 X                               
                                   X                                                                                                 
                                   X                                                                                                 
                                   X                                                                                                 
                                   X                                                                                                 
                                   X                                                                                                 
                                   X                                                                                                 
                                   X                                                                                                 
                                   X                                                                                                 
                                   X                                                                                                 
                                   X                                                                                                 
                                   X                                                                                                 
 
 ***** Axes restored to original set *****
 -------------------------------------------------------------------
 Center     Atomic                   Forces (Hartrees/Bohr)
 Number     Number              X              Y              Z
 -------------------------------------------------------------------
      1        6           0.000039708   -0.000000001   -0.000000000
      2        1          -0.000005893    0.000000000    0.000001835
      3        1          -0.000005893    0.000000000   -0.000001835
      4        6          -0.000011835   -0.000051586   -0.000000000
      5        6          -0.000011832    0.000051586    0.000000000
      6        1          -0.000007261   -0.000029115   -0.000000000
      7        6           0.000027973   -0.000000001    0.000000000
      8        6          -0.000017707    0.000000000   -0.000000000
      9        1          -0.000007259    0.000029116    0.000000000
 -------------------------------------------------------------------
 Cartesian Forces:  Max     0.000051586 RMS     0.000019391
 Z-matrix is all fixed cartesians, so copy forces.
 Force constants in Cartesian coordinates: 
                1             2             3             4             5 
      1  0.587185D+00
      2 -0.346235D-05  0.435165D+00
      3  0.000000D+00  0.000000D+00  0.130723D+00
      4 -0.922411D-01  0.130326D-05 -0.399716D-01  0.110276D+00
      5  0.143832D-05 -0.388904D-01  0.000000D+00 -0.218410D-05  0.205641D-01
      6 -0.101673D+00  0.231363D-05 -0.375760D-01  0.640225D-01 -0.155415D-05
      7 -0.922411D-01  0.112716D-05  0.399716D-01  0.148271D-02  0.000000D+00
      8  0.000000D+00 -0.388904D-01  0.000000D+00  0.000000D+00  0.630396D-02
      9  0.101673D+00 -0.231856D-05 -0.375760D-01 -0.130350D-01  0.000000D+00
     10 -0.143126D+00 -0.102070D+00  0.000000D+00 -0.350881D-02 -0.616396D-02
     11 -0.799844D-01 -0.182662D+00  0.000000D+00 -0.449863D-02  0.581323D-02
     12  0.000000D+00  0.000000D+00 -0.552821D-01 -0.597436D-02 -0.703266D-02
     13 -0.143118D+00  0.102068D+00  0.000000D+00 -0.350832D-02  0.616434D-02
     14  0.799826D-01 -0.182670D+00  0.000000D+00  0.449908D-02  0.581273D-02
     15  0.000000D+00  0.000000D+00 -0.552821D-01 -0.597403D-02  0.703297D-02
     16  0.807720D-02  0.140374D-01  0.000000D+00 -0.279256D-04  0.562305D-03
     17 -0.227447D-02  0.609750D-02  0.000000D+00  0.134013D-02  0.210967D-03
     18  0.000000D+00  0.000000D+00  0.162904D-01  0.451861D-03 -0.147694D-02
     19 -0.149524D+00  0.330696D-05  0.000000D+00 -0.130206D-03  0.000000D+00
     20  0.330601D-05 -0.430835D-02  0.000000D+00  0.000000D+00 -0.109533D-02
     21  0.000000D+00  0.000000D+00  0.236645D-01 -0.108091D-02  0.000000D+00
     22  0.169125D-01  0.000000D+00  0.000000D+00 -0.123138D-01  0.000000D+00
     23  0.000000D+00  0.611375D-04  0.000000D+00  0.000000D+00  0.106963D-02
     24  0.000000D+00  0.000000D+00 -0.125167D-02  0.110962D-02  0.000000D+00
     25  0.807667D-02 -0.140375D-01  0.000000D+00 -0.280122D-04 -0.562296D-03
     26  0.227438D-02  0.609804D-02  0.000000D+00 -0.134012D-02  0.211049D-03
     27  0.000000D+00  0.000000D+00  0.162904D-01  0.451921D-03  0.147692D-02
                6             7             8             9            10 
      6  0.642960D-01
      7  0.130350D-01  0.110276D+00
      8  0.000000D+00 -0.190308D-05  0.205641D-01
      9 -0.302875D-01 -0.640225D-01  0.136267D-05  0.642960D-01
     10  0.948496D-02 -0.350881D-02 -0.616392D-02 -0.948498D-02  0.322868D+00
     11  0.259429D-02 -0.449865D-02  0.581321D-02 -0.259427D-02  0.357552D-01
     12  0.496684D-03  0.597435D-02  0.703270D-02  0.496699D-03  0.000000D+00
     13  0.948487D-02 -0.350832D-02  0.616438D-02 -0.948484D-02 -0.139631D-01
     14 -0.259470D-02  0.449905D-02  0.581275D-02  0.259472D-02 -0.551396D-02
     15  0.496699D-03  0.597404D-02 -0.703293D-02  0.496684D-03  0.000000D+00
     16  0.426196D-03 -0.279256D-04  0.562307D-03 -0.426193D-03 -0.137932D-02
     17  0.426110D-03  0.134013D-02  0.210962D-03 -0.426108D-03 -0.135118D-02
     18 -0.774969D-04 -0.451854D-03  0.147694D-02 -0.774931D-04  0.000000D+00
     19 -0.311666D-02 -0.130205D-03  0.000000D+00  0.311666D-02 -0.667632D-01
     20  0.000000D+00  0.000000D+00 -0.109533D-02  0.000000D+00  0.752773D-01
     21  0.275094D-02  0.108091D-02  0.000000D+00  0.275094D-02  0.000000D+00
     22  0.791036D-02 -0.123138D-01  0.000000D+00 -0.791036D-02 -0.311399D-01
     23  0.000000D+00  0.000000D+00  0.106963D-02  0.000000D+00  0.906413D-02
     24 -0.217948D-04 -0.110962D-02  0.000000D+00 -0.217947D-04  0.000000D+00
     25  0.426174D-03 -0.280122D-04 -0.562294D-03 -0.426176D-03 -0.594785D-01
     26 -0.426128D-03 -0.134012D-02  0.211053D-03  0.426129D-03  0.116605D-02
     27 -0.774931D-04 -0.451928D-03 -0.147692D-02 -0.774969D-04  0.000000D+00
               11            12            13            14            15 
     11  0.744852D+00
     12  0.130702D-05  0.149110D+00
     13  0.550897D-02  0.000000D+00  0.322865D+00
     14 -0.123503D+00  0.000000D+00 -0.357360D-01  0.744856D+00
     15  0.000000D+00  0.121515D-01  0.000000D+00  0.130703D-05  0.149110D+00
     16 -0.960756D-03  0.000000D+00 -0.594787D-01 -0.235129D-02  0.000000D+00
     17 -0.265804D-02  0.000000D+00 -0.117802D-02 -0.322155D+00  0.000000D+00
     18  0.000000D+00  0.652599D-02  0.000000D+00  0.000000D+00 -0.564648D-01
     19  0.390133D-01  0.000000D+00 -0.667684D-01 -0.390163D-01  0.000000D+00
     20 -0.134370D+00  0.000000D+00 -0.752804D-01 -0.134364D+00  0.000000D+00
     21  0.000000D+00 -0.672100D-01  0.000000D+00  0.000000D+00 -0.672100D-01
     22  0.732573D-02  0.000000D+00 -0.311407D-01 -0.732390D-02  0.000000D+00
     23  0.886932D-02  0.000000D+00 -0.906231D-02  0.887006D-02  0.000000D+00
     24  0.000000D+00  0.101762D-01  0.000000D+00  0.000000D+00  0.101762D-01
     25  0.233932D-02  0.000000D+00 -0.137921D-02  0.960697D-03  0.000000D+00
     26 -0.322155D+00  0.000000D+00  0.135112D-02 -0.265815D-02  0.000000D+00
     27  0.000000D+00 -0.564648D-01  0.000000D+00  0.000000D+00  0.652599D-02
               16            17            18            19            20 
     16  0.445621D-01
     17  0.168833D-02  0.313565D+00
     18  0.000000D+00  0.000000D+00  0.241237D-01
     19  0.632288D-02  0.281843D-02  0.000000D+00  0.520146D+00
     20 -0.127282D-01  0.444793D-02  0.000000D+00 -0.452811D-05  0.321487D+00
     21  0.000000D+00  0.000000D+00  0.161533D-01  0.000000D+00  0.000000D+00
     22  0.323885D-03 -0.247038D-02  0.000000D+00 -0.249476D+00  0.443072D-05
     23 -0.723060D-03  0.458980D-03  0.000000D+00  0.442802D-05 -0.551492D-01
     24  0.000000D+00  0.000000D+00 -0.693829D-03  0.000000D+00  0.000000D+00
     25  0.162783D-02  0.870284D-04  0.000000D+00  0.632333D-02  0.127281D-01
     26 -0.871107D-04 -0.178513D-03  0.000000D+00 -0.281851D-02  0.444748D-02
     27  0.000000D+00  0.000000D+00 -0.577976D-02  0.000000D+00  0.000000D+00
               21            22            23            24            25 
     21  0.101934D+00
     22  0.000000D+00  0.318823D+00
     23  0.000000D+00 -0.648235D-05  0.342916D-01
     24 -0.289871D-01  0.000000D+00  0.000000D+00  0.113176D-01
     25  0.000000D+00  0.324031D-03  0.723067D-03  0.000000D+00  0.445619D-01
     26  0.000000D+00  0.247038D-02  0.458834D-03  0.000000D+00 -0.167607D-02
     27  0.161533D-01  0.000000D+00  0.000000D+00 -0.693830D-03  0.000000D+00
               26            27 
     26  0.313565D+00
     27  0.000000D+00  0.241237D-01
 Leave Link  716 at Wed Jul 20 15:13:06 2016, MaxMem=    33554432 cpu:         0.2
 (Enter /home/proyectos/fulerenos/M3C-v2.0/M3C-deps_CCC/g09-AM64L-G09RevC.01/l103.exe)

 GradGradGradGradGradGradGradGradGradGradGradGradGradGradGradGradGradGrad
 Berny optimization.
 Search for a local minimum.
 Step number   1 out of a maximum of    2
 All quantities printed in internal units (Hartrees-Bohrs-Radians)
 Second derivative matrix not updated -- analytic derivatives used.
 ITU=  0
     Eigenvalues ---    0.00089   0.01377   0.01808   0.02441   0.03352
     Eigenvalues ---    0.03431   0.04485   0.06725   0.12481   0.14000
     Eigenvalues ---    0.17309   0.17741   0.20096   0.29381   0.29549
     Eigenvalues ---    0.30785   0.53310   0.63655   0.77888   0.95991
     Eigenvalues ---    1.06777
 Angle between quadratic step and forces=  68.69 degrees.
 ClnCor:  largest displacement from symmetrization is 9.16D-11 for atom     3.
 Linear search not attempted -- first point.
 ClnCor:  largest displacement from symmetrization is 8.95D-16 for atom     9.
 B after Tr=     0.000044   -0.000000   -0.000000
         Rot=    1.000000   -0.000000   -0.000000   -0.000000 Ang=   0.00 deg.
 Variable       Old X    -DE/DX   Delta X   Delta X   Delta X     New X
                                 (Linear)    (Quad)   (Total)
    X1       -2.49777   0.00004   0.00000   0.00016   0.00020  -2.49757
    Y1        0.00005  -0.00000   0.00000  -0.00000  -0.00000   0.00005
    Z1       -0.00001  -0.00000   0.00000  -0.00000   0.00000  -0.00001
    X2       -4.51753  -0.00001   0.00000  -0.00013  -0.00009  -4.51762
    Y2        0.00010   0.00000   0.00000   0.00000   0.00000   0.00010
    Z2       -1.10906   0.00000   0.00000   0.00031   0.00031  -1.10875
    X3       -4.51753  -0.00001   0.00000  -0.00013  -0.00009  -4.51762
    Y3        0.00009   0.00000   0.00000   0.00000   0.00000   0.00009
    Z3        1.10905  -0.00000   0.00000  -0.00031  -0.00031   1.10874
    X4       -0.62367  -0.00001   0.00000   0.00000   0.00005  -0.62362
    Y4        1.99011  -0.00005   0.00000  -0.00003  -0.00003   1.99008
    Z4       -0.00000  -0.00000   0.00000  -0.00000  -0.00000  -0.00000
    X5       -0.62376  -0.00001   0.00000   0.00000   0.00005  -0.62371
    Y5       -1.99010   0.00005   0.00000   0.00003   0.00003  -1.99007
    Z5       -0.00001   0.00000   0.00000   0.00000   0.00000  -0.00001
    X6       -0.63926  -0.00001   0.00000  -0.00020  -0.00016  -0.63942
    Y6       -4.08025  -0.00003   0.00000  -0.00006  -0.00006  -4.08031
    Z6       -0.00001  -0.00000   0.00000  -0.00000  -0.00000  -0.00001
    X7        1.38643   0.00003   0.00000   0.00011   0.00016   1.38658
    Y7       -0.00004  -0.00000   0.00000  -0.00000  -0.00000  -0.00004
    Z7       -0.00001   0.00000   0.00000  -0.00000  -0.00000  -0.00001
    X8        4.07767  -0.00002   0.00000   0.00000   0.00004   4.07772
    Y8       -0.00010   0.00000   0.00000  -0.00000  -0.00000  -0.00010
    Z8       -0.00001  -0.00000   0.00000  -0.00000  -0.00000  -0.00001
    X9       -0.63908  -0.00001   0.00000  -0.00020  -0.00016  -0.63923
    Y9        4.08026   0.00003   0.00000   0.00006   0.00006   4.08032
    Z9        0.00000   0.00000   0.00000   0.00000   0.00000   0.00000
         Item               Value     Threshold  Converged?
 Maximum Force            0.000052     0.000450     YES
 RMS     Force            0.000019     0.000300     YES
 Maximum Displacement     0.000306     0.001800     YES
 RMS     Displacement     0.000111     0.001200     YES
 Predicted change in Energy=-1.083736D-08
 Optimization completed.
    -- Stationary point found.
 GradGradGradGradGradGradGradGradGradGradGradGradGradGradGradGradGradGrad

 Leave Link  103 at Wed Jul 20 15:13:06 2016, MaxMem=    33554432 cpu:         0.1
 (Enter /home/proyectos/fulerenos/M3C-v2.0/M3C-deps_CCC/g09-AM64L-G09RevC.01/l9999.exe)
 1\1\GINC-EINSTENIO\Freq\UB3LYP\6-311++G(3df,2p)\C5H4(3+,4)\ROOT\20-Jul
 -2016\0\\#p b3lyp/6-311++G(3df,2p) freq symmetry=Loose\\b3lyp opt\\3,4
 \C,-1.321761998,0.0000258176,-0.0000027591\H,-2.390575788,0.0000514477
 ,-0.586889011\H,-2.3905757881,0.0000488818,0.5868834929\C,-0.33003001,
 1.053120727,-0.0000004569\C,-0.3300779892,-1.0531142733,-0.0000050612\
 H,-0.338283186,-2.159173584,-0.0000074791\C,0.733665,-0.0000210043,-0.
 0000027591\C,2.157811998,-0.0000534458,-0.0000027591\H,-0.3381848155,2
 .1591804104,0.000001961\\Version=EM64L-G09RevE.01\State=4-A2\HF=-190.9
 819107\S2=3.765948\S2-1=0.\S2A=3.750027\RMSD=3.299e-09\RMSF=1.939e-05\
 ZeroPoint=0.0559323\Thermal=0.0610134\Dipole=-1.1602657,0.0000264,0.\D
 ipoleDeriv=-1.0529905,0.0000149,0.,0.0000149,-0.4002497,-0.0000006,0.,
 -0.0000006,-0.12715,0.9903365,-0.0000166,0.2270139,-0.0000159,0.284238
 9,-0.0000056,-0.0687697,0.0000012,0.4601579,0.9903365,-0.0000156,-0.22
 70139,-0.0000162,0.2842389,0.0000048,0.0687697,-0.0000019,0.4601579,0.
 2476258,0.0709138,0.0000001,0.0443087,0.6437215,0.0000004,0.,0.0000004
 ,0.4828819,0.2476206,-0.0708958,-0.0000002,-0.0442906,0.6437268,0.0000
 003,0.,0.0000004,0.4828819,0.1919635,-0.0028257,0.,0.0276135,0.5561661
 ,0.0000009,0.,0.0000009,0.1636029,-0.3233068,0.0000034,0.,0.0000034,-0
 .1729849,-0.000001,0.,-0.000001,0.274562,1.516452,-0.0000208,0.,-0.000
 0208,0.6049751,0.,0.,0.,0.6393028,0.1919624,0.0028423,0.,-0.0275969,0.
 5561672,0.0000009,0.,0.0000009,0.1636029\Polar=69.5335222,-0.0007248,3
 7.7159128,0.,0.0000307,23.6887561\PG=C02V [C2(C1C1C1),SGV(H2),SGV'(C2H
 2)]\NImag=0\\0.58718479,-0.00000346,0.43516463,0.,0.00000066,0.1307226
 8,-0.09224113,0.00000130,-0.03997157,0.11027552,0.00000144,-0.03889035
 ,0.00000090,-0.00000218,0.02056412,-0.10167344,0.00000231,-0.03757604,
 0.06402252,-0.00000155,0.06429601,-0.09224113,0.00000113,0.03997157,0.
 00148271,0.00000008,0.01303504,0.11027552,0.00000099,-0.03889035,-0.00
 000092,0.00000014,0.00630396,-0.00000022,-0.00000190,0.02056412,0.1016
 7344,-0.00000232,-0.03757604,-0.01303504,0.00000038,-0.03028752,-0.064
 02252,0.00000136,0.06429601,-0.14312641,-0.10206968,-0.00000022,-0.003
 50881,-0.00616396,0.00948496,-0.00350881,-0.00616392,-0.00948498,0.322
 86817,-0.07998442,-0.18266197,-0.00000028,-0.00449863,0.00581323,0.002
 59429,-0.00449865,0.00581321,-0.00259427,0.03575518,0.74485238,-0.0000
 0018,-0.00000029,-0.05528206,-0.00597436,-0.00703266,0.00049668,0.0059
 7435,0.00703270,0.00049670,0.00000008,0.00000131,0.14910974,-0.1431181
 2,0.10206788,0.00000022,-0.00350832,0.00616434,0.00948487,-0.00350832,
 0.00616438,-0.00948484,-0.01396313,0.00550897,0.00000001,0.32286491,0.
 07998262,-0.18267027,-0.00000028,0.00449908,0.00581273,-0.00259470,0.0
 0449905,0.00581275,0.00259472,-0.00551396,-0.12350335,-0.00000030,-0.0
 3573595,0.74485563,0.00000018,-0.00000029,-0.05528206,-0.00597403,0.00
 703297,0.00049670,0.00597404,-0.00703293,0.00049668,-0.00000001,-0.000
 00030,0.01215146,-0.00000008,0.00000131,0.14910974,0.00807720,0.014037
 44,0.00000003,-0.00002793,0.00056231,0.00042620,-0.00002793,0.00056231
 ,-0.00042619,-0.00137932,-0.00096076,0.,-0.05947871,-0.00235129,0.,0.0
 4456208,-0.00227447,0.00609750,-0.00000002,0.00134013,0.00021097,0.000
 42611,0.00134013,0.00021096,-0.00042611,-0.00135118,-0.00265804,-0.000
 00002,-0.00117802,-0.32215511,-0.00000058,0.00168833,0.31356532,0.,-0.
 00000002,0.01629037,0.00045186,-0.00147694,-0.00007750,-0.00045185,0.0
 0147694,-0.00007749,0.,-0.00000002,0.00652599,0.,-0.00000058,-0.056464
 75,0.,0.00000063,0.02412367,-0.14952438,0.00000331,0.,-0.00013021,-0.0
 0000002,-0.00311666,-0.00013021,-0.00000003,0.00311666,-0.06676324,0.0
 3901326,0.00000008,-0.06676845,-0.03901634,-0.00000008,0.00632288,0.00
 281843,0.,0.52014585,0.00000331,-0.00430835,-0.00000006,-0.00000002,-0
 .00109533,0.00000006,-0.00000002,-0.00109533,-0.00000008,0.07527734,-0
 .13436951,-0.00000014,-0.07528042,-0.13436431,-0.00000014,-0.01272816,
 0.00444793,-0.00000002,-0.00000453,0.32148659,0.,-0.00000006,0.0236645
 4,-0.00108091,0.00000001,0.00275094,0.00108091,-0.00000004,0.00275094,
 0.00000017,-0.00000015,-0.06720999,-0.00000016,-0.00000015,-0.06721000
 ,-0.00000003,-0.00000003,0.01615331,0.,0.00000048,0.10193414,0.0169125
 1,-0.00000038,0.,-0.01231382,0.00000029,0.00791036,-0.01231382,0.00000
 032,-0.00791036,-0.03113991,0.00732573,0.00000001,-0.03114065,-0.00732
 390,-0.00000001,0.00032389,-0.00247038,0.,-0.24947558,0.00000443,0.,0.
 31882336,-0.00000038,0.00006114,0.,0.00000030,0.00106963,-0.00000018,0
 .00000031,0.00106963,0.00000018,0.00906413,0.00886932,-0.00000001,-0.0
 0906231,0.00887006,-0.00000001,-0.00072306,0.00045898,0.,0.00000443,-0
 .05514915,-0.00000006,-0.00000648,0.03429156,0.,0.,-0.00125167,0.00110
 962,-0.00000002,-0.00002179,-0.00110962,0.00000003,-0.00002179,0.00000
 002,0.,0.01017619,-0.00000003,0.,0.01017620,0.,0.,-0.00069383,0.,-0.00
 000006,-0.02898713,0.,0.00000005,0.01131762,0.00807667,-0.01403753,-0.
 00000003,-0.00002801,-0.00056230,0.00042617,-0.00002801,-0.00056229,-0
 .00042618,-0.05947855,0.00233932,0.,-0.00137921,0.00096070,0.,0.001627
 83,0.00008703,0.,0.00632333,0.01272808,0.00000003,0.00032403,0.0007230
 7,0.,0.04456193,0.00227438,0.00609804,-0.00000002,-0.00134012,0.000211
 05,-0.00042613,-0.00134012,0.00021105,0.00042613,0.00116605,-0.3221552
 7,-0.00000058,0.00135112,-0.00265815,-0.00000002,-0.00008711,-0.000178
 51,0.00000001,-0.00281851,0.00444748,-0.00000002,0.00247038,0.00045883
 ,0.,-0.00167607,0.31356547,0.,-0.00000002,0.01629037,0.00045192,0.0014
 7692,-0.00007749,-0.00045193,-0.00147692,-0.00007750,0.,-0.00000058,-0
 .05646475,0.,-0.00000002,0.00652599,0.,0.00000001,-0.00577976,0.,-0.00
 000002,0.01615331,0.,0.,-0.00069383,0.,0.00000063,0.02412367\\-0.00003
 971,0.,0.,0.00000589,0.,-0.00000183,0.00000589,0.,0.00000183,0.0000118
 3,0.00005159,0.,0.00001183,-0.00005159,0.,0.00000726,0.00002912,0.,-0.
 00002797,0.,0.,0.00001771,0.,0.,0.00000726,-0.00002912,0.\\\@


 ASKING DUMB QUESTIONS IS EASIER THAN CORECTING DUMB MISTAKES.
 Job cpu time:       0 days  1 hours 15 minutes 35.5 seconds.
 File lengths (MBytes):  RWF=     62 Int=      0 D2E=      0 Chk=      5 Scr=      1
 Normal termination of Gaussian 09 at Wed Jul 20 15:13:06 2016.
