 Entering Gaussian System, Link 0=/home/proyectos/fulerenos/M3C-v1.9/M3C-deps_CCC/g09-AM64L-G09RevC.01/g09
 Initial command:
 /home/proyectos/fulerenos/M3C-v1.9/M3C-deps_CCC/g09-AM64L-G09RevC.01/l1.exe "/scratch/naguirre/gaussian/Gau-17773.inp" -scrdir="/scratch/naguirre/gaussian/"
 Entering Link 1 = /home/proyectos/fulerenos/M3C-v1.9/M3C-deps_CCC/g09-AM64L-G09RevC.01/l1.exe PID=     17781.
  
 Copyright (c) 1988,1990,1992,1993,1995,1998,2003,2009,2015,
            Gaussian, Inc.  All Rights Reserved.
  
 This is part of the Gaussian(R) 09 program.  It is based on
 the Gaussian(R) 03 system (copyright 2003, Gaussian, Inc.),
 the Gaussian(R) 98 system (copyright 1998, Gaussian, Inc.),
 the Gaussian(R) 94 system (copyright 1995, Gaussian, Inc.),
 the Gaussian 92(TM) system (copyright 1992, Gaussian, Inc.),
 the Gaussian 90(TM) system (copyright 1990, Gaussian, Inc.),
 the Gaussian 88(TM) system (copyright 1988, Gaussian, Inc.),
 the Gaussian 86(TM) system (copyright 1986, Carnegie Mellon
 University), and the Gaussian 82(TM) system (copyright 1983,
 Carnegie Mellon University). Gaussian is a federally registered
 trademark of Gaussian, Inc.
  
 This software contains proprietary and confidential information,
 including trade secrets, belonging to Gaussian, Inc.
  
 This software is provided under written license and may be
 used, copied, transmitted, or stored only in accord with that
 written license.
  
 The following legend is applicable only to US Government
 contracts under FAR:
  
                    RESTRICTED RIGHTS LEGEND
  
 Use, reproduction and disclosure by the US Government is
 subject to restrictions as set forth in subparagraphs (a)
 and (c) of the Commercial Computer Software - Restricted
 Rights clause in FAR 52.227-19.
  
 Gaussian, Inc.
 340 Quinnipiac St., Bldg. 40, Wallingford CT 06492
  
  
 ---------------------------------------------------------------
 Warning -- This program may not be used in any manner that
 competes with the business of Gaussian, Inc. or will provide
 assistance to any competitor of Gaussian, Inc.  The licensee
 of this program is prohibited from giving any competitor of
 Gaussian, Inc. access to this program.  By using this program,
 the user acknowledges that Gaussian, Inc. is engaged in the
 business of creating and licensing software in the field of
 computational chemistry and represents and warrants to the
 licensee that it is not a competitor of Gaussian, Inc. and that
 it will not use this program in any manner prohibited above.
 ---------------------------------------------------------------
  

 Cite this work as:
 Gaussian 09, Revision E.01,
 M. J. Frisch, G. W. Trucks, H. B. Schlegel, G. E. Scuseria, 
 M. A. Robb, J. R. Cheeseman, G. Scalmani, V. Barone, B. Mennucci, 
 G. A. Petersson, H. Nakatsuji, M. Caricato, X. Li, H. P. Hratchian, 
 A. F. Izmaylov, J. Bloino, G. Zheng, J. L. Sonnenberg, M. Hada, 
 M. Ehara, K. Toyota, R. Fukuda, J. Hasegawa, M. Ishida, T. Nakajima, 
 Y. Honda, O. Kitao, H. Nakai, T. Vreven, J. A. Montgomery, Jr., 
 J. E. Peralta, F. Ogliaro, M. Bearpark, J. J. Heyd, E. Brothers, 
 K. N. Kudin, V. N. Staroverov, T. Keith, R. Kobayashi, J. Normand, 
 K. Raghavachari, A. Rendell, J. C. Burant, S. S. Iyengar, J. Tomasi, 
 M. Cossi, N. Rega, J. M. Millam, M. Klene, J. E. Knox, J. B. Cross, 
 V. Bakken, C. Adamo, J. Jaramillo, R. Gomperts, R. E. Stratmann, 
 O. Yazyev, A. J. Austin, R. Cammi, C. Pomelli, J. W. Ochterski, 
 R. L. Martin, K. Morokuma, V. G. Zakrzewski, G. A. Voth, 
 P. Salvador, J. J. Dannenberg, S. Dapprich, A. D. Daniels, 
 O. Farkas, J. B. Foresman, J. V. Ortiz, J. Cioslowski, 
 and D. J. Fox, Gaussian, Inc., Wallingford CT, 2013.
 
 ******************************************
 Gaussian 09:  EM64L-G09RevE.01 30-Nov-2015
                20-Jun-2016 
 ******************************************
 %NProcShared=4
 Will use up to    4 processors via shared memory.
 ---------------------------------------------
 #p b3lyp/6-311++G(3df,2p) freq symmetry=Loose
 ---------------------------------------------
 1/10=4,30=1,38=1/1,3;
 2/12=2,17=4,18=3,40=1/2;
 3/5=4,6=6,7=1216,11=2,16=1,25=1,30=1,71=2,74=-5,140=1/1,2,3;
 4//1;
 5/5=2,38=5,98=1/2;
 8/6=4,10=90,11=11/1;
 11/6=1,8=1,9=11,15=111,16=1/1,2,10;
 10/6=1/2;
 6/7=2,8=2,9=2,10=2,18=1,28=1/1;
 7/8=1,10=1,25=1/1,2,3,16;
 1/10=4,30=1/3;
 99//99;
 Leave Link    1 at Mon Jun 20 12:38:26 2016, MaxMem=           0 cpu:         0.3
 (Enter /home/proyectos/fulerenos/M3C-v1.9/M3C-deps_CCC/g09-AM64L-G09RevC.01/l101.exe)
 ---------
 b3lyp opt
 ---------
 Symbolic Z-matrix:
 Charge =  3 Multiplicity = 4
 C                    -1.58183  -0.16315   0.22747 
 C                    -0.53924  -0.97577  -0.29385 
 H                    -2.60587  -0.2636    0.64037 
 C                     0.50693  -0.01529  -0.04399 
 C                     1.88148  -0.01671   0.09731 
 H                     2.80565  -0.8197    0.16696 
 H                     2.81716   0.74968   0.26496 
 C                    -0.64221   0.90334  -0.08727 
 H                    -0.76767   1.93915  -0.47031 
 
 NAtoms=      9 NQM=        9 NQMF=       0 NMMI=      0 NMMIF=      0
                NMic=       0 NMicF=      0.
                    Isotopes and Nuclear Properties:
 (Nuclear quadrupole moments (NQMom) in fm**2, nuclear magnetic moments (NMagM)
  in nuclear magnetons)

  Atom         1           2           3           4           5           6           7           8           9
 IAtWgt=          12          12           1          12          12           1           1          12           1
 AtmWgt=  12.0000000  12.0000000   1.0078250  12.0000000  12.0000000   1.0078250   1.0078250  12.0000000   1.0078250
 NucSpn=           0           0           1           0           0           1           1           0           1
 AtZEff=   0.0000000   0.0000000   0.0000000   0.0000000   0.0000000   0.0000000   0.0000000   0.0000000   0.0000000
 NQMom=    0.0000000   0.0000000   0.0000000   0.0000000   0.0000000   0.0000000   0.0000000   0.0000000   0.0000000
 NMagM=    0.0000000   0.0000000   2.7928460   0.0000000   0.0000000   2.7928460   2.7928460   0.0000000   2.7928460
 AtZNuc=   6.0000000   6.0000000   1.0000000   6.0000000   6.0000000   1.0000000   1.0000000   6.0000000   1.0000000
 Leave Link  101 at Mon Jun 20 12:38:26 2016, MaxMem=    33554432 cpu:         0.2
 (Enter /home/proyectos/fulerenos/M3C-v1.9/M3C-deps_CCC/g09-AM64L-G09RevC.01/l103.exe)

 GradGradGradGradGradGradGradGradGradGradGradGradGradGradGradGradGradGrad
 Berny optimization.
 Initialization pass.
 Trust Radius=3.00D-01 FncErr=1.00D-07 GrdErr=1.00D-07
 Number of steps in this run=      2 maximum allowed number of steps=      2.
 GradGradGradGradGradGradGradGradGradGradGradGradGradGradGradGradGradGrad

 Leave Link  103 at Mon Jun 20 12:38:26 2016, MaxMem=    33554432 cpu:         0.0
 (Enter /home/proyectos/fulerenos/M3C-v1.9/M3C-deps_CCC/g09-AM64L-G09RevC.01/l202.exe)
                          Input orientation:                          
 ---------------------------------------------------------------------
 Center     Atomic      Atomic             Coordinates (Angstroms)
 Number     Number       Type             X           Y           Z
 ---------------------------------------------------------------------
      1          6           0       -1.581826   -0.163153    0.227472
      2          6           0       -0.539244   -0.975766   -0.293854
      3          1           0       -2.605869   -0.263599    0.640373
      4          6           0        0.506925   -0.015294   -0.043994
      5          6           0        1.881475   -0.016713    0.097312
      6          1           0        2.805654   -0.819704    0.166958
      7          1           0        2.817155    0.749683    0.264961
      8          6           0       -0.642209    0.903339   -0.087267
      9          1           0       -0.767671    1.939147   -0.470305
 ---------------------------------------------------------------------
                    Distance matrix (angstroms):
                    1          2          3          4          5
     1  C    0.000000
     2  C    1.420950   0.000000
     3  H    1.108711   2.377162   0.000000
     4  C    2.111501   1.442015   3.196795   0.000000
     5  C    3.468838   2.632997   4.526823   1.381795   0.000000
     6  H    4.436745   3.380096   5.460582   2.444531   1.226276
     7  H    4.492851   3.815084   5.529635   2.453122   1.221051
     8  C    1.455797   1.893229   2.397325   1.471825   2.692498
     9  H    2.359959   2.929169   3.076470   2.371956   3.341489
                    6          7          8          9
     6  H    0.000000
     7  H    1.572486   0.000000
     8  C    3.862806   3.480643   0.000000
     9  H    4.559168   3.847911   1.111466   0.000000
 Stoichiometry    C5H4(3+,4)
 Framework group  C1[X(C5H4)]
 Deg. of freedom    21
 Full point group                 C1      NOp   1
 Largest Abelian subgroup         C1      NOp   1
 Largest concise Abelian subgroup C1      NOp   1
                         Standard orientation:                         
 ---------------------------------------------------------------------
 Center     Atomic      Atomic             Coordinates (Angstroms)
 Number     Number       Type             X           Y           Z
 ---------------------------------------------------------------------
      1          6           0       -1.581826   -0.163153    0.227472
      2          6           0       -0.539244   -0.975766   -0.293854
      3          1           0       -2.605869   -0.263599    0.640373
      4          6           0        0.506925   -0.015294   -0.043994
      5          6           0        1.881475   -0.016713    0.097312
      6          1           0        2.805654   -0.819704    0.166958
      7          1           0        2.817155    0.749683    0.264961
      8          6           0       -0.642209    0.903339   -0.087267
      9          1           0       -0.767671    1.939147   -0.470305
 ---------------------------------------------------------------------
 Rotational constants (GHZ):     17.3009000      4.5983856      3.7723969
 Leave Link  202 at Mon Jun 20 12:38:26 2016, MaxMem=    33554432 cpu:         0.0
 (Enter /home/proyectos/fulerenos/M3C-v1.9/M3C-deps_CCC/g09-AM64L-G09RevC.01/l301.exe)
 Standard basis: 6-311++G(3df,2p) (5D, 7F)
 Ernie: Thresh=  0.10000D-02 Tol=  0.10000D-05 Strict=F.
 There are   265 symmetry adapted cartesian basis functions of A   symmetry.
 There are   235 symmetry adapted basis functions of A   symmetry.
   235 basis functions,   338 primitive gaussians,   265 cartesian basis functions
    17 alpha electrons       14 beta electrons
       nuclear repulsion energy       133.7792755092 Hartrees.
 IExCor=  402 DFT=T Ex+Corr=B3LYP ExCW=0 ScaHFX=  0.200000
 ScaDFX=  0.800000  0.720000  1.000000  0.810000 ScalE2=  1.000000  1.000000
 IRadAn=      0 IRanWt=     -1 IRanGd=            0 ICorTp=0 IEmpDi=  4
 NAtoms=    9 NActive=    9 NUniq=    9 SFac= 1.00D+00 NAtFMM=   60 NAOKFM=F Big=F
 Integral buffers will be    131072 words long.
 Raffenetti 2 integral format.
 Two-electron integral symmetry is turned on.
 Leave Link  301 at Mon Jun 20 12:38:26 2016, MaxMem=    33554432 cpu:         0.2
 (Enter /home/proyectos/fulerenos/M3C-v1.9/M3C-deps_CCC/g09-AM64L-G09RevC.01/l302.exe)
 NPDir=0 NMtPBC=     1 NCelOv=     1 NCel=       1 NClECP=     1 NCelD=      1
         NCelK=      1 NCelE2=     1 NClLst=     1 CellRange=     0.0.
 One-electron integrals computed using PRISM.
 NBasis=   235 RedAO= T EigKep=  7.92D-06  NBF=   235
 NBsUse=   235 1.00D-06 EigRej= -1.00D+00 NBFU=   235
 Precomputing XC quadrature grid using
 IXCGrd= 4 IRadAn=           0 IRanWt=          -1 IRanGd=           0 AccXCQ= 0.00D+00.
 Generated NRdTot=       0 NPtTot=           0 NUsed=           0 NTot=          32
 NSgBfM=   265   265   265   265   265 MxSgAt=     9 MxSgA2=     9.
 Leave Link  302 at Mon Jun 20 12:38:27 2016, MaxMem=    33554432 cpu:         1.3
 (Enter /home/proyectos/fulerenos/M3C-v1.9/M3C-deps_CCC/g09-AM64L-G09RevC.01/l303.exe)
 DipDrv:  MaxL=1.
 Leave Link  303 at Mon Jun 20 12:38:27 2016, MaxMem=    33554432 cpu:         0.1
 (Enter /home/proyectos/fulerenos/M3C-v1.9/M3C-deps_CCC/g09-AM64L-G09RevC.01/l401.exe)
 ExpMin= 3.60D-02 ExpMax= 4.56D+03 ExpMxC= 6.82D+02 IAcc=3 IRadAn=         5 AccDes= 0.00D+00
 Harris functional with IExCor=  402 and IRadAn=       5 diagonalized for initial guess.
 HarFok:  IExCor=  402 AccDes= 0.00D+00 IRadAn=         5 IDoV= 1 UseB2=F ITyADJ=14
 ICtDFT=  3500011 ScaDFX=  1.000000  1.000000  1.000000  1.000000
 FoFCou: FMM=F IPFlag=           0 FMFlag=      100000 FMFlg1=           0
         NFxFlg=           0 DoJE=T BraDBF=F KetDBF=T FulRan=T
         wScrn=  0.000000 ICntrl=     500 IOpCl=  0 I1Cent=   200000004 NGrid=           0
         NMat0=    1 NMatS0=      1 NMatT0=    0 NMatD0=    1 NMtDS0=    0 NMtDT0=    0
 Petite list used in FoFCou.
 Harris En= -191.782878857830    
 JPrj=0 DoOrth=F DoCkMO=F.
 Initial guess <Sx>= 0.0000 <Sy>= 0.0000 <Sz>= 1.5000 <S**2>= 3.7500 S= 1.5000
 Leave Link  401 at Mon Jun 20 12:38:30 2016, MaxMem=    33554432 cpu:        11.5
 (Enter /home/proyectos/fulerenos/M3C-v1.9/M3C-deps_CCC/g09-AM64L-G09RevC.01/l502.exe)
 UHF open shell SCF:
 Using DIIS extrapolation, IDIIS=  1040.
 Integral symmetry usage will be decided dynamically.
 IVT=      232727 IEndB=      232727 NGot=    33554432 MDV=    33408836
 LenX=    33408836 LenY=    33338170
 Requested convergence on RMS density matrix=1.00D-08 within 128 cycles.
 Requested convergence on MAX density matrix=1.00D-06.
 Requested convergence on             energy=1.00D-06.
 No special actions if energy rises.
 Fock matrices will be formed incrementally for  20 cycles.

 Cycle   1  Pass 1  IDiag  1:
 FoFJK:  IHMeth= 1 ICntrl=       0 DoSepK=F KAlg= 0 I1Cent=   0 FoldK=F
 IRaf= 980000000 NMat=   1 IRICut=       1 DoRegI=T DoRafI=F ISym2E= 0.
 FoFCou: FMM=F IPFlag=           0 FMFlag=      100000 FMFlg1=           0
         NFxFlg=           0 DoJE=F BraDBF=F KetDBF=F FulRan=T
         wScrn=  0.000000 ICntrl=       0 IOpCl=  1 I1Cent=           0 NGrid=           0
         NMat0=    1 NMatS0=      1 NMatT0=    0 NMatD0=    1 NMtDS0=    0 NMtDT0=    0
 Symmetry not used in FoFCou.
 E= -190.956536541011    
 DIIS: error= 1.33D-02 at cycle   1 NSaved=   1.
 NSaved= 1 IEnMin= 1 EnMin= -190.956536541011     IErMin= 1 ErrMin= 1.33D-02
 ErrMax= 1.33D-02  0.00D+00 EMaxC= 1.00D-01 BMatC= 1.92D-01 BMatP= 1.92D-01
 IDIUse=3 WtCom= 8.67D-01 WtEn= 1.33D-01
 Coeff-Com:  0.100D+01
 Coeff-En:   0.100D+01
 Coeff:      0.100D+01
 Gap=     0.211 Goal=   None    Shift=    0.000
 Gap=     0.083 Goal=   None    Shift=    0.000
 GapD=    0.083 DampG=0.500 DampE=0.500 DampFc=0.2500 IDamp=-1.
 Damping current iteration by 2.50D-01
 RMSDP=4.53D-03 MaxDP=3.44D-01              OVMax= 2.83D-01

 Cycle   2  Pass 1  IDiag  1:
 RMSU=  1.05D-03    CP:  1.03D+00
 E= -190.978258513920     Delta-E=       -0.021721972909 Rises=F Damp=T
 DIIS: error= 7.80D-03 at cycle   2 NSaved=   2.
 NSaved= 2 IEnMin= 2 EnMin= -190.978258513920     IErMin= 2 ErrMin= 7.80D-03
 ErrMax= 7.80D-03  0.00D+00 EMaxC= 1.00D-01 BMatC= 7.43D-02 BMatP= 1.92D-01
 IDIUse=3 WtCom= 9.22D-01 WtEn= 7.80D-02
 Coeff-Com: -0.782D+00 0.178D+01
 Coeff-En:   0.000D+00 0.100D+01
 Coeff:     -0.721D+00 0.172D+01
 Gap=     0.211 Goal=   None    Shift=    0.000
 Gap=     0.179 Goal=   None    Shift=    0.000
 RMSDP=3.44D-03 MaxDP=2.62D-01 DE=-2.17D-02 OVMax= 1.96D-01

 Cycle   3  Pass 1  IDiag  1:
 RMSU=  1.98D-03    CP:  1.16D+00  3.00D+00
 E= -191.019196597283     Delta-E=       -0.040938083362 Rises=F Damp=F
 DIIS: error= 6.60D-03 at cycle   3 NSaved=   3.
 NSaved= 3 IEnMin= 3 EnMin= -191.019196597283     IErMin= 3 ErrMin= 6.60D-03
 ErrMax= 6.60D-03  0.00D+00 EMaxC= 1.00D-01 BMatC= 4.12D-02 BMatP= 7.43D-02
 IDIUse=3 WtCom= 9.34D-01 WtEn= 6.60D-02
 Coeff-Com: -0.639D+00 0.106D+01 0.582D+00
 Coeff-En:   0.000D+00 0.000D+00 0.100D+01
 Coeff:     -0.597D+00 0.988D+00 0.610D+00
 Gap=     0.203 Goal=   None    Shift=    0.000
 Gap=     0.117 Goal=   None    Shift=    0.000
 RMSDP=8.43D-04 MaxDP=3.61D-02 DE=-4.09D-02 OVMax= 7.75D-02

 Cycle   4  Pass 1  IDiag  1:
 RMSU=  7.13D-04    CP:  1.16D+00  3.00D+00  7.73D-01
 E= -191.029930198702     Delta-E=       -0.010733601420 Rises=F Damp=F
 DIIS: error= 2.82D-03 at cycle   4 NSaved=   4.
 NSaved= 4 IEnMin= 4 EnMin= -191.029930198702     IErMin= 4 ErrMin= 2.82D-03
 ErrMax= 2.82D-03  0.00D+00 EMaxC= 1.00D-01 BMatC= 5.73D-03 BMatP= 4.12D-02
 IDIUse=3 WtCom= 9.72D-01 WtEn= 2.82D-02
 Coeff-Com: -0.122D+00 0.147D+00 0.300D+00 0.675D+00
 Coeff-En:   0.000D+00 0.000D+00 0.955D-01 0.904D+00
 Coeff:     -0.118D+00 0.142D+00 0.294D+00 0.682D+00
 Gap=     0.202 Goal=   None    Shift=    0.000
 Gap=     0.130 Goal=   None    Shift=    0.000
 RMSDP=2.77D-04 MaxDP=1.46D-02 DE=-1.07D-02 OVMax= 2.59D-02

 Cycle   5  Pass 1  IDiag  1:
 RMSU=  2.22D-04    CP:  1.15D+00  3.00D+00  8.15D-01  8.15D-01
 E= -191.031679282831     Delta-E=       -0.001749084128 Rises=F Damp=F
 DIIS: error= 6.48D-04 at cycle   5 NSaved=   5.
 NSaved= 5 IEnMin= 5 EnMin= -191.031679282831     IErMin= 5 ErrMin= 6.48D-04
 ErrMax= 6.48D-04  0.00D+00 EMaxC= 1.00D-01 BMatC= 3.62D-04 BMatP= 5.73D-03
 IDIUse=3 WtCom= 9.94D-01 WtEn= 6.48D-03
 Coeff-Com: -0.956D-02-0.263D-02 0.759D-01 0.273D+00 0.664D+00
 Coeff-En:   0.000D+00 0.000D+00 0.000D+00 0.000D+00 0.100D+01
 Coeff:     -0.950D-02-0.261D-02 0.754D-01 0.271D+00 0.666D+00
 Gap=     0.202 Goal=   None    Shift=    0.000
 Gap=     0.130 Goal=   None    Shift=    0.000
 RMSDP=8.40D-05 MaxDP=3.03D-03 DE=-1.75D-03 OVMax= 8.21D-03

 Cycle   6  Pass 1  IDiag  1:
 RMSU=  7.67D-05    CP:  1.15D+00  3.00D+00  8.14D-01  8.62D-01  1.02D+00
 E= -191.031818069897     Delta-E=       -0.000138787067 Rises=F Damp=F
 DIIS: error= 3.48D-04 at cycle   6 NSaved=   6.
 NSaved= 6 IEnMin= 6 EnMin= -191.031818069897     IErMin= 6 ErrMin= 3.48D-04
 ErrMax= 3.48D-04  0.00D+00 EMaxC= 1.00D-01 BMatC= 8.54D-05 BMatP= 3.62D-04
 IDIUse=3 WtCom= 9.97D-01 WtEn= 3.48D-03
 Coeff-Com:  0.368D-01-0.516D-01-0.552D-01-0.811D-01 0.302D+00 0.849D+00
 Coeff-En:   0.000D+00 0.000D+00 0.000D+00 0.000D+00 0.000D+00 0.100D+01
 Coeff:      0.366D-01-0.514D-01-0.550D-01-0.809D-01 0.301D+00 0.850D+00
 Gap=     0.202 Goal=   None    Shift=    0.000
 Gap=     0.132 Goal=   None    Shift=    0.000
 RMSDP=7.06D-05 MaxDP=4.36D-03 DE=-1.39D-04 OVMax= 6.45D-03

 Cycle   7  Pass 1  IDiag  1:
 RMSU=  4.25D-05    CP:  1.15D+00  3.00D+00  8.07D-01  8.78D-01  1.25D+00
                    CP:  1.04D+00
 E= -191.031866462600     Delta-E=       -0.000048392703 Rises=F Damp=F
 DIIS: error= 1.75D-04 at cycle   7 NSaved=   7.
 NSaved= 7 IEnMin= 7 EnMin= -191.031866462600     IErMin= 7 ErrMin= 1.75D-04
 ErrMax= 1.75D-04  0.00D+00 EMaxC= 1.00D-01 BMatC= 2.29D-05 BMatP= 8.54D-05
 IDIUse=3 WtCom= 9.98D-01 WtEn= 1.75D-03
 Coeff-Com:  0.238D-01-0.318D-01-0.324D-01-0.672D-01 0.624D-01 0.411D+00
 Coeff-Com:  0.634D+00
 Coeff-En:   0.000D+00 0.000D+00 0.000D+00 0.000D+00 0.000D+00 0.000D+00
 Coeff-En:   0.100D+01
 Coeff:      0.237D-01-0.317D-01-0.323D-01-0.671D-01 0.623D-01 0.411D+00
 Coeff:      0.635D+00
 Gap=     0.203 Goal=   None    Shift=    0.000
 Gap=     0.133 Goal=   None    Shift=    0.000
 RMSDP=2.48D-05 MaxDP=1.17D-03 DE=-4.84D-05 OVMax= 1.91D-03

 Cycle   8  Pass 1  IDiag  1:
 RMSU=  2.05D-05    CP:  1.15D+00  3.00D+00  8.07D-01  8.80D-01  1.30D+00
                    CP:  1.15D+00  9.55D-01
 E= -191.031874259540     Delta-E=       -0.000007796940 Rises=F Damp=F
 DIIS: error= 1.09D-04 at cycle   8 NSaved=   8.
 NSaved= 8 IEnMin= 8 EnMin= -191.031874259540     IErMin= 8 ErrMin= 1.09D-04
 ErrMax= 1.09D-04  0.00D+00 EMaxC= 1.00D-01 BMatC= 7.36D-06 BMatP= 2.29D-05
 IDIUse=3 WtCom= 9.99D-01 WtEn= 1.09D-03
 Coeff-Com:  0.574D-02-0.647D-02-0.212D-02-0.158D-01-0.520D-01-0.213D-01
 Coeff-Com:  0.396D+00 0.696D+00
 Coeff-En:   0.000D+00 0.000D+00 0.000D+00 0.000D+00 0.000D+00 0.000D+00
 Coeff-En:   0.000D+00 0.100D+01
 Coeff:      0.573D-02-0.647D-02-0.212D-02-0.158D-01-0.519D-01-0.213D-01
 Coeff:      0.395D+00 0.697D+00
 Gap=     0.203 Goal=   None    Shift=    0.000
 Gap=     0.133 Goal=   None    Shift=    0.000
 RMSDP=1.32D-05 MaxDP=1.00D-03 DE=-7.80D-06 OVMax= 1.39D-03

 Cycle   9  Pass 1  IDiag  1:
 RMSU=  6.97D-06    CP:  1.15D+00  3.00D+00  8.09D-01  8.81D-01  1.32D+00
                    CP:  1.20D+00  1.16D+00  8.15D-01
 E= -191.031876816272     Delta-E=       -0.000002556732 Rises=F Damp=F
 DIIS: error= 1.97D-05 at cycle   9 NSaved=   9.
 NSaved= 9 IEnMin= 9 EnMin= -191.031876816272     IErMin= 9 ErrMin= 1.97D-05
 ErrMax= 1.97D-05  0.00D+00 EMaxC= 1.00D-01 BMatC= 5.00D-07 BMatP= 7.36D-06
 IDIUse=1 WtCom= 1.00D+00 WtEn= 0.00D+00
 Coeff-Com:  0.126D-03 0.295D-03 0.270D-02 0.139D-02-0.238D-01-0.557D-01
 Coeff-Com:  0.800D-01 0.265D+00 0.730D+00
 Coeff:      0.126D-03 0.295D-03 0.270D-02 0.139D-02-0.238D-01-0.557D-01
 Coeff:      0.800D-01 0.265D+00 0.730D+00
 Gap=     0.203 Goal=   None    Shift=    0.000
 Gap=     0.133 Goal=   None    Shift=    0.000
 RMSDP=3.88D-06 MaxDP=1.36D-04 DE=-2.56D-06 OVMax= 3.35D-04

 Cycle  10  Pass 1  IDiag  1:
 RMSU=  3.00D-06    CP:  1.15D+00  3.00D+00  8.09D-01  8.80D-01  1.32D+00
                    CP:  1.21D+00  1.17D+00  9.07D-01  9.38D-01
 E= -191.031876957097     Delta-E=       -0.000000140825 Rises=F Damp=F
 DIIS: error= 2.38D-05 at cycle  10 NSaved=  10.
 NSaved=10 IEnMin=10 EnMin= -191.031876957097     IErMin= 9 ErrMin= 1.97D-05
 ErrMax= 2.38D-05  0.00D+00 EMaxC= 1.00D-01 BMatC= 2.60D-07 BMatP= 5.00D-07
 IDIUse=1 WtCom= 1.00D+00 WtEn= 0.00D+00
 Coeff-Com: -0.128D-02 0.167D-02 0.246D-02 0.514D-02-0.482D-03-0.296D-01
 Coeff-Com: -0.492D-01-0.124D-01 0.484D+00 0.599D+00
 Coeff:     -0.128D-02 0.167D-02 0.246D-02 0.514D-02-0.482D-03-0.296D-01
 Coeff:     -0.492D-01-0.124D-01 0.484D+00 0.599D+00
 Gap=     0.203 Goal=   None    Shift=    0.000
 Gap=     0.133 Goal=   None    Shift=    0.000
 RMSDP=1.65D-06 MaxDP=4.96D-05 DE=-1.41D-07 OVMax= 1.86D-04

 Cycle  11  Pass 1  IDiag  1:
 RMSU=  1.17D-06    CP:  1.15D+00  3.00D+00  8.09D-01  8.81D-01  1.32D+00
                    CP:  1.21D+00  1.19D+00  9.03D-01  1.04D+00  7.87D-01
 E= -191.031877038446     Delta-E=       -0.000000081350 Rises=F Damp=F
 DIIS: error= 2.02D-06 at cycle  11 NSaved=  11.
 NSaved=11 IEnMin=11 EnMin= -191.031877038446     IErMin=11 ErrMin= 2.02D-06
 ErrMax= 2.02D-06  0.00D+00 EMaxC= 1.00D-01 BMatC= 4.13D-09 BMatP= 2.60D-07
 IDIUse=1 WtCom= 1.00D+00 WtEn= 0.00D+00
 Coeff-Com:  0.178D-05-0.307D-04-0.210D-03-0.443D-03 0.180D-02 0.590D-02
 Coeff-Com: -0.719D-02-0.278D-01-0.587D-01-0.104D-01 0.110D+01
 Coeff:      0.178D-05-0.307D-04-0.210D-03-0.443D-03 0.180D-02 0.590D-02
 Coeff:     -0.719D-02-0.278D-01-0.587D-01-0.104D-01 0.110D+01
 Gap=     0.203 Goal=   None    Shift=    0.000
 Gap=     0.133 Goal=   None    Shift=    0.000
 RMSDP=4.93D-07 MaxDP=2.27D-05 DE=-8.13D-08 OVMax= 6.63D-05

 Cycle  12  Pass 1  IDiag  1:
 RMSU=  2.95D-07    CP:  1.15D+00  3.00D+00  8.09D-01  8.81D-01  1.32D+00
                    CP:  1.21D+00  1.18D+00  9.03D-01  1.06D+00  8.60D-01
                    CP:  1.15D+00
 E= -191.031877042153     Delta-E=       -0.000000003707 Rises=F Damp=F
 DIIS: error= 8.42D-07 at cycle  12 NSaved=  12.
 NSaved=12 IEnMin=12 EnMin= -191.031877042153     IErMin=12 ErrMin= 8.42D-07
 ErrMax= 8.42D-07  0.00D+00 EMaxC= 1.00D-01 BMatC= 4.59D-10 BMatP= 4.13D-09
 IDIUse=1 WtCom= 1.00D+00 WtEn= 0.00D+00
 Coeff-Com:  0.103D-03-0.138D-03-0.214D-03-0.477D-03 0.260D-03 0.300D-02
 Coeff-Com:  0.269D-02-0.118D-02-0.445D-01-0.603D-01 0.113D+00 0.988D+00
 Coeff:      0.103D-03-0.138D-03-0.214D-03-0.477D-03 0.260D-03 0.300D-02
 Coeff:      0.269D-02-0.118D-02-0.445D-01-0.603D-01 0.113D+00 0.988D+00
 Gap=     0.203 Goal=   None    Shift=    0.000
 Gap=     0.133 Goal=   None    Shift=    0.000
 RMSDP=2.03D-07 MaxDP=1.05D-05 DE=-3.71D-09 OVMax= 2.01D-05

 Cycle  13  Pass 1  IDiag  1:
 RMSU=  1.56D-07    CP:  1.15D+00  3.00D+00  8.09D-01  8.81D-01  1.32D+00
                    CP:  1.21D+00  1.18D+00  9.05D-01  1.06D+00  8.58D-01
                    CP:  1.23D+00  1.25D+00
 E= -191.031877042558     Delta-E=       -0.000000000405 Rises=F Damp=F
 DIIS: error= 3.87D-07 at cycle  13 NSaved=  13.
 NSaved=13 IEnMin=13 EnMin= -191.031877042558     IErMin=13 ErrMin= 3.87D-07
 ErrMax= 3.87D-07  0.00D+00 EMaxC= 1.00D-01 BMatC= 7.59D-11 BMatP= 4.59D-10
 IDIUse=1 WtCom= 1.00D+00 WtEn= 0.00D+00
 Coeff-Com:  0.187D-04-0.224D-04-0.238D-04-0.377D-04-0.123D-03-0.205D-03
 Coeff-Com:  0.130D-02 0.360D-02 0.234D-03-0.149D-01-0.116D+00 0.203D+00
 Coeff-Com:  0.923D+00
 Coeff:      0.187D-04-0.224D-04-0.238D-04-0.377D-04-0.123D-03-0.205D-03
 Coeff:      0.130D-02 0.360D-02 0.234D-03-0.149D-01-0.116D+00 0.203D+00
 Coeff:      0.923D+00
 Gap=     0.203 Goal=   None    Shift=    0.000
 Gap=     0.133 Goal=   None    Shift=    0.000
 RMSDP=5.93D-08 MaxDP=2.14D-06 DE=-4.05D-10 OVMax= 7.27D-06

 Cycle  14  Pass 1  IDiag  1:
 RMSU=  3.39D-08    CP:  1.15D+00  3.00D+00  8.09D-01  8.81D-01  1.32D+00
                    CP:  1.21D+00  1.18D+00  9.05D-01  1.06D+00  8.57D-01
                    CP:  1.23D+00  1.39D+00  1.05D+00
 E= -191.031877042615     Delta-E=       -0.000000000057 Rises=F Damp=F
 DIIS: error= 1.18D-07 at cycle  14 NSaved=  14.
 NSaved=14 IEnMin=14 EnMin= -191.031877042615     IErMin=14 ErrMin= 1.18D-07
 ErrMax= 1.18D-07  0.00D+00 EMaxC= 1.00D-01 BMatC= 7.34D-12 BMatP= 7.59D-11
 IDIUse=1 WtCom= 1.00D+00 WtEn= 0.00D+00
 Coeff-Com: -0.949D-05 0.128D-04 0.170D-04 0.403D-04-0.645D-05-0.305D-03
 Coeff-Com: -0.128D-03 0.206D-03 0.453D-02 0.331D-02-0.156D-01-0.899D-01
 Coeff-Com:  0.456D-01 0.105D+01
 Coeff:     -0.949D-05 0.128D-04 0.170D-04 0.403D-04-0.645D-05-0.305D-03
 Coeff:     -0.128D-03 0.206D-03 0.453D-02 0.331D-02-0.156D-01-0.899D-01
 Coeff:      0.456D-01 0.105D+01
 Gap=     0.203 Goal=   None    Shift=    0.000
 Gap=     0.133 Goal=   None    Shift=    0.000
 RMSDP=2.76D-08 MaxDP=1.35D-06 DE=-5.68D-11 OVMax= 3.01D-06

 Cycle  15  Pass 1  IDiag  1:
 RMSU=  1.34D-08    CP:  1.15D+00  3.00D+00  8.09D-01  8.81D-01  1.32D+00
                    CP:  1.21D+00  1.18D+00  9.05D-01  1.06D+00  8.55D-01
                    CP:  1.24D+00  1.43D+00  1.14D+00  1.29D+00
 E= -191.031877042621     Delta-E=       -0.000000000006 Rises=F Damp=F
 DIIS: error= 5.63D-08 at cycle  15 NSaved=  15.
 NSaved=15 IEnMin=15 EnMin= -191.031877042621     IErMin=15 ErrMin= 5.63D-08
 ErrMax= 5.63D-08  0.00D+00 EMaxC= 1.00D-01 BMatC= 1.03D-12 BMatP= 7.34D-12
 IDIUse=1 WtCom= 1.00D+00 WtEn= 0.00D+00
 Coeff-Com: -0.442D-05 0.564D-05 0.724D-05 0.119D-04 0.173D-04-0.467D-04
 Coeff-Com: -0.180D-03-0.449D-03 0.914D-03 0.251D-02 0.116D-01-0.430D-01
 Coeff-Com: -0.106D+00 0.221D+00 0.914D+00
 Coeff:     -0.442D-05 0.564D-05 0.724D-05 0.119D-04 0.173D-04-0.467D-04
 Coeff:     -0.180D-03-0.449D-03 0.914D-03 0.251D-02 0.116D-01-0.430D-01
 Coeff:     -0.106D+00 0.221D+00 0.914D+00
 Gap=     0.203 Goal=   None    Shift=    0.000
 Gap=     0.133 Goal=   None    Shift=    0.000
 RMSDP=8.74D-09 MaxDP=5.48D-07 DE=-6.48D-12 OVMax= 9.05D-07

 SCF Done:  E(UB3LYP) =  -191.031877043     A.U. after   15 cycles
            NFock= 15  Conv=0.87D-08     -V/T= 2.0042
 <Sx>= 0.0000 <Sy>= 0.0000 <Sz>= 1.5000 <S**2>= 3.7678 S= 1.5044
 <L.S>= 0.000000000000E+00
 KE= 1.902258254515D+02 PE=-6.876463401618D+02 EE= 1.726093621585D+02
 Annihilation of the first spin contaminant:
 S**2 before annihilation     3.7678,   after     3.7501
 Leave Link  502 at Mon Jun 20 12:41:20 2016, MaxMem=    33554432 cpu:       679.5
 (Enter /home/proyectos/fulerenos/M3C-v1.9/M3C-deps_CCC/g09-AM64L-G09RevC.01/l801.exe)
 DoSCS=F DFT=T ScalE2(SS,OS)=  1.000000  1.000000
 Range of M.O.s used for correlation:     1   235
 NBasis=   235 NAE=    17 NBE=    14 NFC=     0 NFV=     0
 NROrb=    235 NOA=    17 NOB=    14 NVA=   218 NVB=   221

 **** Warning!!: The largest alpha MO coefficient is  0.77566159D+02


 **** Warning!!: The largest beta MO coefficient is  0.90915956D+02

 Leave Link  801 at Mon Jun 20 12:41:20 2016, MaxMem=    33554432 cpu:         0.1
 (Enter /home/proyectos/fulerenos/M3C-v1.9/M3C-deps_CCC/g09-AM64L-G09RevC.01/l1101.exe)
 Using compressed storage, NAtomX=     9.
 Will process     10 centers per pass.
 Leave Link 1101 at Mon Jun 20 12:41:20 2016, MaxMem=    33554432 cpu:         1.2
 (Enter /home/proyectos/fulerenos/M3C-v1.9/M3C-deps_CCC/g09-AM64L-G09RevC.01/l1102.exe)
 Symmetrizing basis deriv contribution to polar:
 IMax=3 JMax=2 DiffMx= 0.00D+00
 Leave Link 1102 at Mon Jun 20 12:41:20 2016, MaxMem=    33554432 cpu:         0.1
 (Enter /home/proyectos/fulerenos/M3C-v1.9/M3C-deps_CCC/g09-AM64L-G09RevC.01/l1110.exe)
 Forming Gx(P) for the SCF density, NAtomX=     9.
 Integral derivatives from FoFJK, PRISM(SPDF).
 Do as many integral derivatives as possible in FoFJK.
 G2DrvN: MDV=      33554256.
 G2DrvN: will do    10 centers at a time, making    1 passes.
 Calling FoFCou, ICntrl=  3107 FMM=F I1Cent=   0 AccDes= 0.00D+00.
 FoFJK:  IHMeth= 1 ICntrl=    3107 DoSepK=F KAlg= 0 I1Cent=   0 FoldK=F
 IRaf=         0 NMat=   1 IRICut=       1 DoRegI=T DoRafI=F ISym2E= 0.
 FoFCou: FMM=F IPFlag=           0 FMFlag=      100000 FMFlg1=           0
         NFxFlg=           0 DoJE=F BraDBF=F KetDBF=F FulRan=T
         wScrn=  0.000000 ICntrl=    3107 IOpCl=  1 I1Cent=           0 NGrid=           0
         NMat0=    1 NMatS0=      1 NMatT0=    0 NMatD0=    1 NMtDS0=    0 NMtDT0=    0
 Symmetry not used in FoFCou.
 End of G2Drv F.D. properties file   721 does not exist.
 End of G2Drv F.D. properties file   722 does not exist.
 End of G2Drv F.D. properties file   788 does not exist.
 Leave Link 1110 at Mon Jun 20 12:43:30 2016, MaxMem=    33554432 cpu:       518.2
 (Enter /home/proyectos/fulerenos/M3C-v1.9/M3C-deps_CCC/g09-AM64L-G09RevC.01/l1002.exe)
 Minotr:  UHF open shell wavefunction.
          IDoAtm=111111111
          Direct CPHF calculation.
          Differentiating once with respect to electric field.
                with respect to dipole field.
          Differentiating once with respect to nuclear coordinates.
          Requested convergence is 1.0D-08 RMS, and 1.0D-07 maximum.
          Secondary convergence is 1.0D-12 RMS, and 1.0D-12 maximum.
          NewPWx=T KeepS1=F KeepF1=F KeepIn=T MapXYZ=F SortEE=F KeepMc=T.
          MDV=      33553868 using IRadAn=       2.
 Generate precomputed XC quadrature information.
          Solving linear equations simultaneously, MaxMat=       0.
 FoFJK:  IHMeth= 1 ICntrl=       0 DoSepK=F KAlg= 0 I1Cent=   0 FoldK=F
 IRaf= 980000000 NMat=  30 IRICut=      75 DoRegI=T DoRafI=T ISym2E= 2.
 FoFCou: FMM=F IPFlag=           0 FMFlag=      100000 FMFlg1=           0
         NFxFlg=           0 DoJE=F BraDBF=F KetDBF=F FulRan=T
         wScrn=  0.000000 ICntrl=       0 IOpCl=  1 I1Cent=           0 NGrid=           0
         NMat0=   30 NMatS0=     30 NMatT0=    0 NMatD0=   30 NMtDS0=    0 NMtDT0=    0
 Integrals replicated using symmetry in FoFCou.
          There are    30 degrees of freedom in the 1st order CPHF.  IDoFFX=6 NUNeed=     3.
     27 vectors produced by pass  0 Test12= 2.27D-14 3.33D-09 XBig12= 2.30D+02 7.77D+00.
 AX will form    27 AO Fock derivatives at one time.
     27 vectors produced by pass  1 Test12= 2.27D-14 3.33D-09 XBig12= 3.60D+01 1.30D+00.
     27 vectors produced by pass  2 Test12= 2.27D-14 3.33D-09 XBig12= 1.26D+00 2.65D-01.
     27 vectors produced by pass  3 Test12= 2.27D-14 3.33D-09 XBig12= 1.60D-02 3.46D-02.
     27 vectors produced by pass  4 Test12= 2.27D-14 3.33D-09 XBig12= 1.75D-04 1.72D-03.
     27 vectors produced by pass  5 Test12= 2.27D-14 3.33D-09 XBig12= 1.18D-06 1.65D-04.
     26 vectors produced by pass  6 Test12= 2.27D-14 3.33D-09 XBig12= 5.46D-09 8.98D-06.
      9 vectors produced by pass  7 Test12= 2.27D-14 3.33D-09 XBig12= 1.34D-11 3.55D-07.
      3 vectors produced by pass  8 Test12= 2.27D-14 3.33D-09 XBig12= 1.07D-13 4.32D-08.
      2 vectors produced by pass  9 Test12= 2.27D-14 3.33D-09 XBig12= 6.29D-15 1.20D-08.
 InvSVY:  IOpt=1 It=  1 EMax= 3.55D-15
 Solved reduced A of dimension   202 with    30 vectors.
 FullF1:  Do perturbations    1 to     3.
 Isotropic polarizability for W=    0.000000       44.55 Bohr**3.
 End of Minotr F.D. properties file   721 does not exist.
 End of Minotr F.D. properties file   722 does not exist.
 End of Minotr F.D. properties file   788 does not exist.
 Leave Link 1002 at Mon Jun 20 12:51:36 2016, MaxMem=    33554432 cpu:      1942.4
 (Enter /home/proyectos/fulerenos/M3C-v1.9/M3C-deps_CCC/g09-AM64L-G09RevC.01/l601.exe)
 Copying SCF densities to generalized density rwf, IOpCl= 1 IROHF=0.

 **********************************************************************

            Population analysis using the SCF density.

 **********************************************************************

 Orbital symmetries:
 Alpha Orbitals:
       Occupied  (A) (A) (A) (A) (A) (A) (A) (A) (A) (A) (A) (A)
                 (A) (A) (A) (A) (A)
       Virtual   (A) (A) (A) (A) (A) (A) (A) (A) (A) (A) (A) (A)
                 (A) (A) (A) (A) (A) (A) (A) (A) (A) (A) (A) (A)
                 (A) (A) (A) (A) (A) (A) (A) (A) (A) (A) (A) (A)
                 (A) (A) (A) (A) (A) (A) (A) (A) (A) (A) (A) (A)
                 (A) (A) (A) (A) (A) (A) (A) (A) (A) (A) (A) (A)
                 (A) (A) (A) (A) (A) (A) (A) (A) (A) (A) (A) (A)
                 (A) (A) (A) (A) (A) (A) (A) (A) (A) (A) (A) (A)
                 (A) (A) (A) (A) (A) (A) (A) (A) (A) (A) (A) (A)
                 (A) (A) (A) (A) (A) (A) (A) (A) (A) (A) (A) (A)
                 (A) (A) (A) (A) (A) (A) (A) (A) (A) (A) (A) (A)
                 (A) (A) (A) (A) (A) (A) (A) (A) (A) (A) (A) (A)
                 (A) (A) (A) (A) (A) (A) (A) (A) (A) (A) (A) (A)
                 (A) (A) (A) (A) (A) (A) (A) (A) (A) (A) (A) (A)
                 (A) (A) (A) (A) (A) (A) (A) (A) (A) (A) (A) (A)
                 (A) (A) (A) (A) (A) (A) (A) (A) (A) (A) (A) (A)
                 (A) (A) (A) (A) (A) (A) (A) (A) (A) (A) (A) (A)
                 (A) (A) (A) (A) (A) (A) (A) (A) (A) (A) (A) (A)
                 (A) (A) (A) (A) (A) (A) (A) (A) (A) (A) (A) (A)
                 (A) (A)
 Beta  Orbitals:
       Occupied  (A) (A) (A) (A) (A) (A) (A) (A) (A) (A) (A) (A)
                 (A) (A)
       Virtual   (A) (A) (A) (A) (A) (A) (A) (A) (A) (A) (A) (A)
                 (A) (A) (A) (A) (A) (A) (A) (A) (A) (A) (A) (A)
                 (A) (A) (A) (A) (A) (A) (A) (A) (A) (A) (A) (A)
                 (A) (A) (A) (A) (A) (A) (A) (A) (A) (A) (A) (A)
                 (A) (A) (A) (A) (A) (A) (A) (A) (A) (A) (A) (A)
                 (A) (A) (A) (A) (A) (A) (A) (A) (A) (A) (A) (A)
                 (A) (A) (A) (A) (A) (A) (A) (A) (A) (A) (A) (A)
                 (A) (A) (A) (A) (A) (A) (A) (A) (A) (A) (A) (A)
                 (A) (A) (A) (A) (A) (A) (A) (A) (A) (A) (A) (A)
                 (A) (A) (A) (A) (A) (A) (A) (A) (A) (A) (A) (A)
                 (A) (A) (A) (A) (A) (A) (A) (A) (A) (A) (A) (A)
                 (A) (A) (A) (A) (A) (A) (A) (A) (A) (A) (A) (A)
                 (A) (A) (A) (A) (A) (A) (A) (A) (A) (A) (A) (A)
                 (A) (A) (A) (A) (A) (A) (A) (A) (A) (A) (A) (A)
                 (A) (A) (A) (A) (A) (A) (A) (A) (A) (A) (A) (A)
                 (A) (A) (A) (A) (A) (A) (A) (A) (A) (A) (A) (A)
                 (A) (A) (A) (A) (A) (A) (A) (A) (A) (A) (A) (A)
                 (A) (A) (A) (A) (A) (A) (A) (A) (A) (A) (A) (A)
                 (A) (A) (A) (A) (A)
 The electronic state is 4-A.
 Alpha  occ. eigenvalues --  -11.02271 -11.01275 -10.99492 -10.98315 -10.97261
 Alpha  occ. eigenvalues --   -1.67340  -1.51549  -1.36000  -1.34826  -1.26929
 Alpha  occ. eigenvalues --   -1.18192  -1.16488  -1.13671  -1.10952  -1.09070
 Alpha  occ. eigenvalues --   -1.00588  -0.98584
 Alpha virt. eigenvalues --   -0.78325  -0.78270  -0.66085  -0.62701  -0.59302
 Alpha virt. eigenvalues --   -0.50673  -0.48913  -0.48499  -0.46492  -0.44343
 Alpha virt. eigenvalues --   -0.41355  -0.40846  -0.40575  -0.39645  -0.37697
 Alpha virt. eigenvalues --   -0.37322  -0.37001  -0.35626  -0.34500  -0.32374
 Alpha virt. eigenvalues --   -0.30366  -0.29800  -0.28458  -0.27098  -0.26489
 Alpha virt. eigenvalues --   -0.25913  -0.24753  -0.23937  -0.23479  -0.22053
 Alpha virt. eigenvalues --   -0.21770  -0.20776  -0.19858  -0.18336  -0.17434
 Alpha virt. eigenvalues --   -0.16610  -0.15480  -0.15160  -0.13681  -0.13213
 Alpha virt. eigenvalues --   -0.12232  -0.11576  -0.10424  -0.08260  -0.07964
 Alpha virt. eigenvalues --   -0.06353  -0.04907  -0.03806  -0.03512  -0.02870
 Alpha virt. eigenvalues --   -0.02319  -0.01955  -0.00863   0.00355   0.02123
 Alpha virt. eigenvalues --    0.02586   0.03592   0.04779   0.05691   0.07033
 Alpha virt. eigenvalues --    0.09262   0.09817   0.11768   0.13067   0.14497
 Alpha virt. eigenvalues --    0.15360   0.15988   0.17011   0.20344   0.23693
 Alpha virt. eigenvalues --    0.24751   0.28408   0.28727   0.34250   0.35225
 Alpha virt. eigenvalues --    0.37067   0.38923   0.43425   0.43992   0.45400
 Alpha virt. eigenvalues --    0.47318   0.51253   0.51740   0.52903   0.57131
 Alpha virt. eigenvalues --    0.57739   0.60284   0.61934   0.62790   0.65188
 Alpha virt. eigenvalues --    0.67211   0.70714   0.71775   0.73040   0.75222
 Alpha virt. eigenvalues --    0.76805   0.79560   0.80448   0.82148   0.85295
 Alpha virt. eigenvalues --    0.86586   0.89316   0.97276   0.99975   1.01560
 Alpha virt. eigenvalues --    1.03826   1.09966   1.12333   1.15684   1.25077
 Alpha virt. eigenvalues --    1.26445   1.28433   1.33550   1.37112   1.39031
 Alpha virt. eigenvalues --    1.42330   1.48291   1.53890   1.59647   1.79114
 Alpha virt. eigenvalues --    1.81206   1.84629   1.88691   1.92004   1.96577
 Alpha virt. eigenvalues --    1.96887   1.99997   2.03233   2.05136   2.05587
 Alpha virt. eigenvalues --    2.07607   2.12634   2.14916   2.18317   2.20571
 Alpha virt. eigenvalues --    2.21292   2.23704   2.24790   2.27347   2.29918
 Alpha virt. eigenvalues --    2.30169   2.33212   2.38197   2.39709   2.45203
 Alpha virt. eigenvalues --    2.47997   2.49226   2.52518   2.57299   2.61747
 Alpha virt. eigenvalues --    2.63550   2.66307   2.73982   2.80369   2.81913
 Alpha virt. eigenvalues --    2.85088   2.90027   2.93607   2.99461   3.03932
 Alpha virt. eigenvalues --    3.07800   3.11530   3.14519   3.17724   3.25692
 Alpha virt. eigenvalues --    3.28633   3.33083   3.37660   3.41145   3.51616
 Alpha virt. eigenvalues --    3.57013   3.68352   3.73194   3.75786   3.82470
 Alpha virt. eigenvalues --    3.86071   3.86755   3.90099   3.94976   4.07884
 Alpha virt. eigenvalues --    4.13474   4.17210   4.32905   4.77000   4.86990
 Alpha virt. eigenvalues --    5.16618   5.39956   5.51156   6.16989   6.25634
 Alpha virt. eigenvalues --    6.27977   6.28873   6.35841   6.36311   6.38383
 Alpha virt. eigenvalues --    6.47326   6.50302   6.54507   6.61744   6.68877
 Alpha virt. eigenvalues --    6.72320   6.73861   6.79001   6.91559   6.97232
 Alpha virt. eigenvalues --    7.02635   7.10372   7.20863   7.31496   7.40291
 Alpha virt. eigenvalues --    7.48030   7.63364   8.25212  23.23052  23.71380
 Alpha virt. eigenvalues --   24.07521  24.26147  24.62808
  Beta  occ. eigenvalues --  -11.00244 -10.99463 -10.99273 -10.97895 -10.96884
  Beta  occ. eigenvalues --   -1.65502  -1.46672  -1.32413  -1.32010  -1.23908
  Beta  occ. eigenvalues --   -1.14642  -1.13091  -1.12627  -1.07841
  Beta virt. eigenvalues --   -0.94554  -0.88196  -0.81706  -0.74550  -0.73314
  Beta virt. eigenvalues --   -0.62158  -0.58165  -0.55067  -0.49800  -0.47900
  Beta virt. eigenvalues --   -0.46527  -0.45559  -0.43488  -0.40441  -0.39881
  Beta virt. eigenvalues --   -0.39510  -0.37698  -0.36603  -0.35921  -0.35579
  Beta virt. eigenvalues --   -0.34195  -0.33466  -0.31394  -0.29492  -0.28980
  Beta virt. eigenvalues --   -0.27686  -0.26609  -0.25695  -0.24911  -0.24363
  Beta virt. eigenvalues --   -0.23382  -0.22996  -0.21628  -0.21346  -0.20559
  Beta virt. eigenvalues --   -0.19166  -0.17767  -0.17027  -0.15980  -0.14950
  Beta virt. eigenvalues --   -0.14361  -0.12943  -0.11922  -0.11405  -0.10259
  Beta virt. eigenvalues --   -0.09229  -0.07392  -0.07017  -0.05820  -0.04152
  Beta virt. eigenvalues --   -0.02889  -0.02224  -0.01981  -0.01485  -0.00770
  Beta virt. eigenvalues --    0.00465   0.02059   0.03043   0.03323   0.04965
  Beta virt. eigenvalues --    0.05626   0.06637   0.07766   0.09950   0.10862
  Beta virt. eigenvalues --    0.12762   0.13792   0.15239   0.15998   0.16587
  Beta virt. eigenvalues --    0.17912   0.21264   0.24869   0.25993   0.29684
  Beta virt. eigenvalues --    0.29951   0.35014   0.35917   0.37923   0.40264
  Beta virt. eigenvalues --    0.45176   0.45484   0.47161   0.48622   0.52197
  Beta virt. eigenvalues --    0.52575   0.54416   0.58429   0.58975   0.62154
  Beta virt. eigenvalues --    0.62733   0.63755   0.65709   0.68237   0.72842
  Beta virt. eigenvalues --    0.73284   0.75334   0.76961   0.78434   0.81207
  Beta virt. eigenvalues --    0.82381   0.84588   0.87497   0.91761   0.92600
  Beta virt. eigenvalues --    0.99266   1.02427   1.04150   1.06849   1.12101
  Beta virt. eigenvalues --    1.15165   1.17924   1.27732   1.28480   1.31625
  Beta virt. eigenvalues --    1.35349   1.39365   1.42146   1.45759   1.51318
  Beta virt. eigenvalues --    1.56429   1.61513   1.80712   1.84499   1.87102
  Beta virt. eigenvalues --    1.91364   1.94319   1.98379   1.99114   2.02996
  Beta virt. eigenvalues --    2.06593   2.08847   2.09994   2.11867   2.15629
  Beta virt. eigenvalues --    2.18106   2.21053   2.23090   2.25232   2.27037
  Beta virt. eigenvalues --    2.27989   2.29946   2.32670   2.33212   2.35505
  Beta virt. eigenvalues --    2.41140   2.42122   2.47743   2.51129   2.52650
  Beta virt. eigenvalues --    2.55386   2.59320   2.64323   2.66188   2.68599
  Beta virt. eigenvalues --    2.77324   2.82922   2.84006   2.87447   2.92375
  Beta virt. eigenvalues --    2.96345   3.01385   3.06227   3.09636   3.13635
  Beta virt. eigenvalues --    3.17140   3.20423   3.27810   3.31551   3.36241
  Beta virt. eigenvalues --    3.41927   3.44900   3.54106   3.59261   3.70326
  Beta virt. eigenvalues --    3.75183   3.77580   3.84624   3.87789   3.90436
  Beta virt. eigenvalues --    3.91967   3.96649   4.10196   4.14292   4.19697
  Beta virt. eigenvalues --    4.35741   4.80587   4.88718   5.18445   5.42077
  Beta virt. eigenvalues --    5.52270   6.26013   6.30750   6.31844   6.34507
  Beta virt. eigenvalues --    6.38224   6.39871   6.40668   6.51678   6.52823
  Beta virt. eigenvalues --    6.57001   6.64349   6.71089   6.74691   6.76736
  Beta virt. eigenvalues --    6.81469   6.93311   7.00178   7.05429   7.12840
  Beta virt. eigenvalues --    7.23620   7.33854   7.42901   7.49894   7.64569
  Beta virt. eigenvalues --    8.26648  23.24340  23.72880  24.08217  24.27693
  Beta virt. eigenvalues --   24.63586
          Condensed to atoms (all electrons):
               1          2          3          4          5          6
     1  C    6.079875  -0.482639   0.378791  -0.008638   0.120256   0.000388
     2  C   -0.482639   7.576025  -0.036794  -0.294099  -0.290854  -0.019748
     3  H    0.378791  -0.036794   0.289851  -0.001779  -0.003438   0.000089
     4  C   -0.008638  -0.294099  -0.001779   6.426168  -0.905673  -0.057109
     5  C    0.120256  -0.290854  -0.003438  -0.905673   7.160928   0.317258
     6  H    0.000388  -0.019748   0.000089  -0.057109   0.317258   0.303182
     7  H   -0.001133   0.025139   0.000042  -0.058784   0.314757   0.007122
     8  C   -0.189525  -0.892661  -0.033317   0.040087  -0.497535   0.022719
     9  H   -0.065471   0.015068  -0.002512  -0.001590  -0.006806  -0.000771
               7          8          9
     1  C   -0.001133  -0.189525  -0.065471
     2  C    0.025139  -0.892661   0.015068
     3  H    0.000042  -0.033317  -0.002512
     4  C   -0.058784   0.040087  -0.001590
     5  C    0.314757  -0.497535  -0.006806
     6  H    0.007122   0.022719  -0.000771
     7  H    0.300380  -0.017585   0.000850
     8  C   -0.017585   7.074682   0.351013
     9  H    0.000850   0.351013   0.338675
          Atomic-Atomic Spin Densities.
               1          2          3          4          5          6
     1  C    0.336842  -0.195942   0.007207   0.069972  -0.018911   0.000769
     2  C   -0.195942   1.314697  -0.003380  -0.280814   0.040448   0.006337
     3  H    0.007207  -0.003380   0.001281   0.003679   0.003055   0.000081
     4  C    0.069972  -0.280814   0.003679   0.430277  -0.080493  -0.010699
     5  C   -0.018911   0.040448   0.003055  -0.080493   1.116232   0.088385
     6  H    0.000769   0.006337   0.000081  -0.010699   0.088385   0.138590
     7  H   -0.000191  -0.004520  -0.000025  -0.005279   0.075799  -0.024370
     8  C    0.003073   0.082942  -0.005811  -0.090187  -0.005157  -0.007775
     9  H   -0.003163  -0.006894  -0.000910   0.006196  -0.024365  -0.000517
               7          8          9
     1  C   -0.000191   0.003073  -0.003163
     2  C   -0.004520   0.082942  -0.006894
     3  H   -0.000025  -0.005811  -0.000910
     4  C   -0.005279  -0.090187   0.006196
     5  C    0.075799  -0.005157  -0.024365
     6  H   -0.024370  -0.007775  -0.000517
     7  H    0.133251   0.008630   0.000430
     8  C    0.008630   0.210453   0.008193
     9  H    0.000430   0.008193   0.046793
 Mulliken charges and spin densities:
               1          2
     1  C    0.168096   0.199657
     2  C    0.400563   0.952874
     3  H    0.409067   0.005175
     4  C    0.861418   0.042651
     5  C   -0.208892   1.194992
     6  H    0.426869   0.190801
     7  H    0.429212   0.183724
     8  C    0.142123   0.204362
     9  H    0.371544   0.025764
 Sum of Mulliken charges =   3.00000   3.00000
 Mulliken charges and spin densities with hydrogens summed into heavy atoms:
               1          2
     1  C    0.577163   0.204833
     2  C    0.400563   0.952874
     4  C    0.861418   0.042651
     5  C    0.647189   1.569517
     8  C    0.513667   0.230125
 APT charges:
               1
     1  C    0.392098
     2  C    0.335881
     3  H    0.391372
     4  C    0.078725
     5  C    0.061848
     6  H    0.596176
     7  H    0.594982
     8  C    0.206520
     9  H    0.342399
 Sum of APT charges =   3.00000
 APT charges with hydrogens summed into heavy atoms:
               1
     1  C    0.783469
     2  C    0.335881
     4  C    0.078725
     5  C    1.253006
     8  C    0.548918
 Electronic spatial extent (au):  <R**2>=            295.1445
 Charge=              3.0000 electrons
 Dipole moment (field-independent basis, Debye):
    X=              5.1562    Y=              0.8660    Z=              0.8384  Tot=              5.2952
 Quadrupole moment (field-independent basis, Debye-Ang):
   XX=             32.3430   YY=            -10.4355   ZZ=            -21.6179
   XY=             -0.7684   XZ=              0.6796   YZ=             -0.9221
 Traceless Quadrupole moment (field-independent basis, Debye-Ang):
   XX=             32.2465   YY=            -10.5321   ZZ=            -21.7144
   XY=             -0.7684   XZ=              0.6796   YZ=             -0.9221
 Octapole moment (field-independent basis, Debye-Ang**2):
  XXX=             70.0825  YYY=             10.6381  ZZZ=              0.8440  XYY=              2.2833
  XXY=             -3.0782  XXZ=             15.4885  XZZ=             -1.7645  YZZ=              0.7411
  YYZ=             -2.6395  XYZ=              2.1417
 Hexadecapole moment (field-independent basis, Debye-Ang**3):
 XXXX=            134.6210 YYYY=            -44.5516 ZZZZ=            -25.5499 XXXY=              4.4915
 XXXZ=              1.9853 YYYX=            -10.5469 YYYZ=             -6.4639 ZZZX=             -1.1953
 ZZZY=             -1.0401 XXYY=            -24.4368 XXZZ=            -39.4028 YYZZ=            -15.2200
 XXYZ=             -1.8162 YYXZ=              4.7088 ZZXY=              0.1857
 N-N= 1.337792755092D+02 E-N=-6.876463409850D+02  KE= 1.902258254515D+02
  Exact polarizability:  71.381  -0.141  38.954   0.083   0.149  23.319
 Approx polarizability: 121.671  -0.103  72.652  -0.782   2.741  35.480
                          Isotropic Fermi Contact Couplings
        Atom                 a.u.       MegaHertz       Gauss      10(-4) cm-1
     1  C(13)              0.02560       9.59434       3.42350       3.20033
     2  C(13)              0.72057     270.02122      96.35028      90.06938
     3  H(1)               0.00120       1.79355       0.63998       0.59826
     4  C(13)             -0.03723     -13.95001      -4.97771      -4.65322
     5  C(13)              0.00661       2.47511       0.88318       0.82561
     6  H(1)               0.09635     143.55693      51.22468      47.88544
     7  H(1)               0.09374     139.67144      49.83824      46.58938
     8  C(13)              0.05766      21.60773       7.71017       7.20756
     9  H(1)               0.01189      17.71695       6.32185       5.90974
 --------------------------------------------------------
       Center         ----  Spin Dipole Couplings  ----
                      3XX-RR        3YY-RR        3ZZ-RR
 --------------------------------------------------------
     1   Atom        0.014577     -0.022976      0.008399
     2   Atom       -0.480019      0.447281      0.032738
     3   Atom        0.025766     -0.020730     -0.005036
     4   Atom        0.019552      0.043221     -0.062773
     5   Atom       -0.904055      0.391089      0.512966
     6   Atom        0.110515     -0.041898     -0.068617
     7   Atom        0.112540     -0.046878     -0.065663
     8   Atom       -0.055361     -0.167361      0.222722
     9   Atom       -0.014613      0.036292     -0.021679
 --------------------------------------------------------
                        XY            XZ            YZ
 --------------------------------------------------------
     1   Atom       -0.070783      0.163095     -0.003905
     2   Atom        0.001673      0.019538      0.654034
     3   Atom       -0.004519     -0.025502      0.001123
     4   Atom        0.054998     -0.007602      0.020566
     5   Atom        0.024716     -0.139064      0.023111
     6   Atom       -0.101771      0.018945     -0.011217
     7   Atom        0.098965      0.027976      0.013125
     8   Atom       -0.060082      0.009617     -0.084607
     9   Atom       -0.007681      0.000729     -0.005040
 --------------------------------------------------------


 ---------------------------------------------------------------------------------
              Anisotropic Spin Dipole Couplings in Principal Axis System
 ---------------------------------------------------------------------------------

       Atom             a.u.   MegaHertz   Gauss  10(-4) cm-1        Axes

              Baa    -0.1677   -22.501    -8.029    -7.506  0.6976  0.3240 -0.6390
     1 C(13)  Bbb    -0.0208    -2.787    -0.994    -0.930 -0.0509  0.9121  0.4069
              Bcc     0.1884    25.288     9.023     8.435  0.7146 -0.2513  0.6528
 
              Baa    -0.4857   -65.170   -23.254   -21.738  0.9368  0.1997 -0.2873
     2 C(13)  Bbb    -0.4406   -59.120   -21.095   -19.720  0.3498 -0.5561  0.7540
              Bcc     0.9262   124.290    44.350    41.459  0.0092  0.8068  0.5908
 
              Baa    -0.0217   -11.593    -4.137    -3.867  0.2886  0.8779  0.3820
     3 H(1)   Bbb    -0.0188   -10.009    -3.571    -3.338  0.4012 -0.4732  0.7843
              Bcc     0.0405    21.601     7.708     7.205  0.8693 -0.0731 -0.4888
 
              Baa    -0.0712    -9.557    -3.410    -3.188  0.2512 -0.2869  0.9244
     4 C(13)  Bbb    -0.0173    -2.318    -0.827    -0.773  0.7460 -0.5512 -0.3738
              Bcc     0.0885    11.875     4.237     3.961  0.6167  0.7835  0.0755
 
              Baa    -0.9181  -123.203   -43.962   -41.096  0.9951 -0.0205  0.0970
     5 C(13)  Bbb     0.3886    52.141    18.605    17.392  0.0345  0.9888 -0.1451
              Bcc     0.5296    71.062    25.357    23.704 -0.0930  0.1477  0.9846
 
              Baa    -0.0929   -49.588   -17.694   -16.541  0.4412  0.8948  0.0690
     6 H(1)   Bbb    -0.0706   -37.662   -13.439   -12.563 -0.1151 -0.0199  0.9932
              Bcc     0.1635    87.250    31.133    29.104  0.8900 -0.4461  0.0942
 
              Baa    -0.0942   -50.284   -17.943   -16.773 -0.4327  0.9015  0.0096
     7 H(1)   Bbb    -0.0698   -37.251   -13.292   -12.426 -0.1161 -0.0663  0.9910
              Bcc     0.1641    87.535    31.235    29.199  0.8940  0.4277  0.1333
 
              Baa    -0.2065   -27.707    -9.887    -9.242  0.3543  0.9189  0.1732
     8 C(13)  Bbb    -0.0354    -4.753    -1.696    -1.585  0.9321 -0.3324 -0.1437
              Bcc     0.2419    32.460    11.583    10.828  0.0744 -0.2124  0.9744
 
              Baa    -0.0221   -11.799    -4.210    -3.936 -0.0102  0.0846  0.9964
     9 H(1)   Bbb    -0.0157    -8.401    -2.998    -2.802  0.9893  0.1458 -0.0023
              Bcc     0.0379    20.201     7.208     6.738 -0.1455  0.9857 -0.0852
 

 ---------------------------------------------------------------------------------

 No NMR shielding tensors so no spin-rotation constants.
 Leave Link  601 at Mon Jun 20 12:51:36 2016, MaxMem=    33554432 cpu:         2.0
 (Enter /home/proyectos/fulerenos/M3C-v1.9/M3C-deps_CCC/g09-AM64L-G09RevC.01/l701.exe)
 Compute integral second derivatives.
 ... and contract with generalized density number  0.
 Leave Link  701 at Mon Jun 20 12:51:37 2016, MaxMem=    33554432 cpu:         1.6
 (Enter /home/proyectos/fulerenos/M3C-v1.9/M3C-deps_CCC/g09-AM64L-G09RevC.01/l702.exe)
 L702 exits ... SP integral derivatives will be done elsewhere.
 Leave Link  702 at Mon Jun 20 12:51:37 2016, MaxMem=    33554432 cpu:         0.1
 (Enter /home/proyectos/fulerenos/M3C-v1.9/M3C-deps_CCC/g09-AM64L-G09RevC.01/l703.exe)
 Compute integral second derivatives, UseDBF=F ICtDFT=           0.
 Integral derivatives from FoFJK, PRISM(SPDF).
 Calling FoFJK, ICntrl=    100127 FMM=F ISym2X=0 I1Cent= 0 IOpClX= 1 NMat=1 NMatS=1 NMatT=0.
 FoFJK:  IHMeth= 1 ICntrl=  100127 DoSepK=F KAlg= 0 I1Cent=   0 FoldK=F
 IRaf=         0 NMat=   1 IRICut=       1 DoRegI=T DoRafI=F ISym2E= 0.
 FoFCou: FMM=F IPFlag=           0 FMFlag=      100000 FMFlg1=         800
         NFxFlg=           0 DoJE=F BraDBF=F KetDBF=F FulRan=T
         wScrn=  0.000000 ICntrl=  100127 IOpCl=  1 I1Cent=           0 NGrid=           0
         NMat0=    1 NMatS0=      1 NMatT0=    0 NMatD0=    1 NMtDS0=    0 NMtDT0=    0
 Symmetry not used in FoFCou.
 Leave Link  703 at Mon Jun 20 12:55:43 2016, MaxMem=    33554432 cpu:       984.1
 (Enter /home/proyectos/fulerenos/M3C-v1.9/M3C-deps_CCC/g09-AM64L-G09RevC.01/l716.exe)
 Dipole        = 2.02860853D+00 3.40706191D-01 3.29869316D-01
 Polarizability= 7.13810782D+01-1.41117844D-01 3.89538701D+01
                 8.28533208D-02 1.49032368D-01 2.33193266D+01
 Full mass-weighted force constant matrix:
 Low frequencies ---   -8.7522   -0.0008    0.0001    0.0002    4.8800   10.2134
 Low frequencies ---  238.2987  321.4174  437.8489
 Diagonal vibrational polarizability:
       19.9137197      30.3223070      36.0357043
 Harmonic frequencies (cm**-1), IR intensities (KM/Mole), Raman scattering
 activities (A**4/AMU), depolarization ratios for plane and unpolarized
 incident light, reduced masses (AMU), force constants (mDyne/A),
 and normal coordinates:
                      1                      2                      3
                      A                      A                      A
 Frequencies --    238.2981               321.4173               437.8487
 Red. masses --      2.6757                 2.1354                 1.0901
 Frc consts  --      0.0895                 0.1300                 0.1231
 IR Inten    --     40.8213                49.4892                11.6225
  Atom  AN      X      Y      Z        X      Y      Z        X      Y      Z
     1   6     0.11  -0.03   0.21    -0.00  -0.08  -0.02     0.01   0.00   0.00
     2   6    -0.02   0.06  -0.16     0.13   0.07   0.06    -0.01  -0.04   0.05
     3   1     0.28  -0.08   0.62    -0.01  -0.22  -0.08     0.02   0.02   0.02
     4   6    -0.01   0.03  -0.17     0.01   0.19   0.04    -0.02   0.02  -0.01
     5   6    -0.04  -0.03   0.14     0.01  -0.11  -0.02    -0.01   0.03  -0.01
     6   1    -0.11  -0.08   0.39    -0.33  -0.51  -0.09     0.02  -0.03  -0.63
     7   1    -0.05  -0.07   0.35     0.34  -0.50  -0.11    -0.01  -0.15   0.76
     8   6    -0.04  -0.00  -0.11    -0.13   0.05  -0.02     0.02   0.00  -0.04
     9   1    -0.15  -0.05  -0.22    -0.26   0.00  -0.12     0.01   0.01   0.01
                      4                      5                      6
                      A                      A                      A
 Frequencies --    463.1669               525.0775               573.5567
 Red. masses --      2.2540                 1.7270                 1.8113
 Frc consts  --      0.2849                 0.2805                 0.3511
 IR Inten    --     58.6648                79.6432                87.0908
  Atom  AN      X      Y      Z        X      Y      Z        X      Y      Z
     1   6    -0.03  -0.02   0.06    -0.06  -0.01   0.02    -0.01   0.01   0.01
     2   6    -0.03   0.16  -0.12    -0.01   0.09  -0.01    -0.05  -0.03  -0.05
     3   1    -0.03  -0.03   0.10    -0.12  -0.02  -0.10    -0.01   0.10   0.04
     4   6     0.02  -0.04   0.22     0.03  -0.01   0.08    -0.00  -0.08   0.03
     5   6     0.04  -0.01   0.04     0.08  -0.01  -0.19     0.00   0.23  -0.01
     6   1     0.17   0.09  -0.64     0.03   0.02   0.64    -0.46  -0.50   0.12
     7   1     0.01   0.10  -0.29    -0.08   0.02   0.65     0.43  -0.48  -0.09
     8   6    -0.00  -0.09  -0.08    -0.02  -0.05   0.01     0.05  -0.06   0.00
     9   1     0.01  -0.25  -0.52    -0.02  -0.14  -0.24     0.14  -0.06  -0.01
                      7                      8                      9
                      A                      A                      A
 Frequencies --    645.9048               838.1605               907.8114
 Red. masses --      4.2744                 1.9977                 2.4121
 Frc consts  --      1.0507                 0.8269                 1.1712
 IR Inten    --     23.0800                71.4658                 4.6615
  Atom  AN      X      Y      Z        X      Y      Z        X      Y      Z
     1   6     0.20   0.01  -0.05    -0.03   0.05  -0.03     0.01  -0.02   0.09
     2   6     0.11  -0.13  -0.09    -0.06  -0.07  -0.04    -0.03  -0.02  -0.04
     3   1     0.42  -0.06   0.47     0.13   0.12   0.39    -0.23   0.57  -0.35
     4   6    -0.18   0.01   0.31    -0.01  -0.01   0.08    -0.00   0.22   0.03
     5   6    -0.21  -0.02  -0.15     0.20  -0.00   0.00    -0.04  -0.03  -0.00
     6   1    -0.23   0.06   0.23     0.32   0.11   0.06    -0.14  -0.01   0.05
     7   1    -0.28   0.01   0.04     0.33  -0.12   0.01    -0.08   0.16  -0.05
     8   6     0.08   0.11  -0.09    -0.14   0.00  -0.11     0.11  -0.21  -0.09
     9   1     0.20   0.23   0.16    -0.25   0.25   0.60    -0.04  -0.01   0.56
                     10                     11                     12
                      A                      A                      A
 Frequencies --    932.6715               988.0701              1008.2082
 Red. masses --      1.8883                 1.7440                 1.8353
 Frc consts  --      0.9678                 1.0031                 1.0991
 IR Inten    --     27.6216                 4.1712                43.5054
  Atom  AN      X      Y      Z        X      Y      Z        X      Y      Z
     1   6    -0.17  -0.08  -0.09    -0.01   0.03   0.07    -0.03   0.09  -0.09
     2   6    -0.03   0.06   0.06     0.08   0.13   0.04     0.15   0.04   0.01
     3   1     0.17  -0.32   0.74    -0.09  -0.43  -0.24     0.15   0.63   0.48
     4   6     0.01   0.10  -0.03     0.03  -0.12  -0.01     0.06  -0.06  -0.02
     5   6     0.00  -0.01   0.00    -0.03   0.01  -0.00    -0.04  -0.00  -0.01
     6   1    -0.01   0.03   0.04    -0.14  -0.19  -0.05    -0.22  -0.26  -0.10
     7   1     0.01   0.03  -0.03    -0.19   0.13   0.01    -0.26   0.23   0.05
     8   6     0.13  -0.05  -0.01    -0.06  -0.03  -0.12    -0.10  -0.11   0.06
     9   1     0.47   0.03   0.12     0.39   0.29   0.58    -0.12  -0.14   0.02
                     13                     14                     15
                      A                      A                      A
 Frequencies --   1074.5619              1118.7477              1160.0693
 Red. masses --      1.4492                 1.4719                 2.5561
 Frc consts  --      0.9859                 1.0854                 2.0267
 IR Inten    --     69.2714                 7.3914                57.4950
  Atom  AN      X      Y      Z        X      Y      Z        X      Y      Z
     1   6     0.01  -0.03  -0.01    -0.04  -0.00   0.07     0.01   0.29  -0.00
     2   6    -0.11  -0.08  -0.01     0.05  -0.10  -0.06     0.02  -0.11  -0.04
     3   1     0.03  -0.15   0.01    -0.13   0.25  -0.06     0.12  -0.87  -0.04
     4   6     0.07   0.04   0.03    -0.01   0.05  -0.01     0.00   0.09   0.00
     5   6     0.09   0.00   0.00     0.04  -0.01   0.00    -0.01  -0.01  -0.00
     6   1    -0.35  -0.57  -0.08     0.05   0.03  -0.01    -0.05   0.05  -0.00
     7   1    -0.34   0.60   0.02     0.05   0.00   0.02     0.06   0.03   0.01
     8   6    -0.00   0.07  -0.01    -0.12   0.03   0.02    -0.04  -0.17   0.06
     9   1    -0.05   0.06  -0.07     0.90   0.06  -0.22     0.01  -0.27  -0.11
                     16                     17                     18
                      A                      A                      A
 Frequencies --   1279.0256              1427.1216              1593.2326
 Red. masses --      4.6926                 5.0764                 1.0473
 Frc consts  --      4.5230                 6.0916                 1.5663
 IR Inten    --    221.5347                75.0637               760.5094
  Atom  AN      X      Y      Z        X      Y      Z        X      Y      Z
     1   6     0.35  -0.06  -0.18    -0.01  -0.02  -0.01    -0.00   0.01   0.00
     2   6    -0.26   0.17   0.14    -0.14  -0.08  -0.02    -0.00  -0.01  -0.00
     3   1     0.50   0.09  -0.08     0.03  -0.03   0.09    -0.00  -0.02  -0.00
     4   6    -0.05   0.05  -0.01     0.51   0.03   0.08     0.00   0.03   0.00
     5   6     0.02   0.00  -0.00    -0.25  -0.00  -0.03    -0.00   0.05   0.00
     6   1     0.08   0.03   0.03    -0.14   0.55   0.01     0.60  -0.40   0.05
     7   1     0.07  -0.01  -0.00    -0.10  -0.51  -0.02    -0.57  -0.38  -0.10
     8   6    -0.17  -0.15   0.07    -0.10   0.05  -0.03     0.00  -0.01   0.00
     9   1     0.61  -0.13  -0.00     0.03   0.15   0.07     0.00  -0.01  -0.00
                     19                     20                     21
                      A                      A                      A
 Frequencies --   2305.0221              2929.3208              2977.1829
 Red. masses --      1.1859                 1.1010                 1.1160
 Frc consts  --      3.7125                 5.5664                 5.8280
 IR Inten    --   1131.5779               339.8373               403.9580
  Atom  AN      X      Y      Z        X      Y      Z        X      Y      Z
     1   6    -0.00  -0.00   0.00    -0.02   0.00   0.01    -0.09  -0.01   0.04
     2   6    -0.00  -0.00  -0.00     0.00   0.00  -0.00     0.01  -0.00  -0.00
     3   1     0.01   0.00   0.00     0.21   0.02  -0.08     0.90   0.09  -0.36
     4   6     0.03   0.00   0.00    -0.00   0.00  -0.00     0.00  -0.00   0.00
     5   6    -0.12  -0.00  -0.02    -0.00   0.00   0.00     0.00   0.00   0.00
     6   1     0.54  -0.41   0.05     0.01  -0.00   0.00    -0.01   0.01  -0.00
     7   1     0.58   0.42   0.10     0.01   0.00   0.00    -0.01  -0.01  -0.00
     8   6    -0.00   0.01  -0.00     0.01  -0.08   0.03     0.00   0.02  -0.01
     9   1     0.01  -0.01   0.00    -0.10   0.91  -0.33     0.02  -0.20   0.08

 -------------------
 - Thermochemistry -
 -------------------
 Temperature   298.150 Kelvin.  Pressure   1.00000 Atm.
 Atom     1 has atomic number  6 and mass  12.00000
 Atom     2 has atomic number  6 and mass  12.00000
 Atom     3 has atomic number  1 and mass   1.00783
 Atom     4 has atomic number  6 and mass  12.00000
 Atom     5 has atomic number  6 and mass  12.00000
 Atom     6 has atomic number  1 and mass   1.00783
 Atom     7 has atomic number  1 and mass   1.00783
 Atom     8 has atomic number  6 and mass  12.00000
 Atom     9 has atomic number  1 and mass   1.00783
 Molecular mass:    64.03130 amu.
 Principal axes and moments of inertia in atomic units:
                           1         2         3
     Eigenvalues --   104.31487 392.47278 478.40703
           X            0.99993  -0.01151  -0.00031
           Y            0.01148   0.99908  -0.04140
           Z            0.00079   0.04140   0.99914
 This molecule is an asymmetric top.
 Rotational symmetry number  1.
 Rotational temperatures (Kelvin)      0.83031     0.22069     0.18105
 Rotational constants (GHZ):          17.30090     4.59839     3.77240
 Zero-point vibrational energy     142023.5 (Joules/Mol)
                                   33.94443 (Kcal/Mol)
 Warning -- explicit consideration of   6 degrees of freedom as
           vibrations may cause significant error
 Vibrational temperatures:    342.86   462.45   629.97   666.39   755.47
          (Kelvin)            825.22   929.31  1205.92  1306.14  1341.90
                             1421.61  1450.58  1546.05  1609.63  1669.08
                             1840.23  2053.31  2292.30  3316.41  4214.63
                             4283.50
 
 Zero-point correction=                           0.054094 (Hartree/Particle)
 Thermal correction to Energy=                    0.059204
 Thermal correction to Enthalpy=                  0.060148
 Thermal correction to Gibbs Free Energy=         0.025622
 Sum of electronic and zero-point Energies=           -190.977783
 Sum of electronic and thermal Energies=              -190.972673
 Sum of electronic and thermal Enthalpies=            -190.971729
 Sum of electronic and thermal Free Energies=         -191.006255
 
                     E (Thermal)             CV                S
                      KCal/Mol        Cal/Mol-Kelvin    Cal/Mol-Kelvin
 Total                   37.151             18.722             72.666
 Electronic               0.000              0.000              2.755
 Translational            0.889              2.981             38.389
 Rotational               0.889              2.981             24.486
 Vibrational             35.373             12.760              7.036
 Vibration     1          0.656              1.782              1.816
 Vibration     2          0.707              1.633              1.303
 Vibration     3          0.798              1.388              0.833
 Vibration     4          0.821              1.332              0.757
 Vibration     5          0.880              1.194              0.598
 Vibration     6          0.930              1.088              0.497
                       Q            Log10(Q)             Ln(Q)
 Total Bot       0.163998D-11        -11.785162        -27.136339
 Total V=0       0.124810D+14         13.096250         30.155230
 Vib (Bot)       0.406360D-24        -24.391089        -56.162558
 Vib (Bot)    1  0.823475D+00         -0.084350         -0.194222
 Vib (Bot)    2  0.584359D+00         -0.233320         -0.537240
 Vib (Bot)    3  0.395495D+00         -0.402859         -0.927618
 Vib (Bot)    4  0.366265D+00         -0.436204         -1.004398
 Vib (Bot)    5  0.305976D+00         -0.514313         -1.184249
 Vib (Bot)    6  0.267392D+00         -0.572852         -1.319041
 Vib (V=0)       0.309260D+01          0.490323          1.129011
 Vib (V=0)    1  0.146338D+01          0.165359          0.380752
 Vib (V=0)    2  0.126907D+01          0.103487          0.238288
 Vib (V=0)    3  0.113751D+01          0.055954          0.128840
 Vib (V=0)    4  0.111980D+01          0.049140          0.113149
 Vib (V=0)    5  0.108619D+01          0.035907          0.082678
 Vib (V=0)    6  0.106701D+01          0.028168          0.064859
 Electronic      0.400000D+01          0.602060          1.386294
 Translational   0.201393D+08          7.304044         16.818182
 Rotational      0.500983D+05          4.699823         10.821743
 
                                                              b3lyp opt
                                                             IR Spectrum
 
     2  2                         2                              1      1     1    1 1 1 1                                           
     9  9                         3                              5      4     2    1 1 0 09  99  8       6  5 5  44    3  2          
     7  2                         0                              9      2     7    6 1 7 08  30  3       4  7 2  63    2  3          
     7  9                         5                              3      7     9    0 9 5 88  38  8       6  4 5  38    1  8          
 
     X  X                         X                              X      X     X    X X X XX  XX  X       X  X X  XX    X  X          
     X  X                         X                              X            X                             X                        
     X  X                         X                              X            X                                                      
     X  X                         X                              X            X                                                      
     X  X                         X                              X                                                                   
     X  X                         X                              X                                                                   
     X                            X                              X                                                                   
                                  X                              X                                                                   
                                  X                              X                                                                   
                                  X                              X                                                                   
                                  X                              X                                                                   
                                  X                              X                                                                   
                                  X                              X                                                                   
                                  X                                                                                                  
                                  X                                                                                                  
                                  X                                                                                                  
                                  X                                                                                                  
                                  X                                                                                                  
                                  X                                                                                                  
                                  X                                                                                                  
 
 ***** Axes restored to original set *****
 -------------------------------------------------------------------
 Center     Atomic                   Forces (Hartrees/Bohr)
 Number     Number              X              Y              Z
 -------------------------------------------------------------------
      1        6           0.000059134   -0.000174515   -0.000090875
      2        6          -0.000127640    0.000091298    0.000082956
      3        1           0.000031829   -0.000001660    0.000028869
      4        6          -0.000068401    0.000050545   -0.000014472
      5        6           0.000120755   -0.000081559   -0.000014189
      6        1          -0.000086027    0.000102311    0.000005369
      7        1          -0.000028276   -0.000042253    0.000014095
      8        6           0.000105910   -0.000009330    0.000007169
      9        1          -0.000007283    0.000065162   -0.000018923
 -------------------------------------------------------------------
 Cartesian Forces:  Max     0.000174515 RMS     0.000072301
 Z-matrix is all fixed cartesians, so copy forces.
 Force constants in Cartesian coordinates: 
                1             2             3             4             5 
      1  0.694450D+00
      2  0.213524D-01  0.307277D+00
      3 -0.232386D+00 -0.106698D-02  0.225230D+00
      4 -0.195046D+00  0.102485D+00  0.937921D-01  0.348811D+00
      5  0.870196D-01 -0.102413D+00 -0.725110D-01 -0.231622D-02  0.284847D+00
      6  0.832947D-01 -0.525701D-01 -0.906229D-01 -0.504690D-01  0.121486D+00
      7 -0.274598D+00 -0.224758D-01  0.923457D-01  0.131473D-02  0.311231D-02
      8 -0.239986D-01 -0.462622D-01  0.934633D-02  0.179127D-01  0.373849D-02
      9  0.894149D-01  0.999421D-02 -0.836525D-01 -0.359566D-03  0.155418D-02
     10 -0.744541D-01 -0.503323D-02 -0.768023D-03 -0.149164D+00 -0.896570D-01
     11  0.299973D-02  0.118246D-01 -0.150358D-02 -0.976680D-01 -0.108595D+00
     12  0.207917D-01  0.150595D-02  0.747584D-02 -0.413508D-01 -0.459941D-01
     13 -0.176826D-01 -0.143220D-02 -0.213832D-02 -0.233651D-01 -0.751323D-02
     14 -0.298382D-03  0.691688D-04 -0.182472D-03 -0.164097D-01 -0.109160D-02
     15 -0.102508D-01 -0.295677D-03  0.789995D-02  0.460878D-03  0.635406D-03
     16 -0.186100D-02 -0.216398D-03  0.182853D-02 -0.912857D-03 -0.442984D-02
     17  0.650649D-03 -0.819541D-03 -0.461729D-03 -0.400882D-02  0.467995D-02
     18  0.503993D-03 -0.261307D-02 -0.284114D-04 -0.372901D-02  0.724774D-04
     19 -0.123191D-02 -0.269309D-02  0.115038D-02 -0.411548D-02 -0.605036D-03
     20 -0.639134D-04 -0.100574D-02 -0.303521D-03  0.236057D-02 -0.400804D-03
     21 -0.707323D-03  0.166507D-02  0.498737D-03  0.228137D-02 -0.273532D-03
     22 -0.135788D+00 -0.744231D-01  0.397379D-01  0.251273D-01  0.143362D-01
     23 -0.879302D-01 -0.165931D+00  0.628236D-01 -0.170156D-02 -0.837880D-01
     24  0.543255D-01  0.494167D-01 -0.727952D-01 -0.342237D-03 -0.222111D-01
     25  0.621195D-02 -0.175631D-01  0.643744D-02 -0.265046D-02  0.531409D-04
     26  0.268728D-03 -0.273810D-02  0.385935D-02 -0.653453D-03  0.302318D-02
     27 -0.498706D-02 -0.603612D-02  0.599451D-02 -0.283712D-03  0.172413D-01
                6             7             8             9            10 
      6  0.100825D+00
      7  0.865214D-03  0.265935D+00
      8 -0.724665D-02  0.227058D-01  0.394003D-01
      9  0.860221D-02 -0.967745D-01 -0.758954D-02  0.623475D-01
     10 -0.258817D-01  0.517651D-02 -0.150740D-02  0.930146D-02  0.656224D+00
     11 -0.301248D-01 -0.112046D-03 -0.833134D-03  0.109428D-02  0.178483D-01
     12 -0.491295D-01  0.365557D-02 -0.425186D-03  0.498892D-02  0.742069D-01
     13 -0.145410D-02  0.271851D-03 -0.178789D-03  0.693470D-03 -0.335448D+00
     14 -0.311565D-02  0.255517D-03 -0.197763D-03  0.794780D-04  0.381529D-02
     15  0.300317D-02  0.258725D-03  0.788537D-04 -0.172355D-02 -0.378490D-01
     16 -0.351936D-02 -0.102537D-02 -0.158564D-03  0.658317D-03  0.123786D-01
     17  0.164526D-02  0.577374D-03  0.484904D-03 -0.656261D-03  0.200772D-02
     18 -0.149315D-02 -0.718001D-04 -0.405196D-03 -0.199303D-03  0.344277D-04
     19 -0.316875D-02 -0.109247D-02  0.351118D-03  0.794516D-03  0.131103D-01
     20 -0.361951D-03 -0.650912D-03  0.818160D-04  0.777264D-03 -0.120208D-02
     21  0.289069D-02 -0.475504D-03  0.475743D-03  0.318277D-03  0.551207D-02
     22 -0.790357D-03  0.376771D-02 -0.149186D-01 -0.346920D-02 -0.123368D+00
     23 -0.317236D-01 -0.209522D-02  0.360998D-02 -0.541529D-02  0.749654D-01
     24  0.172152D-01  0.335995D-03  0.576744D-02  0.949400D-02 -0.376407D-01
     25  0.112340D-02  0.250126D-03 -0.207624D-03 -0.259317D-03 -0.445497D-02
     26  0.201114D-02 -0.131702D-02 -0.223174D-04  0.161683D-03 -0.123711D-02
     27  0.870923D-02 -0.139338D-03 -0.179203D-05 -0.175548D-03  0.130847D-01
               11            12            13            14            15 
     11  0.255406D+00
     12  0.138047D-01  0.121354D+00
     13  0.318472D-02 -0.381502D-01  0.652845D+00
     14 -0.288902D-01  0.473460D-03 -0.528520D-03  0.913424D-01
     15  0.604432D-03 -0.429256D-01  0.718119D-01  0.365518D-02  0.548312D-01
     16  0.200285D-01  0.285521D-02 -0.125284D+00  0.232012D-01 -0.125216D-01
     17 -0.706851D-02 -0.180998D-02  0.688224D-01 -0.301723D-01  0.829274D-02
     18  0.517234D-02  0.219967D-02 -0.124054D-01  0.278403D-02 -0.120316D-01
     19 -0.166053D-01  0.459955D-03 -0.130297D+00 -0.236915D-01 -0.161125D-01
     20 -0.771699D-02  0.383343D-03 -0.678966D-01 -0.293023D-01 -0.105828D-01
     21 -0.522539D-02  0.306841D-03 -0.195887D-01 -0.528733D-02 -0.127718D-01
     22  0.514900D-01 -0.161316D-01 -0.209944D-01  0.130410D-01  0.456292D-02
     23 -0.114985D+00  0.299841D-01  0.620252D-02 -0.219290D-02 -0.200123D-02
     24  0.250206D-01 -0.505345D-01  0.385731D-02  0.219714D-02  0.420400D-02
     25  0.188341D-01 -0.633672D-02 -0.467212D-04  0.615029D-03 -0.360400D-03
     26  0.858053D-03  0.207770D-02 -0.660315D-03  0.435508D-03 -0.386925D-03
     27 -0.884265D-02  0.626436D-02 -0.262599D-02 -0.603835D-03 -0.485752D-03
               16            17            18            19            20 
     16  0.926741D-01
     17 -0.514912D-01  0.637716D-01
     18  0.845372D-02 -0.354244D-02  0.842491D-02
     19  0.283776D-01 -0.138014D-01  0.377687D-02  0.975347D-01
     20  0.120929D-01 -0.299460D-01 -0.305330D-03  0.521644D-01  0.626723D-01
     21  0.343093D-02 -0.357536D-02  0.200307D-03  0.136573D-01  0.105108D-01
     22 -0.523478D-02 -0.318379D-02  0.330120D-02 -0.352488D-02  0.294069D-02
     23 -0.625263D-03 -0.686269D-03 -0.138350D-02  0.302078D-02  0.474490D-02
     24  0.250020D-04 -0.417292D-04  0.207101D-02  0.416675D-03  0.467764D-04
     25  0.887291D-03  0.426986D-03  0.136017D-03  0.123899D-02  0.254974D-03
     26  0.159865D-02 -0.243854D-03  0.220691D-03  0.186000D-02  0.872844D-03
     27 -0.121070D-02  0.149499D-03  0.856578D-03 -0.974435D-03 -0.164561D-03
               21            22            23            24            25 
     21  0.956419D-02
     22 -0.427236D-02  0.305138D+00
     23  0.154897D-02 -0.155832D-01  0.625362D+00
     24 -0.188054D-03 -0.121417D-01 -0.141076D+00  0.166157D+00
     25  0.162139D-03 -0.451227D-01  0.237468D-01 -0.883594D-02  0.436866D-01
     26  0.161068D-03  0.263008D-01 -0.266133D+00  0.808802D-01 -0.261603D-01
     27 -0.819178D-03 -0.107968D-01  0.872431D-01 -0.756235D-01  0.793338D-02
               26            27 
     26  0.263948D+00
     27 -0.889849D-01  0.552793D-01
 Leave Link  716 at Mon Jun 20 12:55:43 2016, MaxMem=    33554432 cpu:         0.1
 (Enter /home/proyectos/fulerenos/M3C-v1.9/M3C-deps_CCC/g09-AM64L-G09RevC.01/l103.exe)

 GradGradGradGradGradGradGradGradGradGradGradGradGradGradGradGradGradGrad
 Berny optimization.
 Search for a local minimum.
 Step number   1 out of a maximum of    2
 All quantities printed in internal units (Hartrees-Bohrs-Radians)
 Second derivative matrix not updated -- analytic derivatives used.
 ITU=  0
     Eigenvalues ---    0.00585   0.00834   0.00936   0.02821   0.03800
     Eigenvalues ---    0.04183   0.04652   0.05397   0.10657   0.11701
     Eigenvalues ---    0.13008   0.15606   0.19914   0.21108   0.24892
     Eigenvalues ---    0.39387   0.49156   0.54978   0.83644   1.05511
     Eigenvalues ---    1.11589
 Angle between quadratic step and forces=  73.85 degrees.
 Linear search not attempted -- first point.
 B after Tr=    -0.000016    0.000021   -0.000456
         Rot=    1.000000   -0.000033   -0.000006    0.000011 Ang=  -0.00 deg.
 Variable       Old X    -DE/DX   Delta X   Delta X   Delta X     New X
                                 (Linear)    (Quad)   (Total)
    X1       -2.98922   0.00006   0.00000   0.00059   0.00057  -2.98865
    Y1       -0.30831  -0.00017   0.00000  -0.00035  -0.00029  -0.30860
    Z1        0.42986  -0.00009   0.00000   0.00034  -0.00011   0.42975
    X2       -1.01902  -0.00013   0.00000  -0.00029  -0.00035  -1.01938
    Y2       -1.84393   0.00009   0.00000   0.00030   0.00038  -1.84355
    Z2       -0.55530   0.00008   0.00000  -0.00074  -0.00130  -0.55660
    X3       -4.92438   0.00003   0.00000   0.00186   0.00185  -4.92253
    Y3       -0.49813  -0.00000   0.00000  -0.00056  -0.00050  -0.49863
    Z3        1.21013   0.00003   0.00000   0.00332   0.00289   1.21302
    X4        0.95795  -0.00007   0.00000  -0.00023  -0.00024   0.95771
    Y4       -0.02890   0.00005   0.00000   0.00039   0.00040  -0.02850
    Z4       -0.08314  -0.00001   0.00000  -0.00120  -0.00167  -0.08480
    X5        3.55547   0.00012   0.00000  -0.00025  -0.00027   3.55521
    Y5       -0.03158  -0.00008   0.00000  -0.00060  -0.00068  -0.03226
    Z5        0.18389  -0.00001   0.00000  -0.00035  -0.00085   0.18304
    X6        5.30192  -0.00009   0.00000  -0.00069  -0.00074   5.30118
    Y6       -1.54902   0.00010   0.00000   0.00086   0.00073  -1.54828
    Z6        0.31550   0.00001   0.00000   0.00122   0.00060   0.31611
    X7        5.32365  -0.00003   0.00000  -0.00049  -0.00047   5.32318
    Y7        1.41670  -0.00004   0.00000  -0.00083  -0.00096   1.41574
    Z7        0.50070   0.00001   0.00000   0.00301   0.00258   0.50329
    X8       -1.21360   0.00011   0.00000   0.00013   0.00015  -1.21345
    Y8        1.70706  -0.00001   0.00000   0.00029   0.00035   1.70742
    Z8       -0.16491   0.00001   0.00000  -0.00079  -0.00112  -0.16603
    X9       -1.45069  -0.00001   0.00000  -0.00056  -0.00050  -1.45119
    Y9        3.66446   0.00007   0.00000   0.00045   0.00056   3.66502
    Z9       -0.88875  -0.00002   0.00000  -0.00083  -0.00103  -0.88978
         Item               Value     Threshold  Converged?
 Maximum Force            0.000175     0.000450     YES
 RMS     Force            0.000072     0.000300     YES
 Maximum Displacement     0.002891     0.001800     NO 
 RMS     Displacement     0.001070     0.001200     YES
 Predicted change in Energy=-3.005939D-07
 GradGradGradGradGradGradGradGradGradGradGradGradGradGradGradGradGradGrad

 Leave Link  103 at Mon Jun 20 12:55:43 2016, MaxMem=    33554432 cpu:         0.1
 (Enter /home/proyectos/fulerenos/M3C-v1.9/M3C-deps_CCC/g09-AM64L-G09RevC.01/l9999.exe)
 1\1\GINC-BELVIS17\Freq\UB3LYP\6-311++G(3df,2p)\C5H4(3+,4)\ROOT\20-Jun-
 2016\0\\#p b3lyp/6-311++G(3df,2p) freq symmetry=Loose\\b3lyp opt\\3,4\
 C,-1.581826,-0.163153,0.227472\C,-0.539244,-0.975766,-0.293854\H,-2.60
 5869,-0.263599,0.640373\C,0.506925,-0.015294,-0.043994\C,1.881475,-0.0
 16713,0.097312\H,2.805654,-0.819704,0.166958\H,2.817155,0.749683,0.264
 961\C,-0.642209,0.903339,-0.087267\H,-0.767671,1.939147,-0.470305\\Ver
 sion=EM64L-G09RevE.01\State=4-A\HF=-191.031877\S2=3.767775\S2-1=0.\S2A
 =3.750116\RMSD=8.736e-09\RMSF=7.230e-05\ZeroPoint=0.0540939\Thermal=0.
 0592037\Dipole=2.0286086,0.340706,0.3298693\DipoleDeriv=0.724264,-0.01
 01459,0.0042287,0.1037334,0.0807298,-0.0232298,-0.0131412,-0.0221854,0
 .3712996,-0.070453,0.0649944,0.0893118,0.3103441,0.6484083,0.1379284,0
 .3349999,0.1448986,0.429687,0.661849,0.0462196,-0.1300166,0.0429806,0.
 2525919,-0.0023985,-0.3255485,-0.0250439,0.2596738,-0.0943631,0.046637
 4,-0.0646395,-0.0025695,0.0414437,-0.0529372,-0.2129993,-0.0505503,0.2
 890954,-0.0425278,0.0059338,-0.0293426,0.0220845,-0.1358458,-0.0250984
 ,-0.058106,-0.025417,0.3639188,0.8213831,-0.3518885,0.0162556,-0.28195
 8,0.6081982,-0.0014666,0.0035862,-0.031245,0.3589475,0.8257614,0.33253
 78,0.0628109,0.2735284,0.5945937,0.0317393,0.1179781,0.0573449,0.36458
 94,-0.0118525,-0.0738829,0.0459589,-0.3355658,0.3153832,0.0334777,0.06
 64092,0.0906915,0.3160287,0.185939,-0.0604057,0.0054329,-0.1325778,0.5
 94497,-0.0980149,0.0868215,-0.1384933,0.2467597\Polar=71.3810782,-0.14
 11205,38.9538701,0.0828533,0.1490324,23.3193266\PG=C01 [X(C5H4)]\NImag
 =0\\0.69445002,0.02135240,0.30727683,-0.23238566,-0.00106698,0.2252299
 6,-0.19504563,0.10248451,0.09379212,0.34881140,0.08701964,-0.10241346,
 -0.07251096,-0.00231622,0.28484710,0.08329471,-0.05257013,-0.09062288,
 -0.05046902,0.12148633,0.10082509,-0.27459841,-0.02247577,0.09234569,0
 .00131473,0.00311231,0.00086521,0.26593532,-0.02399861,-0.04626223,0.0
 0934633,0.01791265,0.00373849,-0.00724665,0.02270578,0.03940026,0.0894
 1486,0.00999421,-0.08365252,-0.00035957,0.00155418,0.00860221,-0.09677
 454,-0.00758954,0.06234751,-0.07445410,-0.00503323,-0.00076802,-0.1491
 6396,-0.08965697,-0.02588174,0.00517651,-0.00150740,0.00930146,0.65622
 364,0.00299973,0.01182457,-0.00150358,-0.09766803,-0.10859490,-0.03012
 478,-0.00011205,-0.00083313,0.00109428,0.01784834,0.25540603,0.0207917
 3,0.00150595,0.00747584,-0.04135082,-0.04599409,-0.04912954,0.00365557
 ,-0.00042519,0.00498892,0.07420686,0.01380470,0.12135400,-0.01768257,-
 0.00143220,-0.00213832,-0.02336507,-0.00751323,-0.00145410,0.00027185,
 -0.00017879,0.00069347,-0.33544821,0.00318472,-0.03815020,0.65284549,-
 0.00029838,0.00006917,-0.00018247,-0.01640965,-0.00109160,-0.00311565,
 0.00025552,-0.00019776,0.00007948,0.00381529,-0.02889017,0.00047346,-0
 .00052852,0.09134236,-0.01025078,-0.00029568,0.00789995,0.00046088,0.0
 0063541,0.00300317,0.00025873,0.00007885,-0.00172355,-0.03784905,0.000
 60443,-0.04292556,0.07181189,0.00365518,0.05483116,-0.00186100,-0.0002
 1640,0.00182853,-0.00091286,-0.00442984,-0.00351936,-0.00102537,-0.000
 15856,0.00065832,0.01237863,0.02002850,0.00285521,-0.12528354,0.023201
 21,-0.01252165,0.09267406,0.00065065,-0.00081954,-0.00046173,-0.004008
 82,0.00467995,0.00164526,0.00057737,0.00048490,-0.00065626,0.00200772,
 -0.00706851,-0.00180998,0.06882244,-0.03017229,0.00829274,-0.05149117,
 0.06377160,0.00050399,-0.00261307,-0.00002841,-0.00372901,0.00007248,-
 0.00149315,-0.00007180,-0.00040520,-0.00019930,0.00003443,0.00517234,0
 .00219967,-0.01240541,0.00278403,-0.01203160,0.00845372,-0.00354244,0.
 00842491,-0.00123191,-0.00269309,0.00115038,-0.00411548,-0.00060504,-0
 .00316875,-0.00109247,0.00035112,0.00079452,0.01311030,-0.01660528,0.0
 0045995,-0.13029687,-0.02369152,-0.01611254,0.02837758,-0.01380139,0.0
 0377687,0.09753474,-0.00006391,-0.00100574,-0.00030352,0.00236057,-0.0
 0040080,-0.00036195,-0.00065091,0.00008182,0.00077726,-0.00120208,-0.0
 0771699,0.00038334,-0.06789663,-0.02930231,-0.01058279,0.01209287,-0.0
 2994600,-0.00030533,0.05216443,0.06267228,-0.00070732,0.00166507,0.000
 49874,0.00228137,-0.00027353,0.00289069,-0.00047550,0.00047574,0.00031
 828,0.00551207,-0.00522539,0.00030684,-0.01958866,-0.00528733,-0.01277
 181,0.00343093,-0.00357536,0.00020031,0.01365733,0.01051076,0.00956419
 ,-0.13578834,-0.07442313,0.03973785,0.02512732,0.01433620,-0.00079036,
 0.00376771,-0.01491856,-0.00346920,-0.12336785,0.05149000,-0.01613158,
 -0.02099437,0.01304103,0.00456292,-0.00523478,-0.00318379,0.00330120,-
 0.00352488,0.00294069,-0.00427236,0.30513793,-0.08793024,-0.16593149,0
 .06282356,-0.00170156,-0.08378796,-0.03172358,-0.00209522,0.00360998,-
 0.00541529,0.07496544,-0.11498495,0.02998409,0.00620252,-0.00219290,-0
 .00200123,-0.00062526,-0.00068627,-0.00138350,0.00302078,0.00474490,0.
 00154897,-0.01558323,0.62536175,0.05432553,0.04941675,-0.07279518,-0.0
 0034224,-0.02221114,0.01721517,0.00033600,0.00576744,0.00949400,-0.037
 64067,0.02502064,-0.05053452,0.00385731,0.00219714,0.00420400,0.000025
 00,-0.00004173,0.00207101,0.00041667,0.00004678,-0.00018805,-0.0121416
 7,-0.14107608,0.16615712,0.00621195,-0.01756310,0.00643744,-0.00265046
 ,0.00005314,0.00112340,0.00025013,-0.00020762,-0.00025932,-0.00445497,
 0.01883408,-0.00633672,-0.00004672,0.00061503,-0.00036040,0.00088729,0
 .00042699,0.00013602,0.00123899,0.00025497,0.00016214,-0.04512275,0.02
 374678,-0.00883594,0.04368655,0.00026873,-0.00273810,0.00385935,-0.000
 65345,0.00302318,0.00201114,-0.00131702,-0.00002232,0.00016168,-0.0012
 3711,0.00085805,0.00207770,-0.00066031,0.00043551,-0.00038692,0.001598
 65,-0.00024385,0.00022069,0.00186000,0.00087284,0.00016107,0.02630079,
 -0.26613306,0.08088022,-0.02616027,0.26394775,-0.00498706,-0.00603612,
 0.00599451,-0.00028371,0.01724133,0.00870923,-0.00013934,-0.00000179,-
 0.00017555,0.01308465,-0.00884265,0.00626436,-0.00262599,-0.00060383,-
 0.00048575,-0.00121070,0.00014950,0.00085658,-0.00097443,-0.00016456,-
 0.00081918,-0.01079680,0.08724306,-0.07562354,0.00793338,-0.08898492,0
 .05527934\\-0.00005913,0.00017451,0.00009087,0.00012764,-0.00009130,-0
 .00008296,-0.00003183,0.00000166,-0.00002887,0.00006840,-0.00005055,0.
 00001447,-0.00012075,0.00008156,0.00001419,0.00008603,-0.00010231,-0.0
 0000537,0.00002828,0.00004225,-0.00001410,-0.00010591,0.00000933,-0.00
 000717,0.00000728,-0.00006516,0.00001892\\\@


 MAN IS A SINGULAR CREATURE.  HE HAS A SET OF GIFTS
 WHICH MAKE HIM UNIQUE AMONG THE ANIMALS: SO THAT, 
 UNLIKE THEM, HE IS NOT A FIGURE IN THE LANDSCAPE --
 HE IS A SHAPER OF THE LANDSCAPE.

                       -- JACOB BRONOWSKI
 Job cpu time:       0 days  1 hours  9 minutes  3.5 seconds.
 File lengths (MBytes):  RWF=     78 Int=      0 D2E=      0 Chk=      5 Scr=      1
 Normal termination of Gaussian 09 at Mon Jun 20 12:55:43 2016.
