 Entering Gaussian System, Link 0=/home/proyectos/fulerenos/M3C-v1.9/M3C-deps_CCC/g09-AM64L-G09RevC.01/g09
 Initial command:
 /home/proyectos/fulerenos/M3C-v1.9/M3C-deps_CCC/g09-AM64L-G09RevC.01/l1.exe "/scratch/naguirre/gaussian/Gau-30521.inp" -scrdir="/scratch/naguirre/gaussian/"
 Entering Link 1 = /home/proyectos/fulerenos/M3C-v1.9/M3C-deps_CCC/g09-AM64L-G09RevC.01/l1.exe PID=     30529.
  
 Copyright (c) 1988,1990,1992,1993,1995,1998,2003,2009,2015,
            Gaussian, Inc.  All Rights Reserved.
  
 This is part of the Gaussian(R) 09 program.  It is based on
 the Gaussian(R) 03 system (copyright 2003, Gaussian, Inc.),
 the Gaussian(R) 98 system (copyright 1998, Gaussian, Inc.),
 the Gaussian(R) 94 system (copyright 1995, Gaussian, Inc.),
 the Gaussian 92(TM) system (copyright 1992, Gaussian, Inc.),
 the Gaussian 90(TM) system (copyright 1990, Gaussian, Inc.),
 the Gaussian 88(TM) system (copyright 1988, Gaussian, Inc.),
 the Gaussian 86(TM) system (copyright 1986, Carnegie Mellon
 University), and the Gaussian 82(TM) system (copyright 1983,
 Carnegie Mellon University). Gaussian is a federally registered
 trademark of Gaussian, Inc.
  
 This software contains proprietary and confidential information,
 including trade secrets, belonging to Gaussian, Inc.
  
 This software is provided under written license and may be
 used, copied, transmitted, or stored only in accord with that
 written license.
  
 The following legend is applicable only to US Government
 contracts under FAR:
  
                    RESTRICTED RIGHTS LEGEND
  
 Use, reproduction and disclosure by the US Government is
 subject to restrictions as set forth in subparagraphs (a)
 and (c) of the Commercial Computer Software - Restricted
 Rights clause in FAR 52.227-19.
  
 Gaussian, Inc.
 340 Quinnipiac St., Bldg. 40, Wallingford CT 06492
  
  
 ---------------------------------------------------------------
 Warning -- This program may not be used in any manner that
 competes with the business of Gaussian, Inc. or will provide
 assistance to any competitor of Gaussian, Inc.  The licensee
 of this program is prohibited from giving any competitor of
 Gaussian, Inc. access to this program.  By using this program,
 the user acknowledges that Gaussian, Inc. is engaged in the
 business of creating and licensing software in the field of
 computational chemistry and represents and warrants to the
 licensee that it is not a competitor of Gaussian, Inc. and that
 it will not use this program in any manner prohibited above.
 ---------------------------------------------------------------
  

 Cite this work as:
 Gaussian 09, Revision E.01,
 M. J. Frisch, G. W. Trucks, H. B. Schlegel, G. E. Scuseria, 
 M. A. Robb, J. R. Cheeseman, G. Scalmani, V. Barone, B. Mennucci, 
 G. A. Petersson, H. Nakatsuji, M. Caricato, X. Li, H. P. Hratchian, 
 A. F. Izmaylov, J. Bloino, G. Zheng, J. L. Sonnenberg, M. Hada, 
 M. Ehara, K. Toyota, R. Fukuda, J. Hasegawa, M. Ishida, T. Nakajima, 
 Y. Honda, O. Kitao, H. Nakai, T. Vreven, J. A. Montgomery, Jr., 
 J. E. Peralta, F. Ogliaro, M. Bearpark, J. J. Heyd, E. Brothers, 
 K. N. Kudin, V. N. Staroverov, T. Keith, R. Kobayashi, J. Normand, 
 K. Raghavachari, A. Rendell, J. C. Burant, S. S. Iyengar, J. Tomasi, 
 M. Cossi, N. Rega, J. M. Millam, M. Klene, J. E. Knox, J. B. Cross, 
 V. Bakken, C. Adamo, J. Jaramillo, R. Gomperts, R. E. Stratmann, 
 O. Yazyev, A. J. Austin, R. Cammi, C. Pomelli, J. W. Ochterski, 
 R. L. Martin, K. Morokuma, V. G. Zakrzewski, G. A. Voth, 
 P. Salvador, J. J. Dannenberg, S. Dapprich, A. D. Daniels, 
 O. Farkas, J. B. Foresman, J. V. Ortiz, J. Cioslowski, 
 and D. J. Fox, Gaussian, Inc., Wallingford CT, 2013.
 
 ******************************************
 Gaussian 09:  EM64L-G09RevE.01 30-Nov-2015
                20-Jun-2016 
 ******************************************
 %NProcShared=4
 Will use up to    4 processors via shared memory.
 ---------------------------------------------
 #p b3lyp/6-311++G(3df,2p) freq symmetry=Loose
 ---------------------------------------------
 1/10=4,30=1,38=1/1,3;
 2/12=2,17=4,18=3,40=1/2;
 3/5=4,6=6,7=1216,11=2,16=1,25=1,30=1,71=2,74=-5,140=1/1,2,3;
 4//1;
 5/5=2,38=5,98=1/2;
 8/6=4,10=90,11=11/1;
 11/6=1,8=1,9=11,15=111,16=1/1,2,10;
 10/6=1/2;
 6/7=2,8=2,9=2,10=2,18=1,28=1/1;
 7/8=1,10=1,25=1/1,2,3,16;
 1/10=4,30=1/3;
 99//99;
 Leave Link    1 at Mon Jun 20 06:10:29 2016, MaxMem=           0 cpu:         0.4
 (Enter /home/proyectos/fulerenos/M3C-v1.9/M3C-deps_CCC/g09-AM64L-G09RevC.01/l101.exe)
 ---------
 b3lyp opt
 ---------
 Symbolic Z-matrix:
 Charge =  1 Multiplicity = 4
 C                    -1.79036  -0.04829   0.00003 
 H                    -2.08856  -0.64091  -0.87359 
 H                    -2.08967  -0.64237   0.87227 
 H                    -2.30066   0.91102   0.00042 
 C                     1.68102   0.12103  -0.00007 
 C                    -0.34206   0.1087    0.00009 
 C                     0.58797   1.12581   0.00009 
 C                     0.80351  -0.91282  -0.00006 
 H                     0.83844  -1.99438   0.00044 
 
 NAtoms=      9 NQM=        9 NQMF=       0 NMMI=      0 NMMIF=      0
                NMic=       0 NMicF=      0.
                    Isotopes and Nuclear Properties:
 (Nuclear quadrupole moments (NQMom) in fm**2, nuclear magnetic moments (NMagM)
  in nuclear magnetons)

  Atom         1           2           3           4           5           6           7           8           9
 IAtWgt=          12           1           1           1          12          12          12          12           1
 AtmWgt=  12.0000000   1.0078250   1.0078250   1.0078250  12.0000000  12.0000000  12.0000000  12.0000000   1.0078250
 NucSpn=           0           1           1           1           0           0           0           0           1
 AtZEff=   0.0000000   0.0000000   0.0000000   0.0000000   0.0000000   0.0000000   0.0000000   0.0000000   0.0000000
 NQMom=    0.0000000   0.0000000   0.0000000   0.0000000   0.0000000   0.0000000   0.0000000   0.0000000   0.0000000
 NMagM=    0.0000000   2.7928460   2.7928460   2.7928460   0.0000000   0.0000000   0.0000000   0.0000000   2.7928460
 AtZNuc=   6.0000000   1.0000000   1.0000000   1.0000000   6.0000000   6.0000000   6.0000000   6.0000000   1.0000000
 Leave Link  101 at Mon Jun 20 06:10:29 2016, MaxMem=    33554432 cpu:         0.3
 (Enter /home/proyectos/fulerenos/M3C-v1.9/M3C-deps_CCC/g09-AM64L-G09RevC.01/l103.exe)

 GradGradGradGradGradGradGradGradGradGradGradGradGradGradGradGradGradGrad
 Berny optimization.
 Initialization pass.
 Trust Radius=3.00D-01 FncErr=1.00D-07 GrdErr=1.00D-07
 Number of steps in this run=      2 maximum allowed number of steps=      2.
 GradGradGradGradGradGradGradGradGradGradGradGradGradGradGradGradGradGrad

 Leave Link  103 at Mon Jun 20 06:10:29 2016, MaxMem=    33554432 cpu:         0.1
 (Enter /home/proyectos/fulerenos/M3C-v1.9/M3C-deps_CCC/g09-AM64L-G09RevC.01/l202.exe)
                          Input orientation:                          
 ---------------------------------------------------------------------
 Center     Atomic      Atomic             Coordinates (Angstroms)
 Number     Number       Type             X           Y           Z
 ---------------------------------------------------------------------
      1          6           0       -1.790363   -0.048285    0.000028
      2          1           0       -2.088559   -0.640907   -0.873585
      3          1           0       -2.089671   -0.642368    0.872266
      4          1           0       -2.300656    0.911017    0.000419
      5          6           0        1.681018    0.121033   -0.000071
      6          6           0       -0.342064    0.108703    0.000092
      7          6           0        0.587969    1.125807    0.000088
      8          6           0        0.803514   -0.912819   -0.000061
      9          1           0        0.838442   -1.994381    0.000440
 ---------------------------------------------------------------------
                    Distance matrix (angstroms):
                    1          2          3          4          5
     1  C    0.000000
     2  H    1.096960   0.000000
     3  H    1.096959   1.745852   0.000000
     4  H    1.086582   1.793693   1.793777   0.000000
     5  C    3.475508   3.943766   3.944851   4.059286   0.000000
     6  C    1.456782   2.091763   2.092588   2.116552   2.023120
     7  C    2.652349   3.323911   3.325191   2.896600   1.484698
     8  C    2.734157   3.033326   3.033911   3.600312   1.356047
     9  H    3.270765   3.341130   3.340938   4.277297   2.277040
                    6          7          8          9
     6  C    0.000000
     7  C    1.378210   0.000000
     8  C    1.534880   2.049989   0.000000
     9  H    2.411754   3.130225   1.082126   0.000000
 Stoichiometry    C5H4(1+,4)
 Framework group  C1[X(C5H4)]
 Deg. of freedom    21
 Full point group                 C1      NOp   1
 Largest Abelian subgroup         C1      NOp   1
 Largest concise Abelian subgroup C1      NOp   1
                         Standard orientation:                         
 ---------------------------------------------------------------------
 Center     Atomic      Atomic             Coordinates (Angstroms)
 Number     Number       Type             X           Y           Z
 ---------------------------------------------------------------------
      1          6           0       -1.790363    0.048285   -0.000028
      2          1           0       -2.088559    0.640907    0.873585
      3          1           0       -2.089671    0.642368   -0.872266
      4          1           0       -2.300656   -0.911017   -0.000419
      5          6           0        1.681018   -0.121033    0.000071
      6          6           0       -0.342064   -0.108703   -0.000092
      7          6           0        0.587969   -1.125807   -0.000088
      8          6           0        0.803514    0.912819    0.000061
      9          1           0        0.838442    1.994381   -0.000440
 ---------------------------------------------------------------------
 Rotational constants (GHZ):     15.4704240      4.9755364      3.8529036
 Leave Link  202 at Mon Jun 20 06:10:29 2016, MaxMem=    33554432 cpu:         0.0
 (Enter /home/proyectos/fulerenos/M3C-v1.9/M3C-deps_CCC/g09-AM64L-G09RevC.01/l301.exe)
 Standard basis: 6-311++G(3df,2p) (5D, 7F)
 Ernie: Thresh=  0.10000D-02 Tol=  0.10000D-05 Strict=F.
 There are   265 symmetry adapted cartesian basis functions of A   symmetry.
 There are   235 symmetry adapted basis functions of A   symmetry.
   235 basis functions,   338 primitive gaussians,   265 cartesian basis functions
    18 alpha electrons       15 beta electrons
       nuclear repulsion energy       135.1147505173 Hartrees.
 IExCor=  402 DFT=T Ex+Corr=B3LYP ExCW=0 ScaHFX=  0.200000
 ScaDFX=  0.800000  0.720000  1.000000  0.810000 ScalE2=  1.000000  1.000000
 IRadAn=      0 IRanWt=     -1 IRanGd=            0 ICorTp=0 IEmpDi=  4
 NAtoms=    9 NActive=    9 NUniq=    9 SFac= 1.00D+00 NAtFMM=   60 NAOKFM=F Big=F
 Integral buffers will be    131072 words long.
 Raffenetti 2 integral format.
 Two-electron integral symmetry is turned on.
 Leave Link  301 at Mon Jun 20 06:10:29 2016, MaxMem=    33554432 cpu:         0.2
 (Enter /home/proyectos/fulerenos/M3C-v1.9/M3C-deps_CCC/g09-AM64L-G09RevC.01/l302.exe)
 NPDir=0 NMtPBC=     1 NCelOv=     1 NCel=       1 NClECP=     1 NCelD=      1
         NCelK=      1 NCelE2=     1 NClLst=     1 CellRange=     0.0.
 One-electron integrals computed using PRISM.
 NBasis=   235 RedAO= T EigKep=  4.05D-06  NBF=   235
 NBsUse=   235 1.00D-06 EigRej= -1.00D+00 NBFU=   235
 Precomputing XC quadrature grid using
 IXCGrd= 4 IRadAn=           0 IRanWt=          -1 IRanGd=           0 AccXCQ= 0.00D+00.
 Generated NRdTot=       0 NPtTot=           0 NUsed=           0 NTot=          32
 NSgBfM=   265   265   265   265   265 MxSgAt=     9 MxSgA2=     9.
 Leave Link  302 at Mon Jun 20 06:10:29 2016, MaxMem=    33554432 cpu:         1.3
 (Enter /home/proyectos/fulerenos/M3C-v1.9/M3C-deps_CCC/g09-AM64L-G09RevC.01/l303.exe)
 DipDrv:  MaxL=1.
 Leave Link  303 at Mon Jun 20 06:10:29 2016, MaxMem=    33554432 cpu:         0.2
 (Enter /home/proyectos/fulerenos/M3C-v1.9/M3C-deps_CCC/g09-AM64L-G09RevC.01/l401.exe)
 ExpMin= 3.60D-02 ExpMax= 4.56D+03 ExpMxC= 6.82D+02 IAcc=3 IRadAn=         5 AccDes= 0.00D+00
 Harris functional with IExCor=  402 and IRadAn=       5 diagonalized for initial guess.
 HarFok:  IExCor=  402 AccDes= 0.00D+00 IRadAn=         5 IDoV= 1 UseB2=F ITyADJ=14
 ICtDFT=  3500011 ScaDFX=  1.000000  1.000000  1.000000  1.000000
 FoFCou: FMM=F IPFlag=           0 FMFlag=      100000 FMFlg1=           0
         NFxFlg=           0 DoJE=T BraDBF=F KetDBF=T FulRan=T
         wScrn=  0.000000 ICntrl=     500 IOpCl=  0 I1Cent=   200000004 NGrid=           0
         NMat0=    1 NMatS0=      1 NMatT0=    0 NMatD0=    1 NMtDS0=    0 NMtDT0=    0
 Petite list used in FoFCou.
 Harris En= -192.396298985660    
 JPrj=0 DoOrth=F DoCkMO=F.
 Initial guess <Sx>= 0.0000 <Sy>= 0.0000 <Sz>= 1.5000 <S**2>= 3.7500 S= 1.5000
 Leave Link  401 at Mon Jun 20 06:10:32 2016, MaxMem=    33554432 cpu:        11.5
 (Enter /home/proyectos/fulerenos/M3C-v1.9/M3C-deps_CCC/g09-AM64L-G09RevC.01/l502.exe)
 UHF open shell SCF:
 Using DIIS extrapolation, IDIIS=  1040.
 Integral symmetry usage will be decided dynamically.
 IVT=      232727 IEndB=      232727 NGot=    33554432 MDV=    33408836
 LenX=    33408836 LenY=    33338170
 Requested convergence on RMS density matrix=1.00D-08 within 128 cycles.
 Requested convergence on MAX density matrix=1.00D-06.
 Requested convergence on             energy=1.00D-06.
 No special actions if energy rises.
 Fock matrices will be formed incrementally for  20 cycles.

 Cycle   1  Pass 1  IDiag  1:
 FoFJK:  IHMeth= 1 ICntrl=       0 DoSepK=F KAlg= 0 I1Cent=   0 FoldK=F
 IRaf= 990000000 NMat=   1 IRICut=       1 DoRegI=T DoRafI=F ISym2E= 0.
 FoFCou: FMM=F IPFlag=           0 FMFlag=      100000 FMFlg1=           0
         NFxFlg=           0 DoJE=F BraDBF=F KetDBF=F FulRan=T
         wScrn=  0.000000 ICntrl=       0 IOpCl=  1 I1Cent=           0 NGrid=           0
         NMat0=    1 NMatS0=      1 NMatT0=    0 NMatD0=    1 NMtDS0=    0 NMtDT0=    0
 Symmetry not used in FoFCou.
 E= -192.319556645975    
 DIIS: error= 2.28D-02 at cycle   1 NSaved=   1.
 NSaved= 1 IEnMin= 1 EnMin= -192.319556645975     IErMin= 1 ErrMin= 2.28D-02
 ErrMax= 2.28D-02  0.00D+00 EMaxC= 1.00D-01 BMatC= 3.56D-01 BMatP= 3.56D-01
 IDIUse=3 WtCom= 7.72D-01 WtEn= 2.28D-01
 Coeff-Com:  0.100D+01
 Coeff-En:   0.100D+01
 Coeff:      0.100D+01
 Gap=     0.108 Goal=   None    Shift=    0.000
 Gap=     0.194 Goal=   None    Shift=    0.000
 GapD=    0.108 DampG=1.000 DampE=0.500 DampFc=0.5000 IDamp=-1.
 Damping current iteration by 5.00D-01
 RMSDP=7.73D-03 MaxDP=5.07D-01              OVMax= 1.95D-01

 Cycle   2  Pass 1  IDiag  1:
 RMSU=  3.50D-03    CP:  9.09D-01
 E= -192.349331431206     Delta-E=       -0.029774785230 Rises=F Damp=T
 DIIS: error= 8.16D-03 at cycle   2 NSaved=   2.
 NSaved= 2 IEnMin= 2 EnMin= -192.349331431206     IErMin= 2 ErrMin= 8.16D-03
 ErrMax= 8.16D-03  0.00D+00 EMaxC= 1.00D-01 BMatC= 4.13D-02 BMatP= 3.56D-01
 IDIUse=3 WtCom= 9.18D-01 WtEn= 8.16D-02
 Coeff-Com:  0.721D-01 0.928D+00
 Coeff-En:   0.205D+00 0.795D+00
 Coeff:      0.829D-01 0.917D+00
 Gap=     0.111 Goal=   None    Shift=    0.000
 Gap=     0.265 Goal=   None    Shift=    0.000
 RMSDP=2.58D-03 MaxDP=1.38D-01 DE=-2.98D-02 OVMax= 1.68D-01

 Cycle   3  Pass 1  IDiag  1:
 RMSU=  1.62D-03    CP:  8.59D-01  1.51D+00
 E= -192.386538319530     Delta-E=       -0.037206888324 Rises=F Damp=F
 DIIS: error= 1.07D-02 at cycle   3 NSaved=   3.
 NSaved= 3 IEnMin= 3 EnMin= -192.386538319530     IErMin= 2 ErrMin= 8.16D-03
 ErrMax= 1.07D-02  0.00D+00 EMaxC= 1.00D-01 BMatC= 5.43D-02 BMatP= 4.13D-02
 IDIUse=2 WtCom= 0.00D+00 WtEn= 1.00D+00
 Coeff-En:   0.000D+00 0.000D+00 0.100D+01
 Coeff:      0.000D+00 0.000D+00 0.100D+01
 Gap=     0.113 Goal=   None    Shift=    0.000
 Gap=     0.231 Goal=   None    Shift=    0.000
 RMSDP=3.21D-03 MaxDP=2.24D-01 DE=-3.72D-02 OVMax= 1.73D-01

 Cycle   4  Pass 1  IDiag  1:
 RMSU=  1.42D-03    CP:  7.70D-01  2.12D+00  3.20D-01
 E= -192.328779013021     Delta-E=        0.057759306509 Rises=F Damp=F
 DIIS: error= 2.17D-02 at cycle   4 NSaved=   4.
 NSaved= 4 IEnMin= 3 EnMin= -192.386538319530     IErMin= 2 ErrMin= 8.16D-03
 ErrMax= 2.17D-02  0.00D+00 EMaxC= 1.00D-01 BMatC= 2.72D-01 BMatP= 4.13D-02
 IDIUse=2 WtCom= 0.00D+00 WtEn= 1.00D+00
 Coeff-En:   0.000D+00 0.000D+00 0.774D+00 0.226D+00
 Coeff:      0.000D+00 0.000D+00 0.774D+00 0.226D+00
 Gap=     0.116 Goal=   None    Shift=    0.000
 Gap=     0.214 Goal=   None    Shift=    0.000
 RMSDP=1.32D-03 MaxDP=8.15D-02 DE= 5.78D-02 OVMax= 8.14D-02

 Cycle   5  Pass 1  IDiag  1:
 RMSU=  1.95D-04    CP:  8.02D-01  1.90D+00  7.44D-01  6.05D-01
 E= -192.396792846288     Delta-E=       -0.068013833267 Rises=F Damp=F
 DIIS: error= 5.82D-03 at cycle   5 NSaved=   5.
 NSaved= 5 IEnMin= 5 EnMin= -192.396792846288     IErMin= 5 ErrMin= 5.82D-03
 ErrMax= 5.82D-03  0.00D+00 EMaxC= 1.00D-01 BMatC= 1.87D-02 BMatP= 4.13D-02
 IDIUse=3 WtCom= 9.42D-01 WtEn= 5.82D-02
 Coeff-Com:  0.142D-02-0.283D-01 0.288D+00-0.785D-01 0.817D+00
 Coeff-En:   0.000D+00 0.000D+00 0.297D+00 0.000D+00 0.703D+00
 Coeff:      0.134D-02-0.266D-01 0.289D+00-0.739D-01 0.810D+00
 Gap=     0.118 Goal=   None    Shift=    0.000
 Gap=     0.220 Goal=   None    Shift=    0.000
 RMSDP=4.78D-04 MaxDP=3.14D-02 DE=-6.80D-02 OVMax= 3.12D-02

 Cycle   6  Pass 1  IDiag  1:
 RMSU=  8.34D-05    CP:  8.13D-01  1.82D+00  8.92D-01  4.58D-01  1.16D+00
 E= -192.401911560618     Delta-E=       -0.005118714330 Rises=F Damp=F
 DIIS: error= 4.46D-04 at cycle   6 NSaved=   6.
 NSaved= 6 IEnMin= 6 EnMin= -192.401911560618     IErMin= 6 ErrMin= 4.46D-04
 ErrMax= 4.46D-04  0.00D+00 EMaxC= 1.00D-01 BMatC= 5.23D-05 BMatP= 1.87D-02
 IDIUse=3 WtCom= 9.96D-01 WtEn= 4.46D-03
 Coeff-Com: -0.394D-03-0.767D-02 0.281D-01-0.479D-01 0.243D+00 0.785D+00
 Coeff-En:   0.000D+00 0.000D+00 0.000D+00 0.000D+00 0.000D+00 0.100D+01
 Coeff:     -0.393D-03-0.764D-02 0.279D-01-0.477D-01 0.242D+00 0.786D+00
 Gap=     0.119 Goal=   None    Shift=    0.000
 Gap=     0.220 Goal=   None    Shift=    0.000
 RMSDP=5.24D-05 MaxDP=3.54D-03 DE=-5.12D-03 OVMax= 1.20D-02

 Cycle   7  Pass 1  IDiag  1:
 RMSU=  4.30D-05    CP:  8.12D-01  1.83D+00  8.96D-01  4.66D-01  1.22D+00
                    CP:  1.04D+00
 E= -192.401951161987     Delta-E=       -0.000039601368 Rises=F Damp=F
 DIIS: error= 3.66D-04 at cycle   7 NSaved=   7.
 NSaved= 7 IEnMin= 7 EnMin= -192.401951161987     IErMin= 7 ErrMin= 3.66D-04
 ErrMax= 3.66D-04  0.00D+00 EMaxC= 1.00D-01 BMatC= 4.98D-05 BMatP= 5.23D-05
 IDIUse=3 WtCom= 9.96D-01 WtEn= 3.66D-03
 Coeff-Com: -0.714D-03 0.304D-02-0.555D-01-0.563D-02-0.754D-01 0.534D+00
 Coeff-Com:  0.600D+00
 Coeff-En:   0.000D+00 0.000D+00 0.000D+00 0.000D+00 0.000D+00 0.000D+00
 Coeff-En:   0.100D+01
 Coeff:     -0.712D-03 0.303D-02-0.553D-01-0.561D-02-0.751D-01 0.533D+00
 Coeff:      0.601D+00
 Gap=     0.119 Goal=   None    Shift=    0.000
 Gap=     0.220 Goal=   None    Shift=    0.000
 RMSDP=3.54D-05 MaxDP=2.28D-03 DE=-3.96D-05 OVMax= 4.00D-03

 Cycle   8  Pass 1  IDiag  1:
 RMSU=  2.77D-05    CP:  8.12D-01  1.83D+00  9.01D-01  4.67D-01  1.27D+00
                    CP:  1.23D+00  1.01D+00
 E= -192.401973710977     Delta-E=       -0.000022548990 Rises=F Damp=F
 DIIS: error= 1.28D-04 at cycle   8 NSaved=   8.
 NSaved= 8 IEnMin= 8 EnMin= -192.401973710977     IErMin= 8 ErrMin= 1.28D-04
 ErrMax= 1.28D-04  0.00D+00 EMaxC= 1.00D-01 BMatC= 6.29D-06 BMatP= 4.98D-05
 IDIUse=3 WtCom= 9.99D-01 WtEn= 1.28D-03
 Coeff-Com:  0.927D-04 0.220D-02-0.290D-01 0.238D-01-0.141D+00-0.280D-01
 Coeff-Com: -0.636D-01 0.124D+01
 Coeff-En:   0.000D+00 0.000D+00 0.000D+00 0.000D+00 0.000D+00 0.000D+00
 Coeff-En:   0.000D+00 0.100D+01
 Coeff:      0.926D-04 0.220D-02-0.289D-01 0.237D-01-0.141D+00-0.279D-01
 Coeff:     -0.635D-01 0.124D+01
 Gap=     0.119 Goal=   None    Shift=    0.000
 Gap=     0.220 Goal=   None    Shift=    0.000
 RMSDP=3.23D-05 MaxDP=2.07D-03 DE=-2.25D-05 OVMax= 7.00D-03

 Cycle   9  Pass 1  IDiag  1:
 RMSU=  1.26D-05    CP:  8.12D-01  1.82D+00  9.02D-01  4.66D-01  1.31D+00
                    CP:  1.42D+00  1.26D+00  1.70D+00
 E= -192.401983882178     Delta-E=       -0.000010171201 Rises=F Damp=F
 DIIS: error= 8.04D-05 at cycle   9 NSaved=   9.
 NSaved= 9 IEnMin= 9 EnMin= -192.401983882178     IErMin= 9 ErrMin= 8.04D-05
 ErrMax= 8.04D-05  0.00D+00 EMaxC= 1.00D-01 BMatC= 2.14D-06 BMatP= 6.29D-06
 IDIUse=1 WtCom= 1.00D+00 WtEn= 0.00D+00
 Coeff-Com:  0.152D-03 0.357D-03 0.465D-02 0.478D-02-0.943D-02-0.574D-01
 Coeff-Com: -0.262D+00 0.343D+00 0.976D+00
 Coeff:      0.152D-03 0.357D-03 0.465D-02 0.478D-02-0.943D-02-0.574D-01
 Coeff:     -0.262D+00 0.343D+00 0.976D+00
 Gap=     0.119 Goal=   None    Shift=    0.000
 Gap=     0.220 Goal=   None    Shift=    0.000
 RMSDP=1.31D-05 MaxDP=6.10D-04 DE=-1.02D-05 OVMax= 3.03D-03

 Cycle  10  Pass 1  IDiag  1:
 RMSU=  5.69D-06    CP:  8.12D-01  1.82D+00  9.02D-01  4.66D-01  1.32D+00
                    CP:  1.47D+00  1.35D+00  2.02D+00  1.22D+00
 E= -192.401985771167     Delta-E=       -0.000001888989 Rises=F Damp=F
 DIIS: error= 4.02D-05 at cycle  10 NSaved=  10.
 NSaved=10 IEnMin=10 EnMin= -192.401985771167     IErMin=10 ErrMin= 4.02D-05
 ErrMax= 4.02D-05  0.00D+00 EMaxC= 1.00D-01 BMatC= 8.16D-07 BMatP= 2.14D-06
 IDIUse=1 WtCom= 1.00D+00 WtEn= 0.00D+00
 Coeff-Com:  0.978D-04-0.190D-03 0.845D-02-0.153D-02 0.210D-01-0.233D-01
 Coeff-Com: -0.190D+00 0.112D-01 0.599D+00 0.575D+00
 Coeff:      0.978D-04-0.190D-03 0.845D-02-0.153D-02 0.210D-01-0.233D-01
 Coeff:     -0.190D+00 0.112D-01 0.599D+00 0.575D+00
 Gap=     0.119 Goal=   None    Shift=    0.000
 Gap=     0.220 Goal=   None    Shift=    0.000
 RMSDP=7.78D-06 MaxDP=6.35D-04 DE=-1.89D-06 OVMax= 1.05D-03

 Cycle  11  Pass 1  IDiag  1:
 RMSU=  2.84D-06    CP:  8.12D-01  1.82D+00  9.01D-01  4.65D-01  1.33D+00
                    CP:  1.49D+00  1.35D+00  2.20D+00  1.43D+00  8.66D-01
 E= -192.401986211966     Delta-E=       -0.000000440799 Rises=F Damp=F
 DIIS: error= 1.92D-05 at cycle  11 NSaved=  11.
 NSaved=11 IEnMin=11 EnMin= -192.401986211966     IErMin=11 ErrMin= 1.92D-05
 ErrMax= 1.92D-05  0.00D+00 EMaxC= 1.00D-01 BMatC= 1.38D-07 BMatP= 8.16D-07
 IDIUse=1 WtCom= 1.00D+00 WtEn= 0.00D+00
 Coeff-Com: -0.175D-05-0.224D-03 0.145D-02-0.190D-02 0.988D-02 0.192D-01
 Coeff-Com: -0.215D-01-0.674D-01-0.820D-01 0.160D+00 0.983D+00
 Coeff:     -0.175D-05-0.224D-03 0.145D-02-0.190D-02 0.988D-02 0.192D-01
 Coeff:     -0.215D-01-0.674D-01-0.820D-01 0.160D+00 0.983D+00
 Gap=     0.119 Goal=   None    Shift=    0.000
 Gap=     0.220 Goal=   None    Shift=    0.000
 RMSDP=4.09D-06 MaxDP=2.34D-04 DE=-4.41D-07 OVMax= 7.72D-04

 Cycle  12  Pass 1  IDiag  1:
 RMSU=  1.51D-06    CP:  8.12D-01  1.82D+00  9.01D-01  4.64D-01  1.33D+00
                    CP:  1.50D+00  1.36D+00  2.29D+00  1.55D+00  1.06D+00
                    CP:  1.06D+00
 E= -192.401986360059     Delta-E=       -0.000000148093 Rises=F Damp=F
 DIIS: error= 1.01D-05 at cycle  12 NSaved=  12.
 NSaved=12 IEnMin=12 EnMin= -192.401986360059     IErMin=12 ErrMin= 1.01D-05
 ErrMax= 1.01D-05  0.00D+00 EMaxC= 1.00D-01 BMatC= 2.97D-08 BMatP= 1.38D-07
 IDIUse=1 WtCom= 1.00D+00 WtEn= 0.00D+00
 Coeff-Com: -0.176D-04 0.355D-04-0.275D-02 0.104D-02-0.841D-02 0.860D-02
 Coeff-Com:  0.330D-01 0.338D-01-0.156D+00-0.223D+00-0.403D-01 0.135D+01
 Coeff:     -0.176D-04 0.355D-04-0.275D-02 0.104D-02-0.841D-02 0.860D-02
 Coeff:      0.330D-01 0.338D-01-0.156D+00-0.223D+00-0.403D-01 0.135D+01
 Gap=     0.119 Goal=   None    Shift=    0.000
 Gap=     0.220 Goal=   None    Shift=    0.000
 RMSDP=2.21D-06 MaxDP=1.48D-04 DE=-1.48D-07 OVMax= 5.06D-04

 Cycle  13  Pass 1  IDiag  1:
 RMSU=  6.29D-07    CP:  8.12D-01  1.82D+00  9.01D-01  4.64D-01  1.33D+00
                    CP:  1.51D+00  1.37D+00  2.33D+00  1.60D+00  1.16D+00
                    CP:  1.45D+00  1.48D+00
 E= -192.401986404729     Delta-E=       -0.000000044669 Rises=F Damp=F
 DIIS: error= 3.15D-06 at cycle  13 NSaved=  13.
 NSaved=13 IEnMin=13 EnMin= -192.401986404729     IErMin=13 ErrMin= 3.15D-06
 ErrMax= 3.15D-06  0.00D+00 EMaxC= 1.00D-01 BMatC= 2.89D-09 BMatP= 2.97D-08
 IDIUse=1 WtCom= 1.00D+00 WtEn= 0.00D+00
 Coeff-Com:  0.160D-05-0.564D-06-0.194D-03 0.361D-03-0.150D-02-0.512D-03
 Coeff-Com: -0.214D-03 0.519D-02 0.214D-01-0.326D-02-0.147D+00-0.742D-01
 Coeff-Com:  0.120D+01
 Coeff:      0.160D-05-0.564D-06-0.194D-03 0.361D-03-0.150D-02-0.512D-03
 Coeff:     -0.214D-03 0.519D-02 0.214D-01-0.326D-02-0.147D+00-0.742D-01
 Coeff:      0.120D+01
 Gap=     0.119 Goal=   None    Shift=    0.000
 Gap=     0.220 Goal=   None    Shift=    0.000
 RMSDP=5.93D-07 MaxDP=3.21D-05 DE=-4.47D-08 OVMax= 1.31D-04

 Cycle  14  Pass 1  IDiag  1:
 RMSU=  1.92D-07    CP:  8.12D-01  1.82D+00  9.01D-01  4.64D-01  1.33D+00
                    CP:  1.51D+00  1.37D+00  2.34D+00  1.61D+00  1.19D+00
                    CP:  1.51D+00  1.70D+00  1.30D+00
 E= -192.401986408652     Delta-E=       -0.000000003923 Rises=F Damp=F
 DIIS: error= 6.59D-07 at cycle  14 NSaved=  14.
 NSaved=14 IEnMin=14 EnMin= -192.401986408652     IErMin=14 ErrMin= 6.59D-07
 ErrMax= 6.59D-07  0.00D+00 EMaxC= 1.00D-01 BMatC= 1.63D-10 BMatP= 2.89D-09
 IDIUse=1 WtCom= 1.00D+00 WtEn= 0.00D+00
 Coeff-Com:  0.335D-06 0.367D-05 0.285D-03-0.976D-04 0.842D-03-0.616D-03
 Coeff-Com: -0.378D-02-0.436D-02 0.215D-01 0.268D-01-0.114D-01-0.185D+00
 Coeff-Com:  0.131D+00 0.103D+01
 Coeff:      0.335D-06 0.367D-05 0.285D-03-0.976D-04 0.842D-03-0.616D-03
 Coeff:     -0.378D-02-0.436D-02 0.215D-01 0.268D-01-0.114D-01-0.185D+00
 Coeff:      0.131D+00 0.103D+01
 Gap=     0.119 Goal=   None    Shift=    0.000
 Gap=     0.220 Goal=   None    Shift=    0.000
 RMSDP=1.57D-07 MaxDP=6.86D-06 DE=-3.92D-09 OVMax= 2.85D-05

 Cycle  15  Pass 1  IDiag  1:
 RMSU=  5.32D-08    CP:  8.12D-01  1.82D+00  9.01D-01  4.64D-01  1.33D+00
                    CP:  1.51D+00  1.37D+00  2.34D+00  1.62D+00  1.19D+00
                    CP:  1.52D+00  1.75D+00  1.43D+00  1.17D+00
 E= -192.401986408866     Delta-E=       -0.000000000214 Rises=F Damp=F
 DIIS: error= 1.63D-07 at cycle  15 NSaved=  15.
 NSaved=15 IEnMin=15 EnMin= -192.401986408866     IErMin=15 ErrMin= 1.63D-07
 ErrMax= 1.63D-07  0.00D+00 EMaxC= 1.00D-01 BMatC= 7.06D-12 BMatP= 1.63D-10
 IDIUse=1 WtCom= 1.00D+00 WtEn= 0.00D+00
 Coeff-Com: -0.378D-06 0.212D-05 0.216D-04-0.258D-04 0.119D-03-0.474D-04
 Coeff-Com: -0.389D-03 0.665D-04-0.156D-03 0.170D-02 0.584D-02-0.184D-02
 Coeff-Com: -0.536D-01 0.348D-01 0.101D+01
 Coeff:     -0.378D-06 0.212D-05 0.216D-04-0.258D-04 0.119D-03-0.474D-04
 Coeff:     -0.389D-03 0.665D-04-0.156D-03 0.170D-02 0.584D-02-0.184D-02
 Coeff:     -0.536D-01 0.348D-01 0.101D+01
 Gap=     0.119 Goal=   None    Shift=    0.000
 Gap=     0.220 Goal=   None    Shift=    0.000
 RMSDP=2.27D-08 MaxDP=1.03D-06 DE=-2.14D-10 OVMax= 2.35D-06

 Cycle  16  Pass 1  IDiag  1:
 RMSU=  1.14D-08    CP:  8.12D-01  1.82D+00  9.01D-01  4.64D-01  1.33D+00
                    CP:  1.51D+00  1.37D+00  2.34D+00  1.62D+00  1.19D+00
                    CP:  1.52D+00  1.75D+00  1.43D+00  1.23D+00  1.11D+00
 E= -192.401986408869     Delta-E=       -0.000000000003 Rises=F Damp=F
 DIIS: error= 3.95D-08 at cycle  16 NSaved=  16.
 NSaved=16 IEnMin=16 EnMin= -192.401986408869     IErMin=16 ErrMin= 3.95D-08
 ErrMax= 3.95D-08  0.00D+00 EMaxC= 1.00D-01 BMatC= 9.00D-13 BMatP= 7.06D-12
 IDIUse=1 WtCom= 1.00D+00 WtEn= 0.00D+00
 Coeff-Com:  0.101D-06-0.789D-06-0.704D-05 0.226D-05-0.223D-04 0.185D-04
 Coeff-Com:  0.804D-04 0.254D-03-0.123D-02-0.880D-03 0.116D-02 0.102D-01
 Coeff-Com: -0.174D-01-0.577D-01 0.190D+00 0.876D+00
 Coeff:      0.101D-06-0.789D-06-0.704D-05 0.226D-05-0.223D-04 0.185D-04
 Coeff:      0.804D-04 0.254D-03-0.123D-02-0.880D-03 0.116D-02 0.102D-01
 Coeff:     -0.174D-01-0.577D-01 0.190D+00 0.876D+00
 Gap=     0.119 Goal=   None    Shift=    0.000
 Gap=     0.220 Goal=   None    Shift=    0.000
 RMSDP=7.89D-09 MaxDP=4.50D-07 DE=-3.13D-12 OVMax= 8.40D-07

 SCF Done:  E(UB3LYP) =  -192.401986409     A.U. after   16 cycles
            NFock= 16  Conv=0.79D-08     -V/T= 2.0045
 <Sx>= 0.0000 <Sy>= 0.0000 <Sz>= 1.5000 <S**2>= 3.7593 S= 1.5023
 <L.S>= 0.000000000000E+00
 KE= 1.915458948971D+02 PE=-7.081722793611D+02 EE= 1.891096475378D+02
 Annihilation of the first spin contaminant:
 S**2 before annihilation     3.7593,   after     3.7500
 Leave Link  502 at Mon Jun 20 06:13:46 2016, MaxMem=    33554432 cpu:       762.1
 (Enter /home/proyectos/fulerenos/M3C-v1.9/M3C-deps_CCC/g09-AM64L-G09RevC.01/l801.exe)
 DoSCS=F DFT=T ScalE2(SS,OS)=  1.000000  1.000000
 Range of M.O.s used for correlation:     1   235
 NBasis=   235 NAE=    18 NBE=    15 NFC=     0 NFV=     0
 NROrb=    235 NOA=    18 NOB=    15 NVA=   217 NVB=   220

 **** Warning!!: The largest alpha MO coefficient is  0.12294135D+03


 **** Warning!!: The largest beta MO coefficient is  0.13747231D+03

 Leave Link  801 at Mon Jun 20 06:13:46 2016, MaxMem=    33554432 cpu:         0.1
 (Enter /home/proyectos/fulerenos/M3C-v1.9/M3C-deps_CCC/g09-AM64L-G09RevC.01/l1101.exe)
 Using compressed storage, NAtomX=     9.
 Will process     10 centers per pass.
 Leave Link 1101 at Mon Jun 20 06:13:47 2016, MaxMem=    33554432 cpu:         2.2
 (Enter /home/proyectos/fulerenos/M3C-v1.9/M3C-deps_CCC/g09-AM64L-G09RevC.01/l1102.exe)
 Symmetrizing basis deriv contribution to polar:
 IMax=3 JMax=2 DiffMx= 0.00D+00
 Leave Link 1102 at Mon Jun 20 06:13:47 2016, MaxMem=    33554432 cpu:         0.4
 (Enter /home/proyectos/fulerenos/M3C-v1.9/M3C-deps_CCC/g09-AM64L-G09RevC.01/l1110.exe)
 Forming Gx(P) for the SCF density, NAtomX=     9.
 Integral derivatives from FoFJK, PRISM(SPDF).
 Do as many integral derivatives as possible in FoFJK.
 G2DrvN: MDV=      33554256.
 G2DrvN: will do    10 centers at a time, making    1 passes.
 Calling FoFCou, ICntrl=  3107 FMM=F I1Cent=   0 AccDes= 0.00D+00.
 FoFJK:  IHMeth= 1 ICntrl=    3107 DoSepK=F KAlg= 0 I1Cent=   0 FoldK=F
 IRaf=         0 NMat=   1 IRICut=       1 DoRegI=T DoRafI=F ISym2E= 0.
 FoFCou: FMM=F IPFlag=           0 FMFlag=      100000 FMFlg1=           0
         NFxFlg=           0 DoJE=F BraDBF=F KetDBF=F FulRan=T
         wScrn=  0.000000 ICntrl=    3107 IOpCl=  1 I1Cent=           0 NGrid=           0
         NMat0=    1 NMatS0=      1 NMatT0=    0 NMatD0=    1 NMtDS0=    0 NMtDT0=    0
 Symmetry not used in FoFCou.
 End of G2Drv F.D. properties file   721 does not exist.
 End of G2Drv F.D. properties file   722 does not exist.
 End of G2Drv F.D. properties file   788 does not exist.
 Leave Link 1110 at Mon Jun 20 06:16:01 2016, MaxMem=    33554432 cpu:       532.5
 (Enter /home/proyectos/fulerenos/M3C-v1.9/M3C-deps_CCC/g09-AM64L-G09RevC.01/l1002.exe)
 Minotr:  UHF open shell wavefunction.
          IDoAtm=111111111
          Direct CPHF calculation.
          Differentiating once with respect to electric field.
                with respect to dipole field.
          Differentiating once with respect to nuclear coordinates.
          Requested convergence is 1.0D-08 RMS, and 1.0D-07 maximum.
          Secondary convergence is 1.0D-12 RMS, and 1.0D-12 maximum.
          NewPWx=T KeepS1=F KeepF1=F KeepIn=T MapXYZ=F SortEE=F KeepMc=T.
          MDV=      33553868 using IRadAn=       2.
 Generate precomputed XC quadrature information.
          Solving linear equations simultaneously, MaxMat=       0.
 FoFJK:  IHMeth= 1 ICntrl=       0 DoSepK=F KAlg= 0 I1Cent=   0 FoldK=F
 IRaf= 990000000 NMat=  30 IRICut=      75 DoRegI=T DoRafI=T ISym2E= 2.
 FoFCou: FMM=F IPFlag=           0 FMFlag=      100000 FMFlg1=           0
         NFxFlg=           0 DoJE=F BraDBF=F KetDBF=F FulRan=T
         wScrn=  0.000000 ICntrl=       0 IOpCl=  1 I1Cent=           0 NGrid=           0
         NMat0=   30 NMatS0=     30 NMatT0=    0 NMatD0=   30 NMtDS0=    0 NMtDT0=    0
 Integrals replicated using symmetry in FoFCou.
          There are    30 degrees of freedom in the 1st order CPHF.  IDoFFX=6 NUNeed=     3.
     27 vectors produced by pass  0 Test12= 2.40D-14 3.33D-09 XBig12= 1.46D+02 6.18D+00.
 AX will form    27 AO Fock derivatives at one time.
     27 vectors produced by pass  1 Test12= 2.40D-14 3.33D-09 XBig12= 3.90D+01 1.08D+00.
     27 vectors produced by pass  2 Test12= 2.40D-14 3.33D-09 XBig12= 1.14D+00 1.89D-01.
     27 vectors produced by pass  3 Test12= 2.40D-14 3.33D-09 XBig12= 1.43D-02 2.51D-02.
     27 vectors produced by pass  4 Test12= 2.40D-14 3.33D-09 XBig12= 1.06D-04 1.54D-03.
     27 vectors produced by pass  5 Test12= 2.40D-14 3.33D-09 XBig12= 5.83D-07 1.24D-04.
     26 vectors produced by pass  6 Test12= 2.40D-14 3.33D-09 XBig12= 2.49D-09 6.38D-06.
      9 vectors produced by pass  7 Test12= 2.40D-14 3.33D-09 XBig12= 9.82D-12 3.76D-07.
      4 vectors produced by pass  8 Test12= 2.40D-14 3.33D-09 XBig12= 3.86D-13 1.07D-07.
      3 vectors produced by pass  9 Test12= 2.40D-14 3.33D-09 XBig12= 1.25D-14 2.64D-08.
      2 vectors produced by pass 10 Test12= 2.40D-14 3.33D-09 XBig12= 8.07D-16 4.76D-09.
 InvSVY:  IOpt=1 It=  1 EMax= 3.55D-15
 Solved reduced A of dimension   206 with    30 vectors.
 FullF1:  Do perturbations    1 to     3.
 Isotropic polarizability for W=    0.000000       48.18 Bohr**3.
 End of Minotr F.D. properties file   721 does not exist.
 End of Minotr F.D. properties file   722 does not exist.
 End of Minotr F.D. properties file   788 does not exist.
 Leave Link 1002 at Mon Jun 20 06:24:01 2016, MaxMem=    33554432 cpu:      1918.8
 (Enter /home/proyectos/fulerenos/M3C-v1.9/M3C-deps_CCC/g09-AM64L-G09RevC.01/l601.exe)
 Copying SCF densities to generalized density rwf, IOpCl= 1 IROHF=0.

 **********************************************************************

            Population analysis using the SCF density.

 **********************************************************************

 Orbital symmetries:
 Alpha Orbitals:
       Occupied  (A) (A) (A) (A) (A) (A) (A) (A) (A) (A) (A) (A)
                 (A) (A) (A) (A) (A) (A)
       Virtual   (A) (A) (A) (A) (A) (A) (A) (A) (A) (A) (A) (A)
                 (A) (A) (A) (A) (A) (A) (A) (A) (A) (A) (A) (A)
                 (A) (A) (A) (A) (A) (A) (A) (A) (A) (A) (A) (A)
                 (A) (A) (A) (A) (A) (A) (A) (A) (A) (A) (A) (A)
                 (A) (A) (A) (A) (A) (A) (A) (A) (A) (A) (A) (A)
                 (A) (A) (A) (A) (A) (A) (A) (A) (A) (A) (A) (A)
                 (A) (A) (A) (A) (A) (A) (A) (A) (A) (A) (A) (A)
                 (A) (A) (A) (A) (A) (A) (A) (A) (A) (A) (A) (A)
                 (A) (A) (A) (A) (A) (A) (A) (A) (A) (A) (A) (A)
                 (A) (A) (A) (A) (A) (A) (A) (A) (A) (A) (A) (A)
                 (A) (A) (A) (A) (A) (A) (A) (A) (A) (A) (A) (A)
                 (A) (A) (A) (A) (A) (A) (A) (A) (A) (A) (A) (A)
                 (A) (A) (A) (A) (A) (A) (A) (A) (A) (A) (A) (A)
                 (A) (A) (A) (A) (A) (A) (A) (A) (A) (A) (A) (A)
                 (A) (A) (A) (A) (A) (A) (A) (A) (A) (A) (A) (A)
                 (A) (A) (A) (A) (A) (A) (A) (A) (A) (A) (A) (A)
                 (A) (A) (A) (A) (A) (A) (A) (A) (A) (A) (A) (A)
                 (A) (A) (A) (A) (A) (A) (A) (A) (A) (A) (A) (A)
                 (A)
 Beta  Orbitals:
       Occupied  (A) (A) (A) (A) (A) (A) (A) (A) (A) (A) (A) (A)
                 (A) (A) (A)
       Virtual   (A) (A) (A) (A) (A) (A) (A) (A) (A) (A) (A) (A)
                 (A) (A) (A) (A) (A) (A) (A) (A) (A) (A) (A) (A)
                 (A) (A) (A) (A) (A) (A) (A) (A) (A) (A) (A) (A)
                 (A) (A) (A) (A) (A) (A) (A) (A) (A) (A) (A) (A)
                 (A) (A) (A) (A) (A) (A) (A) (A) (A) (A) (A) (A)
                 (A) (A) (A) (A) (A) (A) (A) (A) (A) (A) (A) (A)
                 (A) (A) (A) (A) (A) (A) (A) (A) (A) (A) (A) (A)
                 (A) (A) (A) (A) (A) (A) (A) (A) (A) (A) (A) (A)
                 (A) (A) (A) (A) (A) (A) (A) (A) (A) (A) (A) (A)
                 (A) (A) (A) (A) (A) (A) (A) (A) (A) (A) (A) (A)
                 (A) (A) (A) (A) (A) (A) (A) (A) (A) (A) (A) (A)
                 (A) (A) (A) (A) (A) (A) (A) (A) (A) (A) (A) (A)
                 (A) (A) (A) (A) (A) (A) (A) (A) (A) (A) (A) (A)
                 (A) (A) (A) (A) (A) (A) (A) (A) (A) (A) (A) (A)
                 (A) (A) (A) (A) (A) (A) (A) (A) (A) (A) (A) (A)
                 (A) (A) (A) (A) (A) (A) (A) (A) (A) (A) (A) (A)
                 (A) (A) (A) (A) (A) (A) (A) (A) (A) (A) (A) (A)
                 (A) (A) (A) (A) (A) (A) (A) (A) (A) (A) (A) (A)
                 (A) (A) (A) (A)
 The electronic state is 4-A.
 Alpha  occ. eigenvalues --  -10.51177 -10.50755 -10.49903 -10.47738 -10.39654
 Alpha  occ. eigenvalues --   -1.19231  -0.99780  -0.92268  -0.84187  -0.73819
 Alpha  occ. eigenvalues --   -0.70555  -0.68786  -0.68013  -0.61480  -0.61455
 Alpha  occ. eigenvalues --   -0.54441  -0.52641  -0.46920
 Alpha virt. eigenvalues --   -0.35003  -0.19179  -0.15739  -0.13712  -0.11950
 Alpha virt. eigenvalues --   -0.10887  -0.10655  -0.09934  -0.08366  -0.07712
 Alpha virt. eigenvalues --   -0.06308  -0.05845  -0.05644  -0.04560  -0.02851
 Alpha virt. eigenvalues --   -0.02100  -0.01608  -0.00860  -0.00741   0.00108
 Alpha virt. eigenvalues --    0.01227   0.01531   0.01734   0.03320   0.03516
 Alpha virt. eigenvalues --    0.04921   0.06050   0.06443   0.07550   0.08494
 Alpha virt. eigenvalues --    0.09745   0.11490   0.11662   0.14906   0.14935
 Alpha virt. eigenvalues --    0.15291   0.18406   0.19253   0.20535   0.22546
 Alpha virt. eigenvalues --    0.24914   0.26477   0.26758   0.27247   0.29056
 Alpha virt. eigenvalues --    0.29575   0.32195   0.32853   0.33568   0.33641
 Alpha virt. eigenvalues --    0.35217   0.35369   0.37577   0.38353   0.39350
 Alpha virt. eigenvalues --    0.41219   0.42766   0.43694   0.46475   0.47563
 Alpha virt. eigenvalues --    0.49296   0.50398   0.51300   0.53868   0.55347
 Alpha virt. eigenvalues --    0.55380   0.56386   0.58459   0.58694   0.61659
 Alpha virt. eigenvalues --    0.64084   0.69659   0.72328   0.72660   0.74647
 Alpha virt. eigenvalues --    0.78167   0.82058   0.86540   0.87297   0.88885
 Alpha virt. eigenvalues --    0.91090   0.92466   0.95761   0.96628   0.96671
 Alpha virt. eigenvalues --    0.98069   1.02247   1.05362   1.06367   1.11037
 Alpha virt. eigenvalues --    1.12262   1.14120   1.15361   1.18565   1.19808
 Alpha virt. eigenvalues --    1.20180   1.28777   1.30159   1.32833   1.34397
 Alpha virt. eigenvalues --    1.36401   1.45503   1.49458   1.49741   1.51190
 Alpha virt. eigenvalues --    1.56178   1.59145   1.67808   1.71852   1.72518
 Alpha virt. eigenvalues --    1.75589   1.78705   1.82431   1.88830   1.89522
 Alpha virt. eigenvalues --    1.94796   1.95822   2.02325   2.04636   2.18828
 Alpha virt. eigenvalues --    2.23531   2.31099   2.35798   2.37651   2.44975
 Alpha virt. eigenvalues --    2.46244   2.49825   2.51647   2.54001   2.55647
 Alpha virt. eigenvalues --    2.60384   2.62410   2.67721   2.68036   2.70648
 Alpha virt. eigenvalues --    2.73410   2.74828   2.76861   2.78488   2.83576
 Alpha virt. eigenvalues --    2.87814   2.88303   2.91031   2.93175   2.94540
 Alpha virt. eigenvalues --    3.01576   3.05765   3.06544   3.07375   3.15039
 Alpha virt. eigenvalues --    3.16366   3.23644   3.32719   3.35576   3.36107
 Alpha virt. eigenvalues --    3.39421   3.52129   3.55469   3.56448   3.59947
 Alpha virt. eigenvalues --    3.70508   3.72821   3.81054   3.81947   3.90229
 Alpha virt. eigenvalues --    3.94271   3.97278   4.05371   4.06425   4.10787
 Alpha virt. eigenvalues --    4.12387   4.16147   4.20071   4.21174   4.23252
 Alpha virt. eigenvalues --    4.34909   4.45256   4.50387   4.59038   4.65320
 Alpha virt. eigenvalues --    4.70458   4.82120   5.42932   5.52644   5.53095
 Alpha virt. eigenvalues --    5.66786   5.99028   6.68260   6.76260   6.81592
 Alpha virt. eigenvalues --    6.81688   6.89513   6.90010   6.93218   7.01838
 Alpha virt. eigenvalues --    7.06440   7.08493   7.09291   7.16084   7.20640
 Alpha virt. eigenvalues --    7.29159   7.35064   7.43255   7.52995   7.59115
 Alpha virt. eigenvalues --    7.74168   7.79759   7.86681   7.90612   8.12594
 Alpha virt. eigenvalues --    8.39734   8.88138  23.66288  24.15246  24.45471
 Alpha virt. eigenvalues --   25.06053  25.28351
  Beta  occ. eigenvalues --  -10.50280 -10.49216 -10.47446 -10.46923 -10.39583
  Beta  occ. eigenvalues --   -1.15748  -0.98603  -0.88305  -0.81175  -0.70376
  Beta  occ. eigenvalues --   -0.68185  -0.66080  -0.65607  -0.60273  -0.58474
  Beta virt. eigenvalues --   -0.36436  -0.35849  -0.35014  -0.30956  -0.15469
  Beta virt. eigenvalues --   -0.13907  -0.12781  -0.11019  -0.10546  -0.09725
  Beta virt. eigenvalues --   -0.09251  -0.07736  -0.07382  -0.06009  -0.04858
  Beta virt. eigenvalues --   -0.04742  -0.04308  -0.02408  -0.01810  -0.01227
  Beta virt. eigenvalues --   -0.00528  -0.00225   0.00534   0.01754   0.01928
  Beta virt. eigenvalues --    0.02318   0.03714   0.03916   0.05280   0.06636
  Beta virt. eigenvalues --    0.07434   0.08071   0.09745   0.11024   0.12486
  Beta virt. eigenvalues --    0.13752   0.15596   0.15857   0.16114   0.18661
  Beta virt. eigenvalues --    0.19868   0.21263   0.23104   0.25614   0.27587
  Beta virt. eigenvalues --    0.27972   0.29806   0.30827   0.31119   0.33448
  Beta virt. eigenvalues --    0.34410   0.34848   0.35294   0.37260   0.37430
  Beta virt. eigenvalues --    0.39042   0.39341   0.41213   0.41953   0.42975
  Beta virt. eigenvalues --    0.44388   0.47761   0.49099   0.50392   0.51366
  Beta virt. eigenvalues --    0.52596   0.55169   0.56190   0.56205   0.57874
  Beta virt. eigenvalues --    0.59315   0.60373   0.62559   0.64629   0.70534
  Beta virt. eigenvalues --    0.73079   0.73561   0.75662   0.78777   0.83226
  Beta virt. eigenvalues --    0.87298   0.87999   0.90079   0.91884   0.93090
  Beta virt. eigenvalues --    0.96032   0.97180   0.97625   0.99126   1.03636
  Beta virt. eigenvalues --    1.06858   1.07717   1.13214   1.13632   1.16279
  Beta virt. eigenvalues --    1.17464   1.18908   1.23002   1.23233   1.31109
  Beta virt. eigenvalues --    1.31722   1.33174   1.36320   1.38238   1.49073
  Beta virt. eigenvalues --    1.51515   1.52633   1.53914   1.59421   1.63169
  Beta virt. eigenvalues --    1.70749   1.75485   1.77471   1.79320   1.81626
  Beta virt. eigenvalues --    1.84388   1.90799   1.91140   1.98442   1.99252
  Beta virt. eigenvalues --    2.05487   2.07713   2.21568   2.25137   2.33121
  Beta virt. eigenvalues --    2.38759   2.39537   2.47098   2.47487   2.51935
  Beta virt. eigenvalues --    2.53666   2.57377   2.57444   2.63535   2.65627
  Beta virt. eigenvalues --    2.69047   2.71843   2.73901   2.76999   2.78025
  Beta virt. eigenvalues --    2.79959   2.81753   2.85968   2.89047   2.90834
  Beta virt. eigenvalues --    2.94809   2.95748   2.96172   3.03787   3.07625
  Beta virt. eigenvalues --    3.07656   3.08680   3.18541   3.20039   3.26278
  Beta virt. eigenvalues --    3.35606   3.36760   3.37596   3.41257   3.55208
  Beta virt. eigenvalues --    3.57767   3.58498   3.61659   3.72608   3.75357
  Beta virt. eigenvalues --    3.83316   3.84718   3.92572   3.96702   4.00846
  Beta virt. eigenvalues --    4.06720   4.07157   4.12656   4.13388   4.16974
  Beta virt. eigenvalues --    4.20610   4.23269   4.24867   4.36040   4.46510
  Beta virt. eigenvalues --    4.52014   4.61386   4.66883   4.72248   4.84364
  Beta virt. eigenvalues --    5.44077   5.53224   5.53301   5.68970   6.00999
  Beta virt. eigenvalues --    6.72806   6.82164   6.84857   6.85985   6.93006
  Beta virt. eigenvalues --    6.94696   6.97392   7.04511   7.07094   7.13307
  Beta virt. eigenvalues --    7.14204   7.19836   7.23806   7.32666   7.38495
  Beta virt. eigenvalues --    7.47197   7.55823   7.61685   7.76670   7.81901
  Beta virt. eigenvalues --    7.86954   7.92299   8.16073   8.42790   8.91314
  Beta virt. eigenvalues --   23.67885  24.16201  24.46658  25.07550  25.30010
          Condensed to atoms (all electrons):
               1          2          3          4          5          6
     1  C    5.737652   0.403149   0.403617   0.428209   0.114566  -0.069029
     2  H    0.403149   0.454683  -0.018304  -0.013690   0.002245  -0.038506
     3  H    0.403617  -0.018304   0.454674  -0.013702   0.002238  -0.038838
     4  H    0.428209  -0.013690  -0.013702   0.451468  -0.007578  -0.072730
     5  C    0.114566   0.002245   0.002238  -0.007578   7.541785   0.697758
     6  C   -0.069029  -0.038506  -0.038838  -0.072730   0.697758   7.422068
     7  C   -0.344901   0.005330   0.005272   0.023679  -1.051400  -1.777298
     8  C   -0.253260  -0.006407  -0.006416   0.013181  -1.253675  -0.370776
     9  H    0.004789   0.000499   0.000490   0.000105  -0.057400  -0.034377
               7          8          9
     1  C   -0.344901  -0.253260   0.004789
     2  H    0.005330  -0.006407   0.000499
     3  H    0.005272  -0.006416   0.000490
     4  H    0.023679   0.013181   0.000105
     5  C   -1.051400  -1.253675  -0.057400
     6  C   -1.777298  -0.370776  -0.034377
     7  C    8.456368   0.554155   0.019381
     8  C    0.554155   6.864728   0.364998
     9  H    0.019381   0.364998   0.385828
          Atomic-Atomic Spin Densities.
               1          2          3          4          5          6
     1  C    0.103611  -0.003023  -0.003160   0.014762  -0.013506  -0.082246
     2  H   -0.003023   0.013100  -0.003912  -0.000068   0.001670   0.004208
     3  H   -0.003160  -0.003912   0.013070  -0.000069   0.001637   0.004245
     4  H    0.014762  -0.000068  -0.000069   0.005264   0.001341  -0.012593
     5  C   -0.013506   0.001670   0.001637   0.001341   2.178197   0.520551
     6  C   -0.082246   0.004208   0.004245  -0.012593   0.520551   0.914875
     7  C    0.058436  -0.004420  -0.004348   0.000600  -0.872067  -0.782239
     8  C    0.007188   0.001121   0.001172  -0.001958  -0.806816  -0.447217
     9  H   -0.016221   0.000211   0.000223  -0.000265   0.010737   0.013937
               7          8          9
     1  C    0.058436   0.007188  -0.016221
     2  H   -0.004420   0.001121   0.000211
     3  H   -0.004348   0.001172   0.000223
     4  H    0.000600  -0.001958  -0.000265
     5  C   -0.872067  -0.806816   0.010737
     6  C   -0.782239  -0.447217   0.013937
     7  C    2.460623   0.485670  -0.010263
     8  C    0.485670   1.155262  -0.000689
     9  H   -0.010263  -0.000689   0.030738
 Mulliken charges and spin densities:
               1          2
     1  C   -0.424793   0.065842
     2  H    0.211002   0.008888
     3  H    0.210970   0.008858
     4  H    0.191058   0.007015
     5  C    0.011462   1.021745
     6  C    0.281729   0.133521
     7  C    0.109414   1.331992
     8  C    0.093471   0.393733
     9  H    0.315687   0.028406
 Sum of Mulliken charges =   1.00000   3.00000
 Mulliken charges and spin densities with hydrogens summed into heavy atoms:
               1          2
     1  C    0.188237   0.090603
     5  C    0.011462   1.021745
     6  C    0.281729   0.133521
     7  C    0.109414   1.331992
     8  C    0.409159   0.422140
 APT charges:
               1
     1  C   -0.164974
     2  H    0.112703
     3  H    0.112873
     4  H    0.076884
     5  C    0.329273
     6  C    0.358809
     7  C    0.045717
     8  C   -0.079215
     9  H    0.207930
 Sum of APT charges =   1.00000
 APT charges with hydrogens summed into heavy atoms:
               1
     1  C    0.137486
     5  C    0.329273
     6  C    0.358809
     7  C    0.045717
     8  C    0.128715
 Electronic spatial extent (au):  <R**2>=            324.5639
 Charge=              1.0000 electrons
 Dipole moment (field-independent basis, Debye):
    X=             -0.5695    Y=              1.2934    Z=              0.0000  Tot=              1.4132
 Quadrupole moment (field-independent basis, Debye-Ang):
   XX=            -16.4284   YY=            -21.2358   ZZ=            -26.6658
   XY=              0.5418   XZ=             -0.0006   YZ=             -0.0009
 Traceless Quadrupole moment (field-independent basis, Debye-Ang):
   XX=              5.0150   YY=              0.2075   ZZ=             -5.2225
   XY=              0.5418   XZ=             -0.0006   YZ=             -0.0009
 Octapole moment (field-independent basis, Debye-Ang**2):
  XXX=            -13.5798  YYY=              9.3674  ZZZ=              0.0033  XYY=              0.8474
  XXY=              1.6073  XXZ=             -0.0021  XZZ=             -3.3144  YZZ=              1.5891
  YYZ=             -0.0046  XYZ=              0.0001
 Hexadecapole moment (field-independent basis, Debye-Ang**3):
 XXXX=           -256.6024 YYYY=            -90.5828 ZZZZ=            -33.1459 XXXY=              1.0807
 XXXZ=              0.0093 YYYX=              9.5188 YYYZ=             -0.0074 ZZZX=             -0.0073
 ZZZY=              0.0008 XXYY=            -59.0753 XXZZ=            -50.5314 YYZZ=            -24.0634
 XXYZ=             -0.0043 YYXZ=              0.0024 ZZXY=             -2.7123
 N-N= 1.351147505173D+02 E-N=-7.081722777711D+02  KE= 1.915458948971D+02
  Exact polarizability:  64.311  -0.993  48.186  -0.001   0.001  32.047
 Approx polarizability:  98.746  -8.675  83.067  -0.003   0.004  48.436
                          Isotropic Fermi Contact Couplings
        Atom                 a.u.       MegaHertz       Gauss      10(-4) cm-1
     1  C(13)              0.01734       6.49940       2.31915       2.16797
     2  H(1)               0.00405       6.02965       2.15153       2.01127
     3  H(1)               0.00403       6.01060       2.14473       2.00492
     4  H(1)               0.00184       2.73691       0.97660       0.91293
     5  C(13)              0.53293     199.70636      71.26019      66.61487
     6  C(13)              0.10095      37.83064      13.49891      12.61894
     7  C(13)              0.62164     232.94825      83.12173      77.70317
     8  C(13)              0.11931      44.70934      15.95340      14.91343
     9  H(1)               0.01423      21.19778       7.56389       7.07082
 --------------------------------------------------------
       Center         ----  Spin Dipole Couplings  ----
                      3XX-RR        3YY-RR        3ZZ-RR
 --------------------------------------------------------
     1   Atom        0.083057     -0.042424     -0.040632
     2   Atom        0.012894     -0.005341     -0.007553
     3   Atom        0.012890     -0.005319     -0.007571
     4   Atom        0.022246     -0.007165     -0.015081
     5   Atom        0.920889     -0.523895     -0.396994
     6   Atom       -0.035163     -0.022159      0.057321
     7   Atom       -0.683454      0.667729      0.015725
     8   Atom       -0.158929     -0.179546      0.338475
     9   Atom       -0.041583      0.064537     -0.022954
 --------------------------------------------------------
                        XY            XZ            YZ
 --------------------------------------------------------
     1   Atom       -0.013435     -0.000041      0.000003
     2   Atom       -0.009885     -0.009108      0.006128
     3   Atom       -0.009893      0.009087     -0.006120
     4   Atom        0.001847      0.000004      0.000004
     5   Atom       -0.045618     -0.000049     -0.000121
     6   Atom       -0.040581     -0.000010      0.000067
     7   Atom        0.105189      0.000010      0.000089
     8   Atom       -0.034750     -0.000045      0.000167
     9   Atom       -0.014021      0.000002     -0.000030
 --------------------------------------------------------


 ---------------------------------------------------------------------------------
              Anisotropic Spin Dipole Couplings in Principal Axis System
 ---------------------------------------------------------------------------------

       Atom             a.u.   MegaHertz   Gauss  10(-4) cm-1        Axes

              Baa    -0.0438    -5.884    -2.099    -1.963  0.1053  0.9944  0.0004
     1 C(13)  Bbb    -0.0406    -5.452    -1.946    -1.819  0.0003 -0.0005  1.0000
              Bcc     0.0845    11.336     4.045     3.781  0.9944 -0.1053 -0.0003
 
              Baa    -0.0127    -6.783    -2.420    -2.262  0.0579 -0.5912  0.8045
     2 H(1)   Bbb    -0.0086    -4.575    -1.633    -1.526  0.5265  0.7027  0.4785
              Bcc     0.0213    11.358     4.053     3.789  0.8482 -0.3959 -0.3520
 
              Baa    -0.0127    -6.779    -2.419    -2.261 -0.0581  0.5896  0.8056
     3 H(1)   Bbb    -0.0086    -4.573    -1.632    -1.525  0.5264  0.7038 -0.4770
              Bcc     0.0213    11.352     4.051     3.787  0.8482 -0.3964  0.3513
 
              Baa    -0.0151    -8.047    -2.871    -2.684 -0.0001 -0.0005  1.0000
     4 H(1)   Bbb    -0.0073    -3.885    -1.386    -1.296 -0.0624  0.9981  0.0005
              Bcc     0.0224    11.931     4.257     3.980  0.9981  0.0624  0.0001
 
              Baa    -0.5253   -70.495   -25.154   -23.515  0.0315  0.9995  0.0010
     5 C(13)  Bbb    -0.3970   -53.273   -19.009   -17.770  0.0000 -0.0010  1.0000
              Bcc     0.9223   123.768    44.163    41.284  0.9995 -0.0315 -0.0000
 
              Baa    -0.0698    -9.361    -3.340    -3.123  0.7610  0.6488 -0.0003
     6 C(13)  Bbb     0.0124     1.669     0.596     0.557 -0.6488  0.7610 -0.0013
              Bcc     0.0573     7.692     2.745     2.566 -0.0006  0.0011  1.0000
 
              Baa    -0.6916   -92.805   -33.115   -30.957  0.9970 -0.0772 -0.0000
     7 C(13)  Bbb     0.0157     2.110     0.753     0.704 -0.0000 -0.0001  1.0000
              Bcc     0.6759    90.695    32.362    30.253  0.0772  0.9970  0.0001
 
              Baa    -0.2055   -27.574    -9.839    -9.198  0.5982  0.8014 -0.0002
     8 C(13)  Bbb    -0.1330   -17.846    -6.368    -5.953  0.8014 -0.5982  0.0003
              Bcc     0.3385    45.420    16.207    15.151 -0.0001  0.0003  1.0000
 
              Baa    -0.0434   -23.159    -8.264    -7.725  0.9917  0.1288  0.0001
     9 H(1)   Bbb    -0.0230   -12.247    -4.370    -4.085 -0.0001  0.0003  1.0000
              Bcc     0.0664    35.406    12.634    11.810 -0.1288  0.9917 -0.0003
 

 ---------------------------------------------------------------------------------

 No NMR shielding tensors so no spin-rotation constants.
 Leave Link  601 at Mon Jun 20 06:24:01 2016, MaxMem=    33554432 cpu:         2.0
 (Enter /home/proyectos/fulerenos/M3C-v1.9/M3C-deps_CCC/g09-AM64L-G09RevC.01/l701.exe)
 Compute integral second derivatives.
 ... and contract with generalized density number  0.
 Leave Link  701 at Mon Jun 20 06:24:02 2016, MaxMem=    33554432 cpu:         1.7
 (Enter /home/proyectos/fulerenos/M3C-v1.9/M3C-deps_CCC/g09-AM64L-G09RevC.01/l702.exe)
 L702 exits ... SP integral derivatives will be done elsewhere.
 Leave Link  702 at Mon Jun 20 06:24:02 2016, MaxMem=    33554432 cpu:         0.1
 (Enter /home/proyectos/fulerenos/M3C-v1.9/M3C-deps_CCC/g09-AM64L-G09RevC.01/l703.exe)
 Compute integral second derivatives, UseDBF=F ICtDFT=           0.
 Integral derivatives from FoFJK, PRISM(SPDF).
 Calling FoFJK, ICntrl=    100127 FMM=F ISym2X=0 I1Cent= 0 IOpClX= 1 NMat=1 NMatS=1 NMatT=0.
 FoFJK:  IHMeth= 1 ICntrl=  100127 DoSepK=F KAlg= 0 I1Cent=   0 FoldK=F
 IRaf=         0 NMat=   1 IRICut=       1 DoRegI=T DoRafI=F ISym2E= 0.
 FoFCou: FMM=F IPFlag=           0 FMFlag=      100000 FMFlg1=         800
         NFxFlg=           0 DoJE=F BraDBF=F KetDBF=F FulRan=T
         wScrn=  0.000000 ICntrl=  100127 IOpCl=  1 I1Cent=           0 NGrid=           0
         NMat0=    1 NMatS0=      1 NMatT0=    0 NMatD0=    1 NMtDS0=    0 NMtDT0=    0
 Symmetry not used in FoFCou.
 Leave Link  703 at Mon Jun 20 06:27:21 2016, MaxMem=    33554432 cpu:       797.9
 (Enter /home/proyectos/fulerenos/M3C-v1.9/M3C-deps_CCC/g09-AM64L-G09RevC.01/l716.exe)
 Dipole        =-2.24039148D-01 5.08857260D-01 1.32057673D-05
 Polarizability= 6.43105866D+01-9.92875459D-01 4.81862313D+01
                -9.93628658D-04 6.31906798D-04 3.20472728D+01
 Full mass-weighted force constant matrix:
 Low frequencies ---  -17.0068  -11.8558   -0.0005   -0.0002    0.0005    4.7628
 Low frequencies ---  114.4895  246.7847  336.5272
 Diagonal vibrational polarizability:
        4.7490896       1.0808064       4.0700328
 Harmonic frequencies (cm**-1), IR intensities (KM/Mole), Raman scattering
 activities (A**4/AMU), depolarization ratios for plane and unpolarized
 incident light, reduced masses (AMU), force constants (mDyne/A),
 and normal coordinates:
                      1                      2                      3
                      A                      A                      A
 Frequencies --    114.4243               246.7828               336.5268
 Red. masses --      1.1003                 4.5259                 2.7964
 Frc consts  --      0.0085                 0.1624                 0.1866
 IR Inten    --      0.8634                 0.2158                 2.7177
  Atom  AN      X      Y      Z        X      Y      Z        X      Y      Z
     1   6     0.00   0.00   0.01     0.00   0.00   0.16    -0.07  -0.17   0.00
     2   1    -0.01   0.50  -0.35     0.38   0.11   0.23    -0.31  -0.31   0.01
     3   1     0.01  -0.50  -0.35    -0.38  -0.11   0.23    -0.31  -0.32  -0.01
     4   1    -0.00   0.00   0.48    -0.00   0.00   0.50     0.32  -0.39   0.00
     5   6     0.00   0.00  -0.02    -0.00   0.00   0.39     0.02  -0.11   0.00
     6   6    -0.00  -0.00   0.02    -0.00  -0.00  -0.30    -0.01   0.20   0.00
     7   6     0.00  -0.00  -0.06     0.00   0.00  -0.17    -0.15   0.10  -0.00
     8   6    -0.00  -0.00   0.06    -0.00  -0.00  -0.15     0.20   0.05   0.00
     9   1    -0.00  -0.00   0.14    -0.00  -0.00  -0.11     0.43   0.05   0.00
                      4                      5                      6
                      A                      A                      A
 Frequencies --    539.3771               583.0608               745.0020
 Red. masses --      3.1501                 5.8992                 1.2765
 Frc consts  --      0.5400                 1.1816                 0.4174
 IR Inten    --      5.1465                 7.1374                26.1715
  Atom  AN      X      Y      Z        X      Y      Z        X      Y      Z
     1   6    -0.00   0.00   0.02     0.39  -0.07   0.00     0.00   0.00   0.02
     2   1    -0.45   0.00  -0.15     0.31  -0.06  -0.02    -0.15  -0.00  -0.04
     3   1     0.45  -0.00  -0.15     0.31  -0.06   0.02     0.15   0.00  -0.04
     4   1    -0.00   0.00  -0.28     0.54  -0.14  -0.00     0.00  -0.00  -0.08
     5   6     0.00   0.00   0.16    -0.33  -0.06   0.00     0.00   0.00   0.02
     6   6    -0.00  -0.00   0.30     0.20   0.17   0.00     0.00   0.00   0.02
     7   6     0.00   0.00  -0.24    -0.17  -0.18  -0.00    -0.00  -0.00   0.02
     8   6     0.00  -0.00  -0.15    -0.17   0.16  -0.00    -0.00  -0.00  -0.15
     9   1     0.00  -0.00  -0.53    -0.13   0.14  -0.00    -0.00   0.00   0.96
                      7                      8                      9
                      A                      A                      A
 Frequencies --    798.2674               953.6226               983.1786
 Red. masses --      3.7248                 3.2054                 1.6449
 Frc consts  --      1.3984                 1.7174                 0.9368
 IR Inten    --     15.8684                 8.4853                 6.7746
  Atom  AN      X      Y      Z        X      Y      Z        X      Y      Z
     1   6    -0.06  -0.06   0.00     0.19  -0.15  -0.00     0.00  -0.00   0.16
     2   1     0.20   0.13  -0.03     0.55   0.18  -0.09    -0.59   0.11  -0.15
     3   1     0.20   0.13   0.03     0.55   0.18   0.09     0.59  -0.11  -0.15
     4   1    -0.46   0.15  -0.00    -0.31   0.13   0.00     0.00   0.00  -0.40
     5   6    -0.24  -0.07   0.00     0.03  -0.02   0.00     0.00  -0.00  -0.02
     6   6    -0.05  -0.19   0.00    -0.16  -0.06   0.00    -0.00  -0.00  -0.16
     7   6     0.12  -0.02  -0.00    -0.13   0.29  -0.00    -0.00   0.00   0.04
     8   6     0.19   0.29  -0.00     0.00  -0.09  -0.00    -0.00  -0.00   0.05
     9   1     0.56   0.29   0.00     0.05  -0.08   0.00     0.00  -0.00  -0.13
                     10                     11                     12
                      A                      A                      A
 Frequencies --   1080.0941              1095.3794              1146.1243
 Red. masses --      2.1258                 1.3465                 6.5055
 Frc consts  --      1.4611                 0.9519                 5.0349
 IR Inten    --      5.7179                11.5836                 5.9270
  Atom  AN      X      Y      Z        X      Y      Z        X      Y      Z
     1   6     0.08   0.13  -0.00     0.04   0.05   0.00    -0.12  -0.10   0.00
     2   1    -0.24  -0.23   0.12    -0.07  -0.06   0.03     0.04   0.29  -0.18
     3   1    -0.24  -0.23  -0.12    -0.07  -0.06  -0.03     0.05   0.29   0.18
     4   1     0.62  -0.16   0.00     0.25  -0.06  -0.00    -0.43   0.08  -0.00
     5   6    -0.10  -0.11  -0.00    -0.05   0.05  -0.00    -0.18  -0.32  -0.00
     6   6    -0.08  -0.13   0.00    -0.04  -0.02   0.00     0.13   0.30  -0.00
     7   6     0.07   0.16   0.00     0.06   0.03   0.00     0.38   0.21   0.00
     8   6     0.05   0.00  -0.00    -0.10  -0.08  -0.00    -0.17  -0.13  -0.00
     9   1    -0.48   0.02   0.00     0.93  -0.12   0.00    -0.21  -0.16   0.00
                     13                     14                     15
                      A                      A                      A
 Frequencies --   1356.3105              1421.0259              1425.4570
 Red. masses --      1.2318                 1.8522                 1.0456
 Frc consts  --      1.3351                 2.2037                 1.2518
 IR Inten    --     88.0578                59.5762                17.6165
  Atom  AN      X      Y      Z        X      Y      Z        X      Y      Z
     1   6    -0.11   0.04   0.00    -0.06  -0.02   0.00    -0.00  -0.00  -0.05
     2   1     0.49  -0.28   0.40     0.33   0.33  -0.09    -0.36  -0.31   0.05
     3   1     0.49  -0.28  -0.40     0.32   0.32   0.09     0.37   0.32   0.05
     4   1     0.12  -0.09  -0.00     0.57  -0.35  -0.02     0.01  -0.00   0.73
     5   6     0.01  -0.03  -0.00    -0.08   0.10   0.00    -0.00   0.00  -0.00
     6   6     0.05   0.00   0.00    -0.13   0.08   0.00    -0.00   0.00  -0.02
     7   6    -0.01   0.03  -0.00     0.07  -0.09  -0.00     0.00  -0.00   0.00
     8   6    -0.03   0.01  -0.00     0.12  -0.08  -0.00     0.00  -0.00   0.01
     9   1     0.04   0.01   0.00    -0.17  -0.09   0.00    -0.00  -0.00  -0.02
                     16                     17                     18
                      A                      A                      A
 Frequencies --   1454.9679              1519.9525              2995.3905
 Red. masses --      2.5453                 3.7905                 1.0396
 Frc consts  --      3.1747                 5.1594                 5.4958
 IR Inten    --     14.2848                47.6060                63.4388
  Atom  AN      X      Y      Z        X      Y      Z        X      Y      Z
     1   6    -0.04  -0.01  -0.00    -0.15  -0.01  -0.00     0.04  -0.03  -0.00
     2   1     0.08   0.38  -0.21    -0.04   0.43  -0.27    -0.18   0.35   0.54
     3   1     0.08   0.38   0.21    -0.04   0.43   0.27    -0.18   0.35  -0.54
     4   1     0.55  -0.31   0.00     0.36  -0.28   0.00    -0.14  -0.28  -0.00
     5   6     0.20  -0.17   0.00    -0.10   0.07  -0.00     0.00   0.00  -0.00
     6   6    -0.06  -0.05  -0.00     0.35  -0.19  -0.00     0.00  -0.00  -0.00
     7   6    -0.00  -0.01   0.00    -0.15   0.17   0.00    -0.00   0.00  -0.00
     8   6    -0.17   0.18  -0.00     0.02  -0.08   0.00    -0.00   0.00   0.00
     9   1     0.15   0.22   0.00     0.08  -0.11  -0.00     0.00  -0.01   0.00
                     19                     20                     21
                      A                      A                      A
 Frequencies --   3034.3377              3145.4337              3203.8684
 Red. masses --      1.0942                 1.0998                 1.0986
 Frc consts  --      5.9359                 6.4110                 6.6439
 IR Inten    --     11.4002                 5.4790                61.4346
  Atom  AN      X      Y      Z        X      Y      Z        X      Y      Z
     1   6    -0.00   0.00  -0.09    -0.03  -0.09  -0.00     0.00  -0.00  -0.00
     2   1    -0.20   0.39   0.55    -0.06   0.10   0.17    -0.00   0.00   0.00
     3   1     0.20  -0.39   0.55    -0.06   0.10  -0.17    -0.00   0.00  -0.00
     4   1     0.00   0.00  -0.02     0.45   0.84   0.00    -0.00  -0.00   0.00
     5   6     0.00   0.00  -0.00     0.00   0.00  -0.00    -0.01   0.00  -0.00
     6   6     0.00  -0.00  -0.00     0.00  -0.00  -0.00     0.00   0.00   0.00
     7   6    -0.00   0.00  -0.00    -0.00   0.00   0.00     0.00   0.00   0.00
     8   6     0.00   0.00   0.00     0.00   0.00  -0.00     0.00  -0.09   0.00
     9   1    -0.00  -0.00   0.00    -0.00   0.00   0.00     0.03   1.00  -0.00

 -------------------
 - Thermochemistry -
 -------------------
 Temperature   298.150 Kelvin.  Pressure   1.00000 Atm.
 Atom     1 has atomic number  6 and mass  12.00000
 Atom     2 has atomic number  1 and mass   1.00783
 Atom     3 has atomic number  1 and mass   1.00783
 Atom     4 has atomic number  1 and mass   1.00783
 Atom     5 has atomic number  6 and mass  12.00000
 Atom     6 has atomic number  6 and mass  12.00000
 Atom     7 has atomic number  6 and mass  12.00000
 Atom     8 has atomic number  6 and mass  12.00000
 Atom     9 has atomic number  1 and mass   1.00783
 Molecular mass:    64.03130 amu.
 Principal axes and moments of inertia in atomic units:
                           1         2         3
     Eigenvalues --   116.65751 362.72294 468.41068
           X            0.99992   0.01268  -0.00001
           Y           -0.01268   0.99992  -0.00003
           Z            0.00001   0.00003   1.00000
 This molecule is an asymmetric top.
 Rotational symmetry number  1.
 Rotational temperatures (Kelvin)      0.74246     0.23879     0.18491
 Rotational constants (GHZ):          15.47042     4.97554     3.85290
 Zero-point vibrational energy     168545.4 (Joules/Mol)
                                   40.28331 (Kcal/Mol)
 Warning -- explicit consideration of   5 degrees of freedom as
           vibrations may cause significant error
 Vibrational temperatures:    164.63   355.06   484.19   776.04   838.89
          (Kelvin)           1071.89  1148.53  1372.05  1414.57  1554.01
                             1576.00  1649.02  1951.43  2044.54  2050.91
                             2093.37  2186.87  4309.69  4365.73  4525.57
                             4609.65
 
 Zero-point correction=                           0.064196 (Hartree/Particle)
 Thermal correction to Energy=                    0.069333
 Thermal correction to Enthalpy=                  0.070277
 Thermal correction to Gibbs Free Energy=         0.035211
 Sum of electronic and zero-point Energies=           -192.337791
 Sum of electronic and thermal Energies=              -192.332653
 Sum of electronic and thermal Enthalpies=            -192.331709
 Sum of electronic and thermal Free Energies=         -192.366775
 
                     E (Thermal)             CV                S
                      KCal/Mol        Cal/Mol-Kelvin    Cal/Mol-Kelvin
 Total                   43.507             17.027             73.803
 Electronic               0.000              0.000              2.755
 Translational            0.889              2.981             38.389
 Rotational               0.889              2.981             24.498
 Vibrational             41.730             11.066              8.161
 Vibration     1          0.607              1.937              3.192
 Vibration     2          0.661              1.768              1.753
 Vibration     3          0.717              1.603              1.229
 Vibration     4          0.894              1.163              0.567
 Vibration     5          0.940              1.068              0.480
                       Q            Log10(Q)             Ln(Q)
 Total Bot       0.636903D-16        -16.195927        -37.292500
 Total V=0       0.214738D+14         13.331908         30.697853
 Vib (Bot)       0.156879D-28        -28.804434        -66.324661
 Vib (Bot)    1  0.178822D+01          0.252420          0.581219
 Vib (Bot)    2  0.792064D+00         -0.101240         -0.233114
 Vib (Bot)    3  0.552976D+00         -0.257294         -0.592441
 Vib (Bot)    4  0.293910D+00         -0.531786         -1.224482
 Vib (Bot)    5  0.260547D+00         -0.584114         -1.344972
 Vib (V=0)       0.528933D+01          0.723401          1.665692
 Vib (V=0)    1  0.235680D+01          0.372323          0.857306
 Vib (V=0)    2  0.143668D+01          0.157359          0.362333
 Vib (V=0)    3  0.124551D+01          0.095347          0.219543
 Vib (V=0)    4  0.107999D+01          0.033418          0.076948
 Vib (V=0)    5  0.106381D+01          0.026865          0.061859
 Electronic      0.400000D+01          0.602060          1.386294
 Translational   0.201393D+08          7.304044         16.818182
 Rotational      0.503969D+05          4.702404         10.827685
 
                                                              b3lyp opt
                                                             IR Spectrum
 
     3  3   3 2                                                         1 111  1       1 11                                          
     2  1   0 9                                                         5 444  3       1 00   99     7 7     5 5       3   2    1    
     0  4   3 9                                                         2 522  5       4 98   85     9 4     8 3       3   4    1    
     4  5   4 5                                                         0 551  6       6 50   34     8 5     3 9       7   7    4    
 
     X  X   X X                                                         X XXX  X       X XX   XX     X X     X X       X   X    X    
     X      X X                                                         X XXX  X         X    XX     X X     X                       
     X      X X                                                         X XXX  X         X           X X                             
     X        X                                                         X  XX  X                     X X                             
     X        X                                                         X   X  X                       X                             
     X        X                                                         X   X  X                       X                             
     X        X                                                         X   X  X                                                     
     X        X                                                         X   X  X                                                     
     X        X                                                         X   X  X                                                     
     X        X                                                         X   X  X                                                     
     X        X                                                         X   X  X                                                     
     X        X                                                             X  X                                                     
     X        X                                                             X  X                                                     
     X        X                                                             X  X                                                     
                                                                               X                                                     
                                                                               X                                                     
                                                                               X                                                     
                                                                               X                                                     
                                                                               X                                                     
                                                                               X                                                     
 
 ***** Axes restored to original set *****
 -------------------------------------------------------------------
 Center     Atomic                   Forces (Hartrees/Bohr)
 Number     Number              X              Y              Z
 -------------------------------------------------------------------
      1        6           0.000075633    0.000057699   -0.000026360
      2        1          -0.000044768   -0.000015067   -0.000057209
      3        1           0.000021529   -0.000000641    0.000042806
      4        1           0.000024080   -0.000052368    0.000002199
      5        6           0.000239598    0.000185225    0.000000329
      6        6          -0.000136074    0.000096204    0.000041756
      7        6          -0.000024768   -0.000168150   -0.000012888
      8        6          -0.000202869    0.000005238    0.000026704
      9        1           0.000047640   -0.000108141   -0.000017336
 -------------------------------------------------------------------
 Cartesian Forces:  Max     0.000239598 RMS     0.000091756
 Z-matrix is all fixed cartesians, so copy forces.
 Force constants in Cartesian coordinates: 
                1             2             3             4             5 
      1  0.482210D+00
      2 -0.434675D-01  0.564233D+00
      3 -0.220974D-03 -0.731313D-04  0.480571D+00
      4 -0.598814D-01 -0.340230D-01 -0.596558D-01  0.678833D-01
      5 -0.267822D-01 -0.112488D+00 -0.114049D+00  0.416738D-01  0.122458D+00
      6 -0.562970D-01 -0.113848D+00 -0.196450D+00  0.626298D-01  0.122689D+00
      7 -0.600290D-01 -0.342319D-01  0.597402D-01  0.363578D-02  0.445851D-02
      8 -0.270090D-01 -0.112905D+00  0.114170D+00  0.446134D-02  0.694099D-02
      9  0.564403D-01  0.113976D+00 -0.195970D+00  0.749667D-02  0.131831D-01
     10 -0.105500D+00  0.111020D+00  0.559359D-04  0.522465D-02 -0.917927D-02
     11  0.114550D+00 -0.267087D+00 -0.873043D-04  0.644898D-02 -0.119620D-01
     12  0.569338D-04 -0.802630D-04 -0.460716D-01  0.124285D-01 -0.203581D-01
     13  0.341784D-02  0.726253D-02  0.352043D-04  0.865316D-03 -0.330524D-02
     14 -0.435186D-02 -0.605465D-02 -0.167223D-04 -0.100388D-02  0.245019D-02
     15  0.000000D+00 -0.373931D-05  0.285290D-03 -0.440395D-03  0.304536D-03
     16 -0.224518D+00  0.254381D-02  0.706719D-04 -0.162292D-01 -0.106122D-01
     17 -0.599934D-02 -0.645713D-01  0.818240D-04 -0.179734D-01 -0.968731D-02
     18  0.323459D-04  0.322705D-04 -0.668939D-01 -0.274190D-01 -0.894745D-03
     19 -0.238094D-01 -0.339883D-01 -0.349179D-04 -0.345808D-02  0.440515D-02
     20 -0.596949D-02 -0.892461D-02 -0.325123D-04 -0.911832D-03  0.256384D-02
     21 -0.857012D-05 -0.978542D-05  0.194549D-01  0.251225D-02 -0.756895D-03
     22 -0.125304D-01  0.257142D-01  0.979707D-05  0.218646D-02 -0.665878D-03
     23 -0.922850D-03  0.866779D-02  0.111717D-04  0.129572D-02 -0.527958D-03
     24 -0.259067D-05  0.767071D-05  0.733935D-02  0.311285D-02 -0.179304D-03
     25  0.640418D-03 -0.829327D-03  0.000000D+00 -0.226823D-03  0.740429D-05
     26 -0.474793D-04 -0.870011D-03 -0.356037D-05  0.322188D-04  0.252530D-03
     27  0.000000D+00 -0.102638D-05 -0.226503D-02 -0.664952D-03  0.619692D-04
                6             7             8             9            10 
      6  0.219020D+00
      7 -0.746191D-02  0.680216D-01
      8 -0.131273D-01  0.418989D-01  0.122890D+00
      9 -0.227642D-01 -0.627214D-01 -0.122806D+00  0.218490D+00
     10  0.160094D-02  0.523930D-02 -0.919438D-02 -0.161277D-02  0.117413D+00
     11  0.182861D-02  0.646676D-02 -0.119851D-01 -0.184184D-02 -0.121835D+00
     12  0.121162D-02 -0.124120D-01  0.203279D-01  0.122730D-02 -0.571892D-04
     13 -0.437268D-03  0.850103D-03 -0.330700D-02  0.418598D-03 -0.866955D-04
     14  0.484411D-03 -0.997295D-03  0.245112D-02 -0.473156D-03 -0.527669D-03
     15 -0.211463D-04  0.437594D-03 -0.301914D-03 -0.210628D-04  0.000000D+00
     16 -0.226156D-02 -0.162321D-01 -0.105990D-01  0.218855D-02 -0.209243D-01
     17  0.126479D-02 -0.180205D-01 -0.968623D-02 -0.134097D-02  0.296847D-01
     18 -0.110105D-03  0.273623D-01  0.858433D-03 -0.711302D-04  0.147843D-04
     19  0.241358D-02 -0.344529D-02  0.441036D-02 -0.239596D-02  0.210704D-02
     20  0.888350D-03 -0.897347D-03  0.257003D-02 -0.873502D-03  0.127400D-02
     21 -0.204546D-02 -0.249822D-02  0.767826D-03 -0.204225D-02 -0.201903D-05
     22 -0.404769D-04  0.218757D-02 -0.668110D-03  0.402575D-04 -0.333903D-02
     23 -0.215744D-03  0.128925D-02 -0.529021D-03  0.210910D-03 -0.128449D-02
     24  0.111058D-02 -0.311023D-02  0.172575D-03  0.110316D-02  0.000000D+00
     25 -0.146100D-03 -0.227900D-03  0.682873D-05  0.145806D-03 -0.133466D-03
     26  0.362233D-04  0.336523D-04  0.252868D-03 -0.347787D-04  0.428951D-04
     27  0.478346D-04  0.663745D-03 -0.611853D-04  0.489064D-04  0.000000D+00
               11            12            13            14            15 
     11  0.282471D+00
     12  0.980018D-04  0.436580D-01
     13  0.442871D-03 -0.157854D-05  0.423335D+00
     14  0.478084D-03  0.148276D-05  0.129111D+00  0.388523D+00
     15  0.000000D+00 -0.678284D-03 -0.334515D-05 -0.759851D-05  0.262134D-01
     16 -0.238650D-02 -0.145201D-04 -0.113853D+00 -0.177746D-01  0.000000D+00
     17  0.590534D-02  0.906165D-05  0.102131D-01 -0.248643D-01  0.590165D-05
     18  0.336467D-05 -0.148622D-02  0.150363D-04 -0.975691D-05  0.257750D-01
     19  0.140395D-03  0.405943D-05 -0.116450D+00  0.131744D+00  0.224730D-05
     20  0.133596D-02  0.293912D-05  0.789363D-01 -0.129321D+00 -0.304920D-04
     21  0.106436D-05 -0.154404D-02 -0.877459D-05 -0.120753D-04 -0.257153D-01
     22 -0.381832D-02 -0.467269D-05 -0.201402D+00 -0.218973D+00  0.000000D+00
     23  0.920634D-03  0.000000D+00 -0.226100D+00 -0.227360D+00  0.297803D-04
     24 -0.270409D-05  0.407932D-02 -0.152859D-04  0.501641D-04 -0.264255D-01
     25 -0.862577D-05  0.000000D+00  0.332284D-02 -0.172259D-01  0.441393D-05
     26 -0.770258D-04  0.000000D+00  0.674741D-02 -0.630214D-02  0.294618D-05
     27  0.000000D+00 -0.396098D-03 -0.258636D-05 -0.167488D-04  0.587664D-03
               16            17            18            19            20 
     16  0.651096D+00
     17  0.151097D+00  0.372068D+00
     18 -0.136175D-04 -0.801636D-05  0.143787D+00
     19 -0.191039D+00 -0.193265D+00  0.000000D+00  0.355562D+00
     20 -0.181505D+00 -0.162777D+00  0.529850D-05  0.472061D-01  0.407517D+00
     21  0.114418D-04 -0.333217D-05 -0.522748D-01 -0.114249D-04  0.378036D-04
     22 -0.722973D-01  0.277351D-01  0.141090D-04 -0.210446D-01  0.617940D-01
     23  0.738918D-01 -0.110437D+00  0.743482D-05  0.424614D-01 -0.105116D+00
     24  0.164589D-04 -0.255258D-05 -0.532157D-01  0.270144D-04 -0.247985D-05
     25  0.399658D-02  0.165279D-01 -0.665755D-05  0.157638D-02  0.730169D-04
     26 -0.465585D-02  0.404963D-02  0.571728D-05 -0.311424D-02 -0.784779D-02
     27  0.305164D-05 -0.670689D-05  0.449001D-02 -0.528869D-05  0.459486D-05
               21            22            23            24            25 
     21  0.376453D-01
     22  0.450012D-05  0.355065D+00
     23 -0.277072D-04  0.994032D-01  0.783354D+00
     24  0.188516D-01 -0.277484D-04 -0.179636D-03  0.742045D-01
     25  0.000000D+00 -0.488264D-01  0.996646D-02  0.000000D+00  0.398784D-01
     26  0.310179D-05  0.947915D-02 -0.348974D+00  0.136267D-03 -0.851777D-02
     27  0.767011D-02  0.376528D-05  0.164700D-03 -0.270473D-01  0.200103D-05
               26            27 
     26  0.359515D+00
     27 -0.145820D-03  0.168639D-01
 Leave Link  716 at Mon Jun 20 06:27:21 2016, MaxMem=    33554432 cpu:         0.1
 (Enter /home/proyectos/fulerenos/M3C-v1.9/M3C-deps_CCC/g09-AM64L-G09RevC.01/l103.exe)

 GradGradGradGradGradGradGradGradGradGradGradGradGradGradGradGradGradGrad
 Berny optimization.
 Search for a local minimum.
 Step number   1 out of a maximum of    2
 All quantities printed in internal units (Hartrees-Bohrs-Radians)
 Second derivative matrix not updated -- analytic derivatives used.
 ITU=  0
     Eigenvalues ---    0.00068   0.01223   0.01285   0.04098   0.04904
     Eigenvalues ---    0.06547   0.06608   0.08821   0.09900   0.14693
     Eigenvalues ---    0.17687   0.21917   0.22771   0.36772   0.49945
     Eigenvalues ---    0.60930   0.66832   0.67261   0.78720   1.00048
     Eigenvalues ---    1.19668
 Angle between quadratic step and forces=  71.07 degrees.
 Linear search not attempted -- first point.
 B after Tr=    -0.000026   -0.000029    0.000136
         Rot=    1.000000   -0.000029    0.000035    0.000002 Ang=  -0.01 deg.
 Variable       Old X    -DE/DX   Delta X   Delta X   Delta X     New X
                                 (Linear)    (Quad)   (Total)
    X1       -3.38330   0.00008   0.00000  -0.00014  -0.00017  -3.38347
    Y1       -0.09125   0.00006   0.00000   0.00006   0.00004  -0.09121
    Z1        0.00005  -0.00003   0.00000  -0.00032  -0.00043  -0.00037
    X2       -3.94680  -0.00004   0.00000  -0.00124  -0.00116  -3.94796
    Y2       -1.21114  -0.00002   0.00000  -0.00080  -0.00072  -1.21186
    Z2       -1.65084  -0.00006   0.00000   0.00047   0.00026  -1.65057
    X3       -3.94891   0.00002   0.00000   0.00059   0.00045  -3.94846
    Y3       -1.21390  -0.00000   0.00000   0.00145   0.00134  -1.21256
    Z3        1.64834   0.00004   0.00000   0.00105   0.00084   1.64918
    X4       -4.34761   0.00002   0.00000   0.00000  -0.00002  -4.34763
    Y4        1.72157  -0.00005   0.00000  -0.00003  -0.00004   1.72153
    Z4        0.00079   0.00000   0.00000  -0.00086  -0.00092  -0.00013
    X5        3.17666   0.00024   0.00000   0.00050   0.00048   3.17714
    Y5        0.22872   0.00019   0.00000   0.00018   0.00014   0.22886
    Z5       -0.00013   0.00000   0.00000   0.00047   0.00084   0.00071
    X6       -0.64641  -0.00014   0.00000  -0.00040  -0.00043  -0.64683
    Y6        0.20542   0.00010   0.00000   0.00011   0.00008   0.20550
    Z6        0.00017   0.00004   0.00000  -0.00017  -0.00006   0.00011
    X7        1.11110  -0.00002   0.00000  -0.00008  -0.00010   1.11100
    Y7        2.12747  -0.00017   0.00000  -0.00057  -0.00060   2.12686
    Z7        0.00017  -0.00001   0.00000   0.00032   0.00066   0.00082
    X8        1.51842  -0.00020   0.00000  -0.00005  -0.00008   1.51834
    Y8       -1.72498   0.00001   0.00000   0.00007   0.00004  -1.72494
    Z8       -0.00012   0.00003   0.00000  -0.00003   0.00011  -0.00000
    X9        1.58443   0.00005   0.00000   0.00106   0.00102   1.58545
    Y9       -3.76883  -0.00011   0.00000  -0.00023  -0.00027  -3.76910
    Z9        0.00083  -0.00002   0.00000  -0.00132  -0.00130  -0.00047
         Item               Value     Threshold  Converged?
 Maximum Force            0.000240     0.000450     YES
 RMS     Force            0.000092     0.000300     YES
 Maximum Displacement     0.001340     0.001800     YES
 RMS     Displacement     0.000623     0.001200     YES
 Predicted change in Energy=-2.552605D-07
 Optimization completed.
    -- Stationary point found.
 GradGradGradGradGradGradGradGradGradGradGradGradGradGradGradGradGradGrad

 Leave Link  103 at Mon Jun 20 06:27:21 2016, MaxMem=    33554432 cpu:         0.1
 (Enter /home/proyectos/fulerenos/M3C-v1.9/M3C-deps_CCC/g09-AM64L-G09RevC.01/l9999.exe)
 1\1\GINC-BELVIS17\Freq\UB3LYP\6-311++G(3df,2p)\C5H4(1+,4)\ROOT\20-Jun-
 2016\0\\#p b3lyp/6-311++G(3df,2p) freq symmetry=Loose\\b3lyp opt\\1,4\
 C,-1.790363,-0.048285,0.000028\H,-2.088559,-0.640907,-0.873585\H,-2.08
 9671,-0.642368,0.872266\H,-2.300656,0.911017,0.000419\C,1.681018,0.121
 033,-0.000071\C,-0.342064,0.108703,0.000092\C,0.587969,1.125807,0.0000
 88\C,0.803514,-0.912819,-0.000061\H,0.838442,-1.994381,0.00044\\Versio
 n=EM64L-G09RevE.01\State=4-A\HF=-192.4019864\S2=3.759332\S2-1=0.\S2A=3
 .750028\RMSD=7.886e-09\RMSF=9.176e-05\ZeroPoint=0.0641955\Thermal=0.06
 93331\Dipole=-0.2240392,-0.5088573,-0.0000132\DipoleDeriv=-0.4409806,-
 0.1006734,-0.0002065,-0.344847,-0.0036383,-0.0000929,-0.001329,-0.0001
 517,-0.0503034,0.0967236,0.0286586,0.0286793,0.1671679,0.1288553,-0.03
 02734,0.0563611,-0.0319874,0.1125296,0.0972037,0.0287341,-0.0286114,0.
 1672381,0.1287595,0.0303232,-0.0555389,0.0320791,0.1126548,0.0558562,-
 0.0315338,0.0000053,-0.033558,0.0522478,-0.0000109,0.0000586,-0.000004
 2,0.1225492,0.7541497,-0.1103908,-0.0000038,0.0730764,0.0876455,0.0000
 112,-0.0000985,0.0000698,0.146023,0.9724696,0.1732759,0.0001569,0.2881
 366,-0.0416346,0.0000833,0.0003866,0.0000998,0.145592,-0.4244472,0.084
 6515,-0.0000144,-0.437823,0.3804738,0.0000334,0.000108,-0.0000412,0.18
 11251,-0.2765624,-0.1011547,-0.0000197,0.1616275,0.0066282,-0.0000387,
 0.0000486,-0.0000789,0.0322898,0.1655873,0.0284326,0.0000144,-0.041018
 5,0.2606629,-0.000035,0.0000036,0.0000147,0.1975398\Polar=64.3105866,0
 .9928749,48.1862313,0.0009936,0.0006319,32.0472728\PG=C01 [X(C5H4)]\NI
 mag=0\\0.48221007,-0.04346749,0.56423327,-0.00022097,-0.00007313,0.480
 57083,-0.05988137,-0.03402298,-0.05965577,0.06788327,-0.02678223,-0.11
 248846,-0.11404948,0.04167381,0.12245817,-0.05629705,-0.11384828,-0.19
 644957,0.06262984,0.12268891,0.21902049,-0.06002901,-0.03423195,0.0597
 4016,0.00363578,0.00445851,-0.00746191,0.06802155,-0.02700897,-0.11290
 475,0.11416972,0.00446134,0.00694099,-0.01312728,0.04189893,0.12289014
 ,0.05644029,0.11397628,-0.19597027,0.00749667,0.01318311,-0.02276424,-
 0.06272144,-0.12280605,0.21848959,-0.10550018,0.11101950,0.00005594,0.
 00522465,-0.00917927,0.00160094,0.00523930,-0.00919438,-0.00161277,0.1
 1741266,0.11454971,-0.26708726,-0.00008730,0.00644898,-0.01196199,0.00
 182861,0.00646676,-0.01198514,-0.00184184,-0.12183527,0.28247139,0.000
 05693,-0.00008026,-0.04607155,0.01242853,-0.02035810,0.00121162,-0.012
 41202,0.02032788,0.00122730,-0.00005719,0.00009800,0.04365796,0.003417
 84,0.00726253,0.00003520,0.00086532,-0.00330524,-0.00043727,0.00085010
 ,-0.00330700,0.00041860,-0.00008670,0.00044287,-0.00000158,0.42333526,
 -0.00435186,-0.00605465,-0.00001672,-0.00100388,0.00245019,0.00048441,
 -0.00099730,0.00245112,-0.00047316,-0.00052767,0.00047808,0.00000148,0
 .12911054,0.38852303,-0.00000043,-0.00000374,0.00028529,-0.00044039,0.
 00030454,-0.00002115,0.00043759,-0.00030191,-0.00002106,-0.00000007,0.
 00000058,-0.00067828,-0.00000335,-0.00000760,0.02621338,-0.22451797,0.
 00254381,0.00007067,-0.01622920,-0.01061225,-0.00226156,-0.01623211,-0
 .01059901,0.00218855,-0.02092428,-0.00238650,-0.00001452,-0.11385309,-
 0.01777462,-0.00000048,0.65109593,-0.00599934,-0.06457132,0.00008182,-
 0.01797337,-0.00968731,0.00126479,-0.01802052,-0.00968623,-0.00134097,
 0.02968467,0.00590534,0.00000906,0.01021306,-0.02486431,0.00000590,0.1
 5109737,0.37206751,0.00003235,0.00003227,-0.06689394,-0.02741902,-0.00
 089475,-0.00011010,0.02736232,0.00085843,-0.00007113,0.00001478,0.0000
 0336,-0.00148622,0.00001504,-0.00000976,0.02577501,-0.00001362,-0.0000
 0802,0.14378691,-0.02380943,-0.03398831,-0.00003492,-0.00345808,0.0044
 0515,0.00241358,-0.00344529,0.00441036,-0.00239596,0.00210704,0.000140
 40,0.00000406,-0.11644983,0.13174400,0.00000225,-0.19103856,-0.1932648
 3,0.00000069,0.35556235,-0.00596949,-0.00892461,-0.00003251,-0.0009118
 3,0.00256384,0.00088835,-0.00089735,0.00257003,-0.00087350,0.00127400,
 0.00133596,0.00000294,0.07893627,-0.12932141,-0.00003049,-0.18150473,-
 0.16277678,0.00000530,0.04720609,0.40751668,-0.00000857,-0.00000979,0.
 01945489,0.00251225,-0.00075690,-0.00204546,-0.00249822,0.00076783,-0.
 00204225,-0.00000202,0.00000106,-0.00154404,-0.00000877,-0.00001208,-0
 .02571532,0.00001144,-0.00000333,-0.05227483,-0.00001142,0.00003780,0.
 03764530,-0.01253037,0.02571422,0.00000980,0.00218646,-0.00066588,-0.0
 0004048,0.00218757,-0.00066811,0.00004026,-0.00333903,-0.00381832,-0.0
 0000467,-0.20140173,-0.21897335,0.00000047,-0.07229730,0.02773509,0.00
 001411,-0.02104457,0.06179402,0.00000450,0.35506540,-0.00092285,0.0086
 6779,0.00001117,0.00129572,-0.00052796,-0.00021574,0.00128925,-0.00052
 902,0.00021091,-0.00128449,0.00092063,-0.00000091,-0.22610044,-0.22735
 990,0.00002978,0.07389178,-0.11043654,0.00000743,0.04246139,-0.1051159
 1,-0.00002771,0.09940318,0.78335444,-0.00000259,0.00000767,0.00733935,
 0.00311285,-0.00017930,0.00111058,-0.00311023,0.00017258,0.00110316,0.
 00000017,-0.00000270,0.00407932,-0.00001529,0.00005016,-0.02642552,0.0
 0001646,-0.00000255,-0.05321570,0.00002701,-0.00000248,0.01885159,-0.0
 0002775,-0.00017964,0.07420452,0.00064042,-0.00082933,-0.00000011,-0.0
 0022682,0.00000740,-0.00014610,-0.00022790,0.00000683,0.00014581,-0.00
 013347,-0.00000863,0.00000046,0.00332284,-0.01722586,0.00000441,0.0039
 9658,0.01652787,-0.00000666,0.00157638,0.00007302,0.00000082,-0.048826
 41,0.00996646,-0.00000063,0.03987839,-0.00004748,-0.00087001,-0.000003
 56,0.00003222,0.00025253,0.00003622,0.00003365,0.00025287,-0.00003478,
 0.00004290,-0.00007703,-0.00000010,0.00674741,-0.00630214,0.00000295,-
 0.00465585,0.00404963,0.00000572,-0.00311424,-0.00784779,0.00000310,0.
 00947915,-0.34897353,0.00013627,-0.00851777,0.35951548,0.00000004,-0.0
 0000103,-0.00226503,-0.00066495,0.00006197,0.00004783,0.00066375,-0.00
 006119,0.00004891,0.00000022,0.00000022,-0.00039610,-0.00000259,-0.000
 01675,0.00058766,0.00000305,-0.00000671,0.00449001,-0.00000529,0.00000
 459,0.00767011,0.00000377,0.00016470,-0.02704731,0.00000200,-0.0001458
 2,0.01686391\\-0.00007563,-0.00005770,0.00002636,0.00004477,0.00001507
 ,0.00005721,-0.00002153,0.00000064,-0.00004281,-0.00002408,0.00005237,
 -0.00000220,-0.00023960,-0.00018523,-0.00000033,0.00013607,-0.00009620
 ,-0.00004176,0.00002477,0.00016815,0.00001289,0.00020287,-0.00000524,-
 0.00002670,-0.00004764,0.00010814,0.00001734\\\@


 PENOTUS DIED A HUNDRED YEARS OLD WANTING BUT TWO...
 AND HE USED TO SAY BEFORE HE DIED, HAVING SPENT HIS
 WHOLE LIFE IN VAINLY SEARCHING AFTER THE PHILOSOPHER'S
 STONE, THAT IF HE HAD A MORTAL ENEMY HE DID NOT DARE
 TO ENCOUNTER OPENLY, HE WOULD ADVISE HIM ABOVE ALL
 THINGS TO GIVE HIMSELF UP TO THE STUDY AND PRACTICE
 OF ALCHEMY.  --  NICOLAS LEMERY, M.D.
 "A COURSE OF CHYMISTRY", WALTER KETTILBY, LONDON, 1686
 Job cpu time:       0 days  1 hours  7 minutes 12.7 seconds.
 File lengths (MBytes):  RWF=     79 Int=      0 D2E=      0 Chk=      5 Scr=      1
 Normal termination of Gaussian 09 at Mon Jun 20 06:27:21 2016.
