 Entering Gaussian System, Link 0=/home/proyectos/fulerenos/M3C-v2.0/M3C-deps_CCC/g09-AM64L-G09RevC.01/g09
 Initial command:
 /home/proyectos/fulerenos/M3C-v2.0/M3C-deps_CCC/g09-AM64L-G09RevC.01/l1.exe "/scratch/naguirre/gaussian/Gau-5125.inp" -scrdir="/scratch/naguirre/gaussian/"
 Entering Link 1 = /home/proyectos/fulerenos/M3C-v2.0/M3C-deps_CCC/g09-AM64L-G09RevC.01/l1.exe PID=      5129.
  
 Copyright (c) 1988,1990,1992,1993,1995,1998,2003,2009,2015,
            Gaussian, Inc.  All Rights Reserved.
  
 This is part of the Gaussian(R) 09 program.  It is based on
 the Gaussian(R) 03 system (copyright 2003, Gaussian, Inc.),
 the Gaussian(R) 98 system (copyright 1998, Gaussian, Inc.),
 the Gaussian(R) 94 system (copyright 1995, Gaussian, Inc.),
 the Gaussian 92(TM) system (copyright 1992, Gaussian, Inc.),
 the Gaussian 90(TM) system (copyright 1990, Gaussian, Inc.),
 the Gaussian 88(TM) system (copyright 1988, Gaussian, Inc.),
 the Gaussian 86(TM) system (copyright 1986, Carnegie Mellon
 University), and the Gaussian 82(TM) system (copyright 1983,
 Carnegie Mellon University). Gaussian is a federally registered
 trademark of Gaussian, Inc.
  
 This software contains proprietary and confidential information,
 including trade secrets, belonging to Gaussian, Inc.
  
 This software is provided under written license and may be
 used, copied, transmitted, or stored only in accord with that
 written license.
  
 The following legend is applicable only to US Government
 contracts under FAR:
  
                    RESTRICTED RIGHTS LEGEND
  
 Use, reproduction and disclosure by the US Government is
 subject to restrictions as set forth in subparagraphs (a)
 and (c) of the Commercial Computer Software - Restricted
 Rights clause in FAR 52.227-19.
  
 Gaussian, Inc.
 340 Quinnipiac St., Bldg. 40, Wallingford CT 06492
  
  
 ---------------------------------------------------------------
 Warning -- This program may not be used in any manner that
 competes with the business of Gaussian, Inc. or will provide
 assistance to any competitor of Gaussian, Inc.  The licensee
 of this program is prohibited from giving any competitor of
 Gaussian, Inc. access to this program.  By using this program,
 the user acknowledges that Gaussian, Inc. is engaged in the
 business of creating and licensing software in the field of
 computational chemistry and represents and warrants to the
 licensee that it is not a competitor of Gaussian, Inc. and that
 it will not use this program in any manner prohibited above.
 ---------------------------------------------------------------
  

 Cite this work as:
 Gaussian 09, Revision E.01,
 M. J. Frisch, G. W. Trucks, H. B. Schlegel, G. E. Scuseria, 
 M. A. Robb, J. R. Cheeseman, G. Scalmani, V. Barone, B. Mennucci, 
 G. A. Petersson, H. Nakatsuji, M. Caricato, X. Li, H. P. Hratchian, 
 A. F. Izmaylov, J. Bloino, G. Zheng, J. L. Sonnenberg, M. Hada, 
 M. Ehara, K. Toyota, R. Fukuda, J. Hasegawa, M. Ishida, T. Nakajima, 
 Y. Honda, O. Kitao, H. Nakai, T. Vreven, J. A. Montgomery, Jr., 
 J. E. Peralta, F. Ogliaro, M. Bearpark, J. J. Heyd, E. Brothers, 
 K. N. Kudin, V. N. Staroverov, T. Keith, R. Kobayashi, J. Normand, 
 K. Raghavachari, A. Rendell, J. C. Burant, S. S. Iyengar, J. Tomasi, 
 M. Cossi, N. Rega, J. M. Millam, M. Klene, J. E. Knox, J. B. Cross, 
 V. Bakken, C. Adamo, J. Jaramillo, R. Gomperts, R. E. Stratmann, 
 O. Yazyev, A. J. Austin, R. Cammi, C. Pomelli, J. W. Ochterski, 
 R. L. Martin, K. Morokuma, V. G. Zakrzewski, G. A. Voth, 
 P. Salvador, J. J. Dannenberg, S. Dapprich, A. D. Daniels, 
 O. Farkas, J. B. Foresman, J. V. Ortiz, J. Cioslowski, 
 and D. J. Fox, Gaussian, Inc., Wallingford CT, 2013.
 
 ******************************************
 Gaussian 09:  EM64L-G09RevE.01 30-Nov-2015
                20-Jul-2016 
 ******************************************
 %NProcShared=1
 Will use up to    1 processors via shared memory.
 ---------------------------------------------
 #p b3lyp/6-311++G(3df,2p) freq symmetry=Loose
 ---------------------------------------------
 1/10=4,30=1,38=1/1,3;
 2/12=2,17=4,18=3,40=1/2;
 3/5=4,6=6,7=1216,11=2,16=1,25=1,30=1,71=2,74=-5,140=1/1,2,3;
 4//1;
 5/5=2,38=5,98=1/2;
 8/6=4,10=90,11=11/1;
 11/6=1,8=1,9=11,15=111,16=1/1,2,10;
 10/6=1/2;
 6/7=2,8=2,9=2,10=2,18=1,28=1/1;
 7/8=1,10=1,25=1/1,2,3,16;
 1/10=4,30=1/3;
 99//99;
 Leave Link    1 at Wed Jul 20 15:49:57 2016, MaxMem=           0 cpu:         0.1
 (Enter /home/proyectos/fulerenos/M3C-v2.0/M3C-deps_CCC/g09-AM64L-G09RevC.01/l101.exe)
 ---------
 b3lyp opt
 ---------
 Symbolic Z-matrix:
 Charge =  3 Multiplicity = 4
 C                    -2.49643  -0.2284    0.00066 
 H                    -3.04918  -0.39672   0.959 
 C                    -1.18002   0.34936   0.00207 
 H                    -1.33153   1.48234   0.00592 
 C                     0.09006  -0.14843  -0.00009 
 H                    -3.04994  -0.39031  -0.95835 
 C                     1.43699  -0.03599  -0.00025 
 C                     2.74548  -0.03865  -0.00077 
 H                     3.85493  -0.09611  -0.0014 
 
 NAtoms=      9 NQM=        9 NQMF=       0 NMMI=      0 NMMIF=      0
                NMic=       0 NMicF=      0.
                    Isotopes and Nuclear Properties:
 (Nuclear quadrupole moments (NQMom) in fm**2, nuclear magnetic moments (NMagM)
  in nuclear magnetons)

  Atom         1           2           3           4           5           6           7           8           9
 IAtWgt=          12           1          12           1          12           1          12          12           1
 AtmWgt=  12.0000000   1.0078250  12.0000000   1.0078250  12.0000000   1.0078250  12.0000000  12.0000000   1.0078250
 NucSpn=           0           1           0           1           0           1           0           0           1
 AtZEff=   0.0000000   0.0000000   0.0000000   0.0000000   0.0000000   0.0000000   0.0000000   0.0000000   0.0000000
 NQMom=    0.0000000   0.0000000   0.0000000   0.0000000   0.0000000   0.0000000   0.0000000   0.0000000   0.0000000
 NMagM=    0.0000000   2.7928460   0.0000000   2.7928460   0.0000000   2.7928460   0.0000000   0.0000000   2.7928460
 AtZNuc=   6.0000000   1.0000000   6.0000000   1.0000000   6.0000000   1.0000000   6.0000000   6.0000000   1.0000000
 Leave Link  101 at Wed Jul 20 15:49:58 2016, MaxMem=    33554432 cpu:         0.4
 (Enter /home/proyectos/fulerenos/M3C-v2.0/M3C-deps_CCC/g09-AM64L-G09RevC.01/l103.exe)

 GradGradGradGradGradGradGradGradGradGradGradGradGradGradGradGradGradGrad
 Berny optimization.
 Initialization pass.
 Trust Radius=3.00D-01 FncErr=1.00D-07 GrdErr=1.00D-07
 Number of steps in this run=      2 maximum allowed number of steps=      2.
 GradGradGradGradGradGradGradGradGradGradGradGradGradGradGradGradGradGrad

 Leave Link  103 at Wed Jul 20 15:49:58 2016, MaxMem=    33554432 cpu:         0.1
 (Enter /home/proyectos/fulerenos/M3C-v2.0/M3C-deps_CCC/g09-AM64L-G09RevC.01/l202.exe)
                          Input orientation:                          
 ---------------------------------------------------------------------
 Center     Atomic      Atomic             Coordinates (Angstroms)
 Number     Number       Type             X           Y           Z
 ---------------------------------------------------------------------
      1          6           0       -2.496429   -0.228398    0.000657
      2          1           0       -3.049181   -0.396717    0.958998
      3          6           0       -1.180020    0.349358    0.002069
      4          1           0       -1.331528    1.482339    0.005916
      5          6           0        0.090062   -0.148430   -0.000094
      6          1           0       -3.049936   -0.390309   -0.958353
      7          6           0        1.436993   -0.035986   -0.000249
      8          6           0        2.745480   -0.038650   -0.000773
      9          1           0        3.854931   -0.096107   -0.001402
 ---------------------------------------------------------------------
                    Distance matrix (angstroms):
                    1          2          3          4          5
     1  C    0.000000
     2  H    1.119055   0.000000
     3  C    1.437615   2.228476   0.000000
     4  H    2.069696   2.718372   1.143072   0.000000
     5  C    2.587727   3.291861   1.364150   2.163415   0.000000
     6  H    1.119055   1.917362   2.228476   2.718372   3.291861
     7  C    3.938125   4.601743   2.645232   3.157540   1.351616
     8  C    5.245342   5.884510   3.944630   4.351487   2.657686
     9  H    6.352738   6.977070   5.054620   5.421338   3.765233
                    6          7          8          9
     6  H    0.000000
     7  C    4.601743   0.000000
     8  C    5.884510   1.308490   0.000000
     9  H    6.977070   2.418686   1.110939   0.000000
 Stoichiometry    C5H4(3+,4)
 Framework group  CS[SG(C5H2),X(H2)]
 Deg. of freedom    14
 Full point group                 CS      NOp   2
 Largest Abelian subgroup         CS      NOp   2
 Largest concise Abelian subgroup CS      NOp   2
                         Standard orientation:                         
 ---------------------------------------------------------------------
 Center     Atomic      Atomic             Coordinates (Angstroms)
 Number     Number       Type             X           Y           Z
 ---------------------------------------------------------------------
      1          6           0        2.251399   -1.102481   -0.000000
      2          1           0        2.809783   -1.248843    0.958681
      3          6           0        0.826454   -0.912034   -0.000000
      4          1           0        0.367144   -1.958766   -0.000000
      5          6           0        0.000000    0.173268    0.000000
      6          1           0        2.809783   -1.248843   -0.958681
      7          6           0       -1.209221    0.777130    0.000000
      8          6           0       -2.325781    1.459362    0.000000
      9          1           0       -3.243815    2.084979    0.000000
 ---------------------------------------------------------------------
 Rotational constants (GHZ):     74.6395304      2.0713233      2.0456187
 Leave Link  202 at Wed Jul 20 15:49:58 2016, MaxMem=    33554432 cpu:         0.0
 (Enter /home/proyectos/fulerenos/M3C-v2.0/M3C-deps_CCC/g09-AM64L-G09RevC.01/l301.exe)
 Standard basis: 6-311++G(3df,2p) (5D, 7F)
 Ernie: Thresh=  0.10000D-02 Tol=  0.10000D-05 Strict=F.
 There are   181 symmetry adapted cartesian basis functions of A'  symmetry.
 There are    84 symmetry adapted cartesian basis functions of A"  symmetry.
 There are   156 symmetry adapted basis functions of A'  symmetry.
 There are    79 symmetry adapted basis functions of A"  symmetry.
   235 basis functions,   338 primitive gaussians,   265 cartesian basis functions
    17 alpha electrons       14 beta electrons
       nuclear repulsion energy       118.3836279668 Hartrees.
 IExCor=  402 DFT=T Ex+Corr=B3LYP ExCW=0 ScaHFX=  0.200000
 ScaDFX=  0.800000  0.720000  1.000000  0.810000 ScalE2=  1.000000  1.000000
 IRadAn=      0 IRanWt=     -1 IRanGd=            0 ICorTp=0 IEmpDi=  4
 NAtoms=    9 NActive=    9 NUniq=    8 SFac= 1.27D+00 NAtFMM=   60 NAOKFM=F Big=F
 Integral buffers will be    131072 words long.
 Raffenetti 2 integral format.
 Two-electron integral symmetry is turned on.
 Leave Link  301 at Wed Jul 20 15:49:59 2016, MaxMem=    33554432 cpu:         0.4
 (Enter /home/proyectos/fulerenos/M3C-v2.0/M3C-deps_CCC/g09-AM64L-G09RevC.01/l302.exe)
 NPDir=0 NMtPBC=     1 NCelOv=     1 NCel=       1 NClECP=     1 NCelD=      1
         NCelK=      1 NCelE2=     1 NClLst=     1 CellRange=     0.0.
 One-electron integrals computed using PRISM.
 One-electron integral symmetry used in STVInt
 NBasis=   235 RedAO= T EigKep=  3.97D-06  NBF=   156    79
 NBsUse=   234 1.00D-06 EigRej=  3.90D-07 NBFU=   155    79
 Precomputing XC quadrature grid using
 IXCGrd= 4 IRadAn=           0 IRanWt=          -1 IRanGd=           0 AccXCQ= 0.00D+00.
 Generated NRdTot=       0 NPtTot=           0 NUsed=           0 NTot=          32
 NSgBfM=   265   265   265   265   265 MxSgAt=     9 MxSgA2=     9.
 Leave Link  302 at Wed Jul 20 15:50:00 2016, MaxMem=    33554432 cpu:         0.8
 (Enter /home/proyectos/fulerenos/M3C-v2.0/M3C-deps_CCC/g09-AM64L-G09RevC.01/l303.exe)
 DipDrv:  MaxL=1.
 Leave Link  303 at Wed Jul 20 15:50:00 2016, MaxMem=    33554432 cpu:         0.2
 (Enter /home/proyectos/fulerenos/M3C-v2.0/M3C-deps_CCC/g09-AM64L-G09RevC.01/l401.exe)
 ExpMin= 3.60D-02 ExpMax= 4.56D+03 ExpMxC= 6.82D+02 IAcc=3 IRadAn=         5 AccDes= 0.00D+00
 Harris functional with IExCor=  402 and IRadAn=       5 diagonalized for initial guess.
 HarFok:  IExCor=  402 AccDes= 0.00D+00 IRadAn=         5 IDoV= 1 UseB2=F ITyADJ=14
 ICtDFT=  3500011 ScaDFX=  1.000000  1.000000  1.000000  1.000000
 FoFCou: FMM=F IPFlag=           0 FMFlag=      100000 FMFlg1=           0
         NFxFlg=           0 DoJE=T BraDBF=F KetDBF=T FulRan=T
         wScrn=  0.000000 ICntrl=     500 IOpCl=  0 I1Cent=   200000004 NGrid=           0
         NMat0=    1 NMatS0=      1 NMatT0=    0 NMatD0=    1 NMtDS0=    0 NMtDT0=    0
 Petite list used in FoFCou.
 Harris En= -191.820245452362    
 JPrj=0 DoOrth=F DoCkMO=F.
 Initial guess orbital symmetries:
 Alpha Orbitals:
       Occupied  (A') (A') (A') (A') (A') (A') (A') (A') (A') (A')
                 (A') (A') (A") (A") (A') (A") (A')
       Virtual   (A') (A") (A') (A') (A") (A') (A') (A') (A") (A')
                 (A") (A') (A') (A') (A") (A') (A') (A") (A') (A')
                 (A') (A') (A") (A') (A") (A') (A') (A') (A') (A")
                 (A') (A') (A") (A') (A") (A') (A') (A') (A") (A')
                 (A') (A") (A') (A') (A") (A') (A') (A") (A') (A')
                 (A") (A') (A") (A') (A') (A") (A') (A') (A") (A')
                 (A") (A') (A") (A') (A') (A') (A") (A') (A') (A")
                 (A') (A") (A') (A") (A') (A') (A') (A') (A') (A")
                 (A") (A') (A") (A') (A') (A') (A") (A') (A") (A')
                 (A') (A') (A') (A") (A') (A') (A') (A") (A') (A")
                 (A') (A') (A") (A") (A') (A") (A') (A") (A') (A")
                 (A') (A') (A') (A') (A") (A') (A') (A") (A') (A")
                 (A') (A') (A") (A') (A") (A") (A') (A') (A") (A")
                 (A') (A') (A") (A') (A") (A') (A') (A") (A') (A')
                 (A") (A') (A") (A') (A") (A') (A") (A') (A') (A')
                 (A') (A") (A') (A") (A") (A') (A') (A') (A') (A")
                 (A') (A') (A") (A') (A') (A") (A') (A') (A') (A")
                 (A') (A") (A') (A') (A") (A') (A") (A') (A") (A')
                 (A') (A") (A') (A') (A") (A') (A') (A") (A') (A")
                 (A') (A") (A") (A') (A") (A') (A') (A") (A') (A")
                 (A') (A') (A") (A') (A") (A') (A') (A") (A') (A')
                 (A') (A') (A') (A') (A') (A') (A')
 Beta  Orbitals:
       Occupied  (A') (A') (A') (A') (A') (A') (A') (A') (A') (A')
                 (A') (A') (A") (A")
       Virtual   (A') (A") (A') (A') (A") (A') (A') (A") (A') (A')
                 (A') (A") (A') (A") (A') (A') (A') (A") (A') (A')
                 (A") (A') (A') (A') (A') (A") (A') (A") (A') (A')
                 (A') (A') (A") (A') (A') (A") (A') (A") (A') (A')
                 (A') (A") (A') (A') (A") (A') (A') (A") (A') (A')
                 (A") (A') (A') (A") (A') (A") (A') (A') (A") (A')
                 (A') (A") (A') (A") (A') (A") (A') (A') (A') (A")
                 (A') (A') (A") (A') (A") (A') (A") (A') (A') (A')
                 (A') (A') (A") (A") (A') (A") (A') (A') (A') (A")
                 (A') (A") (A') (A') (A') (A') (A") (A') (A') (A')
                 (A") (A') (A") (A') (A') (A") (A") (A') (A") (A')
                 (A") (A') (A") (A') (A') (A') (A') (A") (A') (A')
                 (A") (A') (A") (A') (A') (A") (A') (A") (A") (A')
                 (A') (A") (A") (A') (A') (A") (A') (A") (A') (A')
                 (A") (A') (A') (A") (A') (A") (A') (A") (A') (A")
                 (A') (A') (A') (A') (A") (A') (A") (A") (A') (A')
                 (A') (A') (A") (A') (A') (A") (A') (A') (A") (A')
                 (A') (A') (A") (A') (A") (A') (A') (A") (A') (A")
                 (A') (A") (A') (A') (A") (A') (A') (A") (A') (A')
                 (A") (A') (A") (A') (A") (A") (A') (A") (A') (A')
                 (A") (A') (A") (A') (A') (A") (A') (A") (A') (A')
                 (A") (A') (A') (A') (A') (A') (A') (A') (A') (A')
 The electronic state of the initial guess is 4-A".
 Initial guess <Sx>= 0.0000 <Sy>= 0.0000 <Sz>= 1.5000 <S**2>= 3.7500 S= 1.5000
 Leave Link  401 at Wed Jul 20 15:50:08 2016, MaxMem=    33554432 cpu:         8.2
 (Enter /home/proyectos/fulerenos/M3C-v2.0/M3C-deps_CCC/g09-AM64L-G09RevC.01/l502.exe)
 UHF open shell SCF:
 Using DIIS extrapolation, IDIIS=  1040.
 Integral symmetry usage will be decided dynamically.
 IVT=      233035 IEndB=      233035 NGot=    33554432 MDV=    33408528
 LenX=    33408528 LenY=    33337862
 Requested convergence on RMS density matrix=1.00D-08 within 128 cycles.
 Requested convergence on MAX density matrix=1.00D-06.
 Requested convergence on             energy=1.00D-06.
 No special actions if energy rises.
 Fock matrices will be formed incrementally for  20 cycles.

 Cycle   1  Pass 1  IDiag  1:
 FoFJK:  IHMeth= 1 ICntrl=       0 DoSepK=F KAlg= 0 I1Cent=   0 FoldK=F
 IRaf= 940000000 NMat=   1 IRICut=       1 DoRegI=T DoRafI=F ISym2E= 1.
 FoFCou: FMM=F IPFlag=           0 FMFlag=      100000 FMFlg1=           0
         NFxFlg=           0 DoJE=F BraDBF=F KetDBF=F FulRan=T
         wScrn=  0.000000 ICntrl=       0 IOpCl=  1 I1Cent=           0 NGrid=           0
         NMat0=    1 NMatS0=      1 NMatT0=    0 NMatD0=    1 NMtDS0=    0 NMtDT0=    0
 Petite list used in FoFCou.
 E= -191.023519949980    
 DIIS: error= 2.31D-02 at cycle   1 NSaved=   1.
 NSaved= 1 IEnMin= 1 EnMin= -191.023519949980     IErMin= 1 ErrMin= 2.31D-02
 ErrMax= 2.31D-02  0.00D+00 EMaxC= 1.00D-01 BMatC= 1.78D-01 BMatP= 1.78D-01
 IDIUse=3 WtCom= 7.69D-01 WtEn= 2.31D-01
 Coeff-Com:  0.100D+01
 Coeff-En:   0.100D+01
 Coeff:      0.100D+01
 Gap=     0.102 Goal=   None    Shift=    0.000
 Gap=     0.089 Goal=   None    Shift=    0.000
 GapD=    0.089 DampG=0.500 DampE=0.500 DampFc=0.2500 IDamp=-1.
 Damping current iteration by 2.50D-01
 RMSDP=1.04D-02 MaxDP=8.72D-01              OVMax= 5.00D-01

 Cycle   2  Pass 1  IDiag  1:
 RMSU=  2.07D-03    CP:  1.10D+00
 E= -191.046279060051     Delta-E=       -0.022759110072 Rises=F Damp=T
 DIIS: error= 8.47D-03 at cycle   2 NSaved=   2.
 NSaved= 2 IEnMin= 2 EnMin= -191.046279060051     IErMin= 2 ErrMin= 8.47D-03
 ErrMax= 8.47D-03  0.00D+00 EMaxC= 1.00D-01 BMatC= 6.40D-02 BMatP= 1.78D-01
 IDIUse=3 WtCom= 9.15D-01 WtEn= 8.47D-02
 Coeff-Com: -0.381D+00 0.138D+01
 Coeff-En:   0.000D+00 0.100D+01
 Coeff:     -0.348D+00 0.135D+01
 Gap=     0.108 Goal=   None    Shift=    0.000
 Gap=     0.151 Goal=   None    Shift=    0.000
 RMSDP=5.54D-03 MaxDP=4.96D-01 DE=-2.28D-02 OVMax= 3.30D-01

 Cycle   3  Pass 1  IDiag  1:
 RMSU=  3.16D-03    CP:  1.33D+00  2.38D+00
 E= -191.101676113408     Delta-E=       -0.055397053356 Rises=F Damp=F
 DIIS: error= 5.49D-03 at cycle   3 NSaved=   3.
 NSaved= 3 IEnMin= 3 EnMin= -191.101676113408     IErMin= 3 ErrMin= 5.49D-03
 ErrMax= 5.49D-03  0.00D+00 EMaxC= 1.00D-01 BMatC= 1.76D-02 BMatP= 6.40D-02
 IDIUse=3 WtCom= 9.45D-01 WtEn= 5.49D-02
 Coeff-Com: -0.296D+00 0.560D+00 0.736D+00
 Coeff-En:   0.000D+00 0.000D+00 0.100D+01
 Coeff:     -0.280D+00 0.529D+00 0.751D+00
 Gap=     0.102 Goal=   None    Shift=    0.000
 Gap=     0.102 Goal=   None    Shift=    0.000
 RMSDP=1.04D-03 MaxDP=7.70D-02 DE=-5.54D-02 OVMax= 1.29D-01

 Cycle   4  Pass 1  IDiag  1:
 RMSU=  8.36D-04    CP:  1.34D+00  2.67D+00  1.01D+00
 E= -191.108126928372     Delta-E=       -0.006450814964 Rises=F Damp=F
 DIIS: error= 2.86D-03 at cycle   4 NSaved=   4.
 NSaved= 4 IEnMin= 4 EnMin= -191.108126928372     IErMin= 4 ErrMin= 2.86D-03
 ErrMax= 2.86D-03  0.00D+00 EMaxC= 1.00D-01 BMatC= 5.54D-03 BMatP= 1.76D-02
 IDIUse=3 WtCom= 9.71D-01 WtEn= 2.86D-02
 Coeff-Com: -0.484D-01 0.672D-01 0.365D+00 0.616D+00
 Coeff-En:   0.000D+00 0.000D+00 0.000D+00 0.100D+01
 Coeff:     -0.470D-01 0.653D-01 0.355D+00 0.627D+00
 Gap=     0.112 Goal=   None    Shift=    0.000
 Gap=     0.107 Goal=   None    Shift=    0.000
 RMSDP=4.37D-04 MaxDP=2.79D-02 DE=-6.45D-03 OVMax= 3.96D-02

 Cycle   5  Pass 1  IDiag  1:
 RMSU=  3.83D-04    CP:  1.34D+00  2.62D+00  1.05D+00  1.12D+00
 E= -191.109933769334     Delta-E=       -0.001806840963 Rises=F Damp=F
 DIIS: error= 1.79D-03 at cycle   5 NSaved=   5.
 NSaved= 5 IEnMin= 5 EnMin= -191.109933769334     IErMin= 5 ErrMin= 1.79D-03
 ErrMax= 1.79D-03  0.00D+00 EMaxC= 1.00D-01 BMatC= 1.55D-03 BMatP= 5.54D-03
 IDIUse=3 WtCom= 9.82D-01 WtEn= 1.79D-02
 Coeff-Com:  0.838D-02-0.306D-01 0.148D+00 0.383D+00 0.491D+00
 Coeff-En:   0.000D+00 0.000D+00 0.000D+00 0.000D+00 0.100D+01
 Coeff:      0.823D-02-0.300D-01 0.146D+00 0.376D+00 0.500D+00
 Gap=     0.116 Goal=   None    Shift=    0.000
 Gap=     0.107 Goal=   None    Shift=    0.000
 RMSDP=2.11D-04 MaxDP=1.17D-02 DE=-1.81D-03 OVMax= 2.12D-02

 Cycle   6  Pass 1  IDiag  1:
 RMSU=  1.64D-04    CP:  1.34D+00  2.65D+00  1.06D+00  1.25D+00  9.44D-01
 E= -191.110461379743     Delta-E=       -0.000527610409 Rises=F Damp=F
 DIIS: error= 9.37D-04 at cycle   6 NSaved=   6.
 NSaved= 6 IEnMin= 6 EnMin= -191.110461379743     IErMin= 6 ErrMin= 9.37D-04
 ErrMax= 9.37D-04  0.00D+00 EMaxC= 1.00D-01 BMatC= 2.66D-04 BMatP= 1.55D-03
 IDIUse=3 WtCom= 9.91D-01 WtEn= 9.37D-03
 Coeff-Com:  0.236D-01-0.353D-01-0.648D-01-0.935D-01 0.239D+00 0.931D+00
 Coeff-En:   0.000D+00 0.000D+00 0.000D+00 0.000D+00 0.000D+00 0.100D+01
 Coeff:      0.233D-01-0.350D-01-0.642D-01-0.927D-01 0.237D+00 0.932D+00
 Gap=     0.119 Goal=   None    Shift=    0.000
 Gap=     0.110 Goal=   None    Shift=    0.000
 RMSDP=2.02D-04 MaxDP=1.37D-02 DE=-5.28D-04 OVMax= 2.48D-02

 Cycle   7  Pass 1  IDiag  1:
 RMSU=  1.12D-04    CP:  1.34D+00  2.65D+00  1.07D+00  1.36D+00  1.30D+00
                    CP:  9.89D-01
 E= -191.110626410638     Delta-E=       -0.000165030895 Rises=F Damp=F
 DIIS: error= 6.61D-04 at cycle   7 NSaved=   7.
 NSaved= 7 IEnMin= 7 EnMin= -191.110626410638     IErMin= 7 ErrMin= 6.61D-04
 ErrMax= 6.61D-04  0.00D+00 EMaxC= 1.00D-01 BMatC= 1.76D-04 BMatP= 2.66D-04
 IDIUse=3 WtCom= 9.93D-01 WtEn= 6.61D-03
 Coeff-Com:  0.117D-01-0.136D-01-0.519D-01-0.107D+00 0.393D-01 0.624D+00
 Coeff-Com:  0.497D+00
 Coeff-En:   0.000D+00 0.000D+00 0.000D+00 0.000D+00 0.000D+00 0.000D+00
 Coeff-En:   0.100D+01
 Coeff:      0.116D-01-0.135D-01-0.516D-01-0.106D+00 0.390D-01 0.620D+00
 Coeff:      0.501D+00
 Gap=     0.121 Goal=   None    Shift=    0.000
 Gap=     0.109 Goal=   None    Shift=    0.000
 RMSDP=6.91D-05 MaxDP=4.86D-03 DE=-1.65D-04 OVMax= 8.52D-03

 Cycle   8  Pass 1  IDiag  1:
 RMSU=  4.43D-05    CP:  1.34D+00  2.66D+00  1.07D+00  1.41D+00  1.35D+00
                    CP:  1.13D+00  8.49D-01
 E= -191.110691884945     Delta-E=       -0.000065474307 Rises=F Damp=F
 DIIS: error= 1.70D-04 at cycle   8 NSaved=   8.
 NSaved= 8 IEnMin= 8 EnMin= -191.110691884945     IErMin= 8 ErrMin= 1.70D-04
 ErrMax= 1.70D-04  0.00D+00 EMaxC= 1.00D-01 BMatC= 9.84D-06 BMatP= 1.76D-04
 IDIUse=3 WtCom= 9.98D-01 WtEn= 1.70D-03
 Coeff-Com: -0.457D-02 0.799D-02 0.232D-02 0.281D-02-0.568D-01-0.393D-01
 Coeff-Com:  0.123D+00 0.965D+00
 Coeff-En:   0.000D+00 0.000D+00 0.000D+00 0.000D+00 0.000D+00 0.000D+00
 Coeff-En:   0.000D+00 0.100D+01
 Coeff:     -0.456D-02 0.798D-02 0.232D-02 0.280D-02-0.567D-01-0.392D-01
 Coeff:      0.122D+00 0.965D+00
 Gap=     0.121 Goal=   None    Shift=    0.000
 Gap=     0.109 Goal=   None    Shift=    0.000
 RMSDP=3.79D-05 MaxDP=1.64D-03 DE=-6.55D-05 OVMax= 3.12D-03

 Cycle   9  Pass 1  IDiag  1:
 RMSU=  2.01D-05    CP:  1.34D+00  2.66D+00  1.07D+00  1.42D+00  1.36D+00
                    CP:  1.21D+00  1.00D+00  1.21D+00
 E= -191.110698359639     Delta-E=       -0.000006474694 Rises=F Damp=F
 DIIS: error= 4.78D-05 at cycle   9 NSaved=   9.
 NSaved= 9 IEnMin= 9 EnMin= -191.110698359639     IErMin= 9 ErrMin= 4.78D-05
 ErrMax= 4.78D-05  0.00D+00 EMaxC= 1.00D-01 BMatC= 1.68D-06 BMatP= 9.84D-06
 IDIUse=1 WtCom= 1.00D+00 WtEn= 0.00D+00
 Coeff-Com: -0.345D-02 0.488D-02 0.117D-01 0.214D-01-0.260D-01-0.127D+00
 Coeff-Com: -0.231D-01 0.315D+00 0.826D+00
 Coeff:     -0.345D-02 0.488D-02 0.117D-01 0.214D-01-0.260D-01-0.127D+00
 Coeff:     -0.231D-01 0.315D+00 0.826D+00
 Gap=     0.121 Goal=   None    Shift=    0.000
 Gap=     0.109 Goal=   None    Shift=    0.000
 RMSDP=1.43D-05 MaxDP=6.91D-04 DE=-6.47D-06 OVMax= 1.22D-03

 Cycle  10  Pass 1  IDiag  1:
 RMSU=  6.74D-06    CP:  1.34D+00  2.66D+00  1.06D+00  1.43D+00  1.37D+00
                    CP:  1.22D+00  1.06D+00  1.40D+00  1.20D+00
 E= -191.110699305005     Delta-E=       -0.000000945366 Rises=F Damp=F
 DIIS: error= 3.47D-05 at cycle  10 NSaved=  10.
 NSaved=10 IEnMin=10 EnMin= -191.110699305005     IErMin=10 ErrMin= 3.47D-05
 ErrMax= 3.47D-05  0.00D+00 EMaxC= 1.00D-01 BMatC= 5.57D-07 BMatP= 1.68D-06
 IDIUse=1 WtCom= 1.00D+00 WtEn= 0.00D+00
 Coeff-Com: -0.181D-03 0.560D-04 0.379D-02 0.629D-02-0.226D-02-0.462D-01
 Coeff-Com: -0.153D-01-0.460D-01 0.387D+00 0.713D+00
 Coeff:     -0.181D-03 0.560D-04 0.379D-02 0.629D-02-0.226D-02-0.462D-01
 Coeff:     -0.153D-01-0.460D-01 0.387D+00 0.713D+00
 Gap=     0.121 Goal=   None    Shift=    0.000
 Gap=     0.109 Goal=   None    Shift=    0.000
 RMSDP=5.73D-06 MaxDP=2.52D-04 DE=-9.45D-07 OVMax= 5.40D-04

 Cycle  11  Pass 1  IDiag  1:
 RMSU=  3.22D-06    CP:  1.34D+00  2.66D+00  1.06D+00  1.43D+00  1.38D+00
                    CP:  1.22D+00  1.07D+00  1.44D+00  1.30D+00  1.06D+00
 E= -191.110699567754     Delta-E=       -0.000000262749 Rises=F Damp=F
 DIIS: error= 1.36D-05 at cycle  11 NSaved=  11.
 NSaved=11 IEnMin=11 EnMin= -191.110699567754     IErMin=11 ErrMin= 1.36D-05
 ErrMax= 1.36D-05  0.00D+00 EMaxC= 1.00D-01 BMatC= 7.40D-08 BMatP= 5.57D-07
 IDIUse=1 WtCom= 1.00D+00 WtEn= 0.00D+00
 Coeff-Com:  0.306D-03-0.478D-03 0.485D-04-0.679D-03 0.910D-03-0.104D-02
 Coeff-Com: -0.186D-03-0.645D-01-0.297D-02 0.308D+00 0.761D+00
 Coeff:      0.306D-03-0.478D-03 0.485D-04-0.679D-03 0.910D-03-0.104D-02
 Coeff:     -0.186D-03-0.645D-01-0.297D-02 0.308D+00 0.761D+00
 Gap=     0.121 Goal=   None    Shift=    0.000
 Gap=     0.109 Goal=   None    Shift=    0.000
 RMSDP=2.81D-06 MaxDP=1.42D-04 DE=-2.63D-07 OVMax= 1.68D-04

 Cycle  12  Pass 1  IDiag  1:
 RMSU=  1.09D-06    CP:  1.34D+00  2.66D+00  1.06D+00  1.43D+00  1.38D+00
                    CP:  1.23D+00  1.08D+00  1.46D+00  1.37D+00  1.15D+00
                    CP:  8.64D-01
 E= -191.110699598985     Delta-E=       -0.000000031231 Rises=F Damp=F
 DIIS: error= 2.82D-06 at cycle  12 NSaved=  12.
 NSaved=12 IEnMin=12 EnMin= -191.110699598985     IErMin=12 ErrMin= 2.82D-06
 ErrMax= 2.82D-06  0.00D+00 EMaxC= 1.00D-01 BMatC= 5.24D-09 BMatP= 7.40D-08
 IDIUse=1 WtCom= 1.00D+00 WtEn= 0.00D+00
 Coeff-Com: -0.564D-04 0.984D-04-0.421D-03-0.586D-03 0.143D-03 0.655D-02
 Coeff-Com:  0.118D-02 0.411D-02-0.543D-01-0.382D-01 0.180D-01 0.106D+01
 Coeff:     -0.564D-04 0.984D-04-0.421D-03-0.586D-03 0.143D-03 0.655D-02
 Coeff:      0.118D-02 0.411D-02-0.543D-01-0.382D-01 0.180D-01 0.106D+01
 Gap=     0.121 Goal=   None    Shift=    0.000
 Gap=     0.109 Goal=   None    Shift=    0.000
 RMSDP=6.57D-07 MaxDP=3.26D-05 DE=-3.12D-08 OVMax= 4.18D-05

 Cycle  13  Pass 1  IDiag  1:
 RMSU=  3.31D-07    CP:  1.34D+00  2.66D+00  1.06D+00  1.43D+00  1.38D+00
                    CP:  1.23D+00  1.08D+00  1.46D+00  1.37D+00  1.20D+00
                    CP:  9.14D-01  1.10D+00
 E= -191.110699602138     Delta-E=       -0.000000003153 Rises=F Damp=F
 DIIS: error= 9.96D-07 at cycle  13 NSaved=  13.
 NSaved=13 IEnMin=13 EnMin= -191.110699602138     IErMin=13 ErrMin= 9.96D-07
 ErrMax= 9.96D-07  0.00D+00 EMaxC= 1.00D-01 BMatC= 3.70D-10 BMatP= 5.24D-09
 IDIUse=1 WtCom= 1.00D+00 WtEn= 0.00D+00
 Coeff-Com: -0.453D-04 0.601D-04 0.292D-04 0.163D-03-0.425D-04-0.532D-03
 Coeff-Com: -0.259D-03 0.372D-02 0.467D-02-0.128D-01-0.742D-01-0.871D-01
 Coeff-Com:  0.117D+01
 Coeff:     -0.453D-04 0.601D-04 0.292D-04 0.163D-03-0.425D-04-0.532D-03
 Coeff:     -0.259D-03 0.372D-02 0.467D-02-0.128D-01-0.742D-01-0.871D-01
 Coeff:      0.117D+01
 Gap=     0.121 Goal=   None    Shift=    0.000
 Gap=     0.109 Goal=   None    Shift=    0.000
 RMSDP=2.55D-07 MaxDP=2.16D-05 DE=-3.15D-09 OVMax= 1.37D-05

 Cycle  14  Pass 1  IDiag  1:
 RMSU=  1.06D-07    CP:  1.34D+00  2.66D+00  1.06D+00  1.43D+00  1.38D+00
                    CP:  1.23D+00  1.08D+00  1.46D+00  1.38D+00  1.20D+00
                    CP:  9.19D-01  1.17D+00  1.17D+00
 E= -191.110699602436     Delta-E=       -0.000000000298 Rises=F Damp=F
 DIIS: error= 3.30D-07 at cycle  14 NSaved=  14.
 NSaved=14 IEnMin=14 EnMin= -191.110699602436     IErMin=14 ErrMin= 3.30D-07
 ErrMax= 3.30D-07  0.00D+00 EMaxC= 1.00D-01 BMatC= 3.67D-11 BMatP= 3.70D-10
 IDIUse=1 WtCom= 1.00D+00 WtEn= 0.00D+00
 Coeff-Com:  0.759D-06-0.135D-05 0.411D-04 0.482D-04-0.109D-03-0.613D-03
 Coeff-Com:  0.333D-05-0.536D-03 0.567D-02 0.392D-02-0.900D-02-0.986D-01
 Coeff-Com:  0.633D-01 0.104D+01
 Coeff:      0.759D-06-0.135D-05 0.411D-04 0.482D-04-0.109D-03-0.613D-03
 Coeff:      0.333D-05-0.536D-03 0.567D-02 0.392D-02-0.900D-02-0.986D-01
 Coeff:      0.633D-01 0.104D+01
 Gap=     0.121 Goal=   None    Shift=    0.000
 Gap=     0.109 Goal=   None    Shift=    0.000
 RMSDP=6.76D-08 MaxDP=2.65D-06 DE=-2.98D-10 OVMax= 6.44D-06

 Cycle  15  Pass 1  IDiag  1:
 RMSU=  3.35D-08    CP:  1.34D+00  2.66D+00  1.06D+00  1.43D+00  1.38D+00
                    CP:  1.23D+00  1.08D+00  1.46D+00  1.38D+00  1.20D+00
                    CP:  9.16D-01  1.17D+00  1.27D+00  1.09D+00
 E= -191.110699602465     Delta-E=       -0.000000000029 Rises=F Damp=F
 DIIS: error= 7.17D-08 at cycle  15 NSaved=  15.
 NSaved=15 IEnMin=15 EnMin= -191.110699602465     IErMin=15 ErrMin= 7.17D-08
 ErrMax= 7.17D-08  0.00D+00 EMaxC= 1.00D-01 BMatC= 2.60D-12 BMatP= 3.67D-11
 IDIUse=1 WtCom= 1.00D+00 WtEn= 0.00D+00
 Coeff-Com:  0.260D-05-0.321D-05 0.500D-05-0.189D-05-0.231D-04-0.203D-04
 Coeff-Com:  0.249D-05-0.274D-03 0.309D-03 0.123D-02 0.441D-02-0.444D-02
 Coeff-Com: -0.801D-01 0.730D-01 0.101D+01
 Coeff:      0.260D-05-0.321D-05 0.500D-05-0.189D-05-0.231D-04-0.203D-04
 Coeff:      0.249D-05-0.274D-03 0.309D-03 0.123D-02 0.441D-02-0.444D-02
 Coeff:     -0.801D-01 0.730D-01 0.101D+01
 Gap=     0.121 Goal=   None    Shift=    0.000
 Gap=     0.109 Goal=   None    Shift=    0.000
 RMSDP=2.11D-08 MaxDP=2.05D-06 DE=-2.86D-11 OVMax= 1.21D-06

 Cycle  16  Pass 1  IDiag  1:
 RMSU=  9.55D-09    CP:  1.34D+00  2.66D+00  1.06D+00  1.43D+00  1.38D+00
                    CP:  1.23D+00  1.08D+00  1.46D+00  1.38D+00  1.20D+00
                    CP:  9.15D-01  1.17D+00  1.27D+00  1.16D+00  1.17D+00
 E= -191.110699602465     Delta-E=        0.000000000000 Rises=F Damp=F
 DIIS: error= 1.99D-08 at cycle  16 NSaved=  16.
 NSaved=16 IEnMin=15 EnMin= -191.110699602465     IErMin=16 ErrMin= 1.99D-08
 ErrMax= 1.99D-08  0.00D+00 EMaxC= 1.00D-01 BMatC= 2.21D-13 BMatP= 2.60D-12
 IDIUse=1 WtCom= 1.00D+00 WtEn= 0.00D+00
 Coeff-Com:  0.109D-06-0.965D-07-0.238D-05-0.270D-05 0.495D-05 0.471D-04
 Coeff-Com: -0.581D-05-0.648D-06-0.409D-03-0.852D-04 0.166D-02 0.675D-02
 Coeff-Com: -0.176D-01-0.764D-01 0.928D-01 0.993D+00
 Coeff:      0.109D-06-0.965D-07-0.238D-05-0.270D-05 0.495D-05 0.471D-04
 Coeff:     -0.581D-05-0.648D-06-0.409D-03-0.852D-04 0.166D-02 0.675D-02
 Coeff:     -0.176D-01-0.764D-01 0.928D-01 0.993D+00
 Gap=     0.121 Goal=   None    Shift=    0.000
 Gap=     0.109 Goal=   None    Shift=    0.000
 RMSDP=5.70D-09 MaxDP=3.29D-07 DE= 2.27D-13 OVMax= 3.74D-07

 SCF Done:  E(UB3LYP) =  -191.110699602     A.U. after   16 cycles
            NFock= 16  Conv=0.57D-08     -V/T= 2.0043
 <Sx>= 0.0000 <Sy>= 0.0000 <Sz>= 1.5000 <S**2>= 3.7674 S= 1.5043
 <L.S>= 0.000000000000E+00
 KE= 1.902876085793D+02 PE=-6.581458426007D+02 EE= 1.583639064521D+02
 Annihilation of the first spin contaminant:
 S**2 before annihilation     3.7674,   after     3.7501
 Leave Link  502 at Wed Jul 20 16:00:43 2016, MaxMem=    33554432 cpu:       634.3
 (Enter /home/proyectos/fulerenos/M3C-v2.0/M3C-deps_CCC/g09-AM64L-G09RevC.01/l801.exe)
 DoSCS=F DFT=T ScalE2(SS,OS)=  1.000000  1.000000
 Range of M.O.s used for correlation:     1   234
 NBasis=   235 NAE=    17 NBE=    14 NFC=     0 NFV=     0
 NROrb=    234 NOA=    17 NOB=    14 NVA=   217 NVB=   220

 **** Warning!!: The largest alpha MO coefficient is  0.17769215D+03


 **** Warning!!: The largest beta MO coefficient is  0.14858100D+03

 Leave Link  801 at Wed Jul 20 16:00:43 2016, MaxMem=    33554432 cpu:         0.1
 (Enter /home/proyectos/fulerenos/M3C-v2.0/M3C-deps_CCC/g09-AM64L-G09RevC.01/l1101.exe)
 Using compressed storage, NAtomX=     9.
 Will process     10 centers per pass.
 Leave Link 1101 at Wed Jul 20 16:00:44 2016, MaxMem=    33554432 cpu:         0.7
 (Enter /home/proyectos/fulerenos/M3C-v2.0/M3C-deps_CCC/g09-AM64L-G09RevC.01/l1102.exe)
 Symmetrizing basis deriv contribution to polar:
 IMax=3 JMax=2 DiffMx= 0.00D+00
 Leave Link 1102 at Wed Jul 20 16:00:44 2016, MaxMem=    33554432 cpu:         0.1
 (Enter /home/proyectos/fulerenos/M3C-v2.0/M3C-deps_CCC/g09-AM64L-G09RevC.01/l1110.exe)
 Forming Gx(P) for the SCF density, NAtomX=     9.
 Integral derivatives from FoFJK, PRISM(SPDF).
 Do as many integral derivatives as possible in FoFJK.
 G2DrvN: MDV=      33554256.
 G2DrvN: will do    10 centers at a time, making    1 passes.
 Calling FoFCou, ICntrl=  3107 FMM=F I1Cent=   0 AccDes= 0.00D+00.
 FoFJK:  IHMeth= 1 ICntrl=    3107 DoSepK=F KAlg= 0 I1Cent=   0 FoldK=F
 IRaf=         0 NMat=   1 IRICut=       1 DoRegI=T DoRafI=F ISym2E= 1.
 FoFCou: FMM=F IPFlag=           0 FMFlag=      100000 FMFlg1=           0
         NFxFlg=           0 DoJE=F BraDBF=F KetDBF=F FulRan=T
         wScrn=  0.000000 ICntrl=    3107 IOpCl=  1 I1Cent=           0 NGrid=           0
         NMat0=    1 NMatS0=      1 NMatT0=    0 NMatD0=    1 NMtDS0=    0 NMtDT0=    0
 Petite list used in FoFCou.
 End of G2Drv F.D. properties file   721 does not exist.
 End of G2Drv F.D. properties file   722 does not exist.
 End of G2Drv F.D. properties file   788 does not exist.
 Leave Link 1110 at Wed Jul 20 16:09:58 2016, MaxMem=    33554432 cpu:       552.3
 (Enter /home/proyectos/fulerenos/M3C-v2.0/M3C-deps_CCC/g09-AM64L-G09RevC.01/l1002.exe)
 Minotr:  UHF open shell wavefunction.
          IDoAtm=111111111
          Direct CPHF calculation.
          Differentiating once with respect to electric field.
                with respect to dipole field.
          Differentiating once with respect to nuclear coordinates.
          Using symmetry in CPHF.
          Requested convergence is 1.0D-08 RMS, and 1.0D-07 maximum.
          Secondary convergence is 1.0D-12 RMS, and 1.0D-12 maximum.
          NewPWx=T KeepS1=F KeepF1=F KeepIn=T MapXYZ=F SortEE=F KeepMc=T.
          MDV=      33553870 using IRadAn=       2.
 Generate precomputed XC quadrature information.
          Solving linear equations simultaneously, MaxMat=       0.
 FoFJK:  IHMeth= 1 ICntrl=       0 DoSepK=F KAlg= 0 I1Cent=   0 FoldK=F
 IRaf= 940000000 NMat=  27 IRICut=      67 DoRegI=T DoRafI=T ISym2E= 2.
 FoFCou: FMM=F IPFlag=           0 FMFlag=      100000 FMFlg1=           0
         NFxFlg=           0 DoJE=F BraDBF=F KetDBF=F FulRan=T
         wScrn=  0.000000 ICntrl=       0 IOpCl=  1 I1Cent=           0 NGrid=           0
         NMat0=   27 NMatS0=     27 NMatT0=    0 NMatD0=   27 NMtDS0=    0 NMtDT0=    0
 Integrals replicated using symmetry in FoFCou.
          There are    27 degrees of freedom in the 1st order CPHF.  IDoFFX=4 NUNeed=    27.
     27 vectors produced by pass  0 Test12= 2.51D-14 3.70D-09 XBig12= 3.66D+02 1.12D+01.
 AX will form    27 AO Fock derivatives at one time.
     27 vectors produced by pass  1 Test12= 2.51D-14 3.70D-09 XBig12= 6.81D+01 3.03D+00.
     27 vectors produced by pass  2 Test12= 2.51D-14 3.70D-09 XBig12= 3.72D+00 5.49D-01.
     27 vectors produced by pass  3 Test12= 2.51D-14 3.70D-09 XBig12= 4.57D-02 3.63D-02.
     27 vectors produced by pass  4 Test12= 2.51D-14 3.70D-09 XBig12= 3.95D-04 2.96D-03.
     27 vectors produced by pass  5 Test12= 2.51D-14 3.70D-09 XBig12= 2.26D-06 2.77D-04.
     26 vectors produced by pass  6 Test12= 2.51D-14 3.70D-09 XBig12= 9.12D-09 1.32D-05.
      6 vectors produced by pass  7 Test12= 2.51D-14 3.70D-09 XBig12= 2.72D-11 6.24D-07.
      3 vectors produced by pass  8 Test12= 2.51D-14 3.70D-09 XBig12= 3.48D-13 9.57D-08.
      3 vectors produced by pass  9 Test12= 2.51D-14 3.70D-09 XBig12= 2.71D-14 2.49D-08.
      1 vectors produced by pass 10 Test12= 2.51D-14 3.70D-09 XBig12= 2.22D-15 7.85D-09.
 InvSVY:  IOpt=1 It=  1 EMax= 7.11D-15
 Solved reduced A of dimension   201 with    27 vectors.
 FullF1:  Do perturbations    1 to    27.
 Isotropic polarizability for W=    0.000000       56.25 Bohr**3.
 End of Minotr F.D. properties file   721 does not exist.
 End of Minotr F.D. properties file   722 does not exist.
 End of Minotr F.D. properties file   788 does not exist.
 Leave Link 1002 at Wed Jul 20 16:46:26 2016, MaxMem=    33554432 cpu:      2186.3
 (Enter /home/proyectos/fulerenos/M3C-v2.0/M3C-deps_CCC/g09-AM64L-G09RevC.01/l601.exe)
 Copying SCF densities to generalized density rwf, IOpCl= 1 IROHF=0.

 **********************************************************************

            Population analysis using the SCF density.

 **********************************************************************

 Orbital symmetries:
 Alpha Orbitals:
       Occupied  (A') (A') (A') (A') (A') (A') (A') (A') (A') (A')
                 (A') (A') (A") (A') (A") (A") (A')
       Virtual   (A') (A") (A') (A") (A') (A') (A') (A') (A') (A")
                 (A') (A") (A') (A") (A') (A') (A') (A') (A") (A')
                 (A") (A') (A') (A") (A') (A') (A") (A') (A") (A')
                 (A') (A') (A") (A') (A') (A') (A") (A') (A') (A")
                 (A') (A') (A") (A') (A') (A") (A') (A") (A') (A')
                 (A') (A') (A") (A") (A') (A') (A") (A') (A') (A")
                 (A') (A') (A") (A') (A') (A') (A") (A') (A') (A")
                 (A') (A") (A') (A") (A') (A') (A') (A') (A") (A')
                 (A") (A') (A') (A') (A") (A') (A') (A") (A") (A')
                 (A') (A") (A') (A') (A') (A') (A') (A") (A") (A')
                 (A') (A') (A") (A") (A') (A") (A') (A") (A') (A")
                 (A') (A') (A') (A') (A") (A') (A") (A') (A') (A")
                 (A') (A') (A") (A') (A") (A') (A") (A') (A") (A")
                 (A') (A') (A") (A") (A') (A') (A') (A") (A') (A')
                 (A") (A') (A") (A') (A") (A") (A') (A') (A') (A')
                 (A') (A") (A') (A") (A") (A') (A') (A') (A') (A")
                 (A') (A') (A") (A') (A') (A") (A') (A') (A') (A")
                 (A') (A") (A') (A') (A") (A') (A") (A') (A") (A')
                 (A') (A") (A') (A') (A") (A') (A') (A") (A') (A")
                 (A') (A") (A") (A') (A") (A') (A') (A') (A") (A")
                 (A') (A') (A") (A') (A") (A') (A') (A") (A') (A')
                 (A') (A') (A') (A') (A') (A') (A')
 Beta  Orbitals:
       Occupied  (A') (A') (A') (A') (A') (A') (A') (A') (A') (A')
                 (A') (A') (A") (A")
       Virtual   (A') (A") (A') (A') (A") (A') (A") (A') (A') (A')
                 (A') (A') (A") (A') (A") (A') (A") (A') (A') (A')
                 (A') (A") (A') (A") (A') (A') (A") (A') (A') (A")
                 (A') (A") (A') (A') (A') (A") (A') (A') (A') (A")
                 (A') (A') (A") (A') (A') (A') (A") (A') (A') (A")
                 (A') (A") (A') (A') (A") (A') (A") (A') (A') (A")
                 (A') (A') (A") (A') (A') (A") (A') (A') (A") (A')
                 (A') (A') (A") (A') (A") (A') (A") (A') (A') (A')
                 (A') (A") (A') (A") (A') (A') (A") (A') (A') (A')
                 (A") (A") (A') (A') (A') (A") (A') (A') (A') (A')
                 (A") (A") (A') (A') (A') (A") (A") (A') (A") (A')
                 (A') (A") (A") (A') (A') (A') (A') (A") (A') (A")
                 (A') (A') (A") (A') (A') (A") (A') (A") (A") (A')
                 (A') (A") (A") (A') (A') (A") (A') (A") (A') (A")
                 (A') (A') (A') (A") (A') (A") (A") (A') (A") (A')
                 (A') (A') (A') (A') (A") (A") (A') (A") (A') (A')
                 (A') (A') (A") (A') (A') (A") (A') (A') (A") (A')
                 (A') (A') (A") (A') (A") (A') (A') (A") (A') (A")
                 (A') (A") (A') (A') (A") (A') (A') (A") (A') (A')
                 (A") (A') (A") (A") (A') (A") (A') (A") (A') (A')
                 (A") (A') (A") (A') (A") (A') (A') (A") (A') (A')
                 (A") (A') (A') (A') (A') (A') (A') (A') (A') (A')
 The electronic state is 4-A".
 Alpha  occ. eigenvalues --  -10.98089 -10.96793 -10.96584 -10.96074 -10.95156
 Alpha  occ. eigenvalues --   -1.54373  -1.49766  -1.41409  -1.31727  -1.19424
 Alpha  occ. eigenvalues --   -1.17121  -1.13877  -1.12142  -1.05874  -1.05024
 Alpha  occ. eigenvalues --   -0.95300  -0.91767
 Alpha virt. eigenvalues --   -0.79674  -0.75771  -0.66691  -0.59127  -0.53672
 Alpha virt. eigenvalues --   -0.48144  -0.47342  -0.45888  -0.44410  -0.42124
 Alpha virt. eigenvalues --   -0.39344  -0.38295  -0.37577  -0.36875  -0.36075
 Alpha virt. eigenvalues --   -0.35852  -0.33538  -0.32618  -0.32530  -0.30953
 Alpha virt. eigenvalues --   -0.29117  -0.28762  -0.27496  -0.26655  -0.24954
 Alpha virt. eigenvalues --   -0.23609  -0.22541  -0.22084  -0.20753  -0.19889
 Alpha virt. eigenvalues --   -0.19506  -0.18812  -0.18304  -0.17751  -0.15660
 Alpha virt. eigenvalues --   -0.15044  -0.14731  -0.13909  -0.11811  -0.10697
 Alpha virt. eigenvalues --   -0.10172  -0.08673  -0.07381  -0.07245  -0.06426
 Alpha virt. eigenvalues --   -0.03804  -0.03688  -0.02190  -0.01815  -0.01101
 Alpha virt. eigenvalues --   -0.00202   0.02395   0.02400   0.04647   0.05195
 Alpha virt. eigenvalues --    0.06131   0.06220   0.06570   0.07908   0.10064
 Alpha virt. eigenvalues --    0.10091   0.11924   0.12260   0.14056   0.16305
 Alpha virt. eigenvalues --    0.19098   0.19163   0.23660   0.26015   0.27247
 Alpha virt. eigenvalues --    0.29618   0.31353   0.32827   0.36053   0.38450
 Alpha virt. eigenvalues --    0.41430   0.48919   0.50890   0.52389   0.54570
 Alpha virt. eigenvalues --    0.55006   0.59182   0.62259   0.65272   0.65307
 Alpha virt. eigenvalues --    0.66832   0.67605   0.67968   0.69585   0.73262
 Alpha virt. eigenvalues --    0.73880   0.76017   0.78550   0.79637   0.80506
 Alpha virt. eigenvalues --    0.85341   0.87300   0.87753   0.90044   0.94744
 Alpha virt. eigenvalues --    0.97769   0.99006   1.02745   1.03655   1.07012
 Alpha virt. eigenvalues --    1.10565   1.14207   1.17892   1.18701   1.23280
 Alpha virt. eigenvalues --    1.29813   1.31785   1.44665   1.47044   1.48403
 Alpha virt. eigenvalues --    1.60791   1.70930   1.71061   1.79628   1.85914
 Alpha virt. eigenvalues --    1.89491   1.93085   1.93671   1.95198   1.98221
 Alpha virt. eigenvalues --    2.00961   2.01806   2.06096   2.10658   2.10820
 Alpha virt. eigenvalues --    2.11295   2.14477   2.15178   2.17386   2.18426
 Alpha virt. eigenvalues --    2.20939   2.22753   2.24252   2.27244   2.28761
 Alpha virt. eigenvalues --    2.30764   2.31231   2.34930   2.36391   2.36934
 Alpha virt. eigenvalues --    2.42731   2.43270   2.46502   2.47823   2.49385
 Alpha virt. eigenvalues --    2.57673   2.65367   2.67520   2.67979   2.78103
 Alpha virt. eigenvalues --    2.80266   2.86400   2.95552   3.08536   3.11316
 Alpha virt. eigenvalues --    3.14501   3.15493   3.21470   3.26979   3.38904
 Alpha virt. eigenvalues --    3.41871   3.51439   3.55145   3.60317   3.60670
 Alpha virt. eigenvalues --    3.63283   3.64682   3.68238   3.78690   3.85052
 Alpha virt. eigenvalues --    4.01112   4.16507   4.26087   4.36036   4.49395
 Alpha virt. eigenvalues --    4.62943   4.76994   4.92380   4.98803   5.08215
 Alpha virt. eigenvalues --    5.27827   5.88046   6.17176   6.18210   6.27707
 Alpha virt. eigenvalues --    6.28095   6.30880   6.33927   6.33956   6.39256
 Alpha virt. eigenvalues --    6.45131   6.52907   6.56287   6.56692   6.59114
 Alpha virt. eigenvalues --    6.68425   6.72680   6.72882   6.83971   6.94186
 Alpha virt. eigenvalues --    6.97613   7.10628   7.20296   7.30450   7.37299
 Alpha virt. eigenvalues --    7.60179   7.81222  23.16882  23.76422  24.50960
 Alpha virt. eigenvalues --   24.97837  25.30375
  Beta  occ. eigenvalues --  -10.97187 -10.96678 -10.94868 -10.94572 -10.94459
  Beta  occ. eigenvalues --   -1.50384  -1.45662  -1.37616  -1.29505  -1.17711
  Beta  occ. eigenvalues --   -1.15358  -1.11503  -1.10633  -1.00744
  Beta virt. eigenvalues --   -0.89813  -0.84893  -0.79228  -0.74992  -0.70328
  Beta virt. eigenvalues --   -0.57584  -0.54722  -0.49437  -0.47306  -0.46183
  Beta virt. eigenvalues --   -0.44964  -0.42992  -0.41755  -0.38237  -0.37716
  Beta virt. eigenvalues --   -0.36747  -0.36312  -0.35492  -0.34818  -0.32748
  Beta virt. eigenvalues --   -0.31750  -0.31602  -0.30281  -0.28244  -0.28072
  Beta virt. eigenvalues --   -0.26811  -0.25963  -0.24245  -0.23228  -0.22228
  Beta virt. eigenvalues --   -0.21248  -0.20273  -0.19238  -0.19167  -0.18111
  Beta virt. eigenvalues --   -0.17742  -0.17175  -0.14918  -0.14096  -0.13823
  Beta virt. eigenvalues --   -0.12912  -0.11334  -0.09671  -0.09339  -0.08168
  Beta virt. eigenvalues --   -0.06701  -0.06676  -0.05039  -0.02915  -0.02825
  Beta virt. eigenvalues --   -0.01307  -0.01083   0.00311   0.00352   0.03276
  Beta virt. eigenvalues --    0.03605   0.05786   0.06589   0.06749   0.07680
  Beta virt. eigenvalues --    0.07685   0.09733   0.10609   0.11194   0.12815
  Beta virt. eigenvalues --    0.12841   0.14764   0.17128   0.19710   0.19797
  Beta virt. eigenvalues --    0.25291   0.27119   0.28251   0.30451   0.32140
  Beta virt. eigenvalues --    0.34695   0.36926   0.39461   0.42274   0.49506
  Beta virt. eigenvalues --    0.51988   0.53245   0.55481   0.55513   0.60138
  Beta virt. eigenvalues --    0.63364   0.65622   0.66638   0.67634   0.68763
  Beta virt. eigenvalues --    0.68911   0.70223   0.73947   0.75074   0.80193
  Beta virt. eigenvalues --    0.80587   0.80998   0.84026   0.88456   0.88906
  Beta virt. eigenvalues --    0.90016   0.93964   0.98243   0.99268   1.01119
  Beta virt. eigenvalues --    1.03727   1.06351   1.11048   1.14109   1.17938
  Beta virt. eigenvalues --    1.20308   1.20545   1.25192   1.32460   1.34972
  Beta virt. eigenvalues --    1.45950   1.48269   1.50391   1.62942   1.73602
  Beta virt. eigenvalues --    1.74014   1.83765   1.89949   1.94706   1.95815
  Beta virt. eigenvalues --    1.98143   1.99153   2.00523   2.03563   2.04304
  Beta virt. eigenvalues --    2.08459   2.12628   2.13905   2.14704   2.17456
  Beta virt. eigenvalues --    2.18774   2.21399   2.21714   2.24602   2.27170
  Beta virt. eigenvalues --    2.27358   2.28918   2.30939   2.33615   2.34438
  Beta virt. eigenvalues --    2.38391   2.39328   2.40040   2.45076   2.45327
  Beta virt. eigenvalues --    2.48433   2.49584   2.51385   2.59716   2.68073
  Beta virt. eigenvalues --    2.69521   2.70272   2.79036   2.83202   2.88113
  Beta virt. eigenvalues --    2.98112   3.12309   3.13717   3.15861   3.17156
  Beta virt. eigenvalues --    3.24611   3.28840   3.41065   3.43197   3.52206
  Beta virt. eigenvalues --    3.55928   3.61343   3.61683   3.65247   3.65422
  Beta virt. eigenvalues --    3.69217   3.79876   3.86209   4.03669   4.18424
  Beta virt. eigenvalues --    4.28058   4.37482   4.51590   4.64410   4.77616
  Beta virt. eigenvalues --    4.94395   5.02269   5.10439   5.28914   5.90278
  Beta virt. eigenvalues --    6.23786   6.25013   6.31201   6.35493   6.35733
  Beta virt. eigenvalues --    6.39500   6.40411   6.43053   6.46413   6.55723
  Beta virt. eigenvalues --    6.59134   6.61124   6.61975   6.71664   6.74892
  Beta virt. eigenvalues --    6.76030   6.87297   6.95917   7.00692   7.11923
  Beta virt. eigenvalues --    7.21151   7.32107   7.38908   7.62014   7.83424
  Beta virt. eigenvalues --   23.18252  23.76887  24.51931  24.99425  25.32170
          Condensed to atoms (all electrons):
               1          2          3          4          5          6
     1  C    6.068861   0.387311  -0.542770  -0.061007  -0.206729   0.387311
     2  H    0.387311   0.316140  -0.058375   0.000244   0.008589  -0.012975
     3  C   -0.542770  -0.058375  10.914463   0.433572  -3.017726  -0.058375
     4  H   -0.061007   0.000244   0.433572   0.387214  -0.072985   0.000244
     5  C   -0.206729   0.008589  -3.017726  -0.072985   8.763266   0.008589
     6  H    0.387311  -0.012975  -0.058375   0.000244   0.008589   0.316140
     7  C   -0.083801   0.001959  -1.290442   0.047359  -0.174798   0.001959
     8  C    0.076334   0.001372  -0.506794  -0.038916   0.078007   0.001372
     9  H    0.000594   0.000019  -0.011969  -0.000312  -0.014405   0.000019
               7          8          9
     1  C   -0.083801   0.076334   0.000594
     2  H    0.001959   0.001372   0.000019
     3  C   -1.290442  -0.506794  -0.011969
     4  H    0.047359  -0.038916  -0.000312
     5  C   -0.174798   0.078007  -0.014405
     6  H    0.001959   0.001372   0.000019
     7  C    8.372911  -1.192734   0.000794
     8  C   -1.192734   6.832508   0.309107
     9  H    0.000794   0.309107   0.229221
          Atomic-Atomic Spin Densities.
               1          2          3          4          5          6
     1  C    0.206699   0.004779  -0.138509   0.029824  -0.015893   0.004779
     2  H    0.004779   0.020684  -0.030359  -0.000701   0.025855   0.000531
     3  C   -0.138509  -0.030359   4.176011  -0.011394  -2.772931  -0.030359
     4  H    0.029824  -0.000701  -0.011394   0.026556   0.003866  -0.000701
     5  C   -0.015893   0.025855  -2.772931   0.003866   3.185960   0.025855
     6  H    0.004779   0.000531  -0.030359  -0.000701   0.025855   0.020684
     7  C   -0.014723   0.003560  -0.590409  -0.009257   0.652841   0.003560
     8  C    0.020689   0.001194  -0.478228  -0.005279  -0.007516   0.001194
     9  H    0.000109   0.000018  -0.006840  -0.000191  -0.002393   0.000018
               7          8          9
     1  C   -0.014723   0.020689   0.000109
     2  H    0.003560   0.001194   0.000018
     3  C   -0.590409  -0.478228  -0.006840
     4  H   -0.009257  -0.005279  -0.000191
     5  C    0.652841  -0.007516  -0.002393
     6  H    0.003560   0.001194   0.000018
     7  C    0.838862  -0.119854  -0.003295
     8  C   -0.119854   1.457342   0.004515
     9  H   -0.003295   0.004515  -0.021506
 Mulliken charges and spin densities:
               1          2
     1  C   -0.026104   0.097753
     2  H    0.355717   0.025560
     3  C    0.138417   0.116983
     4  H    0.304586   0.032723
     5  C    0.628194   1.095644
     6  H    0.355717   0.025560
     7  C    0.316794   0.761284
     8  C    0.439746   0.874059
     9  H    0.486933  -0.029566
 Sum of Mulliken charges =   3.00000   3.00000
 Mulliken charges and spin densities with hydrogens summed into heavy atoms:
               1          2
     1  C    0.685330   0.148873
     3  C    0.443003   0.149705
     5  C    0.628194   1.095644
     7  C    0.316794   0.761284
     8  C    0.926679   0.844493
 APT charges:
               1
     1  C    0.255331
     2  H    0.373247
     3  C    0.328580
     4  H    0.324589
     5  C    0.018747
     6  H    0.373247
     7  C    0.241580
     8  C    0.577306
     9  H    0.507373
 Sum of APT charges =   3.00000
 APT charges with hydrogens summed into heavy atoms:
               1
     1  C    1.001825
     3  C    0.653169
     5  C    0.018747
     7  C    0.241580
     8  C    1.084679
 Electronic spatial extent (au):  <R**2>=            494.3982
 Charge=              3.0000 electrons
 Dipole moment (field-independent basis, Debye):
    X=              0.7068    Y=             -0.7987    Z=              0.0000  Tot=              1.0666
 Quadrupole moment (field-independent basis, Debye-Ang):
   XX=             43.8176   YY=              4.5995   ZZ=            -20.8079
   XY=            -37.2513   XZ=              0.0000   YZ=             -0.0000
 Traceless Quadrupole moment (field-independent basis, Debye-Ang):
   XX=             34.6145   YY=             -4.6036   ZZ=            -30.0109
   XY=            -37.2513   XZ=              0.0000   YZ=             -0.0000
 Octapole moment (field-independent basis, Debye-Ang**2):
  XXX=             -3.9776  YYY=              1.0340  ZZZ=              0.0000  XYY=            -16.4070
  XXY=             19.0125  XXZ=              0.0000  XZZ=              9.1258  YZZ=             -4.0337
  YYZ=              0.0000  XYZ=             -0.0000
 Hexadecapole moment (field-independent basis, Debye-Ang**3):
 XXXX=            109.4722 YYYY=            -82.7053 ZZZZ=            -22.2661 XXXY=           -165.3434
 XXXZ=              0.0000 YYYX=             13.0806 YYYZ=             -0.0000 ZZZX=              0.0000
 ZZZY=             -0.0000 XXYY=             66.2734 XXZZ=            -45.8808 YYZZ=            -28.0726
 XXYZ=             -0.0000 YYXZ=              0.0000 ZZXY=             26.8631
 N-N= 1.183836279668D+02 E-N=-6.581458422959D+02  KE= 1.902876085793D+02
 Symmetry A'   KE= 1.842772452174D+02
 Symmetry A"   KE= 6.010363361871D+00
  Exact polarizability:  91.871 -39.172  51.538  -0.000   0.000  25.339
 Approx polarizability: 156.124 -69.279  84.360  -0.000   0.000  34.954
                          Isotropic Fermi Contact Couplings
        Atom                 a.u.       MegaHertz       Gauss      10(-4) cm-1
     1  C(13)              0.01141       4.27710       1.52618       1.42669
     2  H(1)               0.01467      21.85131       7.79709       7.28881
     3  C(13)             -0.00911      -3.41305      -1.21786      -1.13847
     4  H(1)               0.01917      28.56907      10.19415       9.52962
     5  C(13)              0.16232      60.82579      21.70415      20.28930
     6  H(1)               0.01467      21.85131       7.79709       7.28881
     7  C(13)             -0.02350      -8.80491      -3.14181      -2.93700
     8  C(13)              0.05839      21.88122       7.80776       7.29879
     9  H(1)              -0.02073     -30.88831     -11.02172     -10.30323
 --------------------------------------------------------
       Center         ----  Spin Dipole Couplings  ----
                      3XX-RR        3YY-RR        3ZZ-RR
 --------------------------------------------------------
     1   Atom       -0.005636      0.022415     -0.016779
     2   Atom        0.009647     -0.009468     -0.000180
     3   Atom       -0.263372     -0.238113      0.501485
     4   Atom       -0.024697      0.046427     -0.021730
     5   Atom       -0.030911      0.356639     -0.325728
     6   Atom        0.009647     -0.009468     -0.000180
     7   Atom       -0.155412      0.505678     -0.350266
     8   Atom       -0.277794      0.282508     -0.004715
     9   Atom        0.056148      0.003222     -0.059370
 --------------------------------------------------------
                        XY            XZ            YZ
 --------------------------------------------------------
     1   Atom       -0.097853     -0.000000      0.000000
     2   Atom       -0.009327      0.015263     -0.002640
     3   Atom       -0.032148     -0.000000      0.000000
     4   Atom        0.013223      0.000000      0.000000
     5   Atom        0.750306     -0.000000      0.000000
     6   Atom       -0.009327     -0.015263      0.002640
     7   Atom        0.361729      0.000000     -0.000000
     8   Atom        0.633595      0.000000     -0.000000
     9   Atom       -0.065859      0.000000     -0.000000
 --------------------------------------------------------


 ---------------------------------------------------------------------------------
              Anisotropic Spin Dipole Couplings in Principal Axis System
 ---------------------------------------------------------------------------------

       Atom             a.u.   MegaHertz   Gauss  10(-4) cm-1        Axes

              Baa    -0.0905   -12.139    -4.332    -4.049  0.7556  0.6550  0.0000
     1 C(13)  Bbb    -0.0168    -2.252    -0.803    -0.751 -0.0000 -0.0000  1.0000
              Bcc     0.1072    14.391     5.135     4.800 -0.6550  0.7556  0.0000
 
              Baa    -0.0149    -7.955    -2.839    -2.654  0.5426  0.7197 -0.4332
     2 H(1)   Bbb    -0.0084    -4.485    -1.600    -1.496 -0.2759  0.6398  0.7173
              Bcc     0.0233    12.440     4.439     4.150  0.7934 -0.2697  0.5457
 
              Baa    -0.2853   -38.282   -13.660   -12.770  0.8263  0.5632  0.0000
     3 C(13)  Bbb    -0.2162   -29.012   -10.352    -9.677 -0.5632  0.8263 -0.0000
              Bcc     0.5015    67.294    24.012    22.447 -0.0000  0.0000  1.0000
 
              Baa    -0.0271   -14.446    -5.155    -4.819  0.9842 -0.1771 -0.0000
     4 H(1)   Bbb    -0.0217   -11.594    -4.137    -3.867  0.0000 -0.0000  1.0000
              Bcc     0.0488    26.041     9.292     8.686  0.1771  0.9842  0.0000
 
              Baa    -0.6121   -82.133   -29.307   -27.397  0.7906 -0.6123  0.0000
     5 C(13)  Bbb    -0.3257   -43.710   -15.597   -14.580 -0.0000  0.0000  1.0000
              Bcc     0.9378   125.842    44.904    41.976  0.6123  0.7906 -0.0000
 
              Baa    -0.0149    -7.955    -2.839    -2.654  0.5426  0.7197  0.4332
     6 H(1)   Bbb    -0.0084    -4.485    -1.600    -1.496  0.2759 -0.6398  0.7173
              Bcc     0.0233    12.440     4.439     4.150  0.7934 -0.2697 -0.5457
 
              Baa    -0.3503   -47.002   -16.772   -15.678 -0.0000  0.0000  1.0000
     7 C(13)  Bbb    -0.3149   -42.253   -15.077   -14.094  0.9150 -0.4034  0.0000
              Bcc     0.6651    89.256    31.849    29.772  0.4034  0.9150  0.0000
 
              Baa    -0.6904   -92.646   -33.059   -30.904  0.8380 -0.5457 -0.0000
     8 C(13)  Bbb    -0.0047    -0.633    -0.226    -0.211  0.0000  0.0000  1.0000
              Bcc     0.6951    93.279    33.284    31.115  0.5457  0.8380  0.0000
 
              Baa    -0.0594   -31.677   -11.303   -10.566  0.0000  0.0000  1.0000
     9 H(1)   Bbb    -0.0413   -22.032    -7.861    -7.349  0.5600  0.8285  0.0000
              Bcc     0.1007    53.709    19.165    17.915  0.8285 -0.5600  0.0000
 

 ---------------------------------------------------------------------------------

 No NMR shielding tensors so no spin-rotation constants.
 Leave Link  601 at Wed Jul 20 16:46:42 2016, MaxMem=    33554432 cpu:        14.8
 (Enter /home/proyectos/fulerenos/M3C-v2.0/M3C-deps_CCC/g09-AM64L-G09RevC.01/l701.exe)
 Compute integral second derivatives.
 ... and contract with generalized density number  0.
 Leave Link  701 at Wed Jul 20 16:47:10 2016, MaxMem=    33554432 cpu:        26.8
 (Enter /home/proyectos/fulerenos/M3C-v2.0/M3C-deps_CCC/g09-AM64L-G09RevC.01/l702.exe)
 L702 exits ... SP integral derivatives will be done elsewhere.
 Leave Link  702 at Wed Jul 20 16:47:17 2016, MaxMem=    33554432 cpu:         6.3
 (Enter /home/proyectos/fulerenos/M3C-v2.0/M3C-deps_CCC/g09-AM64L-G09RevC.01/l703.exe)
 Compute integral second derivatives, UseDBF=F ICtDFT=           0.
 Integral derivatives from FoFJK, PRISM(SPDF).
 Calling FoFJK, ICntrl=    100127 FMM=F ISym2X=1 I1Cent= 0 IOpClX= 1 NMat=1 NMatS=1 NMatT=0.
 FoFJK:  IHMeth= 1 ICntrl=  100127 DoSepK=F KAlg= 0 I1Cent=   0 FoldK=F
 IRaf=         0 NMat=   1 IRICut=       1 DoRegI=T DoRafI=F ISym2E= 1.
 FoFCou: FMM=F IPFlag=           0 FMFlag=      100000 FMFlg1=         800
         NFxFlg=           0 DoJE=F BraDBF=F KetDBF=F FulRan=T
         wScrn=  0.000000 ICntrl=  100127 IOpCl=  1 I1Cent=           0 NGrid=           0
         NMat0=    1 NMatS0=      1 NMatT0=    0 NMatD0=    1 NMtDS0=    0 NMtDT0=    0
 Petite list used in FoFCou.
 Leave Link  703 at Wed Jul 20 17:08:05 2016, MaxMem=    33554432 cpu:      1240.0
 (Enter /home/proyectos/fulerenos/M3C-v2.0/M3C-deps_CCC/g09-AM64L-G09RevC.01/l716.exe)
 Dipole        = 2.78087068D-01-3.14239287D-01-2.02716762D-16
 Polarizability= 9.18711569D+01-3.91722317D+01 5.15379158D+01
                -6.40089700D-08 1.26084274D-07 2.53387650D+01
 Full mass-weighted force constant matrix:
 Low frequencies ---  -10.3851    0.0003    0.0006    0.0008    7.8626    9.2112
 Low frequencies ---  126.0480  163.8786  285.8595
 Diagonal vibrational polarizability:
       30.3628722      33.0300332      38.0821330
 Harmonic frequencies (cm**-1), IR intensities (KM/Mole), Raman scattering
 activities (A**4/AMU), depolarization ratios for plane and unpolarized
 incident light, reduced masses (AMU), force constants (mDyne/A),
 and normal coordinates:
                      1                      2                      3
                     A'                     A"                     A"
 Frequencies --    126.0480               163.8728               285.8560
 Red. masses --      4.2871                 3.5585                 1.2634
 Frc consts  --      0.0401                 0.0563                 0.0608
 IR Inten    --     26.0186                33.8428                 0.9028
  Atom  AN      X      Y      Z        X      Y      Z        X      Y      Z
     1   6    -0.07  -0.23  -0.00     0.00   0.00  -0.18     0.00  -0.00   0.02
     2   1    -0.11  -0.39  -0.00     0.15  -0.28  -0.31     0.02   0.66   0.11
     3   6    -0.01   0.15   0.00     0.00  -0.00   0.06     0.00   0.00  -0.12
     4   1    -0.23   0.25   0.00     0.00  -0.00  -0.13     0.00   0.00  -0.24
     5   6     0.21   0.33   0.00    -0.00  -0.00   0.32    -0.00  -0.00   0.07
     6   1    -0.11  -0.39   0.00    -0.15   0.28  -0.31    -0.02  -0.66   0.11
     7   6     0.05   0.07   0.00    -0.00  -0.00   0.17    -0.00   0.00   0.06
     8   6    -0.12  -0.23  -0.00     0.00   0.00  -0.25    -0.00  -0.00  -0.03
     9   1    -0.26  -0.44  -0.00     0.00   0.00  -0.59     0.00   0.00  -0.10
                      4                      5                      6
                     A'                     A'                     A"
 Frequencies --    313.7356               404.5229               406.9161
 Red. masses --      3.8377                 4.9205                 4.4575
 Frc consts  --      0.2226                 0.4744                 0.4349
 IR Inten    --      2.9641                 1.6194                 0.0915
  Atom  AN      X      Y      Z        X      Y      Z        X      Y      Z
     1   6     0.13  -0.19   0.00     0.06  -0.04  -0.00     0.00  -0.00   0.04
     2   1     0.05  -0.50   0.00     0.05  -0.10   0.00    -0.25  -0.15   0.16
     3   6     0.23   0.26   0.00     0.06  -0.02   0.00     0.00  -0.00  -0.08
     4   1     0.39   0.14   0.00     0.22  -0.12  -0.00     0.00  -0.00   0.40
     5   6    -0.17  -0.07  -0.00    -0.17  -0.22   0.00    -0.00  -0.00  -0.32
     6   1     0.05  -0.50  -0.00     0.05  -0.10  -0.00     0.25   0.15   0.16
     7   6    -0.17  -0.07   0.00     0.21   0.44  -0.00     0.00   0.00   0.44
     8   6    -0.07   0.12   0.00    -0.15  -0.09   0.00    -0.00  -0.00  -0.10
     9   1     0.01   0.24   0.00    -0.48  -0.57   0.00    -0.00  -0.00  -0.55
                      7                      8                      9
                     A'                     A"                     A'
 Frequencies --    467.3023               672.1432               689.1432
 Red. masses --      1.3249                 1.3091                 5.1445
 Frc consts  --      0.1705                 0.3485                 1.4395
 IR Inten    --     31.8826                25.8732                 9.5745
  Atom  AN      X      Y      Z        X      Y      Z        X      Y      Z
     1   6     0.00  -0.00   0.00     0.00  -0.00  -0.06     0.35  -0.11   0.00
     2   1     0.00  -0.00   0.00    -0.44  -0.03   0.20     0.42   0.16  -0.00
     3   6     0.00   0.00   0.00     0.00  -0.00  -0.10    -0.02  -0.30   0.00
     4   1     0.00   0.00  -0.00    -0.00   0.00   0.71    -0.36  -0.06  -0.00
     5   6    -0.00  -0.01  -0.00     0.00   0.00   0.10     0.09   0.14  -0.00
     6   1     0.00  -0.00  -0.00     0.44   0.03   0.20     0.42   0.16   0.00
     7   6     0.04   0.06  -0.00    -0.00   0.00  -0.05    -0.20   0.09   0.00
     8   6    -0.09  -0.13  -0.00    -0.00   0.00   0.02    -0.24   0.15  -0.00
     9   1     0.55   0.82   0.00     0.00   0.00  -0.08    -0.24   0.18  -0.00
                     10                     11                     12
                     A"                     A"                     A'
 Frequencies --    729.7701               936.8716               939.5212
 Red. masses --      1.2986                 1.6241                 1.5383
 Frc consts  --      0.4075                 0.8399                 0.8000
 IR Inten    --     26.0648                 3.8329                10.2955
  Atom  AN      X      Y      Z        X      Y      Z        X      Y      Z
     1   6     0.00  -0.00  -0.01    -0.00   0.00  -0.14    -0.11   0.04   0.00
     2   1    -0.06   0.01   0.02    -0.54   0.13   0.19    -0.12  -0.11  -0.01
     3   6    -0.00  -0.00  -0.01     0.00  -0.00   0.19     0.07  -0.09  -0.00
     4   1    -0.00  -0.00   0.10     0.00  -0.00  -0.51     0.82  -0.47   0.00
     5   6     0.00   0.00   0.01     0.00   0.00  -0.04     0.11   0.04   0.00
     6   1     0.06  -0.01   0.02     0.54  -0.13   0.19    -0.12  -0.11   0.01
     7   6    -0.00  -0.00   0.06    -0.00   0.00   0.00    -0.05   0.03   0.00
     8   6    -0.00   0.00  -0.15    -0.00   0.00   0.00    -0.07   0.04  -0.00
     9   1    -0.00  -0.00   0.98    -0.00   0.00  -0.01    -0.07   0.06   0.00
                     13                     14                     15
                     A'                     A'                     A'
 Frequencies --   1128.0171              1236.6031              1318.9521
 Red. masses --      2.1219                 1.7645                 1.1308
 Frc consts  --      1.5907                 1.5898                 1.1590
 IR Inten    --     57.0637                71.7234               113.5075
  Atom  AN      X      Y      Z        X      Y      Z        X      Y      Z
     1   6    -0.16  -0.12   0.00     0.04  -0.16  -0.00    -0.10   0.01   0.00
     2   1    -0.00   0.61   0.02     0.14   0.49   0.04     0.57  -0.11  -0.39
     3   6     0.20   0.02  -0.00    -0.09   0.05  -0.00     0.01  -0.01  -0.00
     4   1    -0.28   0.22   0.00     0.57  -0.27   0.00    -0.02   0.00  -0.00
     5   6     0.08  -0.08   0.00    -0.11   0.10  -0.00    -0.02   0.01  -0.00
     6   1    -0.00   0.61  -0.02     0.14   0.49  -0.04     0.57  -0.11   0.39
     7   6    -0.00  -0.00  -0.00    -0.02   0.02   0.00    -0.01   0.01   0.00
     8   6    -0.09   0.05   0.00     0.09  -0.06  -0.00     0.02  -0.01  -0.00
     9   1    -0.11   0.06  -0.00     0.13  -0.07  -0.00     0.03  -0.01   0.00
                     16                     17                     18
                     A'                     A'                     A'
 Frequencies --   1466.5472              1832.3867              2597.8621
 Red. masses --      5.5666                 9.3888                 1.0737
 Frc consts  --      7.0540                18.5735                 4.2695
 IR Inten    --    199.5525                 3.9413               378.6236
  Atom  AN      X      Y      Z        X      Y      Z        X      Y      Z
     1   6    -0.07   0.06  -0.00    -0.03   0.02   0.00    -0.01  -0.00  -0.00
     2   1    -0.26  -0.10   0.11    -0.06  -0.04  -0.00     0.01  -0.00   0.02
     3   6     0.32  -0.23   0.00     0.19  -0.20  -0.00    -0.03  -0.07   0.00
     4   1    -0.43   0.11   0.00    -0.03  -0.14  -0.00     0.44   0.89  -0.00
     5   6    -0.21   0.18  -0.00    -0.41   0.36   0.00    -0.00  -0.00  -0.00
     6   1    -0.26  -0.10  -0.11    -0.06  -0.04   0.00     0.01  -0.00  -0.02
     7   6    -0.25   0.17   0.00     0.49  -0.30   0.00     0.00  -0.00   0.00
     8   6     0.25  -0.16  -0.00    -0.20   0.13  -0.00     0.00  -0.00  -0.00
     9   1     0.39  -0.23  -0.00    -0.38   0.24   0.00    -0.01   0.01   0.00
                     19                     20                     21
                     A'                     A"                     A'
 Frequencies --   2794.2151              2896.8784              2975.3789
 Red. masses --      1.0453                 1.1203                 1.1360
 Frc consts  --      4.8086                 5.5390                 5.9253
 IR Inten    --    845.1379               274.3034               751.4201
  Atom  AN      X      Y      Z        X      Y      Z        X      Y      Z
     1   6    -0.06   0.01  -0.00     0.00  -0.00  -0.10     0.00  -0.00  -0.00
     2   1     0.34  -0.09   0.61     0.35  -0.09   0.60    -0.01   0.00  -0.02
     3   6    -0.00   0.00   0.00     0.00   0.00   0.00    -0.00  -0.00   0.00
     4   1    -0.02  -0.03  -0.00    -0.00  -0.00  -0.00     0.01   0.01   0.00
     5   6     0.00  -0.00  -0.00     0.00  -0.00  -0.00     0.00   0.00   0.00
     6   1     0.34  -0.09  -0.61    -0.35   0.09   0.60    -0.01   0.00   0.02
     7   6     0.00  -0.00   0.00    -0.00   0.00  -0.00     0.02  -0.01  -0.00
     8   6    -0.00   0.00  -0.00     0.00  -0.00  -0.00    -0.09   0.06   0.00
     9   1     0.02  -0.02   0.00    -0.00   0.00   0.00     0.82  -0.56  -0.00

 -------------------
 - Thermochemistry -
 -------------------
 Temperature   298.150 Kelvin.  Pressure   1.00000 Atm.
 Atom     1 has atomic number  6 and mass  12.00000
 Atom     2 has atomic number  1 and mass   1.00783
 Atom     3 has atomic number  6 and mass  12.00000
 Atom     4 has atomic number  1 and mass   1.00783
 Atom     5 has atomic number  6 and mass  12.00000
 Atom     6 has atomic number  1 and mass   1.00783
 Atom     7 has atomic number  6 and mass  12.00000
 Atom     8 has atomic number  6 and mass  12.00000
 Atom     9 has atomic number  1 and mass   1.00783
 Molecular mass:    64.03130 amu.
 Principal axes and moments of inertia in atomic units:
                           1         2         3
     Eigenvalues --    24.17943 871.29864 882.24712
           X            0.85423   0.51990   0.00000
           Y           -0.51990   0.85423   0.00000
           Z            0.00000  -0.00000   1.00000
 This molecule is an asymmetric top.
 Rotational symmetry number  1.
 Rotational temperatures (Kelvin)      3.58213     0.09941     0.09817
 Rotational constants (GHZ):          74.63953     2.07132     2.04562
 Zero-point vibrational energy     145840.0 (Joules/Mol)
                                   34.85660 (Kcal/Mol)
 Warning -- explicit consideration of   7 degrees of freedom as
           vibrations may cause significant error
 Vibrational temperatures:    181.35   235.78   411.28   451.39   582.02
          (Kelvin)            585.46   672.34   967.06   991.52  1049.98
                             1347.95  1351.76  1622.96  1779.19  1897.68
                             2110.03  2636.39  3737.74  4020.25  4167.96
                             4280.90
 
 Zero-point correction=                           0.055548 (Hartree/Particle)
 Thermal correction to Energy=                    0.061874
 Thermal correction to Enthalpy=                  0.062819
 Thermal correction to Gibbs Free Energy=         0.025823
 Sum of electronic and zero-point Energies=           -191.055152
 Sum of electronic and thermal Energies=              -191.048825
 Sum of electronic and thermal Enthalpies=            -191.047881
 Sum of electronic and thermal Free Energies=         -191.084876
 
                     E (Thermal)             CV                S
                      KCal/Mol        Cal/Mol-Kelvin    Cal/Mol-Kelvin
 Total                   38.827             21.455             77.863
 Electronic               0.000              0.000              2.755
 Translational            0.889              2.981             38.389
 Rotational               0.889              2.981             24.434
 Vibrational             37.049             15.493             12.285
 Vibration     1          0.611              1.927              3.005
 Vibration     2          0.623              1.887              2.505
 Vibration     3          0.684              1.700              1.498
 Vibration     4          0.702              1.647              1.343
 Vibration     5          0.770              1.460              0.946
 Vibration     6          0.772              1.455              0.938
 Vibration     7          0.825              1.323              0.745
                       Q            Log10(Q)             Ln(Q)
 Total Bot       0.132498D-11        -11.877789        -27.349621
 Total V=0       0.470156D+14         13.672242         31.481501
 Vib (Bot)       0.337022D-24        -24.472341        -56.349648
 Vib (Bot)    1  0.161894D+01          0.209231          0.481773
 Vib (Bot)    2  0.123219D+01          0.090677          0.208792
 Vib (Bot)    3  0.670488D+00         -0.173609         -0.399749
 Vib (Bot)    4  0.601402D+00         -0.220835         -0.508492
 Vib (Bot)    5  0.439145D+00         -0.357392         -0.822925
 Vib (Bot)    6  0.435789D+00         -0.360724         -0.830597
 Vib (Bot)    7  0.361772D+00         -0.441565         -1.016740
 Vib (V=0)       0.119589D+02          1.077691          2.481474
 Vib (V=0)    1  0.219440D+01          0.341315          0.785906
 Vib (V=0)    2  0.182977D+01          0.262397          0.604190
 Vib (V=0)    3  0.133639D+01          0.125934          0.289975
 Vib (V=0)    4  0.128210D+01          0.107923          0.248501
 Vib (V=0)    5  0.116547D+01          0.066501          0.153123
 Vib (V=0)    6  0.116326D+01          0.065676          0.151225
 Vib (V=0)    7  0.111715D+01          0.048113          0.110785
 Electronic      0.400000D+01          0.602060          1.386294
 Translational   0.201393D+08          7.304044         16.818182
 Rotational      0.488032D+05          4.688448         10.795551
 
                                                              b3lyp opt
                                                             IR Spectrum
 
     2   2   2        2                               1               1     1   1   1                                                
     9   8   7        5                               8               4     3   2   1       99       7 66        444   32     11     
     7   9   9        9                               3               6     1   3   2       43       3 87        600   18     62     
     5   7   4        8                               2               7     9   7   8       07       0 92        775   46     46     
 
     X   X   X        X                               X               X     X   X   X       XX       X XX        XXX   XX     XX     
     X   X   X        X                                               X     X   X                                                    
     X   X   X        X                                               X     X                                                        
     X   X   X        X                                               X                                                              
     X   X   X        X                                               X                                                              
     X   X   X        X                                                                                                              
     X       X        X                                                                                                              
     X       X        X                                                                                                              
     X       X        X                                                                                                              
     X       X                                                                                                                       
     X       X                                                                                                                       
     X       X                                                                                                                       
     X       X                                                                                                                       
     X       X                                                                                                                       
     X       X                                                                                                                       
     X       X                                                                                                                       
     X       X                                                                                                                       
     X       X                                                                                                                       
             X                                                                                                                       
             X                                                                                                                       
 
 ***** Axes restored to original set *****
 -------------------------------------------------------------------
 Center     Atomic                   Forces (Hartrees/Bohr)
 Number     Number              X              Y              Z
 -------------------------------------------------------------------
      1        6           0.000021041   -0.000071373   -0.000000247
      2        1          -0.000000292    0.000020728   -0.000008949
      3        6          -0.000019637    0.000029846    0.000000107
      4        1           0.000013318    0.000003586    0.000000007
      5        6          -0.000000504   -0.000003677   -0.000000012
      6        1          -0.000000285    0.000020668    0.000009088
      7        6          -0.000014108   -0.000002162   -0.000000002
      8        6          -0.000013905    0.000003195    0.000000016
      9        1           0.000014370   -0.000000810   -0.000000008
 -------------------------------------------------------------------
 Cartesian Forces:  Max     0.000071373 RMS     0.000017900
 Z-matrix is all fixed cartesians, so copy forces.
 Force constants in Cartesian coordinates: 
                1             2             3             4             5 
      1  0.404444D+00
      2  0.692416D-01  0.204478D+00
      3  0.262390D-03 -0.958476D-03  0.483105D+00
      4 -0.901342D-01 -0.117230D-01  0.100017D+00  0.971783D-01
      5 -0.912565D-02 -0.579437D-01  0.282991D-01  0.249959D-01  0.275525D-01
      6  0.910728D-01  0.269266D-01 -0.216588D+00 -0.103333D+00 -0.312480D-01
      7 -0.199774D+00 -0.427127D-01 -0.919292D-04 -0.181319D-01 -0.156519D-01
      8 -0.335137D-01 -0.683982D-01  0.209451D-04 -0.859185D-02  0.150946D-01
      9 -0.611870D-04  0.245638D-04 -0.707158D-01  0.161808D-01  0.512986D-02
     10  0.130527D-01 -0.155073D-01 -0.521240D-04 -0.864143D-03  0.324099D-02
     11 -0.122676D-01 -0.233038D-01 -0.114156D-03 -0.178246D-02  0.671691D-03
     12 -0.412978D-04 -0.112880D-03  0.122980D-01 -0.183031D-02  0.121499D-02
     13 -0.284175D-01  0.118145D-01  0.513346D-04  0.759896D-03 -0.620691D-03
     14 -0.277848D-02  0.364162D-02  0.767426D-05 -0.135270D-02 -0.205110D-02
     15  0.256209D-05  0.193239D-05  0.167183D-02  0.760286D-03  0.151470D-03
     16 -0.902848D-01 -0.110746D-01 -0.100192D+00  0.112253D-01 -0.155419D-02
     17 -0.853823D-02 -0.575817D-01 -0.272298D-01 -0.147686D-02  0.163883D-01
     18 -0.912315D-01 -0.258552D-01 -0.216800D+00 -0.112188D-01 -0.299272D-02
     19 -0.187967D-01 -0.285171D-02  0.000000D+00  0.269332D-02 -0.113339D-02
     20 -0.324703D-02 -0.142995D-02 -0.269959D-04 -0.139841D-03  0.231040D-03
     21  0.000000D+00 -0.271538D-04  0.703045D-02 -0.545938D-03 -0.704294D-03
     22  0.902531D-02  0.288727D-02  0.649072D-05 -0.201587D-02  0.144341D-03
     23  0.285693D-03  0.491120D-03 -0.179665D-05 -0.119666D-04  0.512292D-04
     24 -0.220852D-05 -0.281910D-05  0.994680D-03 -0.147988D-03  0.180856D-03
     25  0.884634D-03 -0.739861D-04  0.000000D+00 -0.710644D-03 -0.295470D-03
     26 -0.566187D-04  0.464961D-04  0.350604D-05  0.827400D-04  0.554176D-05
     27  0.000000D+00  0.351209D-05 -0.995641D-03  0.117900D-03 -0.312719D-04
                6             7             8             9            10 
      6  0.221958D+00
      7  0.150893D-02  0.641251D+00
      8 -0.129358D-04 -0.598155D-01  0.311202D+00
      9  0.683672D-02 -0.401737D-03  0.633471D-03  0.128710D+00
     10  0.245019D-03 -0.442577D-01  0.234856D-02  0.115430D-04  0.403778D-01
     11  0.109103D-02  0.220948D-01 -0.208856D+00 -0.590155D-03 -0.179473D-01
     12 -0.754312D-03  0.775357D-04 -0.582381D-03 -0.348793D-01 -0.709041D-04
     13 -0.173753D-02 -0.357714D+00  0.131236D+00  0.564213D-03 -0.111812D-01
     14  0.712105D-05  0.983057D-01 -0.595152D-01 -0.108182D-03  0.238407D-01
     15 -0.350744D-03  0.454161D-03 -0.121154D-03 -0.387281D-01  0.895829D-04
     16  0.111912D-01 -0.181459D-01 -0.848353D-02 -0.162182D-01 -0.862891D-03
     17  0.317659D-02 -0.156455D-01  0.151283D-01 -0.506216D-02  0.324160D-02
     18 -0.109412D-01 -0.159387D-02  0.750369D-04  0.681693D-02 -0.223274D-03
     19 -0.191954D-02  0.289082D-01 -0.433039D-01 -0.156016D-03  0.889749D-02
     20  0.148439D-03  0.133834D-01 -0.509264D-02 -0.230102D-04  0.685399D-03
     21 -0.306331D-03  0.334255D-04  0.000000D+00  0.214902D-03 -0.216463D-05
     22  0.186395D-02 -0.292902D-01  0.197157D-01  0.780061D-04 -0.538634D-02
     23 -0.476683D-04 -0.328962D-03  0.125742D-03 -0.442091D-05  0.117481D-04
     24  0.386610D-04  0.110225D-04 -0.123181D-04  0.148741D-02  0.187981D-05
     25  0.110764D-02 -0.284538D-02  0.407892D-03  0.258389D-05  0.224262D-03
     26 -0.411380D-04  0.370559D-03  0.310538D-03  0.000000D+00  0.856829D-04
     27  0.107468D-03  0.246056D-05  0.000000D+00  0.257324D-03  0.000000D+00
               11            12            13            14            15 
     11  0.239487D+00
     12  0.765213D-03  0.126439D-01
     13  0.874959D-02  0.391473D-04  0.866989D+00
     14 -0.104741D-01 -0.910897D-04 -0.126391D+00  0.839063D-01
     15 -0.851485D-04  0.139721D-01 -0.743713D-03  0.159623D-03  0.510373D-01
     16 -0.179551D-02  0.181844D-02  0.760660D-03 -0.134759D-02 -0.770188D-03
     17  0.687044D-03 -0.120790D-02 -0.632411D-03 -0.204997D-02 -0.162332D-03
     18 -0.107998D-02 -0.770917D-03  0.173246D-02 -0.174133D-04 -0.352638D-03
     19  0.818069D-03 -0.171768D-05 -0.420753D+00  0.487684D-01  0.315598D-03
     20  0.137080D-02  0.123902D-04 -0.178742D-01 -0.221983D-01  0.437375D-04
     21  0.123386D-04 -0.241758D-02  0.928842D-04  0.174908D-04 -0.331785D-01
     22  0.115137D-02  0.568678D-05 -0.552562D-01 -0.392150D-01 -0.108151D-03
     23  0.374459D-03  0.362695D-05 -0.538808D-02  0.642369D-02  0.138626D-04
     24  0.317712D-05 -0.711615D-03  0.489458D-05  0.271850D-04  0.291038D-02
     25  0.979100D-03  0.342749D-05  0.481269D-02  0.169724D-03  0.000000D+00
     26  0.419731D-04 -0.196523D-05 -0.894301D-03  0.231701D-02 -0.199182D-05
     27 -0.231681D-05  0.619790D-03 -0.369534D-05 -0.241124D-05  0.301846D-02
               16            17            18            19            20 
     16  0.973412D-01
     17  0.243284D-01  0.271436D-01
     18  0.103596D+00  0.299269D-01  0.222204D+00
     19  0.269525D-02 -0.114563D-02  0.190956D-02  0.904942D+00
     20 -0.143595D-03  0.227297D-03 -0.144754D-03 -0.101080D-01  0.526014D-01
     21  0.542629D-03  0.708765D-03 -0.304525D-03 -0.368113D-03 -0.700252D-05
     22 -0.201722D-02  0.156648D-03 -0.186133D-02 -0.521411D+00  0.178977D-01
     23 -0.129234D-04  0.521192D-04  0.477636D-04  0.128320D-01 -0.253293D-01
     24  0.149523D-03 -0.180889D-03  0.391214D-04  0.234699D-03  0.228899D-04
     25 -0.711610D-03 -0.288037D-03 -0.110894D-02  0.128254D-01 -0.453813D-03
     26  0.835562D-04  0.506178D-05  0.403848D-04 -0.387578D-02 -0.380319D-03
     27 -0.116699D-03  0.308139D-04  0.108913D-03 -0.151057D-04 -0.256935D-04
               21            22            23            24            25 
     21  0.558877D-01
     22  0.251628D-03  0.923509D+00
     23  0.248843D-04 -0.219029D-01  0.278796D-01
     24 -0.342871D-01 -0.414908D-03 -0.844348D-04  0.557247D-01
     25 -0.366809D-05 -0.317157D+00  0.145154D-01  0.163084D-03  0.302677D+00
     26 -0.243462D-04  0.191649D-01 -0.100686D-01  0.463529D-04 -0.149608D-01
     27  0.736111D-02  0.178624D-03  0.481837D-04 -0.261962D-01 -0.162997D-03
               26            27 
     26  0.772234D-02
     27 -0.208337D-04  0.157187D-01
 Leave Link  716 at Wed Jul 20 17:08:05 2016, MaxMem=    33554432 cpu:         0.2
 (Enter /home/proyectos/fulerenos/M3C-v2.0/M3C-deps_CCC/g09-AM64L-G09RevC.01/l103.exe)

 GradGradGradGradGradGradGradGradGradGradGradGradGradGradGradGradGradGrad
 Berny optimization.
 Search for a local minimum.
 Step number   1 out of a maximum of    2
 All quantities printed in internal units (Hartrees-Bohrs-Radians)
 Second derivative matrix not updated -- analytic derivatives used.
 ITU=  0
     Eigenvalues ---    0.00265   0.00303   0.00595   0.01401   0.01882
     Eigenvalues ---    0.02253   0.04849   0.05677   0.06933   0.10155
     Eigenvalues ---    0.10416   0.14403   0.15820   0.20700   0.27253
     Eigenvalues ---    0.43687   0.52241   0.66656   0.69542   1.15558
     Eigenvalues ---    1.63286
 Angle between quadratic step and forces=  51.41 degrees.
 ClnCor:  largest displacement from symmetrization is 4.08D-11 for atom     6.
 Linear search not attempted -- first point.
 ClnCor:  largest displacement from symmetrization is 5.70D-15 for atom     9.
 B after Tr=    -0.000028   -0.000007   -0.000000
         Rot=    1.000000   -0.000000    0.000000   -0.000002 Ang=  -0.00 deg.
 Variable       Old X    -DE/DX   Delta X   Delta X   Delta X     New X
                                 (Linear)    (Quad)   (Total)
    X1       -4.71757   0.00002   0.00000   0.00017   0.00014  -4.71743
    Y1       -0.43161  -0.00007   0.00000  -0.00025  -0.00028  -0.43189
    Z1        0.00124  -0.00000   0.00000  -0.00000  -0.00000   0.00124
    X2       -5.76212  -0.00000   0.00000   0.00011   0.00009  -5.76203
    Y2       -0.74969   0.00002   0.00000  -0.00003  -0.00006  -0.74975
    Z2        1.81224  -0.00001   0.00000  -0.00004  -0.00004   1.81221
    X3       -2.22991  -0.00002   0.00000  -0.00001  -0.00004  -2.22995
    Y3        0.66019   0.00003   0.00000   0.00027   0.00025   0.66044
    Z3        0.00391   0.00000   0.00000   0.00000   0.00000   0.00391
    X4       -2.51622   0.00001   0.00000   0.00029   0.00025  -2.51598
    Y4        2.80121   0.00000   0.00000   0.00026   0.00024   2.80146
    Z4        0.01118   0.00000   0.00000   0.00000   0.00000   0.01118
    X5        0.17019  -0.00000   0.00000  -0.00010  -0.00013   0.17006
    Y5       -0.28049  -0.00000   0.00000  -0.00003  -0.00004  -0.28053
    Z5       -0.00018  -0.00000   0.00000  -0.00000  -0.00000  -0.00018
    X6       -5.76354  -0.00000   0.00000   0.00011   0.00009  -5.76346
    Y6       -0.73758   0.00002   0.00000  -0.00003  -0.00006  -0.73764
    Z6       -1.81102   0.00001   0.00000   0.00004   0.00004  -1.81099
    X7        2.71552  -0.00001   0.00000  -0.00012  -0.00015   2.71538
    Y7       -0.06800  -0.00000   0.00000  -0.00005  -0.00005  -0.06805
    Z7       -0.00047  -0.00000   0.00000  -0.00000  -0.00000  -0.00047
    X8        5.18820  -0.00001   0.00000  -0.00012  -0.00014   5.18806
    Y8       -0.07304   0.00000   0.00000   0.00001   0.00003  -0.07301
    Z8       -0.00146   0.00000   0.00000   0.00000   0.00000  -0.00146
    X9        7.28476   0.00001   0.00000  -0.00007  -0.00010   7.28466
    Y9       -0.18162  -0.00000   0.00000  -0.00006  -0.00004  -0.18165
    Z9       -0.00265  -0.00000   0.00000  -0.00000  -0.00000  -0.00265
         Item               Value     Threshold  Converged?
 Maximum Force            0.000071     0.000450     YES
 RMS     Force            0.000018     0.000300     YES
 Maximum Displacement     0.000278     0.001800     YES
 RMS     Displacement     0.000119     0.001200     YES
 Predicted change in Energy=-1.823572D-08
 Optimization completed.
    -- Stationary point found.
 GradGradGradGradGradGradGradGradGradGradGradGradGradGradGradGradGradGrad

 Leave Link  103 at Wed Jul 20 17:08:05 2016, MaxMem=    33554432 cpu:         0.1
 (Enter /home/proyectos/fulerenos/M3C-v2.0/M3C-deps_CCC/g09-AM64L-G09RevC.01/l9999.exe)
 1\1\GINC-EINSTENIO\Freq\UB3LYP\6-311++G(3df,2p)\C5H4(3+,4)\ROOT\20-Jul
 -2016\0\\#p b3lyp/6-311++G(3df,2p) freq symmetry=Loose\\b3lyp opt\\3,4
 \C,-2.496428795,-0.228397741,0.000656866\H,-3.049180809,-0.396716619,0
 .958998341\C,-1.18001978,0.349358134,0.0020694252\H,-1.33152825,1.4823
 38635,0.0059156326\C,0.090062045,-0.14843038,-0.0000943629\H,-3.049935
 809,-0.3903086175,-0.9583526596\C,1.436992875,-0.035985941,-0.00024894
 53\C,2.745479613,-0.038649718,-0.0007730939\H,3.85493137,-0.096106653,
 -0.0014019929\\Version=EM64L-G09RevE.01\State=4-A"\HF=-191.1106996\S2=
 3.767363\S2-1=0.\S2A=3.750094\RMSD=5.701e-09\RMSF=1.790e-05\ZeroPoint=
 0.0555475\Thermal=0.0618743\Dipole=-0.4008861,0.1239707,0.0005722\Dipo
 leDeriv=-0.0273573,0.0194254,0.0001326,-0.0876752,0.6488779,0.0017203,
 -0.0002254,0.0016781,0.1444737,0.516203,0.0703496,-0.1233821,0.1484084
 ,0.2020959,-0.0353922,-0.4376473,-0.0672631,0.4014411,0.8670911,-0.087
 8537,-0.0005109,-0.3493905,-0.1966665,-0.0015735,-0.001385,-0.0016765,
 0.3153166,0.114032,-0.070717,-0.00019,-0.1017321,0.6279342,0.001364,-0
 .0002936,0.0013518,0.2318007,-0.5339616,-0.0376409,0.0002153,0.1581336
 ,0.2578979,-0.0003109,0.0008696,-0.0002339,0.332305,0.5166454,0.069576
 ,0.1237592,0.1455074,0.2014193,0.0339409,0.4385391,0.0658724,0.4016755
 ,-0.1624911,0.127819,0.0006306,0.1023749,0.5332523,0.0005588,0.0005455
 ,0.0005488,0.3539789,0.6623594,-0.0640831,-0.0002427,0.0056973,0.47964
 6,-0.0003708,-0.0000095,-0.0003433,0.5899126,1.047479,-0.0268753,-0.00
 04121,-0.0213237,0.2455429,0.0000634,-0.0003935,0.0000655,0.2290959\Po
 lar=115.7629421,-0.1092659,27.6460905,-0.0359716,0.0077543,25.3388051\
 PG=CS [SG(C5H2),X(H2)]\NImag=0\\0.40444450,0.06924159,0.20447817,0.000
 26239,-0.00095848,0.48310454,-0.09013423,-0.01172298,0.10001657,0.0971
 7828,-0.00912565,-0.05794374,0.02829910,0.02499592,0.02755250,0.091072
 82,0.02692655,-0.21658834,-0.10333254,-0.03124799,0.22195809,-0.199773
 98,-0.04271267,-0.00009193,-0.01813194,-0.01565187,0.00150893,0.641251
 16,-0.03351369,-0.06839818,0.00002095,-0.00859185,0.01509458,-0.000012
 94,-0.05981550,0.31120234,-0.00006119,0.00002456,-0.07071582,0.0161808
 4,0.00512986,0.00683672,-0.00040174,0.00063347,0.12870997,0.01305273,-
 0.01550734,-0.00005212,-0.00086414,0.00324099,0.00024502,-0.04425774,0
 .00234856,0.00001154,0.04037783,-0.01226759,-0.02330379,-0.00011416,-0
 .00178246,0.00067169,0.00109103,0.02209480,-0.20885556,-0.00059015,-0.
 01794735,0.23948747,-0.00004130,-0.00011288,0.01229800,-0.00183031,0.0
 0121499,-0.00075431,0.00007754,-0.00058238,-0.03487930,-0.00007090,0.0
 0076521,0.01264387,-0.02841746,0.01181446,0.00005133,0.00075990,-0.000
 62069,-0.00173753,-0.35771424,0.13123639,0.00056421,-0.01118120,0.0087
 4959,0.00003915,0.86698884,-0.00277848,0.00364162,0.00000767,-0.001352
 70,-0.00205110,0.00000712,0.09830573,-0.05951516,-0.00010818,0.0238407
 1,-0.01047409,-0.00009109,-0.12639075,0.08390631,0.00000256,0.00000193
 ,0.00167183,0.00076029,0.00015147,-0.00035074,0.00045416,-0.00012115,-
 0.03872813,0.00008958,-0.00008515,0.01397207,-0.00074371,0.00015962,0.
 05103732,-0.09028485,-0.01107465,-0.10019238,0.01122532,-0.00155419,0.
 01119124,-0.01814591,-0.00848353,-0.01621825,-0.00086289,-0.00179551,0
 .00181844,0.00076066,-0.00134759,-0.00077019,0.09734125,-0.00853823,-0
 .05758175,-0.02722980,-0.00147686,0.01638825,0.00317659,-0.01564551,0.
 01512835,-0.00506216,0.00324160,0.00068704,-0.00120790,-0.00063241,-0.
 00204997,-0.00016233,0.02432843,0.02714359,-0.09123147,-0.02585523,-0.
 21679971,-0.01121883,-0.00299272,-0.01094121,-0.00159387,0.00007504,0.
 00681693,-0.00022327,-0.00107998,-0.00077092,0.00173246,-0.00001741,-0
 .00035264,0.10359569,0.02992691,0.22220404,-0.01879666,-0.00285171,0.0
 0000063,0.00269332,-0.00113339,-0.00191954,0.02890819,-0.04330394,-0.0
 0015602,0.00889749,0.00081807,-0.00000172,-0.42075300,0.04876836,0.000
 31560,0.00269525,-0.00114563,0.00190956,0.90494151,-0.00324703,-0.0014
 2995,-0.00002700,-0.00013984,0.00023104,0.00014844,0.01338342,-0.00509
 264,-0.00002301,0.00068540,0.00137080,0.00001239,-0.01787421,-0.022198
 31,0.00004374,-0.00014359,0.00022730,-0.00014475,-0.01010799,0.0526013
 7,-0.00000068,-0.00002715,0.00703045,-0.00054594,-0.00070429,-0.000306
 33,0.00003343,-0.00000068,0.00021490,-0.00000216,0.00001234,-0.0024175
 8,0.00009288,0.00001749,-0.03317855,0.00054263,0.00070877,-0.00030452,
 -0.00036811,-0.00000700,0.05588767,0.00902531,0.00288727,0.00000649,-0
 .00201587,0.00014434,0.00186395,-0.02929016,0.01971566,0.00007801,-0.0
 0538634,0.00115137,0.00000569,-0.05525619,-0.03921501,-0.00010815,-0.0
 0201722,0.00015665,-0.00186133,-0.52141148,0.01789766,0.00025163,0.923
 50851,0.00028569,0.00049112,-0.00000180,-0.00001197,0.00005123,-0.0000
 4767,-0.00032896,0.00012574,-0.00000442,0.00001175,0.00037446,0.000003
 63,-0.00538808,0.00642369,0.00001386,-0.00001292,0.00005212,0.00004776
 ,0.01283200,-0.02532930,0.00002488,-0.02190288,0.02787958,-0.00000221,
 -0.00000282,0.00099468,-0.00014799,0.00018086,0.00003866,0.00001102,-0
 .00001232,0.00148741,0.00000188,0.00000318,-0.00071162,0.00000489,0.00
 002719,0.00291038,0.00014952,-0.00018089,0.00003912,0.00023470,0.00002
 289,-0.03428715,-0.00041491,-0.00008443,0.05572467,0.00088463,-0.00007
 399,-0.00000099,-0.00071064,-0.00029547,0.00110764,-0.00284538,0.00040
 789,0.00000258,0.00022426,0.00097910,0.00000343,0.00481269,0.00016972,
 -0.00000014,-0.00071161,-0.00028804,-0.00110894,0.01282538,-0.00045381
 ,-0.00000367,-0.31715657,0.01451536,0.00016308,0.30267723,-0.00005662,
 0.00004650,0.00000351,0.00008274,0.00000554,-0.00004114,0.00037056,0.0
 0031054,0.00000003,0.00008568,0.00004197,-0.00000197,-0.00089430,0.002
 31701,-0.00000199,0.00008356,0.00000506,0.00004038,-0.00387578,-0.0003
 8032,-0.00002435,0.01916494,-0.01006864,0.00004635,-0.01496077,0.00772
 234,-0.00000093,0.00000351,-0.00099564,0.00011790,-0.00003127,0.000107
 47,0.00000246,0.00000002,0.00025732,0.00000044,-0.00000232,0.00061979,
 -0.00000370,-0.00000241,0.00301846,-0.00011670,0.00003081,0.00010891,-
 0.00001511,-0.00002569,0.00736111,0.00017862,0.00004818,-0.02619616,-0
 .00016300,-0.00002083,0.01571874\\-0.00002104,0.00007137,0.00000025,0.
 00000029,-0.00002073,0.00000895,0.00001964,-0.00002985,-0.00000011,-0.
 00001332,-0.00000359,0.,0.00000050,0.00000368,0.00000001,0.00000028,-0
 .00002067,-0.00000909,0.00001411,0.00000216,0.,0.00001390,-0.00000319,
 -0.00000002,-0.00001437,0.00000081,0.\\\@


 SOME THINGS ARE EASY, THEY ARE ONLY HARD TO DO.
            -- A. EINSTEIN TO J. O. HIRSCHFELDER
 THE ONLY TROUBLE WITH A SURE THING IS THE UNCERTAINTY.
     -- FROM A TEABAG (BELONGING TO W.H.?)
 Job cpu time:       0 days  1 hours 17 minutes 53.9 seconds.
 File lengths (MBytes):  RWF=     77 Int=      0 D2E=      0 Chk=      5 Scr=      1
 Normal termination of Gaussian 09 at Wed Jul 20 17:08:06 2016.
