 Entering Gaussian System, Link 0=/home/proyectos/fulerenos/M3C-v2.0/M3C-deps_CCC/g09-AM64L-G09RevC.01/g09
 Initial command:
 /home/proyectos/fulerenos/M3C-v2.0/M3C-deps_CCC/g09-AM64L-G09RevC.01/l1.exe "/scratch/naguirre/gaussian/Gau-24410.inp" -scrdir="/scratch/naguirre/gaussian/"
 Entering Link 1 = /home/proyectos/fulerenos/M3C-v2.0/M3C-deps_CCC/g09-AM64L-G09RevC.01/l1.exe PID=     24413.
  
 Copyright (c) 1988,1990,1992,1993,1995,1998,2003,2009,2015,
            Gaussian, Inc.  All Rights Reserved.
  
 This is part of the Gaussian(R) 09 program.  It is based on
 the Gaussian(R) 03 system (copyright 2003, Gaussian, Inc.),
 the Gaussian(R) 98 system (copyright 1998, Gaussian, Inc.),
 the Gaussian(R) 94 system (copyright 1995, Gaussian, Inc.),
 the Gaussian 92(TM) system (copyright 1992, Gaussian, Inc.),
 the Gaussian 90(TM) system (copyright 1990, Gaussian, Inc.),
 the Gaussian 88(TM) system (copyright 1988, Gaussian, Inc.),
 the Gaussian 86(TM) system (copyright 1986, Carnegie Mellon
 University), and the Gaussian 82(TM) system (copyright 1983,
 Carnegie Mellon University). Gaussian is a federally registered
 trademark of Gaussian, Inc.
  
 This software contains proprietary and confidential information,
 including trade secrets, belonging to Gaussian, Inc.
  
 This software is provided under written license and may be
 used, copied, transmitted, or stored only in accord with that
 written license.
  
 The following legend is applicable only to US Government
 contracts under FAR:
  
                    RESTRICTED RIGHTS LEGEND
  
 Use, reproduction and disclosure by the US Government is
 subject to restrictions as set forth in subparagraphs (a)
 and (c) of the Commercial Computer Software - Restricted
 Rights clause in FAR 52.227-19.
  
 Gaussian, Inc.
 340 Quinnipiac St., Bldg. 40, Wallingford CT 06492
  
  
 ---------------------------------------------------------------
 Warning -- This program may not be used in any manner that
 competes with the business of Gaussian, Inc. or will provide
 assistance to any competitor of Gaussian, Inc.  The licensee
 of this program is prohibited from giving any competitor of
 Gaussian, Inc. access to this program.  By using this program,
 the user acknowledges that Gaussian, Inc. is engaged in the
 business of creating and licensing software in the field of
 computational chemistry and represents and warrants to the
 licensee that it is not a competitor of Gaussian, Inc. and that
 it will not use this program in any manner prohibited above.
 ---------------------------------------------------------------
  

 Cite this work as:
 Gaussian 09, Revision E.01,
 M. J. Frisch, G. W. Trucks, H. B. Schlegel, G. E. Scuseria, 
 M. A. Robb, J. R. Cheeseman, G. Scalmani, V. Barone, B. Mennucci, 
 G. A. Petersson, H. Nakatsuji, M. Caricato, X. Li, H. P. Hratchian, 
 A. F. Izmaylov, J. Bloino, G. Zheng, J. L. Sonnenberg, M. Hada, 
 M. Ehara, K. Toyota, R. Fukuda, J. Hasegawa, M. Ishida, T. Nakajima, 
 Y. Honda, O. Kitao, H. Nakai, T. Vreven, J. A. Montgomery, Jr., 
 J. E. Peralta, F. Ogliaro, M. Bearpark, J. J. Heyd, E. Brothers, 
 K. N. Kudin, V. N. Staroverov, T. Keith, R. Kobayashi, J. Normand, 
 K. Raghavachari, A. Rendell, J. C. Burant, S. S. Iyengar, J. Tomasi, 
 M. Cossi, N. Rega, J. M. Millam, M. Klene, J. E. Knox, J. B. Cross, 
 V. Bakken, C. Adamo, J. Jaramillo, R. Gomperts, R. E. Stratmann, 
 O. Yazyev, A. J. Austin, R. Cammi, C. Pomelli, J. W. Ochterski, 
 R. L. Martin, K. Morokuma, V. G. Zakrzewski, G. A. Voth, 
 P. Salvador, J. J. Dannenberg, S. Dapprich, A. D. Daniels, 
 O. Farkas, J. B. Foresman, J. V. Ortiz, J. Cioslowski, 
 and D. J. Fox, Gaussian, Inc., Wallingford CT, 2013.
 
 ******************************************
 Gaussian 09:  EM64L-G09RevE.01 30-Nov-2015
                20-Jul-2016 
 ******************************************
 %NProcShared=1
 Will use up to    1 processors via shared memory.
 ---------------------------------------------
 #p b3lyp/6-311++G(3df,2p) freq symmetry=Loose
 ---------------------------------------------
 1/10=4,30=1,38=1/1,3;
 2/12=2,17=4,18=3,40=1/2;
 3/5=4,6=6,7=1216,11=2,16=1,25=1,30=1,71=2,74=-5,140=1/1,2,3;
 4//1;
 5/5=2,38=5,98=1/2;
 8/6=4,10=90,11=11/1;
 11/6=1,8=1,9=11,15=111,16=1/1,2,10;
 10/6=1/2;
 6/7=2,8=2,9=2,10=2,18=1,28=1/1;
 7/8=1,10=1,25=1/1,2,3,16;
 1/10=4,30=1/3;
 99//99;
 Leave Link    1 at Wed Jul 20 02:42:13 2016, MaxMem=           0 cpu:         0.1
 (Enter /home/proyectos/fulerenos/M3C-v2.0/M3C-deps_CCC/g09-AM64L-G09RevC.01/l101.exe)
 ---------
 b3lyp opt
 ---------
 Symbolic Z-matrix:
 Charge =  0 Multiplicity = 3
 C                    -1.5076    0.20232  -0.00072 
 C                     2.07662  -0.35732   0.00013 
 H                    -2.37965   0.86517  -0.00032 
 H                     2.57228  -0.62652  -0.92669 
 H                     2.57151  -0.62864   0.92673 
 C                    -1.6705   -1.19965  -0.00239 
 C                     0.92995   0.23092   0.00033 
 C                    -0.24945   0.86467   0.00056 
 H                    -0.22969   1.95199   0.00182 
 
 NAtoms=      9 NQM=        9 NQMF=       0 NMMI=      0 NMMIF=      0
                NMic=       0 NMicF=      0.
                    Isotopes and Nuclear Properties:
 (Nuclear quadrupole moments (NQMom) in fm**2, nuclear magnetic moments (NMagM)
  in nuclear magnetons)

  Atom         1           2           3           4           5           6           7           8           9
 IAtWgt=          12          12           1           1           1          12          12          12           1
 AtmWgt=  12.0000000  12.0000000   1.0078250   1.0078250   1.0078250  12.0000000  12.0000000  12.0000000   1.0078250
 NucSpn=           0           0           1           1           1           0           0           0           1
 AtZEff=   0.0000000   0.0000000   0.0000000   0.0000000   0.0000000   0.0000000   0.0000000   0.0000000   0.0000000
 NQMom=    0.0000000   0.0000000   0.0000000   0.0000000   0.0000000   0.0000000   0.0000000   0.0000000   0.0000000
 NMagM=    0.0000000   0.0000000   2.7928460   2.7928460   2.7928460   0.0000000   0.0000000   0.0000000   2.7928460
 AtZNuc=   6.0000000   6.0000000   1.0000000   1.0000000   1.0000000   6.0000000   6.0000000   6.0000000   1.0000000
 Leave Link  101 at Wed Jul 20 02:42:13 2016, MaxMem=    33554432 cpu:         0.3
 (Enter /home/proyectos/fulerenos/M3C-v2.0/M3C-deps_CCC/g09-AM64L-G09RevC.01/l103.exe)

 GradGradGradGradGradGradGradGradGradGradGradGradGradGradGradGradGradGrad
 Berny optimization.
 Initialization pass.
 Trust Radius=3.00D-01 FncErr=1.00D-07 GrdErr=1.00D-07
 Number of steps in this run=      2 maximum allowed number of steps=      2.
 GradGradGradGradGradGradGradGradGradGradGradGradGradGradGradGradGradGrad

 Leave Link  103 at Wed Jul 20 02:42:13 2016, MaxMem=    33554432 cpu:         0.1
 (Enter /home/proyectos/fulerenos/M3C-v2.0/M3C-deps_CCC/g09-AM64L-G09RevC.01/l202.exe)
                          Input orientation:                          
 ---------------------------------------------------------------------
 Center     Atomic      Atomic             Coordinates (Angstroms)
 Number     Number       Type             X           Y           Z
 ---------------------------------------------------------------------
      1          6           0       -1.507599    0.202324   -0.000716
      2          6           0        2.076618   -0.357316    0.000127
      3          1           0       -2.379654    0.865170   -0.000318
      4          1           0        2.572277   -0.626517   -0.926686
      5          1           0        2.571510   -0.628639    0.926731
      6          6           0       -1.670497   -1.199647   -0.002389
      7          6           0        0.929949    0.230917    0.000326
      8          6           0       -0.249445    0.864671    0.000563
      9          1           0       -0.229695    1.951992    0.001816
 ---------------------------------------------------------------------
                    Distance matrix (angstroms):
                    1          2          3          4          5
     1  C    0.000000
     2  C    3.627645   0.000000
     3  H    1.095374   4.620912   0.000000
     4  H    4.264949   1.084956   5.254037   0.000000
     5  H    4.264949   1.084956   5.254037   1.853418   0.000000
     6  C    1.411404   3.840624   2.183203   4.379947   4.379947
     7  C    2.437716   1.288747   3.369829   2.071663   2.071663
     8  C    1.421849   2.627513   2.130209   3.323485   3.323485
     9  H    2.166652   3.263738   2.409047   3.919422   3.919422
                    6          7          8          9
     6  C    0.000000
     7  C    2.967968   0.000000
     8  C    2.506153   1.338885   0.000000
     9  H    3.465365   2.075301   1.087501   0.000000
 Stoichiometry    C5H4(3)
 Framework group  CS[SG(C5H2),X(H2)]
 Deg. of freedom    14
 Full point group                 CS      NOp   2
 Largest Abelian subgroup         CS      NOp   2
 Largest concise Abelian subgroup CS      NOp   2
                         Standard orientation:                         
 ---------------------------------------------------------------------
 Center     Atomic      Atomic             Coordinates (Angstroms)
 Number     Number       Type             X           Y           Z
 ---------------------------------------------------------------------
      1          6           0        1.392544    0.612601   -0.000000
      2          6           0       -1.895591   -0.919708    0.000000
      3          1           0        2.046403    1.491415   -0.000000
      4          1           0       -2.296414   -1.316798    0.926709
      5          1           0       -2.296414   -1.316798   -0.926709
      6          6           0        1.938103   -0.689101    0.000000
      7          6           0       -0.957199   -0.036368    0.000000
      8          6           0        0.000000    0.899786   -0.000000
      9          1           0       -0.320716    1.938920   -0.000000
 ---------------------------------------------------------------------
 Rotational constants (GHZ):     14.1580225      3.4937574      2.8570960
 Leave Link  202 at Wed Jul 20 02:42:13 2016, MaxMem=    33554432 cpu:         0.0
 (Enter /home/proyectos/fulerenos/M3C-v2.0/M3C-deps_CCC/g09-AM64L-G09RevC.01/l301.exe)
 Standard basis: 6-311++G(3df,2p) (5D, 7F)
 Ernie: Thresh=  0.10000D-02 Tol=  0.10000D-05 Strict=F.
 There are   181 symmetry adapted cartesian basis functions of A'  symmetry.
 There are    84 symmetry adapted cartesian basis functions of A"  symmetry.
 There are   156 symmetry adapted basis functions of A'  symmetry.
 There are    79 symmetry adapted basis functions of A"  symmetry.
   235 basis functions,   338 primitive gaussians,   265 cartesian basis functions
    18 alpha electrons       16 beta electrons
       nuclear repulsion energy       125.2242933844 Hartrees.
 IExCor=  402 DFT=T Ex+Corr=B3LYP ExCW=0 ScaHFX=  0.200000
 ScaDFX=  0.800000  0.720000  1.000000  0.810000 ScalE2=  1.000000  1.000000
 IRadAn=      0 IRanWt=     -1 IRanGd=            0 ICorTp=0 IEmpDi=  4
 NAtoms=    9 NActive=    9 NUniq=    8 SFac= 1.27D+00 NAtFMM=   60 NAOKFM=F Big=F
 Integral buffers will be    131072 words long.
 Raffenetti 2 integral format.
 Two-electron integral symmetry is turned on.
 Leave Link  301 at Wed Jul 20 02:42:14 2016, MaxMem=    33554432 cpu:         0.2
 (Enter /home/proyectos/fulerenos/M3C-v2.0/M3C-deps_CCC/g09-AM64L-G09RevC.01/l302.exe)
 NPDir=0 NMtPBC=     1 NCelOv=     1 NCel=       1 NClECP=     1 NCelD=      1
         NCelK=      1 NCelE2=     1 NClLst=     1 CellRange=     0.0.
 One-electron integrals computed using PRISM.
 One-electron integral symmetry used in STVInt
 NBasis=   235 RedAO= T EigKep=  1.82D-06  NBF=   156    79
 NBsUse=   235 1.00D-06 EigRej= -1.00D+00 NBFU=   156    79
 Precomputing XC quadrature grid using
 IXCGrd= 4 IRadAn=           0 IRanWt=          -1 IRanGd=           0 AccXCQ= 0.00D+00.
 Generated NRdTot=       0 NPtTot=           0 NUsed=           0 NTot=          32
 NSgBfM=   265   265   265   265   265 MxSgAt=     9 MxSgA2=     9.
 Leave Link  302 at Wed Jul 20 02:42:14 2016, MaxMem=    33554432 cpu:         0.6
 (Enter /home/proyectos/fulerenos/M3C-v2.0/M3C-deps_CCC/g09-AM64L-G09RevC.01/l303.exe)
 DipDrv:  MaxL=1.
 Leave Link  303 at Wed Jul 20 02:42:15 2016, MaxMem=    33554432 cpu:         0.1
 (Enter /home/proyectos/fulerenos/M3C-v2.0/M3C-deps_CCC/g09-AM64L-G09RevC.01/l401.exe)
 ExpMin= 3.60D-02 ExpMax= 4.56D+03 ExpMxC= 6.82D+02 IAcc=3 IRadAn=         5 AccDes= 0.00D+00
 Harris functional with IExCor=  402 and IRadAn=       5 diagonalized for initial guess.
 HarFok:  IExCor=  402 AccDes= 0.00D+00 IRadAn=         5 IDoV= 1 UseB2=F ITyADJ=14
 ICtDFT=  3500011 ScaDFX=  1.000000  1.000000  1.000000  1.000000
 FoFCou: FMM=F IPFlag=           0 FMFlag=      100000 FMFlg1=           0
         NFxFlg=           0 DoJE=T BraDBF=F KetDBF=T FulRan=T
         wScrn=  0.000000 ICntrl=     500 IOpCl=  0 I1Cent=   200000004 NGrid=           0
         NMat0=    1 NMatS0=      1 NMatT0=    0 NMatD0=    1 NMtDS0=    0 NMtDT0=    0
 Petite list used in FoFCou.
 Harris En= -192.728665909125    
 JPrj=0 DoOrth=F DoCkMO=F.
 Initial guess orbital symmetries:
 Alpha Orbitals:
       Occupied  (A') (A') (A') (A') (A') (A') (A') (A') (A') (A')
                 (A') (A") (A') (A") (A') (A') (A") (A')
       Virtual   (A") (A') (A") (A') (A') (A') (A") (A') (A') (A")
                 (A') (A') (A") (A') (A') (A') (A') (A") (A') (A")
                 (A') (A') (A") (A') (A') (A') (A') (A') (A") (A')
                 (A') (A") (A') (A') (A') (A") (A') (A') (A') (A')
                 (A") (A') (A") (A') (A") (A') (A') (A") (A') (A')
                 (A") (A') (A") (A') (A") (A') (A') (A") (A') (A')
                 (A") (A') (A') (A") (A') (A") (A') (A') (A") (A')
                 (A') (A") (A') (A") (A') (A') (A") (A') (A') (A')
                 (A") (A') (A') (A') (A') (A") (A") (A') (A') (A')
                 (A") (A') (A') (A") (A') (A") (A') (A') (A") (A')
                 (A") (A") (A') (A") (A') (A') (A') (A") (A') (A")
                 (A') (A') (A") (A') (A') (A') (A') (A") (A') (A')
                 (A") (A') (A") (A') (A") (A") (A') (A") (A') (A')
                 (A") (A") (A') (A') (A') (A") (A") (A') (A') (A")
                 (A') (A") (A') (A") (A') (A') (A") (A') (A') (A')
                 (A") (A') (A') (A') (A") (A') (A") (A') (A') (A")
                 (A') (A') (A") (A') (A') (A') (A') (A') (A") (A')
                 (A") (A") (A') (A") (A') (A") (A') (A') (A") (A')
                 (A') (A') (A") (A') (A") (A') (A') (A") (A") (A')
                 (A") (A') (A") (A') (A") (A") (A') (A') (A') (A")
                 (A") (A') (A') (A') (A") (A') (A') (A") (A') (A')
                 (A') (A') (A') (A') (A') (A') (A')
 Beta  Orbitals:
       Occupied  (A') (A') (A') (A') (A') (A') (A') (A') (A') (A')
                 (A') (A") (A') (A") (A') (A')
       Virtual   (A") (A') (A") (A') (A") (A') (A') (A') (A") (A')
                 (A') (A") (A') (A') (A") (A') (A') (A') (A') (A")
                 (A') (A") (A') (A') (A") (A') (A') (A') (A') (A')
                 (A") (A') (A') (A") (A') (A') (A') (A") (A') (A')
                 (A') (A') (A") (A') (A") (A') (A") (A') (A') (A")
                 (A') (A') (A") (A') (A") (A') (A") (A') (A') (A")
                 (A') (A') (A") (A') (A') (A") (A') (A") (A') (A')
                 (A") (A') (A') (A") (A') (A") (A') (A') (A") (A')
                 (A') (A') (A") (A') (A') (A') (A') (A") (A") (A')
                 (A') (A') (A") (A') (A') (A") (A') (A") (A') (A')
                 (A") (A') (A") (A") (A') (A") (A') (A') (A') (A")
                 (A') (A") (A') (A') (A") (A') (A') (A') (A') (A")
                 (A') (A') (A") (A') (A") (A') (A") (A") (A') (A")
                 (A') (A') (A") (A") (A') (A') (A') (A") (A") (A')
                 (A') (A") (A') (A") (A') (A") (A') (A') (A") (A')
                 (A') (A') (A") (A') (A') (A') (A") (A') (A") (A')
                 (A') (A") (A') (A') (A") (A') (A') (A') (A') (A')
                 (A") (A') (A") (A") (A') (A") (A') (A") (A') (A')
                 (A") (A') (A') (A') (A") (A') (A") (A') (A') (A")
                 (A") (A') (A") (A') (A") (A') (A") (A") (A') (A')
                 (A') (A") (A") (A') (A') (A') (A") (A') (A') (A")
                 (A') (A') (A') (A') (A') (A') (A') (A') (A')
 The electronic state of the initial guess is 3-A".
 Initial guess <Sx>= 0.0000 <Sy>= 0.0000 <Sz>= 1.0000 <S**2>= 2.0000 S= 1.0000
 Leave Link  401 at Wed Jul 20 02:42:22 2016, MaxMem=    33554432 cpu:         6.9
 (Enter /home/proyectos/fulerenos/M3C-v2.0/M3C-deps_CCC/g09-AM64L-G09RevC.01/l502.exe)
 UHF open shell SCF:
 Using DIIS extrapolation, IDIIS=  1040.
 Integral symmetry usage will be decided dynamically.
 IVT=      233035 IEndB=      233035 NGot=    33554432 MDV=    33408528
 LenX=    33408528 LenY=    33337862
 Requested convergence on RMS density matrix=1.00D-08 within 128 cycles.
 Requested convergence on MAX density matrix=1.00D-06.
 Requested convergence on             energy=1.00D-06.
 No special actions if energy rises.
 Fock matrices will be formed incrementally for  20 cycles.

 Cycle   1  Pass 1  IDiag  1:
 FoFJK:  IHMeth= 1 ICntrl=       0 DoSepK=F KAlg= 0 I1Cent=   0 FoldK=F
 IRaf= 980000000 NMat=   1 IRICut=       1 DoRegI=T DoRafI=F ISym2E= 1.
 FoFCou: FMM=F IPFlag=           0 FMFlag=      100000 FMFlg1=           0
         NFxFlg=           0 DoJE=F BraDBF=F KetDBF=F FulRan=T
         wScrn=  0.000000 ICntrl=       0 IOpCl=  1 I1Cent=           0 NGrid=           0
         NMat0=    1 NMatS0=      1 NMatT0=    0 NMatD0=    1 NMtDS0=    0 NMtDT0=    0
 Petite list used in FoFCou.
 E= -192.617733754934    
 DIIS: error= 2.36D-02 at cycle   1 NSaved=   1.
 NSaved= 1 IEnMin= 1 EnMin= -192.617733754934     IErMin= 1 ErrMin= 2.36D-02
 ErrMax= 2.36D-02  0.00D+00 EMaxC= 1.00D-01 BMatC= 4.64D-01 BMatP= 4.64D-01
 IDIUse=3 WtCom= 7.64D-01 WtEn= 2.36D-01
 Coeff-Com:  0.100D+01
 Coeff-En:   0.100D+01
 Coeff:      0.100D+01
 Gap=     0.094 Goal=   None    Shift=    0.000
 Gap=     0.062 Goal=   None    Shift=    0.000
 GapD=    0.062 DampG=0.500 DampE=0.500 DampFc=0.2500 IDamp=-1.
 Damping current iteration by 2.50D-01
 RMSDP=1.52D-02 MaxDP=1.75D+00              OVMax= 2.20D-01

 Cycle   2  Pass 1  IDiag  1:
 RMSU=  3.81D-03    CP:  1.00D+00
 E= -192.658034116580     Delta-E=       -0.040300361646 Rises=F Damp=T
 DIIS: error= 1.17D-02 at cycle   2 NSaved=   2.
 NSaved= 2 IEnMin= 2 EnMin= -192.658034116580     IErMin= 2 ErrMin= 1.17D-02
 ErrMax= 1.17D-02  0.00D+00 EMaxC= 1.00D-01 BMatC= 1.42D-01 BMatP= 4.64D-01
 IDIUse=3 WtCom= 8.83D-01 WtEn= 1.17D-01
 Coeff-Com: -0.103D+01 0.203D+01
 Coeff-En:   0.000D+00 0.100D+01
 Coeff:     -0.910D+00 0.191D+01
 Gap=     0.118 Goal=   None    Shift=    0.000
 Gap=     0.082 Goal=   None    Shift=    0.000
 RMSDP=5.68D-03 MaxDP=3.43D-01 DE=-4.03D-02 OVMax= 1.33D-01

 Cycle   3  Pass 1  IDiag  1:
 RMSU=  3.57D-03    CP:  9.54D-01  2.10D+00
 E= -192.727305301553     Delta-E=       -0.069271184973 Rises=F Damp=F
 DIIS: error= 7.29D-03 at cycle   3 NSaved=   3.
 NSaved= 3 IEnMin= 3 EnMin= -192.727305301553     IErMin= 3 ErrMin= 7.29D-03
 ErrMax= 7.29D-03  0.00D+00 EMaxC= 1.00D-01 BMatC= 2.10D-02 BMatP= 1.42D-01
 IDIUse=3 WtCom= 9.27D-01 WtEn= 7.29D-02
 Coeff-Com: -0.500D+00 0.934D+00 0.566D+00
 Coeff-En:   0.000D+00 0.000D+00 0.100D+01
 Coeff:     -0.464D+00 0.866D+00 0.598D+00
 Gap=     0.105 Goal=   None    Shift=    0.000
 Gap=     0.073 Goal=   None    Shift=    0.000
 RMSDP=9.14D-04 MaxDP=7.89D-02 DE=-6.93D-02 OVMax= 7.40D-02

 Cycle   4  Pass 1  IDiag  1:
 RMSU=  6.67D-04    CP:  9.43D-01  1.97D+00  9.50D-01
 E= -192.730458254304     Delta-E=       -0.003152952751 Rises=F Damp=F
 DIIS: error= 4.06D-03 at cycle   4 NSaved=   4.
 NSaved= 4 IEnMin= 4 EnMin= -192.730458254304     IErMin= 4 ErrMin= 4.06D-03
 ErrMax= 4.06D-03  0.00D+00 EMaxC= 1.00D-01 BMatC= 9.92D-03 BMatP= 2.10D-02
 IDIUse=3 WtCom= 9.59D-01 WtEn= 4.06D-02
 Coeff-Com: -0.582D-01 0.947D-01 0.410D+00 0.554D+00
 Coeff-En:   0.000D+00 0.000D+00 0.349D+00 0.651D+00
 Coeff:     -0.559D-01 0.909D-01 0.407D+00 0.558D+00
 Gap=     0.113 Goal=   None    Shift=    0.000
 Gap=     0.083 Goal=   None    Shift=    0.000
 RMSDP=4.27D-04 MaxDP=4.34D-02 DE=-3.15D-03 OVMax= 2.29D-02

 Cycle   5  Pass 1  IDiag  1:
 RMSU=  2.66D-04    CP:  9.37D-01  1.94D+00  9.84D-01  6.49D-01
 E= -192.733207385681     Delta-E=       -0.002749131377 Rises=F Damp=F
 DIIS: error= 4.82D-04 at cycle   5 NSaved=   5.
 NSaved= 5 IEnMin= 5 EnMin= -192.733207385681     IErMin= 5 ErrMin= 4.82D-04
 ErrMax= 4.82D-04  0.00D+00 EMaxC= 1.00D-01 BMatC= 1.36D-04 BMatP= 9.92D-03
 IDIUse=3 WtCom= 9.95D-01 WtEn= 4.82D-03
 Coeff-Com:  0.127D-01-0.263D-01 0.102D+00 0.174D+00 0.738D+00
 Coeff-En:   0.000D+00 0.000D+00 0.000D+00 0.000D+00 0.100D+01
 Coeff:      0.126D-01-0.262D-01 0.101D+00 0.173D+00 0.739D+00
 Gap=     0.113 Goal=   None    Shift=    0.000
 Gap=     0.082 Goal=   None    Shift=    0.000
 RMSDP=1.45D-04 MaxDP=1.73D-02 DE=-2.75D-03 OVMax= 4.44D-03

 Cycle   6  Pass 1  IDiag  1:
 RMSU=  9.01D-05    CP:  9.35D-01  1.94D+00  1.01D+00  7.01D-01  1.10D+00
 E= -192.733261404929     Delta-E=       -0.000054019249 Rises=F Damp=F
 DIIS: error= 3.47D-04 at cycle   6 NSaved=   6.
 NSaved= 6 IEnMin= 6 EnMin= -192.733261404929     IErMin= 6 ErrMin= 3.47D-04
 ErrMax= 3.47D-04  0.00D+00 EMaxC= 1.00D-01 BMatC= 3.74D-05 BMatP= 1.36D-04
 IDIUse=3 WtCom= 9.97D-01 WtEn= 3.47D-03
 Coeff-Com:  0.158D-01-0.277D-01-0.179D-01-0.207D-01 0.279D+00 0.771D+00
 Coeff-En:   0.000D+00 0.000D+00 0.000D+00 0.000D+00 0.000D+00 0.100D+01
 Coeff:      0.157D-01-0.276D-01-0.179D-01-0.206D-01 0.278D+00 0.772D+00
 Gap=     0.114 Goal=   None    Shift=    0.000
 Gap=     0.083 Goal=   None    Shift=    0.000
 RMSDP=8.45D-05 MaxDP=1.28D-02 DE=-5.40D-05 OVMax= 3.58D-03

 Cycle   7  Pass 1  IDiag  1:
 RMSU=  3.13D-05    CP:  9.33D-01  1.93D+00  1.01D+00  7.04D-01  1.21D+00
                    CP:  1.16D+00
 E= -192.733277678466     Delta-E=       -0.000016273536 Rises=F Damp=F
 DIIS: error= 1.56D-04 at cycle   7 NSaved=   7.
 NSaved= 7 IEnMin= 7 EnMin= -192.733277678466     IErMin= 7 ErrMin= 1.56D-04
 ErrMax= 1.56D-04  0.00D+00 EMaxC= 1.00D-01 BMatC= 1.53D-05 BMatP= 3.74D-05
 IDIUse=3 WtCom= 9.98D-01 WtEn= 1.56D-03
 Coeff-Com:  0.462D-02-0.659D-02-0.373D-01-0.658D-01-0.558D-01 0.435D+00
 Coeff-Com:  0.726D+00
 Coeff-En:   0.000D+00 0.000D+00 0.000D+00 0.000D+00 0.000D+00 0.000D+00
 Coeff-En:   0.100D+01
 Coeff:      0.462D-02-0.658D-02-0.372D-01-0.657D-01-0.557D-01 0.434D+00
 Coeff:      0.727D+00
 Gap=     0.114 Goal=   None    Shift=    0.000
 Gap=     0.083 Goal=   None    Shift=    0.000
 RMSDP=2.67D-05 MaxDP=9.44D-04 DE=-1.63D-05 OVMax= 2.12D-03

 Cycle   8  Pass 1  IDiag  1:
 RMSU=  2.42D-05    CP:  9.34D-01  1.93D+00  1.01D+00  7.00D-01  1.24D+00
                    CP:  1.20D+00  9.91D-01
 E= -192.733284797139     Delta-E=       -0.000007118673 Rises=F Damp=F
 DIIS: error= 9.87D-05 at cycle   8 NSaved=   8.
 NSaved= 8 IEnMin= 8 EnMin= -192.733284797139     IErMin= 8 ErrMin= 9.87D-05
 ErrMax= 9.87D-05  0.00D+00 EMaxC= 1.00D-01 BMatC= 2.57D-06 BMatP= 1.53D-05
 IDIUse=1 WtCom= 1.00D+00 WtEn= 0.00D+00
 Coeff-Com: -0.101D-02 0.239D-02-0.106D-01-0.238D-01-0.649D-01 0.494D-02
 Coeff-Com:  0.323D+00 0.770D+00
 Coeff:     -0.101D-02 0.239D-02-0.106D-01-0.238D-01-0.649D-01 0.494D-02
 Coeff:      0.323D+00 0.770D+00
 Gap=     0.114 Goal=   None    Shift=    0.000
 Gap=     0.083 Goal=   None    Shift=    0.000
 RMSDP=1.53D-05 MaxDP=1.43D-03 DE=-7.12D-06 OVMax= 9.77D-04

 Cycle   9  Pass 1  IDiag  1:
 RMSU=  8.63D-06    CP:  9.33D-01  1.93D+00  1.01D+00  7.01D-01  1.25D+00
                    CP:  1.25D+00  1.15D+00  9.65D-01
 E= -192.733286231418     Delta-E=       -0.000001434280 Rises=F Damp=F
 DIIS: error= 4.26D-05 at cycle   9 NSaved=   9.
 NSaved= 9 IEnMin= 9 EnMin= -192.733286231418     IErMin= 9 ErrMin= 4.26D-05
 ErrMax= 4.26D-05  0.00D+00 EMaxC= 1.00D-01 BMatC= 9.55D-07 BMatP= 2.57D-06
 IDIUse=1 WtCom= 1.00D+00 WtEn= 0.00D+00
 Coeff-Com: -0.193D-02 0.334D-02 0.315D-02 0.189D-02-0.247D-01-0.114D+00
 Coeff-Com:  0.288D-01 0.472D+00 0.631D+00
 Coeff:     -0.193D-02 0.334D-02 0.315D-02 0.189D-02-0.247D-01-0.114D+00
 Coeff:      0.288D-01 0.472D+00 0.631D+00
 Gap=     0.114 Goal=   None    Shift=    0.000
 Gap=     0.084 Goal=   None    Shift=    0.000
 RMSDP=6.42D-06 MaxDP=2.39D-04 DE=-1.43D-06 OVMax= 4.70D-04

 Cycle  10  Pass 1  IDiag  1:
 RMSU=  4.40D-06    CP:  9.33D-01  1.93D+00  1.01D+00  6.98D-01  1.26D+00
                    CP:  1.25D+00  1.22D+00  1.09D+00  1.08D+00
 E= -192.733286706417     Delta-E=       -0.000000474999 Rises=F Damp=F
 DIIS: error= 1.46D-05 at cycle  10 NSaved=  10.
 NSaved=10 IEnMin=10 EnMin= -192.733286706417     IErMin=10 ErrMin= 1.46D-05
 ErrMax= 1.46D-05  0.00D+00 EMaxC= 1.00D-01 BMatC= 8.39D-08 BMatP= 9.55D-07
 IDIUse=1 WtCom= 1.00D+00 WtEn= 0.00D+00
 Coeff-Com: -0.473D-04-0.834D-04 0.291D-02 0.691D-02 0.130D-01-0.286D-01
 Coeff-Com: -0.778D-01-0.114D+00 0.656D-01 0.113D+01
 Coeff:     -0.473D-04-0.834D-04 0.291D-02 0.691D-02 0.130D-01-0.286D-01
 Coeff:     -0.778D-01-0.114D+00 0.656D-01 0.113D+01
 Gap=     0.114 Goal=   None    Shift=    0.000
 Gap=     0.084 Goal=   None    Shift=    0.000
 RMSDP=4.49D-06 MaxDP=2.21D-04 DE=-4.75D-07 OVMax= 4.12D-04

 Cycle  11  Pass 1  IDiag  1:
 RMSU=  2.15D-06    CP:  9.33D-01  1.93D+00  1.01D+00  6.98D-01  1.26D+00
                    CP:  1.25D+00  1.28D+00  1.17D+00  1.35D+00  1.28D+00
 E= -192.733286849045     Delta-E=       -0.000000142627 Rises=F Damp=F
 DIIS: error= 4.45D-06 at cycle  11 NSaved=  11.
 NSaved=11 IEnMin=11 EnMin= -192.733286849045     IErMin=11 ErrMin= 4.45D-06
 ErrMax= 4.45D-06  0.00D+00 EMaxC= 1.00D-01 BMatC= 1.66D-08 BMatP= 8.39D-08
 IDIUse=1 WtCom= 1.00D+00 WtEn= 0.00D+00
 Coeff-Com:  0.350D-03-0.591D-03-0.704D-03-0.148D-03 0.337D-02 0.193D-01
 Coeff-Com:  0.549D-02-0.796D-01-0.125D+00-0.456D-01 0.122D+01
 Coeff:      0.350D-03-0.591D-03-0.704D-03-0.148D-03 0.337D-02 0.193D-01
 Coeff:      0.549D-02-0.796D-01-0.125D+00-0.456D-01 0.122D+01
 Gap=     0.114 Goal=   None    Shift=    0.000
 Gap=     0.084 Goal=   None    Shift=    0.000
 RMSDP=2.14D-06 MaxDP=8.75D-05 DE=-1.43D-07 OVMax= 2.09D-04

 Cycle  12  Pass 1  IDiag  1:
 RMSU=  1.27D-06    CP:  9.33D-01  1.93D+00  1.01D+00  6.98D-01  1.26D+00
                    CP:  1.25D+00  1.29D+00  1.17D+00  1.46D+00  1.47D+00
                    CP:  1.38D+00
 E= -192.733286874976     Delta-E=       -0.000000025932 Rises=F Damp=F
 DIIS: error= 2.31D-06 at cycle  12 NSaved=  12.
 NSaved=12 IEnMin=12 EnMin= -192.733286874976     IErMin=12 ErrMin= 2.31D-06
 ErrMax= 2.31D-06  0.00D+00 EMaxC= 1.00D-01 BMatC= 3.20D-09 BMatP= 1.66D-08
 IDIUse=1 WtCom= 1.00D+00 WtEn= 0.00D+00
 Coeff-Com:  0.734D-04-0.118D-03-0.560D-03-0.836D-03-0.620D-03 0.890D-02
 Coeff-Com:  0.105D-01-0.121D-01-0.477D-01-0.158D+00 0.375D+00 0.825D+00
 Coeff:      0.734D-04-0.118D-03-0.560D-03-0.836D-03-0.620D-03 0.890D-02
 Coeff:      0.105D-01-0.121D-01-0.477D-01-0.158D+00 0.375D+00 0.825D+00
 Gap=     0.114 Goal=   None    Shift=    0.000
 Gap=     0.084 Goal=   None    Shift=    0.000
 RMSDP=9.94D-07 MaxDP=7.64D-05 DE=-2.59D-08 OVMax= 6.96D-05

 Cycle  13  Pass 1  IDiag  1:
 RMSU=  4.13D-07    CP:  9.33D-01  1.93D+00  1.01D+00  6.98D-01  1.26D+00
                    CP:  1.25D+00  1.30D+00  1.18D+00  1.47D+00  1.56D+00
                    CP:  1.51D+00  1.18D+00
 E= -192.733286877520     Delta-E=       -0.000000002543 Rises=F Damp=F
 DIIS: error= 1.33D-06 at cycle  13 NSaved=  13.
 NSaved=13 IEnMin=13 EnMin= -192.733286877520     IErMin=13 ErrMin= 1.33D-06
 ErrMax= 1.33D-06  0.00D+00 EMaxC= 1.00D-01 BMatC= 1.68D-09 BMatP= 3.20D-09
 IDIUse=1 WtCom= 1.00D+00 WtEn= 0.00D+00
 Coeff-Com: -0.290D-04 0.557D-04-0.267D-03-0.655D-03-0.135D-02 0.155D-02
 Coeff-Com:  0.623D-02 0.149D-01 0.406D-02-0.972D-01-0.101D+00 0.501D+00
 Coeff-Com:  0.673D+00
 Coeff:     -0.290D-04 0.557D-04-0.267D-03-0.655D-03-0.135D-02 0.155D-02
 Coeff:      0.623D-02 0.149D-01 0.406D-02-0.972D-01-0.101D+00 0.501D+00
 Coeff:      0.673D+00
 Gap=     0.114 Goal=   None    Shift=    0.000
 Gap=     0.084 Goal=   None    Shift=    0.000
 RMSDP=4.89D-07 MaxDP=3.97D-05 DE=-2.54D-09 OVMax= 3.07D-05

 Cycle  14  Pass 1  IDiag  1:
 RMSU=  1.98D-07    CP:  9.33D-01  1.93D+00  1.01D+00  6.98D-01  1.26D+00
                    CP:  1.25D+00  1.30D+00  1.18D+00  1.49D+00  1.55D+00
                    CP:  1.61D+00  1.33D+00  8.60D-01
 E= -192.733286878325     Delta-E=       -0.000000000805 Rises=F Damp=F
 DIIS: error= 3.83D-07 at cycle  14 NSaved=  14.
 NSaved=14 IEnMin=14 EnMin= -192.733286878325     IErMin=14 ErrMin= 3.83D-07
 ErrMax= 3.83D-07  0.00D+00 EMaxC= 1.00D-01 BMatC= 6.69D-11 BMatP= 1.68D-09
 IDIUse=1 WtCom= 1.00D+00 WtEn= 0.00D+00
 Coeff-Com: -0.146D-04 0.234D-04 0.618D-04 0.574D-04-0.360D-04-0.766D-03
 Coeff-Com: -0.170D-02 0.205D-02 0.839D-02 0.116D-01-0.518D-01-0.585D-01
 Coeff-Com:  0.616D-01 0.103D+01
 Coeff:     -0.146D-04 0.234D-04 0.618D-04 0.574D-04-0.360D-04-0.766D-03
 Coeff:     -0.170D-02 0.205D-02 0.839D-02 0.116D-01-0.518D-01-0.585D-01
 Coeff:      0.616D-01 0.103D+01
 Gap=     0.114 Goal=   None    Shift=    0.000
 Gap=     0.084 Goal=   None    Shift=    0.000
 RMSDP=1.12D-07 MaxDP=9.77D-06 DE=-8.05D-10 OVMax= 6.57D-06

 Cycle  15  Pass 1  IDiag  1:
 RMSU=  4.73D-08    CP:  9.33D-01  1.93D+00  1.01D+00  6.98D-01  1.26D+00
                    CP:  1.25D+00  1.30D+00  1.18D+00  1.49D+00  1.55D+00
                    CP:  1.62D+00  1.37D+00  9.64D-01  1.12D+00
 E= -192.733286878371     Delta-E=       -0.000000000046 Rises=F Damp=F
 DIIS: error= 1.05D-07 at cycle  15 NSaved=  15.
 NSaved=15 IEnMin=15 EnMin= -192.733286878371     IErMin=15 ErrMin= 1.05D-07
 ErrMax= 1.05D-07  0.00D+00 EMaxC= 1.00D-01 BMatC= 7.67D-12 BMatP= 6.69D-11
 IDIUse=1 WtCom= 1.00D+00 WtEn= 0.00D+00
 Coeff-Com:  0.303D-05-0.475D-05 0.360D-04 0.676D-04 0.112D-03-0.859D-04
 Coeff-Com: -0.859D-03-0.135D-02 0.120D-02 0.843D-02 0.729D-02-0.528D-01
 Coeff-Com: -0.678D-01 0.679D-01 0.104D+01
 Coeff:      0.303D-05-0.475D-05 0.360D-04 0.676D-04 0.112D-03-0.859D-04
 Coeff:     -0.859D-03-0.135D-02 0.120D-02 0.843D-02 0.729D-02-0.528D-01
 Coeff:     -0.678D-01 0.679D-01 0.104D+01
 Gap=     0.114 Goal=   None    Shift=    0.000
 Gap=     0.084 Goal=   None    Shift=    0.000
 RMSDP=4.43D-08 MaxDP=6.38D-06 DE=-4.60D-11 OVMax= 2.96D-06

 Cycle  16  Pass 1  IDiag  1:
 RMSU=  1.87D-08    CP:  9.33D-01  1.93D+00  1.01D+00  6.98D-01  1.26D+00
                    CP:  1.25D+00  1.30D+00  1.18D+00  1.49D+00  1.55D+00
                    CP:  1.62D+00  1.38D+00  9.84D-01  1.21D+00  1.15D+00
 E= -192.733286878376     Delta-E=       -0.000000000005 Rises=F Damp=F
 DIIS: error= 5.03D-08 at cycle  16 NSaved=  16.
 NSaved=16 IEnMin=16 EnMin= -192.733286878376     IErMin=16 ErrMin= 5.03D-08
 ErrMax= 5.03D-08  0.00D+00 EMaxC= 1.00D-01 BMatC= 8.93D-13 BMatP= 7.67D-12
 IDIUse=1 WtCom= 1.00D+00 WtEn= 0.00D+00
 Coeff-Com:  0.158D-05-0.234D-05-0.383D-05-0.669D-05-0.443D-06 0.921D-04
 Coeff-Com:  0.102D-03-0.141D-03-0.583D-03-0.184D-02 0.607D-02 0.581D-02
 Coeff-Com: -0.305D-02-0.125D+00 0.128D-01 0.111D+01
 Coeff:      0.158D-05-0.234D-05-0.383D-05-0.669D-05-0.443D-06 0.921D-04
 Coeff:      0.102D-03-0.141D-03-0.583D-03-0.184D-02 0.607D-02 0.581D-02
 Coeff:     -0.305D-02-0.125D+00 0.128D-01 0.111D+01
 Gap=     0.114 Goal=   None    Shift=    0.000
 Gap=     0.084 Goal=   None    Shift=    0.000
 RMSDP=1.10D-08 MaxDP=8.16D-07 DE=-5.34D-12 OVMax= 1.10D-06

 Cycle  17  Pass 1  IDiag  1:
 RMSU=  3.94D-09    CP:  9.33D-01  1.93D+00  1.01D+00  6.98D-01  1.26D+00
                    CP:  1.25D+00  1.30D+00  1.18D+00  1.49D+00  1.55D+00
                    CP:  1.62D+00  1.38D+00  9.86D-01  1.22D+00  1.29D+00
                    CP:  1.21D+00
 E= -192.733286878377     Delta-E=       -0.000000000001 Rises=F Damp=F
 DIIS: error= 7.62D-09 at cycle  17 NSaved=  17.
 NSaved=17 IEnMin=17 EnMin= -192.733286878377     IErMin=17 ErrMin= 7.62D-09
 ErrMax= 7.62D-09  0.00D+00 EMaxC= 1.00D-01 BMatC= 3.83D-14 BMatP= 8.93D-13
 IDIUse=1 WtCom= 1.00D+00 WtEn= 0.00D+00
 Coeff-Com: -0.394D-06 0.585D-06-0.205D-05-0.449D-05-0.638D-05 0.159D-05
 Coeff-Com:  0.522D-04 0.901D-04 0.700D-05-0.560D-03-0.740D-03 0.275D-02
 Coeff-Com:  0.590D-02 0.181D-02-0.621D-01-0.119D+00 0.117D+01
 Coeff:     -0.394D-06 0.585D-06-0.205D-05-0.449D-05-0.638D-05 0.159D-05
 Coeff:      0.522D-04 0.901D-04 0.700D-05-0.560D-03-0.740D-03 0.275D-02
 Coeff:      0.590D-02 0.181D-02-0.621D-01-0.119D+00 0.117D+01
 Gap=     0.114 Goal=   None    Shift=    0.000
 Gap=     0.084 Goal=   None    Shift=    0.000
 RMSDP=2.39D-09 MaxDP=1.00D-07 DE=-6.82D-13 OVMax= 2.84D-07

 SCF Done:  E(UB3LYP) =  -192.733286878     A.U. after   17 cycles
            NFock= 17  Conv=0.24D-08     -V/T= 2.0046
 <Sx>= 0.0000 <Sy>= 0.0000 <Sz>= 1.0000 <S**2>= 2.0163 S= 1.0054
 <L.S>= 0.000000000000E+00
 KE= 1.918416931475D+02 PE=-6.968962550498D+02 EE= 1.870969816396D+02
 Annihilation of the first spin contaminant:
 S**2 before annihilation     2.0163,   after     2.0001
 Leave Link  502 at Wed Jul 20 02:53:50 2016, MaxMem=    33554432 cpu:       688.2
 (Enter /home/proyectos/fulerenos/M3C-v2.0/M3C-deps_CCC/g09-AM64L-G09RevC.01/l801.exe)
 DoSCS=F DFT=T ScalE2(SS,OS)=  1.000000  1.000000
 Range of M.O.s used for correlation:     1   235
 NBasis=   235 NAE=    18 NBE=    16 NFC=     0 NFV=     0
 NROrb=    235 NOA=    18 NOB=    16 NVA=   217 NVB=   219

 **** Warning!!: The largest alpha MO coefficient is  0.30409969D+03


 **** Warning!!: The largest beta MO coefficient is  0.30897285D+03


 **** Warning!!: The smallest beta delta epsilon is  0.83508389D-01

 Leave Link  801 at Wed Jul 20 02:53:50 2016, MaxMem=    33554432 cpu:         0.1
 (Enter /home/proyectos/fulerenos/M3C-v2.0/M3C-deps_CCC/g09-AM64L-G09RevC.01/l1101.exe)
 Using compressed storage, NAtomX=     9.
 Will process     10 centers per pass.
 Leave Link 1101 at Wed Jul 20 02:53:52 2016, MaxMem=    33554432 cpu:         0.8
 (Enter /home/proyectos/fulerenos/M3C-v2.0/M3C-deps_CCC/g09-AM64L-G09RevC.01/l1102.exe)
 Symmetrizing basis deriv contribution to polar:
 IMax=3 JMax=2 DiffMx= 0.00D+00
 Leave Link 1102 at Wed Jul 20 02:53:52 2016, MaxMem=    33554432 cpu:         0.2
 (Enter /home/proyectos/fulerenos/M3C-v2.0/M3C-deps_CCC/g09-AM64L-G09RevC.01/l1110.exe)
 Forming Gx(P) for the SCF density, NAtomX=     9.
 Integral derivatives from FoFJK, PRISM(SPDF).
 Do as many integral derivatives as possible in FoFJK.
 G2DrvN: MDV=      33554256.
 G2DrvN: will do    10 centers at a time, making    1 passes.
 Calling FoFCou, ICntrl=  3107 FMM=F I1Cent=   0 AccDes= 0.00D+00.
 FoFJK:  IHMeth= 1 ICntrl=    3107 DoSepK=F KAlg= 0 I1Cent=   0 FoldK=F
 IRaf=         0 NMat=   1 IRICut=       1 DoRegI=T DoRafI=F ISym2E= 1.
 FoFCou: FMM=F IPFlag=           0 FMFlag=      100000 FMFlg1=           0
         NFxFlg=           0 DoJE=F BraDBF=F KetDBF=F FulRan=T
         wScrn=  0.000000 ICntrl=    3107 IOpCl=  1 I1Cent=           0 NGrid=           0
         NMat0=    1 NMatS0=      1 NMatT0=    0 NMatD0=    1 NMtDS0=    0 NMtDT0=    0
 Petite list used in FoFCou.
 End of G2Drv F.D. properties file   721 does not exist.
 End of G2Drv F.D. properties file   722 does not exist.
 End of G2Drv F.D. properties file   788 does not exist.
 Leave Link 1110 at Wed Jul 20 03:03:27 2016, MaxMem=    33554432 cpu:       552.5
 (Enter /home/proyectos/fulerenos/M3C-v2.0/M3C-deps_CCC/g09-AM64L-G09RevC.01/l1002.exe)
 Minotr:  UHF open shell wavefunction.
          IDoAtm=111111111
          Direct CPHF calculation.
          Differentiating once with respect to electric field.
                with respect to dipole field.
          Differentiating once with respect to nuclear coordinates.
          Using symmetry in CPHF.
          Requested convergence is 1.0D-08 RMS, and 1.0D-07 maximum.
          Secondary convergence is 1.0D-12 RMS, and 1.0D-12 maximum.
          NewPWx=T KeepS1=F KeepF1=F KeepIn=T MapXYZ=F SortEE=F KeepMc=T.
          MDV=      33553868 using IRadAn=       2.
 Generate precomputed XC quadrature information.
          Solving linear equations simultaneously, MaxMat=       0.
 FoFJK:  IHMeth= 1 ICntrl=       0 DoSepK=F KAlg= 0 I1Cent=   0 FoldK=F
 IRaf= 980000000 NMat=  27 IRICut=      67 DoRegI=T DoRafI=T ISym2E= 2.
 FoFCou: FMM=F IPFlag=           0 FMFlag=      100000 FMFlg1=           0
         NFxFlg=           0 DoJE=F BraDBF=F KetDBF=F FulRan=T
         wScrn=  0.000000 ICntrl=       0 IOpCl=  1 I1Cent=           0 NGrid=           0
         NMat0=   27 NMatS0=     27 NMatT0=    0 NMatD0=   27 NMtDS0=    0 NMtDT0=    0
 Integrals replicated using symmetry in FoFCou.
          There are    27 degrees of freedom in the 1st order CPHF.  IDoFFX=4 NUNeed=    27.
     27 vectors produced by pass  0 Test12= 2.74D-14 3.70D-09 XBig12= 2.78D+02 1.02D+01.
 AX will form    27 AO Fock derivatives at one time.
     27 vectors produced by pass  1 Test12= 2.74D-14 3.70D-09 XBig12= 4.68D+01 1.55D+00.
     27 vectors produced by pass  2 Test12= 2.74D-14 3.70D-09 XBig12= 1.84D+00 3.51D-01.
     27 vectors produced by pass  3 Test12= 2.74D-14 3.70D-09 XBig12= 3.02D-02 2.78D-02.
     27 vectors produced by pass  4 Test12= 2.74D-14 3.70D-09 XBig12= 2.54D-04 2.05D-03.
     27 vectors produced by pass  5 Test12= 2.74D-14 3.70D-09 XBig12= 1.95D-06 1.86D-04.
     27 vectors produced by pass  6 Test12= 2.74D-14 3.70D-09 XBig12= 9.92D-09 1.26D-05.
     10 vectors produced by pass  7 Test12= 2.74D-14 3.70D-09 XBig12= 5.34D-11 9.06D-07.
      8 vectors produced by pass  8 Test12= 2.74D-14 3.70D-09 XBig12= 8.71D-12 7.01D-07.
      8 vectors produced by pass  9 Test12= 2.74D-14 3.70D-09 XBig12= 5.05D-13 1.67D-07.
      4 vectors produced by pass 10 Test12= 2.74D-14 3.70D-09 XBig12= 2.76D-14 3.84D-08.
      1 vectors produced by pass 11 Test12= 2.74D-14 3.70D-09 XBig12= 6.13D-16 5.20D-09.
 InvSVY:  IOpt=1 It=  1 EMax= 5.33D-15
 Solved reduced A of dimension   220 with    27 vectors.
 FullF1:  Do perturbations    1 to    27.
 Isotropic polarizability for W=    0.000000       72.10 Bohr**3.
 End of Minotr F.D. properties file   721 does not exist.
 End of Minotr F.D. properties file   722 does not exist.
 End of Minotr F.D. properties file   788 does not exist.
 Leave Link 1002 at Wed Jul 20 03:46:14 2016, MaxMem=    33554432 cpu:      2546.7
 (Enter /home/proyectos/fulerenos/M3C-v2.0/M3C-deps_CCC/g09-AM64L-G09RevC.01/l601.exe)
 Copying SCF densities to generalized density rwf, IOpCl= 1 IROHF=0.

 **********************************************************************

            Population analysis using the SCF density.

 **********************************************************************

 Orbital symmetries:
 Alpha Orbitals:
       Occupied  (A') (A') (A') (A') (A') (A') (A') (A') (A') (A')
                 (A') (A") (A') (A") (A') (A') (A") (A')
       Virtual   (A") (A') (A') (A') (A") (A') (A") (A') (A") (A')
                 (A') (A') (A") (A') (A') (A') (A') (A") (A') (A")
                 (A') (A") (A') (A') (A') (A') (A') (A') (A") (A')
                 (A') (A") (A') (A') (A") (A') (A') (A') (A') (A")
                 (A') (A') (A") (A") (A') (A') (A') (A") (A') (A')
                 (A") (A') (A") (A') (A") (A') (A') (A") (A') (A")
                 (A') (A') (A") (A') (A") (A') (A') (A") (A') (A')
                 (A') (A") (A') (A") (A') (A') (A") (A') (A') (A')
                 (A") (A') (A') (A") (A') (A') (A") (A') (A') (A')
                 (A") (A') (A') (A") (A') (A') (A") (A') (A") (A')
                 (A") (A') (A") (A') (A") (A') (A') (A') (A") (A")
                 (A') (A') (A") (A') (A') (A') (A') (A") (A') (A')
                 (A') (A") (A") (A') (A") (A') (A") (A') (A") (A")
                 (A') (A") (A') (A") (A') (A') (A") (A') (A") (A')
                 (A') (A") (A') (A") (A') (A') (A") (A') (A') (A")
                 (A') (A') (A') (A") (A') (A') (A") (A') (A') (A")
                 (A') (A') (A") (A') (A') (A') (A') (A') (A") (A")
                 (A') (A") (A") (A') (A') (A") (A') (A") (A') (A')
                 (A') (A') (A") (A') (A") (A') (A') (A") (A") (A')
                 (A') (A") (A') (A") (A") (A") (A') (A') (A') (A")
                 (A") (A') (A') (A') (A") (A') (A') (A") (A') (A')
                 (A') (A') (A') (A') (A') (A') (A')
 Beta  Orbitals:
       Occupied  (A') (A') (A') (A') (A') (A') (A') (A') (A') (A')
                 (A') (A") (A') (A") (A') (A')
       Virtual   (A") (A') (A") (A') (A') (A') (A") (A') (A') (A")
                 (A') (A") (A') (A') (A") (A') (A') (A') (A') (A")
                 (A') (A") (A') (A') (A") (A') (A') (A') (A') (A')
                 (A") (A') (A') (A") (A') (A') (A") (A') (A') (A')
                 (A') (A") (A') (A") (A') (A") (A') (A') (A') (A")
                 (A') (A') (A") (A') (A") (A") (A') (A') (A') (A")
                 (A') (A') (A") (A') (A") (A') (A") (A') (A') (A")
                 (A') (A') (A") (A') (A') (A") (A') (A') (A") (A')
                 (A') (A') (A") (A') (A') (A") (A') (A') (A") (A')
                 (A') (A') (A") (A') (A') (A') (A") (A') (A") (A')
                 (A") (A') (A") (A') (A") (A") (A') (A') (A') (A")
                 (A') (A') (A") (A') (A") (A') (A') (A') (A') (A")
                 (A') (A') (A') (A") (A") (A') (A") (A') (A") (A")
                 (A') (A") (A') (A") (A') (A') (A") (A') (A") (A')
                 (A") (A') (A') (A") (A') (A") (A') (A") (A') (A')
                 (A') (A") (A') (A') (A') (A') (A") (A') (A") (A')
                 (A') (A") (A') (A') (A") (A') (A') (A') (A') (A')
                 (A") (A") (A') (A") (A") (A') (A') (A") (A') (A")
                 (A') (A') (A') (A') (A") (A') (A") (A') (A') (A")
                 (A") (A') (A') (A") (A") (A') (A") (A") (A') (A')
                 (A') (A") (A") (A') (A') (A') (A") (A') (A') (A")
                 (A') (A') (A') (A') (A') (A') (A') (A') (A')
 The electronic state is 3-A".
 Alpha  occ. eigenvalues --  -10.24891 -10.23190 -10.21645 -10.21298 -10.19155
 Alpha  occ. eigenvalues --   -0.86315  -0.79645  -0.71598  -0.60099  -0.52930
 Alpha  occ. eigenvalues --   -0.50088  -0.49052  -0.45848  -0.36958  -0.32070
 Alpha  occ. eigenvalues --   -0.27680  -0.26193  -0.19036
 Alpha virt. eigenvalues --   -0.07627  -0.03638  -0.01130   0.00440   0.01462
 Alpha virt. eigenvalues --    0.02329   0.04577   0.04952   0.06403   0.06687
 Alpha virt. eigenvalues --    0.07395   0.09278   0.09890   0.10245   0.10500
 Alpha virt. eigenvalues --    0.11171   0.12321   0.12442   0.13035   0.14144
 Alpha virt. eigenvalues --    0.14975   0.16131   0.16338   0.17367   0.18100
 Alpha virt. eigenvalues --    0.20992   0.22558   0.22866   0.23972   0.24895
 Alpha virt. eigenvalues --    0.25940   0.26438   0.27191   0.32381   0.33362
 Alpha virt. eigenvalues --    0.34590   0.36355   0.38252   0.39735   0.41607
 Alpha virt. eigenvalues --    0.42105   0.43263   0.43417   0.44715   0.45300
 Alpha virt. eigenvalues --    0.46518   0.48141   0.49408   0.50823   0.51796
 Alpha virt. eigenvalues --    0.53633   0.54094   0.55292   0.56368   0.56968
 Alpha virt. eigenvalues --    0.57237   0.58614   0.59702   0.60525   0.63209
 Alpha virt. eigenvalues --    0.63787   0.64916   0.69462   0.73258   0.74294
 Alpha virt. eigenvalues --    0.76069   0.77546   0.78862   0.80391   0.85815
 Alpha virt. eigenvalues --    0.87538   0.87569   0.90355   0.91476   0.92628
 Alpha virt. eigenvalues --    0.96531   1.01309   1.05647   1.06627   1.09558
 Alpha virt. eigenvalues --    1.09992   1.16772   1.18866   1.21133   1.21952
 Alpha virt. eigenvalues --    1.23006   1.26010   1.27721   1.29178   1.30977
 Alpha virt. eigenvalues --    1.33280   1.33693   1.35421   1.36859   1.37061
 Alpha virt. eigenvalues --    1.44565   1.44935   1.48672   1.55120   1.57125
 Alpha virt. eigenvalues --    1.58798   1.62432   1.62552   1.71852   1.72179
 Alpha virt. eigenvalues --    1.73213   1.77726   1.88341   1.88446   1.93428
 Alpha virt. eigenvalues --    1.93743   2.03385   2.08044   2.12031   2.15337
 Alpha virt. eigenvalues --    2.22029   2.29284   2.37694   2.42442   2.52109
 Alpha virt. eigenvalues --    2.59774   2.59962   2.63998   2.66886   2.66955
 Alpha virt. eigenvalues --    2.72583   2.72584   2.75176   2.75292   2.77934
 Alpha virt. eigenvalues --    2.78232   2.78798   2.83454   2.86596   2.86704
 Alpha virt. eigenvalues --    2.89192   2.91509   2.92809   2.94751   2.95587
 Alpha virt. eigenvalues --    2.98139   3.03715   3.06311   3.12531   3.12942
 Alpha virt. eigenvalues --    3.15771   3.16456   3.19725   3.25960   3.26406
 Alpha virt. eigenvalues --    3.27298   3.34739   3.42422   3.47532   3.48027
 Alpha virt. eigenvalues --    3.55095   3.56416   3.59160   3.75437   3.77424
 Alpha virt. eigenvalues --    3.81630   3.98592   4.00070   4.06705   4.11108
 Alpha virt. eigenvalues --    4.14141   4.14865   4.19885   4.20971   4.25073
 Alpha virt. eigenvalues --    4.25191   4.36936   4.38309   4.40506   4.44789
 Alpha virt. eigenvalues --    4.62318   4.63559   4.80045   4.83034   5.13047
 Alpha virt. eigenvalues --    5.42299   5.48166   5.57411   5.73053   5.73167
 Alpha virt. eigenvalues --    6.04877   6.39877   6.93516   6.98569   7.01027
 Alpha virt. eigenvalues --    7.02337   7.04235   7.05666   7.06400   7.07829
 Alpha virt. eigenvalues --    7.22514   7.23014   7.30444   7.31646   7.38425
 Alpha virt. eigenvalues --    7.47273   7.49265   7.52014   7.60793   7.66708
 Alpha virt. eigenvalues --    7.69749   7.82481   7.96633   8.06560   8.10955
 Alpha virt. eigenvalues --    8.21380   8.56879  23.87394  24.39365  25.14090
 Alpha virt. eigenvalues --   25.73045  26.11342
  Beta  occ. eigenvalues --  -10.24293 -10.23145 -10.21383 -10.21167 -10.17420
  Beta  occ. eigenvalues --   -0.84980  -0.78427  -0.69099  -0.58066  -0.51988
  Beta  occ. eigenvalues --   -0.48902  -0.48029  -0.44327  -0.34056  -0.31651
  Beta  occ. eigenvalues --   -0.24824
  Beta virt. eigenvalues --   -0.16474  -0.04456  -0.04202  -0.02773  -0.00795
  Beta virt. eigenvalues --    0.00563   0.01983   0.02409   0.05113   0.06538
  Beta virt. eigenvalues --    0.06790   0.06986   0.07641   0.09488   0.10384
  Beta virt. eigenvalues --    0.10446   0.10615   0.11595   0.12541   0.13180
  Beta virt. eigenvalues --    0.13329   0.14277   0.15236   0.16502   0.16669
  Beta virt. eigenvalues --    0.17668   0.18551   0.21067   0.22678   0.22951
  Beta virt. eigenvalues --    0.24363   0.25695   0.26426   0.26929   0.28177
  Beta virt. eigenvalues --    0.32778   0.34048   0.35434   0.36937   0.39008
  Beta virt. eigenvalues --    0.40699   0.42284   0.43066   0.44118   0.44222
  Beta virt. eigenvalues --    0.45829   0.45873   0.47554   0.48997   0.50682
  Beta virt. eigenvalues --    0.51198   0.52178   0.54316   0.54963   0.56392
  Beta virt. eigenvalues --    0.57801   0.57915   0.58237   0.59559   0.60960
  Beta virt. eigenvalues --    0.61165   0.64890   0.65073   0.65672   0.69835
  Beta virt. eigenvalues --    0.74345   0.74964   0.76668   0.78216   0.79429
  Beta virt. eigenvalues --    0.80840   0.86300   0.88233   0.88967   0.90871
  Beta virt. eigenvalues --    0.91839   0.93020   0.96768   1.01730   1.06027
  Beta virt. eigenvalues --    1.07294   1.10252   1.10374   1.17248   1.19261
  Beta virt. eigenvalues --    1.21608   1.23187   1.23944   1.26328   1.28621
  Beta virt. eigenvalues --    1.30476   1.31598   1.33833   1.34724   1.36120
  Beta virt. eigenvalues --    1.37643   1.38155   1.44924   1.47190   1.49502
  Beta virt. eigenvalues --    1.56121   1.59067   1.60863   1.64276   1.67466
  Beta virt. eigenvalues --    1.73739   1.74389   1.77384   1.79284   1.89387
  Beta virt. eigenvalues --    1.89807   1.94795   1.95569   2.05323   2.09688
  Beta virt. eigenvalues --    2.12686   2.15939   2.23633   2.30361   2.38811
  Beta virt. eigenvalues --    2.43254   2.52948   2.60474   2.61461   2.65246
  Beta virt. eigenvalues --    2.68228   2.68425   2.73648   2.75510   2.77227
  Beta virt. eigenvalues --    2.77976   2.80291   2.80971   2.82172   2.84454
  Beta virt. eigenvalues --    2.88671   2.90297   2.91054   2.94498   2.95548
  Beta virt. eigenvalues --    2.96115   2.97425   3.00791   3.06149   3.07243
  Beta virt. eigenvalues --    3.13480   3.16269   3.17169   3.17335   3.20633
  Beta virt. eigenvalues --    3.27736   3.27845   3.28843   3.36050   3.43181
  Beta virt. eigenvalues --    3.48478   3.49400   3.56344   3.57298   3.60740
  Beta virt. eigenvalues --    3.76058   3.78356   3.83614   3.99257   4.01074
  Beta virt. eigenvalues --    4.07375   4.12221   4.14761   4.15491   4.20442
  Beta virt. eigenvalues --    4.21999   4.26379   4.26628   4.38355   4.39323
  Beta virt. eigenvalues --    4.41060   4.45547   4.63428   4.64201   4.81016
  Beta virt. eigenvalues --    4.83698   5.13936   5.43368   5.48666   5.57887
  Beta virt. eigenvalues --    5.73325   5.74319   6.05482   6.40223   6.96182
  Beta virt. eigenvalues --    7.04264   7.04995   7.06458   7.07043   7.07970
  Beta virt. eigenvalues --    7.09966   7.10037   7.23659   7.25623   7.31533
  Beta virt. eigenvalues --    7.36266   7.40289   7.49460   7.49734   7.52220
  Beta virt. eigenvalues --    7.62454   7.68266   7.70163   7.83977   7.96745
  Beta virt. eigenvalues --    8.07076   8.11461   8.21855   8.57527  23.88184
  Beta virt. eigenvalues --   24.40439  25.15046  25.73321  26.11546
          Condensed to atoms (all electrons):
               1          2          3          4          5          6
     1  C    7.827349  -0.144595   0.493936  -0.000032  -0.000032  -2.165242
     2  C   -0.144595  10.970647   0.023475   0.399365   0.399365  -0.208349
     3  H    0.493936   0.023475   0.558491   0.000068   0.000068  -0.035115
     4  H   -0.000032   0.399365   0.000068   0.473833  -0.025931   0.000329
     5  H   -0.000032   0.399365   0.000068  -0.025931   0.473833   0.000329
     6  C   -2.165242  -0.208349  -0.035115   0.000329   0.000329   9.136534
     7  C    0.110445  -0.430767   0.102850  -0.064143  -0.064143  -0.638802
     8  C   -0.193390  -4.645682  -0.301531   0.036422   0.036422   0.613454
     9  H   -0.078817   0.055809   0.009819  -0.000481  -0.000481   0.009670
               7          8          9
     1  C    0.110445  -0.193390  -0.078817
     2  C   -0.430767  -4.645682   0.055809
     3  H    0.102850  -0.301531   0.009819
     4  H   -0.064143   0.036422  -0.000481
     5  H   -0.064143   0.036422  -0.000481
     6  C   -0.638802   0.613454   0.009670
     7  C    8.852046  -2.558799   0.057352
     8  C   -2.558799  13.040008   0.286939
     9  H    0.057352   0.286939   0.507701
          Atomic-Atomic Spin Densities.
               1          2          3          4          5          6
     1  C    0.383604   0.005342   0.030851   0.000392   0.000392   0.184769
     2  C    0.005342  -0.050283  -0.002485   0.009773   0.009773  -0.036140
     3  H    0.030851  -0.002485   0.074482  -0.000027  -0.000027   0.013659
     4  H    0.000392   0.009773  -0.000027   0.036116  -0.006312   0.000080
     5  H    0.000392   0.009773  -0.000027  -0.006312   0.036116   0.000080
     6  C    0.184769  -0.036140   0.013659   0.000080   0.000080   1.089267
     7  C   -0.020904  -0.009253   0.005715  -0.007090  -0.007090   0.051920
     8  C   -0.127871   0.007492  -0.081296  -0.002233  -0.002233  -0.130552
     9  H    0.019406  -0.005554   0.007173  -0.000034  -0.000034   0.007564
               7          8          9
     1  C   -0.020904  -0.127871   0.019406
     2  C   -0.009253   0.007492  -0.005554
     3  H    0.005715  -0.081296   0.007173
     4  H   -0.007090  -0.002233  -0.000034
     5  H   -0.007090  -0.002233  -0.000034
     6  C    0.051920  -0.130552   0.007564
     7  C    0.324761   0.032496   0.006320
     8  C    0.032496   0.257449  -0.036319
     9  H    0.006320  -0.036319   0.013005
 Mulliken charges and spin densities:
               1          2
     1  C    0.150380   0.475981
     2  C   -0.419268  -0.071335
     3  H    0.147940   0.048045
     4  H    0.180572   0.030665
     5  H    0.180572   0.030665
     6  C   -0.712806   1.180646
     7  C    0.633964   0.376876
     8  C   -0.313842  -0.083068
     9  H    0.152489   0.011526
 Sum of Mulliken charges =  -0.00000   2.00000
 Mulliken charges and spin densities with hydrogens summed into heavy atoms:
               1          2
     1  C    0.298320   0.524026
     2  C   -0.058124  -0.010006
     6  C   -0.712806   1.180646
     7  C    0.633964   0.376876
     8  C   -0.161353  -0.071542
 APT charges:
               1
     1  C    0.286260
     2  C   -0.267011
     3  H   -0.065405
     4  H    0.089635
     5  H    0.089635
     6  C   -0.261817
     7  C    0.357057
     8  C   -0.230964
     9  H    0.002610
 Sum of APT charges =  -0.00000
 APT charges with hydrogens summed into heavy atoms:
               1
     1  C    0.220854
     2  C   -0.087740
     6  C   -0.261817
     7  C    0.357057
     8  C   -0.228354
 Electronic spatial extent (au):  <R**2>=            435.0283
 Charge=             -0.0000 electrons
 Dipole moment (field-independent basis, Debye):
    X=             -3.8993    Y=              2.4501    Z=             -0.0000  Tot=              4.6051
 Quadrupole moment (field-independent basis, Debye-Ang):
   XX=            -33.9062   YY=            -30.1427   ZZ=            -29.8166
   XY=              8.4789   XZ=              0.0000   YZ=              0.0000
 Traceless Quadrupole moment (field-independent basis, Debye-Ang):
   XX=             -2.6177   YY=              1.1458   ZZ=              1.4719
   XY=              8.4789   XZ=              0.0000   YZ=              0.0000
 Octapole moment (field-independent basis, Debye-Ang**2):
  XXX=            -32.2797  YYY=             12.5175  ZZZ=             -0.0000  XYY=            -11.8882
  XXY=              6.9202  XXZ=             -0.0000  XZZ=             -6.0261  YZZ=             -1.2693
  YYZ=             -0.0000  XYZ=             -0.0000
 Hexadecapole moment (field-independent basis, Debye-Ang**3):
 XXXX=           -498.0077 YYYY=           -160.7146 ZZZZ=            -41.7667 XXXY=             17.7718
 XXXZ=              0.0000 YYYX=            -17.0442 YYYZ=              0.0000 ZZZX=              0.0000
 ZZZY=              0.0000 XXYY=           -103.4230 XXZZ=            -76.8374 YYZZ=            -33.3722
 XXYZ=              0.0000 YYXZ=              0.0000 ZZXY=             -5.8939
 N-N= 1.252242933844D+02 E-N=-6.968962548760D+02  KE= 1.918416931475D+02
 Symmetry A'   KE= 1.865407809432D+02
 Symmetry A"   KE= 5.300912204341D+00
  Exact polarizability: 101.998  10.540  66.938  -0.000   0.000  47.360
 Approx polarizability: 140.779  19.244 101.367   0.000   0.000  63.345
                          Isotropic Fermi Contact Couplings
        Atom                 a.u.       MegaHertz       Gauss      10(-4) cm-1
     1  C(13)             -0.00752      -4.22952      -1.50920      -1.41082
     2  C(13)             -0.01909     -10.72924      -3.82846      -3.57889
     3  H(1)               0.02100      46.92354      16.74349      15.65201
     4  H(1)               0.01612      36.03796      12.85924      12.02097
     5  H(1)               0.01612      36.03796      12.85924      12.02097
     6  C(13)              0.05186      29.15211      10.40220       9.72410
     7  C(13)              0.01645       9.24905       3.30029       3.08515
     8  C(13)              0.06898      38.77326      13.83526      12.93337
     9  H(1)               0.00210       4.68747       1.67261       1.56357
 --------------------------------------------------------
       Center         ----  Spin Dipole Couplings  ----
                      3XX-RR        3YY-RR        3ZZ-RR
 --------------------------------------------------------
     1   Atom       -0.243739     -0.198036      0.441774
     2   Atom        0.003854     -0.017972      0.014119
     3   Atom       -0.023104      0.037510     -0.014406
     4   Atom        0.006258     -0.001533     -0.004725
     5   Atom        0.006258     -0.001533     -0.004725
     6   Atom        0.788275     -0.515108     -0.273167
     7   Atom       -0.214688     -0.231808      0.446496
     8   Atom        0.069381     -0.006305     -0.063076
     9   Atom        0.000937      0.012165     -0.013102
 --------------------------------------------------------
                        XY            XZ            YZ
 --------------------------------------------------------
     1   Atom       -0.031122     -0.000000     -0.000000
     2   Atom        0.042277      0.000000      0.000000
     3   Atom        0.024995      0.000000      0.000000
     4   Atom        0.007105     -0.003921     -0.002435
     5   Atom        0.007105      0.003921      0.002435
     6   Atom        0.652414      0.000000      0.000000
     7   Atom       -0.032868     -0.000000     -0.000000
     8   Atom       -0.022106      0.000000      0.000000
     9   Atom       -0.004049      0.000000      0.000000
 --------------------------------------------------------


 ---------------------------------------------------------------------------------
              Anisotropic Spin Dipole Couplings in Principal Axis System
 ---------------------------------------------------------------------------------

       Atom             a.u.   MegaHertz   Gauss  10(-4) cm-1        Axes

              Baa    -0.2595   -34.822   -12.425   -11.615  0.8921  0.4517 -0.0000
     1 C(13)  Bbb    -0.1823   -24.460    -8.728    -8.159 -0.4517  0.8921 -0.0000
              Bcc     0.4418    59.282    21.153    19.774  0.0000  0.0000  1.0000
 
              Baa    -0.0507    -6.806    -2.429    -2.270 -0.6124  0.7906 -0.0000
     2 C(13)  Bbb     0.0141     1.895     0.676     0.632 -0.0000 -0.0000  1.0000
              Bcc     0.0366     4.912     1.753     1.638  0.7906  0.6124  0.0000
 
              Baa    -0.0321   -17.117    -6.108    -5.710  0.9411 -0.3380  0.0000
     3 H(1)   Bbb    -0.0144    -7.687    -2.743    -2.564  0.0000  0.0000  1.0000
              Bcc     0.0465    24.804     8.851     8.274  0.3380  0.9411 -0.0000
 
              Baa    -0.0060    -3.226    -1.151    -1.076  0.0715  0.3842  0.9205
     4 H(1)   Bbb    -0.0057    -3.047    -1.087    -1.016 -0.5564  0.7813 -0.2828
              Bcc     0.0118     6.273     2.238     2.092  0.8278  0.4920 -0.2696
 
              Baa    -0.0060    -3.226    -1.151    -1.076 -0.0715 -0.3842  0.9205
     5 H(1)   Bbb    -0.0057    -3.047    -1.087    -1.016 -0.5564  0.7813  0.2828
              Bcc     0.0118     6.273     2.238     2.092  0.8278  0.4920  0.2696
 
              Baa    -0.7856  -105.414   -37.614   -35.162 -0.3829  0.9238  0.0000
     6 C(13)  Bbb    -0.2732   -36.656   -13.080   -12.227 -0.0000 -0.0000  1.0000
              Bcc     1.0587   142.071    50.694    47.390  0.9238  0.3829  0.0000
 
              Baa    -0.2572   -34.515   -12.316   -11.513  0.6115  0.7912  0.0000
     7 C(13)  Bbb    -0.1893   -25.400    -9.063    -8.473  0.7912 -0.6115  0.0000
              Bcc     0.4465    59.916    21.379    19.986 -0.0000 -0.0000  1.0000
 
              Baa    -0.0631    -8.464    -3.020    -2.823 -0.0000 -0.0000  1.0000
     8 C(13)  Bbb    -0.0123    -1.649    -0.588    -0.550  0.2613  0.9653  0.0000
              Bcc     0.0754    10.113     3.609     3.373  0.9653 -0.2613  0.0000
 
              Baa    -0.0131    -6.991    -2.494    -2.332  0.0000  0.0000  1.0000
     9 H(1)   Bbb    -0.0004    -0.198    -0.071    -0.066  0.9516  0.3074  0.0000
              Bcc     0.0135     7.189     2.565     2.398 -0.3074  0.9516 -0.0000
 

 ---------------------------------------------------------------------------------

 No NMR shielding tensors so no spin-rotation constants.
 Leave Link  601 at Wed Jul 20 03:46:16 2016, MaxMem=    33554432 cpu:         1.0
 (Enter /home/proyectos/fulerenos/M3C-v2.0/M3C-deps_CCC/g09-AM64L-G09RevC.01/l701.exe)
 Compute integral second derivatives.
 ... and contract with generalized density number  0.
 Leave Link  701 at Wed Jul 20 03:46:17 2016, MaxMem=    33554432 cpu:         1.2
 (Enter /home/proyectos/fulerenos/M3C-v2.0/M3C-deps_CCC/g09-AM64L-G09RevC.01/l702.exe)
 L702 exits ... SP integral derivatives will be done elsewhere.
 Leave Link  702 at Wed Jul 20 03:46:18 2016, MaxMem=    33554432 cpu:         0.1
 (Enter /home/proyectos/fulerenos/M3C-v2.0/M3C-deps_CCC/g09-AM64L-G09RevC.01/l703.exe)
 Compute integral second derivatives, UseDBF=F ICtDFT=           0.
 Integral derivatives from FoFJK, PRISM(SPDF).
 Calling FoFJK, ICntrl=    100127 FMM=F ISym2X=1 I1Cent= 0 IOpClX= 1 NMat=1 NMatS=1 NMatT=0.
 FoFJK:  IHMeth= 1 ICntrl=  100127 DoSepK=F KAlg= 0 I1Cent=   0 FoldK=F
 IRaf=         0 NMat=   1 IRICut=       1 DoRegI=T DoRafI=F ISym2E= 1.
 FoFCou: FMM=F IPFlag=           0 FMFlag=      100000 FMFlg1=         800
         NFxFlg=           0 DoJE=F BraDBF=F KetDBF=F FulRan=T
         wScrn=  0.000000 ICntrl=  100127 IOpCl=  1 I1Cent=           0 NGrid=           0
         NMat0=    1 NMatS0=      1 NMatT0=    0 NMatD0=    1 NMtDS0=    0 NMtDT0=    0
 Petite list used in FoFCou.
 Leave Link  703 at Wed Jul 20 04:09:33 2016, MaxMem=    33554432 cpu:      1381.0
 (Enter /home/proyectos/fulerenos/M3C-v2.0/M3C-deps_CCC/g09-AM64L-G09RevC.01/l716.exe)
 Dipole        =-1.53409297D+00 9.63947444D-01 9.42456554D-16
 Polarizability= 1.01998421D+02 1.05401990D+01 6.69381231D+01
                -8.94972538D-07 1.88218550D-07 4.73600770D+01
 Full mass-weighted force constant matrix:
 Low frequencies ---  -12.2466   -6.0793   -5.6899   -0.0010   -0.0007   -0.0005
 Low frequencies ---  159.1621  174.1254  298.2958
 Diagonal vibrational polarizability:
       16.6259200       2.0275179      28.9839849
 Harmonic frequencies (cm**-1), IR intensities (KM/Mole), Raman scattering
 activities (A**4/AMU), depolarization ratios for plane and unpolarized
 incident light, reduced masses (AMU), force constants (mDyne/A),
 and normal coordinates:
                      1                      2                      3
                     A'                     A"                     A"
 Frequencies --    159.1621               174.1250               298.2958
 Red. masses --      4.9646                 2.9569                 1.7904
 Frc consts  --      0.0741                 0.0528                 0.0939
 IR Inten    --     10.0052                29.8324                 0.3909
  Atom  AN      X      Y      Z        X      Y      Z        X      Y      Z
     1   6     0.05   0.02  -0.00     0.00   0.00   0.31    -0.00  -0.00   0.05
     2   6    -0.32   0.15  -0.00    -0.00   0.00   0.10    -0.00   0.00  -0.07
     3   1    -0.13   0.16  -0.00    -0.00   0.00   0.58    -0.00  -0.00  -0.34
     4   1    -0.45   0.27  -0.00    -0.06   0.31   0.21    -0.46   0.01  -0.27
     5   1    -0.45   0.27   0.00     0.06  -0.31   0.21     0.46  -0.01  -0.27
     6   6     0.37   0.16   0.00     0.00   0.00  -0.20     0.00   0.00  -0.05
     7   6    -0.02  -0.17  -0.00    -0.00  -0.00  -0.10    -0.00   0.00   0.24
     8   6     0.01  -0.20   0.00     0.00  -0.00  -0.15    -0.00  -0.00  -0.06
     9   1    -0.07  -0.22   0.00    -0.00  -0.00  -0.46     0.00  -0.00  -0.50
                      4                      5                      6
                     A'                     A"                     A"
 Frequencies --    354.1152               434.2507               587.9759
 Red. masses --      7.1855                 1.2674                 1.3303
 Frc consts  --      0.5309                 0.1408                 0.2710
 IR Inten    --      7.0633                10.7308                 5.7523
  Atom  AN      X      Y      Z        X      Y      Z        X      Y      Z
     1   6    -0.09  -0.24  -0.00    -0.00  -0.00  -0.07    -0.00  -0.00  -0.10
     2   6     0.08  -0.11   0.00     0.00  -0.00  -0.00     0.00  -0.00   0.02
     3   1    -0.15  -0.18  -0.00    -0.00  -0.00   0.08    -0.00  -0.00   0.90
     4   1     0.24  -0.26   0.00    -0.42   0.55   0.05    -0.17  -0.09  -0.10
     5   1     0.24  -0.26  -0.00     0.42  -0.55   0.05     0.17   0.09  -0.10
     6   6     0.43  -0.04   0.00     0.00  -0.00  -0.01     0.00  -0.00   0.02
     7   6    -0.37   0.37  -0.00    -0.00   0.00  -0.06     0.00   0.00   0.08
     8   6    -0.09   0.06   0.00    -0.00   0.00   0.12    -0.00   0.00  -0.10
     9   1     0.31   0.18   0.00     0.00   0.00   0.10     0.00   0.00   0.27
                      7                      8                      9
                     A'                     A'                     A'
 Frequencies --    677.9983               875.0492               945.3791
 Red. masses --      6.6724                 1.3172                 3.9848
 Frc consts  --      1.8071                 0.5942                 2.0983
 IR Inten    --     16.9544                50.1358                10.4197
  Atom  AN      X      Y      Z        X      Y      Z        X      Y      Z
     1   6     0.37   0.22  -0.00    -0.00  -0.00  -0.00     0.20   0.10  -0.00
     2   6    -0.12  -0.17   0.00     0.11  -0.12   0.00    -0.16  -0.14  -0.00
     3   1     0.22   0.32   0.00    -0.00   0.00   0.00     0.57  -0.17   0.00
     4   1    -0.04  -0.29  -0.01    -0.49   0.49   0.00    -0.25  -0.19  -0.04
     5   1    -0.04  -0.29   0.01    -0.49   0.49  -0.00    -0.25  -0.19   0.04
     6   6    -0.18   0.06   0.00    -0.00   0.00   0.00     0.10  -0.18   0.00
     7   6    -0.34   0.16   0.00    -0.03   0.03  -0.00    -0.01  -0.09   0.00
     8   6     0.23  -0.24  -0.00     0.00   0.00  -0.00    -0.11   0.33   0.00
     9   1     0.35  -0.19   0.00     0.02   0.01   0.00    -0.33   0.28  -0.00
                     10                     11                     12
                     A"                     A"                     A'
 Frequencies --    950.8710               955.3716              1091.5147
 Red. masses --      1.3082                 1.5553                 2.1860
 Frc consts  --      0.6969                 0.8364                 1.5345
 IR Inten    --      7.2229                 6.3595                44.8673
  Atom  AN      X      Y      Z        X      Y      Z        X      Y      Z
     1   6     0.00   0.00   0.07     0.00   0.00   0.04    -0.09  -0.12   0.00
     2   6    -0.00  -0.00   0.09    -0.00  -0.00  -0.13    -0.10  -0.08  -0.00
     3   1     0.00  -0.00  -0.39     0.00  -0.00  -0.14     0.18  -0.31  -0.00
     4   1    -0.33  -0.13  -0.13     0.30   0.43   0.20    -0.17  -0.17  -0.06
     5   1     0.33   0.13  -0.13    -0.30  -0.43   0.20    -0.17  -0.17   0.06
     6   6     0.00  -0.00  -0.01     0.00  -0.00  -0.00    -0.05   0.17  -0.00
     7   6     0.00  -0.00  -0.06    -0.00  -0.00   0.14     0.03  -0.05   0.00
     8   6    -0.00   0.00  -0.10    -0.00   0.00  -0.11     0.15   0.11  -0.00
     9   1    -0.00   0.00   0.73    -0.00   0.00   0.54     0.75   0.29   0.00
                     13                     14                     15
                     A'                     A'                     A'
 Frequencies --   1204.9445              1363.5865              1408.2245
 Red. masses --      1.2841                 1.6680                 2.3076
 Frc consts  --      1.0984                 1.8273                 2.6962
 IR Inten    --      9.9000                 9.1001                30.7316
  Atom  AN      X      Y      Z        X      Y      Z        X      Y      Z
     1   6     0.03  -0.06  -0.00    -0.13   0.05   0.00    -0.19   0.23  -0.00
     2   6     0.02   0.02   0.00     0.01   0.01  -0.00    -0.03  -0.03  -0.00
     3   1     0.66  -0.55   0.00     0.01  -0.07  -0.00     0.54  -0.35  -0.00
     4   1     0.07   0.07   0.03    -0.31  -0.32  -0.26     0.24   0.23   0.22
     5   1     0.07   0.07  -0.03    -0.31  -0.32   0.26     0.24   0.23  -0.22
     6   6    -0.02   0.12   0.00     0.03  -0.05   0.00     0.07  -0.13   0.00
     7   6    -0.03   0.02  -0.00     0.02   0.06   0.00    -0.03  -0.02   0.00
     8   6    -0.04  -0.04   0.00     0.18   0.00   0.00     0.06  -0.06   0.00
     9   1    -0.43  -0.16   0.00    -0.59  -0.23   0.00     0.40   0.04   0.00
                     16                     17                     18
                     A'                     A'                     A'
 Frequencies --   1440.7663              1951.5324              3003.7034
 Red. masses --      1.5941                 9.8803                 1.0818
 Frc consts  --      1.9497                22.1703                 5.7507
 IR Inten    --     13.8061               190.7803                44.3172
  Atom  AN      X      Y      Z        X      Y      Z        X      Y      Z
     1   6    -0.01  -0.06   0.00    -0.01   0.01   0.00    -0.05  -0.06   0.00
     2   6    -0.09  -0.09  -0.00    -0.32  -0.30   0.00    -0.00  -0.00  -0.00
     3   1    -0.27   0.13  -0.00     0.05  -0.05  -0.00     0.60   0.79  -0.00
     4   1     0.31   0.30   0.35    -0.08  -0.08   0.26    -0.00  -0.00   0.00
     5   1     0.31   0.30  -0.35    -0.08  -0.08  -0.26    -0.00  -0.00  -0.00
     6   6    -0.01   0.02  -0.00    -0.01   0.01  -0.00     0.00  -0.00  -0.00
     7   6    -0.03  -0.00   0.00     0.53   0.51  -0.00     0.00   0.00   0.00
     8   6     0.15   0.09  -0.00    -0.19  -0.20  -0.00    -0.00   0.00  -0.00
     9   1    -0.48  -0.10   0.00     0.03  -0.15  -0.00     0.02  -0.07  -0.00
                     19                     20                     21
                     A'                     A'                     A"
 Frequencies --   3105.3392              3109.5872              3175.3751
 Red. masses --      1.0601                 1.0853                 1.1130
 Frc consts  --      6.0229                 6.1832                 6.6120
 IR Inten    --      5.6773                 7.0941                 1.9642
  Atom  AN      X      Y      Z        X      Y      Z        X      Y      Z
     1   6     0.00   0.00  -0.00    -0.01  -0.00  -0.00     0.00   0.00   0.00
     2   6     0.05   0.05  -0.00     0.01   0.01   0.00    -0.00  -0.00  -0.10
     3   1    -0.01  -0.01   0.00     0.04   0.05   0.00    -0.00  -0.00   0.00
     4   1    -0.25  -0.24   0.59    -0.06  -0.06   0.15    -0.27  -0.27   0.59
     5   1    -0.25  -0.24  -0.59    -0.06  -0.06  -0.15     0.27   0.27   0.59
     6   6    -0.00   0.00   0.00     0.00   0.00   0.00     0.00  -0.00  -0.00
     7   6    -0.01  -0.00  -0.00     0.00   0.00  -0.00    -0.00  -0.00  -0.00
     8   6    -0.01   0.02  -0.00     0.02  -0.08   0.00     0.00   0.00  -0.00
     9   1     0.07  -0.23   0.00    -0.28   0.92   0.00     0.00   0.00  -0.00

 -------------------
 - Thermochemistry -
 -------------------
 Temperature   298.150 Kelvin.  Pressure   1.00000 Atm.
 Atom     1 has atomic number  6 and mass  12.00000
 Atom     2 has atomic number  6 and mass  12.00000
 Atom     3 has atomic number  1 and mass   1.00783
 Atom     4 has atomic number  1 and mass   1.00783
 Atom     5 has atomic number  1 and mass   1.00783
 Atom     6 has atomic number  6 and mass  12.00000
 Atom     7 has atomic number  6 and mass  12.00000
 Atom     8 has atomic number  6 and mass  12.00000
 Atom     9 has atomic number  1 and mass   1.00783
 Molecular mass:    64.03130 amu.
 Principal axes and moments of inertia in atomic units:
                           1         2         3
     Eigenvalues --   127.47128 516.56168 631.66979
           X            0.97380  -0.22741   0.00000
           Y            0.22741   0.97380   0.00000
           Z            0.00000  -0.00000   1.00000
 This molecule is an asymmetric top.
 Rotational symmetry number  1.
 Rotational temperatures (Kelvin)      0.67948     0.16767     0.13712
 Rotational constants (GHZ):          14.15802     3.49376     2.85710
 Zero-point vibrational energy     163093.9 (Joules/Mol)
                                   38.98037 (Kcal/Mol)
 Warning -- explicit consideration of   6 degrees of freedom as
           vibrations may cause significant error
 Vibrational temperatures:    229.00   250.53   429.18   509.49   624.79
          (Kelvin)            845.97   975.49  1259.00  1360.19  1368.09
                             1374.56  1570.44  1733.64  1961.89  2026.12
                             2072.94  2807.82  4321.65  4467.88  4474.00
                             4568.65
 
 Zero-point correction=                           0.062119 (Hartree/Particle)
 Thermal correction to Energy=                    0.067785
 Thermal correction to Enthalpy=                  0.068729
 Thermal correction to Gibbs Free Energy=         0.032792
 Sum of electronic and zero-point Energies=           -192.671168
 Sum of electronic and thermal Energies=              -192.665502
 Sum of electronic and thermal Enthalpies=            -192.664558
 Sum of electronic and thermal Free Energies=         -192.700495
 
                     E (Thermal)             CV                S
                      KCal/Mol        Cal/Mol-Kelvin    Cal/Mol-Kelvin
 Total                   42.536             18.954             75.637
 Electronic               0.000              0.000              2.183
 Translational            0.889              2.981             38.389
 Rotational               0.889              2.981             25.234
 Vibrational             40.758             12.993              9.830
 Vibration     1          0.621              1.892              2.560
 Vibration     2          0.627              1.874              2.390
 Vibration     3          0.691              1.677              1.426
 Vibration     4          0.730              1.567              1.148
 Vibration     5          0.795              1.396              0.845
 Vibration     6          0.945              1.057              0.471
                       Q            Log10(Q)             Ln(Q)
 Total Bot       0.825961D-15        -15.083040        -34.729984
 Total V=0       0.308843D+14         13.489738         31.061269
 Vib (Bot)       0.187256D-27        -27.727564        -63.845075
 Vib (Bot)    1  0.127051D+01          0.103979          0.239421
 Vib (Bot)    2  0.115579D+01          0.062879          0.144783
 Vib (Bot)    3  0.638154D+00         -0.195074         -0.449175
 Vib (Bot)    4  0.519619D+00         -0.284315         -0.654660
 Vib (Bot)    5  0.399906D+00         -0.398042         -0.916526
 Vib (Bot)    6  0.257091D+00         -0.589913         -1.358326
 Vib (V=0)       0.700187D+01          0.845214          1.946177
 Vib (V=0)    1  0.186536D+01          0.270762          0.623453
 Vib (V=0)    2  0.175930D+01          0.245341          0.564919
 Vib (V=0)    3  0.131070D+01          0.117505          0.270564
 Vib (V=0)    4  0.122111D+01          0.086756          0.199763
 Vib (V=0)    5  0.114025D+01          0.057002          0.131251
 Vib (V=0)    6  0.106222D+01          0.026216          0.060365
 Electronic      0.300000D+01          0.477121          1.098612
 Translational   0.201393D+08          7.304044         16.818182
 Rotational      0.730060D+05          4.863359         11.198297
 
                                                              b3lyp opt
                                                             IR Spectrum
 
     3 33   3                                         1                    11 1     1    1                                           
     1 11   0                                         9                    44 3     2    0   999  8      6   5     4  3  2   11      
     7 10   0                                         5                    40 6     0    9   554  7      7   8     3  5  9   75      
     5 05   4                                         2                    18 4     5    2   515  5      8   8     4  4  8   49      
 
     X XX   X                                         X                    XX X     X    X   XXX  X      X   X     X  X  X   XX      
            X                                         X                     X            X        X      X                   X       
            X                                         X                     X            X        X                          X       
            X                                         X                                  X        X                                  
            X                                         X                                  X        X                                  
                                                      X                                                                              
                                                      X                                                                              
                                                      X                                                                              
                                                      X                                                                              
                                                      X                                                                              
                                                      X                                                                              
                                                      X                                                                              
                                                      X                                                                              
                                                      X                                                                              
                                                      X                                                                              
                                                      X                                                                              
                                                      X                                                                              
                                                      X                                                                              
                                                      X                                                                              
                                                      X                                                                              
 
 ***** Axes restored to original set *****
 -------------------------------------------------------------------
 Center     Atomic                   Forces (Hartrees/Bohr)
 Number     Number              X              Y              Z
 -------------------------------------------------------------------
      1        6           0.000006705    0.000016166    0.000000021
      2        6          -0.000112576   -0.000186509   -0.000000260
      3        1          -0.000001336   -0.000010922   -0.000000013
      4        1           0.000039344    0.000069551   -0.000004661
      5        1           0.000039340    0.000069540    0.000004853
      6        6          -0.000001871   -0.000006398   -0.000000008
      7        6           0.000013147    0.000048461    0.000000061
      8        6           0.000009622   -0.000014096   -0.000000012
      9        1           0.000007625    0.000014206    0.000000019
 -------------------------------------------------------------------
 Cartesian Forces:  Max     0.000186509 RMS     0.000048617
 Z-matrix is all fixed cartesians, so copy forces.
 Force constants in Cartesian coordinates: 
                1             2             3             4             5 
      1  0.530239D+00
      2 -0.159796D-02  0.570694D+00
      3  0.197012D-03  0.595450D-03  0.500662D-01
      4  0.664172D-02 -0.973276D-03 -0.146462D-05  0.712690D+00
      5 -0.418219D-02 -0.251772D-02 -0.131647D-04 -0.324825D+00  0.259260D+00
      6 -0.512940D-05 -0.118347D-04  0.746718D-02 -0.308292D-03 -0.477759D-03
      7 -0.207137D+00  0.105844D+00  0.441943D-04  0.217123D-03  0.354614D-03
      8  0.129221D+00 -0.132482D+00 -0.739023D-04 -0.260613D-03  0.260891D-03
      9  0.709609D-04 -0.835812D-04 -0.212033D-01  0.115119D-05  0.419464D-05
     10 -0.792427D-03 -0.161077D-02 -0.132755D-02 -0.965733D-01  0.365971D-01
     11  0.905235D-03  0.264756D-03 -0.241968D-03  0.366635D-01 -0.490581D-01
     12  0.799680D-03  0.377813D-03  0.596370D-04  0.107500D+00 -0.580954D-01
     13 -0.792862D-03 -0.161349D-02  0.132315D-02 -0.963925D-01  0.368028D-01
     14  0.906864D-03  0.265066D-03  0.243188D-03  0.368593D-01 -0.493303D-01
     15 -0.798311D-03 -0.378679D-03  0.597644D-04 -0.107288D+00  0.585876D-01
     16 -0.424917D-01 -0.259198D-01 -0.436045D-04 -0.624008D-04 -0.272518D-02
     17 -0.283297D-01 -0.311768D+00 -0.358556D-03  0.360311D-02 -0.208252D-02
     18 -0.463638D-04 -0.357559D-03 -0.885991D-02  0.436600D-05 -0.278362D-05
     19 -0.662854D-01  0.492234D-02 -0.181712D-04 -0.505826D+00  0.241005D+00
     20  0.928096D-02  0.188519D-01  0.354807D-04  0.241080D+00 -0.160313D+00
     21 -0.131885D-04  0.336740D-04 -0.877815D-02  0.977383D-04  0.243332D-05
     22 -0.220050D+00 -0.490819D-01 -0.132284D-03 -0.202238D-01  0.179060D-01
     23 -0.106573D+00 -0.132320D+00 -0.154065D-03  0.102763D-01  0.280910D-02
     24 -0.198112D-03 -0.130254D-03 -0.363121D-01 -0.156785D-05 -0.308441D-05
     25  0.668439D-03 -0.299695D-01 -0.412845D-04 -0.470935D-03 -0.933424D-03
     26  0.368900D-03 -0.109874D-01 -0.324636D-04 -0.242400D-02  0.971406D-03
     27 -0.654797D-05 -0.450290D-04  0.175007D-01 -0.397423D-05 -0.205315D-05
                6             7             8             9            10 
      6  0.559043D+00
      7  0.185180D-05  0.227209D+00
      8  0.393962D-05 -0.126361D+00  0.147822D+00
      9 -0.327411D-02 -0.559032D-04  0.102248D-03  0.128208D-01
     10  0.111013D+00  0.318302D-05  0.434742D-05  0.901592D-03  0.103197D+00
     11 -0.602896D-01  0.157732D-03  0.342799D-04  0.778841D-03 -0.478119D-01
     12 -0.250911D+00 -0.320859D-05 -0.105254D-05  0.403425D-04 -0.119268D+00
     13 -0.110801D+00  0.392693D-05  0.641121D-05 -0.901610D-03  0.928844D-02
     14  0.607819D-01  0.158369D-03  0.360608D-04 -0.778719D-03 -0.100367D-02
     15 -0.250820D+00  0.354108D-05  0.104809D-05  0.378164D-04 -0.114850D-01
     16 -0.288249D-05  0.687752D-02  0.142825D-01  0.179135D-04  0.108579D-03
     17  0.000000D+00  0.486973D-02 -0.252617D-01 -0.304678D-04  0.597507D-03
     18 -0.636949D-03  0.713628D-05 -0.265691D-04  0.310895D-02  0.594655D-03
     19  0.976549D-04 -0.585741D-02 -0.298938D-02 -0.967529D-05 -0.185587D-01
     20  0.246454D-05 -0.270119D-02 -0.385525D-03 -0.121383D-04  0.115962D-01
     21 -0.752747D-01 -0.934353D-05 -0.122564D-04  0.923752D-02  0.210231D-01
     22  0.716351D-05 -0.223548D-01 -0.147843D-01 -0.285672D-04  0.345107D-02
     23 -0.624462D-05  0.174129D-01  0.883629D-02  0.107481D-04  0.156494D-02
     24  0.119795D-01  0.830006D-05 -0.258592D-05  0.574809D-02  0.656534D-03
     25 -0.226902D-05  0.103851D-02  0.881666D-03  0.413766D-05 -0.123506D-03
     26 -0.267050D-05  0.265000D-03  0.113902D-02  0.887407D-05  0.662939D-04
     27  0.242698D-02  0.343180D-05  0.913024D-05 -0.651608D-02 -0.210835D-02
               11            12            13            14            15 
     11  0.406063D-01
     12  0.645486D-01  0.265034D+00
     13 -0.103521D-02  0.115043D-01  0.102999D+00
     14  0.798124D-02 -0.627514D-02 -0.480311D-01  0.409032D-01
     15  0.633130D-02 -0.169119D-01  0.119024D+00 -0.651017D-01  0.264934D+00
     16  0.114736D-03  0.111336D-04  0.109079D-03  0.115553D-03 -0.106678D-04
     17 -0.245725D-03  0.159016D-03  0.598998D-03 -0.243171D-03 -0.158771D-03
     18  0.956403D-03 -0.133583D-03 -0.593083D-03 -0.956558D-03 -0.136639D-03
     19  0.113579D-01  0.286053D-02 -0.185389D-01  0.113549D-01 -0.285313D-02
     20 -0.291966D-02 -0.148726D-02  0.116431D-01 -0.294951D-02  0.148120D-02
     21 -0.115530D-01  0.390674D-02 -0.210151D-01  0.115467D-01  0.391681D-02
     22  0.102803D-03 -0.332348D-02  0.344885D-02  0.975983D-04  0.332741D-02
     23  0.319116D-02  0.783207D-03  0.156708D-02  0.319961D-02 -0.772250D-03
     24  0.291517D-02 -0.102005D-02 -0.649243D-03 -0.290542D-02 -0.102628D-02
     25 -0.454759D-03 -0.816594D-04 -0.125319D-03 -0.457799D-03  0.805600D-04
     26  0.145718D-03 -0.979930D-05  0.614574D-04  0.137804D-03  0.103110D-04
     27 -0.344566D-02 -0.634460D-04  0.210844D-02  0.344575D-02 -0.537193D-04
               16            17            18            19            20 
     16  0.376857D-01
     17  0.356796D-01  0.355242D+00
     18  0.549290D-04  0.417293D-03  0.369301D-02
     19 -0.516766D-02 -0.980564D-02 -0.140551D-04  0.955945D+00
     20  0.376959D-02  0.775920D-02  0.854737D-05 -0.441681D+00  0.335814D+00
     21  0.149035D-05  0.292689D-05  0.165700D-02 -0.153709D-03  0.803541D-04
     22  0.584346D-02 -0.628521D-02 -0.534754D-05 -0.331863D+00  0.134271D+00
     23 -0.224650D-01 -0.221601D-01 -0.362501D-04  0.178349D+00 -0.181804D+00
     24 -0.238722D-04 -0.295522D-04  0.137636D-02  0.857668D-04 -0.100059D-03
     25 -0.290258D-02 -0.928395D-03 -0.223685D-05 -0.384891D-02  0.327411D-01
     26 -0.285208D-02 -0.123985D-02 -0.252322D-05  0.748735D-02 -0.140538D-01
     27 -0.443935D-05 -0.172626D-05 -0.682313D-04  0.478547D-05 -0.859532D-05
               21            22            23            24            25 
     21  0.105894D+00
     22  0.353042D-04  0.633160D+00
     23 -0.818074D-04 -0.766722D-01  0.636005D+00
     24 -0.458534D-01  0.130638D-03  0.575448D-03  0.105695D+00
     25  0.337019D-04 -0.514120D-01 -0.345993D-02 -0.844441D-05  0.571763D-01
     26 -0.190523D-04 -0.555401D-02 -0.317757D+00 -0.319656D-03  0.258110D-02
     27  0.529424D-02 -0.108420D-04 -0.318787D-03 -0.405870D-01  0.174945D-04
               26            27 
     26  0.341644D+00
     27  0.366979D-03  0.220665D-01
 Leave Link  716 at Wed Jul 20 04:09:33 2016, MaxMem=    33554432 cpu:         0.1
 (Enter /home/proyectos/fulerenos/M3C-v2.0/M3C-deps_CCC/g09-AM64L-G09RevC.01/l103.exe)

 GradGradGradGradGradGradGradGradGradGradGradGradGradGradGradGradGradGrad
 Berny optimization.
 Search for a local minimum.
 Step number   1 out of a maximum of    2
 All quantities printed in internal units (Hartrees-Bohrs-Radians)
 Second derivative matrix not updated -- analytic derivatives used.
 ITU=  0
     Eigenvalues ---    0.00361   0.00527   0.00706   0.01240   0.03420
     Eigenvalues ---    0.03607   0.06311   0.06797   0.09214   0.11815
     Eigenvalues ---    0.12114   0.16911   0.17823   0.22890   0.37243
     Eigenvalues ---    0.58558   0.77570   0.80529   0.88226   0.93086
     Eigenvalues ---    1.79305
 Angle between quadratic step and forces=  44.96 degrees.
 ClnCor:  largest displacement from symmetrization is 1.48D-10 for atom     5.
 Linear search not attempted -- first point.
 ClnCor:  largest displacement from symmetrization is 4.46D-15 for atom     3.
 B after Tr=    -0.000187   -0.000198   -0.000000
         Rot=    1.000000   -0.000000   -0.000000    0.000038 Ang=  -0.00 deg.
 Variable       Old X    -DE/DX   Delta X   Delta X   Delta X     New X
                                 (Linear)    (Quad)   (Total)
    X1       -2.84895   0.00001   0.00000  -0.00009  -0.00025  -2.84920
    Y1        0.38234   0.00002   0.00000   0.00012   0.00013   0.38247
    Z1       -0.00135   0.00000   0.00000   0.00000   0.00000  -0.00135
    X2        3.92424  -0.00011   0.00000  -0.00050  -0.00073   3.92351
    Y2       -0.67523  -0.00019   0.00000  -0.00114  -0.00163  -0.67686
    Z2        0.00024  -0.00000   0.00000  -0.00000  -0.00000   0.00024
    X3       -4.49689  -0.00000   0.00000  -0.00003  -0.00010  -4.49699
    Y3        1.63493  -0.00001   0.00000   0.00016   0.00030   1.63523
    Z3       -0.00060  -0.00000   0.00000   0.00000   0.00000  -0.00060
    X4        4.86090   0.00004   0.00000   0.00107   0.00079   4.86169
    Y4       -1.18394   0.00007   0.00000   0.00175   0.00119  -1.18276
    Z4       -1.75118  -0.00000   0.00000  -0.00002  -0.00002  -1.75120
    X5        4.85945   0.00004   0.00000   0.00107   0.00079   4.86024
    Y5       -1.18796   0.00007   0.00000   0.00175   0.00119  -1.18677
    Z5        1.75127   0.00000   0.00000   0.00002   0.00002   1.75129
    X6       -3.15678  -0.00000   0.00000  -0.00042  -0.00078  -3.15756
    Y6       -2.26700  -0.00001   0.00000   0.00013   0.00017  -2.26684
    Z6       -0.00451  -0.00000   0.00000  -0.00000  -0.00000  -0.00451
    X7        1.75735   0.00001   0.00000  -0.00008  -0.00024   1.75711
    Y7        0.43637   0.00005   0.00000  -0.00037  -0.00070   0.43567
    Z7        0.00062   0.00000   0.00000  -0.00000  -0.00000   0.00061
    X8       -0.47138   0.00001   0.00000   0.00005  -0.00001  -0.47140
    Y8        1.63399  -0.00001   0.00000  -0.00018  -0.00034   1.63365
    Z8        0.00106  -0.00000   0.00000  -0.00000  -0.00000   0.00106
    X9       -0.43406   0.00001   0.00000   0.00044   0.00053  -0.43353
    Y9        3.68873   0.00001   0.00000  -0.00014  -0.00030   3.68843
    Z9        0.00343   0.00000   0.00000   0.00000  -0.00000   0.00343
         Item               Value     Threshold  Converged?
 Maximum Force            0.000187     0.000450     YES
 RMS     Force            0.000049     0.000300     YES
 Maximum Displacement     0.001635     0.001800     YES
 RMS     Displacement     0.000581     0.001200     YES
 Predicted change in Energy=-2.895686D-07
 Optimization completed.
    -- Stationary point found.
 GradGradGradGradGradGradGradGradGradGradGradGradGradGradGradGradGradGrad

 Leave Link  103 at Wed Jul 20 04:09:34 2016, MaxMem=    33554432 cpu:         0.0
 (Enter /home/proyectos/fulerenos/M3C-v2.0/M3C-deps_CCC/g09-AM64L-G09RevC.01/l9999.exe)
 1\1\GINC-CALIFORNIO\Freq\UB3LYP\6-311++G(3df,2p)\C5H4(3)\ROOT\20-Jul-2
 016\0\\#p b3lyp/6-311++G(3df,2p) freq symmetry=Loose\\b3lyp opt\\0,3\C
 ,-1.507598837,0.202324451,-0.0007162953\C,2.076617987,-0.357316036,0.0
 001271598\H,-2.379653657,0.865169947,-0.0003184688\H,2.572277335,-0.62
 6516707,-0.926685685\H,2.57150983,-0.6286388377,0.9267313044\C,-1.6704
 96561,-1.199646786,-0.0023889848\C,0.929948764,0.230917348,0.000325838
 1\C,-0.249445333,0.86467108,0.000563085\H,-0.229694757,1.951991908,0.0
 018162275\\Version=EM64L-G09RevE.01\State=3-A"\HF=-192.7332869\S2=2.01
 6282\S2-1=0.\S2A=2.000105\RMSD=2.385e-09\RMSF=4.862e-05\ZeroPoint=0.06
 21192\Thermal=0.0677848\Dipole=1.206335,1.351809,0.0020473\DipoleDeriv
 =0.6247811,-0.1033253,-0.0001213,-0.7045101,-0.3979135,-0.0014709,-0.0
 008097,-0.001222,0.631911,-0.6593409,-0.0260437,-0.0003191,0.1716642,-
 0.1812181,-0.0001817,-0.0000928,-0.0002635,0.039527,-0.0502604,0.13466
 95,0.0001512,0.0790604,-0.1030194,-0.000036,0.0000875,-0.000013,-0.042
 9358,0.0758034,0.022365,0.0214508,0.0512348,0.1471914,0.0306992,0.0013
 259,-0.0102574,0.0459113,0.0758222,0.0224054,-0.0213747,0.051263,0.147
 2377,-0.0304247,-0.0011837,0.010508,0.0458463,-0.4643864,0.0520405,0.0
 001197,0.6549382,0.2886147,0.0012997,0.0008101,0.0010501,-0.6096793,1.
 0603135,-0.1116321,0.0002816,-0.6121091,-0.060603,-0.0004047,-0.000291
 4,-0.0001975,0.071459,-0.6787526,-0.0005798,-0.0001872,0.2971359,0.214
 2405,0.0006299,0.0001537,0.0005066,-0.2283787,0.0160199,0.0101005,-0.0
 00001,0.0113227,-0.0545304,-0.0001108,0.0000004,-0.0001113,0.0463392\P
 olar=104.9186045,0.4305809,64.0179077,0.0243273,0.0192508,47.3601091\P
 G=CS [SG(C5H2),X(H2)]\NImag=0\\0.53023929,-0.00159796,0.57069351,0.000
 19701,0.00059545,0.05006620,0.00664172,-0.00097328,-0.00000146,0.71268
 986,-0.00418219,-0.00251772,-0.00001316,-0.32482474,0.25926031,-0.0000
 0513,-0.00001183,0.00746718,-0.00030829,-0.00047776,0.55904346,-0.2071
 3663,0.10584433,0.00004419,0.00021712,0.00035461,0.00000185,0.22720855
 ,0.12922088,-0.13248158,-0.00007390,-0.00026061,0.00026089,0.00000394,
 -0.12636145,0.14782227,0.00007096,-0.00008358,-0.02120330,0.00000115,0
 .00000419,-0.00327411,-0.00005590,0.00010225,0.01282078,-0.00079243,-0
 .00161077,-0.00132755,-0.09657333,0.03659711,0.11101269,0.00000318,0.0
 0000435,0.00090159,0.10319670,0.00090524,0.00026476,-0.00024197,0.0366
 6348,-0.04905806,-0.06028964,0.00015773,0.00003428,0.00077884,-0.04781
 195,0.04060630,0.00079968,0.00037781,0.00005964,0.10750041,-0.05809536
 ,-0.25091139,-0.00000321,-0.00000105,0.00004034,-0.11926773,0.06454856
 ,0.26503367,-0.00079286,-0.00161349,0.00132315,-0.09639254,0.03680276,
 -0.11080079,0.00000393,0.00000641,-0.00090161,0.00928844,-0.00103521,0
 .01150432,0.10299934,0.00090686,0.00026507,0.00024319,0.03685927,-0.04
 933029,0.06078191,0.00015837,0.00003606,-0.00077872,-0.00100367,0.0079
 8124,-0.00627514,-0.04803110,0.04090319,-0.00079831,-0.00037868,0.0000
 5976,-0.10728836,0.05858757,-0.25081996,0.00000354,0.00000105,0.000037
 82,-0.01148495,0.00633130,-0.01691192,0.11902391,-0.06510173,0.2649341
 3,-0.04249172,-0.02591976,-0.00004360,-0.00006240,-0.00272518,-0.00000
 288,0.00687752,0.01428249,0.00001791,0.00010858,0.00011474,0.00001113,
 0.00010908,0.00011555,-0.00001067,0.03768572,-0.02832971,-0.31176834,-
 0.00035856,0.00360311,-0.00208252,-0.00000016,0.00486973,-0.02526171,-
 0.00003047,0.00059751,-0.00024573,0.00015902,0.00059900,-0.00024317,-0
 .00015877,0.03567960,0.35524223,-0.00004636,-0.00035756,-0.00885991,0.
 00000437,-0.00000278,-0.00063695,0.00000714,-0.00002657,0.00310895,0.0
 0059465,0.00095640,-0.00013358,-0.00059308,-0.00095656,-0.00013664,0.0
 0005493,0.00041729,0.00369301,-0.06628541,0.00492234,-0.00001817,-0.50
 582574,0.24100501,0.00009765,-0.00585741,-0.00298938,-0.00000968,-0.01
 855870,0.01135794,0.00286053,-0.01853892,0.01135492,-0.00285313,-0.005
 16766,-0.00980564,-0.00001406,0.95594538,0.00928096,0.01885191,0.00003
 548,0.24108045,-0.16031312,0.00000246,-0.00270119,-0.00038553,-0.00001
 214,0.01159619,-0.00291966,-0.00148726,0.01164310,-0.00294951,0.001481
 20,0.00376959,0.00775920,0.00000855,-0.44168139,0.33581445,-0.00001319
 ,0.00003367,-0.00877815,0.00009774,0.00000243,-0.07527471,-0.00000934,
 -0.00001226,0.00923752,0.02102310,-0.01155300,0.00390674,-0.02101510,0
 .01154673,0.00391681,0.00000149,0.00000293,0.00165700,-0.00015371,0.00
 008035,0.10589391,-0.22005040,-0.04908190,-0.00013228,-0.02022376,0.01
 790605,0.00000716,-0.02235476,-0.01478434,-0.00002857,0.00345107,0.000
 10280,-0.00332348,0.00344885,0.00009760,0.00332741,0.00584346,-0.00628
 521,-0.00000535,-0.33186263,0.13427123,0.00003530,0.63316022,-0.106572
 97,-0.13232022,-0.00015406,0.01027632,0.00280910,-0.00000624,0.0174128
 6,0.00883629,0.00001075,0.00156494,0.00319116,0.00078321,0.00156708,0.
 00319961,-0.00077225,-0.02246495,-0.02216012,-0.00003625,0.17834885,-0
 .18180391,-0.00008181,-0.07667221,0.63600467,-0.00019811,-0.00013025,-
 0.03631211,-0.00000157,-0.00000308,0.01197950,0.00000830,-0.00000259,0
 .00574809,0.00065653,0.00291517,-0.00102005,-0.00064924,-0.00290542,-0
 .00102628,-0.00002387,-0.00002955,0.00137636,0.00008577,-0.00010006,-0
 .04585336,0.00013064,0.00057545,0.10569483,0.00066844,-0.02996952,-0.0
 0004128,-0.00047093,-0.00093342,-0.00000227,0.00103851,0.00088167,0.00
 000414,-0.00012351,-0.00045476,-0.00008166,-0.00012532,-0.00045780,0.0
 0008056,-0.00290258,-0.00092839,-0.00000224,-0.00384891,0.03274106,0.0
 0003370,-0.05141204,-0.00345993,-0.00000844,0.05717634,0.00036890,-0.0
 1098740,-0.00003246,-0.00242400,0.00097141,-0.00000267,0.00026500,0.00
 113902,0.00000887,0.00006629,0.00014572,-0.00000980,0.00006146,0.00013
 780,0.00001031,-0.00285208,-0.00123985,-0.00000252,0.00748735,-0.01405
 384,-0.00001905,-0.00555401,-0.31775658,-0.00031966,0.00258110,0.34164
 373,-0.00000655,-0.00004503,0.01750070,-0.00000397,-0.00000205,0.00242
 698,0.00000343,0.00000913,-0.00651608,-0.00210835,-0.00344566,-0.00006
 345,0.00210844,0.00344575,-0.00005372,-0.00000444,-0.00000173,-0.00006
 823,0.00000479,-0.00000860,0.00529424,-0.00001084,-0.00031879,-0.04058
 697,0.00001749,0.00036698,0.02206653\\-0.00000671,-0.00001617,-0.00000
 002,0.00011258,0.00018651,0.00000026,0.00000134,0.00001092,0.00000001,
 -0.00003934,-0.00006955,0.00000466,-0.00003934,-0.00006954,-0.00000485
 ,0.00000187,0.00000640,0.,-0.00001315,-0.00004846,-0.00000006,-0.00000
 962,0.00001410,0.00000001,-0.00000763,-0.00001421,-0.00000002\\\@


 NATURE GIVES TO EVERY TIME AND SEASON SOME BEAUTY OF ITS OWN.

                                                    --DICKENS
 Job cpu time:       0 days  1 hours 26 minutes 21.1 seconds.
 File lengths (MBytes):  RWF=     79 Int=      0 D2E=      0 Chk=      5 Scr=      1
 Normal termination of Gaussian 09 at Wed Jul 20 04:09:34 2016.
