 Entering Gaussian System, Link 0=/home/proyectos/fulerenos/M3C-v1.9/M3C-deps_CCC/g09-AM64L-G09RevC.01/g09
 Initial command:
 /home/proyectos/fulerenos/M3C-v1.9/M3C-deps_CCC/g09-AM64L-G09RevC.01/l1.exe "/scratch/naguirre/gaussian/Gau-7614.inp" -scrdir="/scratch/naguirre/gaussian/"
 Entering Link 1 = /home/proyectos/fulerenos/M3C-v1.9/M3C-deps_CCC/g09-AM64L-G09RevC.01/l1.exe PID=      7622.
  
 Copyright (c) 1988,1990,1992,1993,1995,1998,2003,2009,2015,
            Gaussian, Inc.  All Rights Reserved.
  
 This is part of the Gaussian(R) 09 program.  It is based on
 the Gaussian(R) 03 system (copyright 2003, Gaussian, Inc.),
 the Gaussian(R) 98 system (copyright 1998, Gaussian, Inc.),
 the Gaussian(R) 94 system (copyright 1995, Gaussian, Inc.),
 the Gaussian 92(TM) system (copyright 1992, Gaussian, Inc.),
 the Gaussian 90(TM) system (copyright 1990, Gaussian, Inc.),
 the Gaussian 88(TM) system (copyright 1988, Gaussian, Inc.),
 the Gaussian 86(TM) system (copyright 1986, Carnegie Mellon
 University), and the Gaussian 82(TM) system (copyright 1983,
 Carnegie Mellon University). Gaussian is a federally registered
 trademark of Gaussian, Inc.
  
 This software contains proprietary and confidential information,
 including trade secrets, belonging to Gaussian, Inc.
  
 This software is provided under written license and may be
 used, copied, transmitted, or stored only in accord with that
 written license.
  
 The following legend is applicable only to US Government
 contracts under FAR:
  
                    RESTRICTED RIGHTS LEGEND
  
 Use, reproduction and disclosure by the US Government is
 subject to restrictions as set forth in subparagraphs (a)
 and (c) of the Commercial Computer Software - Restricted
 Rights clause in FAR 52.227-19.
  
 Gaussian, Inc.
 340 Quinnipiac St., Bldg. 40, Wallingford CT 06492
  
  
 ---------------------------------------------------------------
 Warning -- This program may not be used in any manner that
 competes with the business of Gaussian, Inc. or will provide
 assistance to any competitor of Gaussian, Inc.  The licensee
 of this program is prohibited from giving any competitor of
 Gaussian, Inc. access to this program.  By using this program,
 the user acknowledges that Gaussian, Inc. is engaged in the
 business of creating and licensing software in the field of
 computational chemistry and represents and warrants to the
 licensee that it is not a competitor of Gaussian, Inc. and that
 it will not use this program in any manner prohibited above.
 ---------------------------------------------------------------
  

 Cite this work as:
 Gaussian 09, Revision E.01,
 M. J. Frisch, G. W. Trucks, H. B. Schlegel, G. E. Scuseria, 
 M. A. Robb, J. R. Cheeseman, G. Scalmani, V. Barone, B. Mennucci, 
 G. A. Petersson, H. Nakatsuji, M. Caricato, X. Li, H. P. Hratchian, 
 A. F. Izmaylov, J. Bloino, G. Zheng, J. L. Sonnenberg, M. Hada, 
 M. Ehara, K. Toyota, R. Fukuda, J. Hasegawa, M. Ishida, T. Nakajima, 
 Y. Honda, O. Kitao, H. Nakai, T. Vreven, J. A. Montgomery, Jr., 
 J. E. Peralta, F. Ogliaro, M. Bearpark, J. J. Heyd, E. Brothers, 
 K. N. Kudin, V. N. Staroverov, T. Keith, R. Kobayashi, J. Normand, 
 K. Raghavachari, A. Rendell, J. C. Burant, S. S. Iyengar, J. Tomasi, 
 M. Cossi, N. Rega, J. M. Millam, M. Klene, J. E. Knox, J. B. Cross, 
 V. Bakken, C. Adamo, J. Jaramillo, R. Gomperts, R. E. Stratmann, 
 O. Yazyev, A. J. Austin, R. Cammi, C. Pomelli, J. W. Ochterski, 
 R. L. Martin, K. Morokuma, V. G. Zakrzewski, G. A. Voth, 
 P. Salvador, J. J. Dannenberg, S. Dapprich, A. D. Daniels, 
 O. Farkas, J. B. Foresman, J. V. Ortiz, J. Cioslowski, 
 and D. J. Fox, Gaussian, Inc., Wallingford CT, 2013.
 
 ******************************************
 Gaussian 09:  EM64L-G09RevE.01 30-Nov-2015
                20-Jun-2016 
 ******************************************
 %NProcShared=4
 Will use up to    4 processors via shared memory.
 ---------------------------------------------
 #p b3lyp/6-311++G(3df,2p) freq symmetry=Loose
 ---------------------------------------------
 1/10=4,30=1,38=1/1,3;
 2/12=2,17=4,18=3,40=1/2;
 3/5=4,6=6,7=1216,11=2,16=1,25=1,30=1,71=2,74=-5,140=1/1,2,3;
 4//1;
 5/5=2,38=5,98=1/2;
 8/6=4,10=90,11=11/1;
 11/6=1,8=1,9=11,15=111,16=1/1,2,10;
 10/6=1/2;
 6/7=2,8=2,9=2,10=2,18=1,28=1/1;
 7/8=1,10=1,25=1/1,2,3,16;
 1/10=4,30=1/3;
 99//99;
 Leave Link    1 at Mon Jun 20 08:59:49 2016, MaxMem=           0 cpu:         0.3
 (Enter /home/proyectos/fulerenos/M3C-v1.9/M3C-deps_CCC/g09-AM64L-G09RevC.01/l101.exe)
 ---------
 b3lyp opt
 ---------
 Symbolic Z-matrix:
 Charge =  2 Multiplicity = 3
 C                    -1.19432   0.07043  -0.01435 
 C                     1.29269  -0.22832   0.18831 
 H                     1.33594  -1.10916   0.8941 
 C                     2.46169  -0.32043  -0.29263 
 C                     0.0888    0.69606   0.05599 
 H                     0.08625   1.39378   0.92151 
 H                     0.20153   1.36732  -0.81534 
 C                    -2.35812  -0.36686  -0.07976 
 H                    -3.36937  -0.75331  -0.14326 
 
 NAtoms=      9 NQM=        9 NQMF=       0 NMMI=      0 NMMIF=      0
                NMic=       0 NMicF=      0.
                    Isotopes and Nuclear Properties:
 (Nuclear quadrupole moments (NQMom) in fm**2, nuclear magnetic moments (NMagM)
  in nuclear magnetons)

  Atom         1           2           3           4           5           6           7           8           9
 IAtWgt=          12          12           1          12          12           1           1          12           1
 AtmWgt=  12.0000000  12.0000000   1.0078250  12.0000000  12.0000000   1.0078250   1.0078250  12.0000000   1.0078250
 NucSpn=           0           0           1           0           0           1           1           0           1
 AtZEff=   0.0000000   0.0000000   0.0000000   0.0000000   0.0000000   0.0000000   0.0000000   0.0000000   0.0000000
 NQMom=    0.0000000   0.0000000   0.0000000   0.0000000   0.0000000   0.0000000   0.0000000   0.0000000   0.0000000
 NMagM=    0.0000000   0.0000000   2.7928460   0.0000000   0.0000000   2.7928460   2.7928460   0.0000000   2.7928460
 AtZNuc=   6.0000000   6.0000000   1.0000000   6.0000000   6.0000000   1.0000000   1.0000000   6.0000000   1.0000000
 Leave Link  101 at Mon Jun 20 08:59:49 2016, MaxMem=    33554432 cpu:         0.2
 (Enter /home/proyectos/fulerenos/M3C-v1.9/M3C-deps_CCC/g09-AM64L-G09RevC.01/l103.exe)

 GradGradGradGradGradGradGradGradGradGradGradGradGradGradGradGradGradGrad
 Berny optimization.
 Initialization pass.
 Trust Radius=3.00D-01 FncErr=1.00D-07 GrdErr=1.00D-07
 Number of steps in this run=      2 maximum allowed number of steps=      2.
 GradGradGradGradGradGradGradGradGradGradGradGradGradGradGradGradGradGrad

 Leave Link  103 at Mon Jun 20 08:59:49 2016, MaxMem=    33554432 cpu:         0.0
 (Enter /home/proyectos/fulerenos/M3C-v1.9/M3C-deps_CCC/g09-AM64L-G09RevC.01/l202.exe)
                          Input orientation:                          
 ---------------------------------------------------------------------
 Center     Atomic      Atomic             Coordinates (Angstroms)
 Number     Number       Type             X           Y           Z
 ---------------------------------------------------------------------
      1          6           0       -1.194317    0.070428   -0.014351
      2          6           0        1.292686   -0.228322    0.188311
      3          1           0        1.335942   -1.109156    0.894104
      4          6           0        2.461691   -0.320434   -0.292628
      5          6           0        0.088801    0.696057    0.055988
      6          1           0        0.086252    1.393780    0.921512
      7          1           0        0.201525    1.367315   -0.815338
      8          6           0       -2.358117   -0.366863   -0.079756
      9          1           0       -3.369372   -0.753308   -0.143255
 ---------------------------------------------------------------------
                    Distance matrix (angstroms):
                    1          2          3          4          5
     1  C    0.000000
     2  C    2.513067   0.000000
     3  H    2.935800   1.129550   0.000000
     4  C    3.687358   1.267422   1.815964   0.000000
     5  C    1.429248   1.523590   2.348743   2.604879   0.000000
     6  H    2.065661   2.150414   2.797707   3.171021   1.111735
     7  H    2.066850   2.178073   3.215898   2.868810   1.105669
     8  C    1.244963   3.663252   3.891719   4.824730   2.671261
     9  H    2.329382   4.703226   4.831431   5.849016   3.754906
                    6          7          8          9
     6  H    0.000000
     7  H    1.740872   0.000000
     8  C    3.174483   3.178085   0.000000
     9  H    4.205360   4.207142   1.084439   0.000000
 Stoichiometry    C5H4(2+,3)
 Framework group  C1[X(C5H4)]
 Deg. of freedom    21
 Full point group                 C1      NOp   1
 Largest Abelian subgroup         C1      NOp   1
 Largest concise Abelian subgroup C1      NOp   1
                         Standard orientation:                         
 ---------------------------------------------------------------------
 Center     Atomic      Atomic             Coordinates (Angstroms)
 Number     Number       Type             X           Y           Z
 ---------------------------------------------------------------------
      1          6           0       -1.194277    0.070397   -0.014459
      2          6           0        1.292692   -0.228674    0.188147
      3          1           0        1.335839   -1.110128    0.893172
      4          6           0        2.461732   -0.320432   -0.292775
      5          6           0        0.088871    0.695890    0.056534
      6          1           0        0.086291    1.392855    0.922668
      7          1           0        0.201706    1.367904   -0.814195
      8          6           0       -2.358096   -0.366770   -0.080343
      9          1           0       -3.369368   -0.753101   -0.144265
 ---------------------------------------------------------------------
 Rotational constants (GHZ):     26.7769925      2.6072690      2.4653219
 Leave Link  202 at Mon Jun 20 08:59:49 2016, MaxMem=    33554432 cpu:         0.0
 (Enter /home/proyectos/fulerenos/M3C-v1.9/M3C-deps_CCC/g09-AM64L-G09RevC.01/l301.exe)
 Standard basis: 6-311++G(3df,2p) (5D, 7F)
 Ernie: Thresh=  0.10000D-02 Tol=  0.10000D-05 Strict=F.
 There are   265 symmetry adapted cartesian basis functions of A   symmetry.
 There are   235 symmetry adapted basis functions of A   symmetry.
   235 basis functions,   338 primitive gaussians,   265 cartesian basis functions
    17 alpha electrons       15 beta electrons
       nuclear repulsion energy       123.5301176987 Hartrees.
 IExCor=  402 DFT=T Ex+Corr=B3LYP ExCW=0 ScaHFX=  0.200000
 ScaDFX=  0.800000  0.720000  1.000000  0.810000 ScalE2=  1.000000  1.000000
 IRadAn=      0 IRanWt=     -1 IRanGd=            0 ICorTp=0 IEmpDi=  4
 NAtoms=    9 NActive=    9 NUniq=    9 SFac= 1.00D+00 NAtFMM=   60 NAOKFM=F Big=F
 Integral buffers will be    131072 words long.
 Raffenetti 2 integral format.
 Two-electron integral symmetry is turned on.
 Leave Link  301 at Mon Jun 20 08:59:49 2016, MaxMem=    33554432 cpu:         0.2
 (Enter /home/proyectos/fulerenos/M3C-v1.9/M3C-deps_CCC/g09-AM64L-G09RevC.01/l302.exe)
 NPDir=0 NMtPBC=     1 NCelOv=     1 NCel=       1 NClECP=     1 NCelD=      1
         NCelK=      1 NCelE2=     1 NClLst=     1 CellRange=     0.0.
 One-electron integrals computed using PRISM.
 NBasis=   235 RedAO= T EigKep=  1.44D-06  NBF=   235
 NBsUse=   235 1.00D-06 EigRej= -1.00D+00 NBFU=   235
 Precomputing XC quadrature grid using
 IXCGrd= 4 IRadAn=           0 IRanWt=          -1 IRanGd=           0 AccXCQ= 0.00D+00.
 Generated NRdTot=       0 NPtTot=           0 NUsed=           0 NTot=          32
 NSgBfM=   265   265   265   265   265 MxSgAt=     9 MxSgA2=     9.
 Leave Link  302 at Mon Jun 20 08:59:50 2016, MaxMem=    33554432 cpu:         1.2
 (Enter /home/proyectos/fulerenos/M3C-v1.9/M3C-deps_CCC/g09-AM64L-G09RevC.01/l303.exe)
 DipDrv:  MaxL=1.
 Leave Link  303 at Mon Jun 20 08:59:50 2016, MaxMem=    33554432 cpu:         0.1
 (Enter /home/proyectos/fulerenos/M3C-v1.9/M3C-deps_CCC/g09-AM64L-G09RevC.01/l401.exe)
 ExpMin= 3.60D-02 ExpMax= 4.56D+03 ExpMxC= 6.82D+02 IAcc=3 IRadAn=         5 AccDes= 0.00D+00
 Harris functional with IExCor=  402 and IRadAn=       5 diagonalized for initial guess.
 HarFok:  IExCor=  402 AccDes= 0.00D+00 IRadAn=         5 IDoV= 1 UseB2=F ITyADJ=14
 ICtDFT=  3500011 ScaDFX=  1.000000  1.000000  1.000000  1.000000
 FoFCou: FMM=F IPFlag=           0 FMFlag=      100000 FMFlg1=           0
         NFxFlg=           0 DoJE=T BraDBF=F KetDBF=T FulRan=T
         wScrn=  0.000000 ICntrl=     500 IOpCl=  0 I1Cent=   200000004 NGrid=           0
         NMat0=    1 NMatS0=      1 NMatT0=    0 NMatD0=    1 NMtDS0=    0 NMtDT0=    0
 Petite list used in FoFCou.
 Harris En= -192.133826731005    
 JPrj=0 DoOrth=F DoCkMO=F.
 Initial guess <Sx>= 0.0000 <Sy>= 0.0000 <Sz>= 1.0000 <S**2>= 2.0000 S= 1.0000
 Leave Link  401 at Mon Jun 20 08:59:52 2016, MaxMem=    33554432 cpu:        10.6
 (Enter /home/proyectos/fulerenos/M3C-v1.9/M3C-deps_CCC/g09-AM64L-G09RevC.01/l502.exe)
 UHF open shell SCF:
 Using DIIS extrapolation, IDIIS=  1040.
 Integral symmetry usage will be decided dynamically.
 IVT=      232727 IEndB=      232727 NGot=    33554432 MDV=    33408836
 LenX=    33408836 LenY=    33338170
 Requested convergence on RMS density matrix=1.00D-08 within 128 cycles.
 Requested convergence on MAX density matrix=1.00D-06.
 Requested convergence on             energy=1.00D-06.
 No special actions if energy rises.
 Fock matrices will be formed incrementally for  20 cycles.

 Cycle   1  Pass 1  IDiag  1:
 FoFJK:  IHMeth= 1 ICntrl=       0 DoSepK=F KAlg= 0 I1Cent=   0 FoldK=F
 IRaf= 970000000 NMat=   1 IRICut=       1 DoRegI=T DoRafI=F ISym2E= 0.
 FoFCou: FMM=F IPFlag=           0 FMFlag=      100000 FMFlg1=           0
         NFxFlg=           0 DoJE=F BraDBF=F KetDBF=F FulRan=T
         wScrn=  0.000000 ICntrl=       0 IOpCl=  1 I1Cent=           0 NGrid=           0
         NMat0=    1 NMatS0=      1 NMatT0=    0 NMatD0=    1 NMtDS0=    0 NMtDT0=    0
 Symmetry not used in FoFCou.
 E= -191.681062508205    
 DIIS: error= 3.26D-02 at cycle   1 NSaved=   1.
 NSaved= 1 IEnMin= 1 EnMin= -191.681062508205     IErMin= 1 ErrMin= 3.26D-02
 ErrMax= 3.26D-02  0.00D+00 EMaxC= 1.00D-01 BMatC= 4.37D-01 BMatP= 4.37D-01
 IDIUse=3 WtCom= 6.74D-01 WtEn= 3.26D-01
 Coeff-Com:  0.100D+01
 Coeff-En:   0.100D+01
 Coeff:      0.100D+01
 Gap=     0.272 Goal=   None    Shift=    0.000
 Gap=    -0.004 Goal=   None    Shift=    0.000
 GapD=   -0.004 DampG=0.250 DampE=0.500 DampFc=0.2500 IDamp=-1.
 Damping current iteration by 2.50D-01
 RMSDP=1.40D-02 MaxDP=1.75D+00              OVMax= 9.22D-01

 Cycle   2  Pass 1  IDiag  1:
 RMSU=  3.47D-03    CP:  9.81D-01
 E= -191.677024038842     Delta-E=        0.004038469364 Rises=F Damp=T
 DIIS: error= 1.17D-02 at cycle   2 NSaved=   2.
 NSaved= 2 IEnMin= 1 EnMin= -191.681062508205     IErMin= 2 ErrMin= 1.17D-02
 ErrMax= 1.17D-02  0.00D+00 EMaxC= 1.00D-01 BMatC= 1.20D-01 BMatP= 4.37D-01
 IDIUse=3 WtCom= 8.83D-01 WtEn= 1.17D-01
 Coeff-Com:  0.192D+00 0.808D+00
 Coeff-En:   0.511D+00 0.489D+00
 Coeff:      0.229D+00 0.771D+00
 Gap=     0.010 Goal=   None    Shift=    0.000
 Gap=     0.396 Goal=   None    Shift=    0.000
 RMSDP=6.01D-03 MaxDP=4.38D-01 DE= 4.04D-03 OVMax= 9.64D-01

 Cycle   3  Pass 1  IDiag  1:
 RMSU=  5.07D-03    CP:  1.07D+00  3.82D-01
 E= -191.713147655109     Delta-E=       -0.036123616267 Rises=F Damp=F
 DIIS: error= 3.37D-02 at cycle   3 NSaved=   3.
 NSaved= 3 IEnMin= 3 EnMin= -191.713147655109     IErMin= 2 ErrMin= 1.17D-02
 ErrMax= 3.37D-02  0.00D+00 EMaxC= 1.00D-01 BMatC= 2.63D-01 BMatP= 1.20D-01
 IDIUse=2 WtCom= 0.00D+00 WtEn= 1.00D+00
 Coeff-En:   0.000D+00 0.411D+00 0.589D+00
 Coeff:      0.000D+00 0.411D+00 0.589D+00
 Gap=     0.093 Goal=   None    Shift=    0.000
 Gap=     0.034 Goal=   None    Shift=    0.000
 RMSDP=1.17D-02 MaxDP=1.77D+00 DE=-3.61D-02 OVMax= 9.46D-01

 Cycle   4  Pass 1  IDiag  1:
 RMSU=  5.04D-03    CP:  1.04D+00  3.00D+00  2.53D-01
 E= -191.286234321511     Delta-E=        0.426913333597 Rises=F Damp=F
 DIIS: error= 4.21D-02 at cycle   4 NSaved=   4.
 NSaved= 4 IEnMin= 3 EnMin= -191.713147655109     IErMin= 2 ErrMin= 1.17D-02
 ErrMax= 4.21D-02  0.00D+00 EMaxC= 1.00D-01 BMatC= 1.28D+00 BMatP= 1.20D-01
 IDIUse=2 WtCom= 0.00D+00 WtEn= 1.00D+00
 Coeff-En:   0.000D+00 0.000D+00 0.722D+00 0.278D+00
 Coeff:      0.000D+00 0.000D+00 0.722D+00 0.278D+00
 Gap=     0.137 Goal=   None    Shift=    0.000
 Gap=    -0.009 Goal=   None    Shift=    0.000
 RMSDP=9.55D-03 MaxDP=1.46D+00 DE= 4.27D-01 OVMax= 8.22D-01

 Cycle   5  Pass 1  IDiag  1:
 RMSU=  3.62D-03    CP:  1.12D+00  1.09D+00  8.22D-01  3.50D-01
 E= -191.816903616204     Delta-E=       -0.530669294693 Rises=F Damp=F
 DIIS: error= 9.08D-03 at cycle   5 NSaved=   5.
 NSaved= 5 IEnMin= 5 EnMin= -191.816903616204     IErMin= 5 ErrMin= 9.08D-03
 ErrMax= 9.08D-03  0.00D+00 EMaxC= 1.00D-01 BMatC= 6.33D-02 BMatP= 1.20D-01
 IDIUse=3 WtCom= 9.09D-01 WtEn= 9.08D-02
 Coeff-Com: -0.215D+00 0.355D+00 0.407D+00-0.328D-01 0.486D+00
 Coeff-En:   0.000D+00 0.000D+00 0.127D+00 0.000D+00 0.873D+00
 Coeff:     -0.196D+00 0.322D+00 0.382D+00-0.299D-01 0.522D+00
 Gap=     0.164 Goal=   None    Shift=    0.000
 Gap=     0.063 Goal=   None    Shift=    0.000
 RMSDP=2.31D-03 MaxDP=2.07D-01 DE=-5.31D-01 OVMax= 1.94D-01

 Cycle   6  Pass 1  IDiag  1:
 RMSU=  1.44D-03    CP:  1.09D+00  8.10D-01  9.80D-01  2.09D-01  7.67D-01
 E= -191.835983793800     Delta-E=       -0.019080177596 Rises=F Damp=F
 DIIS: error= 3.32D-03 at cycle   6 NSaved=   6.
 NSaved= 6 IEnMin= 6 EnMin= -191.835983793800     IErMin= 6 ErrMin= 3.32D-03
 ErrMax= 3.32D-03  0.00D+00 EMaxC= 1.00D-01 BMatC= 4.24D-03 BMatP= 6.33D-02
 IDIUse=3 WtCom= 9.67D-01 WtEn= 3.32D-02
 Coeff-Com: -0.956D-01 0.137D+00 0.120D+00-0.135D-01 0.185D+00 0.667D+00
 Coeff-En:   0.000D+00 0.000D+00 0.000D+00 0.000D+00 0.000D+00 0.100D+01
 Coeff:     -0.924D-01 0.133D+00 0.116D+00-0.130D-01 0.179D+00 0.678D+00
 Gap=     0.174 Goal=   None    Shift=    0.000
 Gap=     0.079 Goal=   None    Shift=    0.000
 RMSDP=7.97D-04 MaxDP=3.90D-02 DE=-1.91D-02 OVMax= 8.07D-02

 Cycle   7  Pass 1  IDiag  1:
 RMSU=  5.12D-04    CP:  1.09D+00  7.99D-01  9.97D-01  2.21D-01  8.11D-01
                    CP:  1.40D+00
 E= -191.838608385860     Delta-E=       -0.002624592061 Rises=F Damp=F
 DIIS: error= 2.18D-03 at cycle   7 NSaved=   7.
 NSaved= 7 IEnMin= 7 EnMin= -191.838608385860     IErMin= 7 ErrMin= 2.18D-03
 ErrMax= 2.18D-03  0.00D+00 EMaxC= 1.00D-01 BMatC= 2.76D-03 BMatP= 4.24D-03
 IDIUse=3 WtCom= 9.78D-01 WtEn= 2.18D-02
 Coeff-Com: -0.138D-01 0.193D-01-0.345D-01 0.303D-02-0.815D-01 0.470D+00
 Coeff-Com:  0.637D+00
 Coeff-En:   0.000D+00 0.000D+00 0.000D+00 0.000D+00 0.000D+00 0.000D+00
 Coeff-En:   0.100D+01
 Coeff:     -0.135D-01 0.189D-01-0.338D-01 0.297D-02-0.797D-01 0.460D+00
 Coeff:      0.645D+00
 Gap=     0.176 Goal=   None    Shift=    0.000
 Gap=     0.089 Goal=   None    Shift=    0.000
 RMSDP=5.75D-04 MaxDP=2.75D-02 DE=-2.62D-03 OVMax= 5.95D-02

 Cycle   8  Pass 1  IDiag  1:
 RMSU=  2.68D-04    CP:  1.09D+00  7.78D-01  1.02D+00  2.26D-01  8.27D-01
                    CP:  1.72D+00  1.31D+00
 E= -191.840019226714     Delta-E=       -0.001410840854 Rises=F Damp=F
 DIIS: error= 8.97D-04 at cycle   8 NSaved=   8.
 NSaved= 8 IEnMin= 8 EnMin= -191.840019226714     IErMin= 8 ErrMin= 8.97D-04
 ErrMax= 8.97D-04  0.00D+00 EMaxC= 1.00D-01 BMatC= 7.65D-04 BMatP= 2.76D-03
 IDIUse=3 WtCom= 9.91D-01 WtEn= 8.97D-03
 Coeff-Com: -0.587D-02 0.157D-01-0.213D-01 0.419D-02-0.102D+00-0.834D-01
 Coeff-Com:  0.329D+00 0.864D+00
 Coeff-En:   0.000D+00 0.000D+00 0.000D+00 0.000D+00 0.000D+00 0.000D+00
 Coeff-En:   0.000D+00 0.100D+01
 Coeff:     -0.582D-02 0.156D-01-0.211D-01 0.415D-02-0.101D+00-0.826D-01
 Coeff:      0.326D+00 0.865D+00
 Gap=     0.177 Goal=   None    Shift=    0.000
 Gap=     0.096 Goal=   None    Shift=    0.000
 RMSDP=3.83D-04 MaxDP=2.44D-02 DE=-1.41D-03 OVMax= 3.12D-02

 Cycle   9  Pass 1  IDiag  1:
 RMSU=  1.37D-04    CP:  1.09D+00  7.77D-01  1.02D+00  2.26D-01  8.11D-01
                    CP:  1.92D+00  1.65D+00  1.13D+00
 E= -191.840448240241     Delta-E=       -0.000429013527 Rises=F Damp=F
 DIIS: error= 4.25D-04 at cycle   9 NSaved=   9.
 NSaved= 9 IEnMin= 9 EnMin= -191.840448240241     IErMin= 9 ErrMin= 4.25D-04
 ErrMax= 4.25D-04  0.00D+00 EMaxC= 1.00D-01 BMatC= 6.13D-05 BMatP= 7.65D-04
 IDIUse=3 WtCom= 9.96D-01 WtEn= 4.25D-03
 Coeff-Com: -0.784D-02 0.829D-02 0.654D-02 0.813D-03 0.258D-02-0.636D-01
 Coeff-Com: -0.197D-01 0.211D+00 0.862D+00
 Coeff-En:   0.000D+00 0.000D+00 0.000D+00 0.000D+00 0.000D+00 0.000D+00
 Coeff-En:   0.000D+00 0.000D+00 0.100D+01
 Coeff:     -0.780D-02 0.825D-02 0.651D-02 0.809D-03 0.257D-02-0.633D-01
 Coeff:     -0.196D-01 0.210D+00 0.863D+00
 Gap=     0.176 Goal=   None    Shift=    0.000
 Gap=     0.095 Goal=   None    Shift=    0.000
 RMSDP=1.31D-04 MaxDP=1.06D-02 DE=-4.29D-04 OVMax= 1.08D-02

 Cycle  10  Pass 1  IDiag  1:
 RMSU=  7.12D-05    CP:  1.09D+00  7.78D-01  1.02D+00  2.29D-01  8.07D-01
                    CP:  1.97D+00  1.73D+00  1.32D+00  1.37D+00
 E= -191.840511964015     Delta-E=       -0.000063723773 Rises=F Damp=F
 DIIS: error= 1.95D-04 at cycle  10 NSaved=  10.
 NSaved=10 IEnMin=10 EnMin= -191.840511964015     IErMin=10 ErrMin= 1.95D-04
 ErrMax= 1.95D-04  0.00D+00 EMaxC= 1.00D-01 BMatC= 1.60D-05 BMatP= 6.13D-05
 IDIUse=3 WtCom= 9.98D-01 WtEn= 1.95D-03
 Coeff-Com: -0.396D-03 0.442D-04-0.547D-03 0.487D-03 0.431D-02-0.435D-03
 Coeff-Com: -0.302D-01-0.554D-01 0.166D+00 0.917D+00
 Coeff-En:   0.000D+00 0.000D+00 0.000D+00 0.000D+00 0.000D+00 0.000D+00
 Coeff-En:   0.000D+00 0.000D+00 0.000D+00 0.100D+01
 Coeff:     -0.396D-03 0.442D-04-0.546D-03 0.486D-03 0.430D-02-0.434D-03
 Coeff:     -0.301D-01-0.553D-01 0.165D+00 0.917D+00
 Gap=     0.176 Goal=   None    Shift=    0.000
 Gap=     0.095 Goal=   None    Shift=    0.000
 RMSDP=9.62D-05 MaxDP=8.56D-03 DE=-6.37D-05 OVMax= 9.60D-03

 Cycle  11  Pass 1  IDiag  1:
 RMSU=  3.37D-05    CP:  1.09D+00  7.81D-01  1.02D+00  2.32D-01  8.03D-01
                    CP:  2.00D+00  1.79D+00  1.42D+00  1.69D+00  1.49D+00
 E= -191.840544188165     Delta-E=       -0.000032224151 Rises=F Damp=F
 DIIS: error= 1.83D-04 at cycle  11 NSaved=  11.
 NSaved=11 IEnMin=11 EnMin= -191.840544188165     IErMin=11 ErrMin= 1.83D-04
 ErrMax= 1.83D-04  0.00D+00 EMaxC= 1.00D-01 BMatC= 7.58D-06 BMatP= 1.60D-05
 IDIUse=3 WtCom= 9.98D-01 WtEn= 1.83D-03
 Coeff-Com:  0.718D-03-0.107D-03 0.665D-03-0.365D-03 0.547D-02 0.191D-01
 Coeff-Com: -0.761D-02-0.927D-01-0.241D+00 0.353D+00 0.963D+00
 Coeff-En:   0.000D+00 0.000D+00 0.000D+00 0.000D+00 0.000D+00 0.000D+00
 Coeff-En:   0.000D+00 0.000D+00 0.000D+00 0.000D+00 0.100D+01
 Coeff:      0.717D-03-0.106D-03 0.663D-03-0.364D-03 0.546D-02 0.191D-01
 Coeff:     -0.759D-02-0.925D-01-0.240D+00 0.352D+00 0.963D+00
 Gap=     0.176 Goal=   None    Shift=    0.000
 Gap=     0.095 Goal=   None    Shift=    0.000
 RMSDP=1.02D-04 MaxDP=1.00D-02 DE=-3.22D-05 OVMax= 1.10D-02

 Cycle  12  Pass 1  IDiag  1:
 RMSU=  1.63D-05    CP:  1.09D+00  7.84D-01  1.02D+00  2.36D-01  7.98D-01
                    CP:  2.03D+00  1.84D+00  1.52D+00  2.02D+00  2.26D+00
                    CP:  1.93D+00
 E= -191.840571255311     Delta-E=       -0.000027067146 Rises=F Damp=F
 DIIS: error= 1.57D-04 at cycle  12 NSaved=  12.
 NSaved=12 IEnMin=12 EnMin= -191.840571255311     IErMin=12 ErrMin= 1.57D-04
 ErrMax= 1.57D-04  0.00D+00 EMaxC= 1.00D-01 BMatC= 3.96D-06 BMatP= 7.58D-06
 IDIUse=3 WtCom= 9.98D-01 WtEn= 1.57D-03
 Coeff-Com:  0.332D-03-0.912D-04 0.239D-04-0.350D-03-0.194D-02 0.110D-02
 Coeff-Com:  0.153D-01 0.135D-01-0.799D-01-0.335D+00 0.108D+00 0.128D+01
 Coeff-En:   0.000D+00 0.000D+00 0.000D+00 0.000D+00 0.000D+00 0.000D+00
 Coeff-En:   0.000D+00 0.000D+00 0.000D+00 0.000D+00 0.000D+00 0.100D+01
 Coeff:      0.331D-03-0.910D-04 0.239D-04-0.349D-03-0.194D-02 0.109D-02
 Coeff:      0.153D-01 0.134D-01-0.798D-01-0.334D+00 0.108D+00 0.128D+01
 Gap=     0.176 Goal=   None    Shift=    0.000
 Gap=     0.095 Goal=   None    Shift=    0.000
 RMSDP=1.17D-04 MaxDP=1.18D-02 DE=-2.71D-05 OVMax= 1.28D-02

 Cycle  13  Pass 1  IDiag  1:
 RMSU=  1.30D-05    CP:  1.08D+00  7.86D-01  1.02D+00  2.41D-01  7.90D-01
                    CP:  2.06D+00  1.91D+00  1.63D+00  2.35D+00  3.00D+00
                    CP:  3.00D+00  2.12D+00
 E= -191.840595446750     Delta-E=       -0.000024191439 Rises=F Damp=F
 DIIS: error= 1.23D-04 at cycle  13 NSaved=  13.
 NSaved=13 IEnMin=13 EnMin= -191.840595446750     IErMin=13 ErrMin= 1.23D-04
 ErrMax= 1.23D-04  0.00D+00 EMaxC= 1.00D-01 BMatC= 2.20D-06 BMatP= 3.96D-06
 IDIUse=3 WtCom= 9.99D-01 WtEn= 1.23D-03
 Coeff-Com: -0.887D-03 0.971D-03 0.994D-03-0.110D-03-0.201D-02-0.109D-01
 Coeff-Com:  0.189D-02 0.631D-01 0.191D+00-0.383D+00-0.816D+00 0.600D-01
 Coeff-Com:  0.189D+01
 Coeff-En:   0.000D+00 0.000D+00 0.000D+00 0.000D+00 0.000D+00 0.000D+00
 Coeff-En:   0.000D+00 0.000D+00 0.000D+00 0.000D+00 0.000D+00 0.000D+00
 Coeff-En:   0.100D+01
 Coeff:     -0.886D-03 0.969D-03 0.993D-03-0.110D-03-0.201D-02-0.109D-01
 Coeff:      0.189D-02 0.630D-01 0.191D+00-0.382D+00-0.815D+00 0.600D-01
 Coeff:      0.189D+01
 Gap=     0.177 Goal=   None    Shift=    0.000
 Gap=     0.095 Goal=   None    Shift=    0.000
 RMSDP=2.04D-04 MaxDP=2.04D-02 DE=-2.42D-05 OVMax= 2.34D-02

 Cycle  14  Pass 1  IDiag  1:
 RMSU=  1.11D-04    CP:  1.08D+00  7.93D-01  1.02D+00  2.49D-01  7.77D-01
                    CP:  2.12D+00  2.03D+00  1.82D+00  2.96D+00  3.00D+00
                    CP:  3.00D+00  3.00D+00  3.00D+00
 E= -191.840622669017     Delta-E=       -0.000027222267 Rises=F Damp=F
 DIIS: error= 5.89D-05 at cycle  14 NSaved=  14.
 NSaved=14 IEnMin=14 EnMin= -191.840622669017     IErMin=14 ErrMin= 5.89D-05
 ErrMax= 5.89D-05  0.00D+00 EMaxC= 1.00D-01 BMatC= 6.08D-07 BMatP= 2.20D-06
 IDIUse=1 WtCom= 1.00D+00 WtEn= 0.00D+00
 Coeff-Com: -0.275D-03 0.400D-03-0.489D-04 0.117D-04 0.215D-03 0.298D-02
 Coeff-Com: -0.535D-02-0.128D-02 0.364D-01 0.772D-01-0.131D+00-0.481D+00
 Coeff-Com:  0.237D+00 0.127D+01
 Coeff:     -0.275D-03 0.400D-03-0.489D-04 0.117D-04 0.215D-03 0.298D-02
 Coeff:     -0.535D-02-0.128D-02 0.364D-01 0.772D-01-0.131D+00-0.481D+00
 Coeff:      0.237D+00 0.127D+01
 Gap=     0.177 Goal=   None    Shift=    0.000
 Gap=     0.095 Goal=   None    Shift=    0.000
 RMSDP=1.08D-04 MaxDP=1.05D-02 DE=-2.72D-05 OVMax= 1.28D-02

 Cycle  15  Pass 1  IDiag  1:
 RMSU=  4.36D-05    CP:  1.08D+00  7.96D-01  1.02D+00  2.54D-01  7.69D-01
                    CP:  2.15D+00  2.09D+00  1.93D+00  3.00D+00  3.00D+00
                    CP:  3.00D+00  3.00D+00  3.00D+00  1.59D+00
 E= -191.840628991415     Delta-E=       -0.000006322398 Rises=F Damp=F
 DIIS: error= 2.45D-05 at cycle  15 NSaved=  15.
 NSaved=15 IEnMin=15 EnMin= -191.840628991415     IErMin=15 ErrMin= 2.45D-05
 ErrMax= 2.45D-05  0.00D+00 EMaxC= 1.00D-01 BMatC= 1.47D-07 BMatP= 6.08D-07
 IDIUse=1 WtCom= 1.00D+00 WtEn= 0.00D+00
 Coeff-Com: -0.106D-04 0.138D-03 0.120D-03-0.419D-04 0.858D-03 0.298D-02
 Coeff-Com:  0.201D-04-0.164D-01-0.544D-01 0.829D-01 0.190D+00 0.421D-01
 Coeff-Com: -0.489D+00-0.173D-01 0.126D+01
 Coeff:     -0.106D-04 0.138D-03 0.120D-03-0.419D-04 0.858D-03 0.298D-02
 Coeff:      0.201D-04-0.164D-01-0.544D-01 0.829D-01 0.190D+00 0.421D-01
 Coeff:     -0.489D+00-0.173D-01 0.126D+01
 Gap=     0.177 Goal=   None    Shift=    0.000
 Gap=     0.095 Goal=   None    Shift=    0.000
 RMSDP=3.52D-05 MaxDP=2.75D-03 DE=-6.32D-06 OVMax= 4.74D-03

 Cycle  16  Pass 1  IDiag  1:
 RMSU=  8.13D-06    CP:  1.08D+00  7.97D-01  1.02D+00  2.55D-01  7.67D-01
                    CP:  2.15D+00  2.11D+00  1.97D+00  3.00D+00  3.00D+00
                    CP:  3.00D+00  3.00D+00  3.00D+00  1.76D+00  1.43D+00
 E= -191.840629984721     Delta-E=       -0.000000993306 Rises=F Damp=F
 DIIS: error= 1.26D-05 at cycle  16 NSaved=  16.
 NSaved=16 IEnMin=16 EnMin= -191.840629984721     IErMin=16 ErrMin= 1.26D-05
 ErrMax= 1.26D-05  0.00D+00 EMaxC= 1.00D-01 BMatC= 4.70D-08 BMatP= 1.47D-07
 IDIUse=1 WtCom= 1.00D+00 WtEn= 0.00D+00
 Coeff-Com:  0.178D-04 0.944D-05 0.199D-03-0.310D-05-0.368D-04-0.196D-02
 Coeff-Com:  0.105D-02 0.101D-02-0.154D-02-0.258D-01 0.274D-01 0.966D-01
 Coeff-Com: -0.349D-01-0.323D+00 0.174D-03 0.126D+01
 Coeff:      0.178D-04 0.944D-05 0.199D-03-0.310D-05-0.368D-04-0.196D-02
 Coeff:      0.105D-02 0.101D-02-0.154D-02-0.258D-01 0.274D-01 0.966D-01
 Coeff:     -0.349D-01-0.323D+00 0.174D-03 0.126D+01
 Gap=     0.177 Goal=   None    Shift=    0.000
 Gap=     0.095 Goal=   None    Shift=    0.000
 RMSDP=1.70D-05 MaxDP=1.50D-03 DE=-9.93D-07 OVMax= 2.51D-03

 Cycle  17  Pass 1  IDiag  1:
 RMSU=  2.34D-06    CP:  1.08D+00  7.97D-01  1.02D+00  2.55D-01  7.66D-01
                    CP:  2.15D+00  2.12D+00  1.99D+00  3.00D+00  3.00D+00
                    CP:  3.00D+00  3.00D+00  3.00D+00  1.81D+00  1.65D+00
                    CP:  1.85D+00
 E= -191.840630245942     Delta-E=       -0.000000261221 Rises=F Damp=F
 DIIS: error= 6.55D-06 at cycle  17 NSaved=  17.
 NSaved=17 IEnMin=17 EnMin= -191.840630245942     IErMin=17 ErrMin= 6.55D-06
 ErrMax= 6.55D-06  0.00D+00 EMaxC= 1.00D-01 BMatC= 1.58D-08 BMatP= 4.70D-08
 IDIUse=1 WtCom= 1.00D+00 WtEn= 0.00D+00
 Coeff-Com: -0.876D-05 0.221D-04 0.769D-04 0.580D-06-0.133D-03-0.775D-03
 Coeff-Com: -0.725D-04 0.261D-02 0.115D-01-0.133D-01-0.320D-01-0.185D-01
 Coeff-Com:  0.106D+00-0.248D-02-0.274D+00 0.137D-01 0.121D+01
 Coeff:     -0.876D-05 0.221D-04 0.769D-04 0.580D-06-0.133D-03-0.775D-03
 Coeff:     -0.725D-04 0.261D-02 0.115D-01-0.133D-01-0.320D-01-0.185D-01
 Coeff:      0.106D+00-0.248D-02-0.274D+00 0.137D-01 0.121D+01
 Gap=     0.177 Goal=   None    Shift=    0.000
 Gap=     0.095 Goal=   None    Shift=    0.000
 RMSDP=6.87D-06 MaxDP=5.96D-04 DE=-2.61D-07 OVMax= 7.49D-04

 Cycle  18  Pass 1  IDiag  1:
 RMSU=  1.45D-06    CP:  1.08D+00  7.97D-01  1.02D+00  2.55D-01  7.66D-01
                    CP:  2.15D+00  2.13D+00  2.00D+00  3.00D+00  3.00D+00
                    CP:  3.00D+00  3.00D+00  3.00D+00  1.79D+00  1.69D+00
                    CP:  2.45D+00  1.83D+00
 E= -191.840630320556     Delta-E=       -0.000000074614 Rises=F Damp=F
 DIIS: error= 4.92D-06 at cycle  18 NSaved=  18.
 NSaved=18 IEnMin=18 EnMin= -191.840630320556     IErMin=18 ErrMin= 4.92D-06
 ErrMax= 4.92D-06  0.00D+00 EMaxC= 1.00D-01 BMatC= 7.96D-09 BMatP= 1.58D-08
 IDIUse=1 WtCom= 1.00D+00 WtEn= 0.00D+00
 Coeff-Com: -0.357D-04 0.366D-04-0.152D-04 0.404D-06-0.377D-06 0.488D-03
 Coeff-Com:  0.135D-04-0.482D-03 0.114D-04 0.701D-02-0.153D-02-0.261D-01
 Coeff-Com:  0.629D-02 0.700D-01 0.601D-02-0.306D+00 0.340D-01 0.121D+01
 Coeff:     -0.357D-04 0.366D-04-0.152D-04 0.404D-06-0.377D-06 0.488D-03
 Coeff:      0.135D-04-0.482D-03 0.114D-04 0.701D-02-0.153D-02-0.261D-01
 Coeff:      0.629D-02 0.700D-01 0.601D-02-0.306D+00 0.340D-01 0.121D+01
 Gap=     0.177 Goal=   None    Shift=    0.000
 Gap=     0.095 Goal=   None    Shift=    0.000
 RMSDP=5.70D-06 MaxDP=5.78D-04 DE=-7.46D-08 OVMax= 4.50D-04

 Cycle  19  Pass 1  IDiag  1:
 RMSU=  8.49D-07    CP:  1.08D+00  7.97D-01  1.02D+00  2.55D-01  7.66D-01
                    CP:  2.15D+00  2.13D+00  2.00D+00  3.00D+00  3.00D+00
                    CP:  3.00D+00  3.00D+00  3.00D+00  1.77D+00  1.70D+00
                    CP:  2.83D+00  2.65D+00  2.02D+00
 E= -191.840630365568     Delta-E=       -0.000000045012 Rises=F Damp=F
 DIIS: error= 4.19D-06 at cycle  19 NSaved=  19.
 NSaved=19 IEnMin=19 EnMin= -191.840630365568     IErMin=19 ErrMin= 4.19D-06
 ErrMax= 4.19D-06  0.00D+00 EMaxC= 1.00D-01 BMatC= 5.77D-09 BMatP= 7.96D-09
 IDIUse=1 WtCom= 1.00D+00 WtEn= 0.00D+00
 Coeff-Com:  0.215D-04 0.269D-06-0.737D-04 0.560D-05-0.132D-03-0.271D-03
 Coeff-Com:  0.663D-03-0.119D-02-0.104D-01-0.828D-02 0.268D-01 0.651D-01
 Coeff-Com: -0.756D-01-0.130D+00 0.157D+00 0.494D+00-0.867D+00-0.189D+01
 Coeff-Com:  0.324D+01
 Coeff:      0.215D-04 0.269D-06-0.737D-04 0.560D-05-0.132D-03-0.271D-03
 Coeff:      0.663D-03-0.119D-02-0.104D-01-0.828D-02 0.268D-01 0.651D-01
 Coeff:     -0.756D-01-0.130D+00 0.157D+00 0.494D+00-0.867D+00-0.189D+01
 Coeff:      0.324D+01
 Gap=     0.177 Goal=   None    Shift=    0.000
 Gap=     0.095 Goal=   None    Shift=    0.000
 RMSDP=1.26D-05 MaxDP=1.28D-03 DE=-4.50D-08 OVMax= 1.06D-03

 Cycle  20  Pass 1  IDiag  1:
 RMSU=  6.73D-06    CP:  1.08D+00  7.97D-01  1.02D+00  2.54D-01  7.67D-01
                    CP:  2.15D+00  2.12D+00  2.00D+00  3.00D+00  3.00D+00
                    CP:  3.00D+00  3.00D+00  3.00D+00  1.72D+00  1.71D+00
                    CP:  3.00D+00  3.00D+00  3.00D+00  3.00D+00
 E= -191.840630440233     Delta-E=       -0.000000074664 Rises=F Damp=F
 DIIS: error= 2.14D-06 at cycle  20 NSaved=  20.
 NSaved=20 IEnMin=20 EnMin= -191.840630440233     IErMin=20 ErrMin= 2.14D-06
 ErrMax= 2.14D-06  0.00D+00 EMaxC= 1.00D-01 BMatC= 2.12D-09 BMatP= 5.77D-09
 IDIUse=1 WtCom= 1.00D+00 WtEn= 0.00D+00
 Coeff-Com:  0.133D-05-0.941D-05-0.271D-05 0.364D-06 0.393D-04-0.257D-03
 Coeff-Com:  0.779D-04 0.744D-03-0.429D-03-0.530D-02 0.108D-02 0.166D-01
 Coeff-Com:  0.202D-02-0.565D-01-0.156D-01 0.269D+00 0.297D-01-0.996D+00
 Coeff-Com: -0.132D+00 0.189D+01
 Coeff:      0.133D-05-0.941D-05-0.271D-05 0.364D-06 0.393D-04-0.257D-03
 Coeff:      0.779D-04 0.744D-03-0.429D-03-0.530D-02 0.108D-02 0.166D-01
 Coeff:      0.202D-02-0.565D-01-0.156D-01 0.269D+00 0.297D-01-0.996D+00
 Coeff:     -0.132D+00 0.189D+01
 Gap=     0.177 Goal=   None    Shift=    0.000
 Gap=     0.095 Goal=   None    Shift=    0.000
 RMSDP=1.36D-05 MaxDP=1.43D-03 DE=-7.47D-08 OVMax= 1.01D-03

 Cycle  21  Pass 1  IDiag  1:
 Restarting incremental Fock formation.
 E= -191.840630472526     Delta-E=       -0.000000032293 Rises=F Damp=F
 DIIS: error= 3.41D-07 at cycle  21 NSaved=  20.
 NSaved=20 IEnMin=20 EnMin= -191.840630472526     IErMin=20 ErrMin= 3.41D-07
 ErrMax= 3.41D-07  0.00D+00 EMaxC= 1.00D-01 BMatC= 1.37D-10 BMatP= 2.12D-09
 IDIUse=1 WtCom= 1.00D+00 WtEn= 0.00D+00
 Coeff-Com: -0.118D-06-0.154D-05 0.347D-05 0.175D-04-0.956D-05-0.211D-04
 Coeff-Com:  0.212D-03 0.747D-03 0.310D-03-0.207D-02-0.370D-02 0.736D-02
 Coeff-Com:  0.363D-02-0.193D-01-0.587D-02 0.104D+00 0.429D-01-0.430D+00
 Coeff-Com:  0.331D+00 0.970D+00
 Coeff:     -0.118D-06-0.154D-05 0.347D-05 0.175D-04-0.956D-05-0.211D-04
 Coeff:      0.212D-03 0.747D-03 0.310D-03-0.207D-02-0.370D-02 0.736D-02
 Coeff:      0.363D-02-0.193D-01-0.587D-02 0.104D+00 0.429D-01-0.430D+00
 Coeff:      0.331D+00 0.970D+00
 Gap=     0.177 Goal=   None    Shift=    0.000
 Gap=     0.095 Goal=   None    Shift=    0.000
 RMSDP=2.52D-06 MaxDP=2.70D-04 DE=-3.23D-08 OVMax= 1.91D-04

 Cycle  22  Pass 1  IDiag  1:
 RMSU=  2.50D-06    CP:  1.00D+00
 E= -191.840630473515     Delta-E=       -0.000000000989 Rises=F Damp=F
 DIIS: error= 1.25D-07 at cycle  22 NSaved=  20.
 NSaved=20 IEnMin=20 EnMin= -191.840630473515     IErMin=20 ErrMin= 1.25D-07
 ErrMax= 1.25D-07  0.00D+00 EMaxC= 1.00D-01 BMatC= 1.42D-11 BMatP= 1.37D-10
 IDIUse=1 WtCom= 1.00D+00 WtEn= 0.00D+00
 Coeff-Com: -0.231D-06 0.708D-06-0.184D-05 0.188D-04-0.728D-05-0.659D-04
 Coeff-Com:  0.113D-03 0.583D-03 0.105D-03-0.228D-02 0.557D-03 0.587D-02
 Coeff-Com: -0.277D-03-0.304D-01 0.148D-01 0.117D+00-0.550D-01-0.157D+00
 Coeff-Com:  0.162D+00 0.945D+00
 Coeff:     -0.231D-06 0.708D-06-0.184D-05 0.188D-04-0.728D-05-0.659D-04
 Coeff:      0.113D-03 0.583D-03 0.105D-03-0.228D-02 0.557D-03 0.587D-02
 Coeff:     -0.277D-03-0.304D-01 0.148D-01 0.117D+00-0.550D-01-0.157D+00
 Coeff:      0.162D+00 0.945D+00
 Gap=     0.177 Goal=   None    Shift=    0.000
 Gap=     0.095 Goal=   None    Shift=    0.000
 RMSDP=2.97D-07 MaxDP=3.25D-05 DE=-9.89D-10 OVMax= 2.38D-05

 Cycle  23  Pass 1  IDiag  1:
 RMSU=  6.27D-08    CP:  1.00D+00  1.11D+00
 E= -191.840630473537     Delta-E=       -0.000000000022 Rises=F Damp=F
 DIIS: error= 2.83D-08 at cycle  23 NSaved=  20.
 NSaved=20 IEnMin=20 EnMin= -191.840630473537     IErMin=20 ErrMin= 2.83D-08
 ErrMax= 2.83D-08  0.00D+00 EMaxC= 1.00D-01 BMatC= 1.22D-12 BMatP= 1.42D-11
 IDIUse=1 WtCom= 1.00D+00 WtEn= 0.00D+00
 Coeff-Com: -0.324D-06-0.178D-05 0.301D-05 0.843D-06-0.254D-04-0.813D-04
 Coeff-Com:  0.243D-04 0.416D-03 0.127D-03-0.908D-03-0.281D-03 0.272D-02
 Coeff-Com: -0.145D-02-0.980D-02 0.131D-02 0.402D-01-0.395D-01-0.914D-01
 Coeff-Com:  0.583D-01 0.104D+01
 Coeff:     -0.324D-06-0.178D-05 0.301D-05 0.843D-06-0.254D-04-0.813D-04
 Coeff:      0.243D-04 0.416D-03 0.127D-03-0.908D-03-0.281D-03 0.272D-02
 Coeff:     -0.145D-02-0.980D-02 0.131D-02 0.402D-01-0.395D-01-0.914D-01
 Coeff:      0.583D-01 0.104D+01
 Gap=     0.177 Goal=   None    Shift=    0.000
 Gap=     0.095 Goal=   None    Shift=    0.000
 RMSDP=2.57D-08 MaxDP=2.12D-06 DE=-2.24D-11 OVMax= 2.20D-06

 Cycle  24  Pass 1  IDiag  1:
 RMSU=  1.40D-08    CP:  1.00D+00  1.12D+00  1.04D+00
 E= -191.840630473537     Delta-E=        0.000000000000 Rises=F Damp=F
 DIIS: error= 1.26D-08 at cycle  24 NSaved=  20.
 NSaved=20 IEnMin=19 EnMin= -191.840630473537     IErMin=20 ErrMin= 1.26D-08
 ErrMax= 1.26D-08  0.00D+00 EMaxC= 1.00D-01 BMatC= 1.27D-13 BMatP= 1.22D-12
 IDIUse=1 WtCom= 1.00D+00 WtEn= 0.00D+00
 Coeff-Com: -0.371D-07-0.176D-05 0.139D-05 0.625D-05-0.128D-04-0.346D-04
 Coeff-Com:  0.386D-04 0.186D-03-0.144D-03-0.568D-03 0.313D-03 0.248D-02
 Coeff-Com: -0.210D-02-0.912D-02 0.688D-02 0.988D-02-0.206D-01-0.605D-01
 Coeff-Com:  0.948D-01 0.978D+00
 Coeff:     -0.371D-07-0.176D-05 0.139D-05 0.625D-05-0.128D-04-0.346D-04
 Coeff:      0.386D-04 0.186D-03-0.144D-03-0.568D-03 0.313D-03 0.248D-02
 Coeff:     -0.210D-02-0.912D-02 0.688D-02 0.988D-02-0.206D-01-0.605D-01
 Coeff:      0.948D-01 0.978D+00
 Gap=     0.177 Goal=   None    Shift=    0.000
 Gap=     0.095 Goal=   None    Shift=    0.000
 RMSDP=8.58D-09 MaxDP=7.30D-07 DE= 1.14D-13 OVMax= 7.57D-07

 SCF Done:  E(UB3LYP) =  -191.840630474     A.U. after   24 cycles
            NFock= 24  Conv=0.86D-08     -V/T= 2.0045
 <Sx>= 0.0000 <Sy>= 0.0000 <Sz>= 1.0000 <S**2>= 2.0177 S= 1.0059
 <L.S>= 0.000000000000E+00
 KE= 1.909810083267D+02 PE=-6.770111977784D+02 EE= 1.706594412794D+02
 Annihilation of the first spin contaminant:
 S**2 before annihilation     2.0177,   after     2.0001
 Leave Link  502 at Mon Jun 20 09:04:12 2016, MaxMem=    33554432 cpu:      1023.3
 (Enter /home/proyectos/fulerenos/M3C-v1.9/M3C-deps_CCC/g09-AM64L-G09RevC.01/l801.exe)
 DoSCS=F DFT=T ScalE2(SS,OS)=  1.000000  1.000000
 Range of M.O.s used for correlation:     1   235
 NBasis=   235 NAE=    17 NBE=    15 NFC=     0 NFV=     0
 NROrb=    235 NOA=    17 NOB=    15 NVA=   218 NVB=   220

 **** Warning!!: The largest alpha MO coefficient is  0.17867430D+03


 **** Warning!!: The largest beta MO coefficient is  0.16959925D+03


 **** Warning!!: The smallest beta delta epsilon is  0.94643524D-01

 Leave Link  801 at Mon Jun 20 09:04:12 2016, MaxMem=    33554432 cpu:         0.1
 (Enter /home/proyectos/fulerenos/M3C-v1.9/M3C-deps_CCC/g09-AM64L-G09RevC.01/l1101.exe)
 Using compressed storage, NAtomX=     9.
 Will process     10 centers per pass.
 Leave Link 1101 at Mon Jun 20 09:04:13 2016, MaxMem=    33554432 cpu:         1.3
 (Enter /home/proyectos/fulerenos/M3C-v1.9/M3C-deps_CCC/g09-AM64L-G09RevC.01/l1102.exe)
 Symmetrizing basis deriv contribution to polar:
 IMax=3 JMax=2 DiffMx= 0.00D+00
 Leave Link 1102 at Mon Jun 20 09:04:13 2016, MaxMem=    33554432 cpu:         0.1
 (Enter /home/proyectos/fulerenos/M3C-v1.9/M3C-deps_CCC/g09-AM64L-G09RevC.01/l1110.exe)
 Forming Gx(P) for the SCF density, NAtomX=     9.
 Integral derivatives from FoFJK, PRISM(SPDF).
 Do as many integral derivatives as possible in FoFJK.
 G2DrvN: MDV=      33554256.
 G2DrvN: will do    10 centers at a time, making    1 passes.
 Calling FoFCou, ICntrl=  3107 FMM=F I1Cent=   0 AccDes= 0.00D+00.
 FoFJK:  IHMeth= 1 ICntrl=    3107 DoSepK=F KAlg= 0 I1Cent=   0 FoldK=F
 IRaf=         0 NMat=   1 IRICut=       1 DoRegI=T DoRafI=F ISym2E= 0.
 FoFCou: FMM=F IPFlag=           0 FMFlag=      100000 FMFlg1=           0
         NFxFlg=           0 DoJE=F BraDBF=F KetDBF=F FulRan=T
         wScrn=  0.000000 ICntrl=    3107 IOpCl=  1 I1Cent=           0 NGrid=           0
         NMat0=    1 NMatS0=      1 NMatT0=    0 NMatD0=    1 NMtDS0=    0 NMtDT0=    0
 Symmetry not used in FoFCou.
 End of G2Drv F.D. properties file   721 does not exist.
 End of G2Drv F.D. properties file   722 does not exist.
 End of G2Drv F.D. properties file   788 does not exist.
 Leave Link 1110 at Mon Jun 20 09:06:17 2016, MaxMem=    33554432 cpu:       496.1
 (Enter /home/proyectos/fulerenos/M3C-v1.9/M3C-deps_CCC/g09-AM64L-G09RevC.01/l1002.exe)
 Minotr:  UHF open shell wavefunction.
          IDoAtm=111111111
          Direct CPHF calculation.
          Differentiating once with respect to electric field.
                with respect to dipole field.
          Differentiating once with respect to nuclear coordinates.
          Requested convergence is 1.0D-08 RMS, and 1.0D-07 maximum.
          Secondary convergence is 1.0D-12 RMS, and 1.0D-12 maximum.
          NewPWx=T KeepS1=F KeepF1=F KeepIn=T MapXYZ=F SortEE=F KeepMc=T.
          MDV=      33553868 using IRadAn=       2.
 Generate precomputed XC quadrature information.
          Solving linear equations simultaneously, MaxMat=       0.
 FoFJK:  IHMeth= 1 ICntrl=       0 DoSepK=F KAlg= 0 I1Cent=   0 FoldK=F
 IRaf= 970000000 NMat=  30 IRICut=      75 DoRegI=T DoRafI=T ISym2E= 2.
 FoFCou: FMM=F IPFlag=           0 FMFlag=      100000 FMFlg1=           0
         NFxFlg=           0 DoJE=F BraDBF=F KetDBF=F FulRan=T
         wScrn=  0.000000 ICntrl=       0 IOpCl=  1 I1Cent=           0 NGrid=           0
         NMat0=   30 NMatS0=     30 NMatT0=    0 NMatD0=   30 NMtDS0=    0 NMtDT0=    0
 Integrals replicated using symmetry in FoFCou.
          There are    30 degrees of freedom in the 1st order CPHF.  IDoFFX=6 NUNeed=     3.
     27 vectors produced by pass  0 Test12= 2.34D-14 3.33D-09 XBig12= 3.21D+02 9.79D+00.
 AX will form    27 AO Fock derivatives at one time.
     27 vectors produced by pass  1 Test12= 2.34D-14 3.33D-09 XBig12= 5.55D+01 1.79D+00.
     27 vectors produced by pass  2 Test12= 2.34D-14 3.33D-09 XBig12= 1.70D+00 4.21D-01.
     27 vectors produced by pass  3 Test12= 2.34D-14 3.33D-09 XBig12= 1.63D-02 2.35D-02.
     27 vectors produced by pass  4 Test12= 2.34D-14 3.33D-09 XBig12= 1.15D-04 1.99D-03.
     27 vectors produced by pass  5 Test12= 2.34D-14 3.33D-09 XBig12= 8.64D-07 1.35D-04.
     25 vectors produced by pass  6 Test12= 2.34D-14 3.33D-09 XBig12= 4.83D-09 6.42D-06.
      8 vectors produced by pass  7 Test12= 2.34D-14 3.33D-09 XBig12= 1.91D-11 6.11D-07.
      4 vectors produced by pass  8 Test12= 2.34D-14 3.33D-09 XBig12= 4.02D-13 7.77D-08.
      4 vectors produced by pass  9 Test12= 2.34D-14 3.33D-09 XBig12= 1.10D-13 6.53D-08.
      3 vectors produced by pass 10 Test12= 2.34D-14 3.33D-09 XBig12= 6.99D-15 1.13D-08.
 InvSVY:  IOpt=1 It=  1 EMax= 1.07D-14
 Solved reduced A of dimension   206 with    30 vectors.
 FullF1:  Do perturbations    1 to     3.
 Isotropic polarizability for W=    0.000000       52.84 Bohr**3.
 End of Minotr F.D. properties file   721 does not exist.
 End of Minotr F.D. properties file   722 does not exist.
 End of Minotr F.D. properties file   788 does not exist.
 Leave Link 1002 at Mon Jun 20 09:14:18 2016, MaxMem=    33554432 cpu:      1922.0
 (Enter /home/proyectos/fulerenos/M3C-v1.9/M3C-deps_CCC/g09-AM64L-G09RevC.01/l601.exe)
 Copying SCF densities to generalized density rwf, IOpCl= 1 IROHF=0.

 **********************************************************************

            Population analysis using the SCF density.

 **********************************************************************

 Orbital symmetries:
 Alpha Orbitals:
       Occupied  (A) (A) (A) (A) (A) (A) (A) (A) (A) (A) (A) (A)
                 (A) (A) (A) (A) (A)
       Virtual   (A) (A) (A) (A) (A) (A) (A) (A) (A) (A) (A) (A)
                 (A) (A) (A) (A) (A) (A) (A) (A) (A) (A) (A) (A)
                 (A) (A) (A) (A) (A) (A) (A) (A) (A) (A) (A) (A)
                 (A) (A) (A) (A) (A) (A) (A) (A) (A) (A) (A) (A)
                 (A) (A) (A) (A) (A) (A) (A) (A) (A) (A) (A) (A)
                 (A) (A) (A) (A) (A) (A) (A) (A) (A) (A) (A) (A)
                 (A) (A) (A) (A) (A) (A) (A) (A) (A) (A) (A) (A)
                 (A) (A) (A) (A) (A) (A) (A) (A) (A) (A) (A) (A)
                 (A) (A) (A) (A) (A) (A) (A) (A) (A) (A) (A) (A)
                 (A) (A) (A) (A) (A) (A) (A) (A) (A) (A) (A) (A)
                 (A) (A) (A) (A) (A) (A) (A) (A) (A) (A) (A) (A)
                 (A) (A) (A) (A) (A) (A) (A) (A) (A) (A) (A) (A)
                 (A) (A) (A) (A) (A) (A) (A) (A) (A) (A) (A) (A)
                 (A) (A) (A) (A) (A) (A) (A) (A) (A) (A) (A) (A)
                 (A) (A) (A) (A) (A) (A) (A) (A) (A) (A) (A) (A)
                 (A) (A) (A) (A) (A) (A) (A) (A) (A) (A) (A) (A)
                 (A) (A) (A) (A) (A) (A) (A) (A) (A) (A) (A) (A)
                 (A) (A) (A) (A) (A) (A) (A) (A) (A) (A) (A) (A)
                 (A) (A)
 Beta  Orbitals:
       Occupied  (A) (A) (A) (A) (A) (A) (A) (A) (A) (A) (A) (A)
                 (A) (A) (A)
       Virtual   (A) (A) (A) (A) (A) (A) (A) (A) (A) (A) (A) (A)
                 (A) (A) (A) (A) (A) (A) (A) (A) (A) (A) (A) (A)
                 (A) (A) (A) (A) (A) (A) (A) (A) (A) (A) (A) (A)
                 (A) (A) (A) (A) (A) (A) (A) (A) (A) (A) (A) (A)
                 (A) (A) (A) (A) (A) (A) (A) (A) (A) (A) (A) (A)
                 (A) (A) (A) (A) (A) (A) (A) (A) (A) (A) (A) (A)
                 (A) (A) (A) (A) (A) (A) (A) (A) (A) (A) (A) (A)
                 (A) (A) (A) (A) (A) (A) (A) (A) (A) (A) (A) (A)
                 (A) (A) (A) (A) (A) (A) (A) (A) (A) (A) (A) (A)
                 (A) (A) (A) (A) (A) (A) (A) (A) (A) (A) (A) (A)
                 (A) (A) (A) (A) (A) (A) (A) (A) (A) (A) (A) (A)
                 (A) (A) (A) (A) (A) (A) (A) (A) (A) (A) (A) (A)
                 (A) (A) (A) (A) (A) (A) (A) (A) (A) (A) (A) (A)
                 (A) (A) (A) (A) (A) (A) (A) (A) (A) (A) (A) (A)
                 (A) (A) (A) (A) (A) (A) (A) (A) (A) (A) (A) (A)
                 (A) (A) (A) (A) (A) (A) (A) (A) (A) (A) (A) (A)
                 (A) (A) (A) (A) (A) (A) (A) (A) (A) (A) (A) (A)
                 (A) (A) (A) (A) (A) (A) (A) (A) (A) (A) (A) (A)
                 (A) (A) (A) (A)
 The electronic state is 3-A.
 Alpha  occ. eigenvalues --  -10.78909 -10.69940 -10.69632 -10.68333 -10.67634
 Alpha  occ. eigenvalues --   -1.30809  -1.26725  -1.19069  -0.99954  -0.97570
 Alpha  occ. eigenvalues --   -0.94555  -0.91021  -0.88494  -0.85163  -0.78381
 Alpha  occ. eigenvalues --   -0.76095  -0.75280
 Alpha virt. eigenvalues --   -0.57605  -0.45248  -0.44333  -0.42429  -0.32233
 Alpha virt. eigenvalues --   -0.30943  -0.28256  -0.26659  -0.26288  -0.24831
 Alpha virt. eigenvalues --   -0.23897  -0.22320  -0.21242  -0.20898  -0.20139
 Alpha virt. eigenvalues --   -0.19662  -0.17062  -0.15614  -0.15048  -0.13804
 Alpha virt. eigenvalues --   -0.13158  -0.12549  -0.12188  -0.11674  -0.11205
 Alpha virt. eigenvalues --   -0.09836  -0.09694  -0.08834  -0.07908  -0.06650
 Alpha virt. eigenvalues --   -0.05194  -0.04811  -0.03640  -0.02019  -0.01257
 Alpha virt. eigenvalues --   -0.00718   0.00391   0.02780   0.03241   0.04984
 Alpha virt. eigenvalues --    0.05510   0.07735   0.08823   0.09630   0.10874
 Alpha virt. eigenvalues --    0.11690   0.12694   0.13519   0.13867   0.14573
 Alpha virt. eigenvalues --    0.15374   0.15836   0.17881   0.18366   0.19802
 Alpha virt. eigenvalues --    0.21460   0.22074   0.22846   0.24234   0.25605
 Alpha virt. eigenvalues --    0.26494   0.27945   0.28746   0.31060   0.35274
 Alpha virt. eigenvalues --    0.37242   0.39590   0.40382   0.43444   0.43653
 Alpha virt. eigenvalues --    0.45518   0.47995   0.48476   0.50850   0.56565
 Alpha virt. eigenvalues --    0.59382   0.62691   0.67146   0.70084   0.70728
 Alpha virt. eigenvalues --    0.74053   0.75908   0.79072   0.79377   0.83184
 Alpha virt. eigenvalues --    0.84163   0.86817   0.88015   0.92694   0.94288
 Alpha virt. eigenvalues --    0.96948   0.97482   1.01046   1.01511   1.04549
 Alpha virt. eigenvalues --    1.06278   1.06576   1.08318   1.09954   1.12728
 Alpha virt. eigenvalues --    1.14853   1.20135   1.21904   1.23465   1.29494
 Alpha virt. eigenvalues --    1.30260   1.32305   1.33841   1.37425   1.40131
 Alpha virt. eigenvalues --    1.44934   1.50327   1.58499   1.62058   1.66119
 Alpha virt. eigenvalues --    1.71624   1.80823   1.93228   1.95636   2.03772
 Alpha virt. eigenvalues --    2.08670   2.16007   2.17914   2.19117   2.20634
 Alpha virt. eigenvalues --    2.22335   2.24310   2.24981   2.26643   2.28478
 Alpha virt. eigenvalues --    2.30577   2.32434   2.34129   2.39487   2.40221
 Alpha virt. eigenvalues --    2.42181   2.45119   2.47267   2.48946   2.52491
 Alpha virt. eigenvalues --    2.53800   2.56040   2.57826   2.61872   2.63915
 Alpha virt. eigenvalues --    2.66075   2.68435   2.70318   2.75240   2.76362
 Alpha virt. eigenvalues --    2.80255   2.84356   2.92949   2.95212   2.99915
 Alpha virt. eigenvalues --    3.09651   3.15655   3.18264   3.21592   3.29498
 Alpha virt. eigenvalues --    3.34867   3.39278   3.42730   3.47582   3.51017
 Alpha virt. eigenvalues --    3.61084   3.63726   3.70355   3.78283   3.85064
 Alpha virt. eigenvalues --    3.88284   3.94015   4.01832   4.04725   4.08016
 Alpha virt. eigenvalues --    4.10433   4.17538   4.30915   4.32665   4.47311
 Alpha virt. eigenvalues --    4.58349   5.03871   5.09127   5.10592   5.27967
 Alpha virt. eigenvalues --    5.38005   5.60876   5.73142   6.44231   6.46163
 Alpha virt. eigenvalues --    6.46711   6.48681   6.58647   6.59362   6.64074
 Alpha virt. eigenvalues --    6.65273   6.69147   6.75562   6.81336   6.81931
 Alpha virt. eigenvalues --    6.86098   6.88722   7.01267   7.09830   7.15556
 Alpha virt. eigenvalues --    7.20420   7.37464   7.49607   7.63406   7.73938
 Alpha virt. eigenvalues --    7.86255   7.89976   8.04418  23.32309  23.54137
 Alpha virt. eigenvalues --   24.41721  25.69911  26.15840
  Beta  occ. eigenvalues --  -10.76703 -10.69314 -10.68776 -10.68190 -10.67590
  Beta  occ. eigenvalues --   -1.29399  -1.23768  -1.16849  -0.98528  -0.96262
  Beta  occ. eigenvalues --   -0.93963  -0.90108  -0.86119  -0.75628  -0.74228
  Beta virt. eigenvalues --   -0.64763  -0.63867  -0.54183  -0.43208  -0.41210
  Beta virt. eigenvalues --   -0.38921  -0.31711  -0.30828  -0.27256  -0.26374
  Beta virt. eigenvalues --   -0.25767  -0.24559  -0.23569  -0.22135  -0.21005
  Beta virt. eigenvalues --   -0.20254  -0.19410  -0.19137  -0.16497  -0.15304
  Beta virt. eigenvalues --   -0.14640  -0.13289  -0.12862  -0.12320  -0.11942
  Beta virt. eigenvalues --   -0.11271  -0.10739  -0.09648  -0.09444  -0.08404
  Beta virt. eigenvalues --   -0.07526  -0.06187  -0.04923  -0.04460  -0.03113
  Beta virt. eigenvalues --   -0.01786  -0.00706  -0.00033   0.00847   0.03406
  Beta virt. eigenvalues --    0.03870   0.05418   0.07019   0.08055   0.09563
  Beta virt. eigenvalues --    0.10246   0.11333   0.12282   0.13351   0.14386
  Beta virt. eigenvalues --    0.15241   0.15417   0.16066   0.16912   0.18877
  Beta virt. eigenvalues --    0.19247   0.20981   0.22007   0.22969   0.23388
  Beta virt. eigenvalues --    0.25305   0.26360   0.26872   0.28196   0.29447
  Beta virt. eigenvalues --    0.31775   0.35703   0.37978   0.39972   0.41938
  Beta virt. eigenvalues --    0.43931   0.44267   0.45979   0.48411   0.49408
  Beta virt. eigenvalues --    0.51732   0.57068   0.59877   0.63308   0.67499
  Beta virt. eigenvalues --    0.70691   0.71331   0.74461   0.76325   0.79591
  Beta virt. eigenvalues --    0.80347   0.83811   0.84684   0.87459   0.88879
  Beta virt. eigenvalues --    0.93817   0.95618   0.97548   0.98728   1.02026
  Beta virt. eigenvalues --    1.02754   1.06440   1.07929   1.09038   1.10080
  Beta virt. eigenvalues --    1.11932   1.14467   1.16483   1.21915   1.24139
  Beta virt. eigenvalues --    1.25273   1.30438   1.32340   1.34550   1.36165
  Beta virt. eigenvalues --    1.39202   1.41623   1.46550   1.52514   1.59478
  Beta virt. eigenvalues --    1.64901   1.67568   1.74868   1.83649   1.94953
  Beta virt. eigenvalues --    1.97804   2.05115   2.10177   2.17627   2.20579
  Beta virt. eigenvalues --    2.21384   2.22111   2.24306   2.26056   2.28353
  Beta virt. eigenvalues --    2.28675   2.30475   2.32339   2.34265   2.35621
  Beta virt. eigenvalues --    2.41585   2.42364   2.43599   2.48622   2.49286
  Beta virt. eigenvalues --    2.49973   2.53912   2.55769   2.57624   2.59773
  Beta virt. eigenvalues --    2.63774   2.65125   2.67969   2.70217   2.71943
  Beta virt. eigenvalues --    2.75996   2.77377   2.81787   2.86383   2.94370
  Beta virt. eigenvalues --    2.96924   3.01731   3.10772   3.16541   3.20141
  Beta virt. eigenvalues --    3.23257   3.30701   3.36007   3.40418   3.44231
  Beta virt. eigenvalues --    3.49463   3.54335   3.62602   3.65426   3.71694
  Beta virt. eigenvalues --    3.78355   3.85682   3.88887   3.94847   4.02782
  Beta virt. eigenvalues --    4.05333   4.08982   4.11557   4.18662   4.31545
  Beta virt. eigenvalues --    4.34272   4.48260   4.59711   5.04106   5.09867
  Beta virt. eigenvalues --    5.12657   5.28651   5.39399   5.61819   5.73723
  Beta virt. eigenvalues --    6.46950   6.50073   6.50518   6.51963   6.62042
  Beta virt. eigenvalues --    6.63060   6.65730   6.68250   6.73327   6.80646
  Beta virt. eigenvalues --    6.83846   6.85993   6.88639   6.89681   7.02953
  Beta virt. eigenvalues --    7.10826   7.16450   7.21982   7.38100   7.50662
  Beta virt. eigenvalues --    7.64385   7.74912   7.87447   7.91358   8.05620
  Beta virt. eigenvalues --   23.33445  23.55065  24.41922  25.71438  26.16847
          Condensed to atoms (all electrons):
               1          2          3          4          5          6
     1  C    9.109767  -0.155213  -0.065058   0.053741  -0.069882  -0.023773
     2  C   -0.155213   7.854188   0.442232  -2.309765   0.190409  -0.035924
     3  H   -0.065058   0.442232   0.440252  -0.086197   0.070321  -0.002295
     4  C    0.053741  -2.309765  -0.086197   8.386688  -0.124902   0.012846
     5  C   -0.069882   0.190409   0.070321  -0.124902   8.685022   0.369690
     6  H   -0.023773  -0.035924  -0.002295   0.012846   0.369690   0.368341
     7  H   -0.004658  -0.005341  -0.001078  -0.004483   0.412789  -0.009910
     8  C   -2.884618  -0.230255  -0.064757  -0.034706  -3.307595   0.028952
     9  H    0.023215  -0.001769  -0.000228   0.000337   0.001055  -0.000024
               7          8          9
     1  C   -0.004658  -2.884618   0.023215
     2  C   -0.005341  -0.230255  -0.001769
     3  H   -0.001078  -0.064757  -0.000228
     4  C   -0.004483  -0.034706   0.000337
     5  C    0.412789  -3.307595   0.001055
     6  H   -0.009910   0.028952  -0.000024
     7  H    0.388646  -0.052331  -0.000819
     8  C   -0.052331  11.684778   0.279542
     9  H   -0.000819   0.279542   0.263227
          Atomic-Atomic Spin Densities.
               1          2          3          4          5          6
     1  C    0.355955  -0.021976  -0.002290  -0.010002  -0.020428   0.004173
     2  C   -0.021976   0.969061  -0.041038  -1.078303   0.026383   0.003020
     3  H   -0.002290  -0.041038  -0.001062   0.046040  -0.001897   0.000119
     4  C   -0.010002  -1.078303   0.046040   2.237888  -0.058756  -0.003556
     5  C   -0.020428   0.026383  -0.001897  -0.058756   0.035966   0.000229
     6  H    0.004173   0.003020   0.000119  -0.003556   0.000229   0.030587
     7  H   -0.000718  -0.003732  -0.000293   0.000532   0.011150  -0.002986
     8  C    0.150440   0.017009  -0.001766  -0.013609   0.020524   0.008327
     9  H   -0.003613   0.000090  -0.000024  -0.000210  -0.001500  -0.000003
               7          8          9
     1  C   -0.000718   0.150440  -0.003613
     2  C   -0.003732   0.017009   0.000090
     3  H   -0.000293  -0.001766  -0.000024
     4  C    0.000532  -0.013609  -0.000210
     5  C    0.011150   0.020524  -0.001500
     6  H   -0.002986   0.008327  -0.000003
     7  H    0.029768   0.003768   0.000108
     8  C    0.003768   0.297675   0.003263
     9  H    0.000108   0.003263  -0.012786
 Mulliken charges and spin densities:
               1          2
     1  C    0.016478   0.451541
     2  C    0.251438  -0.129486
     3  H    0.266809  -0.002212
     4  C    0.106442   1.120024
     5  C   -0.226906   0.011671
     6  H    0.292099   0.039910
     7  H    0.277187   0.037597
     8  C    0.580990   0.485630
     9  H    0.435463  -0.014676
 Sum of Mulliken charges =   2.00000   2.00000
 Mulliken charges and spin densities with hydrogens summed into heavy atoms:
               1          2
     1  C    0.016478   0.451541
     2  C    0.518247  -0.131698
     4  C    0.106442   1.120024
     5  C    0.342380   0.089178
     8  C    1.016453   0.470955
 APT charges:
               1
     1  C    0.079377
     2  C    0.107053
     3  H    0.211287
     4  C    0.461925
     5  C    0.020513
     6  H    0.205597
     7  H    0.202193
     8  C    0.340698
     9  H    0.371358
 Sum of APT charges =   2.00000
 APT charges with hydrogens summed into heavy atoms:
               1
     1  C    0.079377
     2  C    0.318340
     4  C    0.461925
     5  C    0.428303
     8  C    0.712056
 Electronic spatial extent (au):  <R**2>=            425.8096
 Charge=              2.0000 electrons
 Dipole moment (field-independent basis, Debye):
    X=              0.1247    Y=             -0.7457    Z=              0.1698  Tot=              0.7749
 Quadrupole moment (field-independent basis, Debye-Ang):
   XX=             19.8746   YY=            -18.7754   ZZ=            -21.7337
   XY=              1.0969   XZ=             -0.1578   YZ=             -1.4182
 Traceless Quadrupole moment (field-independent basis, Debye-Ang):
   XX=             26.7527   YY=            -11.8972   ZZ=            -14.8555
   XY=              1.0969   XZ=             -0.1578   YZ=             -1.4182
 Octapole moment (field-independent basis, Debye-Ang**2):
  XXX=            -25.1062  YYY=              3.3615  ZZZ=              1.3840  XYY=              1.6492
  XXY=            -25.9632  XXZ=             -8.2835  XZZ=              1.1509  YZZ=              1.5032
  YYZ=              2.4310  XYZ=             -3.4744
 Hexadecapole moment (field-independent basis, Debye-Ang**3):
 XXXX=            -79.3788 YYYY=            -52.4692 ZZZZ=            -30.7849 XXXY=             35.1814
 XXXZ=             -6.7539 YYYX=              0.2849 YYYZ=             -2.7848 ZZZX=              1.1761
 ZZZY=             -2.0673 XXYY=            -70.5623 XXZZ=            -75.7332 YYZZ=             -9.9370
 XXYZ=             -1.7019 YYXZ=              3.1513 ZZXY=             -0.3467
 N-N= 1.235301176987D+02 E-N=-6.770111976886D+02  KE= 1.909810083267D+02
  Exact polarizability:  85.383   3.437  38.357  -2.106   3.016  34.777
 Approx polarizability: 138.647   9.759  53.427  -9.921  -0.132  49.566
                          Isotropic Fermi Contact Couplings
        Atom                 a.u.       MegaHertz       Gauss      10(-4) cm-1
     1  C(13)             -0.00399      -2.24115      -0.79970      -0.74757
     2  C(13)              0.09229      51.87461      18.51015      17.30351
     3  H(1)              -0.00524     -11.71916      -4.18169      -3.90909
     4  C(13)              0.94338     530.27179     189.21415     176.87963
     5  C(13)             -0.01083      -6.08667      -2.17187      -2.03029
     6  H(1)               0.02248      50.24606      17.92904      16.76028
     7  H(1)               0.02152      48.09934      17.16304      16.04421
     8  C(13)              0.01505       8.45907       3.01840       2.82164
     9  H(1)              -0.01040     -23.23730      -8.29165      -7.75113
 --------------------------------------------------------
       Center         ----  Spin Dipole Couplings  ----
                      3XX-RR        3YY-RR        3ZZ-RR
 --------------------------------------------------------
     1   Atom       -0.239665     -0.331560      0.571225
     2   Atom        0.261563     -0.174319     -0.087244
     3   Atom        0.017252     -0.014337     -0.002915
     4   Atom        0.804980     -0.460069     -0.344911
     5   Atom       -0.009510     -0.051285      0.060795
     6   Atom        0.000008      0.005144     -0.005152
     7   Atom        0.003034      0.005851     -0.008884
     8   Atom       -0.343062     -0.355807      0.698869
     9   Atom        0.043177     -0.030870     -0.012307
 --------------------------------------------------------
                        XY            XZ            YZ
 --------------------------------------------------------
     1   Atom        0.030497     -0.032338      0.005617
     2   Atom       -0.053607     -0.255665     -0.078271
     3   Atom        0.006788     -0.022336     -0.012486
     4   Atom       -0.153037     -0.319948      0.163154
     5   Atom       -0.011169     -0.017130      0.009764
     6   Atom        0.002581      0.000748      0.015407
     7   Atom        0.000386     -0.001427     -0.013768
     8   Atom        0.008164     -0.070370      0.005119
     9   Atom        0.032022      0.003347      0.002216
 --------------------------------------------------------


 ---------------------------------------------------------------------------------
              Anisotropic Spin Dipole Couplings in Principal Axis System
 ---------------------------------------------------------------------------------

       Atom             a.u.   MegaHertz   Gauss  10(-4) cm-1        Axes

              Baa    -0.3410   -45.759   -16.328   -15.263 -0.2929  0.9560 -0.0163
     1 C(13)  Bbb    -0.2315   -31.070   -11.086   -10.364  0.9553  0.2933  0.0364
              Bcc     0.5725    76.829    27.414    25.627 -0.0396  0.0049  0.9992
 
              Baa    -0.2956   -39.672   -14.156   -13.233  0.3772  0.6140  0.6934
     2 C(13)  Bbb    -0.1012   -13.582    -4.846    -4.530 -0.2717  0.7891 -0.5509
              Bcc     0.3969    53.254    19.002    17.764  0.8854 -0.0195 -0.4644
 
              Baa    -0.0240   -12.827    -4.577    -4.279  0.2514  0.6932  0.6755
     3 H(1)   Bbb    -0.0109    -5.791    -2.066    -1.932 -0.5516  0.6761 -0.4885
              Bcc     0.0349    18.618     6.643     6.210  0.7953  0.2497 -0.5523
 
              Baa    -0.5790   -77.692   -27.723   -25.915 -0.0577  0.7803 -0.6228
     4 C(13)  Bbb    -0.3353   -44.989   -16.053   -15.007  0.2889  0.6102  0.7377
              Bcc     0.9142   122.681    43.776    40.922  0.9556 -0.1374 -0.2606
 
              Baa    -0.0543    -7.293    -2.602    -2.433  0.2237  0.9734 -0.0493
     5 C(13)  Bbb    -0.0116    -1.563    -0.558    -0.521  0.9460 -0.2046  0.2513
              Bcc     0.0660     8.855     3.160     2.954 -0.2345  0.1028  0.9667
 
              Baa    -0.0163    -8.696    -3.103    -2.901  0.0559 -0.5870  0.8076
     6 H(1)   Bbb    -0.0003    -0.175    -0.062    -0.058  0.9870 -0.0897 -0.1335
              Bcc     0.0166     8.871     3.165     2.959  0.1508  0.8046  0.5744
 
              Baa    -0.0172    -9.169    -3.272    -3.058  0.0508  0.5118  0.8576
     7 H(1)   Bbb     0.0030     1.592     0.568     0.531  0.9942 -0.1077  0.0054
              Bcc     0.0142     7.577     2.704     2.527  0.0951  0.8523 -0.5142
 
              Baa    -0.3612   -48.470   -17.295   -16.168 -0.5335  0.8449 -0.0395
     8 C(13)  Bbb    -0.3424   -45.949   -16.396   -15.327  0.8431  0.5349  0.0544
              Bcc     0.7036    94.419    33.691    31.495 -0.0670  0.0043  0.9977
 
              Baa    -0.0428   -22.849    -8.153    -7.622 -0.3478  0.9371 -0.0299
     9 H(1)   Bbb    -0.0125    -6.673    -2.381    -2.226 -0.0645  0.0079  0.9979
              Bcc     0.0553    29.522    10.534     9.847  0.9354  0.3490  0.0577
 

 ---------------------------------------------------------------------------------

 No NMR shielding tensors so no spin-rotation constants.
 Leave Link  601 at Mon Jun 20 09:14:18 2016, MaxMem=    33554432 cpu:         2.2
 (Enter /home/proyectos/fulerenos/M3C-v1.9/M3C-deps_CCC/g09-AM64L-G09RevC.01/l701.exe)
 Compute integral second derivatives.
 ... and contract with generalized density number  0.
 Leave Link  701 at Mon Jun 20 09:14:19 2016, MaxMem=    33554432 cpu:         2.0
 (Enter /home/proyectos/fulerenos/M3C-v1.9/M3C-deps_CCC/g09-AM64L-G09RevC.01/l702.exe)
 L702 exits ... SP integral derivatives will be done elsewhere.
 Leave Link  702 at Mon Jun 20 09:14:19 2016, MaxMem=    33554432 cpu:         0.1
 (Enter /home/proyectos/fulerenos/M3C-v1.9/M3C-deps_CCC/g09-AM64L-G09RevC.01/l703.exe)
 Compute integral second derivatives, UseDBF=F ICtDFT=           0.
 Integral derivatives from FoFJK, PRISM(SPDF).
 Calling FoFJK, ICntrl=    100127 FMM=F ISym2X=0 I1Cent= 0 IOpClX= 1 NMat=1 NMatS=1 NMatT=0.
 FoFJK:  IHMeth= 1 ICntrl=  100127 DoSepK=F KAlg= 0 I1Cent=   0 FoldK=F
 IRaf=         0 NMat=   1 IRICut=       1 DoRegI=T DoRafI=F ISym2E= 0.
 FoFCou: FMM=F IPFlag=           0 FMFlag=      100000 FMFlg1=         800
         NFxFlg=           0 DoJE=F BraDBF=F KetDBF=F FulRan=T
         wScrn=  0.000000 ICntrl=  100127 IOpCl=  1 I1Cent=           0 NGrid=           0
         NMat0=    1 NMatS0=      1 NMatT0=    0 NMatD0=    1 NMtDS0=    0 NMtDT0=    0
 Symmetry not used in FoFCou.
 Leave Link  703 at Mon Jun 20 09:17:13 2016, MaxMem=    33554432 cpu:       695.1
 (Enter /home/proyectos/fulerenos/M3C-v1.9/M3C-deps_CCC/g09-AM64L-G09RevC.01/l716.exe)
 Dipole        = 4.90649824D-02-2.93367901D-01 6.68096773D-02
 Polarizability= 8.53831329D+01 3.43692556D+00 3.83569997D+01
                -2.10594829D+00 3.01632215D+00 3.47774005D+01
 Full mass-weighted force constant matrix:
 Low frequencies ---  -16.0628   -7.2888    0.0002    0.0005    0.0006    9.4901
 Low frequencies ---   61.7556  182.8620  239.4242
 Diagonal vibrational polarizability:
        6.9202303      13.5353400       9.2630475
 Harmonic frequencies (cm**-1), IR intensities (KM/Mole), Raman scattering
 activities (A**4/AMU), depolarization ratios for plane and unpolarized
 incident light, reduced masses (AMU), force constants (mDyne/A),
 and normal coordinates:
                      1                      2                      3
                      A                      A                      A
 Frequencies --     61.7396               182.8618               239.4212
 Red. masses --      3.2300                 3.7695                 3.9246
 Frc consts  --      0.0073                 0.0743                 0.1325
 IR Inten    --      0.2436                 9.9570                 2.6783
  Atom  AN      X      Y      Z        X      Y      Z        X      Y      Z
     1   6    -0.04  -0.01  -0.00     0.00  -0.17   0.00    -0.04  -0.17   0.03
     2   6    -0.03  -0.13  -0.17     0.11  -0.07   0.20     0.11   0.26  -0.21
     3   1    -0.22  -0.49  -0.62     0.26   0.20   0.47     0.55   0.38   0.04
     4   6     0.16   0.19   0.23     0.01   0.21  -0.15     0.16  -0.19   0.10
     5   6     0.00  -0.09  -0.10     0.01  -0.19  -0.03    -0.09  -0.03   0.06
     6   1     0.08  -0.07  -0.11    -0.05  -0.06  -0.14    -0.18  -0.16   0.17
     7   1    -0.02  -0.10  -0.12    -0.00  -0.32  -0.12    -0.24   0.12   0.16
     8   6    -0.08   0.08   0.11    -0.14   0.20  -0.04    -0.14   0.09  -0.02
     9   1    -0.11   0.16   0.20    -0.24   0.47  -0.07    -0.19   0.24  -0.06
                      4                      5                      6
                      A                      A                      A
 Frequencies --    313.5102               381.5185               492.4450
 Red. masses --      2.1870                 1.6974                 6.2446
 Frc consts  --      0.1266                 0.1456                 0.8922
 IR Inten    --     18.7335                 6.2727                 5.3192
  Atom  AN      X      Y      Z        X      Y      Z        X      Y      Z
     1   6    -0.03   0.02   0.29    -0.03   0.09   0.03    -0.34   0.38  -0.07
     2   6     0.00   0.01  -0.04    -0.05  -0.15  -0.14     0.27   0.03   0.14
     3   1     0.00  -0.07  -0.13     0.34   0.54   0.69     0.37  -0.24  -0.17
     4   6     0.01  -0.01  -0.01     0.02   0.06   0.05     0.20  -0.04  -0.08
     5   6    -0.00   0.00  -0.01     0.01  -0.01   0.01    -0.01  -0.13   0.02
     6   1     0.26   0.36  -0.31     0.11  -0.11   0.08     0.13  -0.04  -0.06
     7   1    -0.21  -0.36  -0.33     0.02   0.06   0.07     0.20  -0.16   0.02
     8   6     0.01  -0.01  -0.13     0.01  -0.02  -0.01    -0.17  -0.15  -0.00
     9   1     0.04  -0.03  -0.55     0.04  -0.08  -0.04    -0.07  -0.44   0.08
                      7                      8                      9
                      A                      A                      A
 Frequencies --    690.8674               726.4777               757.5682
 Red. masses --      1.4272                 1.2597                 1.6374
 Frc consts  --      0.4013                 0.3917                 0.5537
 IR Inten    --      3.6752                41.2889                22.8956
  Atom  AN      X      Y      Z        X      Y      Z        X      Y      Z
     1   6     0.02   0.00  -0.07    -0.02   0.05   0.01    -0.02  -0.04   0.11
     2   6    -0.03  -0.00  -0.04    -0.00   0.01   0.00     0.05  -0.05   0.02
     3   1     0.34  -0.06  -0.08    -0.02   0.01  -0.00    -0.44   0.08   0.14
     4   6    -0.03   0.01   0.01    -0.01   0.00   0.00     0.08  -0.01  -0.02
     5   6    -0.01  -0.01   0.16     0.01  -0.01  -0.01    -0.01   0.09  -0.05
     6   1     0.11   0.40  -0.22     0.00  -0.03   0.01     0.04  -0.11   0.11
     7   1    -0.06  -0.42  -0.21     0.01   0.03   0.02    -0.11   0.22   0.05
     8   6     0.02   0.00  -0.06     0.05  -0.13   0.00    -0.04  -0.01  -0.14
     9   1    -0.04   0.05   0.62    -0.35   0.92  -0.02    -0.10  -0.01   0.79
                     10                     11                     12
                      A                      A                      A
 Frequencies --    786.6686               936.1350               963.4003
 Red. masses --      3.2344                 1.5646                 2.7729
 Frc consts  --      1.1793                 0.8078                 1.5164
 IR Inten    --     51.0761                13.4477                 7.2271
  Atom  AN      X      Y      Z        X      Y      Z        X      Y      Z
     1   6    -0.02  -0.10  -0.13    -0.02  -0.06   0.05    -0.06  -0.07  -0.02
     2   6     0.09  -0.16  -0.01    -0.01  -0.07   0.04    -0.05   0.11  -0.04
     3   1    -0.39   0.03   0.18     0.80  -0.28  -0.18    -0.33   0.19   0.03
     4   6     0.15  -0.02  -0.05    -0.04   0.00   0.02    -0.07   0.02   0.02
     5   6    -0.05   0.28   0.13     0.04   0.16  -0.08     0.31   0.01   0.04
     6   1     0.03   0.47  -0.08    -0.14  -0.02   0.07     0.70  -0.05   0.06
     7   1    -0.14  -0.15  -0.22     0.38   0.15  -0.00     0.39  -0.10  -0.01
     8   6    -0.11  -0.04   0.10    -0.06  -0.02  -0.02    -0.17  -0.06  -0.00
     9   1    -0.13   0.10  -0.51    -0.09   0.01   0.04    -0.18  -0.09  -0.02
                     13                     14                     15
                      A                      A                      A
 Frequencies --   1149.6897              1291.3327              1306.0083
 Red. masses --      1.1033                 1.0502                 1.4021
 Frc consts  --      0.8592                 1.0318                 1.4090
 IR Inten    --      7.4144               111.2334                 9.0615
  Atom  AN      X      Y      Z        X      Y      Z        X      Y      Z
     1   6     0.01  -0.01  -0.04    -0.00  -0.02   0.00     0.01  -0.03   0.01
     2   6     0.00  -0.01   0.05    -0.01  -0.01   0.00     0.01   0.02  -0.01
     3   1     0.24  -0.09  -0.04     0.02  -0.01   0.01    -0.09   0.05   0.01
     4   6    -0.02  -0.00   0.01     0.01  -0.00  -0.00     0.02  -0.00  -0.01
     5   6    -0.05   0.02  -0.03    -0.01  -0.05  -0.00    -0.18   0.00  -0.00
     6   1     0.75  -0.17   0.10     0.14   0.53  -0.44     0.51  -0.08   0.06
     7   1    -0.55   0.16  -0.02     0.08   0.55   0.44     0.81  -0.16   0.02
     8   6     0.01   0.00   0.01    -0.01  -0.00  -0.00     0.04   0.01   0.00
     9   1     0.01   0.01  -0.02    -0.01   0.00  -0.00     0.04   0.04   0.00
                     16                     17                     18
                      A                      A                      A
 Frequencies --   1761.0471              2041.5401              2773.5884
 Red. masses --     10.6448                 6.0923                 1.0738
 Frc consts  --     19.4504                14.9605                 4.8670
 IR Inten    --     32.4736               101.0910               190.5148
  Atom  AN      X      Y      Z        X      Y      Z        X      Y      Z
     1   6     0.02   0.02   0.00     0.52   0.20   0.03    -0.00  -0.00  -0.00
     2   6     0.67  -0.10  -0.21    -0.02   0.01   0.01     0.00  -0.06   0.05
     3   1    -0.32   0.01   0.02     0.01   0.01  -0.02     0.04   0.76  -0.64
     4   6    -0.57   0.06   0.22     0.01  -0.00  -0.00    -0.00  -0.00   0.01
     5   6    -0.06   0.02  -0.01    -0.09  -0.05  -0.01     0.00   0.00  -0.00
     6   1    -0.03   0.06  -0.09    -0.01  -0.04   0.01    -0.00   0.00  -0.01
     7   1    -0.01   0.08   0.05    -0.01  -0.04  -0.01    -0.01  -0.01   0.02
     8   6    -0.02  -0.01  -0.00    -0.35  -0.13  -0.02     0.00   0.00   0.00
     9   1    -0.03  -0.02  -0.01    -0.68  -0.25  -0.04     0.00   0.00  -0.00
                     19                     20                     21
                      A                      A                      A
 Frequencies --   2864.1250              2924.4909              3248.9925
 Red. masses --      1.0729                 1.0736                 1.1607
 Frc consts  --      5.1857                 5.4100                 7.2188
 IR Inten    --    193.3642               154.0425               317.6956
  Atom  AN      X      Y      Z        X      Y      Z        X      Y      Z
     1   6    -0.00  -0.00  -0.00     0.00   0.00  -0.00     0.03   0.01   0.00
     2   6     0.00  -0.00  -0.00    -0.00   0.00  -0.00    -0.00   0.00   0.00
     3   1     0.00   0.00  -0.00     0.00  -0.02   0.02    -0.00   0.00  -0.00
     4   6    -0.00   0.00   0.00     0.00  -0.00  -0.00     0.00  -0.00   0.00
     5   6     0.00  -0.05  -0.06     0.01   0.05  -0.06    -0.00   0.00  -0.00
     6   1     0.02   0.62   0.78     0.01  -0.01  -0.05     0.00  -0.01  -0.01
     7   1    -0.01  -0.04   0.00    -0.13  -0.60   0.78    -0.00  -0.01   0.01
     8   6    -0.00  -0.00  -0.00     0.00   0.00  -0.00    -0.11  -0.04  -0.01
     9   1     0.01   0.00   0.00    -0.01  -0.00  -0.00     0.93   0.35   0.06

 -------------------
 - Thermochemistry -
 -------------------
 Temperature   298.150 Kelvin.  Pressure   1.00000 Atm.
 Atom     1 has atomic number  6 and mass  12.00000
 Atom     2 has atomic number  6 and mass  12.00000
 Atom     3 has atomic number  1 and mass   1.00783
 Atom     4 has atomic number  6 and mass  12.00000
 Atom     5 has atomic number  6 and mass  12.00000
 Atom     6 has atomic number  1 and mass   1.00783
 Atom     7 has atomic number  1 and mass   1.00783
 Atom     8 has atomic number  6 and mass  12.00000
 Atom     9 has atomic number  1 and mass   1.00783
 Molecular mass:    64.03130 amu.
 Principal axes and moments of inertia in atomic units:
                           1         2         3
     Eigenvalues --    67.39895 692.19601 732.05095
           X            0.99993   0.00862   0.00790
           Y           -0.00812   0.99809  -0.06124
           Z           -0.00841   0.06117   0.99809
 This molecule is an asymmetric top.
 Rotational symmetry number  1.
 Rotational temperatures (Kelvin)      1.28509     0.12513     0.11832
 Rotational constants (GHZ):          26.77699     2.60727     2.46532
 Zero-point vibrational energy     154877.1 (Joules/Mol)
                                   37.01651 (Kcal/Mol)
 Warning -- explicit consideration of   6 degrees of freedom as
           vibrations may cause significant error
 Vibrational temperatures:     88.83   263.10   344.47   451.07   548.92
          (Kelvin)            708.52   994.00  1045.24  1089.97  1131.84
                             1346.89  1386.12  1654.14  1857.94  1879.05
                             2533.75  2937.32  3990.57  4120.83  4207.68
                             4674.57
 
 Zero-point correction=                           0.058990 (Hartree/Particle)
 Thermal correction to Energy=                    0.065211
 Thermal correction to Enthalpy=                  0.066155
 Thermal correction to Gibbs Free Energy=         0.028824
 Sum of electronic and zero-point Energies=           -191.781641
 Sum of electronic and thermal Energies=              -191.775420
 Sum of electronic and thermal Enthalpies=            -191.774476
 Sum of electronic and thermal Free Energies=         -191.811806
 
                     E (Thermal)             CV                S
                      KCal/Mol        Cal/Mol-Kelvin    Cal/Mol-Kelvin
 Total                   40.920             20.474             78.568
 Electronic               0.000              0.000              2.183
 Translational            0.889              2.981             38.389
 Rotational               0.889              2.981             25.038
 Vibrational             39.143             14.512             12.958
 Vibration     1          0.597              1.973              4.401
 Vibration     2          0.630              1.863              2.299
 Vibration     3          0.657              1.780              1.807
 Vibration     4          0.701              1.648              1.344
 Vibration     5          0.751              1.510              1.033
 Vibration     6          0.848              1.267              0.677
                       Q            Log10(Q)             Ln(Q)
 Total Bot       0.551693D-13        -13.258303        -30.528371
 Total V=0       0.749821D+14         13.874958         31.948271
 Vib (Bot)       0.138030D-25        -25.860026        -59.544910
 Vib (Bot)    1  0.334405D+01          0.524273          1.207183
 Vib (Bot)    2  0.109728D+01          0.040318          0.092836
 Vib (Bot)    3  0.819195D+00         -0.086613         -0.199434
 Vib (Bot)    4  0.601914D+00         -0.220466         -0.507641
 Vib (Bot)    5  0.473407D+00         -0.324766         -0.747800
 Vib (Bot)    6  0.335980D+00         -0.473686         -1.090703
 Vib (V=0)       0.187601D+02          1.273235          2.931731
 Vib (V=0)    1  0.388122D+01          0.588969          1.356151
 Vib (V=0)    2  0.170583D+01          0.231936          0.534052
 Vib (V=0)    3  0.145973D+01          0.164272          0.378251
 Vib (V=0)    4  0.128250D+01          0.108056          0.248808
 Vib (V=0)    5  0.118856D+01          0.075021          0.172742
 Vib (V=0)    6  0.110240D+01          0.042338          0.097487
 Electronic      0.300000D+01          0.477121          1.098612
 Translational   0.201393D+08          7.304044         16.818182
 Rotational      0.661543D+05          4.820558         11.099745
 
                                                              b3lyp opt
                                                             IR Spectrum
 
[...]
     X            X  X  X                            X                            X                                                  
     X            X  X  X                                                         X                                                  
     X            X  X  X                                                                                                            
     X            X  X  X                                                                                                            
     X            X  X  X                                                                                                            
     X               X  X                                                                                                            
     X               X  X                                                                                                            
     X                                                                                                                               
     X                                                                                                                               
     X                                                                                                                               
     X                                                                                                                               
     X                                                                                                                               
     X                                                                                                                               
     X                                                                                                                               
     X                                                                                                                               
 
 ***** Axes restored to original set *****
 -------------------------------------------------------------------
 Center     Atomic                   Forces (Hartrees/Bohr)
 Number     Number              X              Y              Z
 -------------------------------------------------------------------
      1        6          -0.000122937   -0.000023042    0.000046472
      2        6           0.000056964   -0.000042012    0.000038795
      3        1           0.000009126    0.000019526   -0.000032173
      4        6          -0.000016911   -0.000018017    0.000009773
      5        6          -0.000020509    0.000004037   -0.000063327
      6        1          -0.000005105    0.000044895    0.000052520
      7        1          -0.000017121   -0.000001100   -0.000002488
      8        6           0.000105926   -0.000031813   -0.000117161
      9        1           0.000010567    0.000047525    0.000067589
 -------------------------------------------------------------------
 Cartesian Forces:  Max     0.000122937 RMS     0.000050542
 Z-matrix is all fixed cartesians, so copy forces.
 Force constants in Cartesian coordinates: 
                1             2             3             4             5 
      1  0.107401D+01
      2  0.393626D+00  0.246908D+00
      3  0.570552D-01  0.214038D-01  0.942250D-01
      4 -0.452383D-01  0.111402D-01 -0.213604D-02  0.745998D+00
      5  0.114195D-01  0.125071D-01  0.224297D-03 -0.131720D+00  0.243695D+00
      6 -0.237601D-02 -0.559142D-04 -0.263301D-02 -0.194823D+00 -0.949287D-01
      7  0.244185D-02  0.490447D-03 -0.112321D-02 -0.330328D-01 -0.170511D-01
      8 -0.400063D-02  0.786969D-03 -0.323484D-03  0.592723D-02 -0.145382D+00
      9  0.202822D-04 -0.345122D-04  0.110233D-03 -0.275542D-02  0.122563D+00
     10 -0.204961D-02  0.219861D-02  0.128230D-02 -0.562843D+00  0.690375D-01
     11 -0.210215D-02 -0.682813D-03 -0.317162D-03  0.521839D-01 -0.116059D-03
     12  0.107769D-02 -0.280250D-03 -0.692494D-03  0.213349D+00 -0.395672D-01
     13 -0.238432D+00 -0.823240D-01 -0.123978D-01 -0.101228D+00  0.456391D-01
     14 -0.913910D-01 -0.969164D-01 -0.240351D-02  0.444988D-01 -0.785999D-01
     15 -0.150843D-01 -0.250474D-02 -0.413716D-01 -0.174518D-01  0.111413D-01
     16 -0.209993D-02 -0.187157D-01 -0.184136D-01 -0.454490D-02  0.150904D-01
     17 -0.106001D-01 -0.139926D-01 -0.129183D-01  0.100078D-01 -0.156420D-01
     18 -0.359710D-02 -0.282124D-03 -0.547894D-02  0.278235D-02  0.233553D-02
     19 -0.572843D-02 -0.173885D-01  0.198752D-01 -0.402762D-02  0.142470D-01
     20 -0.120397D-01 -0.134928D-01  0.113633D-01  0.756500D-02 -0.131081D-01
     21  0.499319D-02 -0.188245D-02 -0.217471D-02  0.167179D-03 -0.124378D-02
     22 -0.792968D+00 -0.290908D+00 -0.440003D-01  0.397773D-02 -0.625683D-02
     23 -0.288935D+00 -0.139656D+00 -0.171886D-01  0.129128D-02 -0.324863D-02
     24 -0.421159D-01 -0.164175D-01 -0.517039D-01  0.116199D-02 -0.791518D-03
     25  0.100693D-01  0.188051D-02 -0.141638D-03  0.938843D-03 -0.405213D-03
     26  0.402359D-02  0.453828D-02  0.159700D-03 -0.893886D-03 -0.105707D-03
     27  0.268950D-04  0.537526D-04  0.971947D-02 -0.294416D-03  0.267089D-03
                6             7             8             9            10 
      6  0.205069D+00
      7  0.269814D-01  0.257237D-01
      8  0.109223D+00  0.970017D-03  0.163580D+00
      9 -0.107477D+00 -0.114485D-01 -0.131762D+00  0.116776D+00
     10  0.179992D+00  0.615710D-02 -0.822147D-02  0.140512D-01  0.584880D+00
     11 -0.313353D-01 -0.216739D-02 -0.968482D-02  0.111179D-01 -0.642951D-01
     12 -0.658116D-01 -0.166964D-03  0.145788D-01 -0.128022D-01 -0.216609D+00
     13 -0.760389D-02  0.123132D-02  0.212220D-02 -0.665042D-03 -0.256902D-01
     14  0.172816D-01  0.151251D-01 -0.107284D-01 -0.191272D-02  0.729921D-02
     15 -0.283912D-01 -0.150272D-01  0.854127D-02  0.252679D-02  0.231102D-01
     16  0.115334D-01  0.126430D-02 -0.593875D-03  0.833654D-03 -0.409250D-02
     17 -0.114954D-01  0.353496D-04  0.842019D-03  0.103282D-03 -0.148243D-02
     18 -0.498383D-03  0.328315D-03  0.133915D-03  0.724790D-03 -0.194646D-02
     19 -0.157467D-01 -0.371123D-02  0.212137D-02  0.412425D-03  0.396572D-02
     20  0.100141D-01  0.242492D-02 -0.286692D-03  0.133495D-03 -0.489192D-02
     21 -0.103578D-02  0.427758D-03 -0.431796D-03  0.556231D-04  0.783539D-03
     22  0.180454D-02  0.431591D-04  0.132615D-02 -0.229166D-03 -0.183581D-03
     23  0.104962D-02  0.122964D-03  0.801689D-03 -0.946520D-04  0.459984D-03
     24  0.597544D-03  0.414851D-04  0.557596D-04  0.734503D-04 -0.907832D-03
     25  0.237733D-03 -0.117453D-03  0.349010D-03 -0.219359D-03 -0.144352D-03
     26  0.247494D-03  0.496823D-04  0.709591D-04 -0.114212D-03 -0.104425D-03
     27  0.181033D-03 -0.130170D-04 -0.155756D-04  0.129786D-04  0.243825D-03
               11            12            13            14            15 
     11  0.154953D-01
     12  0.209659D-01  0.863806D-01
     13  0.123945D-01  0.478769D-02  0.452023D+00
     14 -0.620998D-02  0.188272D-02  0.294391D-01  0.409738D+00
     15  0.938123D-03 -0.993297D-02  0.168171D-02 -0.216860D-01  0.401880D+00
     16  0.114700D-02  0.300086D-02 -0.383617D-01  0.602634D-03 -0.107995D-01
     17  0.733087D-03  0.515053D-03  0.674647D-02 -0.115606D+00 -0.113670D+00
     18  0.727029D-05  0.129405D-02 -0.145464D-03 -0.114600D+00 -0.163744D+00
     19  0.285901D-02 -0.437765D-02 -0.475006D-01 -0.194955D-01  0.322456D-01
     20  0.287776D-03  0.266579D-02 -0.763654D-02 -0.114032D+00  0.116569D+00
     21 -0.137858D-02  0.120736D-02  0.155606D-01  0.120508D+00 -0.176154D+00
     22  0.261576D-04 -0.103780D-02 -0.257395D-02  0.128802D-01  0.117708D-02
     23  0.235620D-03 -0.714666D-03 -0.391386D-02  0.704668D-02  0.105132D-02
     24  0.573157D-04  0.457782D-03 -0.136752D-02  0.108290D-02  0.136653D-01
     25 -0.459028D-04 -0.237485D-04  0.531851D-03  0.104150D-02  0.148140D-03
     26 -0.580820D-04 -0.461206D-04 -0.246700D-02  0.530785D-02 -0.380324D-03
     27 -0.554156D-04 -0.100578D-03  0.149704D-03 -0.152846D-03  0.152095D-02
               16            17            18            19            20 
     16  0.463975D-01
     17  0.453630D-03  0.137837D+00
     18  0.514082D-02  0.125279D+00  0.191394D+00
     19  0.262806D-02  0.158122D-03 -0.236124D-02  0.556784D-01
     20  0.165027D-02  0.704108D-02 -0.122394D-01  0.176368D-01  0.134590D+00
     21  0.619405D-02  0.116793D-01 -0.232554D-01 -0.273950D-01 -0.127485D+00
     22 -0.140559D-02 -0.434747D-02  0.235623D-03 -0.144234D-02 -0.384585D-02
     23 -0.359254D-03 -0.122388D-02 -0.380318D-03 -0.770918D-03 -0.102000D-02
     24  0.234844D-02  0.347294D-03 -0.626680D-03 -0.250024D-02 -0.762713D-03
     25  0.214703D-03 -0.971438D-03 -0.436846D-03  0.138067D-03 -0.863010D-03
     26  0.724846D-03  0.110621D-04 -0.253907D-03  0.632589D-03  0.210941D-04
     27  0.161863D-03  0.159268D-03  0.190743D-03 -0.152390D-03 -0.258445D-03
               21            22            23            24            25 
     21  0.202130D+00
     22 -0.109077D-02  0.112097D+01
     23 -0.155246D-03  0.407365D+00  0.206952D+00
     24 -0.942075D-03  0.619548D-01  0.234915D-01  0.671803D-01
     25  0.359436D-03 -0.326415D+00 -0.115259D+00 -0.186152D-01  0.314784D+00
     26  0.389262D-03 -0.116239D+00 -0.698878D-01 -0.706300D-02  0.114274D+00
     27  0.169004D-03 -0.188140D-01 -0.705893D-02 -0.287017D-01  0.186915D-01
               26            27 
     26  0.601023D-01
     27  0.706110D-02  0.170081D-01
 Leave Link  716 at Mon Jun 20 09:17:13 2016, MaxMem=    33554432 cpu:         0.1
 (Enter /home/proyectos/fulerenos/M3C-v1.9/M3C-deps_CCC/g09-AM64L-G09RevC.01/l103.exe)

 GradGradGradGradGradGradGradGradGradGradGradGradGradGradGradGradGradGrad
 Berny optimization.
 Search for a local minimum.
 Step number   1 out of a maximum of    2
 All quantities printed in internal units (Hartrees-Bohrs-Radians)
 Second derivative matrix not updated -- analytic derivatives used.
 ITU=  0
     Eigenvalues ---    0.00055   0.00488   0.00880   0.01326   0.02365
     Eigenvalues ---    0.03048   0.04848   0.05879   0.07289   0.07821
     Eigenvalues ---    0.09113   0.12666   0.15039   0.16976   0.37528
     Eigenvalues ---    0.48839   0.57487   0.62378   0.71111   1.39831
     Eigenvalues ---    2.22322
 Angle between quadratic step and forces=  65.02 degrees.
 Linear search not attempted -- first point.
 B after Tr=     0.000144   -0.000026    0.000012
         Rot=    1.000000    0.000015    0.000062   -0.000027 Ang=   0.01 deg.
 Variable       Old X    -DE/DX   Delta X   Delta X   Delta X     New X
                                 (Linear)    (Quad)   (Total)
    X1       -2.25693  -0.00012   0.00000  -0.00005   0.00009  -2.25684
    Y1        0.13309  -0.00002   0.00000  -0.00011  -0.00026   0.13283
    Z1       -0.02712   0.00005   0.00000  -0.00018  -0.00045  -0.02757
    X2        2.44282   0.00006   0.00000   0.00019   0.00031   2.44313
    Y2       -0.43147  -0.00004   0.00000   0.00038   0.00049  -0.43097
    Z2        0.35586   0.00004   0.00000   0.00009   0.00042   0.35627
    X3        2.52456   0.00001   0.00000  -0.00035  -0.00030   2.52426
    Y3       -2.09600   0.00002   0.00000  -0.00122  -0.00106  -2.09706
    Z3        1.68961  -0.00003   0.00000  -0.00194  -0.00156   1.68806
    X4        4.65192  -0.00002   0.00000   0.00043   0.00068   4.65260
    Y4       -0.60553  -0.00002   0.00000  -0.00006   0.00015  -0.60538
    Z4       -0.55299   0.00001   0.00000   0.00090   0.00150  -0.55149
    X5        0.16781  -0.00002   0.00000  -0.00016  -0.00010   0.16771
    Y5        1.31536   0.00000   0.00000   0.00015   0.00013   1.31549
    Z5        0.10580  -0.00006   0.00000  -0.00011  -0.00012   0.10568
    X6        0.16299  -0.00001   0.00000  -0.00043  -0.00064   0.16235
    Y6        2.63386   0.00004   0.00000   0.00045   0.00049   2.63435
    Z6        1.74141   0.00005   0.00000  -0.00006  -0.00011   1.74130
    X7        0.38083  -0.00002   0.00000  -0.00045  -0.00025   0.38058
    Y7        2.58385  -0.00000   0.00000   0.00002  -0.00003   2.58382
    Z7       -1.54077  -0.00000   0.00000  -0.00026  -0.00028  -1.54104
    X8       -4.45620   0.00011   0.00000   0.00031   0.00051  -4.45568
    Y8       -0.69327  -0.00003   0.00000  -0.00060  -0.00087  -0.69414
    Z8       -0.15072  -0.00012   0.00000  -0.00088  -0.00139  -0.15211
    X9       -6.36719   0.00001   0.00000  -0.00055  -0.00030  -6.36749
    Y9       -1.42355   0.00005   0.00000   0.00133   0.00095  -1.42260
    Z9       -0.27071   0.00007   0.00000   0.00272   0.00199  -0.26872
         Item               Value     Threshold  Converged?
 Maximum Force            0.000123     0.000450     YES
 RMS     Force            0.000051     0.000300     YES
 Maximum Displacement     0.001989     0.001800     NO 
 RMS     Displacement     0.000767     0.001200     YES
 Predicted change in Energy=-2.346500D-07
 GradGradGradGradGradGradGradGradGradGradGradGradGradGradGradGradGradGrad

 Leave Link  103 at Mon Jun 20 09:17:13 2016, MaxMem=    33554432 cpu:         0.1
 (Enter /home/proyectos/fulerenos/M3C-v1.9/M3C-deps_CCC/g09-AM64L-G09RevC.01/l9999.exe)
 1\1\GINC-BELVIS17\Freq\UB3LYP\6-311++G(3df,2p)\C5H4(2+,3)\ROOT\20-Jun-
 2016\0\\#p b3lyp/6-311++G(3df,2p) freq symmetry=Loose\\b3lyp opt\\2,3\
 C,-1.194317,0.070428,-0.014351\C,1.292686,-0.228322,0.188311\H,1.33594
 2,-1.109156,0.894104\C,2.461691,-0.320434,-0.292628\C,0.088801,0.69605
 7,0.055988\H,0.086252,1.39378,0.921512\H,0.201525,1.367315,-0.815338\C
 ,-2.358117,-0.366863,-0.079756\H,-3.369372,-0.753308,-0.143255\\Versio
 n=EM64L-G09RevE.01\State=3-A\HF=-191.8406305\S2=2.017658\S2-1=0.\S2A=2
 .000115\RMSD=8.578e-09\RMSF=5.054e-05\ZeroPoint=0.0589896\Thermal=0.06
 52107\Dipole=0.0490874,-0.2933065,0.0670624\DipoleDeriv=-0.2509138,0.1
 425401,-0.088154,0.0039337,0.2217086,0.0206058,0.0032807,-0.0027124,0.
 2673353,-0.1400061,-0.114108,0.0206823,0.09046,0.1659431,0.4696441,0.0
 09984,0.4502078,0.2952222,0.1135417,-0.0563176,0.0153309,0.0187637,0.2
 843197,-0.2235873,0.0009864,-0.1661635,0.2359983,0.5507499,0.2351009,-
 0.0111599,0.0787104,0.4144703,-0.0890279,-0.0478093,-0.1775955,0.42055
 38,0.6035117,-0.328639,0.0041068,-0.780975,-0.2708699,-0.2054323,0.002
 1407,-0.1385498,-0.2711016,-0.0027799,0.0732875,0.0378558,0.1942408,0.
 3268133,0.070679,0.0262107,0.1221077,0.2927562,0.0357074,0.0044501,0.0
 111395,0.1850314,0.3272161,-0.0465686,-0.0402073,-0.0914586,0.243655,0
 .4492655,-0.0631227,-0.0120927,0.0751574,0.2332147,0.0004197,0.0229176
 ,-0.0017126,0.339613,0.6409235,0.1068088,0.0222913,0.1346776,0.2971841
 ,0.0032675,0.0224965,0.0058769,0.1759679\Polar=85.382388,3.4380311,38.
 3626729,-2.1133266,3.0127775,34.7724722\PG=C01 [X(C5H4)]\NImag=0\\1.07
 400553,0.39362598,0.24690824,0.05705518,0.02140379,0.09422498,-0.04523
 829,0.01114023,-0.00213604,0.74599776,0.01141950,0.01250712,0.00022430
 ,-0.13172033,0.24369525,-0.00237601,-0.00005591,-0.00263301,-0.1948225
 1,-0.09492870,0.20506879,0.00244185,0.00049045,-0.00112321,-0.03303278
 ,-0.01705106,0.02698136,0.02572374,-0.00400063,0.00078697,-0.00032348,
 0.00592723,-0.14538202,0.10922265,0.00097002,0.16358026,0.00002028,-0.
 00003451,0.00011023,-0.00275542,0.12256297,-0.10747740,-0.01144855,-0.
 13176152,0.11677572,-0.00204961,0.00219861,0.00128230,-0.56284284,0.06
 903751,0.17999201,0.00615710,-0.00822147,0.01405118,0.58488024,-0.0021
 0215,-0.00068281,-0.00031716,0.05218389,-0.00011606,-0.03133534,-0.002
 16739,-0.00968482,0.01111787,-0.06429507,0.01549526,0.00107769,-0.0002
 8025,-0.00069249,0.21334864,-0.03956723,-0.06581161,-0.00016696,0.0145
 7878,-0.01280219,-0.21660871,0.02096592,0.08638065,-0.23843200,-0.0823
 2395,-0.01239782,-0.10122791,0.04563906,-0.00760389,0.00123132,0.00212
 220,-0.00066504,-0.02569017,0.01239447,0.00478769,0.45202313,-0.091391
 05,-0.09691639,-0.00240351,0.04449876,-0.07859991,0.01728157,0.0151250
 6,-0.01072836,-0.00191272,0.00729921,-0.00620998,0.00188272,0.02943915
 ,0.40973807,-0.01508427,-0.00250474,-0.04137161,-0.01745176,0.01114133
 ,-0.02839118,-0.01502718,0.00854127,0.00252679,0.02311015,0.00093812,-
 0.00993297,0.00168171,-0.02168599,0.40188012,-0.00209993,-0.01871565,-
 0.01841363,-0.00454490,0.01509040,0.01153343,0.00126430,-0.00059387,0.
 00083365,-0.00409250,0.00114700,0.00300086,-0.03836168,0.00060263,-0.0
 1079949,0.04639754,-0.01060008,-0.01399258,-0.01291831,0.01000784,-0.0
 1564196,-0.01149545,0.00003535,0.00084202,0.00010328,-0.00148243,0.000
 73309,0.00051505,0.00674647,-0.11560580,-0.11366973,0.00045363,0.13783
 698,-0.00359710,-0.00028212,-0.00547894,0.00278235,0.00233553,-0.00049
 838,0.00032831,0.00013391,0.00072479,-0.00194646,0.00000727,0.00129405
 ,-0.00014546,-0.11460035,-0.16374377,0.00514082,0.12527934,0.19139362,
 -0.00572843,-0.01738849,0.01987516,-0.00402762,0.01424696,-0.01574666,
 -0.00371123,0.00212137,0.00041243,0.00396572,0.00285901,-0.00437765,-0
 .04750060,-0.01949547,0.03224562,0.00262806,0.00015812,-0.00236124,0.0
 5567838,-0.01203970,-0.01349279,0.01136332,0.00756500,-0.01310809,0.01
 001408,0.00242492,-0.00028669,0.00013349,-0.00489192,0.00028778,0.0026
 6579,-0.00763654,-0.11403215,0.11656874,0.00165027,0.00704108,-0.01223
 936,0.01763683,0.13458978,0.00499319,-0.00188245,-0.00217471,0.0001671
 8,-0.00124378,-0.00103578,0.00042776,-0.00043180,0.00005562,0.00078354
 ,-0.00137858,0.00120736,0.01556064,0.12050824,-0.17615361,0.00619405,0
 .01167926,-0.02325543,-0.02739502,-0.12748491,0.20212961,-0.79296844,-
 0.29090769,-0.04400031,0.00397773,-0.00625683,0.00180454,0.00004316,0.
 00132615,-0.00022917,-0.00018358,0.00002616,-0.00103780,-0.00257395,0.
 01288021,0.00117708,-0.00140559,-0.00434747,0.00023562,-0.00144234,-0.
 00384585,-0.00109077,1.12096763,-0.28893546,-0.13965603,-0.01718862,0.
 00129128,-0.00324863,0.00104962,0.00012296,0.00080169,-0.00009465,0.00
 045998,0.00023562,-0.00071467,-0.00391386,0.00704668,0.00105132,-0.000
 35925,-0.00122388,-0.00038032,-0.00077092,-0.00102000,-0.00015525,0.40
 736455,0.20695233,-0.04211587,-0.01641754,-0.05170391,0.00116199,-0.00
 079152,0.00059754,0.00004149,0.00005576,0.00007345,-0.00090783,0.00005
 732,0.00045778,-0.00136752,0.00108290,0.01366527,0.00234844,0.00034729
 ,-0.00062668,-0.00250024,-0.00076271,-0.00094208,0.06195480,0.02349150
 ,0.06718030,0.01006932,0.00188051,-0.00014164,0.00093884,-0.00040521,0
 .00023773,-0.00011745,0.00034901,-0.00021936,-0.00014435,-0.00004590,-
 0.00002375,0.00053185,0.00104150,0.00014814,0.00021470,-0.00097144,-0.
 00043685,0.00013807,-0.00086301,0.00035944,-0.32641462,-0.11525928,-0.
 01861525,0.31478364,0.00402359,0.00453828,0.00015970,-0.00089389,-0.00
 010571,0.00024749,0.00004968,0.00007096,-0.00011421,-0.00010443,-0.000
 05808,-0.00004612,-0.00246700,0.00530785,-0.00038032,0.00072485,0.0000
 1106,-0.00025391,0.00063259,0.00002109,0.00038926,-0.11623922,-0.06988
 779,-0.00706300,0.11427383,0.06010234,0.00002689,0.00005375,0.00971947
 ,-0.00029442,0.00026709,0.00018103,-0.00001302,-0.00001558,0.00001298,
 0.00024382,-0.00005542,-0.00010058,0.00014970,-0.00015285,0.00152095,0
 .00016186,0.00015927,0.00019074,-0.00015239,-0.00025845,0.00016900,-0.
 01881400,-0.00705893,-0.02870167,0.01869153,0.00706110,0.01700807\\0.0
 0012294,0.00002304,-0.00004647,-0.00005696,0.00004201,-0.00003879,-0.0
 0000913,-0.00001953,0.00003217,0.00001691,0.00001802,-0.00000977,0.000
 02051,-0.00000404,0.00006333,0.00000510,-0.00004489,-0.00005252,0.0000
 1712,0.00000110,0.00000249,-0.00010593,0.00003181,0.00011716,-0.000010
 57,-0.00004752,-0.00006759\\\@


 The hours that make us happy make us wise.
                         -- John Masefield
 Job cpu time:       0 days  1 hours  9 minutes 15.7 seconds.
 File lengths (MBytes):  RWF=     79 Int=      0 D2E=      0 Chk=      5 Scr=      1
 Normal termination of Gaussian 09 at Mon Jun 20 09:17:13 2016.
