 Entering Gaussian System, Link 0=/home/proyectos/fulerenos/M3C-v1.9/M3C-deps_CCC/g09-AM64L-G09RevC.01/g09
 Initial command:
 /home/proyectos/fulerenos/M3C-v1.9/M3C-deps_CCC/g09-AM64L-G09RevC.01/l1.exe "/scratch/naguirre/gaussian/Gau-24068.inp" -scrdir="/scratch/naguirre/gaussian/"
 Entering Link 1 = /home/proyectos/fulerenos/M3C-v1.9/M3C-deps_CCC/g09-AM64L-G09RevC.01/l1.exe PID=     24078.
  
 Copyright (c) 1988,1990,1992,1993,1995,1998,2003,2009,2015,
            Gaussian, Inc.  All Rights Reserved.
  
 This is part of the Gaussian(R) 09 program.  It is based on
 the Gaussian(R) 03 system (copyright 2003, Gaussian, Inc.),
 the Gaussian(R) 98 system (copyright 1998, Gaussian, Inc.),
 the Gaussian(R) 94 system (copyright 1995, Gaussian, Inc.),
 the Gaussian 92(TM) system (copyright 1992, Gaussian, Inc.),
 the Gaussian 90(TM) system (copyright 1990, Gaussian, Inc.),
 the Gaussian 88(TM) system (copyright 1988, Gaussian, Inc.),
 the Gaussian 86(TM) system (copyright 1986, Carnegie Mellon
 University), and the Gaussian 82(TM) system (copyright 1983,
 Carnegie Mellon University). Gaussian is a federally registered
 trademark of Gaussian, Inc.
  
 This software contains proprietary and confidential information,
 including trade secrets, belonging to Gaussian, Inc.
  
 This software is provided under written license and may be
 used, copied, transmitted, or stored only in accord with that
 written license.
  
 The following legend is applicable only to US Government
 contracts under FAR:
  
                    RESTRICTED RIGHTS LEGEND
  
 Use, reproduction and disclosure by the US Government is
 subject to restrictions as set forth in subparagraphs (a)
 and (c) of the Commercial Computer Software - Restricted
 Rights clause in FAR 52.227-19.
  
 Gaussian, Inc.
 340 Quinnipiac St., Bldg. 40, Wallingford CT 06492
  
  
 ---------------------------------------------------------------
 Warning -- This program may not be used in any manner that
 competes with the business of Gaussian, Inc. or will provide
 assistance to any competitor of Gaussian, Inc.  The licensee
 of this program is prohibited from giving any competitor of
 Gaussian, Inc. access to this program.  By using this program,
 the user acknowledges that Gaussian, Inc. is engaged in the
 business of creating and licensing software in the field of
 computational chemistry and represents and warrants to the
 licensee that it is not a competitor of Gaussian, Inc. and that
 it will not use this program in any manner prohibited above.
 ---------------------------------------------------------------
  

 Cite this work as:
 Gaussian 09, Revision E.01,
 M. J. Frisch, G. W. Trucks, H. B. Schlegel, G. E. Scuseria, 
 M. A. Robb, J. R. Cheeseman, G. Scalmani, V. Barone, B. Mennucci, 
 G. A. Petersson, H. Nakatsuji, M. Caricato, X. Li, H. P. Hratchian, 
 A. F. Izmaylov, J. Bloino, G. Zheng, J. L. Sonnenberg, M. Hada, 
 M. Ehara, K. Toyota, R. Fukuda, J. Hasegawa, M. Ishida, T. Nakajima, 
 Y. Honda, O. Kitao, H. Nakai, T. Vreven, J. A. Montgomery, Jr., 
 J. E. Peralta, F. Ogliaro, M. Bearpark, J. J. Heyd, E. Brothers, 
 K. N. Kudin, V. N. Staroverov, T. Keith, R. Kobayashi, J. Normand, 
 K. Raghavachari, A. Rendell, J. C. Burant, S. S. Iyengar, J. Tomasi, 
 M. Cossi, N. Rega, J. M. Millam, M. Klene, J. E. Knox, J. B. Cross, 
 V. Bakken, C. Adamo, J. Jaramillo, R. Gomperts, R. E. Stratmann, 
 O. Yazyev, A. J. Austin, R. Cammi, C. Pomelli, J. W. Ochterski, 
 R. L. Martin, K. Morokuma, V. G. Zakrzewski, G. A. Voth, 
 P. Salvador, J. J. Dannenberg, S. Dapprich, A. D. Daniels, 
 O. Farkas, J. B. Foresman, J. V. Ortiz, J. Cioslowski, 
 and D. J. Fox, Gaussian, Inc., Wallingford CT, 2013.
 
 ******************************************
 Gaussian 09:  EM64L-G09RevE.01 30-Nov-2015
                20-Jun-2016 
 ******************************************
 %NProcShared=4
 Will use up to    4 processors via shared memory.
 ---------------------------------------------
 #p b3lyp/6-311++G(3df,2p) freq symmetry=Loose
 ---------------------------------------------
 1/10=4,30=1,38=1/1,3;
 2/12=2,17=4,18=3,40=1/2;
 3/5=4,6=6,7=1216,11=2,16=1,25=1,30=1,71=2,74=-5,140=1/1,2,3;
 4//1;
 5/5=2,38=5,98=1/2;
 8/6=4,10=90,11=11/1;
 11/6=1,8=1,9=11,15=111,16=1/1,2,10;
 10/6=1/2;
 6/7=2,8=2,9=2,10=2,18=1,28=1/1;
 7/8=1,10=1,25=1/1,2,3,16;
 1/10=4,30=1/3;
 99//99;
 Leave Link    1 at Mon Jun 20 02:48:31 2016, MaxMem=           0 cpu:         0.3
 (Enter /home/proyectos/fulerenos/M3C-v1.9/M3C-deps_CCC/g09-AM64L-G09RevC.01/l101.exe)
 ---------
 b3lyp opt
 ---------
 Symbolic Z-matrix:
 Charge =  0 Multiplicity = 3
 C                     0.35411  -0.84374   0.44682 
 C                     1.54026  -0.1441   -0.25052 
 H                     1.6647   -0.50238  -1.26832 
 H                     0.6032    1.58164   0.8088 
 H                     2.48029  -0.06001   0.28556 
 C                     0.48945   0.83531   0.02888 
 C                    -0.68741  -0.00026  -0.03431 
 C                    -2.01219   0.08101  -0.14195 
 H                    -2.85352  -0.58855  -0.11953 
 
 NAtoms=      9 NQM=        9 NQMF=       0 NMMI=      0 NMMIF=      0
                NMic=       0 NMicF=      0.
                    Isotopes and Nuclear Properties:
 (Nuclear quadrupole moments (NQMom) in fm**2, nuclear magnetic moments (NMagM)
  in nuclear magnetons)

  Atom         1           2           3           4           5           6           7           8           9
 IAtWgt=          12          12           1           1           1          12          12          12           1
 AtmWgt=  12.0000000  12.0000000   1.0078250   1.0078250   1.0078250  12.0000000  12.0000000  12.0000000   1.0078250
 NucSpn=           0           0           1           1           1           0           0           0           1
 AtZEff=   0.0000000   0.0000000   0.0000000   0.0000000   0.0000000   0.0000000   0.0000000   0.0000000   0.0000000
 NQMom=    0.0000000   0.0000000   0.0000000   0.0000000   0.0000000   0.0000000   0.0000000   0.0000000   0.0000000
 NMagM=    0.0000000   0.0000000   2.7928460   2.7928460   2.7928460   0.0000000   0.0000000   0.0000000   2.7928460
 AtZNuc=   6.0000000   6.0000000   1.0000000   1.0000000   1.0000000   6.0000000   6.0000000   6.0000000   1.0000000
 Leave Link  101 at Mon Jun 20 02:48:31 2016, MaxMem=    33554432 cpu:         0.2
 (Enter /home/proyectos/fulerenos/M3C-v1.9/M3C-deps_CCC/g09-AM64L-G09RevC.01/l103.exe)

 GradGradGradGradGradGradGradGradGradGradGradGradGradGradGradGradGradGrad
 Berny optimization.
 Initialization pass.
 Trust Radius=3.00D-01 FncErr=1.00D-07 GrdErr=1.00D-07
 Number of steps in this run=      2 maximum allowed number of steps=      2.
 GradGradGradGradGradGradGradGradGradGradGradGradGradGradGradGradGradGrad

 Leave Link  103 at Mon Jun 20 02:48:31 2016, MaxMem=    33554432 cpu:         0.1
 (Enter /home/proyectos/fulerenos/M3C-v1.9/M3C-deps_CCC/g09-AM64L-G09RevC.01/l202.exe)
                          Input orientation:                          
 ---------------------------------------------------------------------
 Center     Atomic      Atomic             Coordinates (Angstroms)
 Number     Number       Type             X           Y           Z
 ---------------------------------------------------------------------
      1          6           0        0.354114   -0.843743    0.446815
      2          6           0        1.540257   -0.144096   -0.250524
      3          1           0        1.664696   -0.502375   -1.268317
      4          1           0        0.603203    1.581635    0.808795
      5          1           0        2.480293   -0.060009    0.285560
      6          6           0        0.489446    0.835305    0.028877
      7          6           0       -0.687405   -0.000261   -0.034307
      8          6           0       -2.012191    0.081012   -0.141946
      9          1           0       -2.853515   -0.588545   -0.119531
 ---------------------------------------------------------------------
                    Distance matrix (angstroms):
                    1          2          3          4          5
     1  C    0.000000
     2  C    1.543607   0.000000
     3  H    2.185368   1.086164   0.000000
     4  H    2.464860   2.231227   3.127980   0.000000
     5  H    2.271757   1.085414   1.809812   2.547987   0.000000
     6  C    1.735566   1.463385   2.203024   1.085459   2.197941
     7  C    1.423974   2.242747   2.703198   2.208820   3.184367
     8  C    2.607913   3.561229   3.889544   3.161655   4.514982
     9  H    3.267225   4.418136   4.662764   4.185734   5.375217
                    6          7          8          9
     6  C    0.000000
     7  C    1.444694   0.000000
     8  C    2.618459   1.331634   0.000000
     9  H    3.636587   2.246191   1.075470   0.000000
 Stoichiometry    C5H4(3)
 Framework group  C1[X(C5H4)]
 Deg. of freedom    21
 Full point group                 C1      NOp   1
 Largest Abelian subgroup         C1      NOp   1
 Largest concise Abelian subgroup C1      NOp   1
                         Standard orientation:                         
 ---------------------------------------------------------------------
 Center     Atomic      Atomic             Coordinates (Angstroms)
 Number     Number       Type             X           Y           Z
 ---------------------------------------------------------------------
      1          6           0       -0.354114   -0.843743   -0.446815
      2          6           0       -1.540257   -0.144096    0.250524
      3          1           0       -1.664696   -0.502375    1.268317
      4          1           0       -0.603203    1.581635   -0.808795
      5          1           0       -2.480293   -0.060009   -0.285560
      6          6           0       -0.489446    0.835305   -0.028877
      7          6           0        0.687405   -0.000261    0.034307
      8          6           0        2.012191    0.081012    0.141946
      9          1           0        2.853515   -0.588545    0.119531
 ---------------------------------------------------------------------
 Rotational constants (GHZ):     19.3458413      4.5866630      4.0351809
 Leave Link  202 at Mon Jun 20 02:48:32 2016, MaxMem=    33554432 cpu:         0.0
 (Enter /home/proyectos/fulerenos/M3C-v1.9/M3C-deps_CCC/g09-AM64L-G09RevC.01/l301.exe)
 Standard basis: 6-311++G(3df,2p) (5D, 7F)
 Ernie: Thresh=  0.10000D-02 Tol=  0.10000D-05 Strict=F.
 There are   265 symmetry adapted cartesian basis functions of A   symmetry.
 There are   235 symmetry adapted basis functions of A   symmetry.
   235 basis functions,   338 primitive gaussians,   265 cartesian basis functions
    18 alpha electrons       16 beta electrons
       nuclear repulsion energy       136.9213038723 Hartrees.
 IExCor=  402 DFT=T Ex+Corr=B3LYP ExCW=0 ScaHFX=  0.200000
 ScaDFX=  0.800000  0.720000  1.000000  0.810000 ScalE2=  1.000000  1.000000
 IRadAn=      0 IRanWt=     -1 IRanGd=            0 ICorTp=0 IEmpDi=  4
 NAtoms=    9 NActive=    9 NUniq=    9 SFac= 1.00D+00 NAtFMM=   60 NAOKFM=F Big=F
 Integral buffers will be    131072 words long.
 Raffenetti 2 integral format.
 Two-electron integral symmetry is turned on.
 Leave Link  301 at Mon Jun 20 02:48:32 2016, MaxMem=    33554432 cpu:         0.1
 (Enter /home/proyectos/fulerenos/M3C-v1.9/M3C-deps_CCC/g09-AM64L-G09RevC.01/l302.exe)
 NPDir=0 NMtPBC=     1 NCelOv=     1 NCel=       1 NClECP=     1 NCelD=      1
         NCelK=      1 NCelE2=     1 NClLst=     1 CellRange=     0.0.
 One-electron integrals computed using PRISM.
 NBasis=   235 RedAO= T EigKep=  6.37D-06  NBF=   235
 NBsUse=   235 1.00D-06 EigRej= -1.00D+00 NBFU=   235
 Precomputing XC quadrature grid using
 IXCGrd= 4 IRadAn=           0 IRanWt=          -1 IRanGd=           0 AccXCQ= 0.00D+00.
 Generated NRdTot=       0 NPtTot=           0 NUsed=           0 NTot=          32
 NSgBfM=   265   265   265   265   265 MxSgAt=     9 MxSgA2=     9.
 Leave Link  302 at Mon Jun 20 02:48:32 2016, MaxMem=    33554432 cpu:         1.5
 (Enter /home/proyectos/fulerenos/M3C-v1.9/M3C-deps_CCC/g09-AM64L-G09RevC.01/l303.exe)
 DipDrv:  MaxL=1.
 Leave Link  303 at Mon Jun 20 02:48:32 2016, MaxMem=    33554432 cpu:         0.1
 (Enter /home/proyectos/fulerenos/M3C-v1.9/M3C-deps_CCC/g09-AM64L-G09RevC.01/l401.exe)
 ExpMin= 3.60D-02 ExpMax= 4.56D+03 ExpMxC= 6.82D+02 IAcc=3 IRadAn=         5 AccDes= 0.00D+00
 Harris functional with IExCor=  402 and IRadAn=       5 diagonalized for initial guess.
 HarFok:  IExCor=  402 AccDes= 0.00D+00 IRadAn=         5 IDoV= 1 UseB2=F ITyADJ=14
 ICtDFT=  3500011 ScaDFX=  1.000000  1.000000  1.000000  1.000000
 FoFCou: FMM=F IPFlag=           0 FMFlag=      100000 FMFlg1=           0
         NFxFlg=           0 DoJE=T BraDBF=F KetDBF=T FulRan=T
         wScrn=  0.000000 ICntrl=     500 IOpCl=  0 I1Cent=   200000004 NGrid=           0
         NMat0=    1 NMatS0=      1 NMatT0=    0 NMatD0=    1 NMtDS0=    0 NMtDT0=    0
 Petite list used in FoFCou.
 Harris En= -192.687347914066    
 JPrj=0 DoOrth=F DoCkMO=F.
 Initial guess <Sx>= 0.0000 <Sy>= 0.0000 <Sz>= 1.0000 <S**2>= 2.0000 S= 1.0000
 Leave Link  401 at Mon Jun 20 02:48:35 2016, MaxMem=    33554432 cpu:        11.6
 (Enter /home/proyectos/fulerenos/M3C-v1.9/M3C-deps_CCC/g09-AM64L-G09RevC.01/l502.exe)
 UHF open shell SCF:
 Using DIIS extrapolation, IDIIS=  1040.
 Integral symmetry usage will be decided dynamically.
 IVT=      232727 IEndB=      232727 NGot=    33554432 MDV=    33408836
 LenX=    33408836 LenY=    33338170
 Requested convergence on RMS density matrix=1.00D-08 within 128 cycles.
 Requested convergence on MAX density matrix=1.00D-06.
 Requested convergence on             energy=1.00D-06.
 No special actions if energy rises.
 Fock matrices will be formed incrementally for  20 cycles.

 Cycle   1  Pass 1  IDiag  1:
 FoFJK:  IHMeth= 1 ICntrl=       0 DoSepK=F KAlg= 0 I1Cent=   0 FoldK=F
 IRaf= 980000000 NMat=   1 IRICut=       1 DoRegI=T DoRafI=F ISym2E= 0.
 FoFCou: FMM=F IPFlag=           0 FMFlag=      100000 FMFlg1=           0
         NFxFlg=           0 DoJE=F BraDBF=F KetDBF=F FulRan=T
         wScrn=  0.000000 ICntrl=       0 IOpCl=  1 I1Cent=           0 NGrid=           0
         NMat0=    1 NMatS0=      1 NMatT0=    0 NMatD0=    1 NMtDS0=    0 NMtDT0=    0
 Symmetry not used in FoFCou.
 E= -192.623091153304    
 DIIS: error= 1.34D-02 at cycle   1 NSaved=   1.
 NSaved= 1 IEnMin= 1 EnMin= -192.623091153304     IErMin= 1 ErrMin= 1.34D-02
 ErrMax= 1.34D-02  0.00D+00 EMaxC= 1.00D-01 BMatC= 3.84D-01 BMatP= 3.84D-01
 IDIUse=3 WtCom= 8.66D-01 WtEn= 1.34D-01
 Coeff-Com:  0.100D+01
 Coeff-En:   0.100D+01
 Coeff:      0.100D+01
 Gap=     0.211 Goal=   None    Shift=    0.000
 Gap=     0.114 Goal=   None    Shift=    0.000
 GapD=    0.114 DampG=1.000 DampE=0.500 DampFc=0.5000 IDamp=-1.
 Damping current iteration by 5.00D-01
 RMSDP=4.84D-03 MaxDP=2.64D-01              OVMax= 1.69D-01

 Cycle   2  Pass 1  IDiag  1:
 RMSU=  2.03D-03    CP:  9.12D-01
 E= -192.667948647719     Delta-E=       -0.044857494416 Rises=F Damp=T
 DIIS: error= 3.50D-03 at cycle   2 NSaved=   2.
 NSaved= 2 IEnMin= 2 EnMin= -192.667948647719     IErMin= 2 ErrMin= 3.50D-03
 ErrMax= 3.50D-03  0.00D+00 EMaxC= 1.00D-01 BMatC= 2.74D-02 BMatP= 3.84D-01
 IDIUse=3 WtCom= 9.65D-01 WtEn= 3.50D-02
 Coeff-Com: -0.344D-02 0.100D+01
 Coeff-En:   0.155D-01 0.984D+00
 Coeff:     -0.277D-02 0.100D+01
 Gap=     0.219 Goal=   None    Shift=    0.000
 Gap=     0.111 Goal=   None    Shift=    0.000
 RMSDP=1.26D-03 MaxDP=5.58D-02 DE=-4.49D-02 OVMax= 9.81D-02

 Cycle   3  Pass 1  IDiag  1:
 RMSU=  1.25D-03    CP:  9.03D-01  9.77D-01
 E= -192.718762623636     Delta-E=       -0.050813975917 Rises=F Damp=F
 DIIS: error= 4.15D-03 at cycle   3 NSaved=   3.
 NSaved= 3 IEnMin= 3 EnMin= -192.718762623636     IErMin= 2 ErrMin= 3.50D-03
 ErrMax= 4.15D-03  0.00D+00 EMaxC= 1.00D-01 BMatC= 1.81D-02 BMatP= 2.74D-02
 IDIUse=3 WtCom= 9.58D-01 WtEn= 4.15D-02
 Coeff-Com: -0.744D-01 0.454D+00 0.621D+00
 Coeff-En:   0.000D+00 0.000D+00 0.100D+01
 Coeff:     -0.714D-01 0.435D+00 0.636D+00
 Gap=     0.207 Goal=   None    Shift=    0.000
 Gap=     0.104 Goal=   None    Shift=    0.000
 RMSDP=6.98D-04 MaxDP=3.06D-02 DE=-5.08D-02 OVMax= 3.98D-02

 Cycle   4  Pass 1  IDiag  1:
 RMSU=  6.48D-04    CP:  8.96D-01  9.78D-01  8.09D-01
 E= -192.721960721234     Delta-E=       -0.003198097599 Rises=F Damp=F
 DIIS: error= 2.24D-03 at cycle   4 NSaved=   4.
 NSaved= 4 IEnMin= 4 EnMin= -192.721960721234     IErMin= 4 ErrMin= 2.24D-03
 ErrMax= 2.24D-03  0.00D+00 EMaxC= 1.00D-01 BMatC= 6.52D-03 BMatP= 1.81D-02
 IDIUse=3 WtCom= 9.78D-01 WtEn= 2.24D-02
 Coeff-Com: -0.468D-01 0.128D+00 0.403D+00 0.516D+00
 Coeff-En:   0.000D+00 0.000D+00 0.256D+00 0.744D+00
 Coeff:     -0.457D-01 0.125D+00 0.399D+00 0.521D+00
 Gap=     0.201 Goal=   None    Shift=    0.000
 Gap=     0.111 Goal=   None    Shift=    0.000
 RMSDP=2.95D-04 MaxDP=1.10D-02 DE=-3.20D-03 OVMax= 3.91D-02

 Cycle   5  Pass 1  IDiag  1:
 RMSU=  2.08D-04    CP:  8.91D-01  1.03D+00  8.77D-01  7.74D-01
 E= -192.723850878876     Delta-E=       -0.001890157642 Rises=F Damp=F
 DIIS: error= 5.91D-04 at cycle   5 NSaved=   5.
 NSaved= 5 IEnMin= 5 EnMin= -192.723850878876     IErMin= 5 ErrMin= 5.91D-04
 ErrMax= 5.91D-04  0.00D+00 EMaxC= 1.00D-01 BMatC= 5.69D-04 BMatP= 6.52D-03
 IDIUse=3 WtCom= 9.94D-01 WtEn= 5.91D-03
 Coeff-Com: -0.119D-01-0.312D-02 0.901D-01 0.255D+00 0.670D+00
 Coeff-En:   0.000D+00 0.000D+00 0.000D+00 0.000D+00 0.100D+01
 Coeff:     -0.118D-01-0.311D-02 0.896D-01 0.253D+00 0.672D+00
 Gap=     0.204 Goal=   None    Shift=    0.000
 Gap=     0.111 Goal=   None    Shift=    0.000
 RMSDP=1.27D-04 MaxDP=8.79D-03 DE=-1.89D-03 OVMax= 1.08D-02

 Cycle   6  Pass 1  IDiag  1:
 RMSU=  8.95D-05    CP:  8.91D-01  1.03D+00  8.97D-01  9.07D-01  9.58D-01
 E= -192.724065791250     Delta-E=       -0.000214912374 Rises=F Damp=F
 DIIS: error= 3.22D-04 at cycle   6 NSaved=   6.
 NSaved= 6 IEnMin= 6 EnMin= -192.724065791250     IErMin= 6 ErrMin= 3.22D-04
 ErrMax= 3.22D-04  0.00D+00 EMaxC= 1.00D-01 BMatC= 1.31D-04 BMatP= 5.69D-04
 IDIUse=3 WtCom= 9.97D-01 WtEn= 3.22D-03
 Coeff-Com:  0.533D-02-0.324D-01-0.540D-01 0.138D-01 0.352D+00 0.715D+00
 Coeff-En:   0.000D+00 0.000D+00 0.000D+00 0.000D+00 0.000D+00 0.100D+01
 Coeff:      0.532D-02-0.323D-01-0.538D-01 0.138D-01 0.351D+00 0.716D+00
 Gap=     0.205 Goal=   None    Shift=    0.000
 Gap=     0.111 Goal=   None    Shift=    0.000
 RMSDP=7.52D-05 MaxDP=4.83D-03 DE=-2.15D-04 OVMax= 1.09D-02

 Cycle   7  Pass 1  IDiag  1:
 RMSU=  5.08D-05    CP:  8.92D-01  1.02D+00  9.11D-01  9.72D-01  1.09D+00
                    CP:  1.07D+00
 E= -192.724128946921     Delta-E=       -0.000063155670 Rises=F Damp=F
 DIIS: error= 1.85D-04 at cycle   7 NSaved=   7.
 NSaved= 7 IEnMin= 7 EnMin= -192.724128946921     IErMin= 7 ErrMin= 1.85D-04
 ErrMax= 1.85D-04  0.00D+00 EMaxC= 1.00D-01 BMatC= 3.25D-05 BMatP= 1.31D-04
 IDIUse=3 WtCom= 9.98D-01 WtEn= 1.85D-03
 Coeff-Com:  0.540D-02-0.142D-01-0.494D-01-0.520D-01 0.771D-02 0.364D+00
 Coeff-Com:  0.739D+00
 Coeff-En:   0.000D+00 0.000D+00 0.000D+00 0.000D+00 0.000D+00 0.000D+00
 Coeff-En:   0.100D+01
 Coeff:      0.539D-02-0.141D-01-0.493D-01-0.519D-01 0.770D-02 0.363D+00
 Coeff:      0.739D+00
 Gap=     0.206 Goal=   None    Shift=    0.000
 Gap=     0.112 Goal=   None    Shift=    0.000
 RMSDP=4.71D-05 MaxDP=2.00D-03 DE=-6.32D-05 OVMax= 5.05D-03

 Cycle   8  Pass 1  IDiag  1:
 RMSU=  3.05D-05    CP:  8.92D-01  1.02D+00  9.19D-01  1.00D+00  1.19D+00
                    CP:  1.28D+00  9.06D-01
 E= -192.724140870358     Delta-E=       -0.000011923437 Rises=F Damp=F
 DIIS: error= 1.74D-04 at cycle   8 NSaved=   8.
 NSaved= 8 IEnMin= 8 EnMin= -192.724140870358     IErMin= 8 ErrMin= 1.74D-04
 ErrMax= 1.74D-04  0.00D+00 EMaxC= 1.00D-01 BMatC= 2.07D-05 BMatP= 3.25D-05
 IDIUse=3 WtCom= 9.98D-01 WtEn= 1.74D-03
 Coeff-Com:  0.312D-02-0.410D-02-0.272D-01-0.423D-01-0.659D-01 0.116D+00
 Coeff-Com:  0.549D+00 0.471D+00
 Coeff-En:   0.000D+00 0.000D+00 0.000D+00 0.000D+00 0.000D+00 0.000D+00
 Coeff-En:   0.000D+00 0.100D+01
 Coeff:      0.311D-02-0.409D-02-0.272D-01-0.422D-01-0.658D-01 0.116D+00
 Coeff:      0.548D+00 0.472D+00
 Gap=     0.206 Goal=   None    Shift=    0.000
 Gap=     0.112 Goal=   None    Shift=    0.000
 RMSDP=2.04D-05 MaxDP=9.59D-04 DE=-1.19D-05 OVMax= 3.45D-03

 Cycle   9  Pass 1  IDiag  1:
 RMSU=  1.09D-05    CP:  8.92D-01  1.02D+00  9.18D-01  1.01D+00  1.21D+00
                    CP:  1.34D+00  1.10D+00  6.88D-01
 E= -192.724147756130     Delta-E=       -0.000006885772 Rises=F Damp=F
 DIIS: error= 4.81D-05 at cycle   9 NSaved=   9.
 NSaved= 9 IEnMin= 9 EnMin= -192.724147756130     IErMin= 9 ErrMin= 4.81D-05
 ErrMax= 4.81D-05  0.00D+00 EMaxC= 1.00D-01 BMatC= 2.32D-06 BMatP= 2.07D-05
 IDIUse=1 WtCom= 1.00D+00 WtEn= 0.00D+00
 Coeff-Com:  0.556D-03 0.710D-03-0.560D-02-0.116D-01-0.367D-01-0.633D-02
 Coeff-Com:  0.157D+00 0.280D+00 0.623D+00
 Coeff:      0.556D-03 0.710D-03-0.560D-02-0.116D-01-0.367D-01-0.633D-02
 Coeff:      0.157D+00 0.280D+00 0.623D+00
 Gap=     0.206 Goal=   None    Shift=    0.000
 Gap=     0.112 Goal=   None    Shift=    0.000
 RMSDP=7.73D-06 MaxDP=3.65D-04 DE=-6.89D-06 OVMax= 8.29D-04

 Cycle  10  Pass 1  IDiag  1:
 RMSU=  5.28D-06    CP:  8.92D-01  1.02D+00  9.18D-01  1.01D+00  1.22D+00
                    CP:  1.36D+00  1.12D+00  8.30D-01  1.10D+00
 E= -192.724148668300     Delta-E=       -0.000000912170 Rises=F Damp=F
 DIIS: error= 1.73D-05 at cycle  10 NSaved=  10.
 NSaved=10 IEnMin=10 EnMin= -192.724148668300     IErMin=10 ErrMin= 1.73D-05
 ErrMax= 1.73D-05  0.00D+00 EMaxC= 1.00D-01 BMatC= 4.16D-07 BMatP= 2.32D-06
 IDIUse=1 WtCom= 1.00D+00 WtEn= 0.00D+00
 Coeff-Com: -0.707D-03 0.185D-02 0.507D-02 0.730D-02 0.231D-02-0.359D-01
 Coeff-Com: -0.950D-01 0.257D-01 0.316D+00 0.773D+00
 Coeff:     -0.707D-03 0.185D-02 0.507D-02 0.730D-02 0.231D-02-0.359D-01
 Coeff:     -0.950D-01 0.257D-01 0.316D+00 0.773D+00
 Gap=     0.206 Goal=   None    Shift=    0.000
 Gap=     0.112 Goal=   None    Shift=    0.000
 RMSDP=5.15D-06 MaxDP=2.47D-04 DE=-9.12D-07 OVMax= 9.28D-04

 Cycle  11  Pass 1  IDiag  1:
 RMSU=  2.94D-06    CP:  8.92D-01  1.02D+00  9.18D-01  1.01D+00  1.23D+00
                    CP:  1.37D+00  1.15D+00  8.95D-01  1.35D+00  1.18D+00
 E= -192.724149020476     Delta-E=       -0.000000352176 Rises=F Damp=F
 DIIS: error= 1.22D-05 at cycle  11 NSaved=  11.
 NSaved=11 IEnMin=11 EnMin= -192.724149020476     IErMin=11 ErrMin= 1.22D-05
 ErrMax= 1.22D-05  0.00D+00 EMaxC= 1.00D-01 BMatC= 9.46D-08 BMatP= 4.16D-07
 IDIUse=1 WtCom= 1.00D+00 WtEn= 0.00D+00
 Coeff-Com: -0.937D-04-0.132D-03 0.977D-03 0.245D-02 0.715D-02 0.214D-02
 Coeff-Com: -0.433D-01-0.292D-01-0.144D+00 0.924D-01 0.111D+01
 Coeff:     -0.937D-04-0.132D-03 0.977D-03 0.245D-02 0.715D-02 0.214D-02
 Coeff:     -0.433D-01-0.292D-01-0.144D+00 0.924D-01 0.111D+01
 Gap=     0.206 Goal=   None    Shift=    0.000
 Gap=     0.112 Goal=   None    Shift=    0.000
 RMSDP=4.08D-06 MaxDP=2.00D-04 DE=-3.52D-07 OVMax= 6.72D-04

 Cycle  12  Pass 1  IDiag  1:
 RMSU=  1.43D-06    CP:  8.92D-01  1.02D+00  9.18D-01  1.01D+00  1.23D+00
                    CP:  1.38D+00  1.16D+00  9.49D-01  1.54D+00  1.50D+00
                    CP:  1.64D+00
 E= -192.724149172249     Delta-E=       -0.000000151774 Rises=F Damp=F
 DIIS: error= 6.36D-06 at cycle  12 NSaved=  12.
 NSaved=12 IEnMin=12 EnMin= -192.724149172249     IErMin=12 ErrMin= 6.36D-06
 ErrMax= 6.36D-06  0.00D+00 EMaxC= 1.00D-01 BMatC= 2.37D-08 BMatP= 9.46D-08
 IDIUse=1 WtCom= 1.00D+00 WtEn= 0.00D+00
 Coeff-Com:  0.231D-03-0.542D-03-0.174D-02-0.220D-02-0.682D-03 0.130D-01
 Coeff-Com:  0.281D-01 0.585D-02-0.114D+00-0.217D+00-0.167D+00 0.146D+01
 Coeff:      0.231D-03-0.542D-03-0.174D-02-0.220D-02-0.682D-03 0.130D-01
 Coeff:      0.281D-01 0.585D-02-0.114D+00-0.217D+00-0.167D+00 0.146D+01
 Gap=     0.206 Goal=   None    Shift=    0.000
 Gap=     0.112 Goal=   None    Shift=    0.000
 RMSDP=3.37D-06 MaxDP=1.65D-04 DE=-1.52D-07 OVMax= 5.96D-04

 Cycle  13  Pass 1  IDiag  1:
 RMSU=  7.54D-07    CP:  8.92D-01  1.02D+00  9.18D-01  1.01D+00  1.23D+00
                    CP:  1.38D+00  1.16D+00  9.81D-01  1.67D+00  1.78D+00
                    CP:  2.29D+00  1.71D+00
 E= -192.724149236329     Delta-E=       -0.000000064080 Rises=F Damp=F
 DIIS: error= 2.36D-06 at cycle  13 NSaved=  13.
 NSaved=13 IEnMin=13 EnMin= -192.724149236329     IErMin=13 ErrMin= 2.36D-06
 ErrMax= 2.36D-06  0.00D+00 EMaxC= 1.00D-01 BMatC= 4.47D-09 BMatP= 2.37D-08
 IDIUse=1 WtCom= 1.00D+00 WtEn= 0.00D+00
 Coeff-Com:  0.824D-04-0.117D-03-0.756D-03-0.115D-02-0.159D-02 0.335D-02
 Coeff-Com:  0.155D-01 0.962D-02-0.522D-02-0.764D-01-0.323D+00 0.416D+00
 Coeff-Com:  0.963D+00
 Coeff:      0.824D-04-0.117D-03-0.756D-03-0.115D-02-0.159D-02 0.335D-02
 Coeff:      0.155D-01 0.962D-02-0.522D-02-0.764D-01-0.323D+00 0.416D+00
 Coeff:      0.963D+00
 Gap=     0.206 Goal=   None    Shift=    0.000
 Gap=     0.112 Goal=   None    Shift=    0.000
 RMSDP=1.40D-06 MaxDP=6.43D-05 DE=-6.41D-08 OVMax= 2.39D-04

 Cycle  14  Pass 1  IDiag  1:
 RMSU=  2.89D-07    CP:  8.92D-01  1.02D+00  9.18D-01  1.01D+00  1.23D+00
                    CP:  1.38D+00  1.16D+00  9.95D-01  1.72D+00  1.88D+00
                    CP:  2.58D+00  2.10D+00  1.16D+00
 E= -192.724149244727     Delta-E=       -0.000000008398 Rises=F Damp=F
 DIIS: error= 6.74D-07 at cycle  14 NSaved=  14.
 NSaved=14 IEnMin=14 EnMin= -192.724149244727     IErMin=14 ErrMin= 6.74D-07
 ErrMax= 6.74D-07  0.00D+00 EMaxC= 1.00D-01 BMatC= 3.90D-10 BMatP= 4.47D-09
 IDIUse=1 WtCom= 1.00D+00 WtEn= 0.00D+00
 Coeff-Com: -0.210D-04 0.644D-04 0.124D-03 0.102D-03-0.840D-04-0.101D-02
 Coeff-Com: -0.218D-02 0.147D-02 0.151D-01 0.207D-01-0.245D-01-0.148D+00
 Coeff-Com:  0.148D+00 0.990D+00
 Coeff:     -0.210D-04 0.644D-04 0.124D-03 0.102D-03-0.840D-04-0.101D-02
 Coeff:     -0.218D-02 0.147D-02 0.151D-01 0.207D-01-0.245D-01-0.148D+00
 Coeff:      0.148D+00 0.990D+00
 Gap=     0.206 Goal=   None    Shift=    0.000
 Gap=     0.112 Goal=   None    Shift=    0.000
 RMSDP=2.86D-07 MaxDP=1.48D-05 DE=-8.40D-09 OVMax= 4.40D-05

 Cycle  15  Pass 1  IDiag  1:
 RMSU=  9.49D-08    CP:  8.92D-01  1.02D+00  9.18D-01  1.01D+00  1.23D+00
                    CP:  1.38D+00  1.16D+00  9.97D-01  1.73D+00  1.89D+00
                    CP:  2.62D+00  2.19D+00  1.32D+00  1.11D+00
 E= -192.724149245207     Delta-E=       -0.000000000480 Rises=F Damp=F
 DIIS: error= 1.42D-07 at cycle  15 NSaved=  15.
 NSaved=15 IEnMin=15 EnMin= -192.724149245207     IErMin=15 ErrMin= 1.42D-07
 ErrMax= 1.42D-07  0.00D+00 EMaxC= 1.00D-01 BMatC= 3.32D-11 BMatP= 3.90D-10
 IDIUse=1 WtCom= 1.00D+00 WtEn= 0.00D+00
 Coeff-Com: -0.101D-04 0.159D-04 0.997D-04 0.128D-03 0.193D-03-0.405D-03
 Coeff-Com: -0.202D-02-0.104D-02 0.186D-02 0.102D-01 0.362D-01-0.598D-01
 Coeff-Com: -0.102D+00 0.861D-01 0.103D+01
 Coeff:     -0.101D-04 0.159D-04 0.997D-04 0.128D-03 0.193D-03-0.405D-03
 Coeff:     -0.202D-02-0.104D-02 0.186D-02 0.102D-01 0.362D-01-0.598D-01
 Coeff:     -0.102D+00 0.861D-01 0.103D+01
 Gap=     0.206 Goal=   None    Shift=    0.000
 Gap=     0.112 Goal=   None    Shift=    0.000
 RMSDP=6.81D-08 MaxDP=3.38D-06 DE=-4.80D-10 OVMax= 7.62D-06

 Cycle  16  Pass 1  IDiag  1:
 RMSU=  2.98D-08    CP:  8.92D-01  1.02D+00  9.18D-01  1.01D+00  1.23D+00
                    CP:  1.38D+00  1.16D+00  9.98D-01  1.73D+00  1.89D+00
                    CP:  2.63D+00  2.21D+00  1.35D+00  1.23D+00  1.20D+00
 E= -192.724149245240     Delta-E=       -0.000000000033 Rises=F Damp=F
 DIIS: error= 4.86D-08 at cycle  16 NSaved=  16.
 NSaved=16 IEnMin=16 EnMin= -192.724149245240     IErMin=16 ErrMin= 4.86D-08
 ErrMax= 4.86D-08  0.00D+00 EMaxC= 1.00D-01 BMatC= 2.76D-12 BMatP= 3.32D-11
 IDIUse=1 WtCom= 1.00D+00 WtEn= 0.00D+00
 Coeff-Com:  0.595D-06-0.310D-05 0.327D-05 0.641D-05 0.280D-04 0.207D-04
 Coeff-Com: -0.338D-04-0.284D-03-0.762D-03-0.618D-03 0.568D-02 0.585D-02
 Coeff-Com: -0.239D-01-0.723D-01 0.107D+00 0.979D+00
 Coeff:      0.595D-06-0.310D-05 0.327D-05 0.641D-05 0.280D-04 0.207D-04
 Coeff:     -0.338D-04-0.284D-03-0.762D-03-0.618D-03 0.568D-02 0.585D-02
 Coeff:     -0.239D-01-0.723D-01 0.107D+00 0.979D+00
 Gap=     0.206 Goal=   None    Shift=    0.000
 Gap=     0.112 Goal=   None    Shift=    0.000
 RMSDP=1.59D-08 MaxDP=7.48D-07 DE=-3.26D-11 OVMax= 1.91D-06

 Cycle  17  Pass 1  IDiag  1:
 RMSU=  8.78D-09    CP:  8.92D-01  1.02D+00  9.18D-01  1.01D+00  1.23D+00
                    CP:  1.38D+00  1.16D+00  9.98D-01  1.73D+00  1.89D+00
                    CP:  2.63D+00  2.21D+00  1.35D+00  1.25D+00  1.30D+00
                    CP:  1.08D+00
 E= -192.724149245245     Delta-E=       -0.000000000005 Rises=F Damp=F
 DIIS: error= 1.11D-08 at cycle  17 NSaved=  17.
 NSaved=17 IEnMin=17 EnMin= -192.724149245245     IErMin=17 ErrMin= 1.11D-08
 ErrMax= 1.11D-08  0.00D+00 EMaxC= 1.00D-01 BMatC= 2.08D-13 BMatP= 2.76D-12
 IDIUse=1 WtCom= 1.00D+00 WtEn= 0.00D+00
 Coeff-Com:  0.774D-06-0.136D-05-0.682D-05-0.958D-05-0.109D-04 0.260D-04
 Coeff-Com:  0.140D-03 0.427D-04-0.151D-03-0.801D-03-0.223D-02 0.450D-02
 Coeff-Com:  0.622D-02-0.121D-01-0.738D-01 0.636D-01 0.101D+01
 Coeff:      0.774D-06-0.136D-05-0.682D-05-0.958D-05-0.109D-04 0.260D-04
 Coeff:      0.140D-03 0.427D-04-0.151D-03-0.801D-03-0.223D-02 0.450D-02
 Coeff:      0.622D-02-0.121D-01-0.738D-01 0.636D-01 0.101D+01
 Gap=     0.206 Goal=   None    Shift=    0.000
 Gap=     0.112 Goal=   None    Shift=    0.000
 RMSDP=4.97D-09 MaxDP=1.61D-07 DE=-5.12D-12 OVMax= 5.36D-07

 SCF Done:  E(UB3LYP) =  -192.724149245     A.U. after   17 cycles
            NFock= 17  Conv=0.50D-08     -V/T= 2.0046
 <Sx>= 0.0000 <Sy>= 0.0000 <Sz>= 1.0000 <S**2>= 2.0394 S= 1.0131
 <L.S>= 0.000000000000E+00
 KE= 1.918339481390D+02 PE=-7.202425317857D+02 EE= 1.987631305291D+02
 Annihilation of the first spin contaminant:
 S**2 before annihilation     2.0394,   after     2.0003
 Leave Link  502 at Mon Jun 20 02:51:47 2016, MaxMem=    33554432 cpu:       764.5
 (Enter /home/proyectos/fulerenos/M3C-v1.9/M3C-deps_CCC/g09-AM64L-G09RevC.01/l801.exe)
 DoSCS=F DFT=T ScalE2(SS,OS)=  1.000000  1.000000
 Range of M.O.s used for correlation:     1   235
 NBasis=   235 NAE=    18 NBE=    16 NFC=     0 NFV=     0
 NROrb=    235 NOA=    18 NOB=    16 NVA=   217 NVB=   219

 **** Warning!!: The largest alpha MO coefficient is  0.11823567D+03


 **** Warning!!: The largest beta MO coefficient is  0.10906599D+03

 Leave Link  801 at Mon Jun 20 02:51:47 2016, MaxMem=    33554432 cpu:         0.1
 (Enter /home/proyectos/fulerenos/M3C-v1.9/M3C-deps_CCC/g09-AM64L-G09RevC.01/l1101.exe)
 Using compressed storage, NAtomX=     9.
 Will process     10 centers per pass.
 Leave Link 1101 at Mon Jun 20 02:51:47 2016, MaxMem=    33554432 cpu:         1.3
 (Enter /home/proyectos/fulerenos/M3C-v1.9/M3C-deps_CCC/g09-AM64L-G09RevC.01/l1102.exe)
 Symmetrizing basis deriv contribution to polar:
 IMax=3 JMax=2 DiffMx= 0.00D+00
 Leave Link 1102 at Mon Jun 20 02:51:47 2016, MaxMem=    33554432 cpu:         0.1
 (Enter /home/proyectos/fulerenos/M3C-v1.9/M3C-deps_CCC/g09-AM64L-G09RevC.01/l1110.exe)
 Forming Gx(P) for the SCF density, NAtomX=     9.
 Integral derivatives from FoFJK, PRISM(SPDF).
 Do as many integral derivatives as possible in FoFJK.
 G2DrvN: MDV=      33554256.
 G2DrvN: will do    10 centers at a time, making    1 passes.
 Calling FoFCou, ICntrl=  3107 FMM=F I1Cent=   0 AccDes= 0.00D+00.
 FoFJK:  IHMeth= 1 ICntrl=    3107 DoSepK=F KAlg= 0 I1Cent=   0 FoldK=F
 IRaf=         0 NMat=   1 IRICut=       1 DoRegI=T DoRafI=F ISym2E= 0.
 FoFCou: FMM=F IPFlag=           0 FMFlag=      100000 FMFlg1=           0
         NFxFlg=           0 DoJE=F BraDBF=F KetDBF=F FulRan=T
         wScrn=  0.000000 ICntrl=    3107 IOpCl=  1 I1Cent=           0 NGrid=           0
         NMat0=    1 NMatS0=      1 NMatT0=    0 NMatD0=    1 NMtDS0=    0 NMtDT0=    0
 Symmetry not used in FoFCou.
 End of G2Drv F.D. properties file   721 does not exist.
 End of G2Drv F.D. properties file   722 does not exist.
 End of G2Drv F.D. properties file   788 does not exist.
 Leave Link 1110 at Mon Jun 20 02:54:06 2016, MaxMem=    33554432 cpu:       555.9
 (Enter /home/proyectos/fulerenos/M3C-v1.9/M3C-deps_CCC/g09-AM64L-G09RevC.01/l1002.exe)
 Minotr:  UHF open shell wavefunction.
          IDoAtm=111111111
          Direct CPHF calculation.
          Differentiating once with respect to electric field.
                with respect to dipole field.
          Differentiating once with respect to nuclear coordinates.
          Requested convergence is 1.0D-08 RMS, and 1.0D-07 maximum.
          Secondary convergence is 1.0D-12 RMS, and 1.0D-12 maximum.
          NewPWx=T KeepS1=F KeepF1=F KeepIn=T MapXYZ=F SortEE=F KeepMc=T.
          MDV=      33553868 using IRadAn=       2.
 Generate precomputed XC quadrature information.
          Solving linear equations simultaneously, MaxMat=       0.
 FoFJK:  IHMeth= 1 ICntrl=       0 DoSepK=F KAlg= 0 I1Cent=   0 FoldK=F
 IRaf= 980000000 NMat=  30 IRICut=      75 DoRegI=T DoRafI=T ISym2E= 2.
 FoFCou: FMM=F IPFlag=           0 FMFlag=      100000 FMFlg1=           0
         NFxFlg=           0 DoJE=F BraDBF=F KetDBF=F FulRan=T
         wScrn=  0.000000 ICntrl=       0 IOpCl=  1 I1Cent=           0 NGrid=           0
         NMat0=   30 NMatS0=     30 NMatT0=    0 NMatD0=   30 NMtDS0=    0 NMtDT0=    0
 Integrals replicated using symmetry in FoFCou.
          There are    30 degrees of freedom in the 1st order CPHF.  IDoFFX=6 NUNeed=     3.
     27 vectors produced by pass  0 Test12= 2.47D-14 3.33D-09 XBig12= 2.44D+02 6.68D+00.
 AX will form    27 AO Fock derivatives at one time.
     27 vectors produced by pass  1 Test12= 2.47D-14 3.33D-09 XBig12= 7.96D+01 1.67D+00.
     27 vectors produced by pass  2 Test12= 2.47D-14 3.33D-09 XBig12= 2.17D+00 2.82D-01.
     27 vectors produced by pass  3 Test12= 2.47D-14 3.33D-09 XBig12= 2.36D-02 2.74D-02.
     27 vectors produced by pass  4 Test12= 2.47D-14 3.33D-09 XBig12= 1.71D-04 1.82D-03.
     27 vectors produced by pass  5 Test12= 2.47D-14 3.33D-09 XBig12= 9.98D-07 1.42D-04.
     27 vectors produced by pass  6 Test12= 2.47D-14 3.33D-09 XBig12= 4.25D-09 7.44D-06.
      8 vectors produced by pass  7 Test12= 2.47D-14 3.33D-09 XBig12= 2.13D-11 5.30D-07.
      3 vectors produced by pass  8 Test12= 2.47D-14 3.33D-09 XBig12= 2.37D-13 8.48D-08.
      3 vectors produced by pass  9 Test12= 2.47D-14 3.33D-09 XBig12= 3.00D-14 3.17D-08.
      1 vectors produced by pass 10 Test12= 2.47D-14 3.33D-09 XBig12= 2.34D-16 3.76D-09.
 InvSVY:  IOpt=1 It=  1 EMax= 3.55D-15
 Solved reduced A of dimension   204 with    30 vectors.
 FullF1:  Do perturbations    1 to     3.
 Isotropic polarizability for W=    0.000000       63.60 Bohr**3.
 End of Minotr F.D. properties file   721 does not exist.
 End of Minotr F.D. properties file   722 does not exist.
 End of Minotr F.D. properties file   788 does not exist.
 Leave Link 1002 at Mon Jun 20 03:02:28 2016, MaxMem=    33554432 cpu:      2007.7
 (Enter /home/proyectos/fulerenos/M3C-v1.9/M3C-deps_CCC/g09-AM64L-G09RevC.01/l601.exe)
 Copying SCF densities to generalized density rwf, IOpCl= 1 IROHF=0.

 **********************************************************************

            Population analysis using the SCF density.

 **********************************************************************

 Orbital symmetries:
 Alpha Orbitals:
       Occupied  (A) (A) (A) (A) (A) (A) (A) (A) (A) (A) (A) (A)
                 (A) (A) (A) (A) (A) (A)
       Virtual   (A) (A) (A) (A) (A) (A) (A) (A) (A) (A) (A) (A)
                 (A) (A) (A) (A) (A) (A) (A) (A) (A) (A) (A) (A)
                 (A) (A) (A) (A) (A) (A) (A) (A) (A) (A) (A) (A)
                 (A) (A) (A) (A) (A) (A) (A) (A) (A) (A) (A) (A)
                 (A) (A) (A) (A) (A) (A) (A) (A) (A) (A) (A) (A)
                 (A) (A) (A) (A) (A) (A) (A) (A) (A) (A) (A) (A)
                 (A) (A) (A) (A) (A) (A) (A) (A) (A) (A) (A) (A)
                 (A) (A) (A) (A) (A) (A) (A) (A) (A) (A) (A) (A)
                 (A) (A) (A) (A) (A) (A) (A) (A) (A) (A) (A) (A)
                 (A) (A) (A) (A) (A) (A) (A) (A) (A) (A) (A) (A)
                 (A) (A) (A) (A) (A) (A) (A) (A) (A) (A) (A) (A)
                 (A) (A) (A) (A) (A) (A) (A) (A) (A) (A) (A) (A)
                 (A) (A) (A) (A) (A) (A) (A) (A) (A) (A) (A) (A)
                 (A) (A) (A) (A) (A) (A) (A) (A) (A) (A) (A) (A)
                 (A) (A) (A) (A) (A) (A) (A) (A) (A) (A) (A) (A)
                 (A) (A) (A) (A) (A) (A) (A) (A) (A) (A) (A) (A)
                 (A) (A) (A) (A) (A) (A) (A) (A) (A) (A) (A) (A)
                 (A) (A) (A) (A) (A) (A) (A) (A) (A) (A) (A) (A)
                 (A)
 Beta  Orbitals:
       Occupied  (A) (A) (A) (A) (A) (A) (A) (A) (A) (A) (A) (A)
                 (A) (A) (A) (A)
       Virtual   (A) (A) (A) (A) (A) (A) (A) (A) (A) (A) (A) (A)
                 (A) (A) (A) (A) (A) (A) (A) (A) (A) (A) (A) (A)
                 (A) (A) (A) (A) (A) (A) (A) (A) (A) (A) (A) (A)
                 (A) (A) (A) (A) (A) (A) (A) (A) (A) (A) (A) (A)
                 (A) (A) (A) (A) (A) (A) (A) (A) (A) (A) (A) (A)
                 (A) (A) (A) (A) (A) (A) (A) (A) (A) (A) (A) (A)
                 (A) (A) (A) (A) (A) (A) (A) (A) (A) (A) (A) (A)
                 (A) (A) (A) (A) (A) (A) (A) (A) (A) (A) (A) (A)
                 (A) (A) (A) (A) (A) (A) (A) (A) (A) (A) (A) (A)
                 (A) (A) (A) (A) (A) (A) (A) (A) (A) (A) (A) (A)
                 (A) (A) (A) (A) (A) (A) (A) (A) (A) (A) (A) (A)
                 (A) (A) (A) (A) (A) (A) (A) (A) (A) (A) (A) (A)
                 (A) (A) (A) (A) (A) (A) (A) (A) (A) (A) (A) (A)
                 (A) (A) (A) (A) (A) (A) (A) (A) (A) (A) (A) (A)
                 (A) (A) (A) (A) (A) (A) (A) (A) (A) (A) (A) (A)
                 (A) (A) (A) (A) (A) (A) (A) (A) (A) (A) (A) (A)
                 (A) (A) (A) (A) (A) (A) (A) (A) (A) (A) (A) (A)
                 (A) (A) (A) (A) (A) (A) (A) (A) (A) (A) (A) (A)
                 (A) (A) (A)
 The electronic state is 3-A.
 Alpha  occ. eigenvalues --  -10.22485 -10.22434 -10.22080 -10.21925 -10.21476
 Alpha  occ. eigenvalues --   -0.94083  -0.77173  -0.66661  -0.61178  -0.53398
 Alpha  occ. eigenvalues --   -0.49613  -0.44921  -0.41895  -0.40512  -0.34404
 Alpha  occ. eigenvalues --   -0.27471  -0.24911  -0.23146
 Alpha virt. eigenvalues --   -0.02569  -0.01092   0.00867   0.01205   0.02000
 Alpha virt. eigenvalues --    0.03251   0.04667   0.06612   0.06928   0.08023
 Alpha virt. eigenvalues --    0.08710   0.09458   0.10822   0.11601   0.11913
 Alpha virt. eigenvalues --    0.12190   0.12844   0.13066   0.13908   0.14517
 Alpha virt. eigenvalues --    0.14954   0.15679   0.16647   0.17832   0.18870
 Alpha virt. eigenvalues --    0.20216   0.20846   0.22563   0.23342   0.25477
 Alpha virt. eigenvalues --    0.26868   0.28329   0.31533   0.33203   0.34558
 Alpha virt. eigenvalues --    0.35927   0.37492   0.39253   0.39876   0.40589
 Alpha virt. eigenvalues --    0.42706   0.44109   0.45686   0.46478   0.46848
 Alpha virt. eigenvalues --    0.49170   0.50872   0.51619   0.53146   0.53594
 Alpha virt. eigenvalues --    0.54295   0.55406   0.55787   0.57285   0.58334
 Alpha virt. eigenvalues --    0.59245   0.60893   0.62567   0.63220   0.64623
 Alpha virt. eigenvalues --    0.65631   0.67279   0.68905   0.71368   0.75364
 Alpha virt. eigenvalues --    0.77021   0.78432   0.82680   0.84068   0.88086
 Alpha virt. eigenvalues --    0.88811   0.89538   0.91593   0.92320   0.96631
 Alpha virt. eigenvalues --    1.03759   1.06209   1.08237   1.08762   1.11157
 Alpha virt. eigenvalues --    1.13675   1.17920   1.18777   1.20939   1.21956
 Alpha virt. eigenvalues --    1.23521   1.26248   1.28843   1.30877   1.32023
 Alpha virt. eigenvalues --    1.33464   1.36755   1.38608   1.41899   1.43379
 Alpha virt. eigenvalues --    1.47512   1.49132   1.52541   1.54857   1.57802
 Alpha virt. eigenvalues --    1.62571   1.62958   1.66204   1.71831   1.76407
 Alpha virt. eigenvalues --    1.80226   1.87773   1.92126   1.96886   1.98407
 Alpha virt. eigenvalues --    2.03139   2.03900   2.05491   2.05957   2.16632
 Alpha virt. eigenvalues --    2.17516   2.20970   2.26761   2.35249   2.47030
 Alpha virt. eigenvalues --    2.52843   2.63490   2.64645   2.67224   2.70178
 Alpha virt. eigenvalues --    2.71614   2.74265   2.78889   2.79605   2.81788
 Alpha virt. eigenvalues --    2.84319   2.86400   2.90517   2.91731   2.93504
 Alpha virt. eigenvalues --    2.96938   3.01184   3.01707   3.03751   3.07807
 Alpha virt. eigenvalues --    3.09246   3.13019   3.15344   3.20676   3.21766
 Alpha virt. eigenvalues --    3.24485   3.29903   3.31308   3.34298   3.42580
 Alpha virt. eigenvalues --    3.44432   3.47126   3.50437   3.55006   3.63609
 Alpha virt. eigenvalues --    3.70950   3.73353   3.79086   3.87867   3.91209
 Alpha virt. eigenvalues --    3.92729   3.96715   4.03941   4.05446   4.08561
 Alpha virt. eigenvalues --    4.19108   4.23159   4.32628   4.34211   4.36493
 Alpha virt. eigenvalues --    4.42746   4.43056   4.47531   4.54219   4.60929
 Alpha virt. eigenvalues --    4.64393   4.69032   4.78149   4.96381   5.04116
 Alpha virt. eigenvalues --    5.09204   5.28916   5.45032   5.66594   5.77457
 Alpha virt. eigenvalues --    5.93728   6.24249   6.96924   6.99251   7.05437
 Alpha virt. eigenvalues --    7.12580   7.14638   7.18596   7.20818   7.24719
 Alpha virt. eigenvalues --    7.27614   7.33102   7.36712   7.45689   7.52809
 Alpha virt. eigenvalues --    7.57900   7.60952   7.67240   7.71651   7.83961
 Alpha virt. eigenvalues --    7.94538   7.97433   8.08577   8.26493   8.43553
 Alpha virt. eigenvalues --    8.50736   8.89604  24.10499  24.57895  24.71652
 Alpha virt. eigenvalues --   24.92253  25.78598
  Beta  occ. eigenvalues --  -10.22365 -10.22218 -10.21490 -10.21424 -10.19766
  Beta  occ. eigenvalues --   -0.93050  -0.74606  -0.64594  -0.59973  -0.51648
  Beta  occ. eigenvalues --   -0.48219  -0.44079  -0.41088  -0.39005  -0.32198
  Beta  occ. eigenvalues --   -0.23248
  Beta virt. eigenvalues --   -0.12093  -0.10070  -0.01593  -0.00528   0.01176
  Beta virt. eigenvalues --    0.01381   0.03053   0.03426   0.05016   0.07090
  Beta virt. eigenvalues --    0.07582   0.08244   0.09131   0.10393   0.11304
  Beta virt. eigenvalues --    0.11928   0.12309   0.12641   0.12982   0.13382
  Beta virt. eigenvalues --    0.14162   0.14684   0.15065   0.16038   0.17044
  Beta virt. eigenvalues --    0.17815   0.19096   0.20930   0.21506   0.22911
  Beta virt. eigenvalues --    0.23618   0.25911   0.27336   0.29041   0.32224
  Beta virt. eigenvalues --    0.34108   0.35382   0.37261   0.38264   0.39989
  Beta virt. eigenvalues --    0.40661   0.41521   0.43880   0.44761   0.46930
  Beta virt. eigenvalues --    0.47000   0.49200   0.50083   0.52107   0.52881
  Beta virt. eigenvalues --    0.53767   0.54652   0.55131   0.55926   0.56502
  Beta virt. eigenvalues --    0.57975   0.59150   0.60322   0.61795   0.63218
  Beta virt. eigenvalues --    0.63736   0.65222   0.66007   0.67494   0.69360
  Beta virt. eigenvalues --    0.71963   0.75748   0.77870   0.79206   0.83412
  Beta virt. eigenvalues --    0.84664   0.88516   0.89521   0.90241   0.92215
  Beta virt. eigenvalues --    0.93299   0.96995   1.04406   1.06719   1.08924
  Beta virt. eigenvalues --    1.09440   1.12050   1.14671   1.18672   1.19364
  Beta virt. eigenvalues --    1.21618   1.22439   1.23944   1.26941   1.29456
  Beta virt. eigenvalues --    1.31788   1.32769   1.35074   1.37522   1.39243
  Beta virt. eigenvalues --    1.42908   1.45529   1.48331   1.50140   1.53217
  Beta virt. eigenvalues --    1.56565   1.61034   1.65323   1.65604   1.70455
  Beta virt. eigenvalues --    1.74020   1.78127   1.81332   1.89348   1.93770
  Beta virt. eigenvalues --    1.98801   1.99340   2.04738   2.04882   2.06976
  Beta virt. eigenvalues --    2.07511   2.17988   2.18453   2.21813   2.28818
  Beta virt. eigenvalues --    2.36375   2.48587   2.54553   2.64314   2.66263
  Beta virt. eigenvalues --    2.69646   2.72223   2.72603   2.77222   2.80261
  Beta virt. eigenvalues --    2.83474   2.83796   2.86912   2.88413   2.92576
  Beta virt. eigenvalues --    2.93821   2.95808   2.98156   3.02610   3.03639
  Beta virt. eigenvalues --    3.05625   3.10033   3.11584   3.13990   3.17168
  Beta virt. eigenvalues --    3.22417   3.23393   3.25771   3.31760   3.32835
  Beta virt. eigenvalues --    3.35847   3.43923   3.45129   3.48195   3.52174
  Beta virt. eigenvalues --    3.56314   3.64981   3.71789   3.74513   3.80117
  Beta virt. eigenvalues --    3.88501   3.92252   3.93850   3.97293   4.04701
  Beta virt. eigenvalues --    4.06713   4.09280   4.19698   4.24411   4.33545
  Beta virt. eigenvalues --    4.34835   4.37304   4.43564   4.44406   4.48034
  Beta virt. eigenvalues --    4.54966   4.61505   4.65223   4.69945   4.78871
  Beta virt. eigenvalues --    4.97161   5.05355   5.10098   5.29845   5.45966
  Beta virt. eigenvalues --    5.67070   5.77799   5.94584   6.26140   7.04428
  Beta virt. eigenvalues --    7.06897   7.08363   7.13654   7.16626   7.20814
  Beta virt. eigenvalues --    7.22326   7.26620   7.31179   7.35761   7.37819
  Beta virt. eigenvalues --    7.46700   7.55043   7.58502   7.63384   7.68297
  Beta virt. eigenvalues --    7.74076   7.84681   7.95052   7.98303   8.09111
  Beta virt. eigenvalues --    8.27428   8.44225   8.51168   8.90355  24.11374
  Beta virt. eigenvalues --   24.58253  24.72736  24.92754  25.79484
          Condensed to atoms (all electrons):
               1          2          3          4          5          6
     1  C    7.895008  -0.115836  -0.032598  -0.064869  -0.093154  -0.231287
     2  C   -0.115836   5.938287   0.473398  -0.053417   0.499569  -0.096326
     3  H   -0.032598   0.473398   0.496646   0.002983  -0.036263  -0.019689
     4  H   -0.064869  -0.053417   0.002983   0.512582  -0.002907   0.410920
     5  H   -0.093154   0.499569  -0.036263  -0.002907   0.510554  -0.099680
     6  C   -0.231287  -0.096326  -0.019689   0.410920  -0.099680   6.767001
     7  C   -0.515702  -0.050708  -0.065681  -0.026544   0.076087   0.012550
     8  C   -0.543963  -0.102342  -0.016893   0.041987   0.005290  -0.510794
     9  H    0.004013   0.000363  -0.000091  -0.001164   0.000112   0.006276
               7          8          9
     1  C   -0.515702  -0.543963   0.004013
     2  C   -0.050708  -0.102342   0.000363
     3  H   -0.065681  -0.016893  -0.000091
     4  H   -0.026544   0.041987  -0.001164
     5  H    0.076087   0.005290   0.000112
     6  C    0.012550  -0.510794   0.006276
     7  C    7.470281  -1.376405  -0.096439
     8  C   -1.376405   8.353285   0.420465
     9  H   -0.096439   0.420465   0.453834
          Atomic-Atomic Spin Densities.
               1          2          3          4          5          6
     1  C    0.787003  -0.052769   0.002688   0.001040  -0.016053   0.061232
     2  C   -0.052769   0.122804  -0.020963   0.003298   0.019866  -0.071257
     3  H    0.002688  -0.020963   0.054209  -0.001160  -0.014048   0.016722
     4  H    0.001040   0.003298  -0.001160  -0.000892   0.001124  -0.002341
     5  H   -0.016053   0.019866  -0.014048   0.001124   0.028494  -0.010868
     6  C    0.061232  -0.071257   0.016722  -0.002341  -0.010868   0.182694
     7  C   -0.051005   0.031294  -0.015063   0.002464   0.005131  -0.026930
     8  C   -0.115445  -0.036459   0.014304   0.002773  -0.002181  -0.004480
     9  H    0.000504   0.000533   0.000044  -0.000803  -0.000263   0.002950
               7          8          9
     1  C   -0.051005  -0.115445   0.000504
     2  C    0.031294  -0.036459   0.000533
     3  H   -0.015063   0.014304   0.000044
     4  H    0.002464   0.002773  -0.000803
     5  H    0.005131  -0.002181  -0.000263
     6  C   -0.026930  -0.004480   0.002950
     7  C    0.073989  -0.352639   0.020562
     8  C   -0.352639   2.032810  -0.052138
     9  H    0.020562  -0.052138   0.039567
 Mulliken charges and spin densities:
               1          2
     1  C   -0.301611   0.617194
     2  C   -0.492987  -0.003655
     3  H    0.198189   0.036733
     4  H    0.180429   0.005503
     5  H    0.140391   0.011202
     6  C   -0.238972   0.147721
     7  C    0.572561  -0.312197
     8  C   -0.270630   1.486544
     9  H    0.212631   0.010955
 Sum of Mulliken charges =  -0.00000   2.00000
 Mulliken charges and spin densities with hydrogens summed into heavy atoms:
               1          2
     1  C   -0.301611   0.617194
     2  C   -0.154408   0.044280
     6  C   -0.058543   0.153224
     7  C    0.572561  -0.312197
     8  C   -0.057999   1.497499
 APT charges:
               1
     1  C   -0.255036
     2  C    0.251310
     3  H    0.014251
     4  H    0.043031
     5  H    0.031556
     6  C   -0.057985
     7  C   -0.117493
     8  C   -0.039608
     9  H    0.129973
 Sum of APT charges =  -0.00000
 APT charges with hydrogens summed into heavy atoms:
               1
     1  C   -0.255036
     2  C    0.297117
     6  C   -0.014954
     7  C   -0.117493
     8  C    0.090366
 Electronic spatial extent (au):  <R**2>=            340.5836
 Charge=             -0.0000 electrons
 Dipole moment (field-independent basis, Debye):
    X=             -0.6603    Y=              0.7247    Z=              0.4621  Tot=              1.0839
 Quadrupole moment (field-independent basis, Debye-Ang):
   XX=            -25.5770   YY=            -32.4053   ZZ=            -31.3536
   XY=             -2.2957   XZ=             -0.1393   YZ=             -2.9010
 Traceless Quadrupole moment (field-independent basis, Debye-Ang):
   XX=              4.2017   YY=             -2.6267   ZZ=             -1.5750
   XY=             -2.2957   XZ=             -0.1393   YZ=             -2.9010
 Octapole moment (field-independent basis, Debye-Ang**2):
  XXX=             -0.4801  YYY=              5.5281  ZZZ=              2.9355  XYY=             -0.2614
  XXY=             -5.9859  XXZ=              0.6749  XZZ=             -3.3150  YZZ=              1.7689
  YYZ=              0.7563  XYZ=              1.9409
 Hexadecapole moment (field-independent basis, Debye-Ang**3):
 XXXX=           -302.9972 YYYY=           -105.4061 ZZZZ=            -58.7470 XXXY=            -19.0679
 XXXZ=              2.6273 YYYX=             -6.2287 YYYZ=             -9.4663 ZZZX=             -3.3820
 ZZZY=             -7.0537 XXYY=            -76.1555 XXZZ=            -69.1030 YYZZ=            -28.0395
 XXYZ=             -3.1099 YYXZ=             -0.4269 ZZXY=             -0.7295
 N-N= 1.369213038723D+02 E-N=-7.202425321705D+02  KE= 1.918339481390D+02
  Exact polarizability:  87.814   2.579  57.631   3.637   4.730  45.351
 Approx polarizability: 132.102   6.949 107.983   7.117  14.147  66.719
                          Isotropic Fermi Contact Couplings
        Atom                 a.u.       MegaHertz       Gauss      10(-4) cm-1
     1  C(13)              0.14754      82.93207      29.59222      27.66316
     2  C(13)             -0.00793      -4.45633      -1.59013      -1.48647
     3  H(1)               0.01630      36.42154      12.99611      12.14892
     4  H(1)               0.00098       2.18841       0.78088       0.72997
     5  H(1)               0.00599      13.37830       4.77371       4.46252
     6  C(13)              0.06238      35.06274      12.51126      11.69567
     7  C(13)             -0.04322     -24.29614      -8.66947      -8.10432
     8  C(13)              0.30193     169.71244      60.55762      56.60998
     9  H(1)               0.00198       4.43104       1.58111       1.47804
 --------------------------------------------------------
       Center         ----  Spin Dipole Couplings  ----
                      3XX-RR        3YY-RR        3ZZ-RR
 --------------------------------------------------------
     1   Atom       -0.266239     -0.451185      0.717424
     2   Atom       -0.012110     -0.003163      0.015273
     3   Atom        0.000449     -0.003767      0.003318
     4   Atom       -0.004520      0.008526     -0.004006
     5   Atom        0.017721     -0.007707     -0.010014
     6   Atom        0.005759     -0.013808      0.008049
     7   Atom        0.197019      0.005618     -0.202637
     8   Atom       -0.719883      0.471181      0.248702
     9   Atom        0.054676      0.001828     -0.056504
 --------------------------------------------------------
                        XY            XZ            YZ
 --------------------------------------------------------
     1   Atom        0.028312      0.115514     -0.043330
     2   Atom       -0.033582     -0.035775      0.065750
     3   Atom       -0.001099     -0.009853     -0.005704
     4   Atom       -0.005871      0.005671     -0.007022
     5   Atom       -0.008341      0.000038      0.000109
     6   Atom        0.002182      0.064562      0.054406
     7   Atom        0.039006      0.061138      0.118165
     8   Atom        0.414166      0.014137      0.221788
     9   Atom       -0.075156      0.003442      0.006593
 --------------------------------------------------------


 ---------------------------------------------------------------------------------
              Anisotropic Spin Dipole Couplings in Principal Axis System
 ---------------------------------------------------------------------------------

       Atom             a.u.   MegaHertz   Gauss  10(-4) cm-1        Axes

              Baa    -0.4586   -61.545   -21.961   -20.529 -0.1768  0.9828  0.0536
     1 C(13)  Bbb    -0.2735   -36.702   -13.096   -12.242  0.9776  0.1816 -0.1060
              Bcc     0.7321    98.247    35.057    32.772  0.1139 -0.0336  0.9929
 
              Baa    -0.0605    -8.112    -2.895    -2.706  0.0615  0.7679 -0.6376
     2 C(13)  Bbb    -0.0345    -4.625    -1.650    -1.543  0.9070  0.2236  0.3568
              Bcc     0.0949    12.737     4.545     4.249 -0.4166  0.6003  0.6827
 
              Baa    -0.0111    -5.940    -2.120    -1.981  0.5690  0.5549  0.6070
     3 H(1)   Bbb    -0.0015    -0.824    -0.294    -0.275 -0.5638  0.8005 -0.2033
              Bcc     0.0127     6.764     2.414     2.256 -0.5987 -0.2265  0.7683
 
              Baa    -0.0100    -5.321    -1.899    -1.775 -0.6912  0.0541  0.7206
     4 H(1)   Bbb    -0.0048    -2.565    -0.915    -0.856  0.6177  0.5618  0.5503
              Bcc     0.0148     7.886     2.814     2.631 -0.3750  0.8255 -0.4218
 
              Baa    -0.0103    -5.471    -1.952    -1.825  0.2580  0.8635 -0.4334
     5 H(1)   Bbb    -0.0100    -5.313    -1.896    -1.772  0.1239  0.4153  0.9012
              Bcc     0.0202    10.784     3.848     3.597  0.9582 -0.2863  0.0002
 
              Baa    -0.0812   -10.900    -3.890    -3.636 -0.4944 -0.5361  0.6842
     6 C(13)  Bbb    -0.0076    -1.025    -0.366    -0.342 -0.6560  0.7465  0.1109
              Bcc     0.0889    11.926     4.255     3.978  0.5703  0.3940  0.7208
 
              Baa    -0.2595   -34.828   -12.428   -11.617 -0.0888 -0.3945  0.9146
     7 C(13)  Bbb     0.0367     4.930     1.759     1.644 -0.3437  0.8739  0.3436
              Bcc     0.2228    29.899    10.669     9.973  0.9349  0.2839  0.2132
 
              Baa    -0.8524  -114.378   -40.813   -38.152  0.9508 -0.3058  0.0494
     8 C(13)  Bbb     0.1485    19.931     7.112     6.648 -0.1742 -0.3961  0.9015
              Bcc     0.7038    94.447    33.701    31.504  0.2561  0.8658  0.4299
 
              Baa    -0.0618   -32.952   -11.758   -10.992 -0.3314 -0.4762  0.8145
     9 H(1)   Bbb    -0.0462   -24.631    -8.789    -8.216  0.4739  0.6624  0.5802
              Bcc     0.1079    57.583    20.547    19.208  0.8158 -0.5783 -0.0061
 

 ---------------------------------------------------------------------------------

 No NMR shielding tensors so no spin-rotation constants.
 Leave Link  601 at Mon Jun 20 03:02:28 2016, MaxMem=    33554432 cpu:         2.0
 (Enter /home/proyectos/fulerenos/M3C-v1.9/M3C-deps_CCC/g09-AM64L-G09RevC.01/l701.exe)
 Compute integral second derivatives.
 ... and contract with generalized density number  0.
 Leave Link  701 at Mon Jun 20 03:02:29 2016, MaxMem=    33554432 cpu:         1.6
 (Enter /home/proyectos/fulerenos/M3C-v1.9/M3C-deps_CCC/g09-AM64L-G09RevC.01/l702.exe)
 L702 exits ... SP integral derivatives will be done elsewhere.
 Leave Link  702 at Mon Jun 20 03:02:29 2016, MaxMem=    33554432 cpu:         0.1
 (Enter /home/proyectos/fulerenos/M3C-v1.9/M3C-deps_CCC/g09-AM64L-G09RevC.01/l703.exe)
 Compute integral second derivatives, UseDBF=F ICtDFT=           0.
 Integral derivatives from FoFJK, PRISM(SPDF).
 Calling FoFJK, ICntrl=    100127 FMM=F ISym2X=0 I1Cent= 0 IOpClX= 1 NMat=1 NMatS=1 NMatT=0.
 FoFJK:  IHMeth= 1 ICntrl=  100127 DoSepK=F KAlg= 0 I1Cent=   0 FoldK=F
 IRaf=         0 NMat=   1 IRICut=       1 DoRegI=T DoRafI=F ISym2E= 0.
 FoFCou: FMM=F IPFlag=           0 FMFlag=      100000 FMFlg1=         800
         NFxFlg=           0 DoJE=F BraDBF=F KetDBF=F FulRan=T
         wScrn=  0.000000 ICntrl=  100127 IOpCl=  1 I1Cent=           0 NGrid=           0
         NMat0=    1 NMatS0=      1 NMatT0=    0 NMatD0=    1 NMtDS0=    0 NMtDT0=    0
 Symmetry not used in FoFCou.
 Leave Link  703 at Mon Jun 20 03:05:46 2016, MaxMem=    33554432 cpu:       790.7
 (Enter /home/proyectos/fulerenos/M3C-v1.9/M3C-deps_CCC/g09-AM64L-G09RevC.01/l716.exe)
 Dipole        =-2.59777040D-01 2.85125132D-01 1.81819259D-01
 Polarizability= 8.78143097D+01 2.57859961D+00 5.76305754D+01
                 3.63654831D+00 4.72982542D+00 4.53510139D+01
 Full mass-weighted force constant matrix:
 Low frequencies ---  -14.9750  -12.4011   -0.0007   -0.0003    0.0006    2.9203
 Low frequencies ---  258.1482  327.3985  521.3545
 Diagonal vibrational polarizability:
        5.3282979       8.7179978       6.9030581
 Harmonic frequencies (cm**-1), IR intensities (KM/Mole), Raman scattering
 activities (A**4/AMU), depolarization ratios for plane and unpolarized
 incident light, reduced masses (AMU), force constants (mDyne/A),
 and normal coordinates:
                      1                      2                      3
                      A                      A                      A
 Frequencies --    258.1465               327.3984               521.3543
 Red. masses --      2.8865                 2.9370                 3.2863
 Frc consts  --      0.1133                 0.1855                 0.5263
 IR Inten    --      5.3798                13.9355                26.8973
  Atom  AN      X      Y      Z        X      Y      Z        X      Y      Z
     1   6    -0.02   0.04  -0.15     0.12   0.10   0.09    -0.06   0.28  -0.06
     2   6     0.10  -0.03   0.18     0.01  -0.13  -0.04    -0.11  -0.02   0.09
     3   1     0.47  -0.03   0.22    -0.02  -0.05  -0.02    -0.01  -0.09   0.07
     4   1    -0.21   0.01  -0.10    -0.23  -0.03  -0.11    -0.01  -0.43  -0.39
     5   1    -0.08  -0.12   0.48     0.03  -0.31  -0.11    -0.10  -0.00   0.10
     6   6    -0.03   0.02  -0.12    -0.12   0.08  -0.03    -0.03  -0.18  -0.15
     7   6    -0.01   0.05  -0.20    -0.01   0.24   0.06     0.11  -0.05   0.14
     8   6    -0.04  -0.06   0.20     0.04  -0.20  -0.05     0.08  -0.01   0.05
     9   1    -0.10  -0.14   0.47    -0.35  -0.69  -0.19     0.23   0.20  -0.58
                      4                      5                      6
                      A                      A                      A
 Frequencies --    543.6968               598.0964               697.0322
 Red. masses --      1.6603                 2.6208                 3.0359
 Frc consts  --      0.2892                 0.5524                 0.8691
 IR Inten    --     43.0735                27.2302                45.5746
  Atom  AN      X      Y      Z        X      Y      Z        X      Y      Z
     1   6    -0.06   0.12   0.06     0.03   0.01  -0.14    -0.14   0.13   0.07
     2   6    -0.07  -0.05  -0.01     0.05   0.02   0.03     0.15  -0.18  -0.08
     3   1    -0.25  -0.08  -0.04     0.31   0.01   0.06     0.27   0.16   0.06
     4   1    -0.10  -0.16  -0.07     0.17   0.10   0.04     0.23  -0.04  -0.26
     5   1     0.03  -0.01  -0.17    -0.07  -0.03   0.24     0.07  -0.54   0.01
     6   6    -0.01  -0.02   0.06     0.02  -0.04  -0.08     0.08   0.21  -0.00
     7   6     0.08  -0.02  -0.09    -0.07  -0.02   0.28    -0.07  -0.10   0.05
     8   6     0.08  -0.00  -0.08    -0.03   0.05  -0.17    -0.10  -0.05  -0.02
     9   1     0.09  -0.01   0.89    -0.27  -0.28   0.71     0.28   0.46  -0.04
                      7                      8                      9
                      A                      A                      A
 Frequencies --    799.0189               870.4545               943.9558
 Red. masses --      2.1138                 1.5918                 2.0588
 Frc consts  --      0.7951                 0.7106                 1.0809
 IR Inten    --     21.4668                46.2955                 1.6429
  Atom  AN      X      Y      Z        X      Y      Z        X      Y      Z
     1   6     0.18  -0.03  -0.04    -0.09  -0.03   0.01    -0.01   0.01   0.00
     2   6    -0.04   0.10   0.01    -0.02  -0.05  -0.00     0.13  -0.03   0.04
     3   1     0.14  -0.12  -0.05    -0.05   0.14   0.07    -0.30  -0.26  -0.10
     4   1    -0.23  -0.11  -0.15     0.04   0.61   0.55    -0.13  -0.28  -0.15
     5   1    -0.10   0.03   0.11    -0.04  -0.06   0.01     0.30   0.64  -0.17
     6   6    -0.15   0.08   0.02     0.02  -0.06  -0.10     0.09  -0.09  -0.00
     7   6    -0.02  -0.03   0.04     0.02   0.13   0.03    -0.03   0.14   0.02
     8   6    -0.00  -0.15  -0.05     0.06  -0.08  -0.00    -0.18  -0.06  -0.03
     9   1     0.58   0.62   0.20     0.36   0.33   0.08     0.06   0.28   0.09
                     10                     11                     12
                      A                      A                      A
 Frequencies --    980.3306              1035.8497              1064.2970
 Red. masses --      2.2370                 1.4616                 1.8793
 Frc consts  --      1.2666                 0.9240                 1.2542
 IR Inten    --      5.1477                25.9010                 3.4623
  Atom  AN      X      Y      Z        X      Y      Z        X      Y      Z
     1   6     0.17   0.14   0.04    -0.03  -0.07  -0.14     0.09   0.02   0.00
     2   6     0.04   0.05   0.09     0.02  -0.03   0.08    -0.13  -0.01  -0.03
     3   1    -0.33   0.20   0.10    -0.44   0.67   0.27     0.23   0.38   0.14
     4   1     0.03   0.39   0.39    -0.01  -0.21  -0.19     0.69  -0.20  -0.09
     5   1     0.29  -0.38  -0.43     0.21  -0.15  -0.30    -0.27  -0.21   0.20
     6   6    -0.01  -0.08  -0.06    -0.03   0.03   0.05     0.09  -0.10   0.09
     7   6    -0.06  -0.13  -0.06     0.00   0.04   0.03     0.00   0.11  -0.07
     8   6    -0.12  -0.00  -0.01     0.05  -0.01   0.00    -0.11  -0.03  -0.02
     9   1    -0.12   0.01   0.01     0.07   0.02   0.00    -0.00   0.13   0.08
                     13                     14                     15
                      A                      A                      A
 Frequencies --   1132.8692              1193.3711              1299.7662
 Red. masses --      1.3840                 2.2640                 1.7126
 Frc consts  --      1.0465                 1.8997                 1.7047
 IR Inten    --      8.7127                 0.1611                 0.6772
  Atom  AN      X      Y      Z        X      Y      Z        X      Y      Z
     1   6     0.04   0.06   0.04     0.10  -0.01  -0.02    -0.04   0.00   0.02
     2   6     0.05  -0.07  -0.09    -0.13  -0.17   0.11     0.11   0.01   0.01
     3   1     0.12   0.64   0.16    -0.50  -0.19   0.07     0.00  -0.15  -0.06
     4   1    -0.23   0.05   0.13     0.41   0.25  -0.10     0.90   0.05  -0.07
     5   1    -0.09   0.60   0.28    -0.15   0.54   0.20     0.19   0.20  -0.08
     6   6    -0.07  -0.04   0.02     0.06   0.17  -0.10    -0.21  -0.03   0.00
     7   6    -0.01  -0.06  -0.01    -0.02  -0.05  -0.01     0.00   0.01  -0.02
     8   6     0.01   0.01   0.00     0.01   0.01   0.00     0.04  -0.00   0.00
     9   1    -0.02  -0.03  -0.01    -0.01  -0.03  -0.02     0.03  -0.03   0.01
                     16                     17                     18
                      A                      A                      A
 Frequencies --   1483.4547              1517.5768              3079.6077
 Red. masses --      1.5275                 2.9290                 1.0565
 Frc consts  --      1.9806                 3.9744                 5.9034
 IR Inten    --     11.4413                19.0377                12.7303
  Atom  AN      X      Y      Z        X      Y      Z        X      Y      Z
     1   6     0.01   0.02   0.01    -0.03  -0.06  -0.02     0.00   0.00   0.00
     2   6    -0.08  -0.04   0.04    -0.09  -0.04   0.03     0.05   0.02  -0.04
     3   1     0.64  -0.00   0.11     0.59   0.07   0.14    -0.07  -0.27   0.78
     4   1     0.02  -0.04  -0.03    -0.04   0.19   0.06     0.00  -0.02   0.02
     5   1     0.32   0.28  -0.58     0.25   0.22  -0.50    -0.47   0.05  -0.29
     6   6     0.04  -0.01   0.00    -0.07   0.08  -0.02    -0.00  -0.00  -0.00
     7   6    -0.16   0.01  -0.02     0.33  -0.03   0.04    -0.00  -0.00   0.00
     8   6     0.09   0.00   0.01    -0.19  -0.01  -0.02     0.00   0.00  -0.00
     9   1     0.11  -0.02   0.01    -0.22   0.03  -0.02     0.01  -0.00  -0.00
                     19                     20                     21
                      A                      A                      A
 Frequencies --   3118.4634              3149.6790              3263.8560
 Red. masses --      1.0905                 1.1113                 1.0968
 Frc consts  --      6.2480                 6.4957                 6.8843
 IR Inten    --      4.9572                10.0023                 4.0672
  Atom  AN      X      Y      Z        X      Y      Z        X      Y      Z
     1   6     0.00  -0.00   0.00     0.00  -0.00   0.00     0.00  -0.00   0.00
     2   6     0.01  -0.01   0.02    -0.06   0.02  -0.07    -0.00  -0.00   0.00
     3   1     0.01   0.04  -0.12    -0.07  -0.17   0.49     0.00   0.00  -0.01
     4   1     0.10  -0.67   0.70     0.02  -0.14   0.14    -0.00   0.01  -0.01
     5   1    -0.13   0.02  -0.08     0.71  -0.06   0.40    -0.00  -0.00  -0.00
     6   6    -0.01   0.06  -0.06    -0.00   0.01  -0.01     0.00  -0.00   0.00
     7   6     0.00  -0.00  -0.00    -0.00  -0.00  -0.00     0.01   0.00   0.00
     8   6    -0.00   0.00   0.00     0.00   0.00   0.00    -0.08   0.05   0.00
     9   1     0.01  -0.01  -0.00     0.01  -0.01  -0.00     0.79  -0.61  -0.02

 -------------------
 - Thermochemistry -
 -------------------
 Temperature   298.150 Kelvin.  Pressure   1.00000 Atm.
 Atom     1 has atomic number  6 and mass  12.00000
 Atom     2 has atomic number  6 and mass  12.00000
 Atom     3 has atomic number  1 and mass   1.00783
 Atom     4 has atomic number  1 and mass   1.00783
 Atom     5 has atomic number  1 and mass   1.00783
 Atom     6 has atomic number  6 and mass  12.00000
 Atom     7 has atomic number  6 and mass  12.00000
 Atom     8 has atomic number  6 and mass  12.00000
 Atom     9 has atomic number  1 and mass   1.00783
 Molecular mass:    64.03130 amu.
 Principal axes and moments of inertia in atomic units:
                           1         2         3
     Eigenvalues --    93.28833 393.47587 447.25162
           X            0.99979  -0.02034  -0.00362
           Y            0.01969   0.99131  -0.13006
           Z            0.00624   0.12996   0.99150
 This molecule is an asymmetric top.
 Rotational symmetry number  1.
 Rotational temperatures (Kelvin)      0.92845     0.22012     0.19366
 Rotational constants (GHZ):          19.34584     4.58666     4.03518
 Zero-point vibrational energy     166749.1 (Joules/Mol)
                                   39.85399 (Kcal/Mol)
 Warning -- explicit consideration of   5 degrees of freedom as
           vibrations may cause significant error
 Vibrational temperatures:    371.41   471.05   750.11   782.26   860.53
          (Kelvin)           1002.87  1149.61  1252.39  1358.14  1410.48
                             1490.35  1531.28  1629.94  1716.99  1870.07
                             2134.36  2183.45  4430.86  4486.77  4531.68
                             4695.95
 
 Zero-point correction=                           0.063511 (Hartree/Particle)
 Thermal correction to Energy=                    0.068229
 Thermal correction to Enthalpy=                  0.069173
 Thermal correction to Gibbs Free Energy=         0.035609
 Sum of electronic and zero-point Energies=           -192.660638
 Sum of electronic and thermal Energies=              -192.655920
 Sum of electronic and thermal Enthalpies=            -192.654976
 Sum of electronic and thermal Free Energies=         -192.688540
 
                     E (Thermal)             CV                S
                      KCal/Mol        Cal/Mol-Kelvin    Cal/Mol-Kelvin
 Total                   42.814             17.007             70.641
 Electronic               0.000              0.000              2.183
 Translational            0.889              2.981             38.389
 Rotational               0.889              2.981             24.310
 Vibrational             41.037             11.045              5.758
 Vibration     1          0.667              1.749              1.674
 Vibration     2          0.711              1.621              1.273
 Vibration     3          0.876              1.203              0.607
 Vibration     4          0.899              1.153              0.557
 Vibration     5          0.956              1.036              0.453
                       Q            Log10(Q)             Ln(Q)
 Total Bot       0.417830D-16        -16.379001        -37.714043
 Total V=0       0.682567D+13         12.834146         29.551712
 Vib (Bot)       0.150778D-28        -28.821661        -66.364326
 Vib (Bot)    1  0.753093D+00         -0.123151         -0.283567
 Vib (Bot)    2  0.571610D+00         -0.242900         -0.559298
 Vib (Bot)    3  0.309220D+00         -0.509732         -1.173701
 Vib (Bot)    4  0.290383D+00         -0.537028         -1.236553
 Vib (Bot)    5  0.250147D+00         -0.601805         -1.385706
 Vib (V=0)       0.246312D+01          0.391485          0.901429
 Vib (V=0)    1  0.140396D+01          0.147356          0.339299
 Vib (V=0)    2  0.125943D+01          0.100175          0.230662
 Vib (V=0)    3  0.108789D+01          0.036586          0.084242
 Vib (V=0)    4  0.107821D+01          0.032702          0.075299
 Vib (V=0)    5  0.105908D+01          0.024930          0.057403
 Electronic      0.300000D+01          0.477121          1.098612
 Translational   0.201393D+08          7.304044         16.818182
 Rotational      0.458664D+05          4.661495         10.733489
 
                                                              b3lyp opt
                                                             IR Spectrum
 
     3    33 3                                                           1 1      1   1 1  11                                        
     2    11 0                                                           5 4      3   1 1  00 9 9  8 7   6   5 55       3 2          
     6    51 8                                                           1 8      0   9 3  63 8 4  7 9   9   9 42       2 5          
     4    08 0                                                           8 3      0   3 3  46 0 4  0 9   7   8 41       7 8          
 
     X    XX X                                                           X X      X   X X  XX X X  X X   X   X XX       X X          
     X    XX X                                                           X X            X   X X    X X   X   X XX       X X          
          X  X                                                           X X            X   X      X X   X   X XX       X            
          X  X                                                           X X            X   X      X X   X   X XX       X            
             X                                                           X X                X      X X   X   X XX       X            
                                                                         X                  X      X X   X   X XX       X            
                                                                         X                  X      X X   X   X XX                    
                                                                         X                  X      X X   X   X XX                    
                                                                                            X      X X   X   X XX                    
                                                                                            X      X     X   X XX                    
                                                                                            X      X     X   X XX                    
                                                                                                   X     X   X XX                    
                                                                                                   X     X     X                     
                                                                                                   X     X     X                     
                                                                                                   X     X     X                     
                                                                                                   X     X     X                     
                                                                                                   X     X     X                     
                                                                                                   X     X     X                     
                                                                                                   X     X     X                     
                                                                                                   X     X                           
 
 ***** Axes restored to original set *****
 -------------------------------------------------------------------
 Center     Atomic                   Forces (Hartrees/Bohr)
 Number     Number              X              Y              Z
 -------------------------------------------------------------------
      1        6          -0.000021464   -0.000004004   -0.000032460
      2        6           0.000200210   -0.000139014   -0.000220473
      3        1          -0.000043760    0.000064538    0.000185077
      4        1          -0.000002824    0.000062345    0.000037414
      5        1          -0.000015900    0.000021573    0.000011574
      6        6          -0.000052315   -0.000007797    0.000016945
      7        6          -0.000030403    0.000030797   -0.000015362
      8        6          -0.000038124   -0.000030536    0.000024344
      9        1           0.000004581    0.000002098   -0.000007058
 -------------------------------------------------------------------
 Cartesian Forces:  Max     0.000220473 RMS     0.000078002
 Z-matrix is all fixed cartesians, so copy forces.
 Force constants in Cartesian coordinates: 
                1             2             3             4             5 
      1  0.254346D+00
      2 -0.569072D-01  0.170624D+00
      3  0.712636D-02 -0.760269D-01  0.127059D+00
      4 -0.103022D+00 -0.417658D-01  0.303444D-01  0.632888D+00
      5 -0.751498D-02 -0.223975D-01  0.623659D-02 -0.721268D-01  0.253885D+00
      6  0.392298D-01  0.230089D-01 -0.736108D-01  0.333228D-01  0.146822D+00
      7 -0.116211D-01 -0.664136D-03  0.186855D-01 -0.450188D-01  0.131421D-01
      8 -0.901675D-02  0.557372D-02  0.198388D-01  0.116455D-01 -0.592288D-01
      9  0.104858D-01 -0.192692D-02 -0.102419D-01  0.150647D-01 -0.928354D-01
     10  0.143024D-02 -0.155256D-02  0.323986D-02  0.338531D-02  0.134798D-01
     11 -0.123915D-02  0.366348D-02 -0.113484D-01  0.351078D-02 -0.865045D-02
     12  0.214661D-02 -0.258614D-02  0.152111D-01 -0.608705D-02  0.158669D-02
     13 -0.106052D-01  0.449403D-02 -0.463534D-02 -0.247119D+00 -0.168168D-01
     14 -0.114083D-01  0.368684D-03 -0.105235D-01 -0.188893D-01 -0.517403D-01
     15  0.104932D-01 -0.302236D-02  0.862763D-02 -0.122643D+00 -0.126083D-01
     16  0.330278D-01 -0.137084D-01 -0.502531D-02 -0.173529D+00  0.702842D-01
     17 -0.775309D-02 -0.865740D-01  0.411102D-01  0.106595D+00 -0.121173D+00
     18 -0.596418D-02  0.216599D-01 -0.776997D-02  0.290319D-01 -0.573182D-01
     19 -0.967963D-01  0.104159D+00 -0.352930D-01 -0.600014D-01 -0.258884D-02
     20  0.735467D-01 -0.744300D-01  0.302968D-01  0.105060D-01  0.138013D-01
     21 -0.484260D-01  0.382489D-01 -0.648697D-01  0.229329D-01  0.472059D-02
     22 -0.680892D-01  0.560351D-02 -0.143933D-01 -0.716197D-02  0.249268D-02
     23  0.217184D-01  0.281693D-02 -0.588651D-03  0.980456D-03 -0.429812D-02
     24 -0.177122D-01  0.268809D-02  0.753858D-02 -0.807450D-03  0.403807D-02
     25  0.133005D-02  0.341707D-03 -0.491041D-04 -0.421375D-03 -0.351322D-03
     26 -0.142557D-02  0.354187D-03  0.100514D-02 -0.456156D-03 -0.198333D-03
     27  0.262059D-02 -0.204341D-02 -0.194434D-02 -0.115908D-02 -0.641715D-03
                6             7             8             9            10 
      6  0.538674D+00
      7  0.168168D-01  0.550670D-01
      8 -0.867106D-01 -0.109822D-01  0.715957D-01
      9 -0.287422D+00 -0.259395D-01  0.933702D-01  0.303939D+00
     10  0.194184D-01 -0.118096D-02  0.469985D-02 -0.887874D-03  0.529468D-01
     11 -0.734332D-02 -0.823193D-04 -0.181498D-03  0.845594D-03  0.218689D-01
     12 -0.694764D-02  0.682347D-03 -0.208726D-02  0.673657D-03  0.202348D-01
     13 -0.117555D+00  0.437212D-02  0.807294D-03  0.148171D-02  0.454990D-03
     14 -0.148360D-01 -0.878993D-02  0.576248D-03 -0.443424D-02 -0.182188D-02
     15 -0.121797D+00 -0.243491D-01 -0.207206D-02 -0.117522D-01  0.167813D-03
     16  0.227378D-01 -0.463678D-02  0.806477D-02  0.648755D-03 -0.535188D-01
     17 -0.676295D-01  0.685585D-02 -0.152402D-01  0.263491D-02 -0.197974D-01
     18 -0.647866D-01  0.127782D-01 -0.229175D-01  0.490006D-02 -0.231594D-01
     19 -0.114097D-01  0.532193D-02 -0.966665D-02 -0.322022D-02 -0.666718D-02
     20  0.538664D-02  0.222858D-03 -0.288869D-02  0.250447D-02 -0.169774D-01
     21  0.122151D-01  0.265414D-02  0.775854D-03 -0.145230D-03 -0.195146D-01
     22 -0.225139D-02 -0.234140D-02  0.447103D-02  0.241315D-02  0.338937D-02
     23  0.257099D-02  0.247241D-03 -0.465324D-03 -0.326879D-04  0.718822D-04
     24  0.326750D-02 -0.130049D-02 -0.422061D-03  0.141999D-03 -0.302041D-03
     25 -0.309953D-03  0.379104D-04 -0.228391D-04 -0.464366D-04 -0.239768D-03
     26 -0.126876D-02  0.505352D-04  0.258870D-03 -0.125829D-03  0.289151D-04
     27  0.406528D-03 -0.278398D-04  0.224588D-03 -0.940525D-04  0.803039D-03
               11            12            13            14            15 
     11  0.178235D+00
     12  0.156766D+00  0.187510D+00
     13 -0.616180D-03  0.797363D-03  0.272522D+00
     14 -0.216443D-04  0.638442D-03  0.177595D-01  0.420959D-01
     15  0.256711D-03  0.241811D-03  0.125846D+00  0.164789D-01  0.123684D+00
     16 -0.106413D-01 -0.253107D-01 -0.114386D-01  0.196098D-01  0.530572D-02
     17 -0.159979D+00 -0.161740D+00 -0.615865D-02  0.964012D-02  0.135960D-02
     18 -0.136518D+00 -0.192837D+00 -0.520139D-02  0.134332D-01  0.408646D-03
     19 -0.195641D-01  0.112042D-01 -0.711490D-02  0.568175D-02  0.285484D-02
     20 -0.122625D-01  0.678885D-02  0.427179D-03 -0.284124D-02 -0.459154D-04
     21 -0.328168D-02 -0.374779D-02 -0.112833D-02 -0.292283D-03  0.315488D-03
     22  0.690350D-02 -0.370438D-02 -0.960324D-03 -0.243476D-02  0.230747D-02
     23 -0.794148D-03  0.782175D-03  0.101957D-03  0.220258D-02 -0.453896D-03
     24  0.682138D-03 -0.431353D-03  0.470509D-03 -0.398100D-03  0.196197D-03
     25 -0.140133D-03  0.367669D-04 -0.111185D-03  0.292997D-03  0.176000D-04
     26 -0.956272D-05 -0.148793D-03  0.166926D-05 -0.280340D-03  0.107244D-03
     27 -0.587452D-04  0.327858D-03 -0.755672D-04 -0.664726D-04  0.754874D-04
               16            17            18            19            20 
     16  0.416708D+00
     17  0.222670D-01  0.470919D+00
     18  0.105055D-01  0.221989D+00  0.297638D+00
     19 -0.163134D+00 -0.110825D+00 -0.125844D-01  0.702269D+00
     20 -0.778164D-01 -0.103283D+00 -0.407148D-01  0.242896D-01  0.229284D+00
     21 -0.103408D-01 -0.412770D-01 -0.396447D-01  0.779953D-01 -0.364971D-02
     22 -0.433069D-01  0.687963D-02 -0.518999D-02 -0.365281D+00  0.530884D-02
     23 -0.173994D-01  0.596112D-02 -0.142369D-02 -0.875732D-02 -0.551051D-01
     24  0.130527D-02 -0.845744D-03 -0.246104D-02 -0.254236D-01  0.419324D-02
     25 -0.171809D-03  0.193678D-02 -0.216333D-03 -0.859608D-02 -0.195072D-01
     26 -0.660291D-03 -0.270413D-03  0.181041D-02  0.172721D-01  0.772495D-02
     27  0.173695D-03  0.439870D-02  0.455322D-02 -0.412332D-02 -0.475954D-02
               21            22            23            24            25 
     21  0.130547D+00
     22 -0.269007D-01  0.719300D+00
     23  0.578685D-02  0.156245D+00  0.204777D+00
     24 -0.358286D-01  0.421898D-01 -0.144603D-01  0.424120D-01
     25  0.272813D-02 -0.235549D+00 -0.153208D+00  0.158020D-02  0.243721D+00
     26 -0.103146D-02 -0.185469D+00 -0.155095D+00  0.452464D-02  0.170658D+00
     27  0.115871D-02  0.552936D-02  0.781918D-02 -0.148353D-01 -0.374088D-02
               26            27 
     26  0.147515D+00
     27 -0.487258D-02  0.103519D-01
 Leave Link  716 at Mon Jun 20 03:05:46 2016, MaxMem=    33554432 cpu:         0.1
 (Enter /home/proyectos/fulerenos/M3C-v1.9/M3C-deps_CCC/g09-AM64L-G09RevC.01/l103.exe)

 GradGradGradGradGradGradGradGradGradGradGradGradGradGradGradGradGradGrad
 Berny optimization.
 Search for a local minimum.
 Step number   1 out of a maximum of    2
 All quantities printed in internal units (Hartrees-Bohrs-Radians)
 Second derivative matrix not updated -- analytic derivatives used.
 ITU=  0
     Eigenvalues ---    0.00708   0.01189   0.02603   0.02954   0.04837
     Eigenvalues ---    0.05314   0.08251   0.08492   0.10028   0.15245
     Eigenvalues ---    0.16691   0.18028   0.26343   0.29151   0.35284
     Eigenvalues ---    0.40964   0.61865   0.75842   0.86658   0.96061
     Eigenvalues ---    1.19659
 Angle between quadratic step and forces=  68.06 degrees.
 Linear search not attempted -- first point.
 B after Tr=    -0.000030    0.000003   -0.000124
         Rot=    1.000000   -0.000033   -0.000013    0.000010 Ang=  -0.00 deg.
 Variable       Old X    -DE/DX   Delta X   Delta X   Delta X     New X
                                 (Linear)    (Quad)   (Total)
    X1        0.66918  -0.00002   0.00000  -0.00024  -0.00028   0.66890
    Y1       -1.59444  -0.00000   0.00000   0.00003  -0.00003  -1.59448
    Z1        0.84436  -0.00003   0.00000  -0.00077  -0.00102   0.84334
    X2        2.91066   0.00020   0.00000   0.00048   0.00043   2.91110
    Y2       -0.27230  -0.00014   0.00000  -0.00027  -0.00030  -0.27260
    Z2       -0.47342  -0.00022   0.00000   0.00002  -0.00020  -0.47362
    X3        3.14582  -0.00004   0.00000   0.00065   0.00054   3.14636
    Y3       -0.94935   0.00006   0.00000   0.00004   0.00014  -0.94921
    Z3       -2.39677   0.00019   0.00000   0.00059   0.00032  -2.39645
    X4        1.13989  -0.00000   0.00000  -0.00007  -0.00000   1.13989
    Y4        2.98886   0.00006   0.00000   0.00035   0.00023   2.98909
    Z4        1.52840   0.00004   0.00000  -0.00020  -0.00016   1.52824
    X5        4.68707  -0.00002   0.00000  -0.00011  -0.00013   4.68694
    Y5       -0.11340   0.00002   0.00000   0.00001  -0.00012  -0.11352
    Z5        0.53963   0.00001   0.00000   0.00094   0.00069   0.54032
    X6        0.92492  -0.00005   0.00000   0.00007   0.00007   0.92499
    Y6        1.57850  -0.00001   0.00000  -0.00006  -0.00008   1.57842
    Z6        0.05457   0.00002   0.00000  -0.00010  -0.00014   0.05443
    X7       -1.29901  -0.00003   0.00000  -0.00016  -0.00019  -1.29920
    Y7       -0.00049   0.00003   0.00000   0.00034   0.00037  -0.00012
    Z7       -0.06483  -0.00002   0.00000  -0.00055  -0.00064  -0.06547
    X8       -3.80249  -0.00004   0.00000  -0.00033  -0.00037  -3.80286
    Y8        0.15309  -0.00003   0.00000  -0.00004   0.00006   0.15315
    Z8       -0.26824   0.00002   0.00000   0.00061   0.00059  -0.26765
    X9       -5.39236   0.00000   0.00000  -0.00001  -0.00007  -5.39243
    Y9       -1.11219   0.00000   0.00000  -0.00040  -0.00028  -1.11246
    Z9       -0.22588  -0.00001   0.00000   0.00061   0.00054  -0.22534
         Item               Value     Threshold  Converged?
 Maximum Force            0.000220     0.000450     YES
 RMS     Force            0.000078     0.000300     YES
 Maximum Displacement     0.001015     0.001800     YES
 RMS     Displacement     0.000380     0.001200     YES
 Predicted change in Energy=-1.582708D-07
 Optimization completed.
    -- Stationary point found.
 GradGradGradGradGradGradGradGradGradGradGradGradGradGradGradGradGradGrad

 Leave Link  103 at Mon Jun 20 03:05:46 2016, MaxMem=    33554432 cpu:         0.1
 (Enter /home/proyectos/fulerenos/M3C-v1.9/M3C-deps_CCC/g09-AM64L-G09RevC.01/l9999.exe)
 1\1\GINC-BELVIS17\Freq\UB3LYP\6-311++G(3df,2p)\C5H4(3)\ROOT\20-Jun-201
 6\0\\#p b3lyp/6-311++G(3df,2p) freq symmetry=Loose\\b3lyp opt\\0,3\C,0
 .354114,-0.843743,0.446815\C,1.540257,-0.144096,-0.250524\H,1.664696,-
 0.502375,-1.268317\H,0.603203,1.581635,0.808795\H,2.480293,-0.060009,0
 .28556\C,0.489446,0.835305,0.028877\C,-0.687405,-0.000261,-0.034307\C,
 -2.012191,0.081012,-0.141946\H,-2.853515,-0.588545,-0.119531\\Version=
 EM64L-G09RevE.01\State=3-A\HF=-192.7241492\S2=2.039372\S2-1=0.\S2A=2.0
 00341\RMSD=4.969e-09\RMSF=7.800e-05\ZeroPoint=0.0635114\Thermal=0.0682
 288\Dipole=0.2597771,0.2851251,-0.1818193\DipoleDeriv=0.0330261,-0.139
 4839,0.0943842,0.0591982,-0.525185,0.2332849,-0.236262,0.2041843,-0.27
 29495,0.3502612,-0.1331237,0.1375159,0.0114761,0.2607999,-0.0978527,0.
 2001427,-0.0535468,0.1428685,-0.0119105,-0.0105432,0.0193209,-0.083826
 5,0.081541,-0.0555439,0.0929934,-0.0437231,-0.0268762,-0.022267,-0.009
 3074,0.008833,-0.0229255,0.0947363,-0.110218,-0.0342354,-0.1808579,0.0
 566237,-0.05389,-0.0052894,-0.0326275,0.0351975,0.1109321,-0.0114065,-
 0.1069802,-0.0273173,0.037625,-0.0004843,0.0269814,0.006638,-0.2780608
 ,-0.2534338,0.1678691,-0.0147424,0.2833105,0.0799643,-0.515762,0.38501
 86,-0.3800047,0.2154753,0.1884533,-0.100578,0.0556041,-0.1761033,-0.02
 51698,0.0710134,-0.1133636,0.1605773,0.1838337,-0.0362775,-0.0414505,0
 .0839093,-0.045091,-0.1535593,0.150013,-0.0008886,-0.0146371,-0.120367
 9,0.0784338,0.0158956,-0.0404296,0.0391447,0.1614732\Polar=87.8143095,
 -2.5786009,57.6305756,3.6365481,-4.7298256,45.3510139\PG=C01 [X(C5H4)]
 \NImag=0\\0.25434598,-0.05690724,0.17062449,0.00712636,-0.07602691,0.1
 2705935,-0.10302223,-0.04176581,0.03034441,0.63288842,-0.00751498,-0.0
 2239751,0.00623659,-0.07212680,0.25388531,0.03922982,0.02300885,-0.073
 61077,0.03332281,0.14682167,0.53867405,-0.01162109,-0.00066414,0.01868
 549,-0.04501877,0.01314208,0.01681681,0.05506704,-0.00901675,0.0055737
 2,0.01983885,0.01164549,-0.05922876,-0.08671055,-0.01098219,0.07159567
 ,0.01048580,-0.00192692,-0.01024190,0.01506467,-0.09283544,-0.28742153
 ,-0.02593955,0.09337015,0.30393924,0.00143024,-0.00155256,0.00323986,0
 .00338531,0.01347978,0.01941842,-0.00118096,0.00469985,-0.00088787,0.0
 5294683,-0.00123915,0.00366348,-0.01134842,0.00351078,-0.00865045,-0.0
 0734332,-0.00008232,-0.00018150,0.00084559,0.02186890,0.17823546,0.002
 14661,-0.00258614,0.01521114,-0.00608705,0.00158669,-0.00694764,0.0006
 8235,-0.00208726,0.00067366,0.02023481,0.15676572,0.18750958,-0.010605
 24,0.00449403,-0.00463534,-0.24711874,-0.01681683,-0.11755459,0.004372
 12,0.00080729,0.00148171,0.00045499,-0.00061618,0.00079736,0.27252192,
 -0.01140827,0.00036868,-0.01052350,-0.01888926,-0.05174031,-0.01483602
 ,-0.00878993,0.00057625,-0.00443424,-0.00182188,-0.00002164,0.00063844
 ,0.01775953,0.04209590,0.01049317,-0.00302236,0.00862763,-0.12264310,-
 0.01260827,-0.12179666,-0.02434914,-0.00207206,-0.01175224,0.00016781,
 0.00025671,0.00024181,0.12584564,0.01647894,0.12368364,0.03302777,-0.0
 1370839,-0.00502531,-0.17352921,0.07028424,0.02273780,-0.00463678,0.00
 806477,0.00064875,-0.05351883,-0.01064130,-0.02531066,-0.01143865,0.01
 960982,0.00530572,0.41670805,-0.00775309,-0.08657398,0.04111015,0.1065
 9531,-0.12117313,-0.06762951,0.00685585,-0.01524024,0.00263491,-0.0197
 9744,-0.15997918,-0.16173968,-0.00615865,0.00964012,0.00135960,0.02226
 704,0.47091864,-0.00596418,0.02165994,-0.00776997,0.02903189,-0.057318
 18,-0.06478659,0.01277822,-0.02291751,0.00490006,-0.02315940,-0.136518
 00,-0.19283727,-0.00520139,0.01343324,0.00040865,0.01050554,0.22198859
 ,0.29763763,-0.09679627,0.10415890,-0.03529303,-0.06000144,-0.00258884
 ,-0.01140972,0.00532193,-0.00966665,-0.00322022,-0.00666718,-0.0195641
 1,0.01120420,-0.00711490,0.00568175,0.00285484,-0.16313368,-0.11082544
 ,-0.01258437,0.70226886,0.07354668,-0.07442999,0.03029676,0.01050600,0
 .01380130,0.00538664,0.00022286,-0.00288869,0.00250447,-0.01697744,-0.
 01226246,0.00678885,0.00042718,-0.00284124,-0.00004592,-0.07781645,-0.
 10328293,-0.04071480,0.02428956,0.22928416,-0.04842598,0.03824886,-0.0
 6486972,0.02293292,0.00472059,0.01221510,0.00265414,0.00077585,-0.0001
 4523,-0.01951463,-0.00328168,-0.00374779,-0.00112833,-0.00029228,0.000
 31549,-0.01034081,-0.04127702,-0.03964469,0.07799526,-0.00364971,0.130
 54672,-0.06808920,0.00560351,-0.01439334,-0.00716197,0.00249268,-0.002
 25139,-0.00234140,0.00447103,0.00241315,0.00338937,0.00690350,-0.00370
 438,-0.00096032,-0.00243476,0.00230747,-0.04330685,0.00687963,-0.00518
 999,-0.36528125,0.00530884,-0.02690070,0.71930034,0.02171836,0.0028169
 3,-0.00058865,0.00098046,-0.00429812,0.00257099,0.00024724,-0.00046532
 ,-0.00003269,0.00007188,-0.00079415,0.00078217,0.00010196,0.00220258,-
 0.00045390,-0.01739944,0.00596112,-0.00142369,-0.00875732,-0.05510509,
 0.00578685,0.15624500,0.20477664,-0.01771219,0.00268809,0.00753858,-0.
 00080745,0.00403807,0.00326750,-0.00130049,-0.00042206,0.00014200,-0.0
 0030204,0.00068214,-0.00043135,0.00047051,-0.00039810,0.00019620,0.001
 30527,-0.00084574,-0.00246104,-0.02542365,0.00419324,-0.03582860,0.042
 18983,-0.01446027,0.04241200,0.00133005,0.00034171,-0.00004910,-0.0004
 2137,-0.00035132,-0.00030995,0.00003791,-0.00002284,-0.00004644,-0.000
 23977,-0.00014013,0.00003677,-0.00011119,0.00029300,0.00001760,-0.0001
 7181,0.00193678,-0.00021633,-0.00859608,-0.01950724,0.00272813,-0.2355
 4871,-0.15320815,0.00158020,0.24372097,-0.00142557,0.00035419,0.001005
 14,-0.00045616,-0.00019833,-0.00126876,0.00005054,0.00025887,-0.000125
 83,0.00002892,-0.00000956,-0.00014879,0.00000167,-0.00028034,0.0001072
 4,-0.00066029,-0.00027041,0.00181041,0.01727215,0.00772495,-0.00103146
 ,-0.18546945,-0.15509459,0.00452464,0.17065820,0.14751523,0.00262059,-
 0.00204341,-0.00194434,-0.00115908,-0.00064171,0.00040653,-0.00002784,
 0.00022459,-0.00009405,0.00080304,-0.00005875,0.00032786,-0.00007557,-
 0.00006647,0.00007549,0.00017369,0.00439870,0.00455322,-0.00412332,-0.
 00475954,0.00115871,0.00552936,0.00781918,-0.01483529,-0.00374088,-0.0
 0487258,0.01035189\\0.00002146,0.00000400,0.00003246,-0.00020021,0.000
 13901,0.00022047,0.00004376,-0.00006454,-0.00018508,0.00000282,-0.0000
 6234,-0.00003741,0.00001590,-0.00002157,-0.00001157,0.00005232,0.00000
 780,-0.00001695,0.00003040,-0.00003080,0.00001536,0.00003812,0.0000305
 4,-0.00002434,-0.00000458,-0.00000210,0.00000706\\\@


 TO DETECT ERRORS, THE PROGRAMMER MUST HAVE A CONNIVING MIND,
 ONE THAT DELIGHTS IN UNCOVERING FLAWS WHERE BEAUTY AND
 PERFECTION WERE ONCE THOUGHT TO LIE.

             -- THE PSYCHOLOGY OF COMPUTER PROGRAMMING
                GERALD M. WEINBERG
 Job cpu time:       0 days  1 hours  8 minutes 58.6 seconds.
 File lengths (MBytes):  RWF=     80 Int=      0 D2E=      0 Chk=      5 Scr=      1
 Normal termination of Gaussian 09 at Mon Jun 20 03:05:46 2016.
