 Entering Gaussian System, Link 0=/home/proyectos/fulerenos/M3C-v2.0/M3C-deps_CCC/g09-AM64L-G09RevC.01/g09
 Initial command:
 /home/proyectos/fulerenos/M3C-v2.0/M3C-deps_CCC/g09-AM64L-G09RevC.01/l1.exe "/scratch/naguirre/gaussian/Gau-24931.inp" -scrdir="/scratch/naguirre/gaussian/"
 Entering Link 1 = /home/proyectos/fulerenos/M3C-v2.0/M3C-deps_CCC/g09-AM64L-G09RevC.01/l1.exe PID=     24940.
  
 Copyright (c) 1988,1990,1992,1993,1995,1998,2003,2009,2015,
            Gaussian, Inc.  All Rights Reserved.
  
 This is part of the Gaussian(R) 09 program.  It is based on
 the Gaussian(R) 03 system (copyright 2003, Gaussian, Inc.),
 the Gaussian(R) 98 system (copyright 1998, Gaussian, Inc.),
 the Gaussian(R) 94 system (copyright 1995, Gaussian, Inc.),
 the Gaussian 92(TM) system (copyright 1992, Gaussian, Inc.),
 the Gaussian 90(TM) system (copyright 1990, Gaussian, Inc.),
 the Gaussian 88(TM) system (copyright 1988, Gaussian, Inc.),
 the Gaussian 86(TM) system (copyright 1986, Carnegie Mellon
 University), and the Gaussian 82(TM) system (copyright 1983,
 Carnegie Mellon University). Gaussian is a federally registered
 trademark of Gaussian, Inc.
  
 This software contains proprietary and confidential information,
 including trade secrets, belonging to Gaussian, Inc.
  
 This software is provided under written license and may be
 used, copied, transmitted, or stored only in accord with that
 written license.
  
 The following legend is applicable only to US Government
 contracts under FAR:
  
                    RESTRICTED RIGHTS LEGEND
  
 Use, reproduction and disclosure by the US Government is
 subject to restrictions as set forth in subparagraphs (a)
 and (c) of the Commercial Computer Software - Restricted
 Rights clause in FAR 52.227-19.
  
 Gaussian, Inc.
 340 Quinnipiac St., Bldg. 40, Wallingford CT 06492
  
  
 ---------------------------------------------------------------
 Warning -- This program may not be used in any manner that
 competes with the business of Gaussian, Inc. or will provide
 assistance to any competitor of Gaussian, Inc.  The licensee
 of this program is prohibited from giving any competitor of
 Gaussian, Inc. access to this program.  By using this program,
 the user acknowledges that Gaussian, Inc. is engaged in the
 business of creating and licensing software in the field of
 computational chemistry and represents and warrants to the
 licensee that it is not a competitor of Gaussian, Inc. and that
 it will not use this program in any manner prohibited above.
 ---------------------------------------------------------------
  

 Cite this work as:
 Gaussian 09, Revision E.01,
 M. J. Frisch, G. W. Trucks, H. B. Schlegel, G. E. Scuseria, 
 M. A. Robb, J. R. Cheeseman, G. Scalmani, V. Barone, B. Mennucci, 
 G. A. Petersson, H. Nakatsuji, M. Caricato, X. Li, H. P. Hratchian, 
 A. F. Izmaylov, J. Bloino, G. Zheng, J. L. Sonnenberg, M. Hada, 
 M. Ehara, K. Toyota, R. Fukuda, J. Hasegawa, M. Ishida, T. Nakajima, 
 Y. Honda, O. Kitao, H. Nakai, T. Vreven, J. A. Montgomery, Jr., 
 J. E. Peralta, F. Ogliaro, M. Bearpark, J. J. Heyd, E. Brothers, 
 K. N. Kudin, V. N. Staroverov, T. Keith, R. Kobayashi, J. Normand, 
 K. Raghavachari, A. Rendell, J. C. Burant, S. S. Iyengar, J. Tomasi, 
 M. Cossi, N. Rega, J. M. Millam, M. Klene, J. E. Knox, J. B. Cross, 
 V. Bakken, C. Adamo, J. Jaramillo, R. Gomperts, R. E. Stratmann, 
 O. Yazyev, A. J. Austin, R. Cammi, C. Pomelli, J. W. Ochterski, 
 R. L. Martin, K. Morokuma, V. G. Zakrzewski, G. A. Voth, 
 P. Salvador, J. J. Dannenberg, S. Dapprich, A. D. Daniels, 
 O. Farkas, J. B. Foresman, J. V. Ortiz, J. Cioslowski, 
 and D. J. Fox, Gaussian, Inc., Wallingford CT, 2013.
 
 ******************************************
 Gaussian 09:  EM64L-G09RevE.01 30-Nov-2015
                31-Jan-2019 
 ******************************************
 %NProcShared=4
 Will use up to    4 processors via shared memory.
 ------------------------------------------------------
 #p b3lyp/6-311++G(3df,2p) freq IOp(2/17=3) IOp(2/18=3)
 ------------------------------------------------------
 1/10=4,30=1,38=1/1,3;
 2/12=2,17=3,18=3,40=1/2;
 3/5=4,6=6,7=1216,11=2,16=1,25=1,30=1,71=2,74=-5,140=1/1,2,3;
 4//1;
 5/5=2,38=5,98=1/2;
 8/6=4,10=90,11=11/1;
 11/6=1,8=1,9=11,15=111,16=1/1,2,10;
 10/6=1/2;
 6/7=2,8=2,9=2,10=2,18=1,28=1/1;
 7/8=1,10=1,25=1/1,2,3,16;
 1/10=4,30=1/3;
 99//99;
 Leave Link    1 at Thu Jan 31 07:51:57 2019, MaxMem=           0 cpu:         0.2
 (Enter /home/proyectos/fulerenos/M3C-v2.0/M3C-deps_CCC/g09-AM64L-G09RevC.01/l101.exe)
 ---------
 b3lyp opt
 ---------
 Symbolic Z-matrix:
 Charge =  2 Multiplicity = 1
 C                     1.79042   0.00009  -0.11102 
 H                     2.34392  -0.93833  -0.13626 
 H                     2.34381   0.93856  -0.1366 
 C                     0.41171   0.00004   0.08542 
 C                    -0.66483   0.97503   0.18495 
 H                    -0.88901   1.9107    0.70481 
 C                    -0.66472  -0.97503   0.18531 
 H                    -0.88879  -1.91054   0.7055 
 C                    -1.35758  -0.00017  -0.53424 
 
 NAtoms=      9 NQM=        9 NQMF=       0 NMMI=      0 NMMIF=      0
                NMic=       0 NMicF=      0.
                    Isotopes and Nuclear Properties:
 (Nuclear quadrupole moments (NQMom) in fm**2, nuclear magnetic moments (NMagM)
  in nuclear magnetons)

  Atom         1           2           3           4           5           6           7           8           9
 IAtWgt=          12           1           1          12          12           1          12           1          12
 AtmWgt=  12.0000000   1.0078250   1.0078250  12.0000000  12.0000000   1.0078250  12.0000000   1.0078250  12.0000000
 NucSpn=           0           1           1           0           0           1           0           1           0
 AtZEff=   0.0000000   0.0000000   0.0000000   0.0000000   0.0000000   0.0000000   0.0000000   0.0000000   0.0000000
 NQMom=    0.0000000   0.0000000   0.0000000   0.0000000   0.0000000   0.0000000   0.0000000   0.0000000   0.0000000
 NMagM=    0.0000000   2.7928460   2.7928460   0.0000000   0.0000000   2.7928460   0.0000000   2.7928460   0.0000000
 AtZNuc=   6.0000000   1.0000000   1.0000000   6.0000000   6.0000000   1.0000000   6.0000000   1.0000000   6.0000000
 Leave Link  101 at Thu Jan 31 07:51:57 2019, MaxMem=    33554432 cpu:         0.3
 (Enter /home/proyectos/fulerenos/M3C-v2.0/M3C-deps_CCC/g09-AM64L-G09RevC.01/l103.exe)

 GradGradGradGradGradGradGradGradGradGradGradGradGradGradGradGradGradGrad
 Berny optimization.
 Initialization pass.
 Trust Radius=3.00D-01 FncErr=1.00D-07 GrdErr=1.00D-07
 Number of steps in this run=      2 maximum allowed number of steps=      2.
 GradGradGradGradGradGradGradGradGradGradGradGradGradGradGradGradGradGrad

 Leave Link  103 at Thu Jan 31 07:51:57 2019, MaxMem=    33554432 cpu:         0.1
 (Enter /home/proyectos/fulerenos/M3C-v2.0/M3C-deps_CCC/g09-AM64L-G09RevC.01/l202.exe)
                          Input orientation:                          
 ---------------------------------------------------------------------
 Center     Atomic      Atomic             Coordinates (Angstroms)
 Number     Number       Type             X           Y           Z
 ---------------------------------------------------------------------
      1          6           0        1.790421    0.000088   -0.111018
      2          1           0        2.343920   -0.938325   -0.136262
      3          1           0        2.343813    0.938556   -0.136601
      4          6           0        0.411711    0.000045    0.085421
      5          6           0       -0.664827    0.975028    0.184953
      6          1           0       -0.889013    1.910702    0.704809
      7          6           0       -0.664715   -0.975025    0.185306
      8          1           0       -0.888794   -1.910537    0.705501
      9          6           0       -1.357578   -0.000169   -0.534237
 ---------------------------------------------------------------------
                    Distance matrix (angstroms):
                    1          2          3          4          5
     1  C    0.000000
     2  H    1.089779   0.000000
     3  H    1.089779   1.876881   0.000000
     4  C    1.392634   2.159424   2.159424   0.000000
     5  C    2.658260   3.580036   3.025994   1.455827   0.000000
     6  H    3.390484   4.390468   3.479109   2.392934   1.093616
     7  C    2.658260   3.025994   3.580036   1.455827   1.950053
     8  H    3.390484   3.479109   4.390468   2.392934   2.940683
     9  C    3.176320   3.839220   3.839220   1.874662   1.395760
                    6          7          8          9
     6  H    0.000000
     7  C    2.940683   0.000000
     8  H    3.821239   1.093616   0.000000
     9  C    2.325127   1.395760   2.325127   0.000000
 Stoichiometry    C5H4(2+)
 Framework group  CS[SG(C3),X(C2H4)]
 Deg. of freedom    12
 Full point group                 CS      NOp   2
 Largest Abelian subgroup         CS      NOp   2
 Largest concise Abelian subgroup CS      NOp   2
                         Standard orientation:                         
 ---------------------------------------------------------------------
 Center     Atomic      Atomic             Coordinates (Angstroms)
 Number     Number       Type             X           Y           Z
 ---------------------------------------------------------------------
      1          6           0       -0.472430    1.730532    0.000000
      2          1           0       -0.609581    2.267309   -0.938465
      3          1           0       -0.609581    2.267309    0.938465
      4          6           0       -0.000000    0.420479    0.000000
      5          6           0        0.316146   -0.613335    0.975060
      6          1           0        0.870694   -0.727184    1.910747
      7          6           0        0.316146   -0.613335   -0.975060
      8          1           0        0.870694   -0.727184   -1.910747
      9          6           0       -0.247302   -1.437800    0.000000
 ---------------------------------------------------------------------
 Rotational constants (GHZ):     13.5090844      5.5378199      4.2918425
 Leave Link  202 at Thu Jan 31 07:51:57 2019, MaxMem=    33554432 cpu:         0.0
 (Enter /home/proyectos/fulerenos/M3C-v2.0/M3C-deps_CCC/g09-AM64L-G09RevC.01/l301.exe)
 Standard basis: 6-311++G(3df,2p) (5D, 7F)
 Ernie: Thresh=  0.10000D-02 Tol=  0.10000D-05 Strict=F.
 There are   158 symmetry adapted cartesian basis functions of A'  symmetry.
 There are   107 symmetry adapted cartesian basis functions of A"  symmetry.
 There are   137 symmetry adapted basis functions of A'  symmetry.
 There are    98 symmetry adapted basis functions of A"  symmetry.
   235 basis functions,   338 primitive gaussians,   265 cartesian basis functions
    16 alpha electrons       16 beta electrons
       nuclear repulsion energy       137.8939311384 Hartrees.
 IExCor=  402 DFT=T Ex+Corr=B3LYP ExCW=0 ScaHFX=  0.200000
 ScaDFX=  0.800000  0.720000  1.000000  0.810000 ScalE2=  1.000000  1.000000
 IRadAn=      0 IRanWt=     -1 IRanGd=            0 ICorTp=0 IEmpDi=  4
 NAtoms=    9 NActive=    9 NUniq=    6 SFac= 2.25D+00 NAtFMM=   60 NAOKFM=F Big=F
 Integral buffers will be    131072 words long.
 Raffenetti 2 integral format.
 Two-electron integral symmetry is turned on.
 Leave Link  301 at Thu Jan 31 07:51:58 2019, MaxMem=    33554432 cpu:         0.3
 (Enter /home/proyectos/fulerenos/M3C-v2.0/M3C-deps_CCC/g09-AM64L-G09RevC.01/l302.exe)
 NPDir=0 NMtPBC=     1 NCelOv=     1 NCel=       1 NClECP=     1 NCelD=      1
         NCelK=      1 NCelE2=     1 NClLst=     1 CellRange=     0.0.
 One-electron integrals computed using PRISM.
 One-electron integral symmetry used in STVInt
 NBasis=   235 RedAO= T EigKep=  1.16D-05  NBF=   137    98
 NBsUse=   235 1.00D-06 EigRej= -1.00D+00 NBFU=   137    98
 Precomputing XC quadrature grid using
 IXCGrd= 4 IRadAn=           0 IRanWt=          -1 IRanGd=           0 AccXCQ= 0.00D+00.
 Generated NRdTot=       0 NPtTot=           0 NUsed=           0 NTot=          32
 NSgBfM=   265   265   265   265   265 MxSgAt=     9 MxSgA2=     9.
 Leave Link  302 at Thu Jan 31 07:51:58 2019, MaxMem=    33554432 cpu:         1.6
 (Enter /home/proyectos/fulerenos/M3C-v2.0/M3C-deps_CCC/g09-AM64L-G09RevC.01/l303.exe)
 DipDrv:  MaxL=1.
 Leave Link  303 at Thu Jan 31 07:51:58 2019, MaxMem=    33554432 cpu:         0.1
 (Enter /home/proyectos/fulerenos/M3C-v2.0/M3C-deps_CCC/g09-AM64L-G09RevC.01/l401.exe)
 ExpMin= 3.60D-02 ExpMax= 4.56D+03 ExpMxC= 6.82D+02 IAcc=3 IRadAn=         5 AccDes= 0.00D+00
 Harris functional with IExCor=  402 and IRadAn=       5 diagonalized for initial guess.
 HarFok:  IExCor=  402 AccDes= 0.00D+00 IRadAn=         5 IDoV= 1 UseB2=F ITyADJ=14
 ICtDFT=  3500011 ScaDFX=  1.000000  1.000000  1.000000  1.000000
 FoFCou: FMM=F IPFlag=           0 FMFlag=      100000 FMFlg1=           0
         NFxFlg=           0 DoJE=T BraDBF=F KetDBF=T FulRan=T
         wScrn=  0.000000 ICntrl=     500 IOpCl=  0 I1Cent=   200000004 NGrid=           0
         NMat0=    1 NMatS0=      1 NMatT0=    0 NMatD0=    1 NMtDS0=    0 NMtDT0=    0
 Petite list used in FoFCou.
 Harris En= -192.247292235984    
 JPrj=0 DoOrth=F DoCkMO=F.
 Initial guess orbital symmetries:
       Occupied  (A') (A") (A') (A') (A') (A') (A') (A") (A') (A')
                 (A') (A") (A") (A') (A") (A')
       Virtual   (A') (A") (A') (A') (A') (A') (A") (A") (A') (A')
                 (A') (A") (A') (A") (A') (A") (A') (A') (A") (A')
                 (A") (A') (A') (A") (A') (A") (A') (A") (A') (A')
                 (A") (A') (A") (A') (A') (A") (A") (A') (A') (A")
                 (A') (A") (A') (A') (A") (A') (A") (A") (A') (A')
                 (A') (A') (A") (A') (A') (A") (A') (A') (A') (A")
                 (A") (A') (A") (A') (A") (A') (A") (A') (A') (A')
                 (A") (A") (A') (A") (A') (A') (A") (A') (A") (A')
                 (A") (A") (A') (A') (A") (A') (A") (A') (A") (A')
                 (A') (A') (A") (A") (A') (A') (A") (A') (A') (A")
                 (A') (A') (A") (A') (A") (A') (A") (A") (A') (A")
                 (A') (A') (A") (A') (A") (A') (A') (A") (A') (A")
                 (A') (A") (A') (A') (A") (A') (A') (A") (A') (A")
                 (A") (A') (A') (A') (A") (A') (A') (A") (A") (A')
                 (A') (A") (A') (A") (A') (A") (A') (A") (A") (A')
                 (A') (A") (A') (A") (A') (A") (A') (A") (A") (A')
                 (A') (A") (A') (A') (A") (A') (A') (A') (A') (A")
                 (A') (A") (A") (A') (A') (A") (A') (A") (A") (A")
                 (A') (A') (A') (A") (A") (A') (A") (A") (A') (A")
                 (A') (A") (A') (A') (A") (A') (A') (A') (A") (A')
                 (A") (A') (A") (A') (A') (A") (A') (A") (A') (A')
                 (A") (A') (A") (A") (A') (A') (A") (A') (A')
 The electronic state of the initial guess is 1-A'.
 Leave Link  401 at Thu Jan 31 07:52:00 2019, MaxMem=    33554432 cpu:         7.8
 (Enter /home/proyectos/fulerenos/M3C-v2.0/M3C-deps_CCC/g09-AM64L-G09RevC.01/l502.exe)
 Closed shell SCF:
 Using DIIS extrapolation, IDIIS=  1040.
 Integral symmetry usage will be decided dynamically.
 IVT=      233035 IEndB=      233035 NGot=    33554432 MDV=    33408528
 LenX=    33408528 LenY=    33337862
 Requested convergence on RMS density matrix=1.00D-08 within 128 cycles.
 Requested convergence on MAX density matrix=1.00D-06.
 Requested convergence on             energy=1.00D-06.
 No special actions if energy rises.
 Fock matrices will be formed incrementally for  20 cycles.

 Cycle   1  Pass 1  IDiag  1:
 FoFJK:  IHMeth= 1 ICntrl=       0 DoSepK=F KAlg= 0 I1Cent=   0 FoldK=F
 IRaf= 990000000 NMat=   1 IRICut=       1 DoRegI=T DoRafI=F ISym2E= 1.
 FoFCou: FMM=F IPFlag=           0 FMFlag=      100000 FMFlg1=           0
         NFxFlg=           0 DoJE=F BraDBF=F KetDBF=F FulRan=T
         wScrn=  0.000000 ICntrl=       0 IOpCl=  0 I1Cent=           0 NGrid=           0
         NMat0=    1 NMatS0=      1 NMatT0=    0 NMatD0=    1 NMtDS0=    0 NMtDT0=    0
 Petite list used in FoFCou.
 E= -191.862711060405    
 DIIS: error= 2.34D-02 at cycle   1 NSaved=   1.
 NSaved= 1 IEnMin= 1 EnMin= -191.862711060405     IErMin= 1 ErrMin= 2.34D-02
 ErrMax= 2.34D-02  0.00D+00 EMaxC= 1.00D-01 BMatC= 5.83D-02 BMatP= 5.83D-02
 IDIUse=3 WtCom= 7.66D-01 WtEn= 2.34D-01
 Coeff-Com:  0.100D+01
 Coeff-En:   0.100D+01
 Coeff:      0.100D+01
 Gap=     0.088 Goal=   None    Shift=    0.000
 GapD=    0.088 DampG=0.500 DampE=0.500 DampFc=0.2500 IDamp=-1.
 Damping current iteration by 2.50D-01
 RMSDP=7.67D-03 MaxDP=5.77D-01              OVMax= 4.80D-01

 Cycle   2  Pass 1  IDiag  1:
 RMSU=  1.86D-03    CP:  1.04D+00
 E= -191.885842142658     Delta-E=       -0.023131082253 Rises=F Damp=T
 DIIS: error= 5.49D-03 at cycle   2 NSaved=   2.
 NSaved= 2 IEnMin= 2 EnMin= -191.885842142658     IErMin= 2 ErrMin= 5.49D-03
 ErrMax= 5.49D-03  0.00D+00 EMaxC= 1.00D-01 BMatC= 1.44D-02 BMatP= 5.83D-02
 IDIUse=3 WtCom= 9.45D-01 WtEn= 5.49D-02
 Coeff-Com: -0.927D-01 0.109D+01
 Coeff-En:   0.167D+00 0.833D+00
 Coeff:     -0.785D-01 0.108D+01
 Gap=     0.156 Goal=   None    Shift=    0.000
 RMSDP=2.58D-03 MaxDP=1.85D-01 DE=-2.31D-02 OVMax= 4.32D-01

 Cycle   3  Pass 1  IDiag  1:
 RMSU=  2.08D-03    CP:  1.15D+00  1.14D+00
 E= -191.921824650764     Delta-E=       -0.035982508105 Rises=F Damp=F
 DIIS: error= 1.06D-02 at cycle   3 NSaved=   3.
 NSaved= 3 IEnMin= 3 EnMin= -191.921824650764     IErMin= 2 ErrMin= 5.49D-03
 ErrMax= 1.06D-02  0.00D+00 EMaxC= 1.00D-01 BMatC= 1.28D-02 BMatP= 1.44D-02
 IDIUse=3 WtCom= 8.94D-01 WtEn= 1.06D-01
 Coeff-Com: -0.141D+00 0.607D+00 0.534D+00
 Coeff-En:   0.000D+00 0.000D+00 0.100D+01
 Coeff:     -0.126D+00 0.542D+00 0.583D+00
 Gap=     0.113 Goal=   None    Shift=    0.000
 RMSDP=1.22D-03 MaxDP=5.75D-02 DE=-3.60D-02 OVMax= 7.19D-02

 Cycle   4  Pass 1  IDiag  1:
 RMSU=  8.97D-04    CP:  1.13D+00  1.36D+00  6.81D-01
 E= -191.930759401191     Delta-E=       -0.008934750427 Rises=F Damp=F
 DIIS: error= 5.58D-03 at cycle   4 NSaved=   4.
 NSaved= 4 IEnMin= 4 EnMin= -191.930759401191     IErMin= 2 ErrMin= 5.49D-03
 ErrMax= 5.58D-03  0.00D+00 EMaxC= 1.00D-01 BMatC= 3.91D-03 BMatP= 1.28D-02
 IDIUse=3 WtCom= 9.44D-01 WtEn= 5.58D-02
 Coeff-Com: -0.235D-01 0.707D-01 0.354D+00 0.599D+00
 Coeff-En:   0.000D+00 0.000D+00 0.269D+00 0.731D+00
 Coeff:     -0.222D-01 0.667D-01 0.349D+00 0.606D+00
 Gap=     0.118 Goal=   None    Shift=    0.000
 RMSDP=4.06D-04 MaxDP=1.99D-02 DE=-8.93D-03 OVMax= 2.84D-02

 Cycle   5  Pass 1  IDiag  1:
 RMSU=  1.62D-04    CP:  1.13D+00  1.27D+00  7.63D-01  6.85D-01
 E= -191.934530963894     Delta-E=       -0.003771562704 Rises=F Damp=F
 DIIS: error= 6.22D-04 at cycle   5 NSaved=   5.
 NSaved= 5 IEnMin= 5 EnMin= -191.934530963894     IErMin= 5 ErrMin= 6.22D-04
 ErrMax= 6.22D-04  0.00D+00 EMaxC= 1.00D-01 BMatC= 4.65D-05 BMatP= 3.91D-03
 IDIUse=3 WtCom= 9.94D-01 WtEn= 6.22D-03
 Coeff-Com: -0.757D-02 0.899D-02 0.667D-01 0.174D+00 0.758D+00
 Coeff-En:   0.000D+00 0.000D+00 0.000D+00 0.000D+00 0.100D+01
 Coeff:     -0.752D-02 0.893D-02 0.663D-01 0.173D+00 0.759D+00
 Gap=     0.119 Goal=   None    Shift=    0.000
 RMSDP=9.98D-05 MaxDP=6.23D-03 DE=-3.77D-03 OVMax= 5.76D-03

 Cycle   6  Pass 1  IDiag  1:
 RMSU=  4.71D-05    CP:  1.13D+00  1.30D+00  7.46D-01  7.40D-01  9.83D-01
 E= -191.934573126238     Delta-E=       -0.000042162344 Rises=F Damp=F
 DIIS: error= 2.17D-04 at cycle   6 NSaved=   6.
 NSaved= 6 IEnMin= 6 EnMin= -191.934573126238     IErMin= 6 ErrMin= 2.17D-04
 ErrMax= 2.17D-04  0.00D+00 EMaxC= 1.00D-01 BMatC= 9.77D-06 BMatP= 4.65D-05
 IDIUse=3 WtCom= 9.98D-01 WtEn= 2.17D-03
 Coeff-Com:  0.378D-02-0.812D-02 0.801D-02 0.474D-01 0.376D+00 0.573D+00
 Coeff-En:   0.000D+00 0.000D+00 0.000D+00 0.000D+00 0.108D+00 0.892D+00
 Coeff:      0.378D-02-0.810D-02 0.799D-02 0.473D-01 0.375D+00 0.574D+00
 Gap=     0.119 Goal=   None    Shift=    0.000
 RMSDP=2.34D-05 MaxDP=1.45D-03 DE=-4.22D-05 OVMax= 9.11D-04

 Cycle   7  Pass 1  IDiag  1:
 RMSU=  1.36D-05    CP:  1.13D+00  1.30D+00  7.49D-01  7.32D-01  9.95D-01
                    CP:  7.83D-01
 E= -191.934582348461     Delta-E=       -0.000009222223 Rises=F Damp=F
 DIIS: error= 6.23D-05 at cycle   7 NSaved=   7.
 NSaved= 7 IEnMin= 7 EnMin= -191.934582348461     IErMin= 7 ErrMin= 6.23D-05
 ErrMax= 6.23D-05  0.00D+00 EMaxC= 1.00D-01 BMatC= 8.46D-07 BMatP= 9.77D-06
 IDIUse=1 WtCom= 1.00D+00 WtEn= 0.00D+00
 Coeff-Com:  0.512D-02-0.774D-02-0.602D-02-0.350D-02 0.591D-01 0.206D+00
 Coeff-Com:  0.747D+00
 Coeff:      0.512D-02-0.774D-02-0.602D-02-0.350D-02 0.591D-01 0.206D+00
 Coeff:      0.747D+00
 Gap=     0.119 Goal=   None    Shift=    0.000
 RMSDP=8.74D-06 MaxDP=4.75D-04 DE=-9.22D-06 OVMax= 5.16D-04

 Cycle   8  Pass 1  IDiag  1:
 RMSU=  6.09D-06    CP:  1.13D+00  1.29D+00  7.50D-01  7.33D-01  1.01D+00
                    CP:  7.81D-01  8.40D-01
 E= -191.934583401329     Delta-E=       -0.000001052867 Rises=F Damp=F
 DIIS: error= 1.01D-05 at cycle   8 NSaved=   8.
 NSaved= 8 IEnMin= 8 EnMin= -191.934583401329     IErMin= 8 ErrMin= 1.01D-05
 ErrMax= 1.01D-05  0.00D+00 EMaxC= 1.00D-01 BMatC= 3.37D-08 BMatP= 8.46D-07
 IDIUse=1 WtCom= 1.00D+00 WtEn= 0.00D+00
 Coeff-Com:  0.141D-02-0.203D-02-0.167D-02-0.322D-02-0.319D-02 0.285D-01
 Coeff-Com:  0.256D+00 0.724D+00
 Coeff:      0.141D-02-0.203D-02-0.167D-02-0.322D-02-0.319D-02 0.285D-01
 Coeff:      0.256D+00 0.724D+00
 Gap=     0.119 Goal=   None    Shift=    0.000
 RMSDP=1.95D-06 MaxDP=8.17D-05 DE=-1.05D-06 OVMax= 7.99D-05

 Cycle   9  Pass 1  IDiag  1:
 RMSU=  1.36D-06    CP:  1.13D+00  1.29D+00  7.50D-01  7.33D-01  1.01D+00
                    CP:  7.78D-01  9.14D-01  8.67D-01
 E= -191.934583436332     Delta-E=       -0.000000035003 Rises=F Damp=F
 DIIS: error= 4.17D-06 at cycle   9 NSaved=   9.
 NSaved= 9 IEnMin= 9 EnMin= -191.934583436332     IErMin= 9 ErrMin= 4.17D-06
 ErrMax= 4.17D-06  0.00D+00 EMaxC= 1.00D-01 BMatC= 2.40D-09 BMatP= 3.37D-08
 IDIUse=1 WtCom= 1.00D+00 WtEn= 0.00D+00
 Coeff-Com:  0.170D-04 0.151D-04 0.129D-04-0.781D-03-0.385D-02-0.219D-03
 Coeff-Com:  0.212D-01 0.193D+00 0.791D+00
 Coeff:      0.170D-04 0.151D-04 0.129D-04-0.781D-03-0.385D-02-0.219D-03
 Coeff:      0.212D-01 0.193D+00 0.791D+00
 Gap=     0.119 Goal=   None    Shift=    0.000
 RMSDP=6.32D-07 MaxDP=2.81D-05 DE=-3.50D-08 OVMax= 5.10D-05

 Cycle  10  Pass 1  IDiag  1:
 RMSU=  2.61D-07    CP:  1.13D+00  1.29D+00  7.50D-01  7.33D-01  1.01D+00
                    CP:  7.82D-01  9.07D-01  8.93D-01  8.89D-01
 E= -191.934583439388     Delta-E=       -0.000000003056 Rises=F Damp=F
 DIIS: error= 1.72D-06 at cycle  10 NSaved=  10.
 NSaved=10 IEnMin=10 EnMin= -191.934583439388     IErMin=10 ErrMin= 1.72D-06
 ErrMax= 1.72D-06  0.00D+00 EMaxC= 1.00D-01 BMatC= 2.97D-10 BMatP= 2.40D-09
 IDIUse=1 WtCom= 1.00D+00 WtEn= 0.00D+00
 Coeff-Com: -0.803D-06 0.307D-05 0.731D-04-0.125D-04-0.643D-03-0.165D-02
 Coeff-Com: -0.109D-01-0.110D-01 0.113D+00 0.911D+00
 Coeff:     -0.803D-06 0.307D-05 0.731D-04-0.125D-04-0.643D-03-0.165D-02
 Coeff:     -0.109D-01-0.110D-01 0.113D+00 0.911D+00
 Gap=     0.119 Goal=   None    Shift=    0.000
 RMSDP=2.11D-07 MaxDP=1.26D-05 DE=-3.06D-09 OVMax= 1.12D-05

 Cycle  11  Pass 1  IDiag  1:
 RMSU=  5.59D-08    CP:  1.13D+00  1.29D+00  7.50D-01  7.33D-01  1.01D+00
                    CP:  7.81D-01  9.09D-01  9.00D-01  9.50D-01  9.99D-01
 E= -191.934583439800     Delta-E=       -0.000000000413 Rises=F Damp=F
 DIIS: error= 1.36D-07 at cycle  11 NSaved=  11.
 NSaved=11 IEnMin=11 EnMin= -191.934583439800     IErMin=11 ErrMin= 1.36D-07
 ErrMax= 1.36D-07  0.00D+00 EMaxC= 1.00D-01 BMatC= 4.08D-12 BMatP= 2.97D-10
 IDIUse=1 WtCom= 1.00D+00 WtEn= 0.00D+00
 Coeff-Com: -0.941D-07-0.175D-05 0.198D-04 0.463D-04 0.150D-03-0.549D-04
 Coeff-Com: -0.333D-02-0.119D-01-0.268D-01 0.155D+00 0.887D+00
 Coeff:     -0.941D-07-0.175D-05 0.198D-04 0.463D-04 0.150D-03-0.549D-04
 Coeff:     -0.333D-02-0.119D-01-0.268D-01 0.155D+00 0.887D+00
 Gap=     0.119 Goal=   None    Shift=    0.000
 RMSDP=2.53D-08 MaxDP=1.37D-06 DE=-4.13D-10 OVMax= 1.65D-06

 Cycle  12  Pass 1  IDiag  1:
 RMSU=  1.32D-08    CP:  1.13D+00  1.29D+00  7.50D-01  7.33D-01  1.01D+00
                    CP:  7.81D-01  9.08D-01  9.02D-01  9.55D-01  1.05D+00
                    CP:  9.87D-01
 E= -191.934583439814     Delta-E=       -0.000000000014 Rises=F Damp=F
 DIIS: error= 4.48D-08 at cycle  12 NSaved=  12.
 NSaved=12 IEnMin=12 EnMin= -191.934583439814     IErMin=12 ErrMin= 4.48D-08
 ErrMax= 4.48D-08  0.00D+00 EMaxC= 1.00D-01 BMatC= 3.23D-13 BMatP= 4.08D-12
 IDIUse=1 WtCom= 1.00D+00 WtEn= 0.00D+00
 Coeff-Com:  0.828D-06-0.147D-05 0.415D-05 0.121D-04 0.666D-04 0.688D-04
 Coeff-Com: -0.507D-03-0.230D-02-0.111D-01 0.879D-02 0.255D+00 0.750D+00
 Coeff:      0.828D-06-0.147D-05 0.415D-05 0.121D-04 0.666D-04 0.688D-04
 Coeff:     -0.507D-03-0.230D-02-0.111D-01 0.879D-02 0.255D+00 0.750D+00
 Gap=     0.119 Goal=   None    Shift=    0.000
 RMSDP=5.53D-09 MaxDP=3.77D-07 DE=-1.36D-11 OVMax= 3.84D-07

 SCF Done:  E(RB3LYP) =  -191.934583440     A.U. after   12 cycles
            NFock= 12  Conv=0.55D-08     -V/T= 2.0045
 KE= 1.910707321383D+02 PE=-7.046050371545D+02 EE= 1.837057904380D+02
 Leave Link  502 at Thu Jan 31 07:53:13 2019, MaxMem=    33554432 cpu:       292.1
 (Enter /home/proyectos/fulerenos/M3C-v2.0/M3C-deps_CCC/g09-AM64L-G09RevC.01/l801.exe)
 DoSCS=F DFT=T ScalE2(SS,OS)=  1.000000  1.000000
 Range of M.O.s used for correlation:     1   235
 NBasis=   235 NAE=    16 NBE=    16 NFC=     0 NFV=     0
 NROrb=    235 NOA=    16 NOB=    16 NVA=   219 NVB=   219

 **** Warning!!: The largest alpha MO coefficient is  0.11285316D+03

 Leave Link  801 at Thu Jan 31 07:53:14 2019, MaxMem=    33554432 cpu:         0.1
 (Enter /home/proyectos/fulerenos/M3C-v2.0/M3C-deps_CCC/g09-AM64L-G09RevC.01/l1101.exe)
 Using compressed storage, NAtomX=     9.
 Will process     10 centers per pass.
 Leave Link 1101 at Thu Jan 31 07:53:15 2019, MaxMem=    33554432 cpu:         4.6
 (Enter /home/proyectos/fulerenos/M3C-v2.0/M3C-deps_CCC/g09-AM64L-G09RevC.01/l1102.exe)
 Symmetrizing basis deriv contribution to polar:
 IMax=3 JMax=2 DiffMx= 0.00D+00
 Leave Link 1102 at Thu Jan 31 07:53:15 2019, MaxMem=    33554432 cpu:         0.4
 (Enter /home/proyectos/fulerenos/M3C-v2.0/M3C-deps_CCC/g09-AM64L-G09RevC.01/l1110.exe)
 Forming Gx(P) for the SCF density, NAtomX=     9.
 Integral derivatives from FoFJK, PRISM(SPDF).
 Do as many integral derivatives as possible in FoFJK.
 G2DrvN: MDV=      33554256.
 G2DrvN: will do    10 centers at a time, making    1 passes.
 Calling FoFCou, ICntrl=  3107 FMM=F I1Cent=   0 AccDes= 0.00D+00.
 FoFJK:  IHMeth= 1 ICntrl=    3107 DoSepK=F KAlg= 0 I1Cent=   0 FoldK=F
 IRaf=         0 NMat=   1 IRICut=       1 DoRegI=T DoRafI=F ISym2E= 1.
 FoFCou: FMM=F IPFlag=           0 FMFlag=      100000 FMFlg1=           0
         NFxFlg=           0 DoJE=F BraDBF=F KetDBF=F FulRan=T
         wScrn=  0.000000 ICntrl=    3107 IOpCl=  0 I1Cent=           0 NGrid=           0
         NMat0=    1 NMatS0=      1 NMatT0=    0 NMatD0=    1 NMtDS0=    0 NMtDT0=    0
 Petite list used in FoFCou.
 End of G2Drv F.D. properties file   721 does not exist.
 End of G2Drv F.D. properties file   722 does not exist.
 End of G2Drv F.D. properties file   788 does not exist.
 Leave Link 1110 at Thu Jan 31 07:54:22 2019, MaxMem=    33554432 cpu:       247.2
 (Enter /home/proyectos/fulerenos/M3C-v2.0/M3C-deps_CCC/g09-AM64L-G09RevC.01/l1002.exe)
 Minotr:  Closed shell wavefunction.
          IDoAtm=111111111
          Direct CPHF calculation.
          Differentiating once with respect to electric field.
                with respect to dipole field.
          Differentiating once with respect to nuclear coordinates.
          Using symmetry in CPHF.
          Requested convergence is 1.0D-08 RMS, and 1.0D-07 maximum.
          Secondary convergence is 1.0D-12 RMS, and 1.0D-12 maximum.
          NewPWx=T KeepS1=F KeepF1=F KeepIn=T MapXYZ=F SortEE=F KeepMc=T.
          MDV=      33554103 using IRadAn=       2.
 Generate precomputed XC quadrature information.
          Solving linear equations simultaneously, MaxMat=       0.
 FoFJK:  IHMeth= 1 ICntrl=       0 DoSepK=F KAlg= 0 I1Cent=   0 FoldK=F
 IRaf= 990000000 NMat=  21 IRICut=      52 DoRegI=T DoRafI=T ISym2E= 2.
 FoFCou: FMM=F IPFlag=           0 FMFlag=      100000 FMFlg1=           0
         NFxFlg=           0 DoJE=F BraDBF=F KetDBF=F FulRan=T
         wScrn=  0.000000 ICntrl=       0 IOpCl=  0 I1Cent=           0 NGrid=           0
         NMat0=   21 NMatS0=     21 NMatT0=    0 NMatD0=   21 NMtDS0=    0 NMtDT0=    0
 Integrals replicated using symmetry in FoFCou.
          There are    21 degrees of freedom in the 1st order CPHF.  IDoFFX=4 NUNeed=    21.
     21 vectors produced by pass  0 Test12= 1.67D-14 4.76D-09 XBig12= 3.55D+02 1.79D+01.
 AX will form    21 AO Fock derivatives at one time.
     21 vectors produced by pass  1 Test12= 1.67D-14 4.76D-09 XBig12= 1.10D+02 2.08D+00.
     21 vectors produced by pass  2 Test12= 1.67D-14 4.76D-09 XBig12= 1.63D+00 2.80D-01.
     21 vectors produced by pass  3 Test12= 1.67D-14 4.76D-09 XBig12= 9.21D-03 1.97D-02.
     21 vectors produced by pass  4 Test12= 1.67D-14 4.76D-09 XBig12= 3.35D-05 9.61D-04.
     21 vectors produced by pass  5 Test12= 1.67D-14 4.76D-09 XBig12= 6.50D-08 3.14D-05.
      7 vectors produced by pass  6 Test12= 1.67D-14 4.76D-09 XBig12= 9.76D-11 1.26D-06.
      3 vectors produced by pass  7 Test12= 1.67D-14 4.76D-09 XBig12= 2.06D-13 9.48D-08.
      3 vectors produced by pass  8 Test12= 1.67D-14 4.76D-09 XBig12= 2.07D-14 4.01D-08.
 InvSVY:  IOpt=1 It=  1 EMax= 7.11D-15
 Solved reduced A of dimension   139 with    21 vectors.
 FullF1:  Do perturbations    1 to    21.
 Isotropic polarizability for W=    0.000000       47.30 Bohr**3.
 End of Minotr F.D. properties file   721 does not exist.
 End of Minotr F.D. properties file   722 does not exist.
 End of Minotr F.D. properties file   788 does not exist.
 Leave Link 1002 at Thu Jan 31 07:59:17 2019, MaxMem=    33554432 cpu:      1172.9
 (Enter /home/proyectos/fulerenos/M3C-v2.0/M3C-deps_CCC/g09-AM64L-G09RevC.01/l601.exe)
 Copying SCF densities to generalized density rwf, IOpCl= 0 IROHF=0.

 **********************************************************************

            Population analysis using the SCF density.

 **********************************************************************

 Orbital symmetries:
       Occupied  (A') (A") (A') (A') (A') (A') (A') (A") (A') (A')
                 (A') (A") (A") (A') (A") (A')
       Virtual   (A') (A") (A') (A') (A') (A") (A') (A') (A") (A')
                 (A') (A") (A") (A') (A') (A") (A') (A") (A') (A')
                 (A") (A') (A") (A') (A') (A") (A') (A") (A') (A')
                 (A") (A') (A") (A') (A') (A") (A') (A") (A') (A")
                 (A') (A") (A') (A') (A") (A") (A') (A') (A") (A')
                 (A') (A') (A") (A') (A') (A") (A') (A') (A') (A")
                 (A") (A") (A') (A') (A") (A') (A') (A") (A') (A')
                 (A") (A") (A") (A') (A') (A') (A") (A') (A") (A')
                 (A") (A') (A") (A") (A') (A') (A') (A") (A") (A')
                 (A') (A') (A") (A") (A') (A') (A") (A') (A') (A")
                 (A') (A') (A") (A') (A") (A') (A") (A") (A') (A")
                 (A') (A') (A') (A") (A") (A') (A') (A") (A') (A")
                 (A') (A") (A') (A') (A") (A') (A') (A") (A') (A")
                 (A") (A') (A') (A") (A') (A') (A') (A") (A') (A")
                 (A') (A") (A') (A") (A') (A") (A') (A") (A") (A')
                 (A') (A") (A') (A') (A") (A") (A') (A") (A") (A')
                 (A') (A") (A') (A') (A") (A') (A') (A') (A") (A')
                 (A') (A") (A') (A") (A') (A") (A') (A") (A") (A")
                 (A') (A') (A') (A") (A") (A") (A') (A") (A') (A')
                 (A") (A") (A') (A') (A") (A') (A') (A') (A") (A')
                 (A") (A') (A") (A') (A') (A") (A') (A") (A') (A')
                 (A") (A") (A') (A") (A') (A') (A") (A') (A')
 The electronic state is 1-A'.
 Alpha  occ. eigenvalues --  -10.76396 -10.76394 -10.75879 -10.72934 -10.70815
 Alpha  occ. eigenvalues --   -1.46862  -1.23318  -1.15953  -1.06456  -1.03004
 Alpha  occ. eigenvalues --   -0.94304  -0.93818  -0.91649  -0.87707  -0.84948
 Alpha  occ. eigenvalues --   -0.74909
 Alpha virt. eigenvalues --   -0.62982  -0.56479  -0.50440  -0.44568  -0.32353
 Alpha virt. eigenvalues --   -0.31301  -0.30827  -0.29932  -0.28644  -0.26641
 Alpha virt. eigenvalues --   -0.25456  -0.23394  -0.22814  -0.22797  -0.21001
 Alpha virt. eigenvalues --   -0.20479  -0.18922  -0.18525  -0.17677  -0.15776
 Alpha virt. eigenvalues --   -0.15338  -0.15182  -0.14352  -0.13893  -0.12325
 Alpha virt. eigenvalues --   -0.11605  -0.11497  -0.09719  -0.08762  -0.07983
 Alpha virt. eigenvalues --   -0.07855  -0.07555  -0.05831  -0.05716  -0.03417
 Alpha virt. eigenvalues --   -0.02175   0.01270   0.02093   0.02946   0.03668
 Alpha virt. eigenvalues --    0.04802   0.05814   0.06189   0.07585   0.07604
 Alpha virt. eigenvalues --    0.09289   0.09373   0.11313   0.11935   0.13056
 Alpha virt. eigenvalues --    0.14336   0.15199   0.16683   0.17753   0.19273
 Alpha virt. eigenvalues --    0.19913   0.20347   0.23152   0.24667   0.26033
 Alpha virt. eigenvalues --    0.27075   0.28505   0.29631   0.30536   0.32971
 Alpha virt. eigenvalues --    0.33967   0.35969   0.37010   0.37222   0.38761
 Alpha virt. eigenvalues --    0.40250   0.44056   0.47880   0.48237   0.54389
 Alpha virt. eigenvalues --    0.56913   0.58774   0.60580   0.64621   0.64884
 Alpha virt. eigenvalues --    0.68407   0.69092   0.71046   0.74364   0.75195
 Alpha virt. eigenvalues --    0.75781   0.78573   0.78598   0.81874   0.82410
 Alpha virt. eigenvalues --    0.84854   0.89929   0.91205   0.92141   0.93153
 Alpha virt. eigenvalues --    0.95119   1.00635   1.00797   1.07508   1.08998
 Alpha virt. eigenvalues --    1.10580   1.12788   1.16857   1.21351   1.28205
 Alpha virt. eigenvalues --    1.30542   1.35105   1.37153   1.42746   1.42879
 Alpha virt. eigenvalues --    1.44822   1.56020   1.61103   1.61150   1.63490
 Alpha virt. eigenvalues --    1.66359   1.68345   1.71551   1.76091   1.87382
 Alpha virt. eigenvalues --    1.88045   2.02312   2.08320   2.14531   2.18350
 Alpha virt. eigenvalues --    2.22620   2.25811   2.26515   2.28066   2.31042
 Alpha virt. eigenvalues --    2.32184   2.35046   2.39758   2.40364   2.41014
 Alpha virt. eigenvalues --    2.46837   2.49045   2.49468   2.55769   2.55783
 Alpha virt. eigenvalues --    2.56239   2.56393   2.62388   2.65177   2.66770
 Alpha virt. eigenvalues --    2.69874   2.75443   2.80066   2.84659   2.87248
 Alpha virt. eigenvalues --    2.91594   2.95872   3.03586   3.08504   3.09727
 Alpha virt. eigenvalues --    3.16371   3.16412   3.18221   3.22845   3.25184
 Alpha virt. eigenvalues --    3.28499   3.34854   3.38316   3.41368   3.57809
 Alpha virt. eigenvalues --    3.67170   3.68895   3.76158   3.77516   3.78211
 Alpha virt. eigenvalues --    3.80263   3.87114   3.94937   3.95631   4.01688
 Alpha virt. eigenvalues --    4.06179   4.14686   4.15186   4.20236   4.25940
 Alpha virt. eigenvalues --    4.29036   4.36004   4.58432   4.76244   5.13149
 Alpha virt. eigenvalues --    5.44290   5.44696   5.59960   5.88668   6.54010
 Alpha virt. eigenvalues --    6.55627   6.59141   6.59708   6.61242   6.61504
 Alpha virt. eigenvalues --    6.67429   6.73436   6.77624   6.80373   6.90464
 Alpha virt. eigenvalues --    6.90574   6.96114   7.08241   7.19864   7.25956
 Alpha virt. eigenvalues --    7.26492   7.36847   7.41024   7.53305   7.55039
 Alpha virt. eigenvalues --    7.72587   7.78809   7.80063   8.41343  23.63143
 Alpha virt. eigenvalues --   24.03281  24.62696  24.69140  24.90497
          Condensed to atoms (all electrons):
               1          2          3          4          5          6
     1  C    6.898964   0.441947   0.441947  -0.920692  -0.400776  -0.014014
     2  H    0.441947   0.342894   0.001520  -0.080565   0.006699  -0.000272
     3  H    0.441947   0.001520   0.342894  -0.080565  -0.002148   0.000122
     4  C   -0.920692  -0.080565  -0.080565   6.945214  -0.071833  -0.023529
     5  C   -0.400776   0.006699  -0.002148  -0.071833   6.921216   0.396956
     6  H   -0.014014  -0.000272   0.000122  -0.023529   0.396956   0.336624
     7  C   -0.400776  -0.002148   0.006699  -0.071833   0.023081   0.021944
     8  H   -0.014014   0.000122  -0.000272  -0.023529   0.021944  -0.002290
     9  C    0.184805   0.000459   0.000459  -0.018607  -1.088454  -0.086272
               7          8          9
     1  C   -0.400776  -0.014014   0.184805
     2  H   -0.002148   0.000122   0.000459
     3  H    0.006699  -0.000272   0.000459
     4  C   -0.071833  -0.023529  -0.018607
     5  C    0.023081   0.021944  -1.088454
     6  H    0.021944  -0.002290  -0.086272
     7  C    6.921216   0.396956  -1.088454
     8  H    0.396956   0.336624  -0.086272
     9  C   -1.088454  -0.086272   8.017670
 Mulliken charges:
               1
     1  C   -0.217390
     2  H    0.289345
     3  H    0.289345
     4  C    0.345940
     5  C    0.193315
     6  H    0.370732
     7  C    0.193315
     8  H    0.370732
     9  C    0.164666
 Sum of Mulliken charges =   2.00000
 Mulliken charges with hydrogens summed into heavy atoms:
               1
     1  C    0.361299
     4  C    0.345940
     5  C    0.564047
     7  C    0.564047
     9  C    0.164666
 APT charges:
               1
     1  C    0.597868
     2  H    0.209711
     3  H    0.209711
     4  C   -0.450333
     5  C    0.483697
     6  H    0.278602
     7  C    0.483697
     8  H    0.278602
     9  C   -0.091557
 Sum of APT charges =   2.00000
 APT charges with hydrogens summed into heavy atoms:
               1
     1  C    1.017291
     4  C   -0.450333
     5  C    0.762299
     7  C    0.762299
     9  C   -0.091557
 Electronic spatial extent (au):  <R**2>=            287.9854
 Charge=              2.0000 electrons
 Dipole moment (field-independent basis, Debye):
    X=              0.9751    Y=              1.1063    Z=              0.0000  Tot=              1.4747
 Quadrupole moment (field-independent basis, Debye-Ang):
   XX=            -21.5458   YY=             -5.3605   ZZ=            -10.1792
   XY=             -6.2377   XZ=             -0.0000   YZ=              0.0000
 Traceless Quadrupole moment (field-independent basis, Debye-Ang):
   XX=             -9.1840   YY=              7.0013   ZZ=              2.1827
   XY=             -6.2377   XZ=             -0.0000   YZ=              0.0000
 Octapole moment (field-independent basis, Debye-Ang**2):
  XXX=              2.3494  YYY=             24.9751  ZZZ=             -0.0000  XYY=             -6.0982
  XXY=              1.5407  XXZ=              0.0000  XZZ=              8.8493  YZZ=             -3.7542
  YYZ=              0.0000  XYZ=             -0.0000
 Hexadecapole moment (field-independent basis, Debye-Ang**3):
 XXXX=            -39.9267 YYYY=           -142.3484 ZZZZ=            -49.5544 XXXY=             12.8472
 XXXZ=              0.0000 YYYX=             -3.4376 YYYZ=              0.0000 ZZZX=             -0.0000
 ZZZY=              0.0000 XXYY=            -38.1819 XXZZ=            -13.3480 YYZZ=            -35.3522
 XXYZ=              0.0000 YYXZ=             -0.0000 ZZXY=             -5.4218
 N-N= 1.378939311384D+02 E-N=-7.046050402122D+02  KE= 1.910707321383D+02
 Symmetry A'   KE= 1.478915735249D+02
 Symmetry A"   KE= 4.317915861344D+01
  Exact polarizability:  28.400  -4.880  72.884   0.000   0.000  40.624
 Approx polarizability:  44.732  -3.989 213.208   0.000   0.000  67.850
 No NMR shielding tensors so no spin-rotation constants.
 Leave Link  601 at Thu Jan 31 07:59:17 2019, MaxMem=    33554432 cpu:         2.1
 (Enter /home/proyectos/fulerenos/M3C-v2.0/M3C-deps_CCC/g09-AM64L-G09RevC.01/l701.exe)
 Compute integral second derivatives.
 ... and contract with generalized density number  0.
 Leave Link  701 at Thu Jan 31 07:59:18 2019, MaxMem=    33554432 cpu:         2.5
 (Enter /home/proyectos/fulerenos/M3C-v2.0/M3C-deps_CCC/g09-AM64L-G09RevC.01/l702.exe)
 L702 exits ... SP integral derivatives will be done elsewhere.
 Leave Link  702 at Thu Jan 31 07:59:18 2019, MaxMem=    33554432 cpu:         0.1
 (Enter /home/proyectos/fulerenos/M3C-v2.0/M3C-deps_CCC/g09-AM64L-G09RevC.01/l703.exe)
 Compute integral second derivatives, UseDBF=F ICtDFT=           0.
 Integral derivatives from FoFJK, PRISM(SPDF).
 Calling FoFJK, ICntrl=    100127 FMM=F ISym2X=1 I1Cent= 0 IOpClX= 0 NMat=1 NMatS=1 NMatT=0.
 FoFJK:  IHMeth= 1 ICntrl=  100127 DoSepK=F KAlg= 0 I1Cent=   0 FoldK=F
 IRaf=         0 NMat=   1 IRICut=       1 DoRegI=T DoRafI=F ISym2E= 1.
 FoFCou: FMM=F IPFlag=           0 FMFlag=      100000 FMFlg1=         800
         NFxFlg=           0 DoJE=F BraDBF=F KetDBF=F FulRan=T
         wScrn=  0.000000 ICntrl=  100127 IOpCl=  0 I1Cent=           0 NGrid=           0
         NMat0=    1 NMatS0=      1 NMatT0=    0 NMatD0=    1 NMtDS0=    0 NMtDT0=    0
 Petite list used in FoFCou.
 Leave Link  703 at Thu Jan 31 08:01:18 2019, MaxMem=    33554432 cpu:       478.3
 (Enter /home/proyectos/fulerenos/M3C-v2.0/M3C-deps_CCC/g09-AM64L-G09RevC.01/l716.exe)
 Dipole        = 3.83619425D-01 4.35254290D-01 4.60534030D-14
 Polarizability= 2.84004675D+01-4.88020439D+00 7.28840107D+01
                 1.42643174D-08 1.49943316D-08 4.06236719D+01
 Full mass-weighted force constant matrix:
 Low frequencies ---   -9.7131   -6.5413   -0.0006   -0.0002    0.0006   11.3981
 Low frequencies ---  283.1020  288.4498  386.3347
 Diagonal vibrational polarizability:
        5.3577943      16.6643709       2.9331041
 Harmonic frequencies (cm**-1), IR intensities (KM/Mole), Raman scattering
 activities (A**4/AMU), depolarization ratios for plane and unpolarized
 incident light, reduced masses (AMU), force constants (mDyne/A),
 and normal coordinates:
                      1                      2                      3
                     A"                     A'                     A"
 Frequencies --    283.1017               288.4495               386.3344
 Red. masses --      1.3628                 4.6771                 2.0661
 Frc consts  --      0.0644                 0.2293                 0.1817
 IR Inten    --      1.5752                 7.3998                 0.6347
  Atom  AN      X      Y      Z        X      Y      Z        X      Y      Z
     1   6     0.00   0.00   0.06    -0.19  -0.12   0.00     0.00   0.00   0.14
     2   1     0.55   0.34   0.18    -0.46  -0.19   0.00    -0.49   0.14   0.29
     3   1    -0.55  -0.34   0.18    -0.46  -0.19  -0.00     0.49  -0.14   0.29
     4   6    -0.00  -0.00  -0.15     0.37   0.07  -0.00    -0.00  -0.00  -0.09
     5   6    -0.01   0.01  -0.01     0.08  -0.04  -0.01    -0.06   0.17  -0.05
     6   1     0.07   0.17  -0.04     0.08  -0.28  -0.04    -0.24   0.22   0.06
     7   6     0.01  -0.01  -0.01     0.08  -0.04   0.01     0.06  -0.17  -0.05
     8   1    -0.07  -0.17  -0.04     0.08  -0.28   0.04     0.24  -0.22   0.06
     9   6     0.00  -0.00   0.08    -0.28   0.22   0.00    -0.00  -0.00  -0.01
                      4                      5                      6
                     A'                     A'                     A"
 Frequencies --    420.3782               672.4104               745.9971
 Red. masses --      2.4545                 6.1025                 2.8533
 Frc consts  --      0.2556                 1.6256                 0.9356
 IR Inten    --     37.7987                50.6439                 0.9716
  Atom  AN      X      Y      Z        X      Y      Z        X      Y      Z
     1   6     0.01  -0.09   0.00     0.09  -0.28   0.00    -0.00   0.00   0.05
     2   1     0.01  -0.09   0.01     0.33  -0.25  -0.00     0.59  -0.15  -0.12
     3   1     0.01  -0.09  -0.01     0.33  -0.25   0.00    -0.59   0.15  -0.12
     4   6     0.11  -0.03  -0.00    -0.33  -0.22   0.00     0.00   0.00   0.24
     5   6    -0.10   0.01   0.17     0.13   0.06   0.06     0.07   0.19  -0.06
     6   1    -0.50   0.05   0.42     0.27   0.15  -0.01    -0.16   0.08   0.06
     7   6    -0.10   0.01  -0.17     0.13   0.06  -0.06    -0.07  -0.19  -0.06
     8   1    -0.50   0.05  -0.42     0.27   0.15   0.01     0.16  -0.08   0.06
     9   6     0.15   0.10   0.00    -0.12   0.40  -0.00     0.00  -0.00  -0.14
                      7                      8                      9
                     A'                     A'                     A"
 Frequencies --    838.4178               936.9735               985.9968
 Red. masses --      2.3919                 1.7402                 1.3937
 Frc consts  --      0.9906                 0.9001                 0.7983
 IR Inten    --     65.7669                79.7685                 0.3593
  Atom  AN      X      Y      Z        X      Y      Z        X      Y      Z
     1   6     0.07  -0.16   0.00     0.04  -0.09  -0.00    -0.00   0.00   0.06
     2   1    -0.07  -0.22  -0.01    -0.02  -0.13  -0.01     0.03  -0.29  -0.11
     3   1    -0.07  -0.22   0.01    -0.02  -0.13   0.01    -0.03   0.29  -0.11
     4   6     0.10  -0.05   0.00     0.06   0.04   0.00    -0.00  -0.00  -0.03
     5   6    -0.02   0.14  -0.09    -0.14   0.04   0.04     0.05  -0.09  -0.06
     6   1    -0.13   0.61   0.02     0.54  -0.13  -0.38    -0.40   0.40   0.26
     7   6    -0.02   0.14   0.09    -0.14   0.04  -0.04    -0.05   0.09  -0.06
     8   1    -0.13   0.61  -0.02     0.54  -0.13   0.38     0.40  -0.40   0.26
     9   6    -0.09  -0.14  -0.00     0.09   0.01  -0.00     0.00   0.00   0.06
                     10                     11                     12
                     A"                     A"                     A'
 Frequencies --   1010.2513              1092.0814              1110.0096
 Red. masses --      1.2977                 1.4015                 1.4505
 Frc consts  --      0.7803                 0.9848                 1.0530
 IR Inten    --      0.0931                 1.3319                52.2342
  Atom  AN      X      Y      Z        X      Y      Z        X      Y      Z
     1   6    -0.00  -0.00  -0.09     0.00   0.00  -0.09    -0.09   0.05   0.00
     2   1    -0.04   0.39   0.13    -0.12   0.36   0.12     0.23   0.19   0.03
     3   1     0.04  -0.39   0.13     0.12  -0.36   0.12     0.23   0.19  -0.03
     4   6     0.00  -0.00   0.01     0.00   0.00   0.11     0.05  -0.02  -0.00
     5   6     0.09  -0.00  -0.00     0.01  -0.04   0.03    -0.01  -0.08   0.08
     6   1    -0.39  -0.31   0.26     0.13   0.55   0.03     0.28   0.56  -0.00
     7   6    -0.09   0.00  -0.00    -0.01   0.04   0.03    -0.01  -0.08  -0.08
     8   1     0.39   0.31   0.26    -0.13  -0.55   0.03     0.28   0.56   0.00
     9   6    -0.00   0.00   0.02    -0.00   0.00  -0.10    -0.04   0.00   0.00
                     13                     14                     15
                     A'                     A'                     A"
 Frequencies --   1127.2960              1289.5164              1336.8933
 Red. masses --      1.4403                 4.9811                 6.0447
 Frc consts  --      1.0784                 4.8801                 6.3653
 IR Inten    --      1.8734                56.6804                78.2722
  Atom  AN      X      Y      Z        X      Y      Z        X      Y      Z
     1   6    -0.14  -0.08  -0.00    -0.03   0.07  -0.00     0.00   0.00  -0.08
     2   1     0.64   0.12   0.00    -0.03   0.20   0.06    -0.07   0.26   0.08
     3   1     0.64   0.12  -0.00    -0.03   0.20  -0.06     0.07  -0.26   0.08
     4   6     0.05   0.01   0.00     0.00  -0.17   0.00    -0.00  -0.00   0.31
     5   6    -0.01   0.05  -0.05     0.09   0.20   0.26    -0.15  -0.04  -0.28
     6   1    -0.11  -0.20  -0.03     0.26  -0.43   0.15    -0.08  -0.04  -0.43
     7   6    -0.01   0.05   0.05     0.09   0.20  -0.26     0.15   0.04  -0.28
     8   1    -0.11  -0.20   0.03     0.26  -0.43  -0.15     0.08   0.04  -0.43
     9   6     0.01  -0.02  -0.00    -0.19  -0.26  -0.00     0.00   0.00   0.38
                     16                     17                     18
                     A'                     A'                     A'
 Frequencies --   1452.5629              1547.3582              3086.5367
 Red. masses --      1.2830                 4.7304                 1.0569
 Frc consts  --      1.5949                 6.6731                 5.9323
 IR Inten    --     86.4490               193.3109               102.6674
  Atom  AN      X      Y      Z        X      Y      Z        X      Y      Z
     1   6     0.02  -0.05   0.00     0.08  -0.29  -0.00    -0.02   0.06  -0.00
     2   1    -0.18   0.56   0.37    -0.04   0.35   0.43     0.09  -0.34   0.61
     3   1    -0.18   0.56  -0.37    -0.04   0.35  -0.43     0.09  -0.34  -0.61
     4   6     0.03  -0.12  -0.00    -0.13   0.44   0.00     0.00  -0.01  -0.00
     5   6    -0.02   0.01  -0.04     0.06  -0.05   0.08    -0.00   0.00  -0.00
     6   1    -0.02  -0.02  -0.06     0.01   0.03   0.16     0.02  -0.00   0.03
     7   6    -0.02   0.01   0.04     0.06  -0.05  -0.08    -0.00   0.00   0.00
     8   1    -0.02  -0.02   0.06     0.01   0.03  -0.16     0.02  -0.00  -0.03
     9   6     0.03   0.05  -0.00    -0.07  -0.12   0.00     0.00   0.00  -0.00
                     19                     20                     21
                     A"                     A'                     A"
 Frequencies --   3119.6225              3126.0817              3198.0707
 Red. masses --      1.1083                 1.1110                 1.1254
 Frc consts  --      6.3548                 6.3970                 6.7816
 IR Inten    --    299.7120                84.2992                73.3438
  Atom  AN      X      Y      Z        X      Y      Z        X      Y      Z
     1   6     0.00  -0.00  -0.00     0.00  -0.00  -0.00     0.00  -0.00  -0.10
     2   1    -0.00  -0.00   0.01    -0.01   0.02  -0.04     0.09  -0.34   0.61
     3   1     0.00   0.00   0.01    -0.01   0.02   0.04    -0.09   0.34   0.61
     4   6    -0.00   0.00   0.01     0.00  -0.00  -0.00    -0.00   0.00   0.00
     5   6    -0.03   0.01  -0.06    -0.03   0.01  -0.06     0.00  -0.00   0.00
     6   1     0.36  -0.07   0.60     0.35  -0.07   0.60    -0.00   0.00  -0.00
     7   6     0.03  -0.01  -0.06    -0.03   0.01   0.06    -0.00   0.00   0.00
     8   1    -0.36   0.07   0.60     0.35  -0.07  -0.60     0.00  -0.00  -0.00
     9   6     0.00   0.00   0.01     0.00   0.00  -0.00    -0.00  -0.00   0.00

 -------------------
 - Thermochemistry -
 -------------------
 Temperature   298.150 Kelvin.  Pressure   1.00000 Atm.
 Atom     1 has atomic number  6 and mass  12.00000
 Atom     2 has atomic number  1 and mass   1.00783
 Atom     3 has atomic number  1 and mass   1.00783
 Atom     4 has atomic number  6 and mass  12.00000
 Atom     5 has atomic number  6 and mass  12.00000
 Atom     6 has atomic number  1 and mass   1.00783
 Atom     7 has atomic number  6 and mass  12.00000
 Atom     8 has atomic number  1 and mass   1.00783
 Atom     9 has atomic number  6 and mass  12.00000
 Molecular mass:    64.03130 amu.
 Principal axes and moments of inertia in atomic units:
                           1         2         3
     Eigenvalues --   133.59464 325.89380 420.50500
           X           -0.18077   0.00000   0.98352
           Y            0.98352   0.00000   0.18077
           Z            0.00000   1.00000   0.00000
 This molecule is an asymmetric top.
 Rotational symmetry number  1.
 Rotational temperatures (Kelvin)      0.64833     0.26577     0.20598
 Rotational constants (GHZ):          13.50908     5.53782     4.29184
 Zero-point vibrational energy     167802.2 (Joules/Mol)
                                   40.10569 (Kcal/Mol)
 Warning -- explicit consideration of   4 degrees of freedom as
           vibrations may cause significant error
 Vibrational temperatures:    407.32   415.01   555.85   604.83   967.45
          (Kelvin)           1073.32  1206.29  1348.09  1418.63  1453.52
                             1571.26  1597.05  1621.93  1855.32  1923.49
                             2089.91  2226.30  4440.83  4488.44  4497.73
                             4601.30
 
 Zero-point correction=                           0.063912 (Hartree/Particle)
 Thermal correction to Energy=                    0.068747
 Thermal correction to Enthalpy=                  0.069691
 Thermal correction to Gibbs Free Energy=         0.036883
 Sum of electronic and zero-point Energies=           -191.870671
 Sum of electronic and thermal Energies=              -191.865837
 Sum of electronic and thermal Enthalpies=            -191.864892
 Sum of electronic and thermal Free Energies=         -191.897701
 
                     E (Thermal)             CV                S
                      KCal/Mol        Cal/Mol-Kelvin    Cal/Mol-Kelvin
 Total                   43.139             16.966             69.051
 Electronic               0.000              0.000              0.000
 Translational            0.889              2.981             38.389
 Rotational               0.889              2.981             24.419
 Vibrational             41.362             11.004              6.243
 Vibration     1          0.682              1.705              1.515
 Vibration     2          0.685              1.695              1.483
 Vibration     3          0.755              1.499              1.014
 Vibration     4          0.783              1.426              0.891
                       Q            Log10(Q)             Ln(Q)
 Total Bot       0.108422D-16        -16.964883        -39.063087
 Total V=0       0.270869D+13         12.432759         28.627485
 Vib (Bot)       0.111150D-28        -28.954091        -66.669259
 Vib (Bot)    1  0.678010D+00         -0.168764         -0.388593
 Vib (Bot)    2  0.663529D+00         -0.178140         -0.410182
 Vib (Bot)    3  0.465919D+00         -0.331689         -0.763742
 Vib (Bot)    4  0.417573D+00         -0.379267         -0.873296
 Vib (V=0)       0.277684D+01          0.443550          1.021312
 Vib (V=0)    1  0.134244D+01          0.127894          0.294486
 Vib (V=0)    2  0.133083D+01          0.124121          0.285799
 Vib (V=0)    3  0.118343D+01          0.073144          0.168420
 Vib (V=0)    4  0.115143D+01          0.061239          0.141009
 Electronic      0.100000D+01          0.000000          0.000000
 Translational   0.201393D+08          7.304044         16.818182
 Rotational      0.484356D+05          4.685165         10.787990
 
                                                              b3lyp opt
                                                             IR Spectrum
 
     3  333                                                            1   1   1 1     111  1                                        
     1  110                                                            5   4   3 2     110  09 9   8   7  6         43  22           
     9  228                                                            4   5   3 9     219  18 3   3   4  7         28  88           
     8  607                                                            7   3   7 0     702  06 7   8   6  2         06  83           
 
     X  XXX                                                            X   X   X X     XXX  XX X   X   X  X         XX  XX           
     X  XXX                                                            X   X   X X      X      X   X      X         X                
     X  XXX                                                            X   X   X X      X      X   X      X         X                
     X  XXX                                                            X   X   X X             X   X                                 
     X  XXX                                                            X   X   X               X                                     
        XXX                                                            X   X                                                         
         XX                                                            X                                                             
         X                                                             X                                                             
         X                                                             X                                                             
         X                                                             X                                                             
         X                                                             X                                                             
         X                                                             X                                                             
         X                                                             X                                                             
         X                                                                                                                           
         X                                                                                                                           
         X                                                                                                                           
         X                                                                                                                           
         X                                                                                                                           
         X                                                                                                                           
         X                                                                                                                           
 
 ***** Axes restored to original set *****
 -------------------------------------------------------------------
 Center     Atomic                   Forces (Hartrees/Bohr)
 Number     Number              X              Y              Z
 -------------------------------------------------------------------
      1        6           0.000057637    0.000000003    0.000027873
      2        1          -0.000017528    0.000012927   -0.000004482
      3        1          -0.000017527   -0.000012929   -0.000004482
      4        6          -0.000007313   -0.000000000   -0.000068677
      5        6          -0.000017217   -0.000009639    0.000018716
      6        1           0.000000595    0.000017435    0.000016819
      7        6          -0.000017218    0.000009637    0.000018716
      8        1           0.000000597   -0.000017435    0.000016819
      9        6           0.000017975    0.000000001   -0.000021303
 -------------------------------------------------------------------
 Cartesian Forces:  Max     0.000068677 RMS     0.000022185
 Z-matrix is all fixed cartesians, so copy forces.
 Force constants in Cartesian coordinates: 
                1             2             3             4             5 
      1  0.639252D+00
      2  0.000000D+00  0.640297D+00
      3 -0.412834D-01 -0.236735D-05  0.151945D+00
      4 -0.125458D+00  0.117162D+00  0.508625D-02  0.126297D+00
      5  0.125275D+00 -0.272175D+00 -0.647769D-02 -0.128362D+00  0.272124D+00
      6 -0.229925D-03 -0.660492D-02 -0.486756D-01 -0.610755D-02  0.578777D-02
      7 -0.125430D+00 -0.117146D+00  0.508551D-02  0.131906D-01  0.121992D-01
      8 -0.125258D+00 -0.272202D+00  0.647827D-02 -0.121965D-01 -0.100362D-01
      9 -0.230682D-03  0.660489D-02 -0.486756D-01  0.100550D-04 -0.547554D-03
     10 -0.343383D+00 -0.141248D-04  0.285801D-01 -0.112483D-01 -0.672806D-02
     11 -0.141249D-04 -0.969354D-01  0.163919D-05  0.238801D-01  0.767253D-02
     12  0.243937D-01  0.139998D-05 -0.624438D-01 -0.501456D-03  0.106131D-02
     13 -0.346097D-01  0.273713D-01 -0.996252D-03 -0.370088D-02 -0.232136D-02
     14  0.206491D-01  0.380356D-02  0.244101D-02 -0.862554D-04  0.227140D-03
     15 -0.462908D-02 -0.646807D-02 -0.257209D-02  0.505187D-03  0.120352D-02
     16 -0.387017D-03  0.315788D-03  0.227926D-03 -0.288972D-03 -0.182230D-03
     17  0.712226D-03  0.274076D-03  0.321340D-04  0.159057D-04 -0.291058D-03
     18  0.215741D-02  0.158783D-03 -0.620256D-03  0.151338D-03 -0.200533D-03
     19 -0.346042D-01 -0.273757D-01 -0.995973D-03 -0.182611D-03  0.143083D-02
     20 -0.206535D-01  0.379806D-02 -0.244113D-02 -0.750359D-03  0.159042D-02
     21 -0.462982D-02  0.646754D-02 -0.257209D-02 -0.121345D-02  0.768818D-04
     22 -0.386900D-03 -0.315864D-03  0.227930D-03 -0.127688D-03 -0.149116D-03
     23 -0.712302D-03  0.273958D-03 -0.321077D-04 -0.246397D-03  0.313273D-03
     24  0.215743D-02 -0.158536D-03 -0.620256D-03  0.958891D-04 -0.229994D-03
     25  0.250069D-01  0.184347D-05  0.406794D-02  0.151864D-02 -0.116210D-02
     26  0.183995D-05 -0.713470D-02  0.000000D+00  0.582891D-03  0.574057D-03
     27  0.222944D-01  0.128036D-05  0.142344D-01  0.197373D-02 -0.673705D-03
                6             7             8             9            10 
      6  0.215394D-01
      7  0.999222D-05  0.126268D+00
      8  0.547556D-03  0.128345D+00  0.272154D+00
      9  0.138633D-01 -0.610689D-02 -0.578847D-02  0.215394D-01
     10  0.609429D-02 -0.112464D-01  0.672589D-02  0.609527D-02  0.769629D+00
     11  0.856427D-02 -0.238823D-01  0.767056D-02 -0.856357D-02  0.273093D-04
     12  0.123103D-01 -0.501335D-03 -0.106137D-02  0.123103D-01 -0.338299D-01
     13  0.823102D-02 -0.182533D-03 -0.143103D-02 -0.565729D-02 -0.148144D+00
     14 -0.265414D-02  0.750155D-03  0.159034D-02  0.543825D-03  0.741689D-01
     15  0.903487D-02 -0.121344D-02 -0.770209D-04 -0.462084D-02  0.405887D-01
     16 -0.110853D-02 -0.127734D-03  0.149065D-03  0.841608D-03  0.539495D-02
     17 -0.765507D-04  0.246346D-03  0.313318D-03 -0.104143D-03  0.295843D-02
     18 -0.789611D-03  0.958627D-04  0.230005D-03  0.950431D-03 -0.919283D-02
     19 -0.565723D-02 -0.370116D-02  0.232091D-02  0.823072D-02 -0.148133D+00
     20 -0.544474D-03  0.858051D-04  0.227416D-03  0.265509D-02 -0.741683D-01
     21 -0.462084D-02  0.505325D-03 -0.120346D-02  0.903487D-02  0.405818D-01
     22  0.841596D-03 -0.288991D-03  0.182230D-03 -0.110854D-02  0.539680D-02
     23  0.104240D-03 -0.159054D-04 -0.291039D-03  0.764236D-04 -0.295759D-02
     24  0.950431D-03  0.151315D-03  0.200551D-03 -0.789611D-03 -0.919124D-02
     25 -0.207366D-02  0.151857D-02  0.116221D-02 -0.207425D-02 -0.118266D+00
     26 -0.512375D-02 -0.582783D-03  0.574125D-03  0.512351D-02 -0.125045D-04
     27 -0.361229D-02  0.197365D-02  0.673931D-03 -0.361229D-02 -0.697262D-01
               11            12            13            14            15 
     11  0.293077D+00
     12 -0.193951D-05  0.125056D+00
     13  0.254389D-01  0.189162D-01  0.256580D+00
     14 -0.153828D+00 -0.322960D-01 -0.531436D-01  0.696667D+00
     15 -0.597239D-01 -0.625531D-01 -0.237022D-01  0.285482D+00  0.285307D+00
     16  0.131836D-01  0.831971D-02 -0.553109D-01  0.554896D-01  0.295077D-01
     17 -0.192806D-02 -0.985879D-03  0.472228D-01 -0.261805D+00 -0.119389D+00
     18  0.139119D-01  0.829152D-02  0.366660D-01 -0.119748D+00 -0.114829D+00
     19 -0.254382D-01  0.189125D-01  0.652361D-01  0.104229D-01  0.179533D-01
     20 -0.153840D+00  0.322982D-01 -0.104060D-01 -0.816897D-01  0.312013D-02
     21  0.597285D-01 -0.625531D-01  0.179537D-01 -0.311807D-02  0.534821D-02
     22 -0.131827D-01  0.831960D-02 -0.481666D-02 -0.420403D-02 -0.540491D-02
     23 -0.192990D-02  0.986832D-03 -0.442367D-02  0.645457D-02  0.493020D-02
     24 -0.139130D-01  0.829152D-02 -0.879673D-02  0.118926D-01  0.746751D-02
     25 -0.125117D-04 -0.440290D-01 -0.750511D-01 -0.104047D+00 -0.536053D-01
     26  0.100042D+00 -0.252637D-05 -0.283073D-01 -0.211420D+00 -0.109078D+00
     27 -0.399713D-05  0.212903D-01 -0.426144D-01 -0.142543D+00 -0.122583D+00
               16            17            18            19            20 
     16  0.476181D-01
     17 -0.538846D-01  0.255150D+00
     18 -0.255215D-01  0.127932D+00  0.986604D-01
     19 -0.481765D-02  0.442238D-02 -0.879536D-02  0.256568D+00
     20  0.420274D-02  0.645555D-02 -0.118936D-01  0.530931D-01  0.696679D+00
     21 -0.540434D-02 -0.493082D-02  0.746751D-02 -0.236695D-01 -0.285484D+00
     22  0.697345D-03 -0.617219D-03  0.996856D-03 -0.552991D-01 -0.554659D-01
     23  0.617302D-03 -0.277122D-04 -0.729906D-03 -0.471992D-01 -0.261817D+00
     24  0.996772D-03  0.730020D-03 -0.396475D-03  0.366523D-01  0.119752D+00
     25  0.722184D-02 -0.107636D-02  0.344220D-02 -0.750663D-01  0.104062D+00
     26 -0.198913D-01  0.185928D-02 -0.966049D-02  0.283229D-01 -0.211405D+00
     27 -0.785941D-02 -0.320771D-02  0.126526D-02 -0.426307D-01  0.142538D+00
               21            22            23            24            25 
     21  0.285307D+00
     22  0.294940D-01  0.476057D-01
     23  0.119392D+00  0.538608D-01  0.255162D+00
     24 -0.114829D+00 -0.255068D-01 -0.127935D+00  0.986604D-01
     25 -0.536178D-01  0.721944D-02  0.107697D-02  0.344109D-02  0.225898D+00
     26  0.109072D+00  0.198919D-01  0.186168D-02  0.966089D-02 -0.568176D-05
     27 -0.122583D+00 -0.785978D-02  0.320681D-02  0.126526D-02  0.144449D+00
               26            27 
     26  0.325048D+00
     27  0.827882D-05  0.214335D+00
 Leave Link  716 at Thu Jan 31 08:01:18 2019, MaxMem=    33554432 cpu:         0.2
 (Enter /home/proyectos/fulerenos/M3C-v2.0/M3C-deps_CCC/g09-AM64L-G09RevC.01/l103.exe)

 GradGradGradGradGradGradGradGradGradGradGradGradGradGradGradGradGradGrad
 Berny optimization.
 Search for a local minimum.
 Step number   1 out of a maximum of    2
 All quantities printed in internal units (Hartrees-Bohrs-Radians)
 Second derivative matrix not updated -- analytic derivatives used.
 ITU=  0
     Eigenvalues ---    0.00402   0.01220   0.01350   0.01855   0.05416
     Eigenvalues ---    0.05923   0.08694   0.11481   0.13930   0.15678
     Eigenvalues ---    0.19178   0.22676   0.24828   0.25602   0.36145
     Eigenvalues ---    0.45181   0.59055   0.86493   1.03667   1.13934
     Eigenvalues ---    1.25660
 Angle between quadratic step and forces=  62.59 degrees.
 ClnCor:  largest displacement from symmetrization is 8.88D-11 for atom     3.
 Linear search not attempted -- first point.
 ClnCor:  largest displacement from symmetrization is 9.04D-16 for atom     2.
 B after Tr=    -0.000024   -0.000000   -0.000122
         Rot=    1.000000   -0.000000    0.000002    0.000000 Ang=   0.00 deg.
 Variable       Old X    -DE/DX   Delta X   Delta X   Delta X     New X
                                 (Linear)    (Quad)   (Total)
    X1        3.38341   0.00006   0.00000   0.00015   0.00013   3.38353
    Y1        0.00020   0.00000   0.00000   0.00000   0.00000   0.00020
    Z1       -0.20979   0.00003   0.00000   0.00013   0.00002  -0.20977
    X2        4.42937  -0.00002   0.00000   0.00000  -0.00002   4.42935
    Y2       -1.77318   0.00001   0.00000  -0.00002  -0.00002  -1.77320
    Z2       -0.25750  -0.00000   0.00000   0.00032   0.00022  -0.25728
    X3        4.42916  -0.00002   0.00000   0.00000  -0.00002   4.42914
    Y3        1.77371  -0.00001   0.00000   0.00002   0.00002   1.77373
    Z3       -0.25750  -0.00000   0.00000   0.00032   0.00022  -0.25728
    X4        0.77802  -0.00001   0.00000  -0.00000  -0.00003   0.77799
    Y4        0.00006  -0.00000   0.00000  -0.00000  -0.00000   0.00006
    Z4        0.16142  -0.00007   0.00000  -0.00080  -0.00092   0.16050
    X5       -1.25634  -0.00002   0.00000  -0.00004  -0.00007  -1.25641
    Y5        1.84254  -0.00001   0.00000  -0.00015  -0.00015   1.84239
    Z5        0.34951   0.00002   0.00000   0.00001  -0.00012   0.34939
    X6       -1.67999   0.00000   0.00000   0.00019   0.00016  -1.67983
    Y6        3.61070   0.00002   0.00000  -0.00034  -0.00034   3.61037
    Z6        1.33190   0.00002   0.00000   0.00059   0.00046   1.33236
    X7       -1.25613  -0.00002   0.00000  -0.00004  -0.00007  -1.25620
    Y7       -1.84266   0.00001   0.00000   0.00015   0.00015  -1.84251
    Z7        0.34951   0.00002   0.00000   0.00001  -0.00012   0.34939
    X8       -1.67958   0.00000   0.00000   0.00019   0.00016  -1.67942
    Y8       -3.61087  -0.00002   0.00000   0.00034   0.00034  -3.61054
    Z8        1.33190   0.00002   0.00000   0.00059   0.00046   1.33236
    X9       -2.56545   0.00002   0.00000  -0.00022  -0.00024  -2.56569
    Y9       -0.00014   0.00000   0.00000  -0.00000  -0.00000  -0.00014
    Z9       -1.00956  -0.00002   0.00000  -0.00009  -0.00023  -1.00979
         Item               Value     Threshold  Converged?
 Maximum Force            0.000069     0.000450     YES
 RMS     Force            0.000022     0.000300     YES
 Maximum Displacement     0.000919     0.001800     YES
 RMS     Displacement     0.000262     0.001200     YES
 Predicted change in Energy=-3.735394D-08
 Optimization completed.
    -- Stationary point found.
 GradGradGradGradGradGradGradGradGradGradGradGradGradGradGradGradGradGrad

 Leave Link  103 at Thu Jan 31 08:01:18 2019, MaxMem=    33554432 cpu:         0.1
 (Enter /home/proyectos/fulerenos/M3C-v2.0/M3C-deps_CCC/g09-AM64L-G09RevC.01/l9999.exe)

 Test job not archived.
 1\1\GINC-COPERNICIO\Freq\RB3LYP\6-311++G(3df,2p)\C5H4(2+)\ROOT\31-Jan-
 2019\0\\#p b3lyp/6-311++G(3df,2p) freq IOp(2/17=3) IOp(2/18=3)\\b3lyp 
 opt\\2,1\C,1.7904209958,0.0001082661,-0.111018009\H,2.343920274,-0.938
 325265,-0.136261647\H,2.3438127167,0.9386052274,-0.136261647\C,0.41171
 09919,0.0000292593,0.085420972\C,-0.664826876,0.975027531,0.184953007\
 H,-0.889012995,1.910701754,0.704809143\C,-0.6647151246,-0.9750923878,0
 .184953007\H,-0.8887940047,-1.9107922986,0.704809143\C,-1.3575779865,-
 0.0000721296,-0.53423694\\Version=EM64L-G09RevE.01\State=1-A'\HF=-191.
 9345834\RMSD=5.535e-09\RMSF=2.218e-05\ZeroPoint=0.0639125\Thermal=0.06
 87469\Dipole=0.3482451,0.00002,0.4640426\DipoleDeriv=1.2361438,0.00006
 03,0.0690887,0.0000603,0.1844654,0.000004,-0.2234437,-0.0000128,0.3729
 953,0.2928177,-0.0861544,0.0039796,-0.1690741,0.2084514,0.0056077,-0.0
 212081,0.0153961,0.1278644,0.2927884,0.0861641,0.0039803,0.1690838,0.2
 084807,-0.0056072,-0.0212063,-0.0153985,0.1278644,-1.3214625,-0.000071
 ,-0.2123482,-0.000071,-0.082354,-0.0000122,0.3330112,0.0000191,0.05281
 88,0.6699209,0.0611587,0.095156,-0.3288747,0.424801,-0.0248139,0.31475
 69,-0.1034609,0.3563695,0.2065059,-0.0625114,-0.0055595,-0.090039,0.39
 97035,0.1092786,-0.0706191,0.1860735,0.2295971,0.6698902,-0.0611306,0.
 0951532,0.3289027,0.4248317,0.0248248,0.3147451,0.103497,0.3563695,0.2
 064884,0.0624892,-0.005547,0.0900168,0.399721,-0.1092792,-0.0705978,-0
 .1860816,0.2295971,-0.2530928,-0.0000049,-0.0439031,-0.0000049,-0.1681
 008,-0.0000025,-0.5554381,-0.0000318,0.1465238\Polar=72.9896434,0.0018
 547,40.623672,4.3710769,0.0002505,28.2948346\PG=CS [SG(C3),X(C2H4)]\NI
 mag=0\\0.63925217,-0.00000006,0.64029744,-0.04128343,-0.00000237,0.151
 94532,-0.12545808,0.11716239,0.00508625,0.12629734,0.12527459,-0.27217
 459,-0.00647769,-0.12836174,0.27212445,-0.00022992,-0.00660492,-0.0486
 7559,-0.00610755,0.00578777,0.02153942,-0.12543029,-0.11714557,0.00508
 551,0.01319059,0.01219919,0.00000999,0.12626792,-0.12525777,-0.2722023
 7,0.00647827,-0.01219653,-0.01003621,0.00054756,0.12834502,0.27215387,
 -0.00023068,0.00660489,-0.04867559,0.00001005,-0.00054755,0.01386327,-
 0.00610689,-0.00578847,0.02153942,-0.34338286,-0.00001412,0.02858010,-
 0.01124834,-0.00672806,0.00609429,-0.01124637,0.00672589,0.00609527,0.
 76962886,-0.00001412,-0.09693543,0.00000164,0.02388009,0.00767253,0.00
 856427,-0.02388226,0.00767056,-0.00856357,0.00002731,0.29307720,0.0243
 9373,0.00000140,-0.06244384,-0.00050146,0.00106131,0.01231033,-0.00050
 133,-0.00106137,0.01231033,-0.03382990,-0.00000194,0.12505611,-0.03460
 972,0.02737128,-0.00099625,-0.00370088,-0.00232136,0.00823102,-0.00018
 253,-0.00143103,-0.00565729,-0.14814404,0.02543885,0.01891616,0.256579
 78,0.02064909,0.00380356,0.00244101,-0.00008626,0.00022714,-0.00265414
 ,0.00075016,0.00159034,0.00054383,0.07416893,-0.15382850,-0.03229603,-
 0.05314359,0.69666726,-0.00462908,-0.00646807,-0.00257209,0.00050519,0
 .00120352,0.00903487,-0.00121344,-0.00007702,-0.00462084,0.04058869,-0
 .05972387,-0.06255311,-0.02370223,0.28548179,0.28530680,-0.00038702,0.
 00031579,0.00022793,-0.00028897,-0.00018223,-0.00110853,-0.00012773,0.
 00014907,0.00084161,0.00539495,0.01318358,0.00831971,-0.05531085,0.055
 48960,0.02950773,0.04761810,0.00071223,0.00027408,0.00003213,0.0000159
 1,-0.00029106,-0.00007655,0.00024635,0.00031332,-0.00010414,0.00295843
 ,-0.00192806,-0.00098588,0.04722284,-0.26180491,-0.11938874,-0.0538845
 5,0.25514951,0.00215741,0.00015878,-0.00062026,0.00015134,-0.00020053,
 -0.00078961,0.00009586,0.00023001,0.00095043,-0.00919283,0.01391191,0.
 00829152,0.03666600,-0.11974786,-0.11482876,-0.02552146,0.12793169,0.0
 9866039,-0.03460422,-0.02737569,-0.00099597,-0.00018261,0.00143083,-0.
 00565723,-0.00370116,0.00232091,0.00823072,-0.14813263,-0.02543820,0.0
 1891246,0.06523606,0.01042286,0.01795332,-0.00481765,0.00442238,-0.008
 79536,0.25656760,-0.02065349,0.00379806,-0.00244113,-0.00075036,0.0015
 9042,-0.00054447,0.00008581,0.00022742,0.00265509,-0.07416828,-0.15383
 992,0.03229820,-0.01040602,-0.08168967,0.00312013,0.00420274,0.0064555
 5,-0.01189360,0.05309315,0.69667944,-0.00462982,0.00646754,-0.00257209
 ,-0.00121345,0.00007688,-0.00462084,0.00050533,-0.00120346,0.00903487,
 0.04058184,0.05972852,-0.06255311,0.01795368,-0.00311807,0.00534821,-0
 .00540434,-0.00493082,0.00746751,-0.02366951,-0.28548450,0.28530680,-0
 .00038690,-0.00031586,0.00022793,-0.00012769,-0.00014912,0.00084160,-0
 .00028899,0.00018223,-0.00110854,0.00539680,-0.01318274,0.00831960,-0.
 00481666,-0.00420403,-0.00540491,0.00069735,-0.00061722,0.00099686,-0.
 05529908,-0.05546593,0.02949405,0.04760575,-0.00071230,0.00027396,-0.0
 0003211,-0.00024640,0.00031327,0.00010424,-0.00001591,-0.00029104,0.00
 007642,-0.00295759,-0.00192990,0.00098683,-0.00442367,0.00645457,0.004
 93020,0.00061730,-0.00002771,-0.00072991,-0.04719917,-0.26181668,0.119
 39212,0.05386077,0.25516186,0.00215743,-0.00015854,-0.00062026,0.00009
 589,-0.00022999,0.00095043,0.00015132,0.00020055,-0.00078961,-0.009191
 24,-0.01391296,0.00829152,-0.00879673,0.01189259,0.00746751,0.00099677
 ,0.00073002,-0.00039647,0.03665227,0.11975206,-0.11482876,-0.02550680,
 -0.12793462,0.09866039,0.02500692,0.00000184,0.00406794,0.00151864,-0.
 00116210,-0.00207366,0.00151857,0.00116221,-0.00207425,-0.11826636,-0.
 00001251,-0.04402896,-0.07505114,-0.10404675,-0.05360528,0.00722184,-0
 .00107636,0.00344220,-0.07506631,0.10406238,-0.05361778,0.00721944,0.0
 0107697,0.00344109,0.22589840,0.00000184,-0.00713470,0.00000024,0.0005
 8289,0.00057406,-0.00512375,-0.00058278,0.00057413,0.00512351,-0.00001
 250,0.10004152,-0.00000253,-0.02830730,-0.21141978,-0.10907794,-0.0198
 9129,0.00185928,-0.00966049,0.02832293,-0.21140462,0.10907179,0.019891
 90,0.00186168,0.00966089,-0.00000568,0.32504843,0.02229437,0.00000128,
 0.01423438,0.00197373,-0.00067371,-0.00361229,0.00197365,0.00067393,-0
 .00361229,-0.06972622,-0.00000400,0.02129026,-0.04261436,-0.14254310,-
 0.12258259,-0.00785941,-0.00320771,0.00126526,-0.04263070,0.14253821,-
 0.12258259,-0.00785978,0.00320681,0.00126526,0.14444871,0.00000828,0.2
 1433459\\-0.00005764,0.,-0.00002787,0.00001753,-0.00001293,0.00000448,
 0.00001753,0.00001293,0.00000448,0.00000731,0.,0.00006868,0.00001722,0
 .00000964,-0.00001872,-0.00000059,-0.00001743,-0.00001682,0.00001722,-
 0.00000964,-0.00001872,-0.00000060,0.00001743,-0.00001682,-0.00001797,
 0.,0.00002130\\\@


 ...THE PHYSICISTS HAVE MADE THEIR UNIVERSE, AND IF YOU DO NOT LIKE
 IT, YOU MUST MAKE YOUR OWN.
                               -- E. R. HARRISON IN "COSMOLOGY" (1980)
 Job cpu time:       0 days  0 hours 36 minutes 52.5 seconds.
 File lengths (MBytes):  RWF=     36 Int=      0 D2E=      0 Chk=      4 Scr=      1
 Normal termination of Gaussian 09 at Thu Jan 31 08:01:18 2019.
