 Entering Gaussian System, Link 0=/home/proyectos/fulerenos/M3C-v1.9/M3C-deps_CCC/g09-AM64L-G09RevC.01/g09
 Initial command:
 /home/proyectos/fulerenos/M3C-v1.9/M3C-deps_CCC/g09-AM64L-G09RevC.01/l1.exe "/scratch/naguirre/gaussian/Gau-26135.inp" -scrdir="/scratch/naguirre/gaussian/"
 Entering Link 1 = /home/proyectos/fulerenos/M3C-v1.9/M3C-deps_CCC/g09-AM64L-G09RevC.01/l1.exe PID=     26142.
  
 Copyright (c) 1988,1990,1992,1993,1995,1998,2003,2009,2015,
            Gaussian, Inc.  All Rights Reserved.
  
 This is part of the Gaussian(R) 09 program.  It is based on
 the Gaussian(R) 03 system (copyright 2003, Gaussian, Inc.),
 the Gaussian(R) 98 system (copyright 1998, Gaussian, Inc.),
 the Gaussian(R) 94 system (copyright 1995, Gaussian, Inc.),
 the Gaussian 92(TM) system (copyright 1992, Gaussian, Inc.),
 the Gaussian 90(TM) system (copyright 1990, Gaussian, Inc.),
 the Gaussian 88(TM) system (copyright 1988, Gaussian, Inc.),
 the Gaussian 86(TM) system (copyright 1986, Carnegie Mellon
 University), and the Gaussian 82(TM) system (copyright 1983,
 Carnegie Mellon University). Gaussian is a federally registered
 trademark of Gaussian, Inc.
  
 This software contains proprietary and confidential information,
 including trade secrets, belonging to Gaussian, Inc.
  
 This software is provided under written license and may be
 used, copied, transmitted, or stored only in accord with that
 written license.
  
 The following legend is applicable only to US Government
 contracts under FAR:
  
                    RESTRICTED RIGHTS LEGEND
  
 Use, reproduction and disclosure by the US Government is
 subject to restrictions as set forth in subparagraphs (a)
 and (c) of the Commercial Computer Software - Restricted
 Rights clause in FAR 52.227-19.
  
 Gaussian, Inc.
 340 Quinnipiac St., Bldg. 40, Wallingford CT 06492
  
  
 ---------------------------------------------------------------
 Warning -- This program may not be used in any manner that
 competes with the business of Gaussian, Inc. or will provide
 assistance to any competitor of Gaussian, Inc.  The licensee
 of this program is prohibited from giving any competitor of
 Gaussian, Inc. access to this program.  By using this program,
 the user acknowledges that Gaussian, Inc. is engaged in the
 business of creating and licensing software in the field of
 computational chemistry and represents and warrants to the
 licensee that it is not a competitor of Gaussian, Inc. and that
 it will not use this program in any manner prohibited above.
 ---------------------------------------------------------------
  

 Cite this work as:
 Gaussian 09, Revision E.01,
 M. J. Frisch, G. W. Trucks, H. B. Schlegel, G. E. Scuseria, 
 M. A. Robb, J. R. Cheeseman, G. Scalmani, V. Barone, B. Mennucci, 
 G. A. Petersson, H. Nakatsuji, M. Caricato, X. Li, H. P. Hratchian, 
 A. F. Izmaylov, J. Bloino, G. Zheng, J. L. Sonnenberg, M. Hada, 
 M. Ehara, K. Toyota, R. Fukuda, J. Hasegawa, M. Ishida, T. Nakajima, 
 Y. Honda, O. Kitao, H. Nakai, T. Vreven, J. A. Montgomery, Jr., 
 J. E. Peralta, F. Ogliaro, M. Bearpark, J. J. Heyd, E. Brothers, 
 K. N. Kudin, V. N. Staroverov, T. Keith, R. Kobayashi, J. Normand, 
 K. Raghavachari, A. Rendell, J. C. Burant, S. S. Iyengar, J. Tomasi, 
 M. Cossi, N. Rega, J. M. Millam, M. Klene, J. E. Knox, J. B. Cross, 
 V. Bakken, C. Adamo, J. Jaramillo, R. Gomperts, R. E. Stratmann, 
 O. Yazyev, A. J. Austin, R. Cammi, C. Pomelli, J. W. Ochterski, 
 R. L. Martin, K. Morokuma, V. G. Zakrzewski, G. A. Voth, 
 P. Salvador, J. J. Dannenberg, S. Dapprich, A. D. Daniels, 
 O. Farkas, J. B. Foresman, J. V. Ortiz, J. Cioslowski, 
 and D. J. Fox, Gaussian, Inc., Wallingford CT, 2013.
 
 ******************************************
 Gaussian 09:  EM64L-G09RevE.01 30-Nov-2015
                20-Jun-2016 
 ******************************************
 %NProcShared=4
 Will use up to    4 processors via shared memory.
 ---------------------------------------------
 #p b3lyp/6-311++G(3df,2p) freq symmetry=Loose
 ---------------------------------------------
 1/10=4,30=1,38=1/1,3;
 2/12=2,17=4,18=3,40=1/2;
 3/5=4,6=6,7=1216,11=2,16=1,25=1,30=1,71=2,74=-5,140=1/1,2,3;
 4//1;
 5/5=2,38=5,98=1/2;
 8/6=4,10=90,11=11/1;
 11/6=1,8=1,9=11,15=111,16=1/1,2,10;
 10/6=1/2;
 6/7=2,8=2,9=2,10=2,18=1,28=1/1;
 7/8=1,10=1,25=1/1,2,3,16;
 1/10=4,30=1/3;
 99//99;
 Leave Link    1 at Mon Jun 20 04:39:51 2016, MaxMem=           0 cpu:         0.3
 (Enter /home/proyectos/fulerenos/M3C-v1.9/M3C-deps_CCC/g09-AM64L-G09RevC.01/l101.exe)
 ---------
 b3lyp opt
 ---------
 Symbolic Z-matrix:
 Charge =  1 Multiplicity = 2
 C                    -0.57732  -0.9108   -0.28224 
 C                     0.67606  -0.14157   0.33619 
 H                     0.73403  -0.4056    1.39514 
 C                     1.91349   0.05524  -0.2807 
 H                     2.95093  -0.01283   0.01156 
 C                    -1.59296  -0.03844   0.04371 
 H                    -2.66361   0.00606  -0.06212 
 C                    -0.52495   0.80453   0.0242 
 H                    -0.38727   1.79862  -0.39148 
 
 NAtoms=      9 NQM=        9 NQMF=       0 NMMI=      0 NMMIF=      0
                NMic=       0 NMicF=      0.
                    Isotopes and Nuclear Properties:
 (Nuclear quadrupole moments (NQMom) in fm**2, nuclear magnetic moments (NMagM)
  in nuclear magnetons)

  Atom         1           2           3           4           5           6           7           8           9
 IAtWgt=          12          12           1          12           1          12           1          12           1
 AtmWgt=  12.0000000  12.0000000   1.0078250  12.0000000   1.0078250  12.0000000   1.0078250  12.0000000   1.0078250
 NucSpn=           0           0           1           0           1           0           1           0           1
 AtZEff=   0.0000000   0.0000000   0.0000000   0.0000000   0.0000000   0.0000000   0.0000000   0.0000000   0.0000000
 NQMom=    0.0000000   0.0000000   0.0000000   0.0000000   0.0000000   0.0000000   0.0000000   0.0000000   0.0000000
 NMagM=    0.0000000   0.0000000   2.7928460   0.0000000   2.7928460   0.0000000   2.7928460   0.0000000   2.7928460
 AtZNuc=   6.0000000   6.0000000   1.0000000   6.0000000   1.0000000   6.0000000   1.0000000   6.0000000   1.0000000
 Leave Link  101 at Mon Jun 20 04:39:51 2016, MaxMem=    33554432 cpu:         0.2
 (Enter /home/proyectos/fulerenos/M3C-v1.9/M3C-deps_CCC/g09-AM64L-G09RevC.01/l103.exe)

 GradGradGradGradGradGradGradGradGradGradGradGradGradGradGradGradGradGrad
 Berny optimization.
 Initialization pass.
 Trust Radius=3.00D-01 FncErr=1.00D-07 GrdErr=1.00D-07
 Number of steps in this run=      2 maximum allowed number of steps=      2.
 GradGradGradGradGradGradGradGradGradGradGradGradGradGradGradGradGradGrad

 Leave Link  103 at Mon Jun 20 04:39:51 2016, MaxMem=    33554432 cpu:         0.1
 (Enter /home/proyectos/fulerenos/M3C-v1.9/M3C-deps_CCC/g09-AM64L-G09RevC.01/l202.exe)
                          Input orientation:                          
 ---------------------------------------------------------------------
 Center     Atomic      Atomic             Coordinates (Angstroms)
 Number     Number       Type             X           Y           Z
 ---------------------------------------------------------------------
      1          6           0       -0.577321   -0.910803   -0.282244
      2          6           0        0.676063   -0.141572    0.336188
      3          1           0        0.734026   -0.405599    1.395139
      4          6           0        1.913486    0.055242   -0.280697
      5          1           0        2.950930   -0.012831    0.011556
      6          6           0       -1.592962   -0.038437    0.043708
      7          1           0       -2.663611    0.006063   -0.062118
      8          6           0       -0.524945    0.804527    0.024196
      9          1           0       -0.387268    1.798624   -0.391483
 ---------------------------------------------------------------------
                    Distance matrix (angstroms):
                    1          2          3          4          5
     1  C    0.000000
     2  C    1.595351   0.000000
     3  H    2.188259   1.092908   0.000000
     4  C    2.671585   1.396602   2.100459   0.000000
     5  H    3.652564   2.301517   2.642581   1.079970   0.000000
     6  C    1.377967   2.290121   2.715888   3.522668   4.544078
     7  H    2.289477   3.366581   3.719812   4.582577   5.615056
     8  C    1.743274   1.560405   2.220112   2.569111   3.570706
     9  H    2.718280   2.329064   3.050888   2.888793   3.819342
                    6          7          8          9
     6  C    0.000000
     7  H    1.076786   0.000000
     8  C    1.360746   2.284488   0.000000
     9  H    2.240063   2.916075   1.086266   0.000000
 Stoichiometry    C5H4(1+,2)
 Framework group  C1[X(C5H4)]
 Deg. of freedom    21
 Full point group                 C1      NOp   1
 Largest Abelian subgroup         C1      NOp   1
 Largest concise Abelian subgroup C1      NOp   1
                         Standard orientation:                         
 ---------------------------------------------------------------------
 Center     Atomic      Atomic             Coordinates (Angstroms)
 Number     Number       Type             X           Y           Z
 ---------------------------------------------------------------------
      1          6           0       -0.577321   -0.910803   -0.282244
      2          6           0        0.676063   -0.141572    0.336188
      3          1           0        0.734026   -0.405599    1.395139
      4          6           0        1.913486    0.055242   -0.280697
      5          1           0        2.950930   -0.012831    0.011556
      6          6           0       -1.592962   -0.038437    0.043708
      7          1           0       -2.663611    0.006063   -0.062118
      8          6           0       -0.524945    0.804527    0.024196
      9          1           0       -0.387268    1.798624   -0.391483
 ---------------------------------------------------------------------
 Rotational constants (GHZ):     18.8744258      4.6321850      4.0325984
 Leave Link  202 at Mon Jun 20 04:39:51 2016, MaxMem=    33554432 cpu:         0.0
 (Enter /home/proyectos/fulerenos/M3C-v1.9/M3C-deps_CCC/g09-AM64L-G09RevC.01/l301.exe)
 Standard basis: 6-311++G(3df,2p) (5D, 7F)
 Ernie: Thresh=  0.10000D-02 Tol=  0.10000D-05 Strict=F.
 There are   265 symmetry adapted cartesian basis functions of A   symmetry.
 There are   235 symmetry adapted basis functions of A   symmetry.
   235 basis functions,   338 primitive gaussians,   265 cartesian basis functions
    17 alpha electrons       16 beta electrons
       nuclear repulsion energy       136.3213172906 Hartrees.
 IExCor=  402 DFT=T Ex+Corr=B3LYP ExCW=0 ScaHFX=  0.200000
 ScaDFX=  0.800000  0.720000  1.000000  0.810000 ScalE2=  1.000000  1.000000
 IRadAn=      0 IRanWt=     -1 IRanGd=            0 ICorTp=0 IEmpDi=  4
 NAtoms=    9 NActive=    9 NUniq=    9 SFac= 1.00D+00 NAtFMM=   60 NAOKFM=F Big=F
 Integral buffers will be    131072 words long.
 Raffenetti 2 integral format.
 Two-electron integral symmetry is turned on.
 Leave Link  301 at Mon Jun 20 04:39:51 2016, MaxMem=    33554432 cpu:         0.2
 (Enter /home/proyectos/fulerenos/M3C-v1.9/M3C-deps_CCC/g09-AM64L-G09RevC.01/l302.exe)
 NPDir=0 NMtPBC=     1 NCelOv=     1 NCel=       1 NClECP=     1 NCelD=      1
         NCelK=      1 NCelE2=     1 NClLst=     1 CellRange=     0.0.
 One-electron integrals computed using PRISM.
 NBasis=   235 RedAO= T EigKep=  1.09D-05  NBF=   235
 NBsUse=   235 1.00D-06 EigRej= -1.00D+00 NBFU=   235
 Precomputing XC quadrature grid using
 IXCGrd= 4 IRadAn=           0 IRanWt=          -1 IRanGd=           0 AccXCQ= 0.00D+00.
 Generated NRdTot=       0 NPtTot=           0 NUsed=           0 NTot=          32
 NSgBfM=   265   265   265   265   265 MxSgAt=     9 MxSgA2=     9.
 Leave Link  302 at Mon Jun 20 04:39:51 2016, MaxMem=    33554432 cpu:         1.3
 (Enter /home/proyectos/fulerenos/M3C-v1.9/M3C-deps_CCC/g09-AM64L-G09RevC.01/l303.exe)
 DipDrv:  MaxL=1.
 Leave Link  303 at Mon Jun 20 04:39:51 2016, MaxMem=    33554432 cpu:         0.1
 (Enter /home/proyectos/fulerenos/M3C-v1.9/M3C-deps_CCC/g09-AM64L-G09RevC.01/l401.exe)
 ExpMin= 3.60D-02 ExpMax= 4.56D+03 ExpMxC= 6.82D+02 IAcc=3 IRadAn=         5 AccDes= 0.00D+00
 Harris functional with IExCor=  402 and IRadAn=       5 diagonalized for initial guess.
 HarFok:  IExCor=  402 AccDes= 0.00D+00 IRadAn=         5 IDoV= 1 UseB2=F ITyADJ=14
 ICtDFT=  3500011 ScaDFX=  1.000000  1.000000  1.000000  1.000000
 FoFCou: FMM=F IPFlag=           0 FMFlag=      100000 FMFlg1=           0
         NFxFlg=           0 DoJE=T BraDBF=F KetDBF=T FulRan=T
         wScrn=  0.000000 ICntrl=     500 IOpCl=  0 I1Cent=   200000004 NGrid=           0
         NMat0=    1 NMatS0=      1 NMatT0=    0 NMatD0=    1 NMtDS0=    0 NMtDT0=    0
 Petite list used in FoFCou.
 Harris En= -192.413288979131    
 JPrj=0 DoOrth=F DoCkMO=F.
 Initial guess <Sx>= 0.0000 <Sy>= 0.0000 <Sz>= 0.5000 <S**2>= 0.7500 S= 0.5000
 Leave Link  401 at Mon Jun 20 04:39:54 2016, MaxMem=    33554432 cpu:        11.7
 (Enter /home/proyectos/fulerenos/M3C-v1.9/M3C-deps_CCC/g09-AM64L-G09RevC.01/l502.exe)
 UHF open shell SCF:
 Using DIIS extrapolation, IDIIS=  1040.
 Integral symmetry usage will be decided dynamically.
 IVT=      232727 IEndB=      232727 NGot=    33554432 MDV=    33408836
 LenX=    33408836 LenY=    33338170
 Requested convergence on RMS density matrix=1.00D-08 within 128 cycles.
 Requested convergence on MAX density matrix=1.00D-06.
 Requested convergence on             energy=1.00D-06.
 No special actions if energy rises.
 Fock matrices will be formed incrementally for  20 cycles.

 Cycle   1  Pass 1  IDiag  1:
 FoFJK:  IHMeth= 1 ICntrl=       0 DoSepK=F KAlg= 0 I1Cent=   0 FoldK=F
 IRaf= 990000000 NMat=   1 IRICut=       1 DoRegI=T DoRafI=F ISym2E= 0.
 FoFCou: FMM=F IPFlag=           0 FMFlag=      100000 FMFlg1=           0
         NFxFlg=           0 DoJE=F BraDBF=F KetDBF=F FulRan=T
         wScrn=  0.000000 ICntrl=       0 IOpCl=  1 I1Cent=           0 NGrid=           0
         NMat0=    1 NMatS0=      1 NMatT0=    0 NMatD0=    1 NMtDS0=    0 NMtDT0=    0
 Symmetry not used in FoFCou.
 E= -192.334478618081    
 DIIS: error= 1.12D-02 at cycle   1 NSaved=   1.
 NSaved= 1 IEnMin= 1 EnMin= -192.334478618081     IErMin= 1 ErrMin= 1.12D-02
 ErrMax= 1.12D-02  0.00D+00 EMaxC= 1.00D-01 BMatC= 2.47D-01 BMatP= 2.47D-01
 IDIUse=3 WtCom= 8.88D-01 WtEn= 1.12D-01
 Coeff-Com:  0.100D+01
 Coeff-En:   0.100D+01
 Coeff:      0.100D+01
 Gap=     0.159 Goal=   None    Shift=    0.000
 Gap=     0.034 Goal=   None    Shift=    0.000
 GapD=    0.034 DampG=0.250 DampE=0.500 DampFc=0.2500 IDamp=-1.
 Damping current iteration by 2.50D-01
 RMSDP=5.50D-03 MaxDP=2.54D-01              OVMax= 5.29D-01

 Cycle   2  Pass 1  IDiag  1:
 RMSU=  1.30D-03    CP:  9.70D-01
 E= -192.345200214832     Delta-E=       -0.010721596751 Rises=F Damp=T
 DIIS: error= 6.30D-03 at cycle   2 NSaved=   2.
 NSaved= 2 IEnMin= 2 EnMin= -192.345200214832     IErMin= 2 ErrMin= 6.30D-03
 ErrMax= 6.30D-03  0.00D+00 EMaxC= 1.00D-01 BMatC= 8.52D-02 BMatP= 2.47D-01
 IDIUse=3 WtCom= 9.37D-01 WtEn= 6.30D-02
 Coeff-Com: -0.286D+00 0.129D+01
 Coeff-En:   0.270D+00 0.730D+00
 Coeff:     -0.251D+00 0.125D+01
 Gap=     0.036 Goal=   None    Shift=    0.000
 Gap=     0.129 Goal=   None    Shift=    0.000
 RMSDP=2.07D-03 MaxDP=1.19D-01 DE=-1.07D-02 OVMax= 6.26D-01

 Cycle   3  Pass 1  IDiag  1:
 RMSU=  1.98D-03    CP:  1.01D+00  7.67D-01
 E= -192.312515997236     Delta-E=        0.032684217596 Rises=F Damp=F
 DIIS: error= 1.73D-02 at cycle   3 NSaved=   3.
 NSaved= 3 IEnMin= 2 EnMin= -192.345200214832     IErMin= 2 ErrMin= 6.30D-03
 ErrMax= 1.73D-02  0.00D+00 EMaxC= 1.00D-01 BMatC= 2.29D-01 BMatP= 8.52D-02
 IDIUse=2 WtCom= 0.00D+00 WtEn= 1.00D+00
 Coeff-En:   0.000D+00 0.683D+00 0.317D+00
 Coeff:      0.000D+00 0.683D+00 0.317D+00
 Gap=     0.136 Goal=   None    Shift=    0.000
 Gap=     0.065 Goal=   None    Shift=    0.000
 RMSDP=3.37D-03 MaxDP=1.79D-01 DE= 3.27D-02 OVMax= 4.46D-01

 Cycle   4  Pass 1  IDiag  1:
 RMSU=  8.35D-04    CP:  9.36D-01  2.85D+00  2.25D-01
 E= -192.338375184264     Delta-E=       -0.025859187028 Rises=F Damp=F
 DIIS: error= 1.62D-02 at cycle   4 NSaved=   4.
 NSaved= 4 IEnMin= 2 EnMin= -192.345200214832     IErMin= 2 ErrMin= 6.30D-03
 ErrMax= 1.62D-02  0.00D+00 EMaxC= 1.00D-01 BMatC= 1.59D-01 BMatP= 8.52D-02
 IDIUse=2 WtCom= 0.00D+00 WtEn= 1.00D+00
 Coeff-En:   0.000D+00 0.000D+00 0.434D+00 0.566D+00
 Coeff:      0.000D+00 0.000D+00 0.434D+00 0.566D+00
 Gap=     0.073 Goal=   None    Shift=    0.000
 Gap=     0.088 Goal=   None    Shift=    0.000
 RMSDP=1.85D-03 MaxDP=1.12D-01 DE=-2.59D-02 OVMax= 2.57D-01

 Cycle   5  Pass 1  IDiag  1:
 RMSU=  4.12D-04    CP:  9.83D-01  1.69D+00  5.89D-01  1.15D+00
 E= -192.386346462992     Delta-E=       -0.047971278727 Rises=F Damp=F
 DIIS: error= 5.09D-03 at cycle   5 NSaved=   5.
 NSaved= 5 IEnMin= 5 EnMin= -192.386346462992     IErMin= 5 ErrMin= 5.09D-03
 ErrMax= 5.09D-03  0.00D+00 EMaxC= 1.00D-01 BMatC= 1.97D-02 BMatP= 8.52D-02
 IDIUse=3 WtCom= 9.49D-01 WtEn= 5.09D-02
 Coeff-Com: -0.576D+00 0.778D+00 0.133D+00-0.101D+00 0.767D+00
 Coeff-En:   0.000D+00 0.000D+00 0.000D+00 0.124D+00 0.876D+00
 Coeff:     -0.547D+00 0.738D+00 0.126D+00-0.899D-01 0.772D+00
 Gap=     0.079 Goal=   None    Shift=    0.000
 Gap=     0.096 Goal=   None    Shift=    0.000
 RMSDP=4.97D-04 MaxDP=3.02D-02 DE=-4.80D-02 OVMax= 7.75D-02

 Cycle   6  Pass 1  IDiag  1:
 RMSU=  3.44D-04    CP:  9.74D-01  1.95D+00  6.07D-01  1.15D+00  1.09D+00
 E= -192.392624599410     Delta-E=       -0.006278136418 Rises=F Damp=F
 DIIS: error= 1.38D-03 at cycle   6 NSaved=   6.
 NSaved= 6 IEnMin= 6 EnMin= -192.392624599410     IErMin= 6 ErrMin= 1.38D-03
 ErrMax= 1.38D-03  0.00D+00 EMaxC= 1.00D-01 BMatC= 2.14D-03 BMatP= 1.97D-02
 IDIUse=3 WtCom= 9.86D-01 WtEn= 1.38D-02
 Coeff-Com: -0.412D+00 0.551D+00 0.616D-01-0.982D-01 0.536D+00 0.362D+00
 Coeff-En:   0.000D+00 0.000D+00 0.000D+00 0.000D+00 0.000D+00 0.100D+01
 Coeff:     -0.406D+00 0.543D+00 0.608D-01-0.968D-01 0.529D+00 0.370D+00
 Gap=     0.080 Goal=   None    Shift=    0.000
 Gap=     0.099 Goal=   None    Shift=    0.000
 RMSDP=2.13D-04 MaxDP=1.12D-02 DE=-6.28D-03 OVMax= 3.19D-02

 Cycle   7  Pass 1  IDiag  1:
 RMSU=  1.68D-04    CP:  9.73D-01  1.98D+00  6.05D-01  1.20D+00  1.31D+00
                    CP:  1.19D+00
 E= -192.394070821234     Delta-E=       -0.001446221824 Rises=F Damp=F
 DIIS: error= 1.32D-03 at cycle   7 NSaved=   7.
 NSaved= 7 IEnMin= 7 EnMin= -192.394070821234     IErMin= 7 ErrMin= 1.32D-03
 ErrMax= 1.32D-03  0.00D+00 EMaxC= 1.00D-01 BMatC= 5.76D-04 BMatP= 2.14D-03
 IDIUse=3 WtCom= 9.87D-01 WtEn= 1.32D-02
 Coeff-Com: -0.270D+00 0.363D+00 0.413D-01-0.582D-01 0.357D+00 0.235D+00
 Coeff-Com:  0.332D+00
 Coeff-En:   0.000D+00 0.000D+00 0.000D+00 0.000D+00 0.000D+00 0.000D+00
 Coeff-En:   0.100D+01
 Coeff:     -0.267D+00 0.358D+00 0.407D-01-0.574D-01 0.352D+00 0.232D+00
 Coeff:      0.341D+00
 Gap=     0.080 Goal=   None    Shift=    0.000
 Gap=     0.102 Goal=   None    Shift=    0.000
 RMSDP=1.72D-04 MaxDP=1.13D-02 DE=-1.45D-03 OVMax= 3.42D-02

 Cycle   8  Pass 1  IDiag  1:
 RMSU=  5.51D-05    CP:  9.71D-01  2.02D+00  6.04D-01  1.24D+00  1.50D+00
                    CP:  1.47D+00  1.49D+00
 E= -192.395016504853     Delta-E=       -0.000945683619 Rises=F Damp=F
 DIIS: error= 1.12D-03 at cycle   8 NSaved=   8.
 NSaved= 8 IEnMin= 8 EnMin= -192.395016504853     IErMin= 8 ErrMin= 1.12D-03
 ErrMax= 1.12D-03  0.00D+00 EMaxC= 1.00D-01 BMatC= 5.89D-04 BMatP= 5.76D-04
 IDIUse=3 WtCom= 9.89D-01 WtEn= 1.12D-02
 Coeff-Com: -0.273D+00 0.366D+00 0.391D-01-0.565D-01 0.360D+00 0.248D+00
 Coeff-Com:  0.479D+00-0.164D+00
 Coeff-En:   0.000D+00 0.000D+00 0.000D+00 0.000D+00 0.000D+00 0.000D+00
 Coeff-En:   0.000D+00 0.100D+01
 Coeff:     -0.270D+00 0.362D+00 0.387D-01-0.559D-01 0.356D+00 0.246D+00
 Coeff:      0.474D+00-0.151D+00
 Gap=     0.080 Goal=   None    Shift=    0.000
 Gap=     0.101 Goal=   None    Shift=    0.000
 RMSDP=3.32D-05 MaxDP=1.75D-03 DE=-9.46D-04 OVMax= 5.89D-03

 Cycle   9  Pass 1  IDiag  1:
 RMSU=  4.46D-06    CP:  9.71D-01  2.02D+00  6.03D-01  1.23D+00  1.46D+00
                    CP:  1.42D+00  1.38D+00  8.06D-01
 E= -192.394829335057     Delta-E=        0.000187169796 Rises=F Damp=F
 DIIS: error= 1.11D-03 at cycle   9 NSaved=   9.
 NSaved= 9 IEnMin= 8 EnMin= -192.395016504853     IErMin= 9 ErrMin= 1.11D-03
 ErrMax= 1.11D-03  0.00D+00 EMaxC= 1.00D-01 BMatC= 5.74D-04 BMatP= 5.76D-04
 IDIUse=3 WtCom= 9.89D-01 WtEn= 1.11D-02
 Large coefficients: NSaved=  9 BigCof=   15.75 CofMax=   10.00 Det=-1.11D-07
 Inversion failed.  Reducing to  8 matrices.
 Large coefficients: NSaved=  8 BigCof=   15.26 CofMax=   10.00 Det=-2.56D-07
 Inversion failed.  Reducing to  7 matrices.
 Large coefficients: NSaved=  7 BigCof=   15.24 CofMax=   10.00 Det=-2.56D-07
 Inversion failed.  Reducing to  6 matrices.
 Rare condition: small coef for last iteration:  0.000D+00
 Coeff-Com:  0.931D-02-0.798D-02-0.320D-01 0.270D+00-0.729D+01 0.805D+01
 Coeff-En:   0.000D+00 0.000D+00 0.000D+00 0.000D+00 0.000D+00 0.100D+01
 Coeff:      0.931D-02-0.798D-02-0.320D-01 0.270D+00-0.729D+01 0.805D+01
 Gap=     0.082 Goal=   None    Shift=    0.000
 Gap=     0.105 Goal=   None    Shift=    0.000
 RMSDP=2.40D-04 MaxDP=1.91D-02 DE= 1.87D-04 OVMax= 4.75D-02

 Cycle  10  Pass 1  IDiag  1:
 RMSU=  2.82D-05    CP:  9.67D-01  2.11D+00  5.92D-01  1.29D+00  1.69D+00
                    CP:  1.72D+00  2.08D+00  1.93D+00  2.80D+00
 E= -192.395651290142     Delta-E=       -0.000821955084 Rises=F Damp=F
 DIIS: error= 2.00D-03 at cycle  10 NSaved=   7.
 NSaved= 7 IEnMin= 7 EnMin= -192.395651290142     IErMin= 6 ErrMin= 1.11D-03
 ErrMax= 2.00D-03  0.00D+00 EMaxC= 1.00D-01 BMatC= 1.69D-03 BMatP= 5.74D-04
 IDIUse=3 WtCom= 9.89D-01 WtEn= 1.11D-02
 Large coefficients: NSaved=  7 BigCof=   66.80 CofMax=   10.00 Det=-6.09D-08
 Inversion failed.  Reducing to  6 matrices.
 Large coefficients: NSaved=  6 BigCof=   66.43 CofMax=   10.00 Det=-6.10D-08
 Inversion failed.  Reducing to  5 matrices.
 Large coefficients: NSaved=  5 BigCof=   66.74 CofMax=   10.00 Det=-6.24D-08
 Inversion failed.  Reducing to  4 matrices.
 Large coefficients: NSaved=  4 BigCof=   36.05 CofMax=   10.00 Det=-1.04D-07
 Inversion failed.  Reducing to  3 matrices.
 Large coefficients: NSaved=  3 BigCof=   16.06 CofMax=   10.00 Det=-1.80D-07
 Inversion failed.  Reducing to  2 matrices.
 Coeff-Com:  0.116D+01-0.160D+00
 Coeff-En:   0.000D+00 0.100D+01
 Coeff:      0.115D+01-0.147D+00
 Gap=     0.084 Goal=   None    Shift=    0.000
 Gap=     0.112 Goal=   None    Shift=    0.000
 RMSDP=2.51D-04 MaxDP=1.20D-02 DE=-8.22D-04 OVMax= 4.08D-02

 Cycle  11  Pass 1  IDiag  1:
 RMSU=  3.51D-05    CP:  9.65D-01  2.11D+00  6.10D-01  1.29D+00  2.00D+00
                    CP:  2.11D+00  2.90D+00  3.00D+00 -2.65D+00  6.30D-01
 E= -192.397160944769     Delta-E=       -0.001509654628 Rises=F Damp=F
 DIIS: error= 1.80D-03 at cycle  11 NSaved=   3.
 NSaved= 3 IEnMin= 3 EnMin= -192.397160944769     IErMin= 1 ErrMin= 1.11D-03
 ErrMax= 1.80D-03  0.00D+00 EMaxC= 1.00D-01 BMatC= 1.41D-03 BMatP= 5.74D-04
 IDIUse=3 WtCom= 9.89D-01 WtEn= 1.11D-02
 Coeff-Com:  0.108D+01-0.625D+00 0.546D+00
 Coeff-En:   0.000D+00 0.000D+00 0.100D+01
 Coeff:      0.107D+01-0.618D+00 0.551D+00
 Gap=     0.085 Goal=   None    Shift=    0.000
 Gap=     0.116 Goal=   None    Shift=    0.000
 RMSDP=1.47D-04 MaxDP=8.04D-03 DE=-1.51D-03 OVMax= 2.58D-02

 Cycle  12  Pass 1  IDiag  1:
 RMSU=  6.28D-05    CP:  9.64D-01  2.11D+00  6.18D-01  1.29D+00  2.17D+00
                    CP:  2.34D+00  3.00D+00  3.00D+00 -3.00D+00  6.75D-01
                    CP:  2.70D+00
 E= -192.397965710419     Delta-E=       -0.000804765650 Rises=F Damp=F
 DIIS: error= 1.76D-03 at cycle  12 NSaved=   4.
 NSaved= 4 IEnMin= 4 EnMin= -192.397965710419     IErMin= 1 ErrMin= 1.11D-03
 ErrMax= 1.76D-03  0.00D+00 EMaxC= 1.00D-01 BMatC= 1.40D-03 BMatP= 5.74D-04
 IDIUse=3 WtCom= 9.89D-01 WtEn= 1.11D-02
 Coeff-Com:  0.866D+00-0.214D+01-0.600D+00 0.287D+01
 Coeff-En:   0.000D+00 0.000D+00 0.000D+00 0.100D+01
 Coeff:      0.856D+00-0.211D+01-0.594D+00 0.285D+01
 Gap=     0.090 Goal=   None    Shift=    0.000
 Gap=     0.140 Goal=   None    Shift=    0.000
 RMSDP=7.43D-04 MaxDP=4.55D-02 DE=-8.05D-04 OVMax= 1.29D-01

 Cycle  13  Pass 1  IDiag  1:
 RMSU=  4.61D-04    CP:  9.54D-01  2.14D+00  6.53D-01  1.18D+00  2.98D+00
                    CP:  3.00D+00  3.00D+00  3.00D+00 -3.00D+00  9.46D-01
                    CP:  3.00D+00  3.00D+00
 E= -192.400988552009     Delta-E=       -0.003022841590 Rises=F Damp=F
 DIIS: error= 1.39D-03 at cycle  13 NSaved=   5.
 NSaved= 5 IEnMin= 5 EnMin= -192.400988552009     IErMin= 1 ErrMin= 1.11D-03
 ErrMax= 1.39D-03  0.00D+00 EMaxC= 1.00D-01 BMatC= 1.28D-03 BMatP= 5.74D-04
 IDIUse=3 WtCom= 9.89D-01 WtEn= 1.11D-02
 Coeff-Com:  0.143D+01 0.278D+00-0.269D+01 0.484D+00 0.150D+01
 Coeff-En:   0.000D+00 0.000D+00 0.000D+00 0.000D+00 0.100D+01
 Coeff:      0.141D+01 0.275D+00-0.266D+01 0.478D+00 0.149D+01
 Gap=     0.089 Goal=   None    Shift=    0.000
 Gap=     0.145 Goal=   None    Shift=    0.000
 RMSDP=1.64D-04 MaxDP=1.00D-02 DE=-3.02D-03 OVMax= 9.88D-03

 Cycle  14  Pass 1  IDiag  1:
 RMSU=  7.60D-05    CP:  9.56D-01  2.05D+00  6.63D-01  1.15D+00  2.97D+00
                    CP:  3.00D+00  3.00D+00  3.00D+00 -3.00D+00 -1.16D+00
                    CP:  3.00D+00  3.00D+00  1.11D+00
 E= -192.401378065375     Delta-E=       -0.000389513365 Rises=F Damp=F
 DIIS: error= 5.89D-04 at cycle  14 NSaved=   6.
 NSaved= 6 IEnMin= 6 EnMin= -192.401378065375     IErMin= 6 ErrMin= 5.89D-04
 ErrMax= 5.89D-04  0.00D+00 EMaxC= 1.00D-01 BMatC= 2.61D-04 BMatP= 5.74D-04
 IDIUse=3 WtCom= 9.94D-01 WtEn= 5.89D-03
 Coeff-Com:  0.760D+00 0.140D+01-0.156D+01-0.159D+01 0.121D+01 0.778D+00
 Coeff-En:   0.000D+00 0.000D+00 0.000D+00 0.000D+00 0.000D+00 0.100D+01
 Coeff:      0.755D+00 0.139D+01-0.155D+01-0.158D+01 0.120D+01 0.779D+00
 Gap=     0.090 Goal=   None    Shift=    0.000
 Gap=     0.150 Goal=   None    Shift=    0.000
 RMSDP=1.29D-04 MaxDP=5.89D-03 DE=-3.90D-04 OVMax= 1.63D-02

 Cycle  15  Pass 1  IDiag  1:
 RMSU=  4.69D-05    CP:  9.55D-01  2.03D+00  6.73D-01  1.11D+00  3.00D+00
                    CP:  3.00D+00  3.00D+00  3.00D+00 -3.00D+00 -1.66D+00
                    CP:  3.00D+00  3.00D+00  1.33D+00  1.35D+00
 E= -192.401633986280     Delta-E=       -0.000255920905 Rises=F Damp=F
 DIIS: error= 4.28D-04 at cycle  15 NSaved=   7.
 NSaved= 7 IEnMin= 7 EnMin= -192.401633986280     IErMin= 7 ErrMin= 4.28D-04
 ErrMax= 4.28D-04  0.00D+00 EMaxC= 1.00D-01 BMatC= 1.01D-04 BMatP= 2.61D-04
 IDIUse=3 WtCom= 9.96D-01 WtEn= 4.28D-03
 Coeff-Com: -0.236D+00 0.110D+01-0.430D+00-0.130D+01 0.494D+00 0.417D+00
 Coeff-Com:  0.957D+00
 Coeff-En:   0.000D+00 0.000D+00 0.000D+00 0.000D+00 0.000D+00 0.000D+00
 Coeff-En:   0.100D+01
 Coeff:     -0.235D+00 0.109D+01-0.428D+00-0.130D+01 0.492D+00 0.415D+00
 Coeff:      0.957D+00
 Gap=     0.098 Goal=   None    Shift=    0.000
 Gap=     0.167 Goal=   None    Shift=    0.000
 RMSDP=3.93D-04 MaxDP=2.64D-02 DE=-2.56D-04 OVMax= 6.93D-02

 Cycle  16  Pass 1  IDiag  1:
 RMSU=  1.29D-04    CP:  9.49D-01  2.04D+00  6.87D-01  1.00D+00  3.00D+00
                    CP:  3.00D+00  3.00D+00  3.00D+00 -3.00D+00 -9.91D-01
                    CP:  3.00D+00  3.00D+00  2.05D+00  1.76D+00  3.00D+00
 E= -192.401941532770     Delta-E=       -0.000307546490 Rises=F Damp=F
 DIIS: error= 1.70D-04 at cycle  16 NSaved=   8.
 NSaved= 8 IEnMin= 8 EnMin= -192.401941532770     IErMin= 8 ErrMin= 1.70D-04
 ErrMax= 1.70D-04  0.00D+00 EMaxC= 1.00D-01 BMatC= 1.42D-05 BMatP= 1.01D-04
 IDIUse=3 WtCom= 9.98D-01 WtEn= 1.70D-03
 Coeff-Com: -0.642D-01 0.301D+00-0.539D-01-0.386D+00 0.157D+00 0.149D+00
 Coeff-Com:  0.238D+00 0.661D+00
 Coeff-En:   0.000D+00 0.000D+00 0.000D+00 0.000D+00 0.000D+00 0.000D+00
 Coeff-En:   0.000D+00 0.100D+01
 Coeff:     -0.641D-01 0.300D+00-0.538D-01-0.386D+00 0.156D+00 0.148D+00
 Coeff:      0.237D+00 0.661D+00
 Gap=     0.097 Goal=   None    Shift=    0.000
 Gap=     0.164 Goal=   None    Shift=    0.000
 RMSDP=6.56D-05 MaxDP=3.31D-03 DE=-3.08D-04 OVMax= 9.75D-03

 Cycle  17  Pass 1  IDiag  1:
 RMSU=  1.04D-05    CP:  9.49D-01  2.04D+00  6.83D-01  1.03D+00  3.00D+00
                    CP:  3.00D+00  3.00D+00  3.00D+00 -3.00D+00 -9.57D-01
                    CP:  3.00D+00  3.00D+00  1.94D+00  1.67D+00  2.76D+00
                    CP:  8.45D-01
 E= -192.401957927599     Delta-E=       -0.000016394829 Rises=F Damp=F
 DIIS: error= 2.28D-05 at cycle  17 NSaved=   9.
 NSaved= 9 IEnMin= 9 EnMin= -192.401957927599     IErMin= 9 ErrMin= 2.28D-05
 ErrMax= 2.28D-05  0.00D+00 EMaxC= 1.00D-01 BMatC= 5.50D-07 BMatP= 1.42D-05
 IDIUse=1 WtCom= 1.00D+00 WtEn= 0.00D+00
 Coeff-Com: -0.419D-01 0.850D-01 0.169D-01-0.120D+00 0.434D-01 0.477D-01
 Coeff-Com:  0.887D-01 0.294D+00 0.586D+00
 Coeff:     -0.419D-01 0.850D-01 0.169D-01-0.120D+00 0.434D-01 0.477D-01
 Coeff:      0.887D-01 0.294D+00 0.586D+00
 Gap=     0.097 Goal=   None    Shift=    0.000
 Gap=     0.165 Goal=   None    Shift=    0.000
 RMSDP=7.45D-06 MaxDP=5.44D-04 DE=-1.64D-05 OVMax= 1.35D-03

 Cycle  18  Pass 1  IDiag  1:
 RMSU=  2.59D-06    CP:  9.49D-01  2.04D+00  6.83D-01  1.03D+00  3.00D+00
                    CP:  3.00D+00  3.00D+00  3.00D+00 -3.00D+00 -9.01D-01
                    CP:  3.00D+00  3.00D+00  1.95D+00  1.68D+00  2.78D+00
                    CP:  8.60D-01  1.02D+00
 E= -192.401958013341     Delta-E=       -0.000000085742 Rises=F Damp=F
 DIIS: error= 2.06D-05 at cycle  18 NSaved=  10.
 NSaved=10 IEnMin=10 EnMin= -192.401958013341     IErMin=10 ErrMin= 2.06D-05
 ErrMax= 2.06D-05  0.00D+00 EMaxC= 1.00D-01 BMatC= 1.71D-07 BMatP= 5.50D-07
 IDIUse=1 WtCom= 1.00D+00 WtEn= 0.00D+00
 Coeff-Com: -0.802D-02-0.501D-01 0.437D-01 0.418D-01-0.289D-01-0.225D-01
 Coeff-Com:  0.306D-02-0.843D-01 0.226D+00 0.879D+00
 Coeff:     -0.802D-02-0.501D-01 0.437D-01 0.418D-01-0.289D-01-0.225D-01
 Coeff:      0.306D-02-0.843D-01 0.226D+00 0.879D+00
 Gap=     0.097 Goal=   None    Shift=    0.000
 Gap=     0.164 Goal=   None    Shift=    0.000
 RMSDP=3.06D-06 MaxDP=2.04D-04 DE=-8.57D-08 OVMax= 5.67D-04

 Cycle  19  Pass 1  IDiag  1:
 RMSU=  1.70D-06    CP:  9.49D-01  2.04D+00  6.82D-01  1.03D+00  3.00D+00
                    CP:  3.00D+00  3.00D+00  3.00D+00 -3.00D+00 -8.92D-01
                    CP:  3.00D+00  3.00D+00  1.95D+00  1.69D+00  2.78D+00
                    CP:  8.56D-01  1.19D+00  1.59D+00
 E= -192.401958132719     Delta-E=       -0.000000119378 Rises=F Damp=F
 DIIS: error= 1.33D-05 at cycle  19 NSaved=  11.
 NSaved=11 IEnMin=11 EnMin= -192.401958132719     IErMin=11 ErrMin= 1.33D-05
 ErrMax= 1.33D-05  0.00D+00 EMaxC= 1.00D-01 BMatC= 1.34D-07 BMatP= 1.71D-07
 IDIUse=1 WtCom= 1.00D+00 WtEn= 0.00D+00
 Coeff-Com:  0.516D-02-0.166D-02 0.149D-01-0.169D-01-0.113D-01-0.871D-02
 Coeff-Com:  0.201D-01-0.103D+00-0.102D+00 0.374D+00 0.829D+00
 Coeff:      0.516D-02-0.166D-02 0.149D-01-0.169D-01-0.113D-01-0.871D-02
 Coeff:      0.201D-01-0.103D+00-0.102D+00 0.374D+00 0.829D+00
 Gap=     0.097 Goal=   None    Shift=    0.000
 Gap=     0.164 Goal=   None    Shift=    0.000
 RMSDP=7.48D-06 MaxDP=6.08D-04 DE=-1.19D-07 OVMax= 1.35D-03

 Cycle  20  Pass 1  IDiag  1:
 RMSU=  9.35D-07    CP:  9.50D-01  2.04D+00  6.82D-01  1.03D+00  3.00D+00
                    CP:  3.00D+00  3.00D+00  3.00D+00 -3.00D+00 -9.26D-01
                    CP:  3.00D+00  3.00D+00  1.94D+00  1.69D+00  2.75D+00
                    CP:  8.30D-01  1.25D+00  1.96D+00  1.04D+00
 E= -192.401958227853     Delta-E=       -0.000000095134 Rises=F Damp=F
 DIIS: error= 3.93D-06 at cycle  20 NSaved=  12.
 NSaved=12 IEnMin=12 EnMin= -192.401958227853     IErMin=12 ErrMin= 3.93D-06
 ErrMax= 3.93D-06  0.00D+00 EMaxC= 1.00D-01 BMatC= 1.55D-08 BMatP= 1.34D-07
 IDIUse=1 WtCom= 1.00D+00 WtEn= 0.00D+00
 Coeff-Com: -0.147D-02 0.422D-02-0.256D-02-0.493D-02-0.467D-03-0.191D-02
 Coeff-Com:  0.973D-02-0.533D-02-0.712D-01-0.473D-01 0.302D+00 0.819D+00
 Coeff:     -0.147D-02 0.422D-02-0.256D-02-0.493D-02-0.467D-03-0.191D-02
 Coeff:      0.973D-02-0.533D-02-0.712D-01-0.473D-01 0.302D+00 0.819D+00
 Gap=     0.097 Goal=   None    Shift=    0.000
 Gap=     0.164 Goal=   None    Shift=    0.000
 RMSDP=4.15D-06 MaxDP=2.80D-04 DE=-9.51D-08 OVMax= 7.23D-04

 Cycle  21  Pass 1  IDiag  1:
 Restarting incremental Fock formation.
 E= -192.401958253827     Delta-E=       -0.000000025974 Rises=F Damp=F
 DIIS: error= 2.58D-06 at cycle  21 NSaved=  13.
 NSaved=13 IEnMin=13 EnMin= -192.401958253827     IErMin=13 ErrMin= 2.58D-06
 ErrMax= 2.58D-06  0.00D+00 EMaxC= 1.00D-01 BMatC= 2.92D-09 BMatP= 1.55D-08
 IDIUse=1 WtCom= 1.00D+00 WtEn= 0.00D+00
 Coeff-Com:  0.720D-04 0.221D-02-0.444D-02 0.458D-04 0.446D-02 0.329D-02
 Coeff-Com: -0.170D-02 0.158D-01 0.120D-01-0.818D-01-0.138D+00 0.756D-01
 Coeff-Com:  0.111D+01
 Coeff:      0.720D-04 0.221D-02-0.444D-02 0.458D-04 0.446D-02 0.329D-02
 Coeff:     -0.170D-02 0.158D-01 0.120D-01-0.818D-01-0.138D+00 0.756D-01
 Coeff:      0.111D+01
 Gap=     0.097 Goal=   None    Shift=    0.000
 Gap=     0.164 Goal=   None    Shift=    0.000
 RMSDP=9.80D-07 MaxDP=3.87D-05 DE=-2.60D-08 OVMax= 1.47D-04

 Cycle  22  Pass 1  IDiag  1:
 RMSU=  9.78D-07    CP:  1.00D+00
 E= -192.401958259754     Delta-E=       -0.000000005927 Rises=F Damp=F
 DIIS: error= 6.88D-07 at cycle  22 NSaved=  14.
 NSaved=14 IEnMin=14 EnMin= -192.401958259754     IErMin=14 ErrMin= 6.88D-07
 ErrMax= 6.88D-07  0.00D+00 EMaxC= 1.00D-01 BMatC= 2.93D-10 BMatP= 2.92D-09
 IDIUse=1 WtCom= 1.00D+00 WtEn= 0.00D+00
 Coeff-Com:  0.460D-04 0.598D-03-0.228D-03-0.819D-03 0.177D-02 0.173D-02
 Coeff-Com: -0.160D-02 0.594D-02 0.152D-01-0.137D-01-0.114D+00-0.142D+00
 Coeff-Com:  0.265D+00 0.982D+00
 Coeff:      0.460D-04 0.598D-03-0.228D-03-0.819D-03 0.177D-02 0.173D-02
 Coeff:     -0.160D-02 0.594D-02 0.152D-01-0.137D-01-0.114D+00-0.142D+00
 Coeff:      0.265D+00 0.982D+00
 Gap=     0.097 Goal=   None    Shift=    0.000
 Gap=     0.164 Goal=   None    Shift=    0.000
 RMSDP=3.30D-07 MaxDP=1.25D-05 DE=-5.93D-09 OVMax= 4.69D-05

 Cycle  23  Pass 1  IDiag  1:
 RMSU=  1.18D-07    CP:  1.00D+00  1.31D+00
 E= -192.401958260151     Delta-E=       -0.000000000397 Rises=F Damp=F
 DIIS: error= 3.10D-07 at cycle  23 NSaved=  15.
 NSaved=15 IEnMin=15 EnMin= -192.401958260151     IErMin=15 ErrMin= 3.10D-07
 ErrMax= 3.10D-07  0.00D+00 EMaxC= 1.00D-01 BMatC= 5.67D-11 BMatP= 2.93D-10
 IDIUse=1 WtCom= 1.00D+00 WtEn= 0.00D+00
 Coeff-Com: -0.231D-03-0.117D-02 0.138D-02 0.696D-03-0.895D-03-0.619D-03
 Coeff-Com: -0.220D-03-0.114D-02 0.185D-02 0.140D-01-0.667D-05-0.350D-01
 Coeff-Com: -0.154D+00 0.156D+00 0.102D+01
 Coeff:     -0.231D-03-0.117D-02 0.138D-02 0.696D-03-0.895D-03-0.619D-03
 Coeff:     -0.220D-03-0.114D-02 0.185D-02 0.140D-01-0.667D-05-0.350D-01
 Coeff:     -0.154D+00 0.156D+00 0.102D+01
 Gap=     0.097 Goal=   None    Shift=    0.000
 Gap=     0.164 Goal=   None    Shift=    0.000
 RMSDP=2.53D-07 MaxDP=1.86D-05 DE=-3.97D-10 OVMax= 4.39D-05

 Cycle  24  Pass 1  IDiag  1:
 RMSU=  1.35D-07    CP:  1.00D+00  1.11D+00  1.70D+00
 E= -192.401958260181     Delta-E=       -0.000000000031 Rises=F Damp=F
 DIIS: error= 1.79D-07 at cycle  24 NSaved=  16.
 NSaved=16 IEnMin=16 EnMin= -192.401958260181     IErMin=16 ErrMin= 1.79D-07
 ErrMax= 1.79D-07  0.00D+00 EMaxC= 1.00D-01 BMatC= 2.36D-11 BMatP= 5.67D-11
 IDIUse=1 WtCom= 1.00D+00 WtEn= 0.00D+00
 Coeff-Com: -0.123D-04-0.136D-04 0.235D-03-0.201D-03-0.162D-03-0.613D-04
 Coeff-Com:  0.308D-03-0.323D-03-0.782D-04 0.116D-02 0.351D-02 0.125D-01
 Coeff-Com: -0.339D-01-0.559D-01 0.130D+00 0.943D+00
 Coeff:     -0.123D-04-0.136D-04 0.235D-03-0.201D-03-0.162D-03-0.613D-04
 Coeff:      0.308D-03-0.323D-03-0.782D-04 0.116D-02 0.351D-02 0.125D-01
 Coeff:     -0.339D-01-0.559D-01 0.130D+00 0.943D+00
 Gap=     0.097 Goal=   None    Shift=    0.000
 Gap=     0.164 Goal=   None    Shift=    0.000
 RMSDP=1.27D-07 MaxDP=1.02D-05 DE=-3.05D-11 OVMax= 2.36D-05

 Cycle  25  Pass 1  IDiag  1:
 RMSU=  2.55D-08    CP:  1.00D+00  1.23D+00  1.58D+00  6.38D-01
 E= -192.401958260230     Delta-E=       -0.000000000048 Rises=F Damp=F
 DIIS: error= 2.22D-08 at cycle  25 NSaved=  17.
 NSaved=17 IEnMin=17 EnMin= -192.401958260230     IErMin=17 ErrMin= 2.22D-08
 ErrMax= 2.22D-08  0.00D+00 EMaxC= 1.00D-01 BMatC= 2.73D-13 BMatP= 2.36D-11
 IDIUse=1 WtCom= 1.00D+00 WtEn= 0.00D+00
 Coeff-Com:  0.230D-06 0.426D-04-0.831D-04 0.423D-05 0.461D-04 0.319D-04
 Coeff-Com:  0.183D-04 0.102D-03-0.643D-04-0.913D-03-0.259D-03 0.406D-02
 Coeff-Com:  0.125D-01-0.206D-01-0.833D-01 0.837D-01 0.100D+01
 Coeff:      0.230D-06 0.426D-04-0.831D-04 0.423D-05 0.461D-04 0.319D-04
 Coeff:      0.183D-04 0.102D-03-0.643D-04-0.913D-03-0.259D-03 0.406D-02
 Coeff:      0.125D-01-0.206D-01-0.833D-01 0.837D-01 0.100D+01
 Gap=     0.097 Goal=   None    Shift=    0.000
 Gap=     0.164 Goal=   None    Shift=    0.000
 RMSDP=1.47D-08 MaxDP=8.88D-07 DE=-4.84D-11 OVMax= 2.51D-06

 Cycle  26  Pass 1  IDiag  1:
 RMSU=  2.50D-09    CP:  1.00D+00  1.22D+00  1.61D+00  6.82D-01  1.02D+00
 E= -192.401958260227     Delta-E=        0.000000000003 Rises=F Damp=F
 DIIS: error= 6.13D-09 at cycle  26 NSaved=  18.
 NSaved=18 IEnMin=17 EnMin= -192.401958260230     IErMin=18 ErrMin= 6.13D-09
 ErrMax= 6.13D-09  0.00D+00 EMaxC= 1.00D-01 BMatC= 3.41D-14 BMatP= 2.73D-13
 IDIUse=1 WtCom= 1.00D+00 WtEn= 0.00D+00
 Coeff-Com:  0.321D-05 0.138D-04-0.299D-04 0.362D-05 0.232D-04 0.157D-04
 Coeff-Com: -0.153D-04 0.272D-04-0.188D-04-0.221D-03-0.267D-03-0.905D-03
 Coeff-Com:  0.354D-02 0.313D-02-0.143D-01-0.722D-01-0.584D-02 0.109D+01
 Coeff:      0.321D-05 0.138D-04-0.299D-04 0.362D-05 0.232D-04 0.157D-04
 Coeff:     -0.153D-04 0.272D-04-0.188D-04-0.221D-03-0.267D-03-0.905D-03
 Coeff:      0.354D-02 0.313D-02-0.143D-01-0.722D-01-0.584D-02 0.109D+01
 Gap=     0.097 Goal=   None    Shift=    0.000
 Gap=     0.164 Goal=   None    Shift=    0.000
 RMSDP=4.37D-09 MaxDP=2.71D-07 DE= 2.96D-12 OVMax= 6.68D-07

 SCF Done:  E(UB3LYP) =  -192.401958260     A.U. after   26 cycles
            NFock= 26  Conv=0.44D-08     -V/T= 2.0045
 <Sx>= 0.0000 <Sy>= 0.0000 <Sz>= 0.5000 <S**2>= 1.4197 S= 0.7922
 <L.S>= 0.000000000000E+00
 KE= 1.915426673262D+02 PE=-7.106057112828D+02 EE= 1.903397684058D+02
 Annihilation of the first spin contaminant:
 S**2 before annihilation     1.4197,   after     0.7717
 Leave Link  502 at Mon Jun 20 04:45:06 2016, MaxMem=    33554432 cpu:      1232.5
 (Enter /home/proyectos/fulerenos/M3C-v1.9/M3C-deps_CCC/g09-AM64L-G09RevC.01/l801.exe)
 DoSCS=F DFT=T ScalE2(SS,OS)=  1.000000  1.000000
 Range of M.O.s used for correlation:     1   235
 NBasis=   235 NAE=    17 NBE=    16 NFC=     0 NFV=     0
 NROrb=    235 NOA=    17 NOB=    16 NVA=   218 NVB=   219

 **** Warning!!: The largest alpha MO coefficient is  0.84485316D+02


 **** Warning!!: The smallest alpha delta epsilon is  0.96840221D-01


 **** Warning!!: The largest beta MO coefficient is  0.86187046D+02

 Leave Link  801 at Mon Jun 20 04:45:06 2016, MaxMem=    33554432 cpu:         0.1
 (Enter /home/proyectos/fulerenos/M3C-v1.9/M3C-deps_CCC/g09-AM64L-G09RevC.01/l1101.exe)
 Using compressed storage, NAtomX=     9.
 Will process     10 centers per pass.
 Leave Link 1101 at Mon Jun 20 04:45:06 2016, MaxMem=    33554432 cpu:         1.5
 (Enter /home/proyectos/fulerenos/M3C-v1.9/M3C-deps_CCC/g09-AM64L-G09RevC.01/l1102.exe)
 Symmetrizing basis deriv contribution to polar:
 IMax=3 JMax=2 DiffMx= 0.00D+00
 Leave Link 1102 at Mon Jun 20 04:45:06 2016, MaxMem=    33554432 cpu:         0.1
 (Enter /home/proyectos/fulerenos/M3C-v1.9/M3C-deps_CCC/g09-AM64L-G09RevC.01/l1110.exe)
 Forming Gx(P) for the SCF density, NAtomX=     9.
 Integral derivatives from FoFJK, PRISM(SPDF).
 Do as many integral derivatives as possible in FoFJK.
 G2DrvN: MDV=      33554256.
 G2DrvN: will do    10 centers at a time, making    1 passes.
 Calling FoFCou, ICntrl=  3107 FMM=F I1Cent=   0 AccDes= 0.00D+00.
 FoFJK:  IHMeth= 1 ICntrl=    3107 DoSepK=F KAlg= 0 I1Cent=   0 FoldK=F
 IRaf=         0 NMat=   1 IRICut=       1 DoRegI=T DoRafI=F ISym2E= 0.
 FoFCou: FMM=F IPFlag=           0 FMFlag=      100000 FMFlg1=           0
         NFxFlg=           0 DoJE=F BraDBF=F KetDBF=F FulRan=T
         wScrn=  0.000000 ICntrl=    3107 IOpCl=  1 I1Cent=           0 NGrid=           0
         NMat0=    1 NMatS0=      1 NMatT0=    0 NMatD0=    1 NMtDS0=    0 NMtDT0=    0
 Symmetry not used in FoFCou.
 End of G2Drv F.D. properties file   721 does not exist.
 End of G2Drv F.D. properties file   722 does not exist.
 End of G2Drv F.D. properties file   788 does not exist.
 Leave Link 1110 at Mon Jun 20 04:47:22 2016, MaxMem=    33554432 cpu:       534.0
 (Enter /home/proyectos/fulerenos/M3C-v1.9/M3C-deps_CCC/g09-AM64L-G09RevC.01/l1002.exe)
 Minotr:  UHF open shell wavefunction.
          IDoAtm=111111111
          Direct CPHF calculation.
          Differentiating once with respect to electric field.
                with respect to dipole field.
          Differentiating once with respect to nuclear coordinates.
          Requested convergence is 1.0D-08 RMS, and 1.0D-07 maximum.
          Secondary convergence is 1.0D-12 RMS, and 1.0D-12 maximum.
          NewPWx=T KeepS1=F KeepF1=F KeepIn=T MapXYZ=F SortEE=F KeepMc=T.
          MDV=      33553868 using IRadAn=       2.
 Generate precomputed XC quadrature information.
          Solving linear equations simultaneously, MaxMat=       0.
 FoFJK:  IHMeth= 1 ICntrl=       0 DoSepK=F KAlg= 0 I1Cent=   0 FoldK=F
 IRaf= 990000000 NMat=  30 IRICut=      75 DoRegI=T DoRafI=T ISym2E= 2.
 FoFCou: FMM=F IPFlag=           0 FMFlag=      100000 FMFlg1=           0
         NFxFlg=           0 DoJE=F BraDBF=F KetDBF=F FulRan=T
         wScrn=  0.000000 ICntrl=       0 IOpCl=  1 I1Cent=           0 NGrid=           0
         NMat0=   30 NMatS0=     30 NMatT0=    0 NMatD0=   30 NMtDS0=    0 NMtDT0=    0
 Integrals replicated using symmetry in FoFCou.
          There are    30 degrees of freedom in the 1st order CPHF.  IDoFFX=6 NUNeed=     3.
     27 vectors produced by pass  0 Test12= 2.40D-14 3.33D-09 XBig12= 3.58D+02 1.54D+01.
 AX will form    27 AO Fock derivatives at one time.
     27 vectors produced by pass  1 Test12= 2.40D-14 3.33D-09 XBig12= 5.21D+01 1.11D+00.
     27 vectors produced by pass  2 Test12= 2.40D-14 3.33D-09 XBig12= 2.28D+00 2.73D-01.
     27 vectors produced by pass  3 Test12= 2.40D-14 3.33D-09 XBig12= 2.44D-02 3.82D-02.
     27 vectors produced by pass  4 Test12= 2.40D-14 3.33D-09 XBig12= 1.70D-04 2.30D-03.
     27 vectors produced by pass  5 Test12= 2.40D-14 3.33D-09 XBig12= 1.07D-06 1.39D-04.
     27 vectors produced by pass  6 Test12= 2.40D-14 3.33D-09 XBig12= 4.99D-09 6.72D-06.
      7 vectors produced by pass  7 Test12= 2.40D-14 3.33D-09 XBig12= 1.55D-11 4.49D-07.
      3 vectors produced by pass  8 Test12= 2.40D-14 3.33D-09 XBig12= 1.15D-13 3.99D-08.
      3 vectors produced by pass  9 Test12= 2.40D-14 3.33D-09 XBig12= 1.40D-14 2.02D-08.
 InvSVY:  IOpt=1 It=  1 EMax= 3.55D-15
 Solved reduced A of dimension   202 with    30 vectors.
 FullF1:  Do perturbations    1 to     3.
 Isotropic polarizability for W=    0.000000       55.31 Bohr**3.
 End of Minotr F.D. properties file   721 does not exist.
 End of Minotr F.D. properties file   722 does not exist.
 End of Minotr F.D. properties file   788 does not exist.
 Leave Link 1002 at Mon Jun 20 04:55:00 2016, MaxMem=    33554432 cpu:      1832.1
 (Enter /home/proyectos/fulerenos/M3C-v1.9/M3C-deps_CCC/g09-AM64L-G09RevC.01/l601.exe)
 Copying SCF densities to generalized density rwf, IOpCl= 1 IROHF=0.

 **********************************************************************

            Population analysis using the SCF density.

 **********************************************************************

 Orbital symmetries:
 Alpha Orbitals:
       Occupied  (A) (A) (A) (A) (A) (A) (A) (A) (A) (A) (A) (A)
                 (A) (A) (A) (A) (A)
       Virtual   (A) (A) (A) (A) (A) (A) (A) (A) (A) (A) (A) (A)
                 (A) (A) (A) (A) (A) (A) (A) (A) (A) (A) (A) (A)
                 (A) (A) (A) (A) (A) (A) (A) (A) (A) (A) (A) (A)
                 (A) (A) (A) (A) (A) (A) (A) (A) (A) (A) (A) (A)
                 (A) (A) (A) (A) (A) (A) (A) (A) (A) (A) (A) (A)
                 (A) (A) (A) (A) (A) (A) (A) (A) (A) (A) (A) (A)
                 (A) (A) (A) (A) (A) (A) (A) (A) (A) (A) (A) (A)
                 (A) (A) (A) (A) (A) (A) (A) (A) (A) (A) (A) (A)
                 (A) (A) (A) (A) (A) (A) (A) (A) (A) (A) (A) (A)
                 (A) (A) (A) (A) (A) (A) (A) (A) (A) (A) (A) (A)
                 (A) (A) (A) (A) (A) (A) (A) (A) (A) (A) (A) (A)
                 (A) (A) (A) (A) (A) (A) (A) (A) (A) (A) (A) (A)
                 (A) (A) (A) (A) (A) (A) (A) (A) (A) (A) (A) (A)
                 (A) (A) (A) (A) (A) (A) (A) (A) (A) (A) (A) (A)
                 (A) (A) (A) (A) (A) (A) (A) (A) (A) (A) (A) (A)
                 (A) (A) (A) (A) (A) (A) (A) (A) (A) (A) (A) (A)
                 (A) (A) (A) (A) (A) (A) (A) (A) (A) (A) (A) (A)
                 (A) (A) (A) (A) (A) (A) (A) (A) (A) (A) (A) (A)
                 (A) (A)
 Beta  Orbitals:
       Occupied  (A) (A) (A) (A) (A) (A) (A) (A) (A) (A) (A) (A)
                 (A) (A) (A) (A)
       Virtual   (A) (A) (A) (A) (A) (A) (A) (A) (A) (A) (A) (A)
                 (A) (A) (A) (A) (A) (A) (A) (A) (A) (A) (A) (A)
                 (A) (A) (A) (A) (A) (A) (A) (A) (A) (A) (A) (A)
                 (A) (A) (A) (A) (A) (A) (A) (A) (A) (A) (A) (A)
                 (A) (A) (A) (A) (A) (A) (A) (A) (A) (A) (A) (A)
                 (A) (A) (A) (A) (A) (A) (A) (A) (A) (A) (A) (A)
                 (A) (A) (A) (A) (A) (A) (A) (A) (A) (A) (A) (A)
                 (A) (A) (A) (A) (A) (A) (A) (A) (A) (A) (A) (A)
                 (A) (A) (A) (A) (A) (A) (A) (A) (A) (A) (A) (A)
                 (A) (A) (A) (A) (A) (A) (A) (A) (A) (A) (A) (A)
                 (A) (A) (A) (A) (A) (A) (A) (A) (A) (A) (A) (A)
                 (A) (A) (A) (A) (A) (A) (A) (A) (A) (A) (A) (A)
                 (A) (A) (A) (A) (A) (A) (A) (A) (A) (A) (A) (A)
                 (A) (A) (A) (A) (A) (A) (A) (A) (A) (A) (A) (A)
                 (A) (A) (A) (A) (A) (A) (A) (A) (A) (A) (A) (A)
                 (A) (A) (A) (A) (A) (A) (A) (A) (A) (A) (A) (A)
                 (A) (A) (A) (A) (A) (A) (A) (A) (A) (A) (A) (A)
                 (A) (A) (A) (A) (A) (A) (A) (A) (A) (A) (A) (A)
                 (A) (A) (A)
 The electronic state is 2-A.
 Alpha  occ. eigenvalues --  -10.49314 -10.48818 -10.46616 -10.45432 -10.45341
 Alpha  occ. eigenvalues --   -1.18081  -1.00969  -0.86247  -0.85306  -0.76567
 Alpha  occ. eigenvalues --   -0.72444  -0.68193  -0.65747  -0.64381  -0.57163
 Alpha  occ. eigenvalues --   -0.48323  -0.46080
 Alpha virt. eigenvalues --   -0.36396  -0.25882  -0.24879  -0.14144  -0.13597
 Alpha virt. eigenvalues --   -0.12270  -0.11133  -0.10513  -0.09365  -0.07784
 Alpha virt. eigenvalues --   -0.07003  -0.06420  -0.05968  -0.04398  -0.02810
 Alpha virt. eigenvalues --   -0.02346  -0.01826  -0.01627  -0.01050  -0.00995
 Alpha virt. eigenvalues --    0.00195   0.00576   0.01343   0.01966   0.02215
 Alpha virt. eigenvalues --    0.03631   0.03852   0.04814   0.07200   0.07913
 Alpha virt. eigenvalues --    0.08608   0.09472   0.10189   0.13546   0.15473
 Alpha virt. eigenvalues --    0.17528   0.18719   0.19681   0.20759   0.22177
 Alpha virt. eigenvalues --    0.23271   0.24383   0.24645   0.26542   0.27270
 Alpha virt. eigenvalues --    0.28497   0.30243   0.31160   0.33025   0.33797
 Alpha virt. eigenvalues --    0.34442   0.35425   0.35878   0.36485   0.37239
 Alpha virt. eigenvalues --    0.37888   0.40616   0.41841   0.44328   0.45809
 Alpha virt. eigenvalues --    0.46750   0.47555   0.49659   0.52520   0.53067
 Alpha virt. eigenvalues --    0.54211   0.57914   0.59844   0.60190   0.61710
 Alpha virt. eigenvalues --    0.64707   0.69079   0.72887   0.73981   0.76062
 Alpha virt. eigenvalues --    0.77191   0.78112   0.85697   0.86825   0.90300
 Alpha virt. eigenvalues --    0.93046   0.94981   0.97866   0.98702   0.99523
 Alpha virt. eigenvalues --    1.01156   1.04182   1.05891   1.08437   1.09752
 Alpha virt. eigenvalues --    1.10548   1.12798   1.14238   1.15139   1.18143
 Alpha virt. eigenvalues --    1.19473   1.22159   1.27246   1.29089   1.31349
 Alpha virt. eigenvalues --    1.34356   1.37742   1.39104   1.42441   1.44487
 Alpha virt. eigenvalues --    1.58018   1.59187   1.63992   1.66360   1.71108
 Alpha virt. eigenvalues --    1.74773   1.77466   1.79458   1.83821   1.90762
 Alpha virt. eigenvalues --    1.94389   1.95882   1.98372   2.09971   2.15875
 Alpha virt. eigenvalues --    2.23116   2.31856   2.34148   2.41261   2.45711
 Alpha virt. eigenvalues --    2.49667   2.50829   2.53985   2.56727   2.59311
 Alpha virt. eigenvalues --    2.60372   2.63750   2.65630   2.67933   2.68847
 Alpha virt. eigenvalues --    2.71257   2.74453   2.77019   2.78554   2.78698
 Alpha virt. eigenvalues --    2.80399   2.85833   2.87731   2.90593   2.92212
 Alpha virt. eigenvalues --    2.96619   2.98845   3.05025   3.06948   3.11198
 Alpha virt. eigenvalues --    3.20052   3.22362   3.24473   3.27282   3.30916
 Alpha virt. eigenvalues --    3.37794   3.46765   3.52533   3.57018   3.60282
 Alpha virt. eigenvalues --    3.65230   3.68148   3.72150   3.76443   3.83536
 Alpha virt. eigenvalues --    3.89231   3.95278   3.97958   4.03996   4.04630
 Alpha virt. eigenvalues --    4.09444   4.14835   4.17976   4.22664   4.29560
 Alpha virt. eigenvalues --    4.31211   4.38352   4.47634   4.50332   4.57328
 Alpha virt. eigenvalues --    4.66184   4.84336   5.02441   5.16296   5.28377
 Alpha virt. eigenvalues --    5.47704   5.73146   6.11138   6.74263   6.74632
 Alpha virt. eigenvalues --    6.82005   6.82732   6.87144   6.89248   6.92246
 Alpha virt. eigenvalues --    6.98817   7.03952   7.04836   7.12573   7.22067
 Alpha virt. eigenvalues --    7.23852   7.29104   7.31033   7.38428   7.42974
 Alpha virt. eigenvalues --    7.53077   7.64308   7.85031   7.88474   7.94536
 Alpha virt. eigenvalues --    8.12144   8.19377   8.56742  23.72852  23.87701
 Alpha virt. eigenvalues --   24.93211  24.97902  25.30483
  Beta  occ. eigenvalues --  -10.49523 -10.49520 -10.46812 -10.45345 -10.42798
  Beta  occ. eigenvalues --   -1.18665  -0.98510  -0.86360  -0.83632  -0.75328
  Beta  occ. eigenvalues --   -0.72507  -0.67924  -0.65304  -0.64127  -0.56997
  Beta  occ. eigenvalues --   -0.48903
  Beta virt. eigenvalues --   -0.32468  -0.30342  -0.25722  -0.25231  -0.14039
  Beta virt. eigenvalues --   -0.13514  -0.11998  -0.10867  -0.10029  -0.09226
  Beta virt. eigenvalues --   -0.07945  -0.06642  -0.06368  -0.05698  -0.04491
  Beta virt. eigenvalues --   -0.02576  -0.02170  -0.01634  -0.01470  -0.01040
  Beta virt. eigenvalues --   -0.00467   0.00298   0.00844   0.01390   0.02046
  Beta virt. eigenvalues --    0.02125   0.03630   0.03670   0.05338   0.07348
  Beta virt. eigenvalues --    0.07897   0.08698   0.09925   0.10364   0.13959
  Beta virt. eigenvalues --    0.15889   0.18212   0.19240   0.20187   0.21754
  Beta virt. eigenvalues --    0.22807   0.23442   0.24653   0.25199   0.26669
  Beta virt. eigenvalues --    0.27897   0.28211   0.30733   0.32356   0.32869
  Beta virt. eigenvalues --    0.34453   0.34650   0.35694   0.36100   0.36571
  Beta virt. eigenvalues --    0.38388   0.38920   0.40904   0.42773   0.44392
  Beta virt. eigenvalues --    0.45842   0.47095   0.47787   0.50384   0.52190
  Beta virt. eigenvalues --    0.52993   0.53993   0.58109   0.60191   0.61053
  Beta virt. eigenvalues --    0.62248   0.64907   0.69123   0.72967   0.74152
  Beta virt. eigenvalues --    0.76150   0.77254   0.78511   0.86328   0.86956
  Beta virt. eigenvalues --    0.90463   0.93181   0.95027   0.98664   0.98936
  Beta virt. eigenvalues --    0.99485   1.01299   1.04344   1.06899   1.08715
  Beta virt. eigenvalues --    1.09631   1.10693   1.13306   1.14202   1.15714
  Beta virt. eigenvalues --    1.18622   1.20823   1.22058   1.27810   1.30114
  Beta virt. eigenvalues --    1.32643   1.34757   1.37040   1.42683   1.46519
  Beta virt. eigenvalues --    1.49362   1.58013   1.58904   1.64239   1.66825
  Beta virt. eigenvalues --    1.71576   1.75265   1.77409   1.79797   1.84402
  Beta virt. eigenvalues --    1.90969   1.93790   1.96028   1.99390   2.10741
  Beta virt. eigenvalues --    2.15801   2.24998   2.32602   2.34131   2.42566
  Beta virt. eigenvalues --    2.46716   2.50406   2.51024   2.54401   2.57958
  Beta virt. eigenvalues --    2.60704   2.62810   2.64742   2.67911   2.70912
  Beta virt. eigenvalues --    2.72118   2.74053   2.75717   2.77844   2.79251
  Beta virt. eigenvalues --    2.80023   2.80996   2.85660   2.87992   2.90472
  Beta virt. eigenvalues --    2.96392   2.97652   2.99105   3.05598   3.08365
  Beta virt. eigenvalues --    3.11146   3.20014   3.22535   3.25934   3.27614
  Beta virt. eigenvalues --    3.31051   3.37694   3.46698   3.52186   3.57093
  Beta virt. eigenvalues --    3.60266   3.64923   3.68869   3.72560   3.76448
  Beta virt. eigenvalues --    3.83120   3.90291   3.94690   3.98540   4.04138
  Beta virt. eigenvalues --    4.04786   4.09391   4.15467   4.17933   4.23033
  Beta virt. eigenvalues --    4.30306   4.31912   4.39374   4.47492   4.50034
  Beta virt. eigenvalues --    4.57744   4.66571   4.84245   5.03103   5.16208
  Beta virt. eigenvalues --    5.29171   5.47308   5.74919   6.11023   6.79982
  Beta virt. eigenvalues --    6.82365   6.83732   6.85266   6.87788   6.89978
  Beta virt. eigenvalues --    6.92439   7.00479   7.03118   7.07064   7.10681
  Beta virt. eigenvalues --    7.22601   7.23880   7.29795   7.30109   7.39648
  Beta virt. eigenvalues --    7.45459   7.52531   7.66313   7.85313   7.88178
  Beta virt. eigenvalues --    7.94213   8.11837   8.19719   8.55989  23.73030
  Beta virt. eigenvalues --   23.88531  24.94408  24.97519  25.30453
          Condensed to atoms (all electrons):
               1          2          3          4          5          6
     1  C    7.811372  -0.527428  -0.090178   0.029126   0.009648  -0.959130
     2  C   -0.527428   6.935751   0.534777  -1.134864  -0.093909   0.242037
     3  H   -0.090178   0.534777   0.423746  -0.099366  -0.006454   0.059885
     4  C    0.029126  -1.134864  -0.099366   7.654616   0.415620  -0.236976
     5  H    0.009648  -0.093909  -0.006454   0.415620   0.400971  -0.011961
     6  C   -0.959130   0.242037   0.059885  -0.236976  -0.011961   6.725385
     7  H   -0.068106   0.004498   0.000192  -0.003288   0.000221   0.412898
     8  C   -0.153215  -0.212783  -0.063158  -0.037659   0.016479  -0.457879
     9  H   -0.007781  -0.073238  -0.002130   0.010483   0.002268  -0.080103
               7          8          9
     1  C   -0.068106  -0.153215  -0.007781
     2  C    0.004498  -0.212783  -0.073238
     3  H    0.000192  -0.063158  -0.002130
     4  C   -0.003288  -0.037659   0.010483
     5  H    0.000221   0.016479   0.002268
     6  C    0.412898  -0.457879  -0.080103
     7  H    0.389864  -0.052332   0.003073
     8  C   -0.052332   6.562713   0.461509
     9  H    0.003073   0.461509   0.434026
          Atomic-Atomic Spin Densities.
               1          2          3          4          5          6
     1  C   -0.518163   0.144174  -0.017174  -0.218097   0.005710   0.116980
     2  C    0.144174   0.161216   0.018603  -0.438624   0.033882  -0.084400
     3  H   -0.017174   0.018603   0.064351   0.022459  -0.004449   0.001188
     4  C   -0.218097  -0.438624   0.022459   2.435987  -0.057789   0.042823
     5  H    0.005710   0.033882  -0.004449  -0.057789   0.020064  -0.002464
     6  C    0.116980  -0.084400   0.001188   0.042823  -0.002464   0.023599
     7  H    0.005523  -0.001504   0.000052   0.001872  -0.000082  -0.010331
     8  C   -0.053801   0.064184  -0.021912  -0.143316   0.007232   0.050665
     9  H    0.039198  -0.023108  -0.001421   0.004624   0.000186  -0.026434
               7          8          9
     1  C    0.005523  -0.053801   0.039198
     2  C   -0.001504   0.064184  -0.023108
     3  H    0.000052  -0.021912  -0.001421
     4  C    0.001872  -0.143316   0.004624
     5  H   -0.000082   0.007232   0.000186
     6  C   -0.010331   0.050665  -0.026434
     7  H   -0.002401   0.006345  -0.001021
     8  C    0.006345  -0.114118   0.029623
     9  H   -0.001021   0.029623  -0.049330
 Mulliken charges and spin densities:
               1          2
     1  C   -0.044308  -0.495649
     2  C    0.325159  -0.125576
     3  H    0.242685   0.061696
     4  C   -0.597692   1.649939
     5  H    0.267116   0.002290
     6  C    0.305843   0.111627
     7  H    0.312981  -0.001546
     8  C   -0.063677  -0.175098
     9  H    0.251894  -0.027683
 Sum of Mulliken charges =   1.00000   1.00000
 Mulliken charges and spin densities with hydrogens summed into heavy atoms:
               1          2
     1  C   -0.044308  -0.495649
     2  C    0.567844  -0.063880
     4  C   -0.330576   1.652229
     6  C    0.618823   0.110081
     8  C    0.188217  -0.202781
 APT charges:
               1
     1  C   -0.006934
     2  C    0.229609
     3  H    0.119513
     4  C   -0.106276
     5  H    0.213756
     6  C    0.175158
     7  H    0.210154
     8  C   -0.027104
     9  H    0.192123
 Sum of APT charges =   1.00000
 APT charges with hydrogens summed into heavy atoms:
               1
     1  C   -0.006934
     2  C    0.349122
     4  C    0.107480
     6  C    0.385312
     8  C    0.165019
 Electronic spatial extent (au):  <R**2>=            317.8996
 Charge=              1.0000 electrons
 Dipole moment (field-independent basis, Debye):
    X=             -0.2562    Y=              1.3828    Z=              0.7562  Tot=              1.5968
 Quadrupole moment (field-independent basis, Debye-Ang):
   XX=            -10.1899   YY=            -24.7143   ZZ=            -26.5021
   XY=             -0.9465   XZ=              1.2053   YZ=             -1.4849
 Traceless Quadrupole moment (field-independent basis, Debye-Ang):
   XX=             10.2789   YY=             -4.2455   ZZ=             -6.0333
   XY=             -0.9465   XZ=              1.2053   YZ=             -1.4849
 Octapole moment (field-independent basis, Debye-Ang**2):
  XXX=              3.3793  YYY=              9.1702  ZZZ=              4.5006  XYY=             -2.0078
  XXY=             -0.4932  XXZ=              0.9919  XZZ=              0.4455  YZZ=              0.2089
  YYZ=             -0.2233  XYZ=              0.0537
 Hexadecapole moment (field-independent basis, Debye-Ang**3):
 XXXX=           -162.6471 YYYY=            -75.4027 ZZZZ=            -41.6977 XXXY=             -2.6411
 XXXZ=              4.8850 YYYX=             -4.0180 YYYZ=             -5.5018 ZZZX=              3.8563
 ZZZY=             -3.1186 XXYY=            -66.2448 XXZZ=            -59.4592 YYZZ=            -21.7262
 XXYZ=             -0.5004 YYXZ=              1.0356 ZZXY=             -1.6109
 N-N= 1.363213172906D+02 E-N=-7.106057113635D+02  KE= 1.915426673262D+02
  Exact polarizability:  86.716   7.293  45.178   1.554   1.026  34.031
 Approx polarizability: 134.643  22.389  87.255   0.468   4.896  51.602
                          Isotropic Fermi Contact Couplings
        Atom                 a.u.       MegaHertz       Gauss      10(-4) cm-1
     1  C(13)             -0.06213     -69.84130     -24.92111     -23.29655
     2  C(13)             -0.03740     -42.04891     -15.00410     -14.02601
     3  H(1)               0.02970     132.75115      47.36891      44.28102
     4  C(13)              0.33076     371.83406     132.67964     124.03049
     5  H(1)              -0.00210      -9.37148      -3.34398      -3.12599
     6  C(13)             -0.00409      -4.59734      -1.64044      -1.53351
     7  H(1)              -0.00149      -6.64681      -2.37175      -2.21714
     8  C(13)             -0.00755      -8.48392      -3.02727      -2.82993
     9  H(1)              -0.01588     -70.98671     -25.32982     -23.67862
 --------------------------------------------------------
       Center         ----  Spin Dipole Couplings  ----
                      3XX-RR        3YY-RR        3ZZ-RR
 --------------------------------------------------------
     1   Atom        0.395057      0.051632     -0.446689
     2   Atom        0.114841     -0.151181      0.036340
     3   Atom        0.007457     -0.015497      0.008040
     4   Atom       -0.992200      0.340797      0.651403
     5   Atom        0.115504     -0.062168     -0.053336
     6   Atom       -0.036662     -0.023933      0.060595
     7   Atom        0.001767     -0.002564      0.000797
     8   Atom        0.196903      0.089319     -0.286223
     9   Atom        0.023144     -0.020816     -0.002328
 --------------------------------------------------------
                        XY            XZ            YZ
 --------------------------------------------------------
     1   Atom       -0.128664     -0.018621     -0.547620
     2   Atom        0.000966     -0.088004     -0.081468
     3   Atom        0.007397     -0.027567     -0.006701
     4   Atom       -0.076117      0.154334     -0.126608
     5   Atom       -0.008024      0.038559     -0.002904
     6   Atom        0.021343      0.001881      0.027548
     7   Atom        0.005031      0.000453     -0.000732
     8   Atom       -0.011275      0.045180      0.006261
     9   Atom       -0.017141      0.000787     -0.002691
 --------------------------------------------------------


 ---------------------------------------------------------------------------------
              Anisotropic Spin Dipole Couplings in Principal Axis System
 ---------------------------------------------------------------------------------

       Atom             a.u.   MegaHertz   Gauss  10(-4) cm-1        Axes

              Baa    -0.8053  -108.059   -38.558   -36.045  0.0714  0.5447  0.8356
     1 C(13)  Bbb     0.3048    40.896    14.593    13.641  0.7105  0.5602 -0.4259
              Bcc     0.5005    67.164    23.966    22.403  0.7001 -0.6240  0.3470
 
              Baa    -0.1849   -24.813    -8.854    -8.277  0.1090  0.9180  0.3814
     2 C(13)  Bbb     0.0063     0.847     0.302     0.283  0.5874 -0.3690  0.7203
              Bcc     0.1786    23.966     8.552     7.994  0.8019  0.1455 -0.5794
 
              Baa    -0.0199   -10.635    -3.795    -3.547  0.7213 -0.2023  0.6624
     3 H(1)   Bbb    -0.0173    -9.214    -3.288    -3.073  0.0180  0.9615  0.2741
              Bcc     0.0372    19.849     7.083     6.621 -0.6924 -0.1858  0.6972
 
              Baa    -1.0096  -135.483   -48.344   -45.192  0.9949  0.0478 -0.0888
     4 C(13)  Bbb     0.2960    39.723    14.174    13.250 -0.0147  0.9399  0.3412
              Bcc     0.7136    95.759    34.169    31.942  0.0998 -0.3382  0.9358
 
              Baa    -0.0633   -33.796   -12.059   -11.273 -0.0856  0.8188  0.5676
     5 H(1)   Bbb    -0.0609   -32.512   -11.601   -10.845 -0.1998 -0.5723  0.7953
              Bcc     0.1243    66.308    23.660    22.118  0.9761 -0.0453  0.2126
 
              Baa    -0.0547    -7.343    -2.620    -2.450  0.7494 -0.6467  0.1423
     6 C(13)  Bbb    -0.0147    -1.968    -0.702    -0.656  0.6577  0.7019 -0.2734
              Bcc     0.0694     9.311     3.322     3.106  0.0769  0.2984  0.9513
 
              Baa    -0.0060    -3.193    -1.139    -1.065 -0.5452  0.8288  0.1258
     7 H(1)   Bbb     0.0009     0.483     0.172     0.161  0.0739 -0.1020  0.9920
              Bcc     0.0051     2.710     0.967     0.904  0.8350  0.5502 -0.0056
 
              Baa    -0.2906   -38.989   -13.912   -13.005 -0.0927 -0.0192  0.9955
     8 C(13)  Bbb     0.0885    11.869     4.235     3.959  0.0919  0.9954  0.0277
              Bcc     0.2021    27.120     9.677     9.046  0.9914 -0.0941  0.0905
 
              Baa    -0.0269   -14.365    -5.126    -4.792  0.3212  0.9424  0.0928
     9 H(1)   Bbb    -0.0022    -1.173    -0.418    -0.391 -0.0789 -0.0711  0.9943
              Bcc     0.0291    15.538     5.544     5.183  0.9437 -0.3267  0.0516
 

 ---------------------------------------------------------------------------------

 No NMR shielding tensors so no spin-rotation constants.
 Leave Link  601 at Mon Jun 20 04:55:01 2016, MaxMem=    33554432 cpu:         2.2
 (Enter /home/proyectos/fulerenos/M3C-v1.9/M3C-deps_CCC/g09-AM64L-G09RevC.01/l701.exe)
 Compute integral second derivatives.
 ... and contract with generalized density number  0.
 Leave Link  701 at Mon Jun 20 04:55:01 2016, MaxMem=    33554432 cpu:         2.1
 (Enter /home/proyectos/fulerenos/M3C-v1.9/M3C-deps_CCC/g09-AM64L-G09RevC.01/l702.exe)
 L702 exits ... SP integral derivatives will be done elsewhere.
 Leave Link  702 at Mon Jun 20 04:55:01 2016, MaxMem=    33554432 cpu:         0.1
 (Enter /home/proyectos/fulerenos/M3C-v1.9/M3C-deps_CCC/g09-AM64L-G09RevC.01/l703.exe)
 Compute integral second derivatives, UseDBF=F ICtDFT=           0.
 Integral derivatives from FoFJK, PRISM(SPDF).
 Calling FoFJK, ICntrl=    100127 FMM=F ISym2X=0 I1Cent= 0 IOpClX= 1 NMat=1 NMatS=1 NMatT=0.
 FoFJK:  IHMeth= 1 ICntrl=  100127 DoSepK=F KAlg= 0 I1Cent=   0 FoldK=F
 IRaf=         0 NMat=   1 IRICut=       1 DoRegI=T DoRafI=F ISym2E= 0.
 FoFCou: FMM=F IPFlag=           0 FMFlag=      100000 FMFlg1=         800
         NFxFlg=           0 DoJE=F BraDBF=F KetDBF=F FulRan=T
         wScrn=  0.000000 ICntrl=  100127 IOpCl=  1 I1Cent=           0 NGrid=           0
         NMat0=    1 NMatS0=      1 NMatT0=    0 NMatD0=    1 NMtDS0=    0 NMtDT0=    0
 Symmetry not used in FoFCou.
 Leave Link  703 at Mon Jun 20 04:58:06 2016, MaxMem=    33554432 cpu:       739.8
 (Enter /home/proyectos/fulerenos/M3C-v1.9/M3C-deps_CCC/g09-AM64L-G09RevC.01/l716.exe)
 Dipole        =-1.00814194D-01 5.44044952D-01 2.97498552D-01
 Polarizability= 8.67155486D+01 7.29291369D+00 4.51775676D+01
                 1.55375001D+00 1.02582661D+00 3.40308247D+01
 Full mass-weighted force constant matrix:
 Low frequencies ---   -5.7072    0.0004    0.0006    0.0008    6.8540   20.7887
 Low frequencies ---  233.3612  293.4933  346.0811
 Diagonal vibrational polarizability:
       24.8373124       5.5148888       4.2393949
 Harmonic frequencies (cm**-1), IR intensities (KM/Mole), Raman scattering
 activities (A**4/AMU), depolarization ratios for plane and unpolarized
 incident light, reduced masses (AMU), force constants (mDyne/A),
 and normal coordinates:
                      1                      2                      3
                      A                      A                      A
 Frequencies --    233.3607               293.4932               346.0811
 Red. masses --      3.9010                 2.7769                 2.1425
 Frc consts  --      0.1252                 0.1409                 0.1512
 IR Inten    --     33.7570                 6.2762                 2.7712
  Atom  AN      X      Y      Z        X      Y      Z        X      Y      Z
     1   6     0.25   0.21   0.09     0.02   0.12  -0.10    -0.03   0.01   0.09
     2   6    -0.02  -0.09   0.04    -0.02  -0.05  -0.17    -0.01  -0.24  -0.01
     3   1     0.05   0.35   0.15    -0.12   0.06  -0.13     0.02  -0.20  -0.00
     4   6    -0.03  -0.24  -0.13     0.13  -0.06   0.12    -0.06   0.13  -0.01
     5   1    -0.04   0.59   0.08     0.02   0.25   0.61    -0.04   0.84   0.08
     6   6    -0.03  -0.04  -0.12    -0.03  -0.03   0.21    -0.00   0.09  -0.01
     7   1    -0.03  -0.31  -0.24    -0.06  -0.16   0.51     0.00   0.15  -0.06
     8   6    -0.16   0.09   0.10    -0.08   0.01  -0.13     0.08  -0.04  -0.04
     9   1    -0.08   0.13   0.23    -0.10  -0.04  -0.25     0.29  -0.12  -0.16
                      4                      5                      6
                      A                      A                      A
 Frequencies --    530.7427               581.3564               644.7203
 Red. masses --      2.8260                 2.0189                 3.8980
 Frc consts  --      0.4690                 0.4020                 0.9546
 IR Inten    --      8.2877                75.7684                10.6299
  Atom  AN      X      Y      Z        X      Y      Z        X      Y      Z
     1   6     0.11   0.18  -0.14    -0.05  -0.13  -0.14     0.16  -0.15   0.05
     2   6    -0.02  -0.04   0.20    -0.02   0.12   0.08    -0.18  -0.13  -0.11
     3   1    -0.16  -0.11   0.18    -0.08   0.30   0.12    -0.16  -0.08  -0.09
     4   6    -0.17   0.01   0.02    -0.08  -0.12  -0.00    -0.19   0.05   0.05
     5   1    -0.01  -0.22  -0.62    -0.03   0.78   0.02    -0.23  -0.46   0.09
     6   6     0.03  -0.04   0.11     0.09   0.01   0.04     0.22   0.02   0.02
     7   1     0.02  -0.10   0.12     0.07   0.10   0.25     0.19  -0.24   0.33
     8   6     0.05  -0.05  -0.11     0.06   0.00  -0.02    -0.01   0.24  -0.06
     9   1     0.15  -0.22  -0.48    -0.01   0.14   0.29     0.02   0.38   0.28
                      7                      8                      9
                      A                      A                      A
 Frequencies --    750.5959               857.0724               913.5556
 Red. masses --      1.6865                 1.5043                 1.4080
 Frc consts  --      0.5598                 0.6510                 0.6924
 IR Inten    --      9.7358                87.1168                14.0259
  Atom  AN      X      Y      Z        X      Y      Z        X      Y      Z
     1   6     0.03   0.04  -0.01     0.02   0.06   0.02    -0.03   0.02   0.03
     2   6    -0.10   0.08  -0.02     0.04  -0.02   0.05    -0.03   0.05  -0.00
     3   1     0.10   0.04  -0.05     0.09   0.30   0.12    -0.06  -0.22  -0.07
     4   6    -0.09  -0.00  -0.08    -0.03   0.05  -0.05     0.01  -0.02   0.00
     5   1    -0.32  -0.11   0.74    -0.16  -0.29   0.33     0.03   0.08  -0.05
     6   6     0.04  -0.04   0.02    -0.05   0.03  -0.04    -0.01  -0.03  -0.14
     7   1     0.08   0.12  -0.25    -0.10   0.00   0.44    -0.12  -0.36   0.78
     8   6     0.12  -0.06   0.09     0.03  -0.13  -0.10     0.05   0.03   0.08
     9   1     0.08  -0.24  -0.35     0.15   0.15   0.62     0.21  -0.14  -0.28
                     10                     11                     12
                      A                      A                      A
 Frequencies --    968.9802              1013.5793              1045.0100
 Red. masses --      2.0803                 1.5158                 1.1587
 Frc consts  --      1.1508                 0.9175                 0.7455
 IR Inten    --     19.0176                 8.7878                12.0412
  Atom  AN      X      Y      Z        X      Y      Z        X      Y      Z
     1   6     0.04   0.06   0.05    -0.02  -0.06  -0.08     0.09  -0.01   0.02
     2   6    -0.15   0.02  -0.16     0.03  -0.12   0.05    -0.00   0.01   0.02
     3   1    -0.32   0.60  -0.01     0.11   0.73   0.25    -0.03  -0.36  -0.07
     4   6     0.02   0.00   0.10     0.04   0.05  -0.03    -0.00  -0.01  -0.01
     5   1     0.18   0.04  -0.53     0.00  -0.17   0.07    -0.01   0.03   0.03
     6   6     0.00  -0.03  -0.02     0.01   0.01  -0.03     0.00   0.00  -0.04
     7   1     0.02   0.31   0.03    -0.01   0.23   0.24     0.00   0.75   0.32
     8   6     0.10  -0.12   0.06    -0.05   0.06   0.08    -0.05  -0.03  -0.01
     9   1    -0.01  -0.08   0.14    -0.09  -0.14  -0.42    -0.41  -0.00  -0.07
                     13                     14                     15
                      A                      A                      A
 Frequencies --   1120.5090              1196.0401              1283.1777
 Red. masses --      1.5576                 2.2699                 2.8148
 Frc consts  --      1.1522                 1.9132                 2.7306
 IR Inten    --     62.9636                 3.6378                23.3578
  Atom  AN      X      Y      Z        X      Y      Z        X      Y      Z
     1   6     0.10  -0.07  -0.02    -0.00   0.03   0.01     0.13  -0.11  -0.04
     2   6     0.05   0.06  -0.06     0.16   0.01  -0.12    -0.02   0.03   0.01
     3   1     0.19  -0.01  -0.08     0.68   0.13  -0.10    -0.61  -0.06   0.01
     4   6    -0.05  -0.02   0.05    -0.19  -0.04   0.15     0.04   0.01  -0.05
     5   1    -0.03  -0.01  -0.06    -0.15   0.02  -0.11     0.01  -0.05   0.06
     6   6    -0.05   0.04   0.02     0.02   0.08  -0.04    -0.01   0.31   0.02
     7   1    -0.05   0.27   0.02     0.00  -0.23   0.05    -0.04  -0.54  -0.01
     8   6    -0.12  -0.01   0.03     0.01  -0.06   0.03    -0.06  -0.16   0.06
     9   1     0.89  -0.19  -0.02    -0.53  -0.06  -0.14    -0.30  -0.23  -0.13
                     16                     17                     18
                      A                      A                      A
 Frequencies --   1343.0149              1518.8373              3043.6936
 Red. masses --      1.7500                 5.8384                 1.0834
 Frc consts  --      1.8597                 7.9353                 5.9134
 IR Inten    --      6.6903                13.2123                18.3169
  Atom  AN      X      Y      Z        X      Y      Z        X      Y      Z
     1   6     0.05  -0.04  -0.03    -0.22   0.16   0.05    -0.00   0.00  -0.00
     2   6    -0.21   0.00   0.05    -0.08   0.02   0.03    -0.00   0.02  -0.08
     3   1     0.93  -0.08  -0.01     0.22  -0.03  -0.00     0.04  -0.24   0.97
     4   6     0.10   0.00  -0.00     0.06   0.01  -0.02     0.00   0.00  -0.00
     5   1     0.16   0.03  -0.13     0.08  -0.02  -0.02    -0.02   0.00  -0.00
     6   6    -0.04   0.06   0.02     0.46   0.05  -0.07    -0.00  -0.00  -0.00
     7   1    -0.06  -0.11   0.04     0.58  -0.01   0.07     0.01  -0.00   0.00
     8   6     0.02  -0.02  -0.03    -0.31  -0.19  -0.00     0.00  -0.00   0.00
     9   1    -0.07   0.02   0.03     0.24  -0.32   0.07     0.00   0.00  -0.00
                     19                     20                     21
                      A                      A                      A
 Frequencies --   3149.6507              3234.1458              3274.6967
 Red. masses --      1.0955                 1.0944                 1.1124
 Frc consts  --      6.4031                 6.7447                 7.0282
 IR Inten    --     39.9273               103.5087                60.1804
  Atom  AN      X      Y      Z        X      Y      Z        X      Y      Z
     1   6    -0.00   0.00  -0.00     0.00   0.00   0.00     0.00  -0.00  -0.00
     2   6    -0.00   0.00   0.00     0.00   0.00  -0.01     0.00  -0.00   0.00
     3   1    -0.00   0.00  -0.01    -0.00  -0.00   0.02     0.00   0.00  -0.01
     4   6     0.00  -0.00   0.00    -0.09   0.00  -0.02    -0.00   0.00  -0.00
     5   1    -0.02   0.00  -0.01     0.96  -0.06   0.26     0.01  -0.00   0.00
     6   6    -0.00   0.00  -0.00     0.00  -0.00  -0.00    -0.10   0.00  -0.01
     7   1     0.08  -0.00   0.01    -0.01   0.00  -0.00     0.99  -0.04   0.10
     8   6    -0.02  -0.08   0.03     0.00  -0.00   0.00     0.01   0.01  -0.00
     9   1     0.14   0.91  -0.38     0.00   0.02  -0.01    -0.01  -0.06   0.03

 -------------------
 - Thermochemistry -
 -------------------
 Temperature   298.150 Kelvin.  Pressure   1.00000 Atm.
 Atom     1 has atomic number  6 and mass  12.00000
 Atom     2 has atomic number  6 and mass  12.00000
 Atom     3 has atomic number  1 and mass   1.00783
 Atom     4 has atomic number  6 and mass  12.00000
 Atom     5 has atomic number  1 and mass   1.00783
 Atom     6 has atomic number  6 and mass  12.00000
 Atom     7 has atomic number  1 and mass   1.00783
 Atom     8 has atomic number  6 and mass  12.00000
 Atom     9 has atomic number  1 and mass   1.00783
 Molecular mass:    64.03130 amu.
 Principal axes and moments of inertia in atomic units:
                           1         2         3
     Eigenvalues --    95.61834 389.60905 447.53805
           X            0.99983  -0.01114   0.01471
           Y            0.01225   0.99691  -0.07756
           Z           -0.01380   0.07772   0.99688
 This molecule is an asymmetric top.
 Rotational symmetry number  1.
 Rotational temperatures (Kelvin)      0.90583     0.22231     0.19353
 Rotational constants (GHZ):          18.87443     4.63219     4.03260
 Zero-point vibrational energy     163543.4 (Joules/Mol)
                                   39.08780 (Kcal/Mol)
 Warning -- explicit consideration of   5 degrees of freedom as
           vibrations may cause significant error
 Vibrational temperatures:    335.75   422.27   497.93   763.62   836.44
          (Kelvin)            927.61  1079.94  1233.13  1314.40  1394.14
                             1458.31  1503.53  1612.16  1720.83  1846.20
                             1932.30  2185.27  4379.19  4531.64  4653.21
                             4711.55
 
 Zero-point correction=                           0.062290 (Hartree/Particle)
 Thermal correction to Energy=                    0.067319
 Thermal correction to Enthalpy=                  0.068263
 Thermal correction to Gibbs Free Energy=         0.034522
 Sum of electronic and zero-point Energies=           -192.339668
 Sum of electronic and thermal Energies=              -192.334639
 Sum of electronic and thermal Enthalpies=            -192.333695
 Sum of electronic and thermal Free Energies=         -192.367436
 
                     E (Thermal)             CV                S
                      KCal/Mol        Cal/Mol-Kelvin    Cal/Mol-Kelvin
 Total                   42.243             17.923             71.015
 Electronic               0.000              0.000              1.377
 Translational            0.889              2.981             38.389
 Rotational               0.889              2.981             24.326
 Vibrational             40.466             11.961              6.922
 Vibration     1          0.654              1.790              1.853
 Vibration     2          0.688              1.686              1.454
 Vibration     3          0.724              1.583              1.184
 Vibration     4          0.886              1.182              0.586
 Vibration     5          0.938              1.072              0.483
                       Q            Log10(Q)             Ln(Q)
 Total Bot       0.132145D-15        -15.878949        -36.562631
 Total V=0       0.592343D+13         12.772573         29.409936
 Vib (Bot)       0.709792D-28        -28.148869        -64.815166
 Vib (Bot)    1  0.842760D+00         -0.074296         -0.171073
 Vib (Bot)    2  0.650330D+00         -0.186866         -0.430275
 Vib (Bot)    3  0.534461D+00         -0.272084         -0.626496
 Vib (Bot)    4  0.301122D+00         -0.521257         -1.200239
 Vib (Bot)    5  0.261759D+00         -0.582099         -1.340332
 Vib (V=0)       0.318165D+01          0.502653          1.157401
 Vib (V=0)    1  0.147992D+01          0.170238          0.391988
 Vib (V=0)    2  0.132032D+01          0.120680          0.277876
 Vib (V=0)    3  0.123188D+01          0.090569          0.208542
 Vib (V=0)    4  0.108367D+01          0.034898          0.080356
 Vib (V=0)    5  0.106437D+01          0.027094          0.062387
 Electronic      0.200000D+01          0.301030          0.693147
 Translational   0.201393D+08          7.304044         16.818182
 Rotational      0.462218D+05          4.664847         10.741206
 
                                                              b3lyp opt
                                                             IR Spectrum
 
     3 3  3   3                                                           1     1  1  1  1  11                                       
     2 2  1   0                                                           5     3  2  1  1  00 9 9 8   7   6  5 5      3 2 2         
[...]
     X X  X                                                                              X         X          X            X         
     X X  X                                                                              X         X          X                      
     X X                                                                                 X         X          X                      
     X X                                                                                 X         X          X                      
     X X                                                                                 X         X          X                      
     X X                                                                                 X         X          X                      
       X                                                                                           X          X                      
       X                                                                                           X          X                      
       X                                                                                           X          X                      
       X                                                                                           X                                 
       X                                                                                           X                                 
       X                                                                                                                             
       X                                                                                                                             
       X                                                                                                                             
 
 ***** Axes restored to original set *****
 -------------------------------------------------------------------
 Center     Atomic                   Forces (Hartrees/Bohr)
 Number     Number              X              Y              Z
 -------------------------------------------------------------------
      1        6           0.000010657   -0.000013107   -0.000010256
      2        6           0.000023338   -0.000019160    0.000040527
      3        1          -0.000015871    0.000010738   -0.000029646
      4        6          -0.000048120    0.000000414   -0.000030309
      5        1           0.000040195   -0.000002678    0.000028584
      6        6          -0.000042276   -0.000005992   -0.000007656
      7        1           0.000011421    0.000000407   -0.000002944
      8        6           0.000027550    0.000013999    0.000014371
      9        1          -0.000006894    0.000015379   -0.000002672
 -------------------------------------------------------------------
 Cartesian Forces:  Max     0.000048120 RMS     0.000022227
 Z-matrix is all fixed cartesians, so copy forces.
 Force constants in Cartesian coordinates: 
                1             2             3             4             5 
      1  0.296147D+00
      2 -0.148197D+00  0.213840D+00
      3 -0.380678D-01  0.702904D-01  0.893997D-01
      4 -0.519875D-01  0.651827D-02  0.527192D-02  0.459738D+00
      5  0.260210D-01  0.163477D-02  0.100715D-01 -0.219186D-01  0.154968D+00
      6 -0.257494D-01 -0.136366D-01 -0.612925D-01 -0.532104D-01 -0.110106D+00
      7 -0.718868D-02  0.623456D-02 -0.127469D-01 -0.428892D-01  0.155488D-02
      8 -0.123870D-01 -0.253482D-02 -0.165682D-01  0.910212D-02 -0.466829D-01
      9 -0.861007D-02  0.246328D-04 -0.912094D-02 -0.129633D-01  0.651891D-01
     10 -0.402206D-01 -0.261695D-01 -0.133996D-01 -0.231869D+00 -0.250924D-01
     11 -0.655919D-02  0.298274D-02  0.527222D-02 -0.233650D-01 -0.569470D-01
     12  0.647743D-02  0.189294D-01  0.193479D-01  0.614873D-01  0.121069D-01
     13  0.125282D-02  0.454349D-02  0.325575D-02 -0.524766D-02  0.159504D-02
     14 -0.829498D-02 -0.427076D-02 -0.218282D-02 -0.370105D-02  0.114886D-01
     15 -0.198819D-02 -0.242902D-02 -0.139620D-02  0.210505D-01  0.121205D-02
     16 -0.257852D+00  0.170950D+00  0.571443D-01 -0.745714D-01 -0.283938D-03
     17  0.139235D+00 -0.129018D+00 -0.476208D-01 -0.272689D-01  0.191883D-01
     18  0.556805D-01 -0.444187D-01 -0.479061D-01 -0.258261D-01 -0.183193D-02
     19 -0.314092D-02  0.290517D-03 -0.185904D-02  0.623095D-03 -0.861674D-03
     20  0.169490D-01  0.372119D-02  0.435498D-02  0.236629D-02 -0.249947D-02
     21  0.759984D-02 -0.773191D-03  0.175865D-02 -0.170913D-02 -0.567451D-03
     22  0.684955D-01 -0.123124D-01  0.220586D-02 -0.462741D-01 -0.101003D-02
     23 -0.543577D-02 -0.892544D-01 -0.262291D-01  0.578236D-01 -0.763194D-01
     24  0.808955D-02 -0.364663D-01 -0.433206D-02  0.129788D-01  0.201747D-01
     25 -0.550566D-02 -0.185789D-02 -0.180441D-02 -0.752236D-02  0.199957D-01
     26 -0.133117D-02  0.289918D-02  0.261175D-02  0.443354D-03 -0.483113D-02
     27 -0.343183D-02  0.847951D-02  0.135415D-01 -0.707963D-02  0.375102D-02
                6             7             8             9            10 
      6  0.505231D+00
      7 -0.472807D-02  0.587800D-01
      8  0.601793D-01 -0.323088D-02  0.481595D-01
      9 -0.290554D+00  0.108520D-01 -0.697345D-01  0.309956D+00
     10  0.126267D+00 -0.919587D-03 -0.471374D-02  0.855400D-02  0.656695D+00
     11  0.244353D-01 -0.732843D-02  0.117633D-01  0.779663D-02  0.192972D-01
     12 -0.121318D+00  0.289290D-01  0.961623D-02 -0.130572D-01 -0.189368D-01
     13 -0.114482D-01  0.757187D-03  0.350788D-03 -0.173637D-03 -0.336982D+00
     14 -0.216039D-03  0.591456D-03 -0.367614D-02 -0.151200D-02  0.243455D-01
     15  0.957916D-02 -0.300978D-02 -0.171073D-02  0.104367D-02 -0.105589D+00
     16  0.764323D-02 -0.973810D-03 -0.129362D-02  0.209277D-02  0.154344D-02
     17  0.650542D-02  0.315655D-04 -0.177220D-02 -0.170337D-02  0.204044D-01
     18  0.112486D-01 -0.452425D-02  0.961999D-03  0.143068D-02  0.101943D-01
     19  0.164384D-02  0.129636D-03  0.207673D-03 -0.266730D-03 -0.161092D-03
     20 -0.220579D-02 -0.344670D-04 -0.213444D-04 -0.712093D-04 -0.115340D-02
     21  0.968269D-02  0.162576D-02 -0.546902D-03  0.475212D-03 -0.439509D-03
     22 -0.345338D-01 -0.683119D-02  0.102249D-01  0.417285D-03 -0.537909D-01
     23  0.312545D-01  0.205090D-02 -0.460595D-02  0.247343D-03 -0.514005D-02
     24 -0.616791D-01 -0.161831D-01  0.186375D-01  0.251721D-03 -0.100278D-01
     25 -0.588456D-02 -0.864394D-03  0.173975D-02  0.977502D-04  0.570529D-02
     26  0.378985D-02  0.130418D-03 -0.629556D-03 -0.236714D-03 -0.177798D-02
     27 -0.898300D-03 -0.214642D-03 -0.834799D-03 -0.424548D-03  0.337725D-02
               11            12            13            14            15 
     11  0.516285D-01
     12 -0.392731D-01  0.163307D+00
     13  0.163077D-01 -0.768064D-01  0.342645D+00
     14 -0.143598D-01  0.109889D-01 -0.192327D-01  0.108048D-01
     15  0.101080D-01 -0.512174D-01  0.854713D-01 -0.857920D-02  0.420963D-01
     16  0.174408D-02 -0.894980D-02 -0.256062D-02  0.209735D-04  0.146808D-02
     17  0.600334D-02 -0.103800D-01 -0.141470D-02 -0.279987D-02 -0.879697D-03
     18 -0.174779D-02 -0.718472D-02 -0.136536D-02  0.834720D-03  0.368133D-03
     19 -0.244020D-04 -0.490238D-03 -0.768959D-04  0.567605D-04  0.476388D-04
     20  0.211426D-03  0.908935D-03  0.169276D-03  0.575126D-03  0.151159D-03
     21  0.129056D-02 -0.132130D-03 -0.169211D-03 -0.620086D-03 -0.159588D-03
     22 -0.249366D-02  0.115872D-01  0.501154D-03  0.688667D-02  0.277076D-02
     23 -0.172002D-02 -0.355728D-02 -0.264783D-02  0.182151D-02  0.201782D-02
     24 -0.968772D-02  0.108899D-01  0.979433D-03  0.180270D-02 -0.196213D-03
     25  0.242169D-02 -0.329776D-02 -0.289520D-03 -0.672675D-03 -0.221130D-03
     26  0.437472D-03  0.660095D-03  0.328873D-03  0.416550D-03  0.109649D-03
     27  0.180589D-02 -0.635549D-03  0.256372D-03 -0.516151D-03 -0.117907D-03
               16            17            18            19            20 
     16  0.101097D+01
     17  0.845672D-03  0.369117D+00
     18 -0.286139D-01  0.186711D-01  0.121542D+00
     19 -0.364925D+00  0.113701D-01 -0.297312D-01  0.369425D+00
     20  0.162124D-01 -0.475711D-01 -0.752285D-03 -0.142791D-01  0.384246D-01
     21 -0.384153D-01  0.299577D-02 -0.430968D-01  0.328446D-01  0.166254D-02
     22 -0.315010D+00 -0.119088D+00  0.173491D-01 -0.214217D-02 -0.210076D-01
     23 -0.185646D+00 -0.205998D+00  0.217331D-01  0.324286D-02  0.685092D-02
     24  0.153044D-01  0.448798D-01 -0.421599D-01 -0.245752D-02 -0.445850D-02
     25  0.337790D-02 -0.241158D-01  0.683691D-02  0.267591D-03  0.777583D-03
     26 -0.255014D-02 -0.714987D-02  0.654979D-02 -0.278641D-05  0.308644D-03
     27 -0.767387D-02 -0.124682D-01  0.575844D-02  0.268641D-03  0.410167D-03
               21            22            23            24            25 
     21  0.284645D-01
     22 -0.885536D-03  0.399320D+00
     23 -0.266400D-02  0.172714D+00  0.655860D+00
     24  0.492820D-02 -0.274186D-01 -0.135760D+00  0.176446D+00
     25 -0.451527D-03 -0.442688D-01 -0.369619D-01  0.187348D-01  0.491000D-01
     26 -0.777239D-03 -0.339141D-01 -0.286634D+00  0.100878D+00  0.386735D-01
     27 -0.192064D-02  0.285077D-01  0.112958D+00 -0.841488D-01 -0.140100D-01
               26            27 
     26  0.295183D+00
     27 -0.113585D+00  0.688458D-01
 Leave Link  716 at Mon Jun 20 04:58:06 2016, MaxMem=    33554432 cpu:         0.1
 (Enter /home/proyectos/fulerenos/M3C-v1.9/M3C-deps_CCC/g09-AM64L-G09RevC.01/l103.exe)

 GradGradGradGradGradGradGradGradGradGradGradGradGradGradGradGradGradGrad
 Berny optimization.
 Search for a local minimum.
 Step number   1 out of a maximum of    2
 All quantities printed in internal units (Hartrees-Bohrs-Radians)
 Second derivative matrix not updated -- analytic derivatives used.
 ITU=  0
     Eigenvalues ---    0.00776   0.00869   0.01244   0.03019   0.03636
     Eigenvalues ---    0.04511   0.06521   0.08502   0.08978   0.12749
     Eigenvalues ---    0.15485   0.17867   0.18955   0.25727   0.36866
     Eigenvalues ---    0.47988   0.55186   0.72928   0.94078   1.00378
     Eigenvalues ---    1.45042
 Angle between quadratic step and forces=  74.02 degrees.
 Linear search not attempted -- first point.
 B after Tr=     0.000010   -0.000057   -0.000046
         Rot=    1.000000    0.000002   -0.000009    0.000011 Ang=   0.00 deg.
 Variable       Old X    -DE/DX   Delta X   Delta X   Delta X     New X
                                 (Linear)    (Quad)   (Total)
    X1       -1.09098   0.00001   0.00000   0.00015   0.00011  -1.09087
    Y1       -1.72117  -0.00001   0.00000   0.00012   0.00008  -1.72108
    Z1       -0.53336  -0.00001   0.00000   0.00004   0.00002  -0.53335
    X2        1.27757   0.00002   0.00000   0.00002   0.00004   1.27761
    Y2       -0.26753  -0.00002   0.00000  -0.00015  -0.00023  -0.26777
    Z2        0.63530   0.00004   0.00000  -0.00008  -0.00015   0.63515
    X3        1.38711  -0.00002   0.00000  -0.00004  -0.00000   1.38711
    Y3       -0.76647   0.00001   0.00000   0.00043   0.00036  -0.76612
    Z3        2.63643  -0.00003   0.00000  -0.00004  -0.00011   2.63632
    X4        3.61596  -0.00005   0.00000   0.00002   0.00002   3.61599
    Y4        0.10439   0.00000   0.00000  -0.00042  -0.00056   0.10383
    Z4       -0.53044  -0.00003   0.00000  -0.00031  -0.00042  -0.53086
    X5        5.57645   0.00004   0.00000  -0.00003  -0.00002   5.57643
    Y5       -0.02425  -0.00000   0.00000   0.00037   0.00019  -0.02406
    Z5        0.02184   0.00003   0.00000   0.00053   0.00039   0.02223
    X6       -3.01026  -0.00004   0.00000  -0.00002  -0.00001  -3.01028
    Y6       -0.07264  -0.00001   0.00000  -0.00001   0.00000  -0.07263
    Z6        0.08260  -0.00001   0.00000  -0.00005  -0.00004   0.08256
    X7       -5.03350   0.00001   0.00000  -0.00000   0.00001  -5.03349
    Y7        0.01146   0.00000   0.00000  -0.00014  -0.00008   0.01137
    Z7       -0.11739  -0.00000   0.00000  -0.00002   0.00003  -0.11736
    X8       -0.99200   0.00003   0.00000  -0.00006  -0.00001  -0.99201
    Y8        1.52034   0.00001   0.00000   0.00009   0.00006   1.52040
    Z8        0.04572   0.00001   0.00000   0.00010   0.00006   0.04579
    X9       -0.73183  -0.00001   0.00000  -0.00021  -0.00014  -0.73197
    Y9        3.39891   0.00002   0.00000   0.00024   0.00019   3.39910
    Z9       -0.73980  -0.00000   0.00000   0.00028   0.00023  -0.73957
         Item               Value     Threshold  Converged?
 Maximum Force            0.000048     0.000450     YES
 RMS     Force            0.000022     0.000300     YES
 Maximum Displacement     0.000562     0.001800     YES
 RMS     Displacement     0.000196     0.001200     YES
 Predicted change in Energy=-1.574117D-08
 Optimization completed.
    -- Stationary point found.
 GradGradGradGradGradGradGradGradGradGradGradGradGradGradGradGradGradGrad

 Leave Link  103 at Mon Jun 20 04:58:06 2016, MaxMem=    33554432 cpu:         0.1
 (Enter /home/proyectos/fulerenos/M3C-v1.9/M3C-deps_CCC/g09-AM64L-G09RevC.01/l9999.exe)
 1\1\GINC-BELVIS17\Freq\UB3LYP\6-311++G(3df,2p)\C5H4(1+,2)\ROOT\20-Jun-
 2016\0\\#p b3lyp/6-311++G(3df,2p) freq symmetry=Loose\\b3lyp opt\\1,2\
 C,-0.577321,-0.910803,-0.282244\C,0.676063,-0.141572,0.336188\H,0.7340
 26,-0.405599,1.395139\C,1.913486,0.055242,-0.280697\H,2.95093,-0.01283
 1,0.011556\C,-1.592962,-0.038437,0.043708\H,-2.663611,0.006063,-0.0621
 18\C,-0.524945,0.804527,0.024196\H,-0.387268,1.798624,-0.391483\\Versi
 on=EM64L-G09RevE.01\State=2-A\HF=-192.4019583\S2=1.419743\S2-1=0.\S2A=
 0.771743\RMSD=4.367e-09\RMSF=2.223e-05\ZeroPoint=0.0622904\Thermal=0.0
 67319\Dipole=-0.1008143,0.5440449,0.2974986\DipoleDeriv=-0.1197508,-0.
 2660073,-0.0305936,-0.7798734,0.0822601,0.0652869,-0.5384143,-0.153220
 9,0.0166898,0.4283753,0.3540079,0.0023722,0.2551086,0.1866295,0.003480
 6,0.051766,0.0624981,0.0738212,0.0583121,0.0232214,0.0445099,-0.047913
 5,0.1517084,0.0027948,0.0059,0.0015627,0.1485183,-0.4147112,-0.2057517
 ,-0.0976498,-0.0476714,0.0016642,-0.0104018,0.2399454,0.114922,0.09421
 93,0.3292926,0.0149857,0.0308521,0.0141543,0.162553,0.0051635,-0.03886
 18,0.0060391,0.1494235,0.411078,0.1400357,0.0378829,0.371794,0.0095378
 ,0.0009165,0.353475,0.1127155,0.1048583,0.2916034,0.0096788,0.0066322,
 -0.0412605,0.168369,-0.0069459,0.0063935,-0.0000416,0.17049,-0.1770426
 ,-0.127968,0.0032257,0.3548863,0.0251724,-0.0537527,0.0258918,-0.13134
 85,0.0705583,0.1928432,0.0577976,0.0027685,-0.0792244,0.2121057,-0.006
 5418,-0.1060957,-0.0131263,0.1714213\Polar=86.7155461,7.292921,45.1775
 702,1.5537498,1.0258269,34.0308247\PG=C01 [X(C5H4)]\NImag=0\\0.2961466
 2,-0.14819739,0.21384002,-0.03806782,0.07029040,0.08939968,-0.05198753
 ,0.00651827,0.00527192,0.45973847,0.02602103,0.00163477,0.01007150,-0.
 02191863,0.15496817,-0.02574936,-0.01363664,-0.06129254,-0.05321044,-0
 .11010592,0.50523125,-0.00718868,0.00623456,-0.01274694,-0.04288917,0.
 00155488,-0.00472807,0.05878000,-0.01238697,-0.00253482,-0.01656816,0.
 00910212,-0.04668286,0.06017929,-0.00323088,0.04815953,-0.00861007,0.0
 0002463,-0.00912094,-0.01296333,0.06518913,-0.29055419,0.01085197,-0.0
 6973445,0.30995557,-0.04022056,-0.02616950,-0.01339963,-0.23186943,-0.
 02509240,0.12626738,-0.00091959,-0.00471374,0.00855400,0.65669455,-0.0
 0655919,0.00298274,0.00527222,-0.02336498,-0.05694696,0.02443532,-0.00
 732843,0.01176335,0.00779663,0.01929717,0.05162846,0.00647743,0.018929
 35,0.01934795,0.06148733,0.01210688,-0.12131761,0.02892901,0.00961623,
 -0.01305717,-0.01893679,-0.03927309,0.16330669,0.00125282,0.00454349,0
 .00325575,-0.00524766,0.00159504,-0.01144823,0.00075719,0.00035079,-0.
 00017364,-0.33698175,0.01630772,-0.07680637,0.34264527,-0.00829498,-0.
 00427076,-0.00218282,-0.00370105,0.01148863,-0.00021604,0.00059146,-0.
 00367614,-0.00151200,0.02434549,-0.01435981,0.01098888,-0.01923266,0.0
 1080476,-0.00198819,-0.00242902,-0.00139620,0.02105055,0.00121205,0.00
 957916,-0.00300978,-0.00171073,0.00104367,-0.10558919,0.01010798,-0.05
 121736,0.08547126,-0.00857920,0.04209631,-0.25785160,0.17095030,0.0571
 4432,-0.07457138,-0.00028394,0.00764323,-0.00097381,-0.00129362,0.0020
 9277,0.00154344,0.00174408,-0.00894980,-0.00256062,0.00002097,0.001468
 08,1.01097042,0.13923548,-0.12901791,-0.04762076,-0.02726894,0.0191882
 8,0.00650542,0.00003157,-0.00177220,-0.00170337,0.02040443,0.00600334,
 -0.01038000,-0.00141470,-0.00279987,-0.00087970,0.00084567,0.36911722,
 0.05568045,-0.04441871,-0.04790605,-0.02582611,-0.00183193,0.01124861,
 -0.00452425,0.00096200,0.00143068,0.01019429,-0.00174779,-0.00718472,-
 0.00136536,0.00083472,0.00036813,-0.02861387,0.01867107,0.12154164,-0.
 00314092,0.00029052,-0.00185904,0.00062309,-0.00086167,0.00164384,0.00
 012964,0.00020767,-0.00026673,-0.00016109,-0.00002440,-0.00049024,-0.0
 0007690,0.00005676,0.00004764,-0.36492473,0.01137011,-0.02973120,0.369
 42549,0.01694896,0.00372119,0.00435498,0.00236629,-0.00249947,-0.00220
 579,-0.00003447,-0.00002134,-0.00007121,-0.00115340,0.00021143,0.00090
 894,0.00016928,0.00057513,0.00015116,0.01621238,-0.04757109,-0.0007522
 9,-0.01427906,0.03842459,0.00759984,-0.00077319,0.00175865,-0.00170913
 ,-0.00056745,0.00968269,0.00162576,-0.00054690,0.00047521,-0.00043951,
 0.00129056,-0.00013213,-0.00016921,-0.00062009,-0.00015959,-0.03841529
 ,0.00299577,-0.04309685,0.03284461,0.00166254,0.02846446,0.06849551,-0
 .01231237,0.00220586,-0.04627405,-0.00101003,-0.03453379,-0.00683119,0
 .01022489,0.00041729,-0.05379088,-0.00249366,0.01158719,0.00050115,0.0
 0688667,0.00277076,-0.31500962,-0.11908782,0.01734915,-0.00214217,-0.0
 2100756,-0.00088554,0.39932009,-0.00543577,-0.08925441,-0.02622911,0.0
 5782356,-0.07631943,0.03125451,0.00205090,-0.00460595,0.00024734,-0.00
 514005,-0.00172002,-0.00355728,-0.00264783,0.00182151,0.00201782,-0.18
 564570,-0.20599791,0.02173314,0.00324286,0.00685092,-0.00266400,0.1727
 1397,0.65585961,0.00808955,-0.03646634,-0.00433206,0.01297884,0.020174
 72,-0.06167906,-0.01618306,0.01863752,0.00025172,-0.01002779,-0.009687
 72,0.01088991,0.00097943,0.00180270,-0.00019621,0.01530443,0.04487980,
 -0.04215988,-0.00245752,-0.00445850,0.00492820,-0.02741865,-0.13576042
 ,0.17644615,-0.00550566,-0.00185789,-0.00180441,-0.00752236,0.01999572
 ,-0.00588456,-0.00086439,0.00173975,0.00009775,0.00570529,0.00242169,-
 0.00329776,-0.00028952,-0.00067268,-0.00022113,0.00337790,-0.02411579,
 0.00683691,0.00026759,0.00077758,-0.00045153,-0.04426884,-0.03696193,0
 .01873476,0.04910000,-0.00133117,0.00289918,0.00261175,0.00044335,-0.0
 0483113,0.00378985,0.00013042,-0.00062956,-0.00023671,-0.00177798,0.00
 043747,0.00066009,0.00032887,0.00041655,0.00010965,-0.00255014,-0.0071
 4987,0.00654979,-0.00000279,0.00030864,-0.00077724,-0.03391410,-0.2866
 3431,0.10087823,0.03867353,0.29518301,-0.00343183,0.00847951,0.0135415
 1,-0.00707963,0.00375102,-0.00089830,-0.00021464,-0.00083480,-0.000424
 55,0.00337725,0.00180589,-0.00063555,0.00025637,-0.00051615,-0.0001179
 1,-0.00767387,-0.01246823,0.00575844,0.00026864,0.00041017,-0.00192064
 ,0.02850774,0.11295801,-0.08414876,-0.01401003,-0.11358542,0.06884576\
 \-0.00001066,0.00001311,0.00001026,-0.00002334,0.00001916,-0.00004053,
 0.00001587,-0.00001074,0.00002965,0.00004812,-0.00000041,0.00003031,-0
 .00004020,0.00000268,-0.00002858,0.00004228,0.00000599,0.00000766,-0.0
 0001142,-0.00000041,0.00000294,-0.00002755,-0.00001400,-0.00001437,0.0
 0000689,-0.00001538,0.00000267\\\@


 TERRY FORSTER, PORTLY ATLANTA BRAVES RELIEVER,
 ANNOUNCING THAT HE WAS GOING TO A FAT FARM:
 "A WAIST IS A TERRIBLE THING TO MIND."
 Job cpu time:       0 days  1 hours 12 minutes 39.5 seconds.
 File lengths (MBytes):  RWF=     80 Int=      0 D2E=      0 Chk=      5 Scr=      1
 Normal termination of Gaussian 09 at Mon Jun 20 04:58:06 2016.
