 Entering Gaussian System, Link 0=/home/proyectos/fulerenos/M3C-v1.9/M3C-deps_CCC/g09-AM64L-G09RevC.01/g09
 Initial command:
 /home/proyectos/fulerenos/M3C-v1.9/M3C-deps_CCC/g09-AM64L-G09RevC.01/l1.exe "/scratch/naguirre/gaussian/Gau-11829.inp" -scrdir="/scratch/naguirre/gaussian/"
 Entering Link 1 = /home/proyectos/fulerenos/M3C-v1.9/M3C-deps_CCC/g09-AM64L-G09RevC.01/l1.exe PID=     11837.
  
 Copyright (c) 1988,1990,1992,1993,1995,1998,2003,2009,2015,
            Gaussian, Inc.  All Rights Reserved.
  
 This is part of the Gaussian(R) 09 program.  It is based on
 the Gaussian(R) 03 system (copyright 2003, Gaussian, Inc.),
 the Gaussian(R) 98 system (copyright 1998, Gaussian, Inc.),
 the Gaussian(R) 94 system (copyright 1995, Gaussian, Inc.),
 the Gaussian 92(TM) system (copyright 1992, Gaussian, Inc.),
 the Gaussian 90(TM) system (copyright 1990, Gaussian, Inc.),
 the Gaussian 88(TM) system (copyright 1988, Gaussian, Inc.),
 the Gaussian 86(TM) system (copyright 1986, Carnegie Mellon
 University), and the Gaussian 82(TM) system (copyright 1983,
 Carnegie Mellon University). Gaussian is a federally registered
 trademark of Gaussian, Inc.
  
 This software contains proprietary and confidential information,
 including trade secrets, belonging to Gaussian, Inc.
  
 This software is provided under written license and may be
 used, copied, transmitted, or stored only in accord with that
 written license.
  
 The following legend is applicable only to US Government
 contracts under FAR:
  
                    RESTRICTED RIGHTS LEGEND
  
 Use, reproduction and disclosure by the US Government is
 subject to restrictions as set forth in subparagraphs (a)
 and (c) of the Commercial Computer Software - Restricted
 Rights clause in FAR 52.227-19.
  
 Gaussian, Inc.
 340 Quinnipiac St., Bldg. 40, Wallingford CT 06492
  
  
 ---------------------------------------------------------------
 Warning -- This program may not be used in any manner that
 competes with the business of Gaussian, Inc. or will provide
 assistance to any competitor of Gaussian, Inc.  The licensee
 of this program is prohibited from giving any competitor of
 Gaussian, Inc. access to this program.  By using this program,
 the user acknowledges that Gaussian, Inc. is engaged in the
 business of creating and licensing software in the field of
 computational chemistry and represents and warrants to the
 licensee that it is not a competitor of Gaussian, Inc. and that
 it will not use this program in any manner prohibited above.
 ---------------------------------------------------------------
  

 Cite this work as:
 Gaussian 09, Revision E.01,
 M. J. Frisch, G. W. Trucks, H. B. Schlegel, G. E. Scuseria, 
 M. A. Robb, J. R. Cheeseman, G. Scalmani, V. Barone, B. Mennucci, 
 G. A. Petersson, H. Nakatsuji, M. Caricato, X. Li, H. P. Hratchian, 
 A. F. Izmaylov, J. Bloino, G. Zheng, J. L. Sonnenberg, M. Hada, 
 M. Ehara, K. Toyota, R. Fukuda, J. Hasegawa, M. Ishida, T. Nakajima, 
 Y. Honda, O. Kitao, H. Nakai, T. Vreven, J. A. Montgomery, Jr., 
 J. E. Peralta, F. Ogliaro, M. Bearpark, J. J. Heyd, E. Brothers, 
 K. N. Kudin, V. N. Staroverov, T. Keith, R. Kobayashi, J. Normand, 
 K. Raghavachari, A. Rendell, J. C. Burant, S. S. Iyengar, J. Tomasi, 
 M. Cossi, N. Rega, J. M. Millam, M. Klene, J. E. Knox, J. B. Cross, 
 V. Bakken, C. Adamo, J. Jaramillo, R. Gomperts, R. E. Stratmann, 
 O. Yazyev, A. J. Austin, R. Cammi, C. Pomelli, J. W. Ochterski, 
 R. L. Martin, K. Morokuma, V. G. Zakrzewski, G. A. Voth, 
 P. Salvador, J. J. Dannenberg, S. Dapprich, A. D. Daniels, 
 O. Farkas, J. B. Foresman, J. V. Ortiz, J. Cioslowski, 
 and D. J. Fox, Gaussian, Inc., Wallingford CT, 2013.
 
 ******************************************
 Gaussian 09:  EM64L-G09RevE.01 30-Nov-2015
                20-Jun-2016 
 ******************************************
 %NProcShared=4
 Will use up to    4 processors via shared memory.
 ---------------------------------------------
 #p b3lyp/6-311++G(3df,2p) freq symmetry=Loose
 ---------------------------------------------
 1/10=4,30=1,38=1/1,3;
 2/12=2,17=4,18=3,40=1/2;
 3/5=4,6=6,7=1216,11=2,16=1,25=1,30=1,71=2,74=-5,140=1/1,2,3;
 4//1;
 5/5=2,38=5,98=1/2;
 8/6=4,10=90,11=11/1;
 11/6=1,8=1,9=11,15=111,16=1/1,2,10;
 10/6=1/2;
 6/7=2,8=2,9=2,10=2,18=1,28=1/1;
 7/8=1,10=1,25=1/1,2,3,16;
 1/10=4,30=1/3;
 99//99;
 Leave Link    1 at Mon Jun 20 10:31:46 2016, MaxMem=           0 cpu:         0.3
 (Enter /home/proyectos/fulerenos/M3C-v1.9/M3C-deps_CCC/g09-AM64L-G09RevC.01/l101.exe)
 ---------
 b3lyp opt
 ---------
 Symbolic Z-matrix:
 Charge =  3 Multiplicity = 2
 C                    -0.85191  -0.14697   0.31853 
 C                     1.93178  -0.43264  -0.05134 
 H                    -1.16153  -0.49568   1.38814 
 H                     2.5445   -0.40934  -0.9876 
 H                     2.38095  -0.87134   0.87096 
 C                    -1.98645  -0.76874  -0.36906 
 C                     0.60014   0.1075   -0.06177 
 C                    -0.24283   1.16241  -0.02746 
 H                    -0.46821   2.24701  -0.12488 
 
 NAtoms=      9 NQM=        9 NQMF=       0 NMMI=      0 NMMIF=      0
                NMic=       0 NMicF=      0.
                    Isotopes and Nuclear Properties:
 (Nuclear quadrupole moments (NQMom) in fm**2, nuclear magnetic moments (NMagM)
  in nuclear magnetons)

  Atom         1           2           3           4           5           6           7           8           9
 IAtWgt=          12          12           1           1           1          12          12          12           1
 AtmWgt=  12.0000000  12.0000000   1.0078250   1.0078250   1.0078250  12.0000000  12.0000000  12.0000000   1.0078250
 NucSpn=           0           0           1           1           1           0           0           0           1
 AtZEff=   0.0000000   0.0000000   0.0000000   0.0000000   0.0000000   0.0000000   0.0000000   0.0000000   0.0000000
 NQMom=    0.0000000   0.0000000   0.0000000   0.0000000   0.0000000   0.0000000   0.0000000   0.0000000   0.0000000
 NMagM=    0.0000000   0.0000000   2.7928460   2.7928460   2.7928460   0.0000000   0.0000000   0.0000000   2.7928460
 AtZNuc=   6.0000000   6.0000000   1.0000000   1.0000000   1.0000000   6.0000000   6.0000000   6.0000000   1.0000000
 Leave Link  101 at Mon Jun 20 10:31:46 2016, MaxMem=    33554432 cpu:         0.3
 (Enter /home/proyectos/fulerenos/M3C-v1.9/M3C-deps_CCC/g09-AM64L-G09RevC.01/l103.exe)

 GradGradGradGradGradGradGradGradGradGradGradGradGradGradGradGradGradGrad
 Berny optimization.
 Initialization pass.
 Trust Radius=3.00D-01 FncErr=1.00D-07 GrdErr=1.00D-07
 Number of steps in this run=      2 maximum allowed number of steps=      2.
 GradGradGradGradGradGradGradGradGradGradGradGradGradGradGradGradGradGrad

 Leave Link  103 at Mon Jun 20 10:31:46 2016, MaxMem=    33554432 cpu:         0.1
 (Enter /home/proyectos/fulerenos/M3C-v1.9/M3C-deps_CCC/g09-AM64L-G09RevC.01/l202.exe)
                          Input orientation:                          
 ---------------------------------------------------------------------
 Center     Atomic      Atomic             Coordinates (Angstroms)
 Number     Number       Type             X           Y           Z
 ---------------------------------------------------------------------
      1          6           0       -0.851911   -0.146971    0.318528
      2          6           0        1.931775   -0.432640   -0.051343
      3          1           0       -1.161534   -0.495684    1.388136
      4          1           0        2.544497   -0.409338   -0.987603
      5          1           0        2.380947   -0.871338    0.870964
      6          6           0       -1.986450   -0.768740   -0.369064
      7          6           0        0.600135    0.107498   -0.061765
      8          6           0       -0.242833    1.162412   -0.027459
      9          1           0       -0.468211    2.247012   -0.124883
 ---------------------------------------------------------------------
                    Distance matrix (angstroms):
                    1          2          3          4          5
     1  C    0.000000
     2  C    2.822644   0.000000
     3  H    1.166846   3.412424   0.000000
     4  H    3.648342   1.119176   4.402983   0.000000
     5  H    3.358759   1.115734   3.599688   1.922099   0.000000
     6  C    1.465114   3.945427   1.960306   4.587073   4.541184
     7  C    1.522437   1.437054   2.359983   2.214687   2.235933
     8  C    1.484980   2.696976   2.365841   3.340881   3.439117
     9  H    2.464750   3.598038   3.208162   4.108149   4.339760
                    6          7          8          9
     6  C    0.000000
     7  C    2.748208   0.000000
     8  C    2.624165   1.350783   0.000000
     9  H    3.385179   2.392251   1.112045   0.000000
 Stoichiometry    C5H4(3+,2)
 Framework group  C1[X(C5H4)]
 Deg. of freedom    21
 Full point group                 C1      NOp   1
 Largest Abelian subgroup         C1      NOp   1
 Largest concise Abelian subgroup C1      NOp   1
                         Standard orientation:                         
 ---------------------------------------------------------------------
 Center     Atomic      Atomic             Coordinates (Angstroms)
 Number     Number       Type             X           Y           Z
 ---------------------------------------------------------------------
      1          6           0       -0.851911   -0.146971    0.318528
      2          6           0        1.931775   -0.432640   -0.051343
      3          1           0       -1.161534   -0.495684    1.388136
      4          1           0        2.544497   -0.409338   -0.987603
      5          1           0        2.380947   -0.871338    0.870964
      6          6           0       -1.986450   -0.768740   -0.369064
      7          6           0        0.600135    0.107498   -0.061765
      8          6           0       -0.242833    1.162412   -0.027459
      9          1           0       -0.468211    2.247012   -0.124883
 ---------------------------------------------------------------------
 Rotational constants (GHZ):     13.0715248      4.0035878      3.3285087
 Leave Link  202 at Mon Jun 20 10:31:47 2016, MaxMem=    33554432 cpu:         0.0
 (Enter /home/proyectos/fulerenos/M3C-v1.9/M3C-deps_CCC/g09-AM64L-G09RevC.01/l301.exe)
 Standard basis: 6-311++G(3df,2p) (5D, 7F)
 Ernie: Thresh=  0.10000D-02 Tol=  0.10000D-05 Strict=F.
 There are   265 symmetry adapted cartesian basis functions of A   symmetry.
 There are   235 symmetry adapted basis functions of A   symmetry.
   235 basis functions,   338 primitive gaussians,   265 cartesian basis functions
    16 alpha electrons       15 beta electrons
       nuclear repulsion energy       128.3615569203 Hartrees.
 IExCor=  402 DFT=T Ex+Corr=B3LYP ExCW=0 ScaHFX=  0.200000
 ScaDFX=  0.800000  0.720000  1.000000  0.810000 ScalE2=  1.000000  1.000000
 IRadAn=      0 IRanWt=     -1 IRanGd=            0 ICorTp=0 IEmpDi=  4
 NAtoms=    9 NActive=    9 NUniq=    9 SFac= 1.00D+00 NAtFMM=   60 NAOKFM=F Big=F
 Integral buffers will be    131072 words long.
 Raffenetti 2 integral format.
 Two-electron integral symmetry is turned on.
 Leave Link  301 at Mon Jun 20 10:31:47 2016, MaxMem=    33554432 cpu:         0.2
 (Enter /home/proyectos/fulerenos/M3C-v1.9/M3C-deps_CCC/g09-AM64L-G09RevC.01/l302.exe)
 NPDir=0 NMtPBC=     1 NCelOv=     1 NCel=       1 NClECP=     1 NCelD=      1
         NCelK=      1 NCelE2=     1 NClLst=     1 CellRange=     0.0.
 One-electron integrals computed using PRISM.
 NBasis=   235 RedAO= T EigKep=  8.09D-06  NBF=   235
 NBsUse=   235 1.00D-06 EigRej= -1.00D+00 NBFU=   235
 Precomputing XC quadrature grid using
 IXCGrd= 4 IRadAn=           0 IRanWt=          -1 IRanGd=           0 AccXCQ= 0.00D+00.
 Generated NRdTot=       0 NPtTot=           0 NUsed=           0 NTot=          32
 NSgBfM=   265   265   265   265   265 MxSgAt=     9 MxSgA2=     9.
 Leave Link  302 at Mon Jun 20 10:31:47 2016, MaxMem=    33554432 cpu:         1.3
 (Enter /home/proyectos/fulerenos/M3C-v1.9/M3C-deps_CCC/g09-AM64L-G09RevC.01/l303.exe)
 DipDrv:  MaxL=1.
 Leave Link  303 at Mon Jun 20 10:31:47 2016, MaxMem=    33554432 cpu:         0.1
 (Enter /home/proyectos/fulerenos/M3C-v1.9/M3C-deps_CCC/g09-AM64L-G09RevC.01/l401.exe)
 ExpMin= 3.60D-02 ExpMax= 4.56D+03 ExpMxC= 6.82D+02 IAcc=3 IRadAn=         5 AccDes= 0.00D+00
 Harris functional with IExCor=  402 and IRadAn=       5 diagonalized for initial guess.
 HarFok:  IExCor=  402 AccDes= 0.00D+00 IRadAn=         5 IDoV= 1 UseB2=F ITyADJ=14
 ICtDFT=  3500011 ScaDFX=  1.000000  1.000000  1.000000  1.000000
 FoFCou: FMM=F IPFlag=           0 FMFlag=      100000 FMFlg1=           0
         NFxFlg=           0 DoJE=T BraDBF=F KetDBF=T FulRan=T
         wScrn=  0.000000 ICntrl=     500 IOpCl=  0 I1Cent=   200000004 NGrid=           0
         NMat0=    1 NMatS0=      1 NMatT0=    0 NMatD0=    1 NMtDS0=    0 NMtDT0=    0
 Petite list used in FoFCou.
 Harris En= -191.861166642405    
 JPrj=0 DoOrth=F DoCkMO=F.
 Initial guess <Sx>= 0.0000 <Sy>= 0.0000 <Sz>= 0.5000 <S**2>= 0.7500 S= 0.5000
 Leave Link  401 at Mon Jun 20 10:31:50 2016, MaxMem=    33554432 cpu:        11.4
 (Enter /home/proyectos/fulerenos/M3C-v1.9/M3C-deps_CCC/g09-AM64L-G09RevC.01/l502.exe)
 UHF open shell SCF:
 Using DIIS extrapolation, IDIIS=  1040.
 Integral symmetry usage will be decided dynamically.
 IVT=      232727 IEndB=      232727 NGot=    33554432 MDV=    33408836
 LenX=    33408836 LenY=    33338170
 Requested convergence on RMS density matrix=1.00D-08 within 128 cycles.
 Requested convergence on MAX density matrix=1.00D-06.
 Requested convergence on             energy=1.00D-06.
 No special actions if energy rises.
 Fock matrices will be formed incrementally for  20 cycles.

 Cycle   1  Pass 1  IDiag  1:
 FoFJK:  IHMeth= 1 ICntrl=       0 DoSepK=F KAlg= 0 I1Cent=   0 FoldK=F
 IRaf= 980000000 NMat=   1 IRICut=       1 DoRegI=T DoRafI=F ISym2E= 0.
 FoFCou: FMM=F IPFlag=           0 FMFlag=      100000 FMFlg1=           0
         NFxFlg=           0 DoJE=F BraDBF=F KetDBF=F FulRan=T
         wScrn=  0.000000 ICntrl=       0 IOpCl=  1 I1Cent=           0 NGrid=           0
         NMat0=    1 NMatS0=      1 NMatT0=    0 NMatD0=    1 NMtDS0=    0 NMtDT0=    0
 Symmetry not used in FoFCou.
 E= -190.892190796106    
 DIIS: error= 2.19D-02 at cycle   1 NSaved=   1.
 NSaved= 1 IEnMin= 1 EnMin= -190.892190796106     IErMin= 1 ErrMin= 2.19D-02
 ErrMax= 2.19D-02  0.00D+00 EMaxC= 1.00D-01 BMatC= 3.61D-01 BMatP= 3.61D-01
 IDIUse=3 WtCom= 7.81D-01 WtEn= 2.19D-01
 Coeff-Com:  0.100D+01
 Coeff-En:   0.100D+01
 Coeff:      0.100D+01
 Gap=     0.220 Goal=   None    Shift=    0.000
 Gap=     0.107 Goal=   None    Shift=    0.000
 GapD=    0.107 DampG=1.000 DampE=0.500 DampFc=0.5000 IDamp=-1.
 Damping current iteration by 5.00D-01
 RMSDP=8.06D-03 MaxDP=4.05D-01              OVMax= 7.30D-01

 Cycle   2  Pass 1  IDiag  1:
 RMSU=  4.01D-03    CP:  1.03D+00
 E= -190.622517953496     Delta-E=        0.269672842610 Rises=F Damp=T
 DIIS: error= 2.66D-02 at cycle   2 NSaved=   2.
 NSaved= 2 IEnMin= 1 EnMin= -190.892190796106     IErMin= 1 ErrMin= 2.19D-02
 ErrMax= 2.66D-02  0.00D+00 EMaxC= 1.00D-01 BMatC= 6.88D-01 BMatP= 3.61D-01
 IDIUse=2 WtCom= 0.00D+00 WtEn= 1.00D+00
 Coeff-En:   0.779D+00 0.221D+00
 Coeff:      0.779D+00 0.221D+00
 Gap=     0.044 Goal=   None    Shift=    0.000
 Gap=     0.157 Goal=   None    Shift=    0.000
 RMSDP=3.20D-03 MaxDP=2.03D-01 DE= 2.70D-01 OVMax= 6.27D-01

 Cycle   3  Pass 1  IDiag  1:
 RMSU=  2.86D-03    CP:  1.13D+00  1.15D+00
 E= -190.929468254314     Delta-E=       -0.306950300818 Rises=F Damp=F
 DIIS: error= 1.85D-02 at cycle   3 NSaved=   3.
 NSaved= 3 IEnMin= 3 EnMin= -190.929468254314     IErMin= 3 ErrMin= 1.85D-02
 ErrMax= 1.85D-02  0.00D+00 EMaxC= 1.00D-01 BMatC= 2.95D-01 BMatP= 3.61D-01
 IDIUse=3 WtCom= 8.15D-01 WtEn= 1.85D-01
 Coeff-Com:  0.444D+00-0.259D+00 0.815D+00
 Coeff-En:   0.429D+00 0.000D+00 0.571D+00
 Coeff:      0.441D+00-0.211D+00 0.770D+00
 Gap=     0.142 Goal=   None    Shift=    0.000
 Gap=     0.126 Goal=   None    Shift=    0.000
 RMSDP=1.97D-03 MaxDP=1.66D-01 DE=-3.07D-01 OVMax= 1.59D-01

 Cycle   4  Pass 1  IDiag  1:
 RMSU=  1.21D-03    CP:  1.16D+00  7.79D-01  1.09D+00
 E= -191.024492163477     Delta-E=       -0.095023909163 Rises=F Damp=F
 DIIS: error= 3.25D-03 at cycle   4 NSaved=   4.
 NSaved= 4 IEnMin= 4 EnMin= -191.024492163477     IErMin= 4 ErrMin= 3.25D-03
 ErrMax= 3.25D-03  0.00D+00 EMaxC= 1.00D-01 BMatC= 8.98D-03 BMatP= 2.95D-01
 IDIUse=3 WtCom= 9.67D-01 WtEn= 3.25D-02
 Coeff-Com:  0.114D+00-0.137D+00 0.278D+00 0.745D+00
 Coeff-En:   0.000D+00 0.000D+00 0.000D+00 0.100D+01
 Coeff:      0.110D+00-0.132D+00 0.269D+00 0.754D+00
 Gap=     0.140 Goal=   None    Shift=    0.000
 Gap=     0.118 Goal=   None    Shift=    0.000
 RMSDP=5.52D-04 MaxDP=3.34D-02 DE=-9.50D-02 OVMax= 3.67D-02

 Cycle   5  Pass 1  IDiag  1:
 RMSU=  5.17D-04    CP:  1.16D+00  7.94D-01  1.16D+00  9.74D-01
 E= -191.025420614850     Delta-E=       -0.000928451373 Rises=F Damp=F
 DIIS: error= 3.98D-03 at cycle   5 NSaved=   5.
 NSaved= 5 IEnMin= 5 EnMin= -191.025420614850     IErMin= 4 ErrMin= 3.25D-03
 ErrMax= 3.98D-03  0.00D+00 EMaxC= 1.00D-01 BMatC= 7.14D-03 BMatP= 8.98D-03
 IDIUse=3 WtCom= 9.60D-01 WtEn= 3.98D-02
 Coeff-Com:  0.244D-01-0.418D-01 0.152D-01 0.443D+00 0.560D+00
 Coeff-En:   0.000D+00 0.000D+00 0.000D+00 0.370D+00 0.630D+00
 Coeff:      0.235D-01-0.401D-01 0.146D-01 0.440D+00 0.562D+00
 Gap=     0.142 Goal=   None    Shift=    0.000
 Gap=     0.119 Goal=   None    Shift=    0.000
 RMSDP=2.85D-04 MaxDP=1.05D-02 DE=-9.28D-04 OVMax= 2.74D-02

 Cycle   6  Pass 1  IDiag  1:
 RMSU=  2.37D-04    CP:  1.16D+00  7.72D-01  1.15D+00  1.07D+00  9.10D-01
 E= -191.027524902948     Delta-E=       -0.002104288098 Rises=F Damp=F
 DIIS: error= 7.71D-04 at cycle   6 NSaved=   6.
 NSaved= 6 IEnMin= 6 EnMin= -191.027524902948     IErMin= 6 ErrMin= 7.71D-04
 ErrMax= 7.71D-04  0.00D+00 EMaxC= 1.00D-01 BMatC= 5.65D-04 BMatP= 7.14D-03
 IDIUse=3 WtCom= 9.92D-01 WtEn= 7.71D-03
 Coeff-Com:  0.381D-03-0.102D-02-0.353D-01 0.128D+00 0.280D+00 0.628D+00
 Coeff-En:   0.000D+00 0.000D+00 0.000D+00 0.000D+00 0.000D+00 0.100D+01
 Coeff:      0.378D-03-0.101D-02-0.350D-01 0.127D+00 0.277D+00 0.631D+00
 Gap=     0.142 Goal=   None    Shift=    0.000
 Gap=     0.119 Goal=   None    Shift=    0.000
 RMSDP=1.78D-04 MaxDP=1.38D-02 DE=-2.10D-03 OVMax= 1.62D-02

 Cycle   7  Pass 1  IDiag  1:
 RMSU=  1.36D-04    CP:  1.16D+00  7.58D-01  1.15D+00  1.11D+00  1.07D+00
                    CP:  1.09D+00
 E= -191.027869996943     Delta-E=       -0.000345093994 Rises=F Damp=F
 DIIS: error= 4.08D-04 at cycle   7 NSaved=   7.
 NSaved= 7 IEnMin= 7 EnMin= -191.027869996943     IErMin= 7 ErrMin= 4.08D-04
 ErrMax= 4.08D-04  0.00D+00 EMaxC= 1.00D-01 BMatC= 1.45D-04 BMatP= 5.65D-04
 IDIUse=3 WtCom= 9.96D-01 WtEn= 4.08D-03
 Coeff-Com: -0.503D-02 0.119D-01-0.197D-01-0.164D-01 0.146D-01 0.228D+00
 Coeff-Com:  0.786D+00
 Coeff-En:   0.000D+00 0.000D+00 0.000D+00 0.000D+00 0.000D+00 0.000D+00
 Coeff-En:   0.100D+01
 Coeff:     -0.501D-02 0.119D-01-0.197D-01-0.163D-01 0.145D-01 0.227D+00
 Coeff:      0.787D+00
 Gap=     0.143 Goal=   None    Shift=    0.000
 Gap=     0.120 Goal=   None    Shift=    0.000
 RMSDP=1.45D-04 MaxDP=8.97D-03 DE=-3.45D-04 OVMax= 1.39D-02

 Cycle   8  Pass 1  IDiag  1:
 RMSU=  4.71D-05    CP:  1.16D+00  7.60D-01  1.15D+00  1.14D+00  1.20D+00
                    CP:  1.47D+00  1.53D+00
 E= -191.028073885659     Delta-E=       -0.000203888717 Rises=F Damp=F
 DIIS: error= 3.37D-04 at cycle   8 NSaved=   8.
 NSaved= 8 IEnMin= 8 EnMin= -191.028073885659     IErMin= 8 ErrMin= 3.37D-04
 ErrMax= 3.37D-04  0.00D+00 EMaxC= 1.00D-01 BMatC= 7.91D-05 BMatP= 1.45D-04
 IDIUse=3 WtCom= 9.97D-01 WtEn= 3.37D-03
 Coeff-Com: -0.523D-02 0.550D-02 0.111D-01-0.420D-01-0.966D-01-0.287D+00
 Coeff-Com: -0.638D-01 0.148D+01
 Coeff-En:   0.000D+00 0.000D+00 0.000D+00 0.000D+00 0.000D+00 0.000D+00
 Coeff-En:   0.000D+00 0.100D+01
 Coeff:     -0.521D-02 0.548D-02 0.111D-01-0.418D-01-0.963D-01-0.286D+00
 Coeff:     -0.636D-01 0.148D+01
 Gap=     0.145 Goal=   None    Shift=    0.000
 Gap=     0.123 Goal=   None    Shift=    0.000
 RMSDP=2.46D-04 MaxDP=1.61D-02 DE=-2.04D-04 OVMax= 2.36D-02

 Cycle   9  Pass 1  IDiag  1:
 RMSU=  4.43D-05    CP:  1.16D+00  7.64D-01  1.14D+00  1.16D+00  1.46D+00
                    CP:  2.03D+00  2.57D+00  2.07D+00
 E= -191.028303155799     Delta-E=       -0.000229270140 Rises=F Damp=F
 DIIS: error= 2.16D-04 at cycle   9 NSaved=   9.
 NSaved= 9 IEnMin= 9 EnMin= -191.028303155799     IErMin= 9 ErrMin= 2.16D-04
 ErrMax= 2.16D-04  0.00D+00 EMaxC= 1.00D-01 BMatC= 3.93D-05 BMatP= 7.91D-05
 IDIUse=3 WtCom= 9.98D-01 WtEn= 2.16D-03
 Coeff-Com: -0.799D-03-0.289D-02 0.162D-01-0.282D-01-0.741D-01-0.306D+00
 Coeff-Com: -0.555D+00 0.101D+01 0.940D+00
 Coeff-En:   0.000D+00 0.000D+00 0.000D+00 0.000D+00 0.000D+00 0.000D+00
 Coeff-En:   0.000D+00 0.000D+00 0.100D+01
 Coeff:     -0.797D-03-0.289D-02 0.162D-01-0.281D-01-0.739D-01-0.305D+00
 Coeff:     -0.554D+00 0.101D+01 0.940D+00
 Gap=     0.147 Goal=   None    Shift=    0.000
 Gap=     0.126 Goal=   None    Shift=    0.000
 RMSDP=2.19D-04 MaxDP=1.33D-02 DE=-2.29D-04 OVMax= 2.13D-02

 Cycle  10  Pass 1  IDiag  1:
 RMSU=  7.94D-05    CP:  1.16D+00  7.68D-01  1.14D+00  1.18D+00  1.66D+00
                    CP:  2.52D+00  3.00D+00  3.00D+00  1.48D+00
 E= -191.028396747829     Delta-E=       -0.000093592030 Rises=F Damp=F
 DIIS: error= 1.75D-04 at cycle  10 NSaved=  10.
 NSaved=10 IEnMin=10 EnMin= -191.028396747829     IErMin=10 ErrMin= 1.75D-04
 ErrMax= 1.75D-04  0.00D+00 EMaxC= 1.00D-01 BMatC= 2.64D-05 BMatP= 3.93D-05
 IDIUse=3 WtCom= 9.98D-01 WtEn= 1.75D-03
 Coeff-Com:  0.121D-02-0.276D-02 0.281D-02-0.170D-01-0.274D-01-0.727D-01
 Coeff-Com: -0.195D+00 0.171D+00 0.457D+00 0.683D+00
 Coeff-En:   0.000D+00 0.000D+00 0.000D+00 0.000D+00 0.000D+00 0.000D+00
 Coeff-En:   0.000D+00 0.000D+00 0.000D+00 0.100D+01
 Coeff:      0.120D-02-0.275D-02 0.280D-02-0.170D-01-0.273D-01-0.726D-01
 Coeff:     -0.194D+00 0.171D+00 0.456D+00 0.684D+00
 Gap=     0.147 Goal=   None    Shift=    0.000
 Gap=     0.126 Goal=   None    Shift=    0.000
 RMSDP=5.06D-05 MaxDP=3.62D-03 DE=-9.36D-05 OVMax= 4.66D-03

 Cycle  11  Pass 1  IDiag  1:
 RMSU=  1.65D-05    CP:  1.16D+00  7.66D-01  1.14D+00  1.19D+00  1.71D+00
                    CP:  2.62D+00  3.00D+00  3.00D+00  1.71D+00  1.37D+00
 E= -191.028410281234     Delta-E=       -0.000013533405 Rises=F Damp=F
 DIIS: error= 5.67D-05 at cycle  11 NSaved=  11.
 NSaved=11 IEnMin=11 EnMin= -191.028410281234     IErMin=11 ErrMin= 5.67D-05
 ErrMax= 5.67D-05  0.00D+00 EMaxC= 1.00D-01 BMatC= 4.92D-06 BMatP= 2.64D-05
 IDIUse=1 WtCom= 1.00D+00 WtEn= 0.00D+00
 Coeff-Com:  0.118D-02-0.632D-03-0.168D-02-0.737D-02-0.903D-02 0.792D-02
 Coeff-Com:  0.249D-01-0.691D-01 0.244D-01 0.203D+00 0.826D+00
 Coeff:      0.118D-02-0.632D-03-0.168D-02-0.737D-02-0.903D-02 0.792D-02
 Coeff:      0.249D-01-0.691D-01 0.244D-01 0.203D+00 0.826D+00
 Gap=     0.147 Goal=   None    Shift=    0.000
 Gap=     0.126 Goal=   None    Shift=    0.000
 RMSDP=2.61D-05 MaxDP=2.13D-03 DE=-1.35D-05 OVMax= 2.09D-03

 Cycle  12  Pass 1  IDiag  1:
 RMSU=  9.36D-06    CP:  1.16D+00  7.64D-01  1.13D+00  1.19D+00  1.74D+00
                    CP:  2.65D+00  3.00D+00  3.00D+00  1.84D+00  1.56D+00
                    CP:  1.39D+00
 E= -191.028413213524     Delta-E=       -0.000002932290 Rises=F Damp=F
 DIIS: error= 2.56D-05 at cycle  12 NSaved=  12.
 NSaved=12 IEnMin=12 EnMin= -191.028413213524     IErMin=12 ErrMin= 2.56D-05
 ErrMax= 2.56D-05  0.00D+00 EMaxC= 1.00D-01 BMatC= 8.68D-07 BMatP= 4.92D-06
 IDIUse=1 WtCom= 1.00D+00 WtEn= 0.00D+00
 Coeff-Com:  0.104D-03 0.119D-03-0.826D-04 0.366D-02 0.436D-02 0.105D-01
 Coeff-Com:  0.233D-01 0.544D-02-0.972D-01-0.256D+00 0.732D-01 0.123D+01
 Coeff:      0.104D-03 0.119D-03-0.826D-04 0.366D-02 0.436D-02 0.105D-01
 Coeff:      0.233D-01 0.544D-02-0.972D-01-0.256D+00 0.732D-01 0.123D+01
 Gap=     0.147 Goal=   None    Shift=    0.000
 Gap=     0.126 Goal=   None    Shift=    0.000
 RMSDP=1.52D-05 MaxDP=1.22D-03 DE=-2.93D-06 OVMax= 1.16D-03

 Cycle  13  Pass 1  IDiag  1:
 RMSU=  4.54D-06    CP:  1.16D+00  7.63D-01  1.13D+00  1.19D+00  1.75D+00
                    CP:  2.65D+00  3.00D+00  3.00D+00  1.93D+00  1.67D+00
                    CP:  1.75D+00  1.54D+00
 E= -191.028413936812     Delta-E=       -0.000000723289 Rises=F Damp=F
 DIIS: error= 4.94D-06 at cycle  13 NSaved=  13.
 NSaved=13 IEnMin=13 EnMin= -191.028413936812     IErMin=13 ErrMin= 4.94D-06
 ErrMax= 4.94D-06  0.00D+00 EMaxC= 1.00D-01 BMatC= 3.15D-08 BMatP= 8.68D-07
 IDIUse=1 WtCom= 1.00D+00 WtEn= 0.00D+00
 Coeff-Com: -0.844D-04-0.120D-04 0.148D-03 0.652D-03 0.137D-02 0.209D-02
 Coeff-Com: -0.233D-02 0.448D-02-0.186D-01-0.346D-01-0.586D-01 0.870D-01
 Coeff-Com:  0.102D+01
 Coeff:     -0.844D-04-0.120D-04 0.148D-03 0.652D-03 0.137D-02 0.209D-02
 Coeff:     -0.233D-02 0.448D-02-0.186D-01-0.346D-01-0.586D-01 0.870D-01
 Coeff:      0.102D+01
 Gap=     0.147 Goal=   None    Shift=    0.000
 Gap=     0.126 Goal=   None    Shift=    0.000
 RMSDP=5.38D-06 MaxDP=3.80D-04 DE=-7.23D-07 OVMax= 4.72D-04

 Cycle  14  Pass 1  IDiag  1:
 RMSU=  9.59D-07    CP:  1.16D+00  7.63D-01  1.13D+00  1.19D+00  1.75D+00
                    CP:  2.66D+00  3.00D+00  3.00D+00  1.95D+00  1.71D+00
                    CP:  1.85D+00  1.67D+00  1.11D+00
 E= -191.028413995973     Delta-E=       -0.000000059161 Rises=F Damp=F
 DIIS: error= 1.59D-06 at cycle  14 NSaved=  14.
 NSaved=14 IEnMin=14 EnMin= -191.028413995973     IErMin=14 ErrMin= 1.59D-06
 ErrMax= 1.59D-06  0.00D+00 EMaxC= 1.00D-01 BMatC= 2.97D-09 BMatP= 3.15D-08
 IDIUse=1 WtCom= 1.00D+00 WtEn= 0.00D+00
 Coeff-Com: -0.100D-04-0.130D-04 0.215D-04-0.435D-03-0.299D-03-0.589D-03
 Coeff-Com: -0.107D-02-0.155D-02 0.698D-02 0.223D-01-0.147D-01-0.121D+00
 Coeff-Com:  0.641D-01 0.105D+01
 Coeff:     -0.100D-04-0.130D-04 0.215D-04-0.435D-03-0.299D-03-0.589D-03
 Coeff:     -0.107D-02-0.155D-02 0.698D-02 0.223D-01-0.147D-01-0.121D+00
 Coeff:      0.641D-01 0.105D+01
 Gap=     0.147 Goal=   None    Shift=    0.000
 Gap=     0.126 Goal=   None    Shift=    0.000
 RMSDP=1.18D-06 MaxDP=7.65D-05 DE=-5.92D-08 OVMax= 1.04D-04

 Cycle  15  Pass 1  IDiag  1:
 RMSU=  3.39D-07    CP:  1.16D+00  7.63D-01  1.13D+00  1.19D+00  1.75D+00
                    CP:  2.66D+00  3.00D+00  3.00D+00  1.96D+00  1.72D+00
                    CP:  1.87D+00  1.70D+00  1.19D+00  1.24D+00
 E= -191.028414000041     Delta-E=       -0.000000004067 Rises=F Damp=F
 DIIS: error= 7.76D-07 at cycle  15 NSaved=  15.
 NSaved=15 IEnMin=15 EnMin= -191.028414000041     IErMin=15 ErrMin= 7.76D-07
 ErrMax= 7.76D-07  0.00D+00 EMaxC= 1.00D-01 BMatC= 5.71D-10 BMatP= 2.97D-09
 IDIUse=1 WtCom= 1.00D+00 WtEn= 0.00D+00
 Coeff-Com:  0.389D-05 0.576D-06-0.232D-05-0.107D-03-0.127D-03-0.402D-03
 Coeff-Com:  0.239D-03 0.638D-03 0.155D-02 0.171D-02-0.350D-03-0.700D-02
 Coeff-Com: -0.509D-01 0.607D-01 0.994D+00
 Coeff:      0.389D-05 0.576D-06-0.232D-05-0.107D-03-0.127D-03-0.402D-03
 Coeff:      0.239D-03 0.638D-03 0.155D-02 0.171D-02-0.350D-03-0.700D-02
 Coeff:     -0.509D-01 0.607D-01 0.994D+00
 Gap=     0.147 Goal=   None    Shift=    0.000
 Gap=     0.126 Goal=   None    Shift=    0.000
 RMSDP=3.37D-07 MaxDP=1.72D-05 DE=-4.07D-09 OVMax= 3.60D-05

 Cycle  16  Pass 1  IDiag  1:
 RMSU=  1.58D-07    CP:  1.16D+00  7.63D-01  1.13D+00  1.19D+00  1.75D+00
                    CP:  2.66D+00  3.00D+00  3.00D+00  1.96D+00  1.72D+00
                    CP:  1.87D+00  1.71D+00  1.21D+00  1.32D+00  1.42D+00
 E= -191.028414000846     Delta-E=       -0.000000000805 Rises=F Damp=F
 DIIS: error= 4.87D-07 at cycle  16 NSaved=  16.
 NSaved=16 IEnMin=16 EnMin= -191.028414000846     IErMin=16 ErrMin= 4.87D-07
 ErrMax= 4.87D-07  0.00D+00 EMaxC= 1.00D-01 BMatC= 1.62D-10 BMatP= 5.71D-10
 IDIUse=1 WtCom= 1.00D+00 WtEn= 0.00D+00
 Coeff-Com:  0.762D-06 0.437D-06-0.214D-05 0.443D-04 0.426D-04 0.763D-04
 Coeff-Com:  0.168D-03 0.348D-03-0.110D-02-0.383D-02 0.225D-02 0.202D-01
 Coeff-Com: -0.684D-02-0.202D+00-0.141D+00 0.133D+01
 Coeff:      0.762D-06 0.437D-06-0.214D-05 0.443D-04 0.426D-04 0.763D-04
 Coeff:      0.168D-03 0.348D-03-0.110D-02-0.383D-02 0.225D-02 0.202D-01
 Coeff:     -0.684D-02-0.202D+00-0.141D+00 0.133D+01
 Gap=     0.147 Goal=   None    Shift=    0.000
 Gap=     0.126 Goal=   None    Shift=    0.000
 RMSDP=2.54D-07 MaxDP=1.29D-05 DE=-8.05D-10 OVMax= 2.81D-05

 Cycle  17  Pass 1  IDiag  1:
 RMSU=  1.10D-07    CP:  1.16D+00  7.63D-01  1.13D+00  1.19D+00  1.75D+00
                    CP:  2.66D+00  3.00D+00  3.00D+00  1.96D+00  1.72D+00
                    CP:  1.87D+00  1.71D+00  1.22D+00  1.37D+00  1.88D+00
                    CP:  1.83D+00
 E= -191.028414001341     Delta-E=       -0.000000000495 Rises=F Damp=F
 DIIS: error= 3.74D-07 at cycle  17 NSaved=  17.
 NSaved=17 IEnMin=17 EnMin= -191.028414001341     IErMin=17 ErrMin= 3.74D-07
 ErrMax= 3.74D-07  0.00D+00 EMaxC= 1.00D-01 BMatC= 6.95D-11 BMatP= 1.62D-10
 IDIUse=1 WtCom= 1.00D+00 WtEn= 0.00D+00
 Coeff-Com: -0.121D-05 0.386D-06-0.949D-07 0.109D-04 0.201D-04 0.153D-03
 Coeff-Com: -0.820D-04-0.601D-03-0.691D-04 0.841D-03-0.186D-03-0.521D-02
 Coeff-Com:  0.167D-01 0.621D-01-0.216D+00-0.527D+00 0.167D+01
 Coeff:     -0.121D-05 0.386D-06-0.949D-07 0.109D-04 0.201D-04 0.153D-03
 Coeff:     -0.820D-04-0.601D-03-0.691D-04 0.841D-03-0.186D-03-0.521D-02
 Coeff:      0.167D-01 0.621D-01-0.216D+00-0.527D+00 0.167D+01
 Gap=     0.147 Goal=   None    Shift=    0.000
 Gap=     0.126 Goal=   None    Shift=    0.000
 RMSDP=2.67D-07 MaxDP=1.43D-05 DE=-4.95D-10 OVMax= 3.01D-05

 Cycle  18  Pass 1  IDiag  1:
 RMSU=  5.30D-08    CP:  1.16D+00  7.63D-01  1.13D+00  1.19D+00  1.75D+00
                    CP:  2.66D+00  3.00D+00  3.00D+00  1.96D+00  1.72D+00
                    CP:  1.87D+00  1.71D+00  1.21D+00  1.41D+00  2.26D+00
                    CP:  2.65D+00  2.34D+00
 E= -191.028414001680     Delta-E=       -0.000000000339 Rises=F Damp=F
 DIIS: error= 2.51D-07 at cycle  18 NSaved=  18.
 NSaved=18 IEnMin=18 EnMin= -191.028414001680     IErMin=18 ErrMin= 2.51D-07
 ErrMax= 2.51D-07  0.00D+00 EMaxC= 1.00D-01 BMatC= 3.21D-11 BMatP= 6.95D-11
 IDIUse=1 WtCom= 1.00D+00 WtEn= 0.00D+00
 Coeff-Com:  0.269D-06-0.478D-06 0.148D-05-0.478D-05-0.194D-04-0.921D-04
 Coeff-Com: -0.281D-03 0.242D-03 0.816D-03 0.196D-02-0.129D-02-0.817D-02
 Coeff-Com: -0.515D-02 0.660D-01 0.168D+00-0.406D+00-0.114D+01 0.232D+01
 Coeff:      0.269D-06-0.478D-06 0.148D-05-0.478D-05-0.194D-04-0.921D-04
 Coeff:     -0.281D-03 0.242D-03 0.816D-03 0.196D-02-0.129D-02-0.817D-02
 Coeff:     -0.515D-02 0.660D-01 0.168D+00-0.406D+00-0.114D+01 0.232D+01
 Gap=     0.147 Goal=   None    Shift=    0.000
 Gap=     0.126 Goal=   None    Shift=    0.000
 RMSDP=3.44D-07 MaxDP=1.82D-05 DE=-3.39D-10 OVMax= 4.07D-05

 Cycle  19  Pass 1  IDiag  1:
 RMSU=  1.86D-07    CP:  1.16D+00  7.63D-01  1.13D+00  1.19D+00  1.75D+00
                    CP:  2.66D+00  3.00D+00  3.00D+00  1.96D+00  1.72D+00
                    CP:  1.87D+00  1.71D+00  1.21D+00  1.45D+00  2.72D+00
                    CP:  3.00D+00  3.00D+00  2.63D+00
 E= -191.028414001912     Delta-E=       -0.000000000232 Rises=F Damp=F
 DIIS: error= 6.70D-08 at cycle  19 NSaved=  19.
 NSaved=19 IEnMin=19 EnMin= -191.028414001912     IErMin=19 ErrMin= 6.70D-08
 ErrMax= 6.70D-08  0.00D+00 EMaxC= 1.00D-01 BMatC= 3.66D-12 BMatP= 3.21D-11
 IDIUse=1 WtCom= 1.00D+00 WtEn= 0.00D+00
 Coeff-Com:  0.795D-07 0.178D-07-0.557D-06-0.725D-05-0.130D-04-0.354D-04
 Coeff-Com:  0.112D-04 0.159D-03 0.529D-04 0.407D-04-0.367D-04-0.564D-04
 Coeff-Com: -0.283D-02-0.304D-02 0.368D-01 0.697D-01-0.330D+00 0.482D-01
 Coeff-Com:  0.118D+01
 Coeff:      0.795D-07 0.178D-07-0.557D-06-0.725D-05-0.130D-04-0.354D-04
 Coeff:      0.112D-04 0.159D-03 0.529D-04 0.407D-04-0.367D-04-0.564D-04
 Coeff:     -0.283D-02-0.304D-02 0.368D-01 0.697D-01-0.330D+00 0.482D-01
 Coeff:      0.118D+01
 Gap=     0.147 Goal=   None    Shift=    0.000
 Gap=     0.126 Goal=   None    Shift=    0.000
 RMSDP=9.41D-08 MaxDP=4.73D-06 DE=-2.32D-10 OVMax= 1.14D-05

 Cycle  20  Pass 1  IDiag  1:
 RMSU=  1.19D-08    CP:  1.16D+00  7.63D-01  1.13D+00  1.19D+00  1.75D+00
                    CP:  2.66D+00  3.00D+00  3.00D+00  1.96D+00  1.72D+00
                    CP:  1.87D+00  1.72D+00  1.21D+00  1.47D+00  2.85D+00
                    CP:  3.00D+00  3.00D+00  3.00D+00  1.41D+00
 E= -191.028414001930     Delta-E=       -0.000000000019 Rises=F Damp=F
 DIIS: error= 1.67D-08 at cycle  20 NSaved=  20.
 NSaved=20 IEnMin=20 EnMin= -191.028414001930     IErMin=20 ErrMin= 1.67D-08
 ErrMax= 1.67D-08  0.00D+00 EMaxC= 1.00D-01 BMatC= 3.61D-13 BMatP= 3.66D-12
 IDIUse=1 WtCom= 1.00D+00 WtEn= 0.00D+00
 Coeff-Com: -0.472D-07 0.626D-07 0.359D-07-0.321D-06-0.261D-05 0.263D-05
 Coeff-Com:  0.161D-04 0.592D-05-0.761D-04-0.217D-03 0.196D-03 0.953D-03
 Coeff-Com: -0.288D-03-0.807D-02-0.157D-01 0.535D-01 0.118D+00-0.297D+00
 Coeff-Com:  0.124D+00 0.102D+01
 Coeff:     -0.472D-07 0.626D-07 0.359D-07-0.321D-06-0.261D-05 0.263D-05
 Coeff:      0.161D-04 0.592D-05-0.761D-04-0.217D-03 0.196D-03 0.953D-03
 Coeff:     -0.288D-03-0.807D-02-0.157D-01 0.535D-01 0.118D+00-0.297D+00
 Coeff:      0.124D+00 0.102D+01
 Gap=     0.147 Goal=   None    Shift=    0.000
 Gap=     0.126 Goal=   None    Shift=    0.000
 RMSDP=1.69D-08 MaxDP=9.04D-07 DE=-1.87D-11 OVMax= 2.02D-06

 Cycle  21  Pass 1  IDiag  1:
 Restarting incremental Fock formation.
 E= -191.028414001934     Delta-E=       -0.000000000004 Rises=F Damp=F
 DIIS: error= 8.18D-09 at cycle  21 NSaved=  20.
 NSaved=20 IEnMin=20 EnMin= -191.028414001934     IErMin=20 ErrMin= 8.18D-09
 ErrMax= 8.18D-09  0.00D+00 EMaxC= 1.00D-01 BMatC= 4.07D-14 BMatP= 3.61D-13
 IDIUse=1 WtCom= 1.00D+00 WtEn= 0.00D+00
 Coeff-Com:  0.760D-08 0.543D-07 0.950D-06 0.618D-06 0.578D-05-0.169D-05
 Coeff-Com: -0.133D-04-0.205D-04-0.433D-04 0.436D-04 0.205D-03 0.186D-03
 Coeff-Com: -0.134D-02-0.527D-02 0.391D-02 0.480D-01-0.570D-01-0.804D-01
 Coeff-Com:  0.152D+00 0.940D+00
 Coeff:      0.760D-08 0.543D-07 0.950D-06 0.618D-06 0.578D-05-0.169D-05
 Coeff:     -0.133D-04-0.205D-04-0.433D-04 0.436D-04 0.205D-03 0.186D-03
 Coeff:     -0.134D-02-0.527D-02 0.391D-02 0.480D-01-0.570D-01-0.804D-01
 Coeff:      0.152D+00 0.940D+00
 Gap=     0.147 Goal=   None    Shift=    0.000
 Gap=     0.126 Goal=   None    Shift=    0.000
 RMSDP=3.11D-09 MaxDP=1.82D-07 DE=-3.69D-12 OVMax= 3.12D-07

 SCF Done:  E(UB3LYP) =  -191.028414002     A.U. after   21 cycles
            NFock= 21  Conv=0.31D-08     -V/T= 2.0043
 <Sx>= 0.0000 <Sy>= 0.0000 <Sz>= 0.5000 <S**2>= 0.8417 S= 0.5448
 <L.S>= 0.000000000000E+00
 KE= 1.902120139430D+02 PE=-6.768180705820D+02 EE= 1.672160857167D+02
 Annihilation of the first spin contaminant:
 S**2 before annihilation     0.8417,   after     0.7507
 Leave Link  502 at Mon Jun 20 10:35:53 2016, MaxMem=    33554432 cpu:       964.2
 (Enter /home/proyectos/fulerenos/M3C-v1.9/M3C-deps_CCC/g09-AM64L-G09RevC.01/l801.exe)
 DoSCS=F DFT=T ScalE2(SS,OS)=  1.000000  1.000000
 Range of M.O.s used for correlation:     1   235
 NBasis=   235 NAE=    16 NBE=    15 NFC=     0 NFV=     0
 NROrb=    235 NOA=    16 NOB=    15 NVA=   219 NVB=   220

 **** Warning!!: The largest alpha MO coefficient is  0.77270882D+02


 **** Warning!!: The largest beta MO coefficient is  0.73675678D+02

 Leave Link  801 at Mon Jun 20 10:35:53 2016, MaxMem=    33554432 cpu:         0.1
 (Enter /home/proyectos/fulerenos/M3C-v1.9/M3C-deps_CCC/g09-AM64L-G09RevC.01/l1101.exe)
 Using compressed storage, NAtomX=     9.
 Will process     10 centers per pass.
 Leave Link 1101 at Mon Jun 20 10:35:54 2016, MaxMem=    33554432 cpu:         1.3
 (Enter /home/proyectos/fulerenos/M3C-v1.9/M3C-deps_CCC/g09-AM64L-G09RevC.01/l1102.exe)
 Symmetrizing basis deriv contribution to polar:
 IMax=3 JMax=2 DiffMx= 0.00D+00
 Leave Link 1102 at Mon Jun 20 10:35:54 2016, MaxMem=    33554432 cpu:         0.1
 (Enter /home/proyectos/fulerenos/M3C-v1.9/M3C-deps_CCC/g09-AM64L-G09RevC.01/l1110.exe)
 Forming Gx(P) for the SCF density, NAtomX=     9.
 Integral derivatives from FoFJK, PRISM(SPDF).
 Do as many integral derivatives as possible in FoFJK.
 G2DrvN: MDV=      33554256.
 G2DrvN: will do    10 centers at a time, making    1 passes.
 Calling FoFCou, ICntrl=  3107 FMM=F I1Cent=   0 AccDes= 0.00D+00.
 FoFJK:  IHMeth= 1 ICntrl=    3107 DoSepK=F KAlg= 0 I1Cent=   0 FoldK=F
 IRaf=         0 NMat=   1 IRICut=       1 DoRegI=T DoRafI=F ISym2E= 0.
 FoFCou: FMM=F IPFlag=           0 FMFlag=      100000 FMFlg1=           0
         NFxFlg=           0 DoJE=F BraDBF=F KetDBF=F FulRan=T
         wScrn=  0.000000 ICntrl=    3107 IOpCl=  1 I1Cent=           0 NGrid=           0
         NMat0=    1 NMatS0=      1 NMatT0=    0 NMatD0=    1 NMtDS0=    0 NMtDT0=    0
 Symmetry not used in FoFCou.
 End of G2Drv F.D. properties file   721 does not exist.
 End of G2Drv F.D. properties file   722 does not exist.
 End of G2Drv F.D. properties file   788 does not exist.
 Leave Link 1110 at Mon Jun 20 10:38:07 2016, MaxMem=    33554432 cpu:       515.6
 (Enter /home/proyectos/fulerenos/M3C-v1.9/M3C-deps_CCC/g09-AM64L-G09RevC.01/l1002.exe)
 Minotr:  UHF open shell wavefunction.
          IDoAtm=111111111
          Direct CPHF calculation.
          Differentiating once with respect to electric field.
                with respect to dipole field.
          Differentiating once with respect to nuclear coordinates.
          Requested convergence is 1.0D-08 RMS, and 1.0D-07 maximum.
          Secondary convergence is 1.0D-12 RMS, and 1.0D-12 maximum.
          NewPWx=T KeepS1=F KeepF1=F KeepIn=T MapXYZ=F SortEE=F KeepMc=T.
          MDV=      33553868 using IRadAn=       2.
 Generate precomputed XC quadrature information.
          Solving linear equations simultaneously, MaxMat=       0.
 FoFJK:  IHMeth= 1 ICntrl=       0 DoSepK=F KAlg= 0 I1Cent=   0 FoldK=F
 IRaf= 980000000 NMat=  30 IRICut=      75 DoRegI=T DoRafI=T ISym2E= 2.
 FoFCou: FMM=F IPFlag=           0 FMFlag=      100000 FMFlg1=           0
         NFxFlg=           0 DoJE=F BraDBF=F KetDBF=F FulRan=T
         wScrn=  0.000000 ICntrl=       0 IOpCl=  1 I1Cent=           0 NGrid=           0
         NMat0=   30 NMatS0=     30 NMatT0=    0 NMatD0=   30 NMtDS0=    0 NMtDT0=    0
 Integrals replicated using symmetry in FoFCou.
          There are    30 degrees of freedom in the 1st order CPHF.  IDoFFX=6 NUNeed=     3.
     27 vectors produced by pass  0 Test12= 2.27D-14 3.33D-09 XBig12= 3.67D+02 1.28D+01.
 AX will form    27 AO Fock derivatives at one time.
     27 vectors produced by pass  1 Test12= 2.27D-14 3.33D-09 XBig12= 7.92D+01 1.83D+00.
     27 vectors produced by pass  2 Test12= 2.27D-14 3.33D-09 XBig12= 3.35D+00 7.37D-01.
     27 vectors produced by pass  3 Test12= 2.27D-14 3.33D-09 XBig12= 4.38D-02 4.28D-02.
     27 vectors produced by pass  4 Test12= 2.27D-14 3.33D-09 XBig12= 2.49D-04 2.37D-03.
     27 vectors produced by pass  5 Test12= 2.27D-14 3.33D-09 XBig12= 1.79D-06 2.16D-04.
     27 vectors produced by pass  6 Test12= 2.27D-14 3.33D-09 XBig12= 1.33D-08 1.70D-05.
      8 vectors produced by pass  7 Test12= 2.27D-14 3.33D-09 XBig12= 6.91D-11 9.72D-07.
      3 vectors produced by pass  8 Test12= 2.27D-14 3.33D-09 XBig12= 3.52D-13 4.63D-08.
      3 vectors produced by pass  9 Test12= 2.27D-14 3.33D-09 XBig12= 4.05D-14 2.28D-08.
      1 vectors produced by pass 10 Test12= 2.27D-14 3.33D-09 XBig12= 4.84D-16 4.66D-09.
 InvSVY:  IOpt=1 It=  1 EMax= 7.11D-15
 Solved reduced A of dimension   204 with    30 vectors.
 FullF1:  Do perturbations    1 to     3.
 Isotropic polarizability for W=    0.000000       49.84 Bohr**3.
 End of Minotr F.D. properties file   721 does not exist.
 End of Minotr F.D. properties file   722 does not exist.
 End of Minotr F.D. properties file   788 does not exist.
 Leave Link 1002 at Mon Jun 20 10:46:27 2016, MaxMem=    33554432 cpu:      1997.8
 (Enter /home/proyectos/fulerenos/M3C-v1.9/M3C-deps_CCC/g09-AM64L-G09RevC.01/l601.exe)
 Copying SCF densities to generalized density rwf, IOpCl= 1 IROHF=0.

 **********************************************************************

            Population analysis using the SCF density.

 **********************************************************************

 Orbital symmetries:
 Alpha Orbitals:
       Occupied  (A) (A) (A) (A) (A) (A) (A) (A) (A) (A) (A) (A)
                 (A) (A) (A) (A)
       Virtual   (A) (A) (A) (A) (A) (A) (A) (A) (A) (A) (A) (A)
                 (A) (A) (A) (A) (A) (A) (A) (A) (A) (A) (A) (A)
                 (A) (A) (A) (A) (A) (A) (A) (A) (A) (A) (A) (A)
                 (A) (A) (A) (A) (A) (A) (A) (A) (A) (A) (A) (A)
                 (A) (A) (A) (A) (A) (A) (A) (A) (A) (A) (A) (A)
                 (A) (A) (A) (A) (A) (A) (A) (A) (A) (A) (A) (A)
                 (A) (A) (A) (A) (A) (A) (A) (A) (A) (A) (A) (A)
                 (A) (A) (A) (A) (A) (A) (A) (A) (A) (A) (A) (A)
                 (A) (A) (A) (A) (A) (A) (A) (A) (A) (A) (A) (A)
                 (A) (A) (A) (A) (A) (A) (A) (A) (A) (A) (A) (A)
                 (A) (A) (A) (A) (A) (A) (A) (A) (A) (A) (A) (A)
                 (A) (A) (A) (A) (A) (A) (A) (A) (A) (A) (A) (A)
                 (A) (A) (A) (A) (A) (A) (A) (A) (A) (A) (A) (A)
                 (A) (A) (A) (A) (A) (A) (A) (A) (A) (A) (A) (A)
                 (A) (A) (A) (A) (A) (A) (A) (A) (A) (A) (A) (A)
                 (A) (A) (A) (A) (A) (A) (A) (A) (A) (A) (A) (A)
                 (A) (A) (A) (A) (A) (A) (A) (A) (A) (A) (A) (A)
                 (A) (A) (A) (A) (A) (A) (A) (A) (A) (A) (A) (A)
                 (A) (A) (A)
 Beta  Orbitals:
       Occupied  (A) (A) (A) (A) (A) (A) (A) (A) (A) (A) (A) (A)
                 (A) (A) (A)
       Virtual   (A) (A) (A) (A) (A) (A) (A) (A) (A) (A) (A) (A)
                 (A) (A) (A) (A) (A) (A) (A) (A) (A) (A) (A) (A)
                 (A) (A) (A) (A) (A) (A) (A) (A) (A) (A) (A) (A)
                 (A) (A) (A) (A) (A) (A) (A) (A) (A) (A) (A) (A)
                 (A) (A) (A) (A) (A) (A) (A) (A) (A) (A) (A) (A)
                 (A) (A) (A) (A) (A) (A) (A) (A) (A) (A) (A) (A)
                 (A) (A) (A) (A) (A) (A) (A) (A) (A) (A) (A) (A)
                 (A) (A) (A) (A) (A) (A) (A) (A) (A) (A) (A) (A)
                 (A) (A) (A) (A) (A) (A) (A) (A) (A) (A) (A) (A)
                 (A) (A) (A) (A) (A) (A) (A) (A) (A) (A) (A) (A)
                 (A) (A) (A) (A) (A) (A) (A) (A) (A) (A) (A) (A)
                 (A) (A) (A) (A) (A) (A) (A) (A) (A) (A) (A) (A)
                 (A) (A) (A) (A) (A) (A) (A) (A) (A) (A) (A) (A)
                 (A) (A) (A) (A) (A) (A) (A) (A) (A) (A) (A) (A)
                 (A) (A) (A) (A) (A) (A) (A) (A) (A) (A) (A) (A)
                 (A) (A) (A) (A) (A) (A) (A) (A) (A) (A) (A) (A)
                 (A) (A) (A) (A) (A) (A) (A) (A) (A) (A) (A) (A)
                 (A) (A) (A) (A) (A) (A) (A) (A) (A) (A) (A) (A)
                 (A) (A) (A) (A)
 The electronic state is 2-A.
 Alpha  occ. eigenvalues --  -11.09525 -10.99578 -10.99467 -10.98695 -10.96724
 Alpha  occ. eigenvalues --   -1.65599  -1.48022  -1.43968  -1.25735  -1.22390
 Alpha  occ. eigenvalues --   -1.19914  -1.13784  -1.13446  -1.08228  -1.04770
 Alpha  occ. eigenvalues --   -0.99799
 Alpha virt. eigenvalues --   -0.85079  -0.82797  -0.81680  -0.72691  -0.55381
 Alpha virt. eigenvalues --   -0.53397  -0.51385  -0.49273  -0.48108  -0.45175
 Alpha virt. eigenvalues --   -0.43933  -0.43288  -0.42737  -0.40184  -0.38979
 Alpha virt. eigenvalues --   -0.38813  -0.37983  -0.36514  -0.34739  -0.32873
 Alpha virt. eigenvalues --   -0.31542  -0.30601  -0.30192  -0.29002  -0.28117
 Alpha virt. eigenvalues --   -0.27236  -0.26722  -0.26290  -0.23914  -0.23112
 Alpha virt. eigenvalues --   -0.22740  -0.22657  -0.21850  -0.19424  -0.18714
 Alpha virt. eigenvalues --   -0.18216  -0.17724  -0.16803  -0.16002  -0.13405
 Alpha virt. eigenvalues --   -0.12676  -0.11918  -0.11195  -0.09764  -0.09189
 Alpha virt. eigenvalues --   -0.07899  -0.06314  -0.06160  -0.05077  -0.03993
 Alpha virt. eigenvalues --   -0.03575  -0.02978  -0.02028  -0.01087  -0.00407
 Alpha virt. eigenvalues --    0.00941   0.01393   0.02707   0.03385   0.04194
 Alpha virt. eigenvalues --    0.06856   0.07922   0.08331   0.10356   0.11959
 Alpha virt. eigenvalues --    0.14052   0.14665   0.17884   0.17949   0.19737
 Alpha virt. eigenvalues --    0.20960   0.22529   0.25536   0.28978   0.31581
 Alpha virt. eigenvalues --    0.34712   0.35515   0.39080   0.41835   0.45109
 Alpha virt. eigenvalues --    0.48185   0.48578   0.50702   0.54383   0.56302
 Alpha virt. eigenvalues --    0.57766   0.59349   0.61748   0.64073   0.66617
 Alpha virt. eigenvalues --    0.68790   0.69865   0.72921   0.74773   0.76366
 Alpha virt. eigenvalues --    0.77584   0.79807   0.80845   0.85509   0.88179
 Alpha virt. eigenvalues --    0.88876   0.91387   0.95268   0.96532   0.97697
 Alpha virt. eigenvalues --    0.99691   1.01740   1.04089   1.07953   1.13191
 Alpha virt. eigenvalues --    1.19826   1.23731   1.28413   1.30970   1.33365
 Alpha virt. eigenvalues --    1.39586   1.46361   1.50531   1.55782   1.62457
 Alpha virt. eigenvalues --    1.67391   1.72224   1.85544   1.92155   1.94422
 Alpha virt. eigenvalues --    1.96341   1.96857   2.00996   2.03600   2.05346
 Alpha virt. eigenvalues --    2.08097   2.09049   2.10883   2.11122   2.13775
 Alpha virt. eigenvalues --    2.15419   2.17371   2.19554   2.24445   2.25797
 Alpha virt. eigenvalues --    2.28353   2.30680   2.31598   2.34215   2.37342
 Alpha virt. eigenvalues --    2.39087   2.43887   2.46332   2.49948   2.54017
 Alpha virt. eigenvalues --    2.57749   2.57912   2.60838   2.66925   2.72279
 Alpha virt. eigenvalues --    2.74985   2.78940   2.82364   2.84209   2.87653
 Alpha virt. eigenvalues --    2.91460   2.95457   3.03475   3.09110   3.20946
 Alpha virt. eigenvalues --    3.24201   3.39014   3.40801   3.46191   3.51179
 Alpha virt. eigenvalues --    3.54620   3.56886   3.60575   3.64112   3.66914
 Alpha virt. eigenvalues --    3.82823   3.85311   3.90401   3.91810   4.06218
 Alpha virt. eigenvalues --    4.11628   4.29681   4.45681   4.58280   4.68895
 Alpha virt. eigenvalues --    4.76772   5.01968   5.12816   5.64426   6.17427
 Alpha virt. eigenvalues --    6.18102   6.26780   6.28232   6.31034   6.34162
 Alpha virt. eigenvalues --    6.39666   6.41087   6.44450   6.51132   6.54889
 Alpha virt. eigenvalues --    6.60486   6.61119   6.65565   6.76688   6.81828
 Alpha virt. eigenvalues --    6.86825   6.89097   7.14622   7.21727   7.26536
 Alpha virt. eigenvalues --    7.32444   7.42540   7.63976   7.97901  23.17344
 Alpha virt. eigenvalues --   23.42209  23.92699  24.10760  24.82737
  Beta  occ. eigenvalues --  -11.08979 -10.99507 -10.98913 -10.98333 -10.96645
  Beta  occ. eigenvalues --   -1.64277  -1.46735  -1.42875  -1.24925  -1.21270
  Beta  occ. eigenvalues --   -1.18777  -1.12898  -1.12133  -1.07430  -1.02422
  Beta virt. eigenvalues --   -0.89818  -0.84423  -0.82103  -0.79815  -0.69528
  Beta virt. eigenvalues --   -0.54317  -0.52861  -0.50575  -0.48575  -0.47599
  Beta virt. eigenvalues --   -0.44757  -0.43391  -0.43064  -0.42337  -0.39633
  Beta virt. eigenvalues --   -0.38596  -0.38448  -0.37750  -0.36156  -0.34517
  Beta virt. eigenvalues --   -0.32437  -0.31175  -0.30487  -0.29747  -0.28805
  Beta virt. eigenvalues --   -0.27890  -0.26923  -0.26539  -0.26104  -0.23808
  Beta virt. eigenvalues --   -0.23023  -0.22622  -0.22503  -0.21725  -0.19262
  Beta virt. eigenvalues --   -0.18598  -0.17851  -0.17635  -0.16572  -0.15692
  Beta virt. eigenvalues --   -0.13271  -0.12530  -0.11618  -0.11010  -0.09372
  Beta virt. eigenvalues --   -0.08844  -0.07663  -0.06212  -0.05917  -0.04858
  Beta virt. eigenvalues --   -0.03605  -0.03216  -0.02547  -0.01673  -0.00808
  Beta virt. eigenvalues --   -0.00027   0.01316   0.01848   0.02716   0.04145
  Beta virt. eigenvalues --    0.04710   0.07051   0.08174   0.08727   0.10648
  Beta virt. eigenvalues --    0.12336   0.14345   0.14978   0.18194   0.18322
  Beta virt. eigenvalues --    0.19862   0.21453   0.23038   0.26102   0.29355
  Beta virt. eigenvalues --    0.31899   0.34987   0.35889   0.39416   0.42167
  Beta virt. eigenvalues --    0.45401   0.48593   0.48943   0.51110   0.54831
  Beta virt. eigenvalues --    0.56667   0.58067   0.59668   0.62143   0.64674
  Beta virt. eigenvalues --    0.66946   0.69222   0.70614   0.73542   0.75517
  Beta virt. eigenvalues --    0.76801   0.77973   0.81129   0.81528   0.85939
  Beta virt. eigenvalues --    0.88688   0.89490   0.91915   0.95600   0.97350
  Beta virt. eigenvalues --    0.98549   1.00887   1.03027   1.04691   1.09108
  Beta virt. eigenvalues --    1.14171   1.21002   1.24671   1.29806   1.31696
  Beta virt. eigenvalues --    1.34346   1.40213   1.47017   1.51322   1.56802
  Beta virt. eigenvalues --    1.63350   1.67911   1.72629   1.86738   1.93079
  Beta virt. eigenvalues --    1.95419   1.97017   1.97671   2.01881   2.04318
  Beta virt. eigenvalues --    2.06916   2.09077   2.10448   2.11489   2.12240
  Beta virt. eigenvalues --    2.14780   2.16271   2.18139   2.20796   2.25277
  Beta virt. eigenvalues --    2.27057   2.29186   2.31144   2.32693   2.35313
  Beta virt. eigenvalues --    2.37981   2.40206   2.44954   2.47373   2.50886
  Beta virt. eigenvalues --    2.55119   2.58511   2.58755   2.61814   2.68098
  Beta virt. eigenvalues --    2.72988   2.75746   2.79866   2.83086   2.85359
  Beta virt. eigenvalues --    2.88441   2.92262   2.96391   3.04516   3.10143
  Beta virt. eigenvalues --    3.21722   3.25018   3.40088   3.41669   3.46717
  Beta virt. eigenvalues --    3.51620   3.55327   3.57567   3.61760   3.64883
  Beta virt. eigenvalues --    3.67528   3.83500   3.86089   3.90960   3.92755
  Beta virt. eigenvalues --    4.07315   4.12360   4.30315   4.46602   4.58885
  Beta virt. eigenvalues --    4.70544   4.77138   5.02490   5.13087   5.64883
  Beta virt. eigenvalues --    6.18592   6.19349   6.27920   6.29215   6.32867
  Beta virt. eigenvalues --    6.35781   6.41210   6.42605   6.46094   6.52850
  Beta virt. eigenvalues --    6.55828   6.61861   6.62407   6.66669   6.77842
  Beta virt. eigenvalues --    6.83398   6.87486   6.89812   7.15032   7.22208
  Beta virt. eigenvalues --    7.27055   7.32979   7.43009   7.64805   7.98220
  Beta virt. eigenvalues --   23.17801  23.42655  23.92903  24.11031  24.83327
          Condensed to atoms (all electrons):
               1          2          3          4          5          6
     1  C    7.990212  -0.079808   0.441801  -0.009311   0.006262  -1.447383
     2  C   -0.079808   6.351335   0.030257   0.423168   0.387922  -0.110024
     3  H    0.441801   0.030257   0.324505  -0.000241  -0.000055  -0.053787
     4  H   -0.009311   0.423168  -0.000241   0.296291  -0.000548   0.001577
     5  H    0.006262   0.387922  -0.000055  -0.000548   0.295283  -0.000571
     6  C   -1.447383  -0.110024  -0.053787   0.001577  -0.000571   7.260238
     7  C   -0.307224  -0.658909  -0.017687  -0.074682  -0.059723  -0.091358
     8  C   -0.666271  -0.390277  -0.068121  -0.003291   0.004571   0.059611
     9  H   -0.035739  -0.014806  -0.002439   0.000205  -0.000735   0.015660
               7          8          9
     1  C   -0.307224  -0.666271  -0.035739
     2  C   -0.658909  -0.390277  -0.014806
     3  H   -0.017687  -0.068121  -0.002439
     4  H   -0.074682  -0.003291   0.000205
     5  H   -0.059723   0.004571  -0.000735
     6  C   -0.091358   0.059611   0.015660
     7  C    7.162622  -0.476595  -0.008708
     8  C   -0.476595   6.814227   0.305731
     9  H   -0.008708   0.305731   0.308335
          Atomic-Atomic Spin Densities.
               1          2          3          4          5          6
     1  C   -0.051230   0.029719   0.015606   0.001387  -0.000010   0.057199
     2  C    0.029719   0.028450  -0.000305   0.006965   0.003888   0.004741
     3  H    0.015606  -0.000305   0.066849   0.000063  -0.000209   0.017847
     4  H    0.001387   0.006965   0.000063   0.013599  -0.000370   0.000018
     5  H   -0.000010   0.003888  -0.000209  -0.000370   0.008483  -0.000456
     6  C    0.057199   0.004741   0.017847   0.000018  -0.000456   0.248455
     7  C   -0.142587   0.000025   0.004481  -0.007849   0.004018   0.074555
     8  C    0.074164  -0.031333  -0.013997   0.003253  -0.002220  -0.105627
     9  H    0.004261   0.000210  -0.000172   0.000057   0.000002  -0.003160
               7          8          9
     1  C   -0.142587   0.074164   0.004261
     2  C    0.000025  -0.031333   0.000210
     3  H    0.004481  -0.013997  -0.000172
     4  H   -0.007849   0.003253   0.000057
     5  H    0.004018  -0.002220   0.000002
     6  C    0.074555  -0.105627  -0.003160
     7  C    0.445265  -0.019029  -0.001927
     8  C   -0.019029   0.295555   0.001385
     9  H   -0.001927   0.001385  -0.004608
 Mulliken charges and spin densities:
               1          2
     1  C    0.107461  -0.011491
     2  C    0.061142   0.042359
     3  H    0.345766   0.090162
     4  H    0.366831   0.017122
     5  H    0.367592   0.013125
     6  C    0.366037   0.293572
     7  C    0.532263   0.356952
     8  C    0.420413   0.202151
     9  H    0.432496  -0.003952
 Sum of Mulliken charges =   3.00000   1.00000
 Mulliken charges and spin densities with hydrogens summed into heavy atoms:
               1          2
     1  C    0.453227   0.078671
     2  C    0.795564   0.072606
     6  C    0.366037   0.293572
     7  C    0.532263   0.356952
     8  C    0.852909   0.198199
 APT charges:
               1
     1  C   -0.417021
     2  C    0.416691
     3  H    0.437192
     4  H    0.370580
     5  H    0.351594
     6  C    0.936108
     7  C    0.093294
     8  C    0.421318
     9  H    0.390245
 Sum of APT charges =   3.00000
 APT charges with hydrogens summed into heavy atoms:
               1
     1  C    0.020171
     2  C    1.138865
     6  C    0.936108
     7  C    0.093294
     8  C    0.811562
 Electronic spatial extent (au):  <R**2>=            329.1310
 Charge=              3.0000 electrons
 Dipole moment (field-independent basis, Debye):
    X=              1.3627    Y=             -0.7445    Z=              0.4973  Tot=              1.6305
 Quadrupole moment (field-independent basis, Debye-Ang):
   XX=             18.8316   YY=             -8.2298   ZZ=            -16.2520
   XY=             -1.9953   XZ=             -1.3160   YZ=             -1.3077
 Traceless Quadrupole moment (field-independent basis, Debye-Ang):
   XX=             20.7150   YY=             -6.3464   ZZ=            -14.3686
   XY=             -1.9953   XZ=             -1.3160   YZ=             -1.3077
 Octapole moment (field-independent basis, Debye-Ang**2):
  XXX=             33.7198  YYY=             18.8532  ZZZ=              4.7733  XYY=             -3.5530
  XXY=            -23.6646  XXZ=             -3.4296  XZZ=              2.5637  YZZ=             -4.0304
  YYZ=             -0.2477  XYZ=             -0.2757
 Hexadecapole moment (field-independent basis, Debye-Ang**3):
 XXXX=            -82.4915 YYYY=            -33.9155 ZZZZ=            -23.3053 XXXY=            -16.3419
 XXXZ=             -6.2185 YYYX=            -13.6886 YYYZ=             -4.2753 ZZZX=             -8.5323
 ZZZY=             -4.1329 XXYY=            -40.8797 XXZZ=            -25.4335 YYZZ=            -18.0849
 XXYZ=             -3.0718 YYXZ=              2.2788 ZZXY=             -2.8762
 N-N= 1.283615569203D+02 E-N=-6.768180705552D+02  KE= 1.902120139430D+02
  Exact polarizability:  77.746   5.785  41.489   1.243   0.374  30.300
 Approx polarizability: 150.550  25.449  79.082   9.525   5.667  51.029
                          Isotropic Fermi Contact Couplings
        Atom                 a.u.       MegaHertz       Gauss      10(-4) cm-1
     1  C(13)              0.00834       9.37718       3.34601       3.12789
     2  C(13)             -0.00945     -10.62334      -3.79067      -3.54357
     3  H(1)               0.04753     212.44420      75.80537      70.86376
     4  H(1)               0.00997      44.54263      15.89392      14.85782
     5  H(1)               0.00835      37.33876      13.32340      12.45487
     6  C(13)              0.07373      82.89026      29.57730      27.64921
     7  C(13)              0.02778      31.22776      11.14284      10.41646
     8  C(13)              0.01134      12.75039       4.54965       4.25307
     9  H(1)              -0.00281     -12.56707      -4.48424      -4.19192
 --------------------------------------------------------
       Center         ----  Spin Dipole Couplings  ----
                      3XX-RR        3YY-RR        3ZZ-RR
 --------------------------------------------------------
     1   Atom       -0.047034     -0.031768      0.078802
     2   Atom       -0.020908      0.071332     -0.050424
     3   Atom       -0.005530     -0.007700      0.013230
     4   Atom        0.001736     -0.006326      0.004590
     5   Atom        0.006290     -0.009173      0.002883
     6   Atom        0.851105     -0.323326     -0.527779
     7   Atom       -0.202061     -0.202683      0.404744
     8   Atom       -0.147162     -0.101676      0.248837
     9   Atom       -0.013282      0.020514     -0.007232
 --------------------------------------------------------
                        XY            XZ            YZ
 --------------------------------------------------------
     1   Atom        0.015766     -0.033263      0.077606
     2   Atom        0.041463     -0.034979     -0.071642
     3   Atom        0.004888      0.001360     -0.014401
     4   Atom       -0.007473     -0.009546      0.008815
     5   Atom       -0.003550      0.012690     -0.000052
     6   Atom        0.150507     -0.201396     -0.207607
     7   Atom        0.015835      0.068893      0.075028
     8   Atom        0.021465      0.109478      0.162820
     9   Atom       -0.011229      0.005591     -0.007449
 --------------------------------------------------------


 ---------------------------------------------------------------------------------
              Anisotropic Spin Dipole Couplings in Principal Axis System
 ---------------------------------------------------------------------------------

       Atom             a.u.   MegaHertz   Gauss  10(-4) cm-1        Axes

              Baa    -0.0919   -12.333    -4.401    -4.114 -0.5660  0.7034 -0.4301
     1 C(13)  Bbb    -0.0299    -4.017    -1.433    -1.340  0.8134  0.5616 -0.1520
              Bcc     0.1218    16.349     5.834     5.454 -0.1346  0.4358  0.8899
 
              Baa    -0.0875   -11.741    -4.189    -3.916  0.2637  0.3386  0.9032
     2 C(13)  Bbb    -0.0361    -4.838    -1.726    -1.614  0.9018 -0.4190 -0.1062
              Bcc     0.1235    16.579     5.916     5.530  0.3425  0.8425 -0.4158
 
              Baa    -0.0172    -9.159    -3.268    -3.055 -0.3937  0.8238  0.4079
     3 H(1)   Bbb    -0.0034    -1.835    -0.655    -0.612  0.9184  0.3334  0.2131
              Bcc     0.0206    10.994     3.923     3.667 -0.0396 -0.4585  0.8878
 
              Baa    -0.0118    -6.275    -2.239    -2.093  0.2657  0.9048 -0.3327
     4 H(1)   Bbb    -0.0065    -3.461    -1.235    -1.155  0.7628  0.0137  0.6464
              Bcc     0.0182     9.737     3.474     3.248 -0.5895  0.4255  0.6866
 
              Baa    -0.0112    -5.976    -2.132    -1.993  0.4570  0.7899 -0.4089
     5 H(1)   Bbb    -0.0065    -3.449    -1.231    -1.151 -0.4707  0.6048  0.6424
              Bcc     0.0177     9.425     3.363     3.144  0.7547 -0.1011  0.6482
 
              Baa    -0.6630   -88.962   -31.744   -29.674  0.0653  0.4992  0.8640
     6 C(13)  Bbb    -0.2433   -32.654   -11.652   -10.892 -0.2054  0.8540 -0.4779
              Bcc     0.9063   121.616    43.396    40.567  0.9765  0.1463 -0.1583
 
              Baa    -0.2183   -29.295   -10.453    -9.772 -0.6579  0.7529 -0.0179
     7 C(13)  Bbb    -0.2035   -27.307    -9.744    -9.109  0.7447  0.6469 -0.1641
              Bcc     0.4218    56.601    20.197    18.880  0.1120  0.1213  0.9863
 
              Baa    -0.1886   -25.315    -9.033    -8.444  0.7439  0.5437 -0.3885
     8 C(13)  Bbb    -0.1490   -19.999    -7.136    -6.671 -0.6306  0.7635 -0.1389
              Bcc     0.3377    45.314    16.169    15.115  0.2211  0.3484  0.9109
 
              Baa    -0.0178    -9.518    -3.396    -3.175  0.9178  0.2024 -0.3416
     9 H(1)   Bbb    -0.0084    -4.466    -1.594    -1.490  0.2628  0.3355  0.9047
              Bcc     0.0262    13.984     4.990     4.665 -0.2977  0.9201 -0.2547
 

 ---------------------------------------------------------------------------------

 No NMR shielding tensors so no spin-rotation constants.
 Leave Link  601 at Mon Jun 20 10:46:28 2016, MaxMem=    33554432 cpu:         2.1
 (Enter /home/proyectos/fulerenos/M3C-v1.9/M3C-deps_CCC/g09-AM64L-G09RevC.01/l701.exe)
 Compute integral second derivatives.
 ... and contract with generalized density number  0.
 Leave Link  701 at Mon Jun 20 10:46:29 2016, MaxMem=    33554432 cpu:         1.8
 (Enter /home/proyectos/fulerenos/M3C-v1.9/M3C-deps_CCC/g09-AM64L-G09RevC.01/l702.exe)
 L702 exits ... SP integral derivatives will be done elsewhere.
 Leave Link  702 at Mon Jun 20 10:46:29 2016, MaxMem=    33554432 cpu:         0.1
 (Enter /home/proyectos/fulerenos/M3C-v1.9/M3C-deps_CCC/g09-AM64L-G09RevC.01/l703.exe)
 Compute integral second derivatives, UseDBF=F ICtDFT=           0.
 Integral derivatives from FoFJK, PRISM(SPDF).
 Calling FoFJK, ICntrl=    100127 FMM=F ISym2X=0 I1Cent= 0 IOpClX= 1 NMat=1 NMatS=1 NMatT=0.
 FoFJK:  IHMeth= 1 ICntrl=  100127 DoSepK=F KAlg= 0 I1Cent=   0 FoldK=F
 IRaf=         0 NMat=   1 IRICut=       1 DoRegI=T DoRafI=F ISym2E= 0.
 FoFCou: FMM=F IPFlag=           0 FMFlag=      100000 FMFlg1=         800
         NFxFlg=           0 DoJE=F BraDBF=F KetDBF=F FulRan=T
         wScrn=  0.000000 ICntrl=  100127 IOpCl=  1 I1Cent=           0 NGrid=           0
         NMat0=    1 NMatS0=      1 NMatT0=    0 NMatD0=    1 NMtDS0=    0 NMtDT0=    0
 Symmetry not used in FoFCou.
 Leave Link  703 at Mon Jun 20 10:49:39 2016, MaxMem=    33554432 cpu:       763.6
 (Enter /home/proyectos/fulerenos/M3C-v1.9/M3C-deps_CCC/g09-AM64L-G09RevC.01/l716.exe)
 Dipole        = 5.36121615D-01-2.92917189D-01 1.95645687D-01
 Polarizability= 7.77456622D+01 5.78518532D+00 4.14886374D+01
                 1.24261172D+00 3.74471831D-01 3.03002468D+01
 Full mass-weighted force constant matrix:
 Low frequencies ---  -12.1712   -4.3651   -0.0007   -0.0006   -0.0005    4.6560
 Low frequencies ---  148.2699  182.1924  298.3106
 Diagonal vibrational polarizability:
       37.1675377      16.7099930      14.1942914
 Harmonic frequencies (cm**-1), IR intensities (KM/Mole), Raman scattering
 activities (A**4/AMU), depolarization ratios for plane and unpolarized
 incident light, reduced masses (AMU), force constants (mDyne/A),
 and normal coordinates:
                      1                      2                      3
                      A                      A                      A
 Frequencies --    148.2695               182.1898               298.3106
 Red. masses --      2.2681                 1.4758                 2.2797
 Frc consts  --      0.0294                 0.0289                 0.1195
 IR Inten    --      7.6628                24.1570                12.8516
  Atom  AN      X      Y      Z        X      Y      Z        X      Y      Z
     1   6     0.03  -0.13   0.02     0.04  -0.06  -0.03     0.11  -0.09   0.02
     2   6     0.07   0.09   0.08     0.06   0.07   0.01    -0.09  -0.11   0.05
     3   1     0.21  -0.33  -0.01     0.04  -0.09  -0.04     0.39  -0.39  -0.02
     4   1     0.35   0.60   0.28    -0.17  -0.48  -0.16    -0.05  -0.58   0.06
     5   1    -0.17  -0.30   0.01     0.34   0.71   0.18    -0.27  -0.02   0.18
     6   6    -0.13   0.18   0.06    -0.11   0.09  -0.02     0.07   0.05   0.01
     7   6     0.00  -0.04  -0.10     0.01  -0.05   0.03     0.04   0.20  -0.10
     8   6     0.00  -0.08  -0.07    -0.01  -0.05   0.02    -0.10   0.05   0.01
     9   1    -0.15  -0.12  -0.13     0.03  -0.05  -0.04    -0.37  -0.01  -0.04
                      4                      5                      6
                      A                      A                      A
 Frequencies --    315.7577               387.2007               550.2935
 Red. masses --      3.7159                 3.9719                 4.8848
 Frc consts  --      0.2183                 0.3509                 0.8715
 IR Inten    --     12.1239                11.4291                20.0932
  Atom  AN      X      Y      Z        X      Y      Z        X      Y      Z
     1   6    -0.02  -0.06   0.28     0.07  -0.07  -0.23    -0.25   0.18   0.14
     2   6    -0.01  -0.00  -0.09     0.08  -0.08  -0.04     0.20  -0.05  -0.02
     3   1    -0.10   0.01   0.26    -0.11  -0.05  -0.24     0.47   0.03   0.21
     4   1    -0.25   0.12  -0.24    -0.19   0.12  -0.21     0.28  -0.21   0.02
     5   1     0.21  -0.11  -0.26     0.21  -0.51  -0.32     0.06  -0.17  -0.00
     6   6     0.17   0.17  -0.17    -0.17  -0.02   0.09    -0.19  -0.10  -0.12
     7   6    -0.03  -0.01   0.18     0.11   0.17   0.33     0.27   0.13  -0.09
     8   6    -0.08  -0.08  -0.13    -0.06   0.04  -0.07    -0.10  -0.12   0.11
     9   1    -0.26  -0.16  -0.57    -0.27  -0.03  -0.30    -0.01  -0.16  -0.44
                      7                      8                      9
                      A                      A                      A
 Frequencies --    605.8505               789.5897               828.8488
 Red. masses --      1.4812                 1.6774                 1.6989
 Frc consts  --      0.3203                 0.6162                 0.6877
 IR Inten    --     32.2051                28.6493                15.4761
  Atom  AN      X      Y      Z        X      Y      Z        X      Y      Z
     1   6     0.04  -0.02  -0.01     0.12  -0.04   0.05    -0.11  -0.02   0.07
     2   6     0.07  -0.02  -0.01    -0.11   0.05   0.01     0.09  -0.04   0.04
     3   1    -0.52   0.63   0.07     0.56   0.48   0.29     0.05  -0.31   0.01
     4   1     0.18  -0.11   0.06    -0.12   0.07   0.01    -0.15  -0.05  -0.12
     5   1    -0.08  -0.04   0.05    -0.07  -0.09  -0.07     0.28  -0.04  -0.05
     6   6     0.03   0.07   0.02    -0.11  -0.04  -0.09    -0.02  -0.02  -0.01
     7   6     0.06   0.02  -0.04     0.05   0.00   0.04    -0.02   0.05   0.00
     8   6    -0.14  -0.07  -0.01    -0.02  -0.01  -0.06     0.06   0.05  -0.16
     9   1    -0.16  -0.04   0.44     0.40   0.11   0.33    -0.15   0.10   0.83
                     10                     11                     12
                      A                      A                      A
 Frequencies --    865.6658               907.6148               931.1705
 Red. masses --      2.5965                 2.6433                 1.5931
 Frc consts  --      1.1464                 1.2829                 0.8139
 IR Inten    --      9.3069                42.4191                42.1062
  Atom  AN      X      Y      Z        X      Y      Z        X      Y      Z
     1   6     0.01   0.18  -0.10     0.08   0.07  -0.03    -0.06  -0.09  -0.04
     2   6    -0.08  -0.00   0.10     0.17  -0.12   0.01    -0.03   0.00   0.09
     3   1     0.33  -0.29  -0.15     0.66   0.25   0.15     0.07   0.52   0.17
     4   1    -0.48   0.25  -0.16     0.22   0.14   0.05    -0.43   0.11  -0.17
     5   1     0.44  -0.10  -0.19     0.26   0.02   0.03     0.37  -0.10  -0.14
     6   6     0.11   0.07   0.06    -0.00  -0.01  -0.04     0.01   0.01   0.00
     7   6     0.07  -0.06  -0.03    -0.17  -0.14   0.01     0.01   0.03  -0.10
     8   6    -0.15  -0.16  -0.01    -0.14   0.15   0.04     0.11   0.02   0.07
     9   1     0.11  -0.10   0.23    -0.43   0.10  -0.06    -0.45  -0.12  -0.18
                     13                     14                     15
                      A                      A                      A
 Frequencies --    988.5685              1035.8305              1162.7181
 Red. masses --      1.7083                 2.2091                 1.4369
 Frc consts  --      0.9836                 1.3965                 1.1445
 IR Inten    --     30.9755               385.3197                16.4202
  Atom  AN      X      Y      Z        X      Y      Z        X      Y      Z
     1   6     0.10  -0.03   0.08    -0.18  -0.15  -0.09    -0.01  -0.02   0.01
     2   6     0.06  -0.04   0.08     0.07  -0.02  -0.01    -0.07  -0.15  -0.03
     3   1    -0.49  -0.15  -0.10     0.36   0.17   0.15    -0.07   0.01   0.01
     4   1    -0.27   0.08  -0.12     0.09  -0.06  -0.01     0.17   0.65   0.15
     5   1     0.36  -0.21  -0.14     0.03  -0.01   0.02     0.27   0.62   0.17
     6   6    -0.06  -0.04  -0.03     0.13   0.07   0.07    -0.01  -0.00  -0.00
     7   6    -0.03   0.03  -0.11    -0.05   0.06   0.02     0.06   0.07  -0.00
     8   6    -0.08   0.08   0.02    -0.07   0.01   0.01    -0.00   0.01  -0.01
     9   1     0.53   0.20  -0.23     0.80   0.19  -0.12     0.03   0.02   0.01
                     16                     17                     18
                      A                      A                      A
 Frequencies --   1333.5350              1514.2326              2378.7234
 Red. masses --      1.1221                 5.9865                 1.0731
 Frc consts  --      1.1756                 8.0873                 3.5773
 IR Inten    --     61.8928               192.0702               547.6899
  Atom  AN      X      Y      Z        X      Y      Z        X      Y      Z
     1   6    -0.01  -0.01  -0.00    -0.13  -0.12   0.01     0.02   0.02  -0.07
     2   6    -0.09   0.03  -0.00    -0.08   0.05  -0.00     0.00  -0.00   0.00
     3   1    -0.03  -0.02  -0.01    -0.10  -0.18   0.00    -0.20  -0.28   0.94
     4   1     0.52  -0.30   0.37    -0.22   0.04  -0.12    -0.01  -0.00   0.02
     5   1     0.58  -0.11  -0.38    -0.29   0.02   0.09    -0.01   0.01  -0.02
     6   6     0.00   0.00   0.00     0.04   0.03   0.03    -0.00  -0.00  -0.01
     7   6     0.01  -0.01   0.00     0.40  -0.33  -0.01     0.00   0.00  -0.00
     8   6    -0.00   0.02  -0.00    -0.15   0.34  -0.02     0.00   0.00  -0.00
     9   1    -0.03   0.03  -0.00    -0.25   0.53  -0.06    -0.01  -0.02  -0.00
                     19                     20                     21
                      A                      A                      A
 Frequencies --   2805.9246              2920.5955              2943.3904
 Red. masses --      1.0470                 1.1222                 1.1266
 Frc consts  --      4.8570                 5.6397                 5.7509
 IR Inten    --    622.4122               301.7750               373.4135
  Atom  AN      X      Y      Z        X      Y      Z        X      Y      Z
     1   6    -0.00  -0.00   0.00    -0.00  -0.00   0.00     0.00   0.01  -0.00
     2   6     0.05  -0.02  -0.02    -0.00   0.03  -0.10    -0.00   0.00  -0.01
     3   1     0.01   0.01  -0.03     0.00  -0.00  -0.00    -0.00   0.00   0.02
     4   1    -0.43  -0.03   0.68    -0.32  -0.01   0.49    -0.00  -0.00   0.00
     5   1    -0.22   0.23  -0.49     0.31  -0.32   0.66     0.05  -0.04   0.09
     6   6     0.00   0.00   0.00     0.00   0.00   0.00    -0.00  -0.00  -0.00
     7   6     0.00  -0.00  -0.00     0.00  -0.00   0.00    -0.01   0.01   0.00
     8   6     0.00  -0.01   0.00    -0.00   0.01  -0.00     0.02  -0.10   0.01
     9   1    -0.01   0.06  -0.01     0.02  -0.09   0.01    -0.20   0.96  -0.08

 -------------------
 - Thermochemistry -
 -------------------
 Temperature   298.150 Kelvin.  Pressure   1.00000 Atm.
 Atom     1 has atomic number  6 and mass  12.00000
 Atom     2 has atomic number  6 and mass  12.00000
 Atom     3 has atomic number  1 and mass   1.00783
 Atom     4 has atomic number  1 and mass   1.00783
 Atom     5 has atomic number  1 and mass   1.00783
 Atom     6 has atomic number  6 and mass  12.00000
 Atom     7 has atomic number  6 and mass  12.00000
 Atom     8 has atomic number  6 and mass  12.00000
 Atom     9 has atomic number  1 and mass   1.00783
 Molecular mass:    64.03130 amu.
 Principal axes and moments of inertia in atomic units:
                           1         2         3
     Eigenvalues --   138.06662 450.78097 542.20715
           X            0.99902  -0.04148  -0.01544
           Y            0.04069   0.99799  -0.04860
           Z            0.01743   0.04792   0.99870
 This molecule is an asymmetric top.
 Rotational symmetry number  1.
 Rotational temperatures (Kelvin)      0.62733     0.19214     0.15974
 Rotational constants (GHZ):          13.07152     4.00359     3.32851
 Zero-point vibrational energy     142919.5 (Joules/Mol)
                                   34.15859 (Kcal/Mol)
 Warning -- explicit consideration of   7 degrees of freedom as
           vibrations may cause significant error
 Vibrational temperatures:    213.33   262.13   429.20   454.30   557.09
          (Kelvin)            791.75   871.68  1136.04  1192.53  1245.50
                             1305.85  1339.74  1422.33  1490.33  1672.89
                             1918.66  2178.64  3422.45  4037.09  4202.08
                             4234.88
 
 Zero-point correction=                           0.054435 (Hartree/Particle)
 Thermal correction to Energy=                    0.060413
 Thermal correction to Enthalpy=                  0.061357
 Thermal correction to Gibbs Free Energy=         0.025424
 Sum of electronic and zero-point Energies=           -190.973979
 Sum of electronic and thermal Energies=              -190.968001
 Sum of electronic and thermal Enthalpies=            -190.967057
 Sum of electronic and thermal Free Energies=         -191.002990
 
                     E (Thermal)             CV                S
                      KCal/Mol        Cal/Mol-Kelvin    Cal/Mol-Kelvin
 Total                   37.910             20.644             75.628
 Electronic               0.000              0.000              1.377
 Translational            0.889              2.981             38.389
 Rotational               0.889              2.981             25.026
 Vibrational             36.132             14.682             10.835
 Vibration     1          0.618              1.905              2.694
 Vibration     2          0.630              1.864              2.306
 Vibration     3          0.691              1.677              1.426
 Vibration     4          0.703              1.644              1.332
 Vibration     5          0.756              1.498              1.011
 Vibration     6          0.906              1.139              0.544
 Vibration     7          0.964              1.019              0.440
                       Q            Log10(Q)             Ln(Q)
 Total Bot       0.202220D-11        -11.694176        -26.926835
 Total V=0       0.220909D+14         13.344214         30.726187
 Vib (Bot)       0.763474D-24        -24.117206        -55.531919
 Vib (Bot)    1  0.136825D+01          0.136166          0.313533
 Vib (Bot)    2  0.110159D+01          0.042019          0.096753
 Vib (Bot)    3  0.638118D+00         -0.195099         -0.449233
 Vib (Bot)    4  0.596840D+00         -0.224142         -0.516107
 Vib (Bot)    5  0.464591D+00         -0.332929         -0.766598
 Vib (Bot)    6  0.285099D+00         -0.545004         -1.254918
 Vib (Bot)    7  0.244979D+00         -0.610871         -1.406583
 Vib (V=0)       0.834034D+01          0.921184          2.121104
 Vib (V=0)    1  0.195675D+01          0.291534          0.671283
 Vib (V=0)    2  0.170975D+01          0.232933          0.536348
 Vib (V=0)    3  0.131068D+01          0.117495          0.270542
 Vib (V=0)    4  0.127860D+01          0.106735          0.245766
 Vib (V=0)    5  0.118253D+01          0.072812          0.167655
 Vib (V=0)    6  0.107557D+01          0.031639          0.072851
 Vib (V=0)    7  0.105679D+01          0.023989          0.055236
 Electronic      0.200000D+01          0.301030          0.693147
 Translational   0.201393D+08          7.304044         16.818182
 Rotational      0.657591D+05          4.817956         11.093754
 
                                                              b3lyp opt
                                                             IR Spectrum
 
     22    2                  2                                    1       1      1     1                                            
     99    8                  3                                    5       3      1     0 9 99 8 87       6  5      3  32    11      
     42    0                  7                                    1       3      6     3 8 30 6 29       0  5      8  19    84      
     31    6                  9                                    4       4      3     6 9 18 6 90       6  0      7  68    28      
 
     XX    X                  X                                    X       X      X     X X XX X XX       X  X      X  XX    XX      
     XX    X                  X                                    X       X            X                                            
     XX    X                  X                                    X                    X                                            
     XX    X                  X                                    X                    X                                            
     XX    X                  X                                    X                    X                                            
     XX    X                  X                                    X                    X                                            
     XX    X                  X                                                         X                                            
     XX    X                  X                                                         X                                            
     XX    X                  X                                                         X                                            
     XX    X                  X                                                         X                                            
     X     X                  X                                                         X                                            
     X     X                  X                                                         X                                            
           X                  X                                                                                                      
           X                  X                                                                                                      
           X                  X                                                                                                      
           X                  X                                                                                                      
           X                  X                                                                                                      
           X                  X                                                                                                      
           X                                                                                                                         
           X                                                                                                                         
 
 ***** Axes restored to original set *****
 -------------------------------------------------------------------
 Center     Atomic                   Forces (Hartrees/Bohr)
 Number     Number              X              Y              Z
 -------------------------------------------------------------------
      1        6           0.000017509   -0.000039299    0.000036447
      2        6          -0.000097922    0.000010538   -0.000047212
      3        1          -0.000002000    0.000001961   -0.000008115
      4        1          -0.000000365    0.000003797    0.000025624
      5        1           0.000045616   -0.000015175    0.000037640
      6        6          -0.000017010   -0.000001852   -0.000010948
      7        6           0.000063350   -0.000032102   -0.000034515
      8        6           0.000002645    0.000035495    0.000008274
      9        1          -0.000011822    0.000036638   -0.000007195
 -------------------------------------------------------------------
 Cartesian Forces:  Max     0.000097922 RMS     0.000032828
 Z-matrix is all fixed cartesians, so copy forces.
 Force constants in Cartesian coordinates: 
                1             2             3             4             5 
      1  0.273715D+00
      2  0.121664D+00  0.227898D+00
      3  0.106668D-01 -0.425093D-01  0.256451D+00
      4 -0.216900D-01  0.243276D-01  0.738135D-02  0.386895D+00
      5 -0.127826D-01 -0.558433D-02 -0.755242D-02 -0.819774D-01  0.227699D+00
      6  0.186196D-01  0.232898D-02 -0.392054D-02 -0.225404D-01 -0.913405D-01
      7 -0.213537D-01 -0.498130D-02  0.155590D-01  0.422347D-02 -0.130231D-02
      8 -0.729775D-02 -0.362842D-01  0.383162D-01  0.164710D-02 -0.140684D-02
      9  0.346289D-01  0.407482D-01 -0.159947D+00  0.732118D-03 -0.106616D-02
     10  0.252812D-02  0.174421D-02  0.123871D-02 -0.103914D+00 -0.863575D-02
     11  0.721805D-02  0.766312D-03  0.106216D-02 -0.987121D-02 -0.498892D-01
     12 -0.545934D-02 -0.691889D-03  0.275467D-04  0.990453D-01  0.663726D-02
     13  0.922773D-03 -0.211375D-03  0.106754D-02 -0.736651D-01  0.284424D-01
     14 -0.605229D-02 -0.367744D-02  0.656649D-03  0.306975D-01 -0.871817D-01
     15  0.990394D-03  0.179845D-03  0.124594D-02 -0.741833D-01  0.770322D-01
     16 -0.978037D-01 -0.285114D-01 -0.660648D-01 -0.307936D-02  0.536553D-02
     17 -0.496383D-01 -0.244294D-01 -0.417165D-01 -0.349656D-02  0.569562D-02
     18 -0.665353D-01 -0.270449D-01 -0.464872D-01 -0.735093D-02  0.729119D-02
     19 -0.124512D+00 -0.815468D-01  0.163090D-01 -0.157677D+00  0.392276D-01
     20  0.318280D-01  0.827676D-02  0.852672D-02  0.378843D-01 -0.826321D-01
     21 -0.601141D-02  0.111485D-01 -0.214586D-01 -0.132501D-01  0.135908D-01
     22 -0.770522D-02 -0.954157D-02  0.990442D-02 -0.363373D-01  0.326833D-01
     23 -0.894583D-01 -0.168955D+00  0.435595D-01 -0.380463D-02 -0.627342D-02
     24  0.178503D-01  0.103712D-01 -0.331342D-01  0.946029D-02 -0.393700D-02
     25 -0.410139D-02 -0.229430D-01  0.393800D-02  0.524441D-02 -0.102079D-02
     26  0.451940D-02  0.198942D-02 -0.342952D-03  0.459335D-02 -0.427478D-03
     27 -0.474989D-02  0.546934D-02  0.722376D-02  0.705699D-03 -0.655472D-03
                6             7             8             9            10 
      6  0.481484D+00
      7 -0.201131D-02  0.305248D-01
      8  0.235480D-02  0.162644D-01  0.337580D-01
      9  0.300118D-02 -0.327163D-01 -0.473439D-01  0.180714D+00
     10  0.104895D+00 -0.569441D-03 -0.654610D-03  0.500092D-03  0.111781D+00
     11  0.403894D-02  0.232261D-03  0.121382D-02  0.446221D-04 -0.397232D-02
     12 -0.212248D+00  0.120850D-02  0.402760D-03 -0.130846D-02 -0.112896D+00
     13 -0.762113D-01 -0.112146D-02 -0.616379D-03  0.670602D-03  0.117621D-01
     14  0.805019D-01  0.133158D-03  0.137657D-03 -0.458554D-03  0.331076D-02
     15 -0.213269D+00 -0.393676D-03 -0.141646D-02  0.125734D-02 -0.775980D-02
     16 -0.200667D-02  0.104473D-01 -0.482478D-03 -0.980599D-02 -0.174527D-02
     17 -0.318996D-02  0.458567D-02  0.369236D-02 -0.158765D-02 -0.606346D-03
     18 -0.109130D-03  0.256836D-03 -0.124176D-02 -0.200393D-01 -0.525629D-03
     19 -0.134615D-01 -0.172932D-01 -0.128275D-01  0.685080D-03 -0.192258D-01
     20 -0.112202D-02 -0.720833D-02  0.106125D-01  0.483667D-02  0.952322D-02
     21 -0.702951D-01  0.174312D-01 -0.448860D-02 -0.398079D-02  0.169426D-01
     22 -0.898422D-02 -0.528328D-02  0.613255D-02  0.707657D-02 -0.518290D-03
     23  0.674683D-02 -0.708381D-02 -0.113808D-01  0.371819D-02 -0.134977D-02
     24  0.134854D-01 -0.198450D-02  0.146510D-01  0.763006D-03 -0.228311D-02
     25  0.170055D-02  0.425532D-03 -0.216534D-02 -0.177109D-02 -0.986244D-04
     26 -0.318989D-03 -0.639753D-03 -0.342459D-03  0.110865D-02  0.640610D-03
     27  0.187166D-02  0.265025D-02 -0.123399D-02 -0.459512D-03 -0.111769D-03
               11            12            13            14            15 
     11  0.233197D-01
     12 -0.108523D-01  0.212546D+00
     13 -0.740016D-03  0.125352D-01  0.785391D-01
     14  0.146613D-01  0.233164D-02 -0.458515D-01  0.630570D-01
     15  0.108220D-01 -0.797755D-02  0.787077D-01 -0.884185D-01  0.213667D+00
     16 -0.328553D-02  0.122349D-02 -0.393814D-03  0.223241D-02 -0.969702D-03
     17 -0.187151D-02  0.106837D-02 -0.285965D-03  0.116993D-02 -0.441751D-03
     18 -0.200254D-02  0.842300D-03 -0.163312D-04  0.598759D-03 -0.251520D-03
     19  0.139360D-01  0.557262D-02 -0.158908D-01  0.142187D-01  0.677610D-03
     20  0.111003D-01  0.254553D-02  0.193957D-01  0.113544D-01  0.350417D-02
     21 -0.365630D-02  0.801576D-02 -0.164277D-01  0.409064D-02  0.823951D-02
     22 -0.425267D-02 -0.124955D-02  0.381430D-03  0.227700D-02  0.347542D-02
     23  0.113233D-02 -0.278896D-03 -0.795658D-03  0.529075D-03 -0.228643D-02
     24  0.110017D-02  0.482939D-03 -0.916167D-03  0.876387D-04 -0.300404D-02
     25  0.735402D-03  0.202126D-04 -0.534180D-03 -0.965668D-03 -0.544631D-03
     26 -0.433111D-03 -0.116249D-02  0.662731D-03 -0.503080D-04  0.102495D-02
     27 -0.556707D-03 -0.380618D-03  0.590539D-03  0.609842D-03  0.926681D-04
               16            17            18            19            20 
     16  0.129875D+00
     17  0.686710D-01  0.490340D-01
     18  0.650352D-01  0.362127D-01  0.560389D-01
     19 -0.130835D-02  0.155332D-01  0.247368D-01  0.464065D+00
     20 -0.355066D-01 -0.208613D-01 -0.166991D-01 -0.225247D+00  0.339865D+00
     21  0.537108D-02  0.823168D-02  0.459746D-02 -0.884234D-02 -0.877954D-02
     22 -0.427560D-01 -0.377958D-01 -0.201003D-01 -0.118623D+00  0.146382D+00
     23 -0.565972D-02 -0.116007D-01  0.402014D-02  0.247324D+00 -0.289310D+00
     24  0.930004D-02  0.901130D-03  0.623660D-02 -0.304182D-01  0.652636D-02
     25  0.676410D-02  0.303311D-02  0.449966D-02 -0.953489D-02  0.229483D-01
     26 -0.282316D-02 -0.828963D-03 -0.113451D-02 -0.106186D-01  0.115944D-01
     27 -0.208269D-02  0.521952D-03 -0.828076D-03  0.474091D-02  0.661259D-03
               21            22            23            24            25 
     21  0.109590D+00
     22  0.534315D-02  0.250329D+00
     23 -0.221799D-01 -0.193249D+00  0.782049D+00
     24 -0.427516D-01  0.887624D-02 -0.526239D-01  0.933297D-01
     25 -0.556366D-03 -0.394870D-01  0.540762D-01 -0.988499D-02  0.413220D-01
     26  0.204269D-02  0.573636D-01 -0.296190D+00  0.229233D-01 -0.536982D-01
     27  0.804348D-02 -0.434170D-02  0.193245D-01 -0.354078D-01  0.259865D-02
               26            27 
     26  0.284689D+00
     27 -0.241407D-01  0.198445D-01
 Leave Link  716 at Mon Jun 20 10:49:40 2016, MaxMem=    33554432 cpu:         0.1
 (Enter /home/proyectos/fulerenos/M3C-v1.9/M3C-deps_CCC/g09-AM64L-G09RevC.01/l103.exe)

 GradGradGradGradGradGradGradGradGradGradGradGradGradGradGradGradGradGrad
 Berny optimization.
 Search for a local minimum.
 Step number   1 out of a maximum of    2
 All quantities printed in internal units (Hartrees-Bohrs-Radians)
 Second derivative matrix not updated -- analytic derivatives used.
 ITU=  0
     Eigenvalues ---    0.00133   0.00450   0.00911   0.01290   0.02656
     Eigenvalues ---    0.03407   0.03992   0.06030   0.07960   0.10776
     Eigenvalues ---    0.14114   0.15879   0.18703   0.22880   0.26772
     Eigenvalues ---    0.37676   0.43606   0.46459   0.61701   0.69750
     Eigenvalues ---    1.29619
 Angle between quadratic step and forces=  74.00 degrees.
 Linear search not attempted -- first point.
 B after Tr=    -0.000061    0.000074   -0.000030
         Rot=    1.000000   -0.000009   -0.000006    0.000020 Ang=  -0.00 deg.
 Variable       Old X    -DE/DX   Delta X   Delta X   Delta X     New X
                                 (Linear)    (Quad)   (Total)
    X1       -1.60988   0.00002   0.00000   0.00024   0.00017  -1.60970
    Y1       -0.27773  -0.00004   0.00000  -0.00037  -0.00024  -0.27798
    Z1        0.60193   0.00004   0.00000   0.00016   0.00015   0.60208
    X2        3.65053  -0.00010   0.00000  -0.00020  -0.00030   3.65023
    Y2       -0.81757   0.00001   0.00000   0.00001  -0.00006  -0.81763
    Z2       -0.09702  -0.00005   0.00000   0.00012   0.00003  -0.09700
    X3       -2.19498  -0.00000   0.00000   0.00086   0.00079  -2.19419
    Y3       -0.93671   0.00000   0.00000  -0.00102  -0.00091  -0.93762
    Z3        2.62320  -0.00001   0.00000  -0.00001  -0.00003   2.62317
    X4        4.80840  -0.00000   0.00000   0.00023   0.00011   4.80851
    Y4       -0.77354   0.00000   0.00000  -0.00022  -0.00030  -0.77384
    Z4       -1.86630   0.00003   0.00000   0.00046   0.00036  -1.86594
    X5        4.49934   0.00005   0.00000   0.00019   0.00008   4.49942
    Y5       -1.64659  -0.00002   0.00000   0.00052   0.00037  -1.64622
    Z5        1.64588   0.00004   0.00000   0.00041   0.00029   1.64618
    X6       -3.75385  -0.00002   0.00000  -0.00039  -0.00051  -3.75436
    Y6       -1.45271  -0.00000   0.00000   0.00070   0.00094  -1.45176
    Z6       -0.69743  -0.00001   0.00000   0.00001   0.00000  -0.69743
    X7        1.13409   0.00006   0.00000   0.00000  -0.00005   1.13404
    Y7        0.20314  -0.00003   0.00000  -0.00005  -0.00002   0.20312
    Z7       -0.11672  -0.00003   0.00000  -0.00049  -0.00053  -0.11725
    X8       -0.45889   0.00000   0.00000   0.00000   0.00003  -0.45886
    Y8        2.19664   0.00004   0.00000  -0.00001   0.00009   2.19673
    Z8       -0.05189   0.00001   0.00000  -0.00003  -0.00001  -0.05190
    X9       -0.88479  -0.00001   0.00000  -0.00043  -0.00032  -0.88511
    Y9        4.24624   0.00004   0.00000   0.00002   0.00013   4.24637
    Z9       -0.23599  -0.00001   0.00000  -0.00032  -0.00026  -0.23625
         Item               Value     Threshold  Converged?
 Maximum Force            0.000098     0.000450     YES
 RMS     Force            0.000033     0.000300     YES
 Maximum Displacement     0.000944     0.001800     YES
 RMS     Displacement     0.000373     0.001200     YES
 Predicted change in Energy=-4.845653D-08
 Optimization completed.
    -- Stationary point found.
 GradGradGradGradGradGradGradGradGradGradGradGradGradGradGradGradGradGrad

 Leave Link  103 at Mon Jun 20 10:49:40 2016, MaxMem=    33554432 cpu:         0.1
 (Enter /home/proyectos/fulerenos/M3C-v1.9/M3C-deps_CCC/g09-AM64L-G09RevC.01/l9999.exe)
 1\1\GINC-BELVIS17\Freq\UB3LYP\6-311++G(3df,2p)\C5H4(3+,2)\ROOT\20-Jun-
 2016\0\\#p b3lyp/6-311++G(3df,2p) freq symmetry=Loose\\b3lyp opt\\3,2\
 C,-0.851911,-0.146971,0.318528\C,1.931775,-0.43264,-0.051343\H,-1.1615
 34,-0.495684,1.388136\H,2.544497,-0.409338,-0.987603\H,2.380947,-0.871
 338,0.870964\C,-1.98645,-0.76874,-0.369064\C,0.600135,0.107498,-0.0617
 65\C,-0.242833,1.162412,-0.027459\H,-0.468211,2.247012,-0.124883\\Vers
 ion=EM64L-G09RevE.01\State=2-A\HF=-191.028414\S2=0.841673\S2-1=0.\S2A=
 0.750677\RMSD=3.108e-09\RMSF=3.283e-05\ZeroPoint=0.0544352\Thermal=0.0
 60413\Dipole=0.5361216,-0.2929172,0.1956457\DipoleDeriv=-0.704995,-0.5
 237064,-0.1605459,-0.7164934,-0.2304061,0.0506587,-0.5568016,-0.032156
 ,-0.3156619,0.4644803,-0.0504989,0.0275338,-0.0083141,0.5886066,0.1154
 462,0.0302283,0.160978,0.196986,0.3484754,0.0367702,-0.1369,0.0674429,
 0.2804007,-0.1583734,-0.1134787,-0.0697415,0.6827009,0.497301,-0.03853
 42,-0.1449017,-0.1312826,0.2137716,0.0001322,-0.4350815,0.0202482,0.40
 06685,0.4896675,-0.1087637,0.1018916,-0.0828265,0.1987683,-0.1025836,0
 .3703083,-0.1335358,0.366345,1.2498199,0.3535491,0.3310617,0.4171253,0
 .7639885,0.1938704,0.4531897,0.2148577,0.7945156,0.1790699,0.5098937,0
 .0501217,0.0332511,-0.1873142,-0.061265,0.0807447,-0.112515,0.2881249,
 0.2696074,-0.0351379,-0.0595088,0.4971061,0.6294708,-0.0156357,0.24132
 47,0.0263719,0.3648742,0.2065736,-0.1435719,-0.0087524,-0.0760089,0.74
 27139,-0.0222499,-0.070434,-0.0745075,0.2214468\Polar=77.7456629,5.785
 183,41.4886367,1.2426117,0.3744718,30.3002468\PG=C01 [X(C5H4)]\NImag=0
 \\0.27371479,0.12166369,0.22789766,0.01066681,-0.04250930,0.25645063,-
 0.02168999,0.02432756,0.00738135,0.38689504,-0.01278258,-0.00558433,-0
 .00755242,-0.08197738,0.22769943,0.01861957,0.00232898,-0.00392054,-0.
 02254035,-0.09134047,0.48148405,-0.02135371,-0.00498130,0.01555901,0.0
 0422347,-0.00130231,-0.00201131,0.03052481,-0.00729775,-0.03628422,0.0
 3831619,0.00164710,-0.00140684,0.00235480,0.01626442,0.03375797,0.0346
 2887,0.04074818,-0.15994741,0.00073212,-0.00106616,0.00300118,-0.03271
 625,-0.04734395,0.18071398,0.00252812,0.00174421,0.00123871,-0.1039140
 1,-0.00863575,0.10489526,-0.00056944,-0.00065461,0.00050009,0.11178123
 ,0.00721805,0.00076631,0.00106216,-0.00987121,-0.04988920,0.00403894,0
 .00023226,0.00121382,0.00004462,-0.00397232,0.02331973,-0.00545934,-0.
 00069189,0.00002755,0.09904527,0.00663726,-0.21224821,0.00120850,0.000
 40276,-0.00130846,-0.11289637,-0.01085229,0.21254629,0.00092277,-0.000
 21137,0.00106754,-0.07366512,0.02844243,-0.07621130,-0.00112146,-0.000
 61638,0.00067060,0.01176210,-0.00074002,0.01253515,0.07853909,-0.00605
 229,-0.00367744,0.00065665,0.03069747,-0.08718166,0.08050190,0.0001331
 6,0.00013766,-0.00045855,0.00331076,0.01466127,0.00233164,-0.04585150,
 0.06305704,0.00099039,0.00017984,0.00124594,-0.07418333,0.07703222,-0.
 21326939,-0.00039368,-0.00141646,0.00125734,-0.00775980,0.01082196,-0.
 00797755,0.07870771,-0.08841851,0.21366704,-0.09780370,-0.02851142,-0.
 06606481,-0.00307936,0.00536553,-0.00200667,0.01044725,-0.00048248,-0.
 00980599,-0.00174527,-0.00328553,0.00122349,-0.00039381,0.00223241,-0.
 00096970,0.12987516,-0.04963828,-0.02442940,-0.04171652,-0.00349656,0.
 00569562,-0.00318996,0.00458567,0.00369236,-0.00158765,-0.00060635,-0.
 00187151,0.00106837,-0.00028596,0.00116993,-0.00044175,0.06867099,0.04
 903397,-0.06653535,-0.02704487,-0.04648721,-0.00735093,0.00729119,-0.0
 0010913,0.00025684,-0.00124176,-0.02003934,-0.00052563,-0.00200254,0.0
 0084230,-0.00001633,0.00059876,-0.00025152,0.06503525,0.03621275,0.056
 03892,-0.12451166,-0.08154684,0.01630897,-0.15767712,0.03922760,-0.013
 46152,-0.01729317,-0.01282751,0.00068508,-0.01922582,0.01393603,0.0055
 7262,-0.01589082,0.01421866,0.00067761,-0.00130835,0.01553322,0.024736
 83,0.46406531,0.03182803,0.00827676,0.00852672,0.03788430,-0.08263212,
 -0.00112202,-0.00720833,0.01061249,0.00483667,0.00952322,0.01110035,0.
 00254553,0.01939573,0.01135444,0.00350417,-0.03550662,-0.02086127,-0.0
 1669915,-0.22524684,0.33986513,-0.00601141,0.01114851,-0.02145856,-0.0
 1325012,0.01359085,-0.07029506,0.01743115,-0.00448860,-0.00398079,0.01
 694260,-0.00365630,0.00801576,-0.01642774,0.00409064,0.00823951,0.0053
 7108,0.00823168,0.00459746,-0.00884234,-0.00877954,0.10958978,-0.00770
 522,-0.00954157,0.00990442,-0.03633732,0.03268325,-0.00898422,-0.00528
 328,0.00613255,0.00707657,-0.00051829,-0.00425267,-0.00124955,0.000381
 43,0.00227700,0.00347542,-0.04275602,-0.03779584,-0.02010034,-0.118623
 47,0.14638226,0.00534315,0.25032913,-0.08945826,-0.16895475,0.04355948
 ,-0.00380463,-0.00627342,0.00674683,-0.00708381,-0.01138077,0.00371819
 ,-0.00134977,0.00113233,-0.00027890,-0.00079566,0.00052907,-0.00228643
 ,-0.00565972,-0.01160073,0.00402014,0.24732431,-0.28931022,-0.02217993
 ,-0.19324862,0.78204896,0.01785035,0.01037121,-0.03313416,0.00946029,-
 0.00393700,0.01348542,-0.00198450,0.01465101,0.00076301,-0.00228311,0.
 00110017,0.00048294,-0.00091617,0.00008764,-0.00300404,0.00930004,0.00
 090113,0.00623660,-0.03041816,0.00652636,-0.04275159,0.00887624,-0.052
 62385,0.09332968,-0.00410139,-0.02294295,0.00393800,0.00524441,-0.0010
 2079,0.00170055,0.00042553,-0.00216534,-0.00177109,-0.00009862,0.00073
 540,0.00002021,-0.00053418,-0.00096567,-0.00054463,0.00676410,0.003033
 11,0.00449966,-0.00953489,0.02294826,-0.00055637,-0.03948695,0.0540761
 6,-0.00988499,0.04132199,0.00451940,0.00198942,-0.00034295,0.00459335,
 -0.00042748,-0.00031899,-0.00063975,-0.00034246,0.00110865,0.00064061,
 -0.00043311,-0.00116249,0.00066273,-0.00005031,0.00102495,-0.00282316,
 -0.00082896,-0.00113451,-0.01061862,0.01159444,0.00204269,0.05736363,-
 0.29619047,0.02292335,-0.05369818,0.28468893,-0.00474989,0.00546934,0.
 00722376,0.00070570,-0.00065547,0.00187166,0.00265025,-0.00123399,-0.0
 0045951,-0.00011177,-0.00055671,-0.00038062,0.00059054,0.00060984,0.00
 009267,-0.00208269,0.00052195,-0.00082808,0.00474091,0.00066126,0.0080
 4348,-0.00434170,0.01932447,-0.03540784,0.00259865,-0.02414069,0.01984
 448\\-0.00001751,0.00003930,-0.00003645,0.00009792,-0.00001054,0.00004
 721,0.00000200,-0.00000196,0.00000811,0.00000037,-0.00000380,-0.000025
 62,-0.00004562,0.00001518,-0.00003764,0.00001701,0.00000185,0.00001095
 ,-0.00006335,0.00003210,0.00003451,-0.00000265,-0.00003550,-0.00000827
 ,0.00001182,-0.00003664,0.00000719\\\@


 IF OTHER PEOPLE ARE GOING TO TALK, CONVERSATION IS SIMPLY IMPOSSIBLE.

                                               -- WHISTLER'S PRINCIPLE
 Job cpu time:       0 days  1 hours 11 minutes  1.4 seconds.
 File lengths (MBytes):  RWF=     79 Int=      0 D2E=      0 Chk=      5 Scr=      1
 Normal termination of Gaussian 09 at Mon Jun 20 10:49:40 2016.
