 Entering Gaussian System, Link 0=/home/proyectos/fulerenos/M3C-v2.0/M3C-deps_CCC/g09-AM64L-G09RevC.01/g09
 Initial command:
 /home/proyectos/fulerenos/M3C-v2.0/M3C-deps_CCC/g09-AM64L-G09RevC.01/l1.exe "/scratch/naguirre/gaussian/Gau-20648.inp" -scrdir="/scratch/naguirre/gaussian/"
 Entering Link 1 = /home/proyectos/fulerenos/M3C-v2.0/M3C-deps_CCC/g09-AM64L-G09RevC.01/l1.exe PID=     20654.
  
 Copyright (c) 1988,1990,1992,1993,1995,1998,2003,2009,2015,
            Gaussian, Inc.  All Rights Reserved.
  
 This is part of the Gaussian(R) 09 program.  It is based on
 the Gaussian(R) 03 system (copyright 2003, Gaussian, Inc.),
 the Gaussian(R) 98 system (copyright 1998, Gaussian, Inc.),
 the Gaussian(R) 94 system (copyright 1995, Gaussian, Inc.),
 the Gaussian 92(TM) system (copyright 1992, Gaussian, Inc.),
 the Gaussian 90(TM) system (copyright 1990, Gaussian, Inc.),
 the Gaussian 88(TM) system (copyright 1988, Gaussian, Inc.),
 the Gaussian 86(TM) system (copyright 1986, Carnegie Mellon
 University), and the Gaussian 82(TM) system (copyright 1983,
 Carnegie Mellon University). Gaussian is a federally registered
 trademark of Gaussian, Inc.
  
 This software contains proprietary and confidential information,
 including trade secrets, belonging to Gaussian, Inc.
  
 This software is provided under written license and may be
 used, copied, transmitted, or stored only in accord with that
 written license.
  
 The following legend is applicable only to US Government
 contracts under FAR:
  
                    RESTRICTED RIGHTS LEGEND
  
 Use, reproduction and disclosure by the US Government is
 subject to restrictions as set forth in subparagraphs (a)
 and (c) of the Commercial Computer Software - Restricted
 Rights clause in FAR 52.227-19.
  
 Gaussian, Inc.
 340 Quinnipiac St., Bldg. 40, Wallingford CT 06492
  
  
 ---------------------------------------------------------------
 Warning -- This program may not be used in any manner that
 competes with the business of Gaussian, Inc. or will provide
 assistance to any competitor of Gaussian, Inc.  The licensee
 of this program is prohibited from giving any competitor of
 Gaussian, Inc. access to this program.  By using this program,
 the user acknowledges that Gaussian, Inc. is engaged in the
 business of creating and licensing software in the field of
 computational chemistry and represents and warrants to the
 licensee that it is not a competitor of Gaussian, Inc. and that
 it will not use this program in any manner prohibited above.
 ---------------------------------------------------------------
  

 Cite this work as:
 Gaussian 09, Revision E.01,
 M. J. Frisch, G. W. Trucks, H. B. Schlegel, G. E. Scuseria, 
 M. A. Robb, J. R. Cheeseman, G. Scalmani, V. Barone, B. Mennucci, 
 G. A. Petersson, H. Nakatsuji, M. Caricato, X. Li, H. P. Hratchian, 
 A. F. Izmaylov, J. Bloino, G. Zheng, J. L. Sonnenberg, M. Hada, 
 M. Ehara, K. Toyota, R. Fukuda, J. Hasegawa, M. Ishida, T. Nakajima, 
 Y. Honda, O. Kitao, H. Nakai, T. Vreven, J. A. Montgomery, Jr., 
 J. E. Peralta, F. Ogliaro, M. Bearpark, J. J. Heyd, E. Brothers, 
 K. N. Kudin, V. N. Staroverov, T. Keith, R. Kobayashi, J. Normand, 
 K. Raghavachari, A. Rendell, J. C. Burant, S. S. Iyengar, J. Tomasi, 
 M. Cossi, N. Rega, J. M. Millam, M. Klene, J. E. Knox, J. B. Cross, 
 V. Bakken, C. Adamo, J. Jaramillo, R. Gomperts, R. E. Stratmann, 
 O. Yazyev, A. J. Austin, R. Cammi, C. Pomelli, J. W. Ochterski, 
 R. L. Martin, K. Morokuma, V. G. Zakrzewski, G. A. Voth, 
 P. Salvador, J. J. Dannenberg, S. Dapprich, A. D. Daniels, 
 O. Farkas, J. B. Foresman, J. V. Ortiz, J. Cioslowski, 
 and D. J. Fox, Gaussian, Inc., Wallingford CT, 2013.
 
 ******************************************
 Gaussian 09:  EM64L-G09RevE.01 30-Nov-2015
                31-Jan-2019 
 ******************************************
 %NProcShared=4
 Will use up to    4 processors via shared memory.
 ------------------------------------------------------
 #p b3lyp/6-311++G(3df,2p) freq IOp(2/17=3) IOp(2/18=3)
 ------------------------------------------------------
 1/10=4,30=1,38=1/1,3;
 2/12=2,17=3,18=3,40=1/2;
 3/5=4,6=6,7=1216,11=2,16=1,25=1,30=1,71=2,74=-5,140=1/1,2,3;
 4//1;
 5/5=2,38=5,98=1/2;
 8/6=4,10=90,11=11/1;
 11/6=1,8=1,9=11,15=111,16=1/1,2,10;
 10/6=1/2;
 6/7=2,8=2,9=2,10=2,18=1,28=1/1;
 7/8=1,10=1,25=1/1,2,3,16;
 1/10=4,30=1/3;
 99//99;
 Leave Link    1 at Thu Jan 31 06:41:43 2019, MaxMem=           0 cpu:         0.2
 (Enter /home/proyectos/fulerenos/M3C-v2.0/M3C-deps_CCC/g09-AM64L-G09RevC.01/l101.exe)
 ---------
 b3lyp opt
 ---------
 Symbolic Z-matrix:
 Charge =  0 Multiplicity = 3
 C                    -0.32839  -1.07652   0.00003 
 C                    -0.30465   0.93509  -0.00001 
 H                    -0.22572   1.52901   0.90429 
 H                    -0.22583   1.52897  -0.90435 
 H                    -2.08714  -0.09292   0.891 
 C                    -1.45988  -0.10126   0.00009 
 H                    -2.08726  -0.09296  -0.89075 
 C                     0.78526  -0.25088  -0.00006 
 C                     2.07866   0.01489  -0.00015 
 
 NAtoms=      9 NQM=        9 NQMF=       0 NMMI=      0 NMMIF=      0
                NMic=       0 NMicF=      0.
                    Isotopes and Nuclear Properties:
 (Nuclear quadrupole moments (NQMom) in fm**2, nuclear magnetic moments (NMagM)
  in nuclear magnetons)

  Atom         1           2           3           4           5           6           7           8           9
 IAtWgt=          12          12           1           1           1          12           1          12          12
 AtmWgt=  12.0000000  12.0000000   1.0078250   1.0078250   1.0078250  12.0000000   1.0078250  12.0000000  12.0000000
 NucSpn=           0           0           1           1           1           0           1           0           0
 AtZEff=   0.0000000   0.0000000   0.0000000   0.0000000   0.0000000   0.0000000   0.0000000   0.0000000   0.0000000
 NQMom=    0.0000000   0.0000000   0.0000000   0.0000000   0.0000000   0.0000000   0.0000000   0.0000000   0.0000000
 NMagM=    0.0000000   0.0000000   2.7928460   2.7928460   2.7928460   0.0000000   2.7928460   0.0000000   0.0000000
 AtZNuc=   6.0000000   6.0000000   1.0000000   1.0000000   1.0000000   6.0000000   1.0000000   6.0000000   6.0000000
 Leave Link  101 at Thu Jan 31 06:41:43 2019, MaxMem=    33554432 cpu:         0.4
 (Enter /home/proyectos/fulerenos/M3C-v2.0/M3C-deps_CCC/g09-AM64L-G09RevC.01/l103.exe)

 GradGradGradGradGradGradGradGradGradGradGradGradGradGradGradGradGradGrad
 Berny optimization.
 Initialization pass.
 Trust Radius=3.00D-01 FncErr=1.00D-07 GrdErr=1.00D-07
 Number of steps in this run=      2 maximum allowed number of steps=      2.
 GradGradGradGradGradGradGradGradGradGradGradGradGradGradGradGradGradGrad

 Leave Link  103 at Thu Jan 31 06:41:43 2019, MaxMem=    33554432 cpu:         0.1
 (Enter /home/proyectos/fulerenos/M3C-v2.0/M3C-deps_CCC/g09-AM64L-G09RevC.01/l202.exe)
                          Input orientation:                          
 ---------------------------------------------------------------------
 Center     Atomic      Atomic             Coordinates (Angstroms)
 Number     Number       Type             X           Y           Z
 ---------------------------------------------------------------------
      1          6           0       -0.328389   -1.076519    0.000033
      2          6           0       -0.304654    0.935091   -0.000012
      3          1           0       -0.225717    1.529008    0.904289
      4          1           0       -0.225834    1.528968   -0.904351
      5          1           0       -2.087143   -0.092924    0.890996
      6          6           0       -1.459884   -0.101260    0.000085
      7          1           0       -2.087258   -0.092964   -0.890746
      8          6           0        0.785262   -0.250880   -0.000057
      9          6           0        2.078657    0.014887   -0.000146
 ---------------------------------------------------------------------
                    Distance matrix (angstroms):
                    1          2          3          4          5
     1  C    0.000000
     2  C    2.011750   0.000000
     3  H    2.759890   1.084772   0.000000
     4  H    2.759890   1.084772   1.808640   0.000000
     5  H    2.203291   2.242316   2.468957   3.052585   0.000000
     6  C    1.493791   1.551960   2.235739   2.235739   1.089608
     7  H    2.203291   2.242316   3.052585   2.468957   1.781742
     8  C    1.386325   1.610728   2.237839   2.237839   3.011584
     9  C    2.642922   2.554789   2.901845   2.901845   4.261414
                    6          7          8          9
     6  C    0.000000
     7  H    1.089608   0.000000
     8  C    2.250126   3.011584   0.000000
     9  C    3.540447   4.261414   1.320418   0.000000
 Stoichiometry    C5H4(3)
 Framework group  CS[SG(C5),X(H4)]
 Deg. of freedom    13
 Full point group                 CS      NOp   2
 Largest Abelian subgroup         CS      NOp   2
 Largest concise Abelian subgroup CS      NOp   2
                         Standard orientation:                         
 ---------------------------------------------------------------------
 Center     Atomic      Atomic             Coordinates (Angstroms)
 Number     Number       Type             X           Y           Z
 ---------------------------------------------------------------------
      1          6           0       -0.645714   -0.921838    0.000000
      2          6           0        0.000000    0.983468    0.000000
      3          1           0        0.259035    1.523717    0.904301
      4          1           0        0.259035    1.523717   -0.904301
      5          1           0       -2.013262    0.558192    0.891008
      6          6           0       -1.419440    0.355957    0.000000
      7          1           0       -2.013262    0.558192   -0.891008
      8          6           0        0.668918   -0.481794    0.000000
      9          6           0        1.981019   -0.629762    0.000000
 ---------------------------------------------------------------------
 Rotational constants (GHZ):     15.2553257      5.1028304      4.0214792
 Leave Link  202 at Thu Jan 31 06:41:43 2019, MaxMem=    33554432 cpu:         0.0
 (Enter /home/proyectos/fulerenos/M3C-v2.0/M3C-deps_CCC/g09-AM64L-G09RevC.01/l301.exe)
 Standard basis: 6-311++G(3df,2p) (5D, 7F)
 Ernie: Thresh=  0.10000D-02 Tol=  0.10000D-05 Strict=F.
 There are   175 symmetry adapted cartesian basis functions of A'  symmetry.
 There are    90 symmetry adapted cartesian basis functions of A"  symmetry.
 There are   150 symmetry adapted basis functions of A'  symmetry.
 There are    85 symmetry adapted basis functions of A"  symmetry.
   235 basis functions,   338 primitive gaussians,   265 cartesian basis functions
    18 alpha electrons       16 beta electrons
       nuclear repulsion energy       135.5320602463 Hartrees.
 IExCor=  402 DFT=T Ex+Corr=B3LYP ExCW=0 ScaHFX=  0.200000
 ScaDFX=  0.800000  0.720000  1.000000  0.810000 ScalE2=  1.000000  1.000000
 IRadAn=      0 IRanWt=     -1 IRanGd=            0 ICorTp=0 IEmpDi=  4
 NAtoms=    9 NActive=    9 NUniq=    7 SFac= 1.65D+00 NAtFMM=   60 NAOKFM=F Big=F
 Integral buffers will be    131072 words long.
 Raffenetti 2 integral format.
 Two-electron integral symmetry is turned on.
 Leave Link  301 at Thu Jan 31 06:41:43 2019, MaxMem=    33554432 cpu:         0.3
 (Enter /home/proyectos/fulerenos/M3C-v2.0/M3C-deps_CCC/g09-AM64L-G09RevC.01/l302.exe)
 NPDir=0 NMtPBC=     1 NCelOv=     1 NCel=       1 NClECP=     1 NCelD=      1
         NCelK=      1 NCelE2=     1 NClLst=     1 CellRange=     0.0.
 One-electron integrals computed using PRISM.
 One-electron integral symmetry used in STVInt
 NBasis=   235 RedAO= T EigKep=  5.66D-06  NBF=   150    85
 NBsUse=   235 1.00D-06 EigRej= -1.00D+00 NBFU=   150    85
 Precomputing XC quadrature grid using
 IXCGrd= 4 IRadAn=           0 IRanWt=          -1 IRanGd=           0 AccXCQ= 0.00D+00.
 Generated NRdTot=       0 NPtTot=           0 NUsed=           0 NTot=          32
 NSgBfM=   265   265   265   265   265 MxSgAt=     9 MxSgA2=     9.
 Leave Link  302 at Thu Jan 31 06:41:44 2019, MaxMem=    33554432 cpu:         1.7
 (Enter /home/proyectos/fulerenos/M3C-v2.0/M3C-deps_CCC/g09-AM64L-G09RevC.01/l303.exe)
 DipDrv:  MaxL=1.
 Leave Link  303 at Thu Jan 31 06:41:44 2019, MaxMem=    33554432 cpu:         0.3
 (Enter /home/proyectos/fulerenos/M3C-v2.0/M3C-deps_CCC/g09-AM64L-G09RevC.01/l401.exe)
 ExpMin= 3.60D-02 ExpMax= 4.56D+03 ExpMxC= 6.82D+02 IAcc=3 IRadAn=         5 AccDes= 0.00D+00
 Harris functional with IExCor=  402 and IRadAn=       5 diagonalized for initial guess.
 HarFok:  IExCor=  402 AccDes= 0.00D+00 IRadAn=         5 IDoV= 1 UseB2=F ITyADJ=14
 ICtDFT=  3500011 ScaDFX=  1.000000  1.000000  1.000000  1.000000
 FoFCou: FMM=F IPFlag=           0 FMFlag=      100000 FMFlg1=           0
         NFxFlg=           0 DoJE=T BraDBF=F KetDBF=T FulRan=T
         wScrn=  0.000000 ICntrl=     500 IOpCl=  0 I1Cent=   200000004 NGrid=           0
         NMat0=    1 NMatS0=      1 NMatT0=    0 NMatD0=    1 NMtDS0=    0 NMtDT0=    0
 Petite list used in FoFCou.
 Harris En= -192.663057555367    
 JPrj=0 DoOrth=F DoCkMO=F.
 Initial guess orbital symmetries:
 Alpha Orbitals:
       Occupied  (A') (A') (A') (A') (A') (A') (A') (A') (A') (A")
                 (A') (A') (A') (A") (A") (A') (A') (A")
       Virtual   (A') (A") (A') (A') (A") (A') (A') (A') (A") (A')
                 (A') (A") (A') (A') (A") (A') (A') (A') (A") (A')
                 (A") (A') (A") (A') (A') (A") (A') (A') (A') (A')
                 (A') (A") (A") (A') (A') (A') (A") (A') (A') (A")
                 (A') (A') (A') (A") (A') (A") (A') (A") (A') (A")
                 (A') (A') (A") (A') (A") (A') (A') (A") (A') (A')
                 (A") (A') (A") (A') (A') (A") (A') (A') (A") (A')
                 (A") (A") (A') (A') (A') (A') (A") (A') (A") (A')
                 (A') (A') (A") (A') (A") (A') (A") (A') (A") (A')
                 (A') (A") (A') (A') (A") (A') (A') (A") (A') (A")
                 (A') (A') (A') (A") (A") (A") (A') (A') (A') (A")
                 (A') (A') (A') (A") (A') (A") (A') (A') (A") (A')
                 (A") (A') (A") (A') (A') (A") (A') (A") (A') (A")
                 (A') (A") (A") (A') (A") (A') (A") (A') (A') (A')
                 (A") (A") (A') (A") (A') (A') (A') (A") (A') (A")
                 (A') (A') (A") (A') (A") (A') (A') (A") (A') (A')
                 (A") (A") (A') (A') (A') (A") (A') (A') (A") (A')
                 (A') (A') (A") (A') (A") (A') (A") (A') (A") (A')
                 (A') (A") (A') (A") (A') (A") (A') (A") (A") (A')
                 (A') (A') (A") (A") (A') (A") (A") (A') (A') (A')
                 (A") (A") (A') (A') (A') (A") (A') (A') (A') (A")
                 (A') (A') (A') (A') (A') (A') (A')
 Beta  Orbitals:
       Occupied  (A') (A') (A') (A') (A') (A') (A') (A') (A') (A")
                 (A') (A') (A') (A") (A") (A')
       Virtual   (A') (A") (A') (A") (A') (A') (A") (A') (A') (A')
                 (A") (A') (A') (A") (A') (A') (A") (A') (A') (A')
                 (A") (A') (A") (A') (A") (A') (A') (A") (A') (A')
                 (A') (A') (A') (A") (A") (A') (A') (A') (A") (A')
                 (A') (A") (A') (A') (A') (A") (A') (A") (A') (A")
                 (A') (A") (A') (A') (A") (A') (A") (A') (A') (A")
                 (A') (A') (A") (A') (A") (A') (A') (A") (A') (A')
                 (A") (A') (A") (A") (A') (A') (A') (A') (A") (A')
                 (A") (A') (A') (A') (A") (A') (A") (A') (A") (A')
                 (A") (A') (A') (A") (A') (A') (A") (A') (A') (A")
                 (A') (A") (A') (A') (A') (A") (A") (A") (A') (A')
                 (A') (A") (A') (A') (A') (A") (A') (A") (A') (A')
                 (A") (A') (A") (A') (A") (A') (A') (A") (A') (A")
                 (A') (A") (A') (A") (A") (A') (A") (A') (A") (A')
                 (A') (A') (A") (A") (A') (A") (A') (A') (A') (A")
                 (A') (A") (A') (A') (A") (A') (A") (A') (A') (A")
                 (A') (A') (A") (A") (A') (A') (A') (A") (A') (A')
                 (A") (A') (A') (A') (A") (A') (A") (A') (A") (A')
                 (A") (A') (A') (A") (A') (A") (A') (A") (A') (A")
                 (A") (A') (A') (A') (A") (A") (A') (A") (A") (A')
                 (A') (A') (A") (A") (A') (A') (A') (A") (A') (A')
                 (A') (A") (A') (A') (A') (A') (A') (A') (A')
 The electronic state of the initial guess is 3-A".
 Initial guess <Sx>= 0.0000 <Sy>= 0.0000 <Sz>= 1.0000 <S**2>= 2.0000 S= 1.0000
 Leave Link  401 at Thu Jan 31 06:41:46 2019, MaxMem=    33554432 cpu:         7.9
 (Enter /home/proyectos/fulerenos/M3C-v2.0/M3C-deps_CCC/g09-AM64L-G09RevC.01/l502.exe)
 UHF open shell SCF:
 Using DIIS extrapolation, IDIIS=  1040.
 Integral symmetry usage will be decided dynamically.
 IVT=      233035 IEndB=      233035 NGot=    33554432 MDV=    33408528
 LenX=    33408528 LenY=    33337862
 Requested convergence on RMS density matrix=1.00D-08 within 128 cycles.
 Requested convergence on MAX density matrix=1.00D-06.
 Requested convergence on             energy=1.00D-06.
 No special actions if energy rises.
 Fock matrices will be formed incrementally for  20 cycles.

 Cycle   1  Pass 1  IDiag  1:
 FoFJK:  IHMeth= 1 ICntrl=       0 DoSepK=F KAlg= 0 I1Cent=   0 FoldK=F
 IRaf= 990000000 NMat=   1 IRICut=       1 DoRegI=T DoRafI=F ISym2E= 1.
 FoFCou: FMM=F IPFlag=           0 FMFlag=      100000 FMFlg1=           0
         NFxFlg=           0 DoJE=F BraDBF=F KetDBF=F FulRan=T
         wScrn=  0.000000 ICntrl=       0 IOpCl=  1 I1Cent=           0 NGrid=           0
         NMat0=    1 NMatS0=      1 NMatT0=    0 NMatD0=    1 NMtDS0=    0 NMtDT0=    0
 Petite list used in FoFCou.
 E= -192.599294329141    
 DIIS: error= 1.89D-02 at cycle   1 NSaved=   1.
 NSaved= 1 IEnMin= 1 EnMin= -192.599294329141     IErMin= 1 ErrMin= 1.89D-02
 ErrMax= 1.89D-02  0.00D+00 EMaxC= 1.00D-01 BMatC= 3.83D-01 BMatP= 3.83D-01
 IDIUse=3 WtCom= 8.11D-01 WtEn= 1.89D-01
 Coeff-Com:  0.100D+01
 Coeff-En:   0.100D+01
 Coeff:      0.100D+01
 Gap=     0.111 Goal=   None    Shift=    0.000
 Gap=     0.117 Goal=   None    Shift=    0.000
 GapD=    0.111 DampG=1.000 DampE=0.500 DampFc=0.5000 IDamp=-1.
 Damping current iteration by 5.00D-01
 RMSDP=6.81D-03 MaxDP=5.13D-01              OVMax= 1.73D-01

 Cycle   2  Pass 1  IDiag  1:
 RMSU=  3.14D-03    CP:  9.21D-01
 E= -192.639124581016     Delta-E=       -0.039830251875 Rises=F Damp=T
 DIIS: error= 6.94D-03 at cycle   2 NSaved=   2.
 NSaved= 2 IEnMin= 2 EnMin= -192.639124581016     IErMin= 2 ErrMin= 6.94D-03
 ErrMax= 6.94D-03  0.00D+00 EMaxC= 1.00D-01 BMatC= 3.88D-02 BMatP= 3.83D-01
 IDIUse=3 WtCom= 9.31D-01 WtEn= 6.94D-02
 Coeff-Com:  0.470D-01 0.953D+00
 Coeff-En:   0.116D+00 0.884D+00
 Coeff:      0.518D-01 0.948D+00
 Gap=     0.095 Goal=   None    Shift=    0.000
 Gap=     0.168 Goal=   None    Shift=    0.000
 RMSDP=2.34D-03 MaxDP=1.61D-01 DE=-3.98D-02 OVMax= 1.59D-01

 Cycle   3  Pass 1  IDiag  1:
 RMSU=  2.14D-03    CP:  9.02D-01  1.28D+00
 E= -192.686050737816     Delta-E=       -0.046926156800 Rises=F Damp=F
 DIIS: error= 6.67D-03 at cycle   3 NSaved=   3.
 NSaved= 3 IEnMin= 3 EnMin= -192.686050737816     IErMin= 3 ErrMin= 6.67D-03
 ErrMax= 6.67D-03  0.00D+00 EMaxC= 1.00D-01 BMatC= 3.65D-02 BMatP= 3.88D-02
 IDIUse=3 WtCom= 9.33D-01 WtEn= 6.67D-02
 Coeff-Com: -0.621D-01 0.513D+00 0.549D+00
 Coeff-En:   0.000D+00 0.000D+00 0.100D+01
 Coeff:     -0.580D-01 0.479D+00 0.579D+00
 Gap=     0.102 Goal=   None    Shift=    0.000
 Gap=     0.147 Goal=   None    Shift=    0.000
 RMSDP=1.94D-03 MaxDP=1.90D-01 DE=-4.69D-02 OVMax= 9.73D-02

 Cycle   4  Pass 1  IDiag  1:
 RMSU=  1.17D-03    CP:  8.86D-01  1.28D+00  2.90D-01
 E= -192.692100004959     Delta-E=       -0.006049267143 Rises=F Damp=F
 DIIS: error= 6.26D-03 at cycle   4 NSaved=   4.
 NSaved= 4 IEnMin= 4 EnMin= -192.692100004959     IErMin= 4 ErrMin= 6.26D-03
 ErrMax= 6.26D-03  0.00D+00 EMaxC= 1.00D-01 BMatC= 1.62D-02 BMatP= 3.65D-02
 IDIUse=3 WtCom= 9.37D-01 WtEn= 6.26D-02
 Coeff-Com: -0.528D-01 0.201D+00 0.419D+00 0.433D+00
 Coeff-En:   0.000D+00 0.000D+00 0.324D+00 0.676D+00
 Coeff:     -0.495D-01 0.189D+00 0.413D+00 0.448D+00
 Gap=     0.097 Goal=   None    Shift=    0.000
 Gap=     0.163 Goal=   None    Shift=    0.000
 RMSDP=6.16D-04 MaxDP=3.69D-02 DE=-6.05D-03 OVMax= 4.56D-02

 Cycle   5  Pass 1  IDiag  1:
 RMSU=  3.60D-04    CP:  8.88D-01  1.24D+00  4.80D-01  7.80D-01
 E= -192.696410275858     Delta-E=       -0.004310270898 Rises=F Damp=F
 DIIS: error= 1.91D-03 at cycle   5 NSaved=   5.
 NSaved= 5 IEnMin= 5 EnMin= -192.696410275858     IErMin= 5 ErrMin= 1.91D-03
 ErrMax= 1.91D-03  0.00D+00 EMaxC= 1.00D-01 BMatC= 1.83D-03 BMatP= 1.62D-02
 IDIUse=3 WtCom= 9.81D-01 WtEn= 1.91D-02
 Coeff-Com: -0.206D-01 0.298D-01 0.168D+00 0.286D+00 0.537D+00
 Coeff-En:   0.000D+00 0.000D+00 0.000D+00 0.677D-01 0.932D+00
 Coeff:     -0.202D-01 0.293D-01 0.165D+00 0.281D+00 0.545D+00
 Gap=     0.099 Goal=   None    Shift=    0.000
 Gap=     0.158 Goal=   None    Shift=    0.000
 RMSDP=2.51D-04 MaxDP=1.46D-02 DE=-4.31D-03 OVMax= 2.58D-02

 Cycle   6  Pass 1  IDiag  1:
 RMSU=  1.50D-04    CP:  8.87D-01  1.28D+00  4.77D-01  8.85D-01  7.77D-01
 E= -192.696990622996     Delta-E=       -0.000580347139 Rises=F Damp=F
 DIIS: error= 8.91D-04 at cycle   6 NSaved=   6.
 NSaved= 6 IEnMin= 6 EnMin= -192.696990622996     IErMin= 6 ErrMin= 8.91D-04
 ErrMax= 8.91D-04  0.00D+00 EMaxC= 1.00D-01 BMatC= 3.08D-04 BMatP= 1.83D-03
 IDIUse=3 WtCom= 9.91D-01 WtEn= 8.91D-03
 Coeff-Com:  0.988D-03-0.292D-01-0.211D-01 0.106D-01 0.299D+00 0.740D+00
 Coeff-En:   0.000D+00 0.000D+00 0.000D+00 0.000D+00 0.272D-01 0.973D+00
 Coeff:      0.980D-03-0.289D-01-0.210D-01 0.105D-01 0.296D+00 0.742D+00
 Gap=     0.101 Goal=   None    Shift=    0.000
 Gap=     0.160 Goal=   None    Shift=    0.000
 RMSDP=1.24D-04 MaxDP=8.33D-03 DE=-5.80D-04 OVMax= 6.93D-03

 Cycle   7  Pass 1  IDiag  1:
 RMSU=  5.60D-05    CP:  8.87D-01  1.27D+00  4.70D-01  9.44D-01  9.89D-01
                    CP:  1.22D+00
 E= -192.697123601664     Delta-E=       -0.000132978667 Rises=F Damp=F
 DIIS: error= 1.89D-04 at cycle   7 NSaved=   7.
 NSaved= 7 IEnMin= 7 EnMin= -192.697123601664     IErMin= 7 ErrMin= 1.89D-04
 ErrMax= 1.89D-04  0.00D+00 EMaxC= 1.00D-01 BMatC= 2.61D-05 BMatP= 3.08D-04
 IDIUse=3 WtCom= 9.98D-01 WtEn= 1.89D-03
 Coeff-Com:  0.372D-02-0.122D-01-0.403D-01-0.561D-01-0.109D-03 0.229D+00
 Coeff-Com:  0.876D+00
 Coeff-En:   0.000D+00 0.000D+00 0.000D+00 0.000D+00 0.000D+00 0.000D+00
 Coeff-En:   0.100D+01
 Coeff:      0.371D-02-0.122D-01-0.402D-01-0.559D-01-0.109D-03 0.228D+00
 Coeff:      0.877D+00
 Gap=     0.101 Goal=   None    Shift=    0.000
 Gap=     0.160 Goal=   None    Shift=    0.000
 RMSDP=8.58D-05 MaxDP=7.06D-03 DE=-1.33D-04 OVMax= 5.62D-03

 Cycle   8  Pass 1  IDiag  1:
 RMSU=  3.11D-05    CP:  8.88D-01  1.27D+00  4.61D-01  9.95D-01  1.05D+00
                    CP:  1.46D+00  1.40D+00
 E= -192.697145209643     Delta-E=       -0.000021607979 Rises=F Damp=F
 DIIS: error= 1.44D-04 at cycle   8 NSaved=   8.
 NSaved= 8 IEnMin= 8 EnMin= -192.697145209643     IErMin= 8 ErrMin= 1.44D-04
 ErrMax= 1.44D-04  0.00D+00 EMaxC= 1.00D-01 BMatC= 7.82D-06 BMatP= 2.61D-05
 IDIUse=3 WtCom= 9.99D-01 WtEn= 1.44D-03
 Coeff-Com:  0.143D-02-0.455D-03-0.158D-01-0.288D-01-0.453D-01-0.280D-01
 Coeff-Com:  0.408D+00 0.709D+00
 Coeff-En:   0.000D+00 0.000D+00 0.000D+00 0.000D+00 0.000D+00 0.000D+00
 Coeff-En:   0.000D+00 0.100D+01
 Coeff:      0.143D-02-0.454D-03-0.158D-01-0.287D-01-0.453D-01-0.279D-01
 Coeff:      0.407D+00 0.710D+00
 Gap=     0.102 Goal=   None    Shift=    0.000
 Gap=     0.160 Goal=   None    Shift=    0.000
 RMSDP=2.46D-05 MaxDP=9.08D-04 DE=-2.16D-05 OVMax= 2.09D-03

 Cycle   9  Pass 1  IDiag  1:
 RMSU=  1.23D-05    CP:  8.88D-01  1.27D+00  4.61D-01  1.01D+00  1.07D+00
                    CP:  1.55D+00  1.55D+00  1.03D+00
 E= -192.697150744546     Delta-E=       -0.000005534903 Rises=F Damp=F
 DIIS: error= 4.59D-05 at cycle   9 NSaved=   9.
 NSaved= 9 IEnMin= 9 EnMin= -192.697150744546     IErMin= 9 ErrMin= 4.59D-05
 ErrMax= 4.59D-05  0.00D+00 EMaxC= 1.00D-01 BMatC= 1.26D-06 BMatP= 7.82D-06
 IDIUse=1 WtCom= 1.00D+00 WtEn= 0.00D+00
 Coeff-Com: -0.864D-03 0.232D-02 0.749D-02 0.891D-02 0.115D-01-0.412D-01
 Coeff-Com: -0.162D+00-0.614D-01 0.124D+01
 Coeff:     -0.864D-03 0.232D-02 0.749D-02 0.891D-02 0.115D-01-0.412D-01
 Coeff:     -0.162D+00-0.614D-01 0.124D+01
 Gap=     0.102 Goal=   None    Shift=    0.000
 Gap=     0.160 Goal=   None    Shift=    0.000
 RMSDP=1.84D-05 MaxDP=9.60D-04 DE=-5.53D-06 OVMax= 2.13D-03

 Cycle  10  Pass 1  IDiag  1:
 RMSU=  8.63D-06    CP:  8.88D-01  1.27D+00  4.61D-01  1.01D+00  1.08D+00
                    CP:  1.59D+00  1.65D+00  1.18D+00  1.86D+00
 E= -192.697153583880     Delta-E=       -0.000002839333 Rises=F Damp=F
 DIIS: error= 2.86D-05 at cycle  10 NSaved=  10.
 NSaved=10 IEnMin=10 EnMin= -192.697153583880     IErMin=10 ErrMin= 2.86D-05
 ErrMax= 2.86D-05  0.00D+00 EMaxC= 1.00D-01 BMatC= 4.51D-07 BMatP= 1.26D-06
 IDIUse=1 WtCom= 1.00D+00 WtEn= 0.00D+00
 Coeff-Com: -0.167D-03-0.146D-03 0.313D-02 0.545D-02 0.893D-02 0.763D-02
 Coeff-Com: -0.807D-01-0.160D+00-0.817D-02 0.122D+01
 Coeff:     -0.167D-03-0.146D-03 0.313D-02 0.545D-02 0.893D-02 0.763D-02
 Coeff:     -0.807D-01-0.160D+00-0.817D-02 0.122D+01
 Gap=     0.102 Goal=   None    Shift=    0.000
 Gap=     0.160 Goal=   None    Shift=    0.000
 RMSDP=1.42D-05 MaxDP=8.31D-04 DE=-2.84D-06 OVMax= 1.97D-03

 Cycle  11  Pass 1  IDiag  1:
 RMSU=  3.94D-06    CP:  8.88D-01  1.27D+00  4.62D-01  1.01D+00  1.09D+00
                    CP:  1.61D+00  1.70D+00  1.26D+00  2.67D+00  1.82D+00
 E= -192.697155142748     Delta-E=       -0.000001558868 Rises=F Damp=F
 DIIS: error= 2.20D-05 at cycle  11 NSaved=  11.
 NSaved=11 IEnMin=11 EnMin= -192.697155142748     IErMin=11 ErrMin= 2.20D-05
 ErrMax= 2.20D-05  0.00D+00 EMaxC= 1.00D-01 BMatC= 3.01D-07 BMatP= 4.51D-07
 IDIUse=1 WtCom= 1.00D+00 WtEn= 0.00D+00
 Coeff-Com:  0.406D-03-0.123D-02-0.229D-02-0.235D-02-0.265D-02 0.249D-01
 Coeff-Com:  0.430D-01-0.546D-01-0.605D+00 0.644D+00 0.955D+00
 Coeff:      0.406D-03-0.123D-02-0.229D-02-0.235D-02-0.265D-02 0.249D-01
 Coeff:      0.430D-01-0.546D-01-0.605D+00 0.644D+00 0.955D+00
 Gap=     0.102 Goal=   None    Shift=    0.000
 Gap=     0.160 Goal=   None    Shift=    0.000
 RMSDP=1.28D-05 MaxDP=7.27D-04 DE=-1.56D-06 OVMax= 1.74D-03

 Cycle  12  Pass 1  IDiag  1:
 RMSU=  5.03D-06    CP:  8.88D-01  1.27D+00  4.62D-01  1.01D+00  1.10D+00
                    CP:  1.63D+00  1.74D+00  1.35D+00  3.00D+00  2.61D+00
                    CP:  1.95D+00
 E= -192.697156114114     Delta-E=       -0.000000971366 Rises=F Damp=F
 DIIS: error= 1.56D-05 at cycle  12 NSaved=  12.
 NSaved=12 IEnMin=12 EnMin= -192.697156114114     IErMin=12 ErrMin= 1.56D-05
 ErrMax= 1.56D-05  0.00D+00 EMaxC= 1.00D-01 BMatC= 1.28D-07 BMatP= 3.01D-07
 IDIUse=1 WtCom= 1.00D+00 WtEn= 0.00D+00
 Coeff-Com:  0.247D-03-0.367D-03-0.296D-02-0.460D-02-0.749D-02 0.441D-02
 Coeff-Com:  0.712D-01 0.926D-01-0.219D+00-0.645D+00 0.392D+00 0.132D+01
 Coeff:      0.247D-03-0.367D-03-0.296D-02-0.460D-02-0.749D-02 0.441D-02
 Coeff:      0.712D-01 0.926D-01-0.219D+00-0.645D+00 0.392D+00 0.132D+01
 Gap=     0.102 Goal=   None    Shift=    0.000
 Gap=     0.160 Goal=   None    Shift=    0.000
 RMSDP=1.49D-05 MaxDP=8.21D-04 DE=-9.71D-07 OVMax= 2.00D-03

 Cycle  13  Pass 1  IDiag  1:
 RMSU=  6.32D-06    CP:  8.88D-01  1.27D+00  4.63D-01  1.01D+00  1.10D+00
                    CP:  1.64D+00  1.77D+00  1.43D+00  3.00D+00  3.00D+00
                    CP:  3.00D+00  2.83D+00
 E= -192.697156736816     Delta-E=       -0.000000622702 Rises=F Damp=F
 DIIS: error= 6.75D-06 at cycle  13 NSaved=  13.
 NSaved=13 IEnMin=13 EnMin= -192.697156736816     IErMin=13 ErrMin= 6.75D-06
 ErrMax= 6.75D-06  0.00D+00 EMaxC= 1.00D-01 BMatC= 2.72D-08 BMatP= 1.28D-07
 IDIUse=1 WtCom= 1.00D+00 WtEn= 0.00D+00
 Coeff-Com: -0.915D-04 0.354D-03-0.891D-04-0.273D-03-0.124D-02-0.729D-02
 Coeff-Com:  0.137D-02 0.391D-01 0.161D+00-0.356D+00-0.280D+00 0.310D+00
 Coeff-Com:  0.113D+01
 Coeff:     -0.915D-04 0.354D-03-0.891D-04-0.273D-03-0.124D-02-0.729D-02
 Coeff:      0.137D-02 0.391D-01 0.161D+00-0.356D+00-0.280D+00 0.310D+00
 Coeff:      0.113D+01
 Gap=     0.102 Goal=   None    Shift=    0.000
 Gap=     0.160 Goal=   None    Shift=    0.000
 RMSDP=7.43D-06 MaxDP=4.25D-04 DE=-6.23D-07 OVMax= 1.03D-03

 Cycle  14  Pass 1  IDiag  1:
 RMSU=  4.75D-06    CP:  8.88D-01  1.27D+00  4.63D-01  1.01D+00  1.11D+00
                    CP:  1.65D+00  1.79D+00  1.45D+00  3.00D+00  3.00D+00
                    CP:  3.00D+00  3.00D+00  1.73D+00
 E= -192.697156852332     Delta-E=       -0.000000115516 Rises=F Damp=F
 DIIS: error= 2.77D-06 at cycle  14 NSaved=  14.
 NSaved=14 IEnMin=14 EnMin= -192.697156852332     IErMin=14 ErrMin= 2.77D-06
 ErrMax= 2.77D-06  0.00D+00 EMaxC= 1.00D-01 BMatC= 4.48D-09 BMatP= 2.72D-08
 IDIUse=1 WtCom= 1.00D+00 WtEn= 0.00D+00
 Coeff-Com: -0.634D-04 0.158D-03 0.480D-03 0.793D-03 0.580D-03-0.213D-02
 Coeff-Com: -0.121D-01-0.591D-02 0.778D-01 0.233D-01-0.147D+00-0.146D+00
 Coeff-Com:  0.250D+00 0.961D+00
 Coeff:     -0.634D-04 0.158D-03 0.480D-03 0.793D-03 0.580D-03-0.213D-02
 Coeff:     -0.121D-01-0.591D-02 0.778D-01 0.233D-01-0.147D+00-0.146D+00
 Coeff:      0.250D+00 0.961D+00
 Gap=     0.102 Goal=   None    Shift=    0.000
 Gap=     0.160 Goal=   None    Shift=    0.000
 RMSDP=2.09D-06 MaxDP=1.13D-04 DE=-1.16D-07 OVMax= 2.57D-04

 Cycle  15  Pass 1  IDiag  1:
 RMSU=  5.64D-07    CP:  8.88D-01  1.27D+00  4.63D-01  1.01D+00  1.11D+00
                    CP:  1.65D+00  1.79D+00  1.47D+00  3.00D+00  3.00D+00
                    CP:  3.00D+00  3.00D+00  1.91D+00  1.33D+00
 E= -192.697156861290     Delta-E=       -0.000000008958 Rises=F Damp=F
 DIIS: error= 9.27D-07 at cycle  15 NSaved=  15.
 NSaved=15 IEnMin=15 EnMin= -192.697156861290     IErMin=15 ErrMin= 9.27D-07
 ErrMax= 9.27D-07  0.00D+00 EMaxC= 1.00D-01 BMatC= 4.23D-10 BMatP= 4.48D-09
 IDIUse=1 WtCom= 1.00D+00 WtEn= 0.00D+00
 Coeff-Com:  0.107D-04-0.404D-04 0.607D-04 0.118D-03 0.603D-04 0.101D-02
 Coeff-Com: -0.129D-02-0.554D-02-0.125D-01 0.468D-01 0.250D-01-0.518D-01
 Coeff-Com: -0.135D+00 0.100D+00 0.103D+01
 Coeff:      0.107D-04-0.404D-04 0.607D-04 0.118D-03 0.603D-04 0.101D-02
 Coeff:     -0.129D-02-0.554D-02-0.125D-01 0.468D-01 0.250D-01-0.518D-01
 Coeff:     -0.135D+00 0.100D+00 0.103D+01
 Gap=     0.102 Goal=   None    Shift=    0.000
 Gap=     0.160 Goal=   None    Shift=    0.000
 RMSDP=4.25D-07 MaxDP=1.86D-05 DE=-8.96D-09 OVMax= 3.85D-05

 Cycle  16  Pass 1  IDiag  1:
 RMSU=  1.45D-07    CP:  8.88D-01  1.27D+00  4.63D-01  1.01D+00  1.11D+00
                    CP:  1.65D+00  1.79D+00  1.47D+00  3.00D+00  3.00D+00
                    CP:  3.00D+00  3.00D+00  1.95D+00  1.38D+00  1.02D+00
 E= -192.697156861777     Delta-E=       -0.000000000487 Rises=F Damp=F
 DIIS: error= 2.21D-07 at cycle  16 NSaved=  16.
 NSaved=16 IEnMin=16 EnMin= -192.697156861777     IErMin=16 ErrMin= 2.21D-07
 ErrMax= 2.21D-07  0.00D+00 EMaxC= 1.00D-01 BMatC= 1.83D-11 BMatP= 4.23D-10
 IDIUse=1 WtCom= 1.00D+00 WtEn= 0.00D+00
 Coeff-Com:  0.437D-05-0.982D-05-0.327D-04-0.553D-04-0.632D-04 0.770D-04
 Coeff-Com:  0.875D-03 0.986D-03-0.451D-02-0.428D-02 0.857D-02 0.122D-01
 Coeff-Com: -0.916D-02-0.804D-01-0.838D-01 0.116D+01
 Coeff:      0.437D-05-0.982D-05-0.327D-04-0.553D-04-0.632D-04 0.770D-04
 Coeff:      0.875D-03 0.986D-03-0.451D-02-0.428D-02 0.857D-02 0.122D-01
 Coeff:     -0.916D-02-0.804D-01-0.838D-01 0.116D+01
 Gap=     0.102 Goal=   None    Shift=    0.000
 Gap=     0.160 Goal=   None    Shift=    0.000
 RMSDP=9.24D-08 MaxDP=4.01D-06 DE=-4.87D-10 OVMax= 8.42D-06

 Cycle  17  Pass 1  IDiag  1:
 RMSU=  2.25D-08    CP:  8.88D-01  1.27D+00  4.63D-01  1.01D+00  1.11D+00
                    CP:  1.65D+00  1.79D+00  1.47D+00  3.00D+00  3.00D+00
                    CP:  3.00D+00  3.00D+00  1.95D+00  1.39D+00  1.07D+00
                    CP:  1.22D+00
 E= -192.697156861806     Delta-E=       -0.000000000029 Rises=F Damp=F
 DIIS: error= 5.03D-08 at cycle  17 NSaved=  17.
 NSaved=17 IEnMin=17 EnMin= -192.697156861806     IErMin=17 ErrMin= 5.03D-08
 ErrMax= 5.03D-08  0.00D+00 EMaxC= 1.00D-01 BMatC= 9.17D-13 BMatP= 1.83D-11
 IDIUse=1 WtCom= 1.00D+00 WtEn= 0.00D+00
 Coeff-Com: -0.780D-06 0.265D-05-0.143D-05-0.526D-05-0.350D-05-0.591D-04
 Coeff-Com:  0.133D-04 0.243D-03 0.109D-02-0.224D-02-0.219D-02 0.193D-02
 Coeff-Com:  0.760D-02 0.346D-02-0.348D-01-0.155D+00 0.118D+01
 Coeff:     -0.780D-06 0.265D-05-0.143D-05-0.526D-05-0.350D-05-0.591D-04
 Coeff:      0.133D-04 0.243D-03 0.109D-02-0.224D-02-0.219D-02 0.193D-02
 Coeff:      0.760D-02 0.346D-02-0.348D-01-0.155D+00 0.118D+01
 Gap=     0.102 Goal=   None    Shift=    0.000
 Gap=     0.160 Goal=   None    Shift=    0.000
 RMSDP=1.36D-08 MaxDP=7.39D-07 DE=-2.87D-11 OVMax= 1.53D-06

 Cycle  18  Pass 1  IDiag  1:
 RMSU=  6.65D-09    CP:  8.88D-01  1.27D+00  4.63D-01  1.01D+00  1.11D+00
                    CP:  1.65D+00  1.79D+00  1.47D+00  3.00D+00  3.00D+00
                    CP:  3.00D+00  3.00D+00  1.95D+00  1.39D+00  1.08D+00
                    CP:  1.25D+00  1.26D+00
 E= -192.697156861807     Delta-E=       -0.000000000001 Rises=F Damp=F
 DIIS: error= 1.39D-08 at cycle  18 NSaved=  18.
 NSaved=18 IEnMin=18 EnMin= -192.697156861807     IErMin=18 ErrMin= 1.39D-08
 ErrMax= 1.39D-08  0.00D+00 EMaxC= 1.00D-01 BMatC= 1.18D-13 BMatP= 9.17D-13
 IDIUse=1 WtCom= 1.00D+00 WtEn= 0.00D+00
 Coeff-Com: -0.391D-06 0.952D-06 0.232D-05 0.362D-05 0.473D-05-0.110D-04
 Coeff-Com: -0.665D-04-0.642D-04 0.508D-03 0.640D-04-0.872D-03-0.679D-03
 Coeff-Com:  0.123D-02 0.667D-02 0.626D-02-0.128D+00 0.140D+00 0.974D+00
 Coeff:     -0.391D-06 0.952D-06 0.232D-05 0.362D-05 0.473D-05-0.110D-04
 Coeff:     -0.665D-04-0.642D-04 0.508D-03 0.640D-04-0.872D-03-0.679D-03
 Coeff:      0.123D-02 0.667D-02 0.626D-02-0.128D+00 0.140D+00 0.974D+00
 Gap=     0.102 Goal=   None    Shift=    0.000
 Gap=     0.160 Goal=   None    Shift=    0.000
 RMSDP=3.86D-09 MaxDP=2.26D-07 DE=-7.39D-13 OVMax= 4.93D-07

 SCF Done:  E(UB3LYP) =  -192.697156862     A.U. after   18 cycles
            NFock= 18  Conv=0.39D-08     -V/T= 2.0046
 <Sx>= 0.0000 <Sy>= 0.0000 <Sz>= 1.0000 <S**2>= 2.0375 S= 1.0124
 <L.S>= 0.000000000000E+00
 KE= 1.918166609803D+02 PE=-7.173609143155D+02 EE= 1.973150362271D+02
 Annihilation of the first spin contaminant:
 S**2 before annihilation     2.0375,   after     2.0006
 Leave Link  502 at Thu Jan 31 06:44:38 2019, MaxMem=    33554432 cpu:       687.3
 (Enter /home/proyectos/fulerenos/M3C-v2.0/M3C-deps_CCC/g09-AM64L-G09RevC.01/l801.exe)
 DoSCS=F DFT=T ScalE2(SS,OS)=  1.000000  1.000000
 Range of M.O.s used for correlation:     1   235
 NBasis=   235 NAE=    18 NBE=    16 NFC=     0 NFV=     0
 NROrb=    235 NOA=    18 NOB=    16 NVA=   217 NVB=   219

 **** Warning!!: The largest alpha MO coefficient is  0.13200940D+03


 **** Warning!!: The largest beta MO coefficient is  0.13490633D+03

 Leave Link  801 at Thu Jan 31 06:44:38 2019, MaxMem=    33554432 cpu:         0.1
 (Enter /home/proyectos/fulerenos/M3C-v2.0/M3C-deps_CCC/g09-AM64L-G09RevC.01/l1101.exe)
 Using compressed storage, NAtomX=     9.
 Will process     10 centers per pass.
 Leave Link 1101 at Thu Jan 31 06:44:39 2019, MaxMem=    33554432 cpu:         1.8
 (Enter /home/proyectos/fulerenos/M3C-v2.0/M3C-deps_CCC/g09-AM64L-G09RevC.01/l1102.exe)
 Symmetrizing basis deriv contribution to polar:
 IMax=3 JMax=2 DiffMx= 0.00D+00
 Leave Link 1102 at Thu Jan 31 06:44:39 2019, MaxMem=    33554432 cpu:         0.1
 (Enter /home/proyectos/fulerenos/M3C-v2.0/M3C-deps_CCC/g09-AM64L-G09RevC.01/l1110.exe)
 Forming Gx(P) for the SCF density, NAtomX=     9.
 Integral derivatives from FoFJK, PRISM(SPDF).
 Do as many integral derivatives as possible in FoFJK.
 G2DrvN: MDV=      33554256.
 G2DrvN: will do    10 centers at a time, making    1 passes.
 Calling FoFCou, ICntrl=  3107 FMM=F I1Cent=   0 AccDes= 0.00D+00.
 FoFJK:  IHMeth= 1 ICntrl=    3107 DoSepK=F KAlg= 0 I1Cent=   0 FoldK=F
 IRaf=         0 NMat=   1 IRICut=       1 DoRegI=T DoRafI=F ISym2E= 1.
 FoFCou: FMM=F IPFlag=           0 FMFlag=      100000 FMFlg1=           0
         NFxFlg=           0 DoJE=F BraDBF=F KetDBF=F FulRan=T
         wScrn=  0.000000 ICntrl=    3107 IOpCl=  1 I1Cent=           0 NGrid=           0
         NMat0=    1 NMatS0=      1 NMatT0=    0 NMatD0=    1 NMtDS0=    0 NMtDT0=    0
 Petite list used in FoFCou.
 End of G2Drv F.D. properties file   721 does not exist.
 End of G2Drv F.D. properties file   722 does not exist.
 End of G2Drv F.D. properties file   788 does not exist.
 Leave Link 1110 at Thu Jan 31 06:46:29 2019, MaxMem=    33554432 cpu:       441.8
 (Enter /home/proyectos/fulerenos/M3C-v2.0/M3C-deps_CCC/g09-AM64L-G09RevC.01/l1002.exe)
 Minotr:  UHF open shell wavefunction.
          IDoAtm=111111111
          Direct CPHF calculation.
          Differentiating once with respect to electric field.
                with respect to dipole field.
          Differentiating once with respect to nuclear coordinates.
          Using symmetry in CPHF.
          Requested convergence is 1.0D-08 RMS, and 1.0D-07 maximum.
          Secondary convergence is 1.0D-12 RMS, and 1.0D-12 maximum.
          NewPWx=T KeepS1=F KeepF1=F KeepIn=T MapXYZ=F SortEE=F KeepMc=T.
          MDV=      33553868 using IRadAn=       2.
 Generate precomputed XC quadrature information.
          Solving linear equations simultaneously, MaxMat=       0.
 FoFJK:  IHMeth= 1 ICntrl=       0 DoSepK=F KAlg= 0 I1Cent=   0 FoldK=F
 IRaf= 990000000 NMat=  24 IRICut=      60 DoRegI=T DoRafI=T ISym2E= 2.
 FoFCou: FMM=F IPFlag=           0 FMFlag=      100000 FMFlg1=           0
         NFxFlg=           0 DoJE=F BraDBF=F KetDBF=F FulRan=T
         wScrn=  0.000000 ICntrl=       0 IOpCl=  1 I1Cent=           0 NGrid=           0
         NMat0=   24 NMatS0=     24 NMatT0=    0 NMatD0=   24 NMtDS0=    0 NMtDT0=    0
 Integrals replicated using symmetry in FoFCou.
          There are    24 degrees of freedom in the 1st order CPHF.  IDoFFX=4 NUNeed=    24.
     24 vectors produced by pass  0 Test12= 3.09D-14 4.17D-09 XBig12= 2.57D+02 8.66D+00.
 AX will form    24 AO Fock derivatives at one time.
     24 vectors produced by pass  1 Test12= 3.09D-14 4.17D-09 XBig12= 1.34D+02 3.69D+00.
     24 vectors produced by pass  2 Test12= 3.09D-14 4.17D-09 XBig12= 3.97D+00 5.34D-01.
     24 vectors produced by pass  3 Test12= 3.09D-14 4.17D-09 XBig12= 1.04D-01 6.32D-02.
     24 vectors produced by pass  4 Test12= 3.09D-14 4.17D-09 XBig12= 2.26D-03 8.31D-03.
     24 vectors produced by pass  5 Test12= 3.09D-14 4.17D-09 XBig12= 2.18D-05 6.09D-04.
     24 vectors produced by pass  6 Test12= 3.09D-14 4.17D-09 XBig12= 1.35D-07 5.00D-05.
     11 vectors produced by pass  7 Test12= 3.09D-14 4.17D-09 XBig12= 6.25D-10 2.46D-06.
      4 vectors produced by pass  8 Test12= 3.09D-14 4.17D-09 XBig12= 4.42D-12 2.12D-07.
      4 vectors produced by pass  9 Test12= 3.09D-14 4.17D-09 XBig12= 3.89D-13 1.44D-07.
      2 vectors produced by pass 10 Test12= 3.09D-14 4.17D-09 XBig12= 1.17D-14 1.78D-08.
 InvSVY:  IOpt=1 It=  1 EMax= 7.18D-15
 Solved reduced A of dimension   189 with    24 vectors.
 FullF1:  Do perturbations    1 to    24.
 Isotropic polarizability for W=    0.000000       59.75 Bohr**3.
 End of Minotr F.D. properties file   721 does not exist.
 End of Minotr F.D. properties file   722 does not exist.
 End of Minotr F.D. properties file   788 does not exist.
 Leave Link 1002 at Thu Jan 31 06:54:35 2019, MaxMem=    33554432 cpu:      1936.2
 (Enter /home/proyectos/fulerenos/M3C-v2.0/M3C-deps_CCC/g09-AM64L-G09RevC.01/l601.exe)
 Copying SCF densities to generalized density rwf, IOpCl= 1 IROHF=0.

 **********************************************************************

            Population analysis using the SCF density.

 **********************************************************************

 Orbital symmetries:
 Alpha Orbitals:
       Occupied  (A') (A') (A') (A') (A') (A') (A') (A') (A') (A")
                 (A') (A') (A") (A') (A") (A') (A') (A")
       Virtual   (A') (A') (A") (A') (A') (A") (A") (A') (A') (A')
                 (A') (A") (A') (A') (A') (A") (A') (A") (A') (A')
                 (A") (A") (A') (A') (A") (A') (A') (A') (A') (A')
                 (A") (A") (A') (A') (A') (A') (A") (A') (A') (A")
                 (A') (A') (A') (A") (A') (A") (A') (A') (A") (A")
                 (A') (A") (A') (A') (A") (A') (A') (A") (A') (A')
                 (A") (A') (A") (A') (A") (A') (A') (A") (A') (A')
                 (A") (A") (A') (A') (A') (A") (A') (A') (A') (A")
                 (A') (A') (A") (A") (A') (A') (A") (A') (A") (A')
                 (A") (A') (A') (A") (A') (A') (A') (A') (A") (A")
                 (A') (A') (A') (A") (A") (A") (A') (A') (A') (A")
                 (A') (A') (A") (A') (A') (A") (A') (A') (A") (A')
                 (A") (A') (A") (A') (A") (A') (A') (A") (A") (A')
                 (A') (A") (A") (A') (A') (A") (A") (A') (A') (A")
                 (A") (A') (A') (A") (A') (A') (A') (A") (A') (A")
                 (A') (A') (A") (A') (A") (A') (A') (A") (A') (A')
                 (A") (A") (A') (A') (A') (A") (A') (A') (A") (A')
                 (A') (A') (A") (A") (A') (A') (A") (A') (A") (A')
                 (A') (A") (A') (A") (A') (A") (A') (A") (A") (A')
                 (A') (A") (A') (A") (A') (A") (A") (A') (A') (A")
                 (A') (A") (A') (A') (A') (A") (A') (A') (A') (A")
                 (A') (A') (A') (A') (A') (A') (A')
 Beta  Orbitals:
       Occupied  (A') (A') (A') (A') (A') (A') (A') (A') (A') (A")
                 (A') (A') (A") (A') (A") (A')
       Virtual   (A') (A") (A') (A') (A") (A') (A') (A") (A') (A")
                 (A') (A') (A') (A') (A') (A") (A') (A") (A') (A")
                 (A') (A") (A') (A") (A') (A') (A") (A') (A') (A')
                 (A') (A') (A") (A") (A') (A') (A') (A') (A") (A')
                 (A') (A") (A') (A') (A') (A") (A') (A") (A') (A")
                 (A') (A") (A') (A') (A") (A') (A") (A') (A') (A")
                 (A') (A') (A") (A') (A") (A') (A") (A') (A') (A")
                 (A') (A') (A") (A") (A') (A') (A') (A") (A') (A')
                 (A') (A") (A') (A') (A") (A") (A') (A") (A') (A')
                 (A") (A') (A") (A') (A") (A') (A') (A') (A') (A')
                 (A") (A') (A") (A') (A') (A") (A") (A") (A') (A')
                 (A') (A") (A') (A') (A") (A') (A') (A") (A') (A')
                 (A") (A') (A") (A') (A") (A') (A") (A') (A') (A")
                 (A') (A") (A') (A") (A") (A') (A') (A") (A") (A')
                 (A') (A") (A") (A') (A') (A") (A') (A') (A') (A")
                 (A') (A") (A') (A') (A") (A") (A') (A') (A') (A")
                 (A') (A') (A") (A") (A') (A') (A') (A") (A') (A')
                 (A') (A") (A') (A') (A") (A") (A') (A') (A") (A')
                 (A") (A') (A') (A") (A') (A") (A') (A") (A') (A")
                 (A') (A") (A') (A') (A") (A") (A') (A") (A") (A')
                 (A') (A") (A') (A") (A') (A') (A') (A") (A') (A')
                 (A') (A") (A') (A') (A') (A') (A') (A') (A')
 The electronic state is 3-A".
 Alpha  occ. eigenvalues --  -10.24708 -10.24106 -10.22672 -10.21852 -10.19996
 Alpha  occ. eigenvalues --   -0.91255  -0.76092  -0.68601  -0.64424  -0.51555
 Alpha  occ. eigenvalues --   -0.46983  -0.45075  -0.41567  -0.41200  -0.33742
 Alpha  occ. eigenvalues --   -0.30268  -0.25885  -0.21579
 Alpha virt. eigenvalues --   -0.11396  -0.01499   0.00825   0.01162   0.03113
 Alpha virt. eigenvalues --    0.03600   0.05295   0.05383   0.06450   0.06814
 Alpha virt. eigenvalues --    0.08378   0.08997   0.10409   0.11159   0.11719
 Alpha virt. eigenvalues --    0.11960   0.12785   0.12927   0.13398   0.15061
 Alpha virt. eigenvalues --    0.15359   0.15552   0.16562   0.18108   0.18475
 Alpha virt. eigenvalues --    0.18914   0.19381   0.21139   0.23018   0.26218
 Alpha virt. eigenvalues --    0.26942   0.28353   0.28566   0.32204   0.32877
 Alpha virt. eigenvalues --    0.33940   0.37272   0.39040   0.40867   0.42203
 Alpha virt. eigenvalues --    0.42554   0.44250   0.45067   0.46690   0.47725
 Alpha virt. eigenvalues --    0.48227   0.50244   0.51772   0.52315   0.52989
 Alpha virt. eigenvalues --    0.53913   0.55459   0.55921   0.58198   0.58665
 Alpha virt. eigenvalues --    0.59562   0.60344   0.61544   0.61872   0.64104
 Alpha virt. eigenvalues --    0.65643   0.65697   0.66339   0.71227   0.73195
 Alpha virt. eigenvalues --    0.75558   0.76224   0.80621   0.80978   0.84069
 Alpha virt. eigenvalues --    0.84379   0.90223   0.92709   0.95482   1.00394
 Alpha virt. eigenvalues --    1.02254   1.02522   1.05153   1.09596   1.09682
 Alpha virt. eigenvalues --    1.11517   1.14442   1.20301   1.21569   1.23011
 Alpha virt. eigenvalues --    1.26231   1.26715   1.27998   1.35779   1.36012
 Alpha virt. eigenvalues --    1.36812   1.37639   1.39308   1.40023   1.40762
 Alpha virt. eigenvalues --    1.49700   1.50377   1.52097   1.53315   1.58220
 Alpha virt. eigenvalues --    1.59311   1.63118   1.64757   1.66983   1.71690
 Alpha virt. eigenvalues --    1.74819   1.84952   1.86597   1.91671   1.94936
 Alpha virt. eigenvalues --    1.98288   2.03035   2.09240   2.09954   2.13847
 Alpha virt. eigenvalues --    2.14304   2.17464   2.24118   2.25653   2.40452
 Alpha virt. eigenvalues --    2.44987   2.55746   2.63628   2.65017   2.67387
 Alpha virt. eigenvalues --    2.68501   2.72608   2.75879   2.78577   2.78811
 Alpha virt. eigenvalues --    2.84275   2.87091   2.88967   2.89831   2.90694
 Alpha virt. eigenvalues --    2.91961   2.93021   2.98063   2.99722   3.07379
 Alpha virt. eigenvalues --    3.08819   3.10142   3.14590   3.15155   3.18700
 Alpha virt. eigenvalues --    3.20965   3.21948   3.24934   3.31044   3.31470
 Alpha virt. eigenvalues --    3.34802   3.42703   3.50175   3.54142   3.54917
 Alpha virt. eigenvalues --    3.67649   3.81721   3.82867   3.84028   3.89283
 Alpha virt. eigenvalues --    3.89968   3.93222   3.95968   4.00841   4.07417
 Alpha virt. eigenvalues --    4.09331   4.21113   4.25083   4.27303   4.27733
 Alpha virt. eigenvalues --    4.33033   4.42091   4.46651   4.57136   4.58582
 Alpha virt. eigenvalues --    4.62243   4.68366   4.74464   4.90903   5.01622
 Alpha virt. eigenvalues --    5.13923   5.14923   5.33997   5.57700   5.59561
 Alpha virt. eigenvalues --    5.73907   5.87671   6.91708   6.99370   6.99530
 Alpha virt. eigenvalues --    7.05860   7.11677   7.12339   7.17896   7.22705
 Alpha virt. eigenvalues --    7.24929   7.26783   7.31345   7.43573   7.50645
 Alpha virt. eigenvalues --    7.51108   7.61325   7.64639   7.66062   7.78654
 Alpha virt. eigenvalues --    7.83888   7.90936   8.11056   8.18239   8.33592
 Alpha virt. eigenvalues --    8.54620   8.99697  23.95620  24.28081  24.51095
 Alpha virt. eigenvalues --   25.11997  25.85258
  Beta  occ. eigenvalues --  -10.24686 -10.21840 -10.21727 -10.21687 -10.20168
  Beta  occ. eigenvalues --   -0.89828  -0.74517  -0.66793  -0.62830  -0.50912
  Beta  occ. eigenvalues --   -0.44673  -0.41829  -0.40997  -0.40450  -0.30521
  Beta  occ. eigenvalues --   -0.28614
  Beta virt. eigenvalues --   -0.12570  -0.09157  -0.08109  -0.01406   0.01038
  Beta virt. eigenvalues --    0.01291   0.03666   0.04322   0.05589   0.06116
  Beta virt. eigenvalues --    0.06733   0.07179   0.08424   0.10491   0.11470
  Beta virt. eigenvalues --    0.11534   0.11870   0.12332   0.12986   0.13304
  Beta virt. eigenvalues --    0.13683   0.15441   0.15655   0.15804   0.16705
  Beta virt. eigenvalues --    0.18556   0.18856   0.19442   0.19851   0.21480
  Beta virt. eigenvalues --    0.23179   0.26670   0.27332   0.28866   0.28894
  Beta virt. eigenvalues --    0.32817   0.34140   0.34790   0.37732   0.39710
  Beta virt. eigenvalues --    0.41797   0.43025   0.43154   0.45082   0.46418
  Beta virt. eigenvalues --    0.48428   0.48850   0.49111   0.50710   0.52695
  Beta virt. eigenvalues --    0.53741   0.54605   0.54643   0.56299   0.57211
  Beta virt. eigenvalues --    0.58575   0.59674   0.60523   0.61332   0.61883
  Beta virt. eigenvalues --    0.62383   0.64618   0.65688   0.66058   0.67899
  Beta virt. eigenvalues --    0.72463   0.73699   0.76177   0.76868   0.81121
  Beta virt. eigenvalues --    0.81603   0.85001   0.85472   0.91435   0.93801
  Beta virt. eigenvalues --    0.96011   1.00782   1.02696   1.03089   1.06335
  Beta virt. eigenvalues --    1.09943   1.10217   1.12106   1.15020   1.20815
  Beta virt. eigenvalues --    1.21920   1.23604   1.27069   1.27219   1.29303
  Beta virt. eigenvalues --    1.36379   1.36951   1.37054   1.38919   1.40724
  Beta virt. eigenvalues --    1.41155   1.41760   1.50012   1.51528   1.52524
  Beta virt. eigenvalues --    1.56395   1.60624   1.61175   1.65346   1.66754
  Beta virt. eigenvalues --    1.70433   1.73004   1.76568   1.85984   1.90700
  Beta virt. eigenvalues --    1.92530   1.96129   2.00444   2.06127   2.09946
  Beta virt. eigenvalues --    2.11244   2.15154   2.16173   2.18346   2.25061
  Beta virt. eigenvalues --    2.28074   2.42193   2.46681   2.57245   2.65499
  Beta virt. eigenvalues --    2.65888   2.69041   2.69797   2.73640   2.77985
  Beta virt. eigenvalues --    2.79878   2.81815   2.85933   2.88880   2.91037
  Beta virt. eigenvalues --    2.91396   2.92658   2.93476   2.95243   2.99632
  Beta virt. eigenvalues --    3.01655   3.09717   3.10320   3.11764   3.15511
  Beta virt. eigenvalues --    3.17517   3.19892   3.22523   3.23501   3.25909
  Beta virt. eigenvalues --    3.32262   3.33292   3.37104   3.45320   3.51644
  Beta virt. eigenvalues --    3.55768   3.56224   3.70455   3.82577   3.83897
  Beta virt. eigenvalues --    3.85850   3.89965   3.90635   3.94217   3.96650
  Beta virt. eigenvalues --    4.01846   4.08061   4.10949   4.22276   4.25315
  Beta virt. eigenvalues --    4.28463   4.29216   4.33916   4.43334   4.47103
  Beta virt. eigenvalues --    4.57520   4.59744   4.62601   4.69203   4.75814
  Beta virt. eigenvalues --    4.91676   5.02423   5.15099   5.16590   5.34569
  Beta virt. eigenvalues --    5.58021   5.59966   5.74320   5.89649   6.93035
  Beta virt. eigenvalues --    7.03535   7.03687   7.08428   7.15518   7.17076
  Beta virt. eigenvalues --    7.20740   7.24673   7.26643   7.30714   7.32353
  Beta virt. eigenvalues --    7.46299   7.51796   7.51960   7.62446   7.66112
  Beta virt. eigenvalues --    7.67859   7.80612   7.84345   7.92516   8.11352
  Beta virt. eigenvalues --    8.20927   8.33953   8.55380   9.00343  23.96620
  Beta virt. eigenvalues --   24.28125  24.51426  25.14041  25.85673
          Condensed to atoms (all electrons):
               1          2          3          4          5          6
     1  C    8.737634   0.267327   0.014742   0.014742  -0.091502  -0.816967
     2  C    0.267327   6.079140   0.470581   0.470581  -0.073259  -0.504237
     3  H    0.014742   0.470581   0.464238  -0.028052   0.003824  -0.057664
     4  H    0.014742   0.470581  -0.028052   0.464238  -0.000542  -0.057664
     5  H   -0.091502  -0.073259   0.003824  -0.000542   0.522035   0.496403
     6  C   -0.816967  -0.504237  -0.057664  -0.057664   0.496403   6.255655
     7  H   -0.091502  -0.073259  -0.000542   0.003824  -0.047530   0.496403
     8  C   -1.159037  -0.197801  -0.056860  -0.056860   0.032057   0.561981
     9  C   -0.870360  -0.041974  -0.000118  -0.000118   0.006953  -0.027603
               7          8          9
     1  C   -0.091502  -1.159037  -0.870360
     2  C   -0.073259  -0.197801  -0.041974
     3  H   -0.000542  -0.056860  -0.000118
     4  H    0.003824  -0.056860  -0.000118
     5  H   -0.047530   0.032057   0.006953
     6  C    0.496403   0.561981  -0.027603
     7  H    0.522035   0.032057   0.006953
     8  C    0.032057   8.438718  -2.274995
     9  C    0.006953  -2.274995   9.816335
          Atomic-Atomic Spin Densities.
               1          2          3          4          5          6
     1  C    1.530643  -0.112260  -0.004536  -0.004536  -0.019190   0.024011
     2  C   -0.112260   0.029830  -0.003449  -0.003449  -0.000262   0.000724
     3  H   -0.004536  -0.003449   0.005307   0.004556  -0.000170   0.000346
     4  H   -0.004536  -0.003449   0.004556   0.005307   0.000899   0.000346
     5  H   -0.019190  -0.000262  -0.000170   0.000899   0.063484   0.005301
     6  C    0.024011   0.000724   0.000346   0.000346   0.005301   0.055654
     7  H   -0.019190  -0.000262   0.000899  -0.000170  -0.021423   0.005301
     8  C    0.010698   0.038081   0.005892   0.005892   0.000690  -0.019611
     9  C    0.020749   0.022889  -0.002357  -0.002357   0.001469  -0.046908
               7          8          9
     1  C   -0.019190   0.010698   0.020749
     2  C   -0.000262   0.038081   0.022889
     3  H    0.000899   0.005892  -0.002357
     4  H   -0.000170   0.005892  -0.002357
     5  H   -0.021423   0.000690   0.001469
     6  C    0.005301  -0.019611  -0.046908
     7  H    0.063484   0.000690   0.001469
     8  C    0.000690  -0.101069  -0.084422
     9  C    0.001469  -0.084422   0.734660
 Mulliken charges and spin densities:
               1          2
     1  C   -0.005077   1.426391
     2  C   -0.397100  -0.028160
     3  H    0.189850   0.006487
     4  H    0.189850   0.006487
     5  H    0.151560   0.030799
     6  C   -0.346309   0.025164
     7  H    0.151560   0.030799
     8  C    0.680741  -0.143160
     9  C   -0.615074   0.645193
 Sum of Mulliken charges =  -0.00000   2.00000
 Mulliken charges and spin densities with hydrogens summed into heavy atoms:
               1          2
     1  C   -0.005077   1.426391
     2  C   -0.017400  -0.015185
     6  C   -0.043189   0.086761
     8  C    0.680741  -0.143160
     9  C   -0.615074   0.645193
 APT charges:
               1
     1  C    0.059734
     2  C    0.256935
     3  H   -0.008183
     4  H   -0.008183
     5  H    0.003538
     6  C    0.158239
     7  H    0.003538
     8  C   -0.439215
     9  C   -0.026404
 Sum of APT charges =  -0.00000
 APT charges with hydrogens summed into heavy atoms:
               1
     1  C    0.059734
     2  C    0.240570
     6  C    0.165316
     8  C   -0.439215
     9  C   -0.026404
 Electronic spatial extent (au):  <R**2>=            332.7966
 Charge=             -0.0000 electrons
 Dipole moment (field-independent basis, Debye):
    X=             -3.2562    Y=              2.3833    Z=             -0.0000  Tot=              4.0352
 Quadrupole moment (field-independent basis, Debye-Ang):
   XX=            -37.3302   YY=            -29.4929   ZZ=            -30.2284
   XY=              0.9090   XZ=              0.0000   YZ=             -0.0000
 Traceless Quadrupole moment (field-independent basis, Debye-Ang):
   XX=             -4.9797   YY=              2.8576   ZZ=              2.1221
   XY=              0.9090   XZ=              0.0000   YZ=             -0.0000
 Octapole moment (field-independent basis, Debye-Ang**2):
  XXX=            -36.8715  YYY=              7.4698  ZZZ=             -0.0000  XYY=             -0.7935
  XXY=              8.5647  XXZ=             -0.0000  XZZ=             -5.3064  YZZ=              4.9944
  YYZ=             -0.0000  XYZ=              0.0000
 Hexadecapole moment (field-independent basis, Debye-Ang**3):
 XXXX=           -384.5077 YYYY=           -140.7905 ZZZZ=            -49.3622 XXXY=             42.6397
 XXXZ=              0.0000 YYYX=             27.3637 YYYZ=             -0.0000 ZZZX=              0.0000
 ZZZY=             -0.0000 XXYY=            -79.9561 XXZZ=            -62.2013 YYZZ=            -30.7962
 XXYZ=             -0.0000 YYXZ=              0.0000 ZZXY=             10.2582
 N-N= 1.355320602463D+02 E-N=-7.173609142155D+02  KE= 1.918166609803D+02
 Symmetry A'   KE= 1.842368690589D+02
 Symmetry A"   KE= 7.579791921433D+00
  Exact polarizability:  81.408  -5.174  54.585   0.000   0.000  43.251
 Approx polarizability: 137.958  -4.368  83.387   0.000  -0.000  61.824
                          Isotropic Fermi Contact Couplings
        Atom                 a.u.       MegaHertz       Gauss      10(-4) cm-1
     1  C(13)              0.41297     232.12959      82.82961      77.43010
     2  C(13)              0.01753       9.85152       3.51527       3.28611
     3  H(1)               0.00237       5.29842       1.89061       1.76736
     4  H(1)               0.00237       5.29842       1.89061       1.76736
     5  H(1)               0.01513      33.81425      12.06576      11.27922
     6  C(13)              0.00596       3.34960       1.19522       1.11731
     7  H(1)               0.01513      33.81425      12.06576      11.27922
     8  C(13)             -0.00763      -4.28894      -1.53040      -1.43064
     9  C(13)              0.02686      15.09620       5.38670       5.03555
 --------------------------------------------------------
       Center         ----  Spin Dipole Couplings  ----
                      3XX-RR        3YY-RR        3ZZ-RR
 --------------------------------------------------------
     1   Atom       -0.756406      0.309212      0.447194
     2   Atom        0.021581      0.004761     -0.026342
     3   Atom       -0.003754      0.008292     -0.004538
     4   Atom       -0.003754      0.008292     -0.004538
     5   Atom       -0.000514      0.005088     -0.004575
     6   Atom       -0.088375      0.194997     -0.106622
     7   Atom       -0.000514      0.005088     -0.004575
     8   Atom        0.175044      0.109782     -0.284825
     9   Atom       -0.397147     -0.192012      0.589158
 --------------------------------------------------------
                        XY            XZ            YZ
 --------------------------------------------------------
     1   Atom        0.326059      0.000000     -0.000000
     2   Atom        0.080434     -0.000000     -0.000000
     3   Atom        0.004191     -0.000376      0.006368
     4   Atom        0.004191      0.000376     -0.006368
     5   Atom       -0.017028     -0.017672      0.013998
     6   Atom        0.005403      0.000000     -0.000000
     7   Atom       -0.017028      0.017672     -0.013998
     8   Atom        0.082659     -0.000000      0.000000
     9   Atom        0.161367      0.000000     -0.000000
 --------------------------------------------------------


 ---------------------------------------------------------------------------------
              Anisotropic Spin Dipole Couplings in Principal Axis System
 ---------------------------------------------------------------------------------

       Atom             a.u.   MegaHertz   Gauss  10(-4) cm-1        Axes

              Baa    -0.8483  -113.828   -40.617   -37.969  0.9625 -0.2711 -0.0000
     1 C(13)  Bbb     0.4011    53.819    19.204    17.952  0.2711  0.9625  0.0000
              Bcc     0.4472    60.009    21.413    20.017  0.0000 -0.0000  1.0000
 
              Baa    -0.0677    -9.085    -3.242    -3.030 -0.6693  0.7430  0.0000
     2 C(13)  Bbb    -0.0263    -3.535    -1.261    -1.179  0.0000  0.0000  1.0000
              Bcc     0.0940    12.620     4.503     4.210  0.7430  0.6693 -0.0000
 
              Baa    -0.0082    -4.366    -1.558    -1.456  0.4632 -0.4196  0.7806
     3 H(1)   Bbb    -0.0036    -1.941    -0.693    -0.648  0.8543 -0.0230 -0.5193
              Bcc     0.0118     6.307     2.251     2.104  0.2358  0.9074  0.3478
 
              Baa    -0.0082    -4.366    -1.558    -1.456 -0.4632  0.4196  0.7806
     4 H(1)   Bbb    -0.0036    -1.941    -0.693    -0.648  0.8543 -0.0230  0.5193
              Bcc     0.0118     6.307     2.251     2.104  0.2358  0.9074 -0.3478
 
              Baa    -0.0204   -10.884    -3.884    -3.630  0.6972  0.0742  0.7130
     5 H(1)   Bbb    -0.0124    -6.603    -2.356    -2.203  0.4059  0.7789 -0.4780
              Bcc     0.0328    17.487     6.240     5.833 -0.5909  0.6227  0.5129
 
              Baa    -0.1066   -14.308    -5.105    -4.773 -0.0000  0.0000  1.0000
     6 C(13)  Bbb    -0.0885   -11.873    -4.237    -3.960  0.9998 -0.0191  0.0000
              Bcc     0.1951    26.181     9.342     8.733  0.0191  0.9998 -0.0000
 
              Baa    -0.0204   -10.884    -3.884    -3.630 -0.6972 -0.0742  0.7130
     7 H(1)   Bbb    -0.0124    -6.603    -2.356    -2.203  0.4059  0.7789  0.4780
              Bcc     0.0328    17.487     6.240     5.833 -0.5909  0.6227 -0.5129
 
              Baa    -0.2848   -38.221   -13.638   -12.749  0.0000 -0.0000  1.0000
     8 C(13)  Bbb     0.0535     7.185     2.564     2.397 -0.5625  0.8268  0.0000
              Bcc     0.2313    31.035    11.074    10.352  0.8268  0.5625  0.0000
 
              Baa    -0.4858   -65.188   -23.261   -21.744  0.8765 -0.4814 -0.0000
     9 C(13)  Bbb    -0.1034   -13.872    -4.950    -4.627  0.4814  0.8765  0.0000
              Bcc     0.5892    79.059    28.210    26.371  0.0000 -0.0000  1.0000
 

 ---------------------------------------------------------------------------------

 No NMR shielding tensors so no spin-rotation constants.
 Leave Link  601 at Thu Jan 31 06:54:36 2019, MaxMem=    33554432 cpu:         3.5
 (Enter /home/proyectos/fulerenos/M3C-v2.0/M3C-deps_CCC/g09-AM64L-G09RevC.01/l701.exe)
 Compute integral second derivatives.
 ... and contract with generalized density number  0.
 Leave Link  701 at Thu Jan 31 06:54:36 2019, MaxMem=    33554432 cpu:         2.3
 (Enter /home/proyectos/fulerenos/M3C-v2.0/M3C-deps_CCC/g09-AM64L-G09RevC.01/l702.exe)
 L702 exits ... SP integral derivatives will be done elsewhere.
 Leave Link  702 at Thu Jan 31 06:54:36 2019, MaxMem=    33554432 cpu:         0.1
 (Enter /home/proyectos/fulerenos/M3C-v2.0/M3C-deps_CCC/g09-AM64L-G09RevC.01/l703.exe)
 Compute integral second derivatives, UseDBF=F ICtDFT=           0.
 Integral derivatives from FoFJK, PRISM(SPDF).
 Calling FoFJK, ICntrl=    100127 FMM=F ISym2X=1 I1Cent= 0 IOpClX= 1 NMat=1 NMatS=1 NMatT=0.
 FoFJK:  IHMeth= 1 ICntrl=  100127 DoSepK=F KAlg= 0 I1Cent=   0 FoldK=F
 IRaf=         0 NMat=   1 IRICut=       1 DoRegI=T DoRafI=F ISym2E= 1.
 FoFCou: FMM=F IPFlag=           0 FMFlag=      100000 FMFlg1=         800
         NFxFlg=           0 DoJE=F BraDBF=F KetDBF=F FulRan=T
         wScrn=  0.000000 ICntrl=  100127 IOpCl=  1 I1Cent=           0 NGrid=           0
         NMat0=    1 NMatS0=      1 NMatT0=    0 NMatD0=    1 NMtDS0=    0 NMtDT0=    0
 Petite list used in FoFCou.
 Leave Link  703 at Thu Jan 31 06:57:28 2019, MaxMem=    33554432 cpu:       684.7
 (Enter /home/proyectos/fulerenos/M3C-v2.0/M3C-deps_CCC/g09-AM64L-G09RevC.01/l716.exe)
 Dipole        =-1.28110223D+00 9.37649186D-01-1.28857428D-16
 Polarizability= 8.14084482D+01-5.17408670D+00 5.45850293D+01
                 2.15501951D-07 8.51820272D-08 4.32509525D+01
 Full mass-weighted force constant matrix:
 Low frequencies ---  -12.3443   -4.5065    0.0009    0.0009    0.0012   21.8835
 Low frequencies ---  188.7385  218.4074  426.8185
 Diagonal vibrational polarizability:
        8.1841511       8.3151117       0.8171569
 Harmonic frequencies (cm**-1), IR intensities (KM/Mole), Raman scattering
 activities (A**4/AMU), depolarization ratios for plane and unpolarized
 incident light, reduced masses (AMU), force constants (mDyne/A),
 and normal coordinates:
                      1                      2                      3
                     A"                     A'                     A"
 Frequencies --    188.7249               218.4053               426.8177
 Red. masses --      2.6424                 7.1703                 4.5649
 Frc consts  --      0.0555                 0.2015                 0.4900
 IR Inten    --      0.7930                10.3483                 0.6349
  Atom  AN      X      Y      Z        X      Y      Z        X      Y      Z
     1   6    -0.00  -0.00  -0.19    -0.19  -0.10   0.00    -0.00  -0.00  -0.24
     2   6     0.00  -0.00  -0.13     0.20  -0.14   0.00     0.00   0.00  -0.03
     3   1     0.18   0.14  -0.27     0.32  -0.21   0.00    -0.06   0.42  -0.26
     4   1    -0.18  -0.14  -0.27     0.32  -0.21  -0.00     0.06  -0.42  -0.26
     5   1     0.31  -0.16   0.43     0.14   0.22  -0.00     0.15  -0.21   0.16
     6   6     0.00   0.00   0.18     0.10   0.10  -0.00     0.00  -0.00   0.00
     7   1    -0.31   0.16   0.43     0.14   0.22   0.00    -0.15   0.21   0.16
     8   6    -0.00  -0.00  -0.11    -0.14  -0.39   0.00    -0.00   0.00   0.48
     9   6    -0.00   0.00   0.22    -0.06   0.52  -0.00    -0.00   0.00  -0.20
                      4                      5                      6
                     A'                     A'                     A"
 Frequencies --    487.8931               733.0581               798.9453
 Red. masses --      7.6715                 7.6686                 1.1159
 Frc consts  --      1.0759                 2.4280                 0.4197
 IR Inten    --     65.1882                11.1593                 1.9152
  Atom  AN      X      Y      Z        X      Y      Z        X      Y      Z
     1   6     0.05   0.38  -0.00     0.04  -0.09  -0.00     0.00  -0.00   0.02
     2   6    -0.28  -0.19   0.00    -0.24   0.57   0.00    -0.00  -0.00  -0.07
     3   1    -0.09  -0.36   0.04    -0.05   0.38   0.04    -0.30  -0.35   0.22
     4   1    -0.09  -0.36  -0.04    -0.05   0.38  -0.04     0.30   0.35   0.22
     5   1    -0.22   0.09   0.03     0.07  -0.20  -0.03     0.42   0.07   0.22
     6   6    -0.25   0.18  -0.00     0.18  -0.02  -0.00     0.00   0.00  -0.05
     7   1    -0.22   0.09  -0.03     0.07  -0.20   0.03    -0.42  -0.07   0.22
     8   6     0.24  -0.33   0.00    -0.02  -0.42   0.00    -0.00  -0.00   0.04
     9   6     0.30   0.00  -0.00     0.04  -0.06  -0.00     0.00   0.00  -0.00
                      7                      8                      9
                     A'                     A'                     A"
 Frequencies --    894.4464               974.4820               989.7011
 Red. masses --      3.4865                 6.1635                 1.5073
 Frc consts  --      1.6434                 3.4485                 0.8699
 IR Inten    --      5.5214                10.9863                 0.0208
  Atom  AN      X      Y      Z        X      Y      Z        X      Y      Z
     1   6     0.01   0.26   0.00     0.26   0.30  -0.00    -0.00  -0.00  -0.09
     2   6     0.24   0.11   0.00    -0.20  -0.15  -0.00     0.00   0.00  -0.12
     3   1     0.31   0.03   0.03    -0.07  -0.31   0.04     0.14  -0.44   0.10
     4   1     0.31   0.03  -0.03    -0.07  -0.31  -0.04    -0.14   0.44   0.10
     5   1    -0.25  -0.48   0.01     0.34  -0.23   0.02    -0.32   0.35  -0.16
     6   6    -0.16  -0.23  -0.00     0.34  -0.05   0.00    -0.00   0.00   0.14
     7   1    -0.25  -0.48  -0.01     0.34  -0.23  -0.02     0.32  -0.35  -0.16
     8   6    -0.03  -0.07   0.00    -0.11  -0.03   0.00     0.00  -0.00   0.08
     9   6    -0.07   0.01  -0.00    -0.34   0.02   0.00     0.00  -0.00  -0.00
                     10                     11                     12
                     A"                     A'                     A"
 Frequencies --   1052.5488              1089.2527              1178.5260
 Red. masses --      1.1066                 2.5226                 1.1619
 Frc consts  --      0.7223                 1.7634                 0.9508
 IR Inten    --      0.5345                 4.0606                 0.2158
  Atom  AN      X      Y      Z        X      Y      Z        X      Y      Z
     1   6    -0.00  -0.00  -0.05     0.25  -0.14   0.00    -0.00   0.00  -0.01
     2   6     0.00   0.00   0.06    -0.04   0.04   0.00     0.00  -0.00   0.08
     3   1    -0.32   0.29  -0.02     0.58  -0.25  -0.00     0.55  -0.06  -0.04
     4   1     0.32  -0.29  -0.02     0.58  -0.25   0.00    -0.55   0.06  -0.04
     5   1     0.07   0.55  -0.03    -0.17  -0.01   0.01     0.29   0.31   0.04
     6   6    -0.00   0.00   0.04    -0.15   0.14  -0.00     0.00  -0.00  -0.09
     7   1    -0.07  -0.55  -0.03    -0.17  -0.01  -0.01    -0.29  -0.31   0.04
     8   6     0.00  -0.00  -0.04    -0.03  -0.00  -0.00    -0.00  -0.00   0.02
     9   6     0.00   0.00   0.00    -0.10   0.00   0.00     0.00   0.00  -0.00
                     13                     14                     15
                     A'                     A'                     A'
 Frequencies --   1208.3509              1225.9305              1457.3936
 Red. masses --      1.4601                 1.7029                 1.1368
 Frc consts  --      1.2561                 1.5079                 1.4227
 IR Inten    --     12.2440                 1.9214                21.5238
  Atom  AN      X      Y      Z        X      Y      Z        X      Y      Z
     1   6     0.10   0.02  -0.00    -0.13   0.03  -0.00     0.01   0.02   0.00
     2   6     0.04   0.02   0.00    -0.11   0.05   0.00    -0.05  -0.07  -0.00
     3   1    -0.16   0.08   0.02     0.55  -0.32   0.03     0.26   0.46  -0.38
     4   1    -0.16   0.08  -0.02     0.55  -0.32  -0.03     0.26   0.46   0.38
     5   1     0.17   0.65   0.00     0.13   0.23  -0.03     0.21  -0.04   0.16
     6   6    -0.09  -0.12   0.00     0.05  -0.14  -0.00    -0.03  -0.01   0.00
     7   1     0.17   0.65  -0.00     0.13   0.23   0.03     0.21  -0.04  -0.16
     8   6    -0.00  -0.05   0.00     0.03   0.07   0.00    -0.04  -0.01  -0.00
     9   6    -0.05   0.00  -0.00     0.05  -0.00  -0.00     0.03  -0.00   0.00
                     16                     17                     18
                     A'                     A'                     A'
 Frequencies --   1485.0978              1529.3865              3046.3038
 Red. masses --      1.1121                 8.1993                 1.0547
 Frc consts  --      1.4451                11.2995                 5.7666
 IR Inten    --      1.3819               128.9255                30.2647
  Atom  AN      X      Y      Z        X      Y      Z        X      Y      Z
     1   6    -0.01  -0.01  -0.00    -0.17  -0.06   0.00     0.00  -0.00  -0.00
     2   6     0.02   0.04  -0.00    -0.01   0.01   0.00    -0.00   0.00   0.00
     3   1    -0.09  -0.19   0.16     0.05   0.25  -0.17    -0.01  -0.01  -0.02
     4   1    -0.09  -0.19  -0.16     0.05   0.25   0.17    -0.01  -0.01   0.02
     5   1     0.49  -0.17   0.39     0.18  -0.13   0.19    -0.37   0.12   0.59
     6   6    -0.08   0.03   0.00    -0.05   0.03  -0.00     0.06  -0.02  -0.00
     7   1     0.49  -0.17  -0.39     0.18  -0.13  -0.19    -0.37   0.12  -0.59
     8   6    -0.02   0.01   0.00     0.64  -0.04   0.00    -0.00  -0.00   0.00
     9   6     0.02  -0.00   0.00    -0.45   0.05  -0.00     0.00  -0.00  -0.00
                     19                     20                     21
                     A"                     A'                     A"
 Frequencies --   3086.6777              3088.1852              3173.2561
 Red. masses --      1.1091                 1.0524                 1.1163
 Frc consts  --      6.2259                 5.9135                 6.6225
 IR Inten    --      7.6195                 8.0059                 1.5798
  Atom  AN      X      Y      Z        X      Y      Z        X      Y      Z
     1   6    -0.00   0.00   0.00     0.00   0.00   0.00     0.00  -0.00   0.00
     2   6     0.00   0.00   0.01    -0.03  -0.06   0.00    -0.00  -0.00  -0.10
     3   1    -0.01  -0.03  -0.05     0.16   0.33   0.60     0.17   0.34   0.59
     4   1     0.01   0.03  -0.05     0.16   0.33  -0.60    -0.17  -0.34   0.59
     5   1    -0.39   0.13   0.57    -0.01   0.00   0.02    -0.04   0.01   0.05
     6   6    -0.00   0.00  -0.10     0.00  -0.00  -0.00     0.00   0.00  -0.01
     7   1     0.39  -0.13   0.57    -0.01   0.00  -0.02     0.04  -0.01   0.05
     8   6     0.00  -0.00  -0.00     0.00  -0.00  -0.00    -0.00   0.00  -0.00
     9   6    -0.00   0.00   0.00    -0.00   0.00   0.00     0.00  -0.00   0.00

 -------------------
 - Thermochemistry -
 -------------------
 Temperature   298.150 Kelvin.  Pressure   1.00000 Atm.
 Atom     1 has atomic number  6 and mass  12.00000
 Atom     2 has atomic number  6 and mass  12.00000
 Atom     3 has atomic number  1 and mass   1.00783
 Atom     4 has atomic number  1 and mass   1.00783
 Atom     5 has atomic number  1 and mass   1.00783
 Atom     6 has atomic number  6 and mass  12.00000
 Atom     7 has atomic number  1 and mass   1.00783
 Atom     8 has atomic number  6 and mass  12.00000
 Atom     9 has atomic number  6 and mass  12.00000
 Molecular mass:    64.03130 amu.
 Principal axes and moments of inertia in atomic units:
                           1         2         3
     Eigenvalues --   118.30237 353.67454 448.77547
           X            0.95315   0.30249   0.00000
           Y           -0.30249   0.95315   0.00000
           Z            0.00000  -0.00000   1.00000
 This molecule is an asymmetric top.
 Rotational symmetry number  1.
 Rotational temperatures (Kelvin)      0.73214     0.24490     0.19300
 Rotational constants (GHZ):          15.25533     5.10283     4.02148
 Zero-point vibrational energy     169471.3 (Joules/Mol)
                                   40.50460 (Kcal/Mol)
 Warning -- explicit consideration of   4 degrees of freedom as
           vibrations may cause significant error
 Vibrational temperatures:    271.53   314.24   614.09   701.97  1054.71
          (Kelvin)           1149.50  1286.91  1402.06  1423.96  1514.38
                             1567.19  1695.63  1738.55  1763.84  2096.86
                             2136.72  2200.44  4382.95  4441.04  4443.20
                             4565.60
 
 Zero-point correction=                           0.064548 (Hartree/Particle)
 Thermal correction to Energy=                    0.069443
 Thermal correction to Enthalpy=                  0.070387
 Thermal correction to Gibbs Free Energy=         0.036221
 Sum of electronic and zero-point Energies=           -192.632609
 Sum of electronic and thermal Energies=              -192.627714
 Sum of electronic and thermal Enthalpies=            -192.626770
 Sum of electronic and thermal Free Energies=         -192.660936
 
                     E (Thermal)             CV                S
                      KCal/Mol        Cal/Mol-Kelvin    Cal/Mol-Kelvin
 Total                   43.576             16.495             71.909
 Electronic               0.000              0.000              2.183
 Translational            0.889              2.981             38.389
 Rotational               0.889              2.981             24.444
 Vibrational             41.799             10.533              6.892
 Vibration     1          0.633              1.855              2.240
 Vibration     2          0.646              1.813              1.972
 Vibration     3          0.788              1.412              0.869
 Vibration     4          0.844              1.277              0.689
                       Q            Log10(Q)             Ln(Q)
 Total Bot       0.218476D-16        -16.660596        -38.362439
 Total V=0       0.107016D+14         13.029451         30.001419
 Vib (Bot)       0.737191D-29        -29.132420        -67.079877
 Vib (Bot)    1  0.106098D+01          0.025706          0.059191
 Vib (Bot)    2  0.906277D+00         -0.042739         -0.098411
 Vib (Bot)    3  0.409239D+00         -0.388023         -0.893456
 Vib (Bot)    4  0.340465D+00         -0.467927         -1.077443
 Vib (V=0)       0.361099D+01          0.557626          1.283981
 Vib (V=0)    1  0.167289D+01          0.223468          0.514553
 Vib (V=0)    2  0.153505D+01          0.186124          0.428566
 Vib (V=0)    3  0.114612D+01          0.059232          0.136386
 Vib (V=0)    4  0.110491D+01          0.043327          0.099764
 Electronic      0.300000D+01          0.477121          1.098612
 Translational   0.201393D+08          7.304044         16.818182
 Rotational      0.490523D+05          4.690660         10.800643
 
                                                              b3lyp opt
                                                             IR Spectrum
 
     3  33 3                                                           1 11        111   11                                          
     1  00 0                                                           5 44        221   00 99   8   7 7         4 4        21       
     7  88 4                                                           2 85        207   85 97   9   9 3         8 2        18       
     3  87 6                                                           9 57        689   93 04   4   9 3         8 7        89       
 
     X  XX X                                                           X XX        XXX   XX  X   X   X X         X X        XX       
           X                                                           X  X         X        X         X         X          X        
           X                                                           X  X                                      X                   
           X                                                           X                                         X                   
           X                                                           X                                         X                   
                                                                       X                                         X                   
                                                                       X                                         X                   
                                                                       X                                         X                   
                                                                       X                                         X                   
                                                                       X                                         X                   
                                                                       X                                                             
                                                                       X                                                             
                                                                       X                                                             
                                                                       X                                                             
                                                                       X                                                             
                                                                       X                                                             
                                                                       X                                                             
                                                                       X                                                             
                                                                       X                                                             
                                                                       X                                                             
 
 ***** Axes restored to original set *****
 -------------------------------------------------------------------
 Center     Atomic                   Forces (Hartrees/Bohr)
 Number     Number              X              Y              Z
 -------------------------------------------------------------------
      1        6          -0.000004168   -0.000021163    0.000000000
      2        6           0.000022021    0.000069053    0.000000000
      3        1          -0.000011700   -0.000012613   -0.000022758
      4        1          -0.000011700   -0.000012613    0.000022758
      5        1          -0.000014415   -0.000011098   -0.000001872
      6        6           0.000009937    0.000012468    0.000000000
      7        1          -0.000014415   -0.000011098    0.000001872
      8        6           0.000056378    0.000004572    0.000000000
      9        6          -0.000031938   -0.000017510    0.000000000
 -------------------------------------------------------------------
 Cartesian Forces:  Max     0.000069053 RMS     0.000021769
 Z-matrix is all fixed cartesians, so copy forces.
 Force constants in Cartesian coordinates: 
                1             2             3             4             5 
      1  0.393268D+00
      2  0.404372D-01  0.263803D+00
      3  0.000000D+00  0.000000D+00  0.573942D-01
      4  0.155330D-01  0.319316D-01  0.000000D+00  0.233493D+00
      5 -0.269727D-02 -0.591528D-01  0.000000D+00  0.531992D-01  0.463042D+00
      6  0.000000D+00  0.000000D+00  0.115530D-01  0.000000D+00  0.000000D+00
      7 -0.399368D-02 -0.339137D-02 -0.425615D-03 -0.362237D-01 -0.150458D-01
      8 -0.471399D-03  0.431445D-02  0.168258D-02 -0.178011D-01 -0.127521D+00
      9 -0.124837D-03 -0.202877D-02  0.181178D-02 -0.165738D-01 -0.122283D+00
     10 -0.399368D-02 -0.339137D-02  0.425614D-03 -0.362237D-01 -0.150458D-01
     11 -0.471405D-03  0.431445D-02 -0.168258D-02 -0.178011D-01 -0.127521D+00
     12  0.124839D-03  0.202877D-02  0.181178D-02  0.165738D-01  0.122283D+00
     13 -0.160281D-01  0.141275D-02  0.119867D-01 -0.861018D-02  0.133193D-02
     14  0.145356D-01  0.540967D-03 -0.194848D-01 -0.121745D-01 -0.166525D-02
     15  0.145337D-02 -0.220957D-02  0.494416D-02 -0.289818D-02 -0.185710D-03
     16 -0.134354D+00  0.813382D-01  0.000000D+00 -0.114525D+00 -0.760627D-01
     17  0.888900D-01 -0.110826D+00  0.000000D+00 -0.387949D-01 -0.847171D-01
     18  0.000000D+00  0.000000D+00 -0.536739D-01  0.000000D+00  0.000000D+00
     19 -0.160281D-01  0.141275D-02 -0.119867D-01 -0.861018D-02  0.133193D-02
     20  0.145356D-01  0.540968D-03  0.194848D-01 -0.121745D-01 -0.166525D-02
     21 -0.145337D-02  0.220957D-02  0.494416D-02  0.289818D-02  0.185710D-03
     22 -0.165048D+00 -0.122947D+00  0.000000D+00 -0.273586D-01  0.412192D-01
     23 -0.123891D+00 -0.960977D-01  0.000000D+00  0.505300D-02 -0.495240D-01
     24  0.000000D+00  0.000000D+00 -0.355084D-01  0.000000D+00  0.000000D+00
     25 -0.693549D-01 -0.268023D-01  0.000000D+00 -0.174748D-01  0.117694D-01
     26 -0.308669D-01 -0.743811D-02  0.000000D+00  0.856232D-02 -0.112759D-01
     27  0.000000D+00  0.000000D+00  0.672318D-02  0.000000D+00  0.000000D+00
                6             7             8             9            10 
      6  0.607085D+00
      7 -0.157573D-01  0.470416D-01
      8 -0.126731D+00  0.134968D-01  0.132754D+00
      9 -0.250973D+00  0.183411D-01  0.134166D+00  0.259267D+00
     10  0.157573D-01  0.642349D-03  0.825257D-03 -0.215143D-02  0.470416D-01
     11  0.126731D+00  0.825257D-03  0.125007D-01 -0.144514D-01  0.134968D-01
     12 -0.250973D+00  0.215143D-02  0.144514D-01 -0.161940D-01 -0.183411D-01
     13  0.127898D-01  0.999860D-03 -0.122547D-03  0.214942D-04 -0.132910D-02
     14  0.198098D-01  0.129704D-02  0.125105D-02 -0.193288D-03 -0.303431D-02
     15  0.216108D-02  0.150778D-03 -0.847000D-04  0.911690D-03 -0.105731D-03
     16  0.000000D+00 -0.184367D-02 -0.437449D-02  0.105660D-02 -0.184367D-02
     17  0.000000D+00 -0.144259D-01 -0.731939D-02  0.273481D-02 -0.144259D-01
     18 -0.777626D-01 -0.209886D-01 -0.117829D-01  0.195790D-02  0.209886D-01
     19 -0.127898D-01 -0.132910D-02 -0.168796D-03  0.387589D-03  0.999860D-03
     20 -0.198098D-01 -0.303431D-02 -0.137857D-02  0.134006D-03  0.129704D-02
     21  0.216108D-02  0.105731D-03  0.301873D-03  0.459557D-03 -0.150778D-03
     22  0.000000D+00 -0.816041D-02  0.117414D-01  0.230586D-03 -0.816042D-02
     23  0.000000D+00  0.182562D-01 -0.138482D-01  0.143216D-02  0.182562D-01
     24 -0.427589D-01  0.158004D-01 -0.116617D-01  0.215037D-02 -0.158004D-01
     25  0.000000D+00  0.286679D-02 -0.312508D-02 -0.118732D-02  0.286680D-02
     26  0.000000D+00  0.202212D-02 -0.753061D-03  0.489426D-03  0.202212D-02
     27 -0.492057D-03  0.622079D-03 -0.341068D-03  0.609357D-03 -0.622079D-03
               11            12            13            14            15 
     11  0.132754D+00
     12 -0.134166D+00  0.259267D+00
     13 -0.168796D-03 -0.387589D-03  0.141964D+00
     14 -0.137857D-02 -0.134006D-03 -0.101999D-02  0.426889D-01
     15 -0.301873D-03  0.459557D-03 -0.132224D+00  0.165456D-02  0.241697D+00
     16 -0.437449D-02 -0.105660D-02 -0.124746D+00 -0.384652D-03  0.120440D+00
     17 -0.731939D-02 -0.273481D-02 -0.313427D-02 -0.429678D-01  0.129115D-02
     18  0.117829D-01  0.195790D-02  0.122663D+00 -0.314392D-02 -0.227247D+00
     19 -0.122547D-03 -0.214942D-04  0.113912D-01 -0.431302D-03  0.146522D-01
     20  0.125105D-02  0.193288D-03 -0.431302D-03  0.178648D-02  0.119847D-03
     21  0.847000D-04  0.911690D-03 -0.146522D-01 -0.119847D-03 -0.218612D-01
     22  0.117414D-01 -0.230593D-03 -0.250446D-02 -0.506856D-04 -0.183727D-02
     23 -0.138482D-01 -0.143216D-02  0.277368D-02 -0.607591D-03 -0.233303D-03
     24  0.116617D-01  0.215037D-02  0.798427D-03  0.141325D-02 -0.905511D-03
     25 -0.312508D-02  0.118733D-02 -0.113734D-02  0.126282D-02  0.369607D-03
     26 -0.753060D-03 -0.489426D-03 -0.641458D-03  0.351861D-03 -0.503923D-04
     27  0.341068D-03  0.609357D-03 -0.995087D-03  0.198180D-03 -0.159768D-03
               16            17            18            19            20 
     16  0.558498D+00
     17 -0.504527D-02  0.289236D+00
     18  0.000000D+00  0.000000D+00  0.565978D+00
     19 -0.124746D+00 -0.313427D-02 -0.122663D+00  0.141964D+00
     20 -0.384649D-03 -0.429678D-01  0.314392D-02 -0.101999D-02  0.426889D-01
     21 -0.120440D+00 -0.129115D-02 -0.227247D+00  0.132224D+00 -0.165456D-02
     22 -0.552839D-01 -0.127631D-02  0.000000D+00 -0.250446D-02 -0.506988D-04
     23  0.109746D-01  0.894226D-02  0.000000D+00  0.277368D-02 -0.607591D-03
     24  0.000000D+00  0.000000D+00  0.120513D-01 -0.798428D-03 -0.141325D-02
     25 -0.115571D-02 -0.865317D-02  0.000000D+00 -0.113734D-02  0.126282D-02
     26 -0.168655D-02 -0.206080D-02  0.000000D+00 -0.641457D-03  0.351858D-03
     27  0.000000D+00  0.000000D+00  0.398464D-02  0.995087D-03 -0.198180D-03
               21            22            23            24            25 
     21  0.241697D+00
     22  0.183727D-02  0.661688D+00
     23  0.233302D-03  0.144681D+00  0.179552D+00
     24 -0.905512D-03  0.000000D+00  0.000000D+00  0.868642D-01
     25 -0.369607D-03 -0.392667D+00 -0.788776D-01  0.000000D+00  0.477194D+00
     26  0.503925D-04 -0.850584D-01 -0.139610D-01  0.000000D+00  0.106288D+00
     27 -0.159767D-03  0.000000D+00  0.000000D+00 -0.231380D-01  0.000000D+00
               26            27 
     26  0.355382D-01
     27  0.000000D+00  0.120230D-01
 Leave Link  716 at Thu Jan 31 06:57:28 2019, MaxMem=    33554432 cpu:         0.2
 (Enter /home/proyectos/fulerenos/M3C-v2.0/M3C-deps_CCC/g09-AM64L-G09RevC.01/l103.exe)

 GradGradGradGradGradGradGradGradGradGradGradGradGradGradGradGradGradGrad
 Berny optimization.
 Search for a local minimum.
 Step number   1 out of a maximum of    2
 All quantities printed in internal units (Hartrees-Bohrs-Radians)
 Second derivative matrix not updated -- analytic derivatives used.
 ITU=  0
     Eigenvalues ---    0.00492   0.01492   0.02765   0.03319   0.05089
     Eigenvalues ---    0.05509   0.07403   0.09379   0.09812   0.13770
     Eigenvalues ---    0.14513   0.14892   0.22426   0.25858   0.41678
     Eigenvalues ---    0.51313   0.65024   0.71171   0.79905   0.87022
     Eigenvalues ---    1.05854
 Angle between quadratic step and forces=  70.48 degrees.
 ClnCor:  largest displacement from symmetrization is 6.98D-11 for atom     8.
 Linear search not attempted -- first point.
 ClnCor:  largest displacement from symmetrization is 3.11D-15 for atom     5.
 B after Tr=     0.000045   -0.000013    0.000000
         Rot=    1.000000    0.000000    0.000000    0.000013 Ang=   0.00 deg.
 Variable       Old X    -DE/DX   Delta X   Delta X   Delta X     New X
                                 (Linear)    (Quad)   (Total)
    X1       -0.62057  -0.00000   0.00000   0.00011   0.00010  -0.62046
    Y1       -2.03433  -0.00002   0.00000   0.00007   0.00008  -2.03425
    Z1       -0.00002   0.00000   0.00000   0.00000   0.00000  -0.00002
    X2       -0.57571   0.00002   0.00000  -0.00004   0.00006  -0.57566
    Y2        1.76707   0.00007   0.00000   0.00025   0.00025   1.76732
    Z2       -0.00002   0.00000   0.00000   0.00000  -0.00000  -0.00002
    X3       -0.42654  -0.00001   0.00000  -0.00032  -0.00020  -0.42674
    Y3        2.88941  -0.00001   0.00000   0.00022   0.00022   2.88963
    Z3        1.70886  -0.00002   0.00000  -0.00005  -0.00005   1.70881
    X4       -0.42654  -0.00001   0.00000  -0.00032  -0.00020  -0.42674
    Y4        2.88941  -0.00001   0.00000   0.00022   0.00022   2.88963
    Z4       -1.70890   0.00002   0.00000   0.00005   0.00005  -1.70885
    X5       -3.94413  -0.00001   0.00000  -0.00012  -0.00008  -3.94421
    Y5       -0.17560  -0.00001   0.00000  -0.00029  -0.00020  -0.17580
    Z5        1.68374  -0.00000   0.00000  -0.00008  -0.00008   1.68366
    X6       -2.75878   0.00001   0.00000   0.00004   0.00008  -2.75870
    Y6       -0.19135   0.00001   0.00000  -0.00001   0.00006  -0.19130
    Z6       -0.00002   0.00000   0.00000   0.00000  -0.00000  -0.00002
    X7       -3.94413  -0.00001   0.00000  -0.00012  -0.00008  -3.94421
    Y7       -0.17560  -0.00001   0.00000  -0.00029  -0.00020  -0.17580
    Z7       -1.68378   0.00000   0.00000   0.00008   0.00008  -1.68371
    X8        1.48393   0.00006   0.00000   0.00007   0.00010   1.48403
    Y8       -0.47409   0.00000   0.00000   0.00029   0.00023  -0.47386
    Z8       -0.00002   0.00000   0.00000   0.00000   0.00000  -0.00002
    X9        3.92809  -0.00003   0.00000   0.00018   0.00022   3.92832
    Y9        0.02813  -0.00002   0.00000  -0.00055  -0.00067   0.02746
    Z9       -0.00002   0.00000   0.00000   0.00000   0.00000  -0.00002
         Item               Value     Threshold  Converged?
 Maximum Force            0.000069     0.000450     YES
 RMS     Force            0.000022     0.000300     YES
 Maximum Displacement     0.000668     0.001800     YES
 RMS     Displacement     0.000186     0.001200     YES
 Predicted change in Energy=-1.854468D-08
 Optimization completed.
    -- Stationary point found.
 GradGradGradGradGradGradGradGradGradGradGradGradGradGradGradGradGradGrad

 Leave Link  103 at Thu Jan 31 06:57:28 2019, MaxMem=    33554432 cpu:         0.1
 (Enter /home/proyectos/fulerenos/M3C-v2.0/M3C-deps_CCC/g09-AM64L-G09RevC.01/l9999.exe)

 Test job not archived.
 1\1\GINC-COPERNICIO\Freq\UB3LYP\6-311++G(3df,2p)\C5H4(3)\ROOT\31-Jan-2
 019\0\\#p b3lyp/6-311++G(3df,2p) freq IOp(2/17=3) IOp(2/18=3)\\b3lyp o
 pt\\0,3\C,-0.328388973,-1.076518991,-0.0000114436\C,-0.304653984,0.935
 091005,-0.0000114436\H,-0.225717048,1.529007929,0.90428948\H,-0.225717
 048,1.529007929,-0.9043123672\H,-2.087142992,-0.092924393,0.890996488\
 C,-1.459884015,-0.101260005,-0.0000114436\H,-2.087142992,-0.092924393,
 -0.8910193752\C,0.785262009,-0.250879997,-0.0000114436\C,2.078656967,0
 .014886989,-0.0000114436\\Version=EM64L-G09RevE.01\State=3-A"\HF=-192.
 6971569\S2=2.037455\S2-1=0.\S2A=2.000562\RMSD=3.865e-09\RMSF=2.177e-05
 \ZeroPoint=0.0645482\Thermal=0.0694432\Dipole=-1.5085451,0.4946723,0.\
 DipoleDeriv=0.1362685,0.1625017,0.,-0.4865612,0.0775105,0.,-0.0000001,
 -0.0000002,-0.0345783,0.456845,-0.2105872,0.,-0.0375009,0.192303,0.,0.
 ,0.,0.1216585,0.0112682,0.0099864,-0.004167,0.0760469,-0.0453988,-0.04
 29486,-0.01382,-0.0333907,0.0095824,0.0112682,0.0099863,0.004167,0.076
 047,-0.0453988,0.0429486,0.01382,0.0333907,0.0095824,-0.039838,-0.0010
 981,0.0540194,0.0321594,0.0800103,-0.0166128,0.1101694,-0.0117954,-0.0
 295572,0.2852556,-0.1698236,0.,0.02447,0.001968,0.,0.,0.,0.1874945,-0.
 039838,-0.0010981,-0.0540194,0.0321593,0.0800102,0.0166128,-0.1101693,
 0.0117954,-0.0295572,-1.392021,0.1671703,0.,0.1285289,0.0421803,0.,0.0
 000002,0.0000002,0.0321952,0.5707915,0.0329623,0.,0.1546506,-0.3831847
 ,0.,0.,0.,-0.2668203\Polar=81.8823778,3.7194289,54.1110997,0.0000002,0
 .0000001,43.2509525\PG=CS [SG(C5),X(H4)]\NImag=0\\0.39326759,0.0404371
 7,0.26380335,0.,0.,0.05739418,0.01553296,0.03193160,0.,0.23349349,-0.0
 0269727,-0.05915283,0.,0.05319916,0.46304239,-0.00000001,0.,0.01155300
 ,0.,0.,0.60708499,-0.00399368,-0.00339137,-0.00042561,-0.03622372,-0.0
 1504580,-0.01575731,0.04704158,-0.00047140,0.00431445,0.00168258,-0.01
 780113,-0.12752108,-0.12673099,0.01349679,0.13275409,-0.00012484,-0.00
 202877,0.00181178,-0.01657381,-0.12228256,-0.25097331,0.01834112,0.134
 16557,0.25926661,-0.00399368,-0.00339137,0.00042561,-0.03622372,-0.015
 04580,0.01575731,0.00064235,0.00082526,-0.00215143,0.04704158,-0.00047
 141,0.00431445,-0.00168258,-0.01780113,-0.12752108,0.12673099,0.000825
 26,0.01250075,-0.01445136,0.01349679,0.13275409,0.00012484,0.00202877,
 0.00181178,0.01657381,0.12228256,-0.25097331,0.00215143,0.01445136,-0.
 01619396,-0.01834112,-0.13416557,0.25926661,-0.01602810,0.00141275,0.0
 1198674,-0.00861018,0.00133193,0.01278975,0.00099986,-0.00012255,0.000
 02149,-0.00132910,-0.00016880,-0.00038759,0.14196404,0.01453557,0.0005
 4097,-0.01948477,-0.01217449,-0.00166525,0.01980984,0.00129704,0.00125
 105,-0.00019329,-0.00303431,-0.00137857,-0.00013401,-0.00101999,0.0426
 8888,0.00145337,-0.00220957,0.00494416,-0.00289818,-0.00018571,0.00216
 108,0.00015078,-0.00008470,0.00091169,-0.00010573,-0.00030187,0.000459
 56,-0.13222439,0.00165456,0.24169660,-0.13435364,0.08133818,0.,-0.1145
 2521,-0.07606272,0.,-0.00184367,-0.00437449,0.00105660,-0.00184367,-0.
 00437449,-0.00105660,-0.12474590,-0.00038465,0.12043961,0.55849763,0.0
 8888997,-0.11082553,0.,-0.03879485,-0.08471706,0.,-0.01442591,-0.00731
 939,0.00273481,-0.01442591,-0.00731939,-0.00273481,-0.00313427,-0.0429
 6782,0.00129115,-0.00504527,0.28923555,0.00000001,0.,-0.05367389,0.,0.
 ,-0.07776263,-0.02098862,-0.01178289,0.00195790,0.02098862,0.01178289,
 0.00195790,0.12266284,-0.00314392,-0.22724656,0.,0.,0.56597795,-0.0160
 2811,0.00141275,-0.01198674,-0.00861018,0.00133193,-0.01278975,-0.0013
 2910,-0.00016880,0.00038759,0.00099986,-0.00012255,-0.00002149,0.01139
 118,-0.00043130,0.01465219,-0.12474590,-0.00313427,-0.12266284,0.14196
 404,0.01453558,0.00054097,0.01948477,-0.01217449,-0.00166525,-0.019809
 84,-0.00303431,-0.00137857,0.00013401,0.00129704,0.00125105,0.00019329
 ,-0.00043130,0.00178648,0.00011985,-0.00038465,-0.04296782,0.00314392,
 -0.00101999,0.04268888,-0.00145337,0.00220957,0.00494416,0.00289818,0.
 00018571,0.00216108,0.00010573,0.00030187,0.00045956,-0.00015078,0.000
 08470,0.00091169,-0.01465219,-0.00011985,-0.02186125,-0.12043962,-0.00
 129115,-0.22724656,0.13222439,-0.00165456,0.24169660,-0.16504846,-0.12
 294738,0.,-0.02735862,0.04121915,0.00000002,-0.00816041,0.01174140,0.0
 0023059,-0.00816042,0.01174141,-0.00023059,-0.00250446,-0.00005069,-0.
 00183727,-0.05528395,-0.00127631,-0.00000002,-0.00250446,-0.00005070,0
 .00183727,0.66168786,-0.12389129,-0.09609772,0.,0.00505300,-0.04952397
 ,0.,0.01825618,-0.01384824,0.00143216,0.01825618,-0.01384823,-0.001432
 16,0.00277368,-0.00060759,-0.00023330,0.01097465,0.00894226,0.,0.00277
 368,-0.00060759,0.00023330,0.14468148,0.17955211,-0.00000001,0.,-0.035
 50836,0.,0.,-0.04275885,0.01580041,-0.01166173,0.00215037,-0.01580041,
 0.01166173,0.00215037,0.00079843,0.00141325,-0.00090551,0.,0.,0.012051
 26,-0.00079843,-0.00141325,-0.00090551,0.00000002,0.,0.08686419,-0.069
 35488,-0.02680233,0.,-0.01747482,0.01176940,0.,0.00286679,-0.00312508,
 -0.00118732,0.00286680,-0.00312508,0.00118733,-0.00113734,0.00126282,0
 .00036961,-0.00115571,-0.00865317,0.00000001,-0.00113734,0.00126282,-0
 .00036961,-0.39266707,-0.07887757,0.,0.47719357,-0.03086692,-0.0074381
 1,0.,0.00856232,-0.01127587,0.,0.00202212,-0.00075306,0.00048943,0.002
 02212,-0.00075306,-0.00048943,-0.00064146,0.00035186,-0.00005039,-0.00
 168655,-0.00206080,0.,-0.00064146,0.00035186,0.00005039,-0.08505836,-0
 .01396104,0.,0.10628818,0.03553823,0.,0.,0.00672318,0.,0.,-0.00049206,
 0.00062208,-0.00034107,0.00060936,-0.00062208,0.00034107,0.00060936,-0
 .00099509,0.00019818,-0.00015977,0.,0.,0.00398464,0.00099509,-0.000198
 18,-0.00015977,0.,0.,-0.02313795,0.,0.,0.01202301\\0.00000417,0.000021
 16,0.,-0.00002202,-0.00006905,0.,0.00001170,0.00001261,0.00002276,0.00
 001170,0.00001261,-0.00002276,0.00001442,0.00001110,0.00000187,-0.0000
 0994,-0.00001247,0.,0.00001442,0.00001110,-0.00000187,-0.00005638,-0.0
 0000457,0.,0.00003194,0.00001751,0.\\\@


 IF I AM NOT FOR MYSELF, WHO WILL BE?
 BUT IF I AM ONLY FOR MYSELF, WHAT AM I?
 THOUGH A SEEKER SINCE MY BIRTH,
 HERE IS ALL I'VE LEARNED ON EARTH,
 THIS IS THE GIST OF WHAT I KNOW:
 GIVE ADVICE AND BUY A FOE.

 PRESSED FOR RULES AND VERITIES,
 ALL I RECOLLECT ARE THESE:
 FEED A COLD TO STARVE A FEVER,
 ARGUE WITH NO TRUE-BELIEVER.
 THINK-TOO-LONG IS NEVER-ACT,
 SCRATCH A MYTH AND FIND A FACT.

 STITCH IN TIME SAVES TWENTY STITCHES,
 GIVE THE RICH TO PLEASE THEM, RICHES.
 GIVE TO LOVE YOU HEARTH AND HALL,
 BUT DO NOT GIVE ADVICE AT ALL.

                                  -- HILLEL
 Job cpu time:       0 days  1 hours  2 minutes 49.4 seconds.
 File lengths (MBytes):  RWF=     70 Int=      0 D2E=      0 Chk=      5 Scr=      1
 Normal termination of Gaussian 09 at Thu Jan 31 06:57:28 2019.
