 Entering Gaussian System, Link 0=/home/proyectos/fulerenos/M3C-v1.9/M3C-deps_CCC/g09-AM64L-G09RevC.01/g09
 Initial command:
 /home/proyectos/fulerenos/M3C-v1.9/M3C-deps_CCC/g09-AM64L-G09RevC.01/l1.exe "/scratch/naguirre/gaussian/Gau-5952.inp" -scrdir="/scratch/naguirre/gaussian/"
 Entering Link 1 = /home/proyectos/fulerenos/M3C-v1.9/M3C-deps_CCC/g09-AM64L-G09RevC.01/l1.exe PID=      5962.
  
 Copyright (c) 1988,1990,1992,1993,1995,1998,2003,2009,2015,
            Gaussian, Inc.  All Rights Reserved.
  
 This is part of the Gaussian(R) 09 program.  It is based on
 the Gaussian(R) 03 system (copyright 2003, Gaussian, Inc.),
 the Gaussian(R) 98 system (copyright 1998, Gaussian, Inc.),
 the Gaussian(R) 94 system (copyright 1995, Gaussian, Inc.),
 the Gaussian 92(TM) system (copyright 1992, Gaussian, Inc.),
 the Gaussian 90(TM) system (copyright 1990, Gaussian, Inc.),
 the Gaussian 88(TM) system (copyright 1988, Gaussian, Inc.),
 the Gaussian 86(TM) system (copyright 1986, Carnegie Mellon
 University), and the Gaussian 82(TM) system (copyright 1983,
 Carnegie Mellon University). Gaussian is a federally registered
 trademark of Gaussian, Inc.
  
 This software contains proprietary and confidential information,
 including trade secrets, belonging to Gaussian, Inc.
  
 This software is provided under written license and may be
 used, copied, transmitted, or stored only in accord with that
 written license.
  
 The following legend is applicable only to US Government
 contracts under FAR:
  
                    RESTRICTED RIGHTS LEGEND
  
 Use, reproduction and disclosure by the US Government is
 subject to restrictions as set forth in subparagraphs (a)
 and (c) of the Commercial Computer Software - Restricted
 Rights clause in FAR 52.227-19.
  
 Gaussian, Inc.
 340 Quinnipiac St., Bldg. 40, Wallingford CT 06492
  
  
 ---------------------------------------------------------------
 Warning -- This program may not be used in any manner that
 competes with the business of Gaussian, Inc. or will provide
 assistance to any competitor of Gaussian, Inc.  The licensee
 of this program is prohibited from giving any competitor of
 Gaussian, Inc. access to this program.  By using this program,
 the user acknowledges that Gaussian, Inc. is engaged in the
 business of creating and licensing software in the field of
 computational chemistry and represents and warrants to the
 licensee that it is not a competitor of Gaussian, Inc. and that
 it will not use this program in any manner prohibited above.
 ---------------------------------------------------------------
  

 Cite this work as:
 Gaussian 09, Revision E.01,
 M. J. Frisch, G. W. Trucks, H. B. Schlegel, G. E. Scuseria, 
 M. A. Robb, J. R. Cheeseman, G. Scalmani, V. Barone, B. Mennucci, 
 G. A. Petersson, H. Nakatsuji, M. Caricato, X. Li, H. P. Hratchian, 
 A. F. Izmaylov, J. Bloino, G. Zheng, J. L. Sonnenberg, M. Hada, 
 M. Ehara, K. Toyota, R. Fukuda, J. Hasegawa, M. Ishida, T. Nakajima, 
 Y. Honda, O. Kitao, H. Nakai, T. Vreven, J. A. Montgomery, Jr., 
 J. E. Peralta, F. Ogliaro, M. Bearpark, J. J. Heyd, E. Brothers, 
 K. N. Kudin, V. N. Staroverov, T. Keith, R. Kobayashi, J. Normand, 
 K. Raghavachari, A. Rendell, J. C. Burant, S. S. Iyengar, J. Tomasi, 
 M. Cossi, N. Rega, J. M. Millam, M. Klene, J. E. Knox, J. B. Cross, 
 V. Bakken, C. Adamo, J. Jaramillo, R. Gomperts, R. E. Stratmann, 
 O. Yazyev, A. J. Austin, R. Cammi, C. Pomelli, J. W. Ochterski, 
 R. L. Martin, K. Morokuma, V. G. Zakrzewski, G. A. Voth, 
 P. Salvador, J. J. Dannenberg, S. Dapprich, A. D. Daniels, 
 O. Farkas, J. B. Foresman, J. V. Ortiz, J. Cioslowski, 
 and D. J. Fox, Gaussian, Inc., Wallingford CT, 2013.
 
 ******************************************
 Gaussian 09:  EM64L-G09RevE.01 30-Nov-2015
                20-Jun-2016 
 ******************************************
 %NProcShared=4
 Will use up to    4 processors via shared memory.
 ---------------------------------------------
 #p b3lyp/6-311++G(3df,2p) freq symmetry=Loose
 ---------------------------------------------
 1/10=4,30=1,38=1/1,3;
 2/12=2,17=4,18=3,40=1/2;
 3/5=4,6=6,7=1216,11=2,16=1,25=1,30=1,71=2,74=-5,140=1/1,2,3;
 4//1;
 5/5=2,38=5,98=1/2;
 8/6=4,10=90,11=11/1;
 11/6=1,8=1,9=11,15=111,16=1/1,2,10;
 10/6=1/2;
 6/7=2,8=2,9=2,10=2,18=1,28=1/1;
 7/8=1,10=1,25=1/1,2,3,16;
 1/10=4,30=1/3;
 99//99;
 Leave Link    1 at Mon Jun 20 08:27:17 2016, MaxMem=           0 cpu:         0.3
 (Enter /home/proyectos/fulerenos/M3C-v1.9/M3C-deps_CCC/g09-AM64L-G09RevC.01/l101.exe)
 ---------
 b3lyp opt
 ---------
 Symbolic Z-matrix:
 Charge =  2 Multiplicity = 3
 C                    -2.3344   -0.0002    0.00007 
 H                    -2.89591  -0.0004   -0.94416 
 H                    -2.89709  -0.00049   0.94354 
 C                    -0.96746   0.0004    0.00046 
 C                     1.60739   0.66468  -0.00003 
 H                     2.07541   1.64909   0.00044 
 C                     1.60713  -0.66526  -0.00067 
 H                     2.07483  -1.6499   -0.00113 
 C                     0.36134   0.00004  -0.0001 
 
 NAtoms=      9 NQM=        9 NQMF=       0 NMMI=      0 NMMIF=      0
                NMic=       0 NMicF=      0.
                    Isotopes and Nuclear Properties:
 (Nuclear quadrupole moments (NQMom) in fm**2, nuclear magnetic moments (NMagM)
  in nuclear magnetons)

  Atom         1           2           3           4           5           6           7           8           9
 IAtWgt=          12           1           1          12          12           1          12           1          12
 AtmWgt=  12.0000000   1.0078250   1.0078250  12.0000000  12.0000000   1.0078250  12.0000000   1.0078250  12.0000000
 NucSpn=           0           1           1           0           0           1           0           1           0
 AtZEff=   0.0000000   0.0000000   0.0000000   0.0000000   0.0000000   0.0000000   0.0000000   0.0000000   0.0000000
 NQMom=    0.0000000   0.0000000   0.0000000   0.0000000   0.0000000   0.0000000   0.0000000   0.0000000   0.0000000
 NMagM=    0.0000000   2.7928460   2.7928460   0.0000000   0.0000000   2.7928460   0.0000000   2.7928460   0.0000000
 AtZNuc=   6.0000000   1.0000000   1.0000000   6.0000000   6.0000000   1.0000000   6.0000000   1.0000000   6.0000000
 Leave Link  101 at Mon Jun 20 08:27:18 2016, MaxMem=    33554432 cpu:         0.2
 (Enter /home/proyectos/fulerenos/M3C-v1.9/M3C-deps_CCC/g09-AM64L-G09RevC.01/l103.exe)

 GradGradGradGradGradGradGradGradGradGradGradGradGradGradGradGradGradGrad
 Berny optimization.
 Initialization pass.
 Trust Radius=3.00D-01 FncErr=1.00D-07 GrdErr=1.00D-07
 Number of steps in this run=      2 maximum allowed number of steps=      2.
 GradGradGradGradGradGradGradGradGradGradGradGradGradGradGradGradGradGrad

 Leave Link  103 at Mon Jun 20 08:27:18 2016, MaxMem=    33554432 cpu:         0.0
 (Enter /home/proyectos/fulerenos/M3C-v1.9/M3C-deps_CCC/g09-AM64L-G09RevC.01/l202.exe)
                          Input orientation:                          
 ---------------------------------------------------------------------
 Center     Atomic      Atomic             Coordinates (Angstroms)
 Number     Number       Type             X           Y           Z
 ---------------------------------------------------------------------
      1          6           0       -2.334399   -0.000200    0.000070
      2          1           0       -2.895907   -0.000400   -0.944163
      3          1           0       -2.897092   -0.000485    0.943538
      4          6           0       -0.967459    0.000396    0.000462
      5          6           0        1.607387    0.664681   -0.000025
      6          1           0        2.075407    1.649088    0.000435
      7          6           0        1.607133   -0.665256   -0.000670
      8          1           0        2.074832   -1.649897   -0.001128
      9          6           0        0.361336    0.000039   -0.000096
 ---------------------------------------------------------------------
                    Distance matrix (angstroms):
                    1          2          3          4          5
     1  C    0.000000
     2  H    1.098575   0.000000
     3  H    1.098524   1.887701   0.000000
     4  C    1.366940   2.147377   2.147761   0.000000
     5  C    3.997467   4.649020   4.650063   2.659155   0.000000
     6  H    4.708136   5.322315   5.323183   3.460812   1.090000
     7  C    3.997246   4.648611   4.649892   2.659251   1.329937
     8  H    4.707740   5.321504   5.322873   3.461070   2.361308
     9  C    2.695735   3.391297   3.392315   1.328795   1.412229
                    6          7          8          9
     6  H    0.000000
     7  C    2.361243   0.000000
     8  H    3.298985   1.090074   0.000000
     9  C    2.378529   1.412313   2.378730   0.000000
 Stoichiometry    C5H4(2+,3)
 Framework group  C1[X(C5H4)]
 Deg. of freedom    21
 Full point group                 C1      NOp   1
 Largest Abelian subgroup         C1      NOp   1
 Largest concise Abelian subgroup C1      NOp   1
                         Standard orientation:                         
 ---------------------------------------------------------------------
 Center     Atomic      Atomic             Coordinates (Angstroms)
 Number     Number       Type             X           Y           Z
 ---------------------------------------------------------------------
      1          6           0       -2.334435    0.000148    0.000127
      2          1           0       -2.895829    0.000897    0.944428
      3          1           0       -2.897242   -0.000086   -0.943273
      4          6           0       -0.967495   -0.000482   -0.000429
      5          6           0        1.607334   -0.664831    0.000123
      6          1           0        2.075330   -1.649250    0.000163
      7          6           0        1.607114    0.665106    0.000015
      8          1           0        2.074837    1.649736   -0.000141
      9          6           0        0.361300   -0.000158   -0.000032
 ---------------------------------------------------------------------
 Rotational constants (GHZ):     28.2456347      3.0165625      2.7793164
 Leave Link  202 at Mon Jun 20 08:27:18 2016, MaxMem=    33554432 cpu:         0.0
 (Enter /home/proyectos/fulerenos/M3C-v1.9/M3C-deps_CCC/g09-AM64L-G09RevC.01/l301.exe)
 Standard basis: 6-311++G(3df,2p) (5D, 7F)
 Ernie: Thresh=  0.10000D-02 Tol=  0.10000D-05 Strict=F.
 There are   265 symmetry adapted cartesian basis functions of A   symmetry.
 There are   235 symmetry adapted basis functions of A   symmetry.
   235 basis functions,   338 primitive gaussians,   265 cartesian basis functions
    17 alpha electrons       15 beta electrons
       nuclear repulsion energy       129.0496786661 Hartrees.
 IExCor=  402 DFT=T Ex+Corr=B3LYP ExCW=0 ScaHFX=  0.200000
 ScaDFX=  0.800000  0.720000  1.000000  0.810000 ScalE2=  1.000000  1.000000
 IRadAn=      0 IRanWt=     -1 IRanGd=            0 ICorTp=0 IEmpDi=  4
 NAtoms=    9 NActive=    9 NUniq=    9 SFac= 1.00D+00 NAtFMM=   60 NAOKFM=F Big=F
 Integral buffers will be    131072 words long.
 Raffenetti 2 integral format.
 Two-electron integral symmetry is turned on.
 Leave Link  301 at Mon Jun 20 08:27:18 2016, MaxMem=    33554432 cpu:         0.2
 (Enter /home/proyectos/fulerenos/M3C-v1.9/M3C-deps_CCC/g09-AM64L-G09RevC.01/l302.exe)
 NPDir=0 NMtPBC=     1 NCelOv=     1 NCel=       1 NClECP=     1 NCelD=      1
         NCelK=      1 NCelE2=     1 NClLst=     1 CellRange=     0.0.
 One-electron integrals computed using PRISM.
 NBasis=   235 RedAO= T EigKep=  5.80D-06  NBF=   235
 NBsUse=   234 1.00D-06 EigRej=  3.38D-07 NBFU=   234
 Precomputing XC quadrature grid using
 IXCGrd= 4 IRadAn=           0 IRanWt=          -1 IRanGd=           0 AccXCQ= 0.00D+00.
 Generated NRdTot=       0 NPtTot=           0 NUsed=           0 NTot=          32
 NSgBfM=   265   265   265   265   265 MxSgAt=     9 MxSgA2=     9.
 Leave Link  302 at Mon Jun 20 08:27:18 2016, MaxMem=    33554432 cpu:         1.3
 (Enter /home/proyectos/fulerenos/M3C-v1.9/M3C-deps_CCC/g09-AM64L-G09RevC.01/l303.exe)
 DipDrv:  MaxL=1.
 Leave Link  303 at Mon Jun 20 08:27:18 2016, MaxMem=    33554432 cpu:         0.1
 (Enter /home/proyectos/fulerenos/M3C-v1.9/M3C-deps_CCC/g09-AM64L-G09RevC.01/l401.exe)
 ExpMin= 3.60D-02 ExpMax= 4.56D+03 ExpMxC= 6.82D+02 IAcc=3 IRadAn=         5 AccDes= 0.00D+00
 Harris functional with IExCor=  402 and IRadAn=       5 diagonalized for initial guess.
 HarFok:  IExCor=  402 AccDes= 0.00D+00 IRadAn=         5 IDoV= 1 UseB2=F ITyADJ=14
 ICtDFT=  3500011 ScaDFX=  1.000000  1.000000  1.000000  1.000000
 FoFCou: FMM=F IPFlag=           0 FMFlag=      100000 FMFlg1=           0
         NFxFlg=           0 DoJE=T BraDBF=F KetDBF=T FulRan=T
         wScrn=  0.000000 ICntrl=     500 IOpCl=  0 I1Cent=   200000004 NGrid=           0
         NMat0=    1 NMatS0=      1 NMatT0=    0 NMatD0=    1 NMtDS0=    0 NMtDT0=    0
 Petite list used in FoFCou.
 Harris En= -192.248695237471    
 JPrj=0 DoOrth=F DoCkMO=F.
 Initial guess <Sx>= 0.0000 <Sy>= 0.0000 <Sz>= 1.0000 <S**2>= 2.0000 S= 1.0000
 Leave Link  401 at Mon Jun 20 08:27:21 2016, MaxMem=    33554432 cpu:        10.9
 (Enter /home/proyectos/fulerenos/M3C-v1.9/M3C-deps_CCC/g09-AM64L-G09RevC.01/l502.exe)
 UHF open shell SCF:
 Using DIIS extrapolation, IDIIS=  1040.
 Integral symmetry usage will be decided dynamically.
 IVT=      232727 IEndB=      232727 NGot=    33554432 MDV=    33408836
 LenX=    33408836 LenY=    33338170
 Requested convergence on RMS density matrix=1.00D-08 within 128 cycles.
 Requested convergence on MAX density matrix=1.00D-06.
 Requested convergence on             energy=1.00D-06.
 No special actions if energy rises.
 Fock matrices will be formed incrementally for  20 cycles.

 Cycle   1  Pass 1  IDiag  1:
 FoFJK:  IHMeth= 1 ICntrl=       0 DoSepK=F KAlg= 0 I1Cent=   0 FoldK=F
 IRaf= 970000000 NMat=   1 IRICut=       1 DoRegI=T DoRafI=F ISym2E= 0.
 FoFCou: FMM=F IPFlag=           0 FMFlag=      100000 FMFlg1=           0
         NFxFlg=           0 DoJE=F BraDBF=F KetDBF=F FulRan=T
         wScrn=  0.000000 ICntrl=       0 IOpCl=  1 I1Cent=           0 NGrid=           0
         NMat0=    1 NMatS0=      1 NMatT0=    0 NMatD0=    1 NMtDS0=    0 NMtDT0=    0
 Symmetry not used in FoFCou.
 E= -191.933869837853    
 DIIS: error= 1.77D-02 at cycle   1 NSaved=   1.
 NSaved= 1 IEnMin= 1 EnMin= -191.933869837853     IErMin= 1 ErrMin= 1.77D-02
 ErrMax= 1.77D-02  0.00D+00 EMaxC= 1.00D-01 BMatC= 1.83D-01 BMatP= 1.83D-01
 IDIUse=3 WtCom= 8.23D-01 WtEn= 1.77D-01
 Coeff-Com:  0.100D+01
 Coeff-En:   0.100D+01
 Coeff:      0.100D+01
 Gap=     0.212 Goal=   None    Shift=    0.000
 Gap=     0.162 Goal=   None    Shift=    0.000
 GapD=    0.162 DampG=1.000 DampE=0.500 DampFc=0.5000 IDamp=-1.
 Damping current iteration by 5.00D-01
 RMSDP=5.33D-03 MaxDP=2.97D-01              OVMax= 2.31D-01

 Cycle   2  Pass 1  IDiag  1:
 RMSU=  2.38D-03    CP:  1.08D+00
 E= -191.939636186427     Delta-E=       -0.005766348574 Rises=F Damp=T
 DIIS: error= 1.11D-02 at cycle   2 NSaved=   2.
 NSaved= 2 IEnMin= 2 EnMin= -191.939636186427     IErMin= 2 ErrMin= 1.11D-02
 ErrMax= 1.11D-02  0.00D+00 EMaxC= 1.00D-01 BMatC= 5.43D-02 BMatP= 1.83D-01
 IDIUse=3 WtCom= 8.89D-01 WtEn= 1.11D-01
 Coeff-Com:  0.226D+00 0.774D+00
 Coeff-En:   0.428D+00 0.572D+00
 Coeff:      0.249D+00 0.751D+00
 Gap=     0.224 Goal=   None    Shift=    0.000
 Gap=     0.221 Goal=   None    Shift=    0.000
 RMSDP=1.80D-03 MaxDP=1.15D-01 DE=-5.77D-03 OVMax= 2.39D-01

 Cycle   3  Pass 1  IDiag  1:
 RMSU=  1.71D-03    CP:  1.12D+00  1.04D+00
 E= -191.971055698520     Delta-E=       -0.031419512093 Rises=F Damp=F
 DIIS: error= 8.23D-03 at cycle   3 NSaved=   3.
 NSaved= 3 IEnMin= 3 EnMin= -191.971055698520     IErMin= 3 ErrMin= 8.23D-03
 ErrMax= 8.23D-03  0.00D+00 EMaxC= 1.00D-01 BMatC= 2.15D-02 BMatP= 5.43D-02
 IDIUse=3 WtCom= 9.18D-01 WtEn= 8.23D-02
 Coeff-Com: -0.124D+00 0.384D+00 0.740D+00
 Coeff-En:   0.000D+00 0.000D+00 0.100D+01
 Coeff:     -0.114D+00 0.352D+00 0.761D+00
 Gap=     0.204 Goal=   None    Shift=    0.000
 Gap=     0.171 Goal=   None    Shift=    0.000
 RMSDP=6.23D-04 MaxDP=1.82D-02 DE=-3.14D-02 OVMax= 5.67D-02

 Cycle   4  Pass 1  IDiag  1:
 RMSU=  4.06D-04    CP:  1.12D+00  1.17D+00  7.85D-01
 E= -191.976790882127     Delta-E=       -0.005735183607 Rises=F Damp=F
 DIIS: error= 3.03D-03 at cycle   4 NSaved=   4.
 NSaved= 4 IEnMin= 4 EnMin= -191.976790882127     IErMin= 4 ErrMin= 3.03D-03
 ErrMax= 3.03D-03  0.00D+00 EMaxC= 1.00D-01 BMatC= 2.70D-03 BMatP= 2.15D-02
 IDIUse=3 WtCom= 9.70D-01 WtEn= 3.03D-02
 Coeff-Com: -0.601D-01 0.137D+00 0.393D+00 0.530D+00
 Coeff-En:   0.000D+00 0.000D+00 0.745D-01 0.925D+00
 Coeff:     -0.583D-01 0.133D+00 0.383D+00 0.542D+00
 Gap=     0.210 Goal=   None    Shift=    0.000
 Gap=     0.181 Goal=   None    Shift=    0.000
 RMSDP=2.55D-04 MaxDP=9.04D-03 DE=-5.74D-03 OVMax= 2.65D-02

 Cycle   5  Pass 1  IDiag  1:
 RMSU=  1.60D-04    CP:  1.12D+00  1.14D+00  8.70D-01  7.07D-01
 E= -191.977655650035     Delta-E=       -0.000864767908 Rises=F Damp=F
 DIIS: error= 8.07D-04 at cycle   5 NSaved=   5.
 NSaved= 5 IEnMin= 5 EnMin= -191.977655650035     IErMin= 5 ErrMin= 8.07D-04
 ErrMax= 8.07D-04  0.00D+00 EMaxC= 1.00D-01 BMatC= 2.90D-04 BMatP= 2.70D-03
 IDIUse=3 WtCom= 9.92D-01 WtEn= 8.07D-03
 Coeff-Com: -0.634D-02-0.117D-01 0.172D-01 0.247D+00 0.754D+00
 Coeff-En:   0.000D+00 0.000D+00 0.000D+00 0.000D+00 0.100D+01
 Coeff:     -0.629D-02-0.117D-01 0.171D-01 0.245D+00 0.756D+00
 Gap=     0.209 Goal=   None    Shift=    0.000
 Gap=     0.181 Goal=   None    Shift=    0.000
 RMSDP=6.68D-05 MaxDP=2.92D-03 DE=-8.65D-04 OVMax= 8.31D-03

 Cycle   6  Pass 1  IDiag  1:
 RMSU=  5.73D-05    CP:  1.12D+00  1.14D+00  8.79D-01  7.84D-01  9.97D-01
 E= -191.977776045413     Delta-E=       -0.000120395378 Rises=F Damp=F
 DIIS: error= 3.04D-04 at cycle   6 NSaved=   6.
 NSaved= 6 IEnMin= 6 EnMin= -191.977776045413     IErMin= 6 ErrMin= 3.04D-04
 ErrMax= 3.04D-04  0.00D+00 EMaxC= 1.00D-01 BMatC= 3.19D-05 BMatP= 2.90D-04
 IDIUse=3 WtCom= 9.97D-01 WtEn= 3.04D-03
 Coeff-Com:  0.888D-02-0.253D-01-0.615D-01 0.228D-02 0.209D+00 0.866D+00
 Coeff-En:   0.000D+00 0.000D+00 0.000D+00 0.000D+00 0.000D+00 0.100D+01
 Coeff:      0.885D-02-0.252D-01-0.613D-01 0.227D-02 0.209D+00 0.867D+00
 Gap=     0.209 Goal=   None    Shift=    0.000
 Gap=     0.182 Goal=   None    Shift=    0.000
 RMSDP=5.75D-05 MaxDP=2.48D-03 DE=-1.20D-04 OVMax= 5.22D-03

 Cycle   7  Pass 1  IDiag  1:
 RMSU=  3.25D-05    CP:  1.12D+00  1.14D+00  8.93D-01  7.71D-01  1.21D+00
                    CP:  1.38D+00
 E= -191.977794073050     Delta-E=       -0.000018027637 Rises=F Damp=F
 DIIS: error= 2.16D-04 at cycle   7 NSaved=   7.
 NSaved= 7 IEnMin= 7 EnMin= -191.977794073050     IErMin= 7 ErrMin= 2.16D-04
 ErrMax= 2.16D-04  0.00D+00 EMaxC= 1.00D-01 BMatC= 2.08D-05 BMatP= 3.19D-05
 IDIUse=3 WtCom= 9.98D-01 WtEn= 2.16D-03
 Coeff-Com:  0.685D-02-0.116D-01-0.357D-01-0.576D-01-0.112D+00 0.559D+00
 Coeff-Com:  0.651D+00
 Coeff-En:   0.000D+00 0.000D+00 0.000D+00 0.000D+00 0.000D+00 0.000D+00
 Coeff-En:   0.100D+01
 Coeff:      0.683D-02-0.116D-01-0.356D-01-0.575D-01-0.112D+00 0.558D+00
 Coeff:      0.652D+00
 Gap=     0.209 Goal=   None    Shift=    0.000
 Gap=     0.182 Goal=   None    Shift=    0.000
 RMSDP=2.61D-05 MaxDP=1.15D-03 DE=-1.80D-05 OVMax= 1.80D-03

 Cycle   8  Pass 1  IDiag  1:
 RMSU=  1.42D-05    CP:  1.12D+00  1.14D+00  8.98D-01  7.87D-01  1.26D+00
                    CP:  1.59D+00  8.64D-01
 E= -191.977801226716     Delta-E=       -0.000007153666 Rises=F Damp=F
 DIIS: error= 5.38D-05 at cycle   8 NSaved=   8.
 NSaved= 8 IEnMin= 8 EnMin= -191.977801226716     IErMin= 8 ErrMin= 5.38D-05
 ErrMax= 5.38D-05  0.00D+00 EMaxC= 1.00D-01 BMatC= 1.05D-06 BMatP= 2.08D-05
 IDIUse=1 WtCom= 1.00D+00 WtEn= 0.00D+00
 Coeff-Com:  0.103D-02-0.880D-03-0.126D-02-0.138D-01-0.743D-01 0.913D-01
 Coeff-Com:  0.173D+00 0.825D+00
 Coeff:      0.103D-02-0.880D-03-0.126D-02-0.138D-01-0.743D-01 0.913D-01
 Coeff:      0.173D+00 0.825D+00
 Gap=     0.209 Goal=   None    Shift=    0.000
 Gap=     0.182 Goal=   None    Shift=    0.000
 RMSDP=9.17D-06 MaxDP=4.99D-04 DE=-7.15D-06 OVMax= 7.13D-04

 Cycle   9  Pass 1  IDiag  1:
 RMSU=  4.84D-06    CP:  1.12D+00  1.14D+00  9.01D-01  7.85D-01  1.28D+00
                    CP:  1.66D+00  9.13D-01  1.09D+00
 E= -191.977801715788     Delta-E=       -0.000000489072 Rises=F Damp=F
 DIIS: error= 1.42D-05 at cycle   9 NSaved=   9.
 NSaved= 9 IEnMin= 9 EnMin= -191.977801715788     IErMin= 9 ErrMin= 1.42D-05
 ErrMax= 1.42D-05  0.00D+00 EMaxC= 1.00D-01 BMatC= 1.13D-07 BMatP= 1.05D-06
 IDIUse=1 WtCom= 1.00D+00 WtEn= 0.00D+00
 Coeff-Com: -0.401D-03 0.954D-03 0.367D-02 0.421D-02-0.370D-02-0.421D-01
 Coeff-Com: -0.578D-01 0.199D+00 0.897D+00
 Coeff:     -0.401D-03 0.954D-03 0.367D-02 0.421D-02-0.370D-02-0.421D-01
 Coeff:     -0.578D-01 0.199D+00 0.897D+00
 Gap=     0.209 Goal=   None    Shift=    0.000
 Gap=     0.181 Goal=   None    Shift=    0.000
 RMSDP=3.45D-06 MaxDP=1.65D-04 DE=-4.89D-07 OVMax= 2.04D-04

 Cycle  10  Pass 1  IDiag  1:
 RMSU=  1.54D-06    CP:  1.12D+00  1.14D+00  9.02D-01  7.86D-01  1.29D+00
                    CP:  1.69D+00  9.53D-01  1.19D+00  1.06D+00
 E= -191.977801770552     Delta-E=       -0.000000054764 Rises=F Damp=F
 DIIS: error= 3.61D-06 at cycle  10 NSaved=  10.
 NSaved=10 IEnMin=10 EnMin= -191.977801770552     IErMin=10 ErrMin= 3.61D-06
 ErrMax= 3.61D-06  0.00D+00 EMaxC= 1.00D-01 BMatC= 6.17D-09 BMatP= 1.13D-07
 IDIUse=1 WtCom= 1.00D+00 WtEn= 0.00D+00
 Coeff-Com: -0.104D-03 0.111D-03 0.509D-03 0.183D-02 0.531D-02-0.117D-01
 Coeff-Com: -0.271D-01-0.352D-01 0.485D-01 0.102D+01
 Coeff:     -0.104D-03 0.111D-03 0.509D-03 0.183D-02 0.531D-02-0.117D-01
 Coeff:     -0.271D-01-0.352D-01 0.485D-01 0.102D+01
 Gap=     0.209 Goal=   None    Shift=    0.000
 Gap=     0.181 Goal=   None    Shift=    0.000
 RMSDP=1.07D-06 MaxDP=5.27D-05 DE=-5.48D-08 OVMax= 7.52D-05

 Cycle  11  Pass 1  IDiag  1:
 RMSU=  3.69D-07    CP:  1.12D+00  1.14D+00  9.02D-01  7.86D-01  1.29D+00
                    CP:  1.69D+00  9.56D-01  1.23D+00  1.10D+00  1.06D+00
 E= -191.977801774834     Delta-E=       -0.000000004282 Rises=F Damp=F
 DIIS: error= 1.05D-06 at cycle  11 NSaved=  11.
 NSaved=11 IEnMin=11 EnMin= -191.977801774834     IErMin=11 ErrMin= 1.05D-06
 ErrMax= 1.05D-06  0.00D+00 EMaxC= 1.00D-01 BMatC= 4.57D-10 BMatP= 6.17D-09
 IDIUse=1 WtCom= 1.00D+00 WtEn= 0.00D+00
 Coeff-Com:  0.414D-04-0.815D-04-0.256D-03-0.320D-03-0.360D-03 0.438D-02
 Coeff-Com:  0.348D-02-0.568D-02-0.659D-01-0.492D-01 0.111D+01
 Coeff:      0.414D-04-0.815D-04-0.256D-03-0.320D-03-0.360D-03 0.438D-02
 Coeff:      0.348D-02-0.568D-02-0.659D-01-0.492D-01 0.111D+01
 Gap=     0.209 Goal=   None    Shift=    0.000
 Gap=     0.181 Goal=   None    Shift=    0.000
 RMSDP=1.85D-07 MaxDP=1.00D-05 DE=-4.28D-09 OVMax= 1.90D-05

 Cycle  12  Pass 1  IDiag  1:
 RMSU=  9.29D-08    CP:  1.12D+00  1.14D+00  9.02D-01  7.86D-01  1.29D+00
                    CP:  1.69D+00  9.56D-01  1.23D+00  1.10D+00  1.13D+00
                    CP:  1.19D+00
 E= -191.977801775107     Delta-E=       -0.000000000272 Rises=F Damp=F
 DIIS: error= 1.95D-07 at cycle  12 NSaved=  12.
 NSaved=12 IEnMin=12 EnMin= -191.977801775107     IErMin=12 ErrMin= 1.95D-07
 ErrMax= 1.95D-07  0.00D+00 EMaxC= 1.00D-01 BMatC= 1.85D-11 BMatP= 4.57D-10
 IDIUse=1 WtCom= 1.00D+00 WtEn= 0.00D+00
 Coeff-Com:  0.574D-05-0.734D-05-0.326D-04-0.131D-03-0.267D-03 0.708D-03
 Coeff-Com:  0.113D-02 0.165D-02-0.304D-02-0.498D-01 0.670D-02 0.104D+01
 Coeff:      0.574D-05-0.734D-05-0.326D-04-0.131D-03-0.267D-03 0.708D-03
 Coeff:      0.113D-02 0.165D-02-0.304D-02-0.498D-01 0.670D-02 0.104D+01
 Gap=     0.209 Goal=   None    Shift=    0.000
 Gap=     0.181 Goal=   None    Shift=    0.000
 RMSDP=4.18D-08 MaxDP=2.01D-06 DE=-2.72D-10 OVMax= 3.99D-06

 Cycle  13  Pass 1  IDiag  1:
 RMSU=  2.24D-08    CP:  1.12D+00  1.14D+00  9.02D-01  7.86D-01  1.29D+00
                    CP:  1.69D+00  9.56D-01  1.23D+00  1.10D+00  1.13D+00
                    CP:  1.26D+00  1.17D+00
 E= -191.977801775121     Delta-E=       -0.000000000014 Rises=F Damp=F
 DIIS: error= 1.41D-07 at cycle  13 NSaved=  13.
 NSaved=13 IEnMin=13 EnMin= -191.977801775121     IErMin=13 ErrMin= 1.41D-07
 ErrMax= 1.41D-07  0.00D+00 EMaxC= 1.00D-01 BMatC= 9.26D-12 BMatP= 1.85D-11
 IDIUse=1 WtCom= 1.00D+00 WtEn= 0.00D+00
 Coeff-Com:  0.101D-06 0.165D-05 0.129D-05-0.463D-04-0.966D-04 0.607D-04
 Coeff-Com:  0.310D-03 0.119D-02 0.290D-02-0.208D-01-0.722D-01 0.523D+00
 Coeff-Com:  0.565D+00
 Coeff:      0.101D-06 0.165D-05 0.129D-05-0.463D-04-0.966D-04 0.607D-04
 Coeff:      0.310D-03 0.119D-02 0.290D-02-0.208D-01-0.722D-01 0.523D+00
 Coeff:      0.565D+00
 Gap=     0.209 Goal=   None    Shift=    0.000
 Gap=     0.181 Goal=   None    Shift=    0.000
 RMSDP=1.48D-08 MaxDP=5.89D-07 DE=-1.41D-11 OVMax= 9.73D-07

 Cycle  14  Pass 1  IDiag  1:
 RMSU=  1.11D-08    CP:  1.12D+00  1.14D+00  9.02D-01  7.86D-01  1.29D+00
                    CP:  1.69D+00  9.56D-01  1.23D+00  1.10D+00  1.13D+00
                    CP:  1.26D+00  1.23D+00  6.87D-01
 E= -191.977801775120     Delta-E=        0.000000000001 Rises=F Damp=F
 DIIS: error= 5.95D-08 at cycle  14 NSaved=  14.
 NSaved=14 IEnMin=13 EnMin= -191.977801775121     IErMin=14 ErrMin= 5.95D-08
 ErrMax= 5.95D-08  0.00D+00 EMaxC= 1.00D-01 BMatC= 1.90D-12 BMatP= 9.26D-12
 IDIUse=1 WtCom= 1.00D+00 WtEn= 0.00D+00
 Coeff-Com: -0.200D-05 0.354D-05 0.135D-04 0.199D-04 0.527D-04-0.229D-03
 Coeff-Com: -0.245D-03 0.101D-03 0.277D-02 0.677D-02-0.448D-01-0.836D-01
 Coeff-Com:  0.300D+00 0.819D+00
 Coeff:     -0.200D-05 0.354D-05 0.135D-04 0.199D-04 0.527D-04-0.229D-03
 Coeff:     -0.245D-03 0.101D-03 0.277D-02 0.677D-02-0.448D-01-0.836D-01
 Coeff:      0.300D+00 0.819D+00
 Gap=     0.209 Goal=   None    Shift=    0.000
 Gap=     0.181 Goal=   None    Shift=    0.000
 RMSDP=8.09D-09 MaxDP=2.76D-07 DE= 9.09D-13 OVMax= 5.22D-07

 SCF Done:  E(UB3LYP) =  -191.977801775     A.U. after   14 cycles
            NFock= 14  Conv=0.81D-08     -V/T= 2.0046
 <Sx>= 0.0000 <Sy>= 0.0000 <Sz>= 1.0000 <S**2>= 2.0078 S= 1.0026
 <L.S>= 0.000000000000E+00
 KE= 1.911017745369D+02 PE=-6.877143958452D+02 EE= 1.755851408672D+02
 Annihilation of the first spin contaminant:
 S**2 before annihilation     2.0078,   after     2.0000
 Leave Link  502 at Mon Jun 20 08:30:02 2016, MaxMem=    33554432 cpu:       611.6
 (Enter /home/proyectos/fulerenos/M3C-v1.9/M3C-deps_CCC/g09-AM64L-G09RevC.01/l801.exe)
 DoSCS=F DFT=T ScalE2(SS,OS)=  1.000000  1.000000
 Range of M.O.s used for correlation:     1   234
 NBasis=   235 NAE=    17 NBE=    15 NFC=     0 NFV=     0
 NROrb=    234 NOA=    17 NOB=    15 NVA=   217 NVB=   219

 **** Warning!!: The largest alpha MO coefficient is  0.11959262D+03


 **** Warning!!: The largest beta MO coefficient is  0.11744795D+03

 Leave Link  801 at Mon Jun 20 08:30:02 2016, MaxMem=    33554432 cpu:         0.1
 (Enter /home/proyectos/fulerenos/M3C-v1.9/M3C-deps_CCC/g09-AM64L-G09RevC.01/l1101.exe)
 Using compressed storage, NAtomX=     9.
 Will process     10 centers per pass.
 Leave Link 1101 at Mon Jun 20 08:30:03 2016, MaxMem=    33554432 cpu:         3.2
 (Enter /home/proyectos/fulerenos/M3C-v1.9/M3C-deps_CCC/g09-AM64L-G09RevC.01/l1102.exe)
 Symmetrizing basis deriv contribution to polar:
 IMax=3 JMax=2 DiffMx= 0.00D+00
 Leave Link 1102 at Mon Jun 20 08:30:03 2016, MaxMem=    33554432 cpu:         0.1
 (Enter /home/proyectos/fulerenos/M3C-v1.9/M3C-deps_CCC/g09-AM64L-G09RevC.01/l1110.exe)
 Forming Gx(P) for the SCF density, NAtomX=     9.
 Integral derivatives from FoFJK, PRISM(SPDF).
 Do as many integral derivatives as possible in FoFJK.
 G2DrvN: MDV=      33554256.
 G2DrvN: will do    10 centers at a time, making    1 passes.
 Calling FoFCou, ICntrl=  3107 FMM=F I1Cent=   0 AccDes= 0.00D+00.
 FoFJK:  IHMeth= 1 ICntrl=    3107 DoSepK=F KAlg= 0 I1Cent=   0 FoldK=F
 IRaf=         0 NMat=   1 IRICut=       1 DoRegI=T DoRafI=F ISym2E= 0.
 FoFCou: FMM=F IPFlag=           0 FMFlag=      100000 FMFlg1=           0
         NFxFlg=           0 DoJE=F BraDBF=F KetDBF=F FulRan=T
         wScrn=  0.000000 ICntrl=    3107 IOpCl=  1 I1Cent=           0 NGrid=           0
         NMat0=    1 NMatS0=      1 NMatT0=    0 NMatD0=    1 NMtDS0=    0 NMtDT0=    0
 Symmetry not used in FoFCou.
 End of G2Drv F.D. properties file   721 does not exist.
 End of G2Drv F.D. properties file   722 does not exist.
 End of G2Drv F.D. properties file   788 does not exist.
 Leave Link 1110 at Mon Jun 20 08:32:06 2016, MaxMem=    33554432 cpu:       491.1
 (Enter /home/proyectos/fulerenos/M3C-v1.9/M3C-deps_CCC/g09-AM64L-G09RevC.01/l1002.exe)
 Minotr:  UHF open shell wavefunction.
          IDoAtm=111111111
          Direct CPHF calculation.
          Differentiating once with respect to electric field.
                with respect to dipole field.
          Differentiating once with respect to nuclear coordinates.
          Requested convergence is 1.0D-08 RMS, and 1.0D-07 maximum.
          Secondary convergence is 1.0D-12 RMS, and 1.0D-12 maximum.
          NewPWx=T KeepS1=F KeepF1=F KeepIn=T MapXYZ=F SortEE=F KeepMc=T.
          MDV=      33553870 using IRadAn=       2.
 Generate precomputed XC quadrature information.
          Solving linear equations simultaneously, MaxMat=       0.
 FoFJK:  IHMeth= 1 ICntrl=       0 DoSepK=F KAlg= 0 I1Cent=   0 FoldK=F
 IRaf= 970000000 NMat=  30 IRICut=      75 DoRegI=T DoRafI=T ISym2E= 2.
 FoFCou: FMM=F IPFlag=           0 FMFlag=      100000 FMFlg1=           0
         NFxFlg=           0 DoJE=F BraDBF=F KetDBF=F FulRan=T
         wScrn=  0.000000 ICntrl=       0 IOpCl=  1 I1Cent=           0 NGrid=           0
         NMat0=   30 NMatS0=     30 NMatT0=    0 NMatD0=   30 NMtDS0=    0 NMtDT0=    0
 Integrals replicated using symmetry in FoFCou.
          There are    30 degrees of freedom in the 1st order CPHF.  IDoFFX=6 NUNeed=     3.
     28 vectors produced by pass  0 Test12= 2.32D-14 3.33D-09 XBig12= 2.66D+02 9.21D+00.
 AX will form    28 AO Fock derivatives at one time.
     27 vectors produced by pass  1 Test12= 2.32D-14 3.33D-09 XBig12= 3.24D+01 1.92D+00.
     27 vectors produced by pass  2 Test12= 2.32D-14 3.33D-09 XBig12= 1.16D+00 4.27D-01.
     27 vectors produced by pass  3 Test12= 2.32D-14 3.33D-09 XBig12= 1.75D-02 3.12D-02.
     27 vectors produced by pass  4 Test12= 2.32D-14 3.33D-09 XBig12= 1.14D-04 2.60D-03.
     27 vectors produced by pass  5 Test12= 2.32D-14 3.33D-09 XBig12= 6.04D-07 1.17D-04.
     26 vectors produced by pass  6 Test12= 2.32D-14 3.33D-09 XBig12= 3.69D-09 1.10D-05.
      9 vectors produced by pass  7 Test12= 2.32D-14 3.33D-09 XBig12= 1.70D-11 5.45D-07.
      4 vectors produced by pass  8 Test12= 2.32D-14 3.33D-09 XBig12= 3.55D-13 1.10D-07.
      4 vectors produced by pass  9 Test12= 2.32D-14 3.33D-09 XBig12= 1.85D-14 3.73D-08.
      1 vectors produced by pass 10 Test12= 2.32D-14 3.33D-09 XBig12= 1.35D-15 5.85D-09.
 InvSVY:  IOpt=1 It=  1 EMax= 7.11D-15
 Solved reduced A of dimension   207 with    30 vectors.
 FullF1:  Do perturbations    1 to     3.
 Isotropic polarizability for W=    0.000000       49.66 Bohr**3.
 End of Minotr F.D. properties file   721 does not exist.
 End of Minotr F.D. properties file   722 does not exist.
 End of Minotr F.D. properties file   788 does not exist.
 Leave Link 1002 at Mon Jun 20 08:39:14 2016, MaxMem=    33554432 cpu:      1713.3
 (Enter /home/proyectos/fulerenos/M3C-v1.9/M3C-deps_CCC/g09-AM64L-G09RevC.01/l601.exe)
 Copying SCF densities to generalized density rwf, IOpCl= 1 IROHF=0.

 **********************************************************************

            Population analysis using the SCF density.

 **********************************************************************

 Orbital symmetries:
 Alpha Orbitals:
       Occupied  (A) (A) (A) (A) (A) (A) (A) (A) (A) (A) (A) (A)
                 (A) (A) (A) (A) (A)
       Virtual   (A) (A) (A) (A) (A) (A) (A) (A) (A) (A) (A) (A)
                 (A) (A) (A) (A) (A) (A) (A) (A) (A) (A) (A) (A)
                 (A) (A) (A) (A) (A) (A) (A) (A) (A) (A) (A) (A)
                 (A) (A) (A) (A) (A) (A) (A) (A) (A) (A) (A) (A)
                 (A) (A) (A) (A) (A) (A) (A) (A) (A) (A) (A) (A)
                 (A) (A) (A) (A) (A) (A) (A) (A) (A) (A) (A) (A)
                 (A) (A) (A) (A) (A) (A) (A) (A) (A) (A) (A) (A)
                 (A) (A) (A) (A) (A) (A) (A) (A) (A) (A) (A) (A)
                 (A) (A) (A) (A) (A) (A) (A) (A) (A) (A) (A) (A)
                 (A) (A) (A) (A) (A) (A) (A) (A) (A) (A) (A) (A)
                 (A) (A) (A) (A) (A) (A) (A) (A) (A) (A) (A) (A)
                 (A) (A) (A) (A) (A) (A) (A) (A) (A) (A) (A) (A)
                 (A) (A) (A) (A) (A) (A) (A) (A) (A) (A) (A) (A)
                 (A) (A) (A) (A) (A) (A) (A) (A) (A) (A) (A) (A)
                 (A) (A) (A) (A) (A) (A) (A) (A) (A) (A) (A) (A)
                 (A) (A) (A) (A) (A) (A) (A) (A) (A) (A) (A) (A)
                 (A) (A) (A) (A) (A) (A) (A) (A) (A) (A) (A) (A)
                 (A) (A) (A) (A) (A) (A) (A) (A) (A) (A) (A) (A)
                 (A)
 Beta  Orbitals:
       Occupied  (A) (A) (A) (A) (A) (A) (A) (A) (A) (A) (A) (A)
                 (A) (A) (A)
       Virtual   (A) (A) (A) (A) (A) (A) (A) (A) (A) (A) (A) (A)
                 (A) (A) (A) (A) (A) (A) (A) (A) (A) (A) (A) (A)
                 (A) (A) (A) (A) (A) (A) (A) (A) (A) (A) (A) (A)
                 (A) (A) (A) (A) (A) (A) (A) (A) (A) (A) (A) (A)
                 (A) (A) (A) (A) (A) (A) (A) (A) (A) (A) (A) (A)
                 (A) (A) (A) (A) (A) (A) (A) (A) (A) (A) (A) (A)
                 (A) (A) (A) (A) (A) (A) (A) (A) (A) (A) (A) (A)
                 (A) (A) (A) (A) (A) (A) (A) (A) (A) (A) (A) (A)
                 (A) (A) (A) (A) (A) (A) (A) (A) (A) (A) (A) (A)
                 (A) (A) (A) (A) (A) (A) (A) (A) (A) (A) (A) (A)
                 (A) (A) (A) (A) (A) (A) (A) (A) (A) (A) (A) (A)
                 (A) (A) (A) (A) (A) (A) (A) (A) (A) (A) (A) (A)
                 (A) (A) (A) (A) (A) (A) (A) (A) (A) (A) (A) (A)
                 (A) (A) (A) (A) (A) (A) (A) (A) (A) (A) (A) (A)
                 (A) (A) (A) (A) (A) (A) (A) (A) (A) (A) (A) (A)
                 (A) (A) (A) (A) (A) (A) (A) (A) (A) (A) (A) (A)
                 (A) (A) (A) (A) (A) (A) (A) (A) (A) (A) (A) (A)
                 (A) (A) (A) (A) (A) (A) (A) (A) (A) (A) (A) (A)
                 (A) (A) (A)
 The electronic state is 3-A.
 Alpha  occ. eigenvalues --  -10.74897 -10.71965 -10.71029 -10.70729 -10.70643
 Alpha  occ. eigenvalues --   -1.41505  -1.29108  -1.17147  -1.04098  -0.99406
 Alpha  occ. eigenvalues --   -0.96381  -0.92346  -0.86536  -0.86421  -0.86213
 Alpha  occ. eigenvalues --   -0.76081  -0.72088
 Alpha virt. eigenvalues --   -0.51168  -0.47326  -0.43451  -0.33037  -0.30071
 Alpha virt. eigenvalues --   -0.28984  -0.27533  -0.26195  -0.25988  -0.23871
 Alpha virt. eigenvalues --   -0.22841  -0.22776  -0.21898  -0.21109  -0.19625
 Alpha virt. eigenvalues --   -0.17954  -0.17669  -0.16914  -0.16145  -0.15047
 Alpha virt. eigenvalues --   -0.14244  -0.11772  -0.11616  -0.10999  -0.10199
 Alpha virt. eigenvalues --   -0.09904  -0.09722  -0.09464  -0.08394  -0.05149
 Alpha virt. eigenvalues --   -0.05061  -0.04150  -0.02507  -0.01698  -0.01456
 Alpha virt. eigenvalues --   -0.00603   0.01340   0.04386   0.06388   0.06634
 Alpha virt. eigenvalues --    0.07000   0.08033   0.09103   0.09359   0.10381
 Alpha virt. eigenvalues --    0.10927   0.12931   0.13177   0.15034   0.15391
 Alpha virt. eigenvalues --    0.16983   0.18569   0.20368   0.21153   0.21601
 Alpha virt. eigenvalues --    0.23393   0.23544   0.24955   0.29398   0.30638
 Alpha virt. eigenvalues --    0.32057   0.32199   0.34514   0.36021   0.39021
 Alpha virt. eigenvalues --    0.42228   0.42333   0.42997   0.43957   0.45347
 Alpha virt. eigenvalues --    0.47085   0.50441   0.58960   0.60723   0.62751
 Alpha virt. eigenvalues --    0.64748   0.65408   0.69006   0.70079   0.71137
 Alpha virt. eigenvalues --    0.72415   0.77747   0.80231   0.81155   0.82543
 Alpha virt. eigenvalues --    0.85918   0.86307   0.88555   0.90452   0.93821
 Alpha virt. eigenvalues --    0.95147   0.96898   0.97417   0.98347   0.99296
 Alpha virt. eigenvalues --    1.04367   1.06999   1.09245   1.11985   1.14041
 Alpha virt. eigenvalues --    1.16069   1.21128   1.23653   1.24448   1.33796
 Alpha virt. eigenvalues --    1.33891   1.36989   1.50155   1.51176   1.56738
 Alpha virt. eigenvalues --    1.59850   1.62227   1.68483   1.72932   1.78325
 Alpha virt. eigenvalues --    1.79585   1.97808   2.02766   2.09901   2.11597
 Alpha virt. eigenvalues --    2.13333   2.16156   2.17570   2.18847   2.21917
 Alpha virt. eigenvalues --    2.23421   2.23571   2.30641   2.31707   2.33888
 Alpha virt. eigenvalues --    2.36550   2.39405   2.40119   2.40486   2.45202
 Alpha virt. eigenvalues --    2.45864   2.51785   2.55352   2.57378   2.58459
 Alpha virt. eigenvalues --    2.59009   2.59353   2.63253   2.67416   2.69530
 Alpha virt. eigenvalues --    2.76656   2.85904   2.86771   2.87280   2.91361
 Alpha virt. eigenvalues --    2.96616   2.96802   3.10140   3.10910   3.13092
 Alpha virt. eigenvalues --    3.18923   3.21493   3.23991   3.29650   3.32251
 Alpha virt. eigenvalues --    3.53308   3.58270   3.66069   3.67294   3.71325
 Alpha virt. eigenvalues --    3.74984   3.77309   3.79466   3.82074   3.84733
 Alpha virt. eigenvalues --    4.02197   4.02410   4.09231   4.12620   4.14295
 Alpha virt. eigenvalues --    4.24663   4.48653   4.54477   4.57409   4.87821
 Alpha virt. eigenvalues --    4.92753   5.08464   5.35454   5.43114   6.08106
 Alpha virt. eigenvalues --    6.14352   6.14479   6.42280   6.46334   6.55435
 Alpha virt. eigenvalues --    6.57689   6.58537   6.61232   6.69383   6.74992
 Alpha virt. eigenvalues --    6.77569   6.84498   6.85715   6.89973   6.90538
 Alpha virt. eigenvalues --    6.99945   7.04714   7.08553   7.13598   7.19114
 Alpha virt. eigenvalues --    7.21608   7.49929   7.66099   7.81482   7.95918
 Alpha virt. eigenvalues --    8.02734   8.33109  23.44820  24.35720  24.94464
 Alpha virt. eigenvalues --   25.30086  25.37004
  Beta  occ. eigenvalues --  -10.73244 -10.71960 -10.70364 -10.70326 -10.70280
  Beta  occ. eigenvalues --   -1.40255  -1.24452  -1.14907  -1.03018  -0.98424
  Beta  occ. eigenvalues --   -0.94497  -0.89389  -0.85672  -0.84261  -0.83048
  Beta virt. eigenvalues --   -0.64900  -0.60689  -0.45357  -0.45342  -0.39814
  Beta virt. eigenvalues --   -0.32131  -0.28778  -0.28579  -0.27214  -0.25733
  Beta virt. eigenvalues --   -0.25671  -0.23024  -0.21884  -0.21438  -0.21386
  Beta virt. eigenvalues --   -0.20642  -0.18796  -0.17401  -0.16799  -0.16531
  Beta virt. eigenvalues --   -0.15688  -0.14450  -0.13171  -0.11315  -0.10679
  Beta virt. eigenvalues --   -0.10618  -0.10076  -0.09683  -0.09505  -0.09305
  Beta virt. eigenvalues --   -0.07883  -0.04867  -0.04704  -0.04066  -0.02182
  Beta virt. eigenvalues --   -0.01132  -0.00894   0.00356   0.01671   0.04716
  Beta virt. eigenvalues --    0.06894   0.07268   0.07697   0.08757   0.09946
  Beta virt. eigenvalues --    0.10034   0.10720   0.11786   0.13531   0.14348
  Beta virt. eigenvalues --    0.16333   0.16421   0.17954   0.19144   0.20847
  Beta virt. eigenvalues --    0.21451   0.23136   0.23760   0.23838   0.25407
  Beta virt. eigenvalues --    0.30304   0.31063   0.32428   0.32856   0.35273
  Beta virt. eigenvalues --    0.36568   0.40242   0.42783   0.43077   0.43524
  Beta virt. eigenvalues --    0.44455   0.45701   0.48029   0.51965   0.59942
  Beta virt. eigenvalues --    0.61562   0.63544   0.65499   0.65761   0.69937
  Beta virt. eigenvalues --    0.70669   0.71431   0.72867   0.78505   0.81594
  Beta virt. eigenvalues --    0.81808   0.82832   0.86971   0.87232   0.89100
  Beta virt. eigenvalues --    0.91674   0.94860   0.97688   0.97711   0.98575
  Beta virt. eigenvalues --    0.99226   1.00317   1.05329   1.07944   1.12322
  Beta virt. eigenvalues --    1.12894   1.15059   1.18892   1.23232   1.25393
  Beta virt. eigenvalues --    1.27617   1.35370   1.35450   1.39150   1.51923
  Beta virt. eigenvalues --    1.52697   1.58106   1.62038   1.63311   1.69602
  Beta virt. eigenvalues --    1.74805   1.79783   1.80772   1.99345   2.03834
  Beta virt. eigenvalues --    2.11241   2.13870   2.13917   2.18615   2.19773
  Beta virt. eigenvalues --    2.21988   2.24116   2.25992   2.28412   2.33674
  Beta virt. eigenvalues --    2.34314   2.35356   2.39676   2.40783   2.41389
  Beta virt. eigenvalues --    2.42184   2.47782   2.48125   2.53283   2.56378
  Beta virt. eigenvalues --    2.59802   2.60332   2.60810   2.62557   2.64872
  Beta virt. eigenvalues --    2.70028   2.70849   2.77303   2.87095   2.88410
  Beta virt. eigenvalues --    2.88974   2.93461   2.98069   2.99097   3.11442
  Beta virt. eigenvalues --    3.12330   3.15472   3.20031   3.22202   3.24615
  Beta virt. eigenvalues --    3.30523   3.33936   3.55298   3.58797   3.66894
  Beta virt. eigenvalues --    3.68922   3.72832   3.76274   3.78351   3.80500
  Beta virt. eigenvalues --    3.82808   3.86012   4.03176   4.03451   4.10940
  Beta virt. eigenvalues --    4.13238   4.15167   4.25108   4.49851   4.55506
  Beta virt. eigenvalues --    4.58592   4.90091   4.93795   5.09485   5.37760
  Beta virt. eigenvalues --    5.43957   6.09263   6.15222   6.15542   6.47683
  Beta virt. eigenvalues --    6.53020   6.58593   6.59160   6.62852   6.63753
  Beta virt. eigenvalues --    6.71756   6.76457   6.80420   6.86832   6.86858
  Beta virt. eigenvalues --    6.91906   6.94467   7.03149   7.06032   7.09342
  Beta virt. eigenvalues --    7.14517   7.20354   7.23545   7.50870   7.67571
  Beta virt. eigenvalues --    7.82008   7.96467   8.04269   8.33734  23.45587
  Beta virt. eigenvalues --   24.36413  24.95749  25.30536  25.37643
          Condensed to atoms (all electrons):
               1          2          3          4          5          6
     1  C    6.490162   0.435560   0.435853  -1.048708   0.043019   0.001611
     2  H    0.435560   0.350880  -0.010377  -0.072140  -0.000741   0.000021
     3  H    0.435853  -0.010377   0.350825  -0.072541  -0.000701   0.000023
     4  C   -1.048708  -0.072140  -0.072541   7.043119  -0.178325  -0.023343
     5  C    0.043019  -0.000741  -0.000701  -0.178325   7.735723   0.268977
     6  H    0.001611   0.000021   0.000023  -0.023343   0.268977   0.362588
     7  C    0.043203  -0.000750  -0.000713  -0.181619  -1.761506   0.016081
     8  H    0.001581   0.000022   0.000024  -0.023391   0.016005  -0.002074
     9  C   -0.418582  -0.005121  -0.005058   0.016048  -0.236934   0.010645
               7          8          9
     1  C    0.043203   0.001581  -0.418582
     2  H   -0.000750   0.000022  -0.005121
     3  H   -0.000713   0.000024  -0.005058
     4  C   -0.181619  -0.023391   0.016048
     5  C   -1.761506   0.016005  -0.236934
     6  H    0.016081  -0.002074   0.010645
     7  C    7.738267   0.269246  -0.236182
     8  H    0.269246   0.362617   0.010517
     9  C   -0.236182   0.010517   6.986564
          Atomic-Atomic Spin Densities.
               1          2          3          4          5          6
     1  C    0.246781   0.017429   0.017703   0.095827  -0.007195  -0.000110
     2  H    0.017429   0.023578  -0.001596  -0.005704   0.000006  -0.000004
     3  H    0.017703  -0.001596   0.023507  -0.005990   0.000003  -0.000004
     4  C    0.095827  -0.005704  -0.005990   0.689142  -0.030770  -0.001720
     5  C   -0.007195   0.000006   0.000003  -0.030770   0.571940   0.033587
     6  H   -0.000110  -0.000004  -0.000004  -0.001720   0.033587   0.010437
     7  C   -0.007529   0.000011   0.000013  -0.033761  -0.254989  -0.008988
     8  H   -0.000116  -0.000004  -0.000004  -0.001780  -0.009000  -0.000746
     9  C    0.015128  -0.002119  -0.002076   0.176782  -0.115605  -0.021287
               7          8          9
     1  C   -0.007529  -0.000116   0.015128
     2  H    0.000011  -0.000004  -0.002119
     3  H    0.000013  -0.000004  -0.002076
     4  C   -0.033761  -0.001780   0.176782
     5  C   -0.254989  -0.009000  -0.115605
     6  H   -0.008988  -0.000746  -0.021287
     7  C    0.574038   0.033718  -0.114582
     8  H    0.033718   0.010471  -0.021365
     9  C   -0.114582  -0.021365   0.363780
 Mulliken charges and spin densities:
               1          2
     1  C    0.016303   0.377918
     2  H    0.302646   0.031596
     3  H    0.302665   0.031556
     4  C    0.540900   0.882027
     5  C    0.114484   0.187977
     6  H    0.365471   0.011165
     7  C    0.113974   0.187932
     8  H    0.365453   0.011175
     9  C   -0.121896   0.278656
 Sum of Mulliken charges =   2.00000   2.00000
 Mulliken charges and spin densities with hydrogens summed into heavy atoms:
               1          2
     1  C    0.621614   0.441069
     4  C    0.540900   0.882027
     5  C    0.479955   0.199142
     7  C    0.479428   0.199106
     9  C   -0.121896   0.278656
 APT charges:
               1
     1  C    0.182811
     2  H    0.266820
     3  H    0.266982
     4  C    0.414832
     5  C    0.314783
     6  H    0.277260
     7  C    0.314881
     8  H    0.277280
     9  C   -0.315649
 Sum of APT charges =   2.00000
 APT charges with hydrogens summed into heavy atoms:
               1
     1  C    0.716614
     4  C    0.414832
     5  C    0.592043
     7  C    0.592160
     9  C   -0.315649
 Electronic spatial extent (au):  <R**2>=            401.9999
 Charge=              2.0000 electrons
 Dipole moment (field-independent basis, Debye):
    X=             -1.5421    Y=              0.0009    Z=              0.0007  Tot=              1.5421
 Quadrupole moment (field-independent basis, Debye-Ang):
   XX=             17.1473   YY=            -16.3608   ZZ=            -22.6654
   XY=             -0.0009   XZ=             -0.0008   YZ=              0.0003
 Traceless Quadrupole moment (field-independent basis, Debye-Ang):
   XX=             24.4403   YY=             -9.0678   ZZ=            -15.3724
   XY=             -0.0009   XZ=             -0.0008   YZ=              0.0003
 Octapole moment (field-independent basis, Debye-Ang**2):
  XXX=            -39.9812  YYY=              0.0074  ZZZ=              0.0058  XYY=             17.3417
  XXY=              0.0067  XXZ=             -0.0006  XZZ=             -7.0702  YZZ=              0.0014
  YYZ=              0.0002  XYZ=             -0.0050
 Hexadecapole moment (field-independent basis, Debye-Ang**3):
 XXXX=           -160.5693 YYYY=            -37.0692 ZZZZ=            -25.2918 XXXY=             -0.0333
 XXXZ=              0.0208 YYYX=              0.0099 YYYZ=             -0.0023 ZZZX=             -0.0135
 ZZZY=              0.0019 XXYY=            -39.9152 XXZZ=            -52.3506 YYZZ=            -15.1204
 XXYZ=              0.0078 YYXZ=              0.0001 ZZXY=             -0.0041
 N-N= 1.290496786661D+02 E-N=-6.877143957056D+02  KE= 1.911017745369D+02
  Exact polarizability:  88.247   0.001  33.983  -0.001   0.001  26.752
 Approx polarizability: 141.668   0.004  53.130   0.003   0.001  38.655
                          Isotropic Fermi Contact Couplings
        Atom                 a.u.       MegaHertz       Gauss      10(-4) cm-1
     1  C(13)             -0.01209      -6.79420      -2.42434      -2.26630
     2  H(1)               0.01943      43.41796      15.49261      14.48267
     3  H(1)               0.01940      43.34957      15.46820      14.45986
     4  C(13)              0.03525      19.81430       7.07024       6.60934
     5  C(13)              0.02195      12.33797       4.40249       4.11550
     6  H(1)               0.00466      10.41554       3.71652       3.47425
     7  C(13)              0.02196      12.34404       4.40466       4.11753
     8  H(1)               0.00466      10.41047       3.71471       3.47256
     9  C(13)             -0.05864     -32.96146     -11.76147     -10.99476
 --------------------------------------------------------
       Center         ----  Spin Dipole Couplings  ----
                      3XX-RR        3YY-RR        3ZZ-RR
 --------------------------------------------------------
     1   Atom       -0.308700      0.599563     -0.290863
     2   Atom        0.005633     -0.018366      0.012733
     3   Atom        0.005789     -0.018361      0.012572
     4   Atom       -0.695491      0.023956      0.671535
     5   Atom        0.007621     -0.151056      0.143435
     6   Atom       -0.007163      0.019724     -0.012561
     7   Atom        0.007599     -0.151087      0.143487
     8   Atom       -0.007174      0.019736     -0.012562
     9   Atom        0.009040      0.019187     -0.028227
 --------------------------------------------------------
                        XY            XZ            YZ
 --------------------------------------------------------
     1   Atom        0.000725     -0.000020     -0.000497
     2   Atom       -0.000037     -0.052679      0.000052
     3   Atom        0.000022      0.052697     -0.000011
     4   Atom        0.000056     -0.000124      0.000219
     5   Atom       -0.033322     -0.000042     -0.000006
     6   Atom       -0.015891      0.000001     -0.000003
     7   Atom        0.033360     -0.000060      0.000068
     8   Atom        0.015885     -0.000003     -0.000004
     9   Atom       -0.000011     -0.000110     -0.000044
 --------------------------------------------------------


 ---------------------------------------------------------------------------------
              Anisotropic Spin Dipole Couplings in Principal Axis System
 ---------------------------------------------------------------------------------

       Atom             a.u.   MegaHertz   Gauss  10(-4) cm-1        Axes

              Baa    -0.3087   -41.425   -14.781   -13.818  1.0000 -0.0008  0.0011
     1 C(13)  Bbb    -0.2909   -39.031   -13.927   -13.019 -0.0011  0.0006  1.0000
              Bcc     0.5996    80.456    28.709    26.837  0.0008  1.0000 -0.0006
 
              Baa    -0.0436   -23.271    -8.304    -7.762  0.7305 -0.0003  0.6829
     2 H(1)   Bbb    -0.0184    -9.799    -3.497    -3.269  0.0008  1.0000 -0.0004
              Bcc     0.0620    33.071    11.800    11.031 -0.6829  0.0008  0.7305
 
              Baa    -0.0436   -23.277    -8.306    -7.764  0.7295 -0.0009 -0.6840
     3 H(1)   Bbb    -0.0184    -9.796    -3.496    -3.268  0.0006  1.0000 -0.0007
              Bcc     0.0620    33.073    11.801    11.032  0.6840  0.0001  0.7295
 
              Baa    -0.6955   -93.328   -33.302   -31.131  1.0000 -0.0001  0.0001
     4 C(13)  Bbb     0.0240     3.215     1.147     1.072  0.0001  1.0000 -0.0003
              Bcc     0.6715    90.114    32.155    30.059 -0.0001  0.0003  1.0000
 
              Baa    -0.1578   -21.171    -7.554    -7.062  0.1975  0.9803  0.0000
     5 C(13)  Bbb     0.0143     1.924     0.686     0.642  0.9803 -0.1975  0.0003
              Bcc     0.1434    19.248     6.868     6.420 -0.0003  0.0000  1.0000
 
              Baa    -0.0145    -7.755    -2.767    -2.587  0.9072  0.4208  0.0002
     6 H(1)   Bbb    -0.0126    -6.702    -2.392    -2.236 -0.0002 -0.0000  1.0000
              Bcc     0.0271    14.457     5.159     4.822 -0.4208  0.9072 -0.0001
 
              Baa    -0.1578   -21.177    -7.557    -7.064 -0.1977  0.9803 -0.0003
     7 C(13)  Bbb     0.0143     1.923     0.686     0.641  0.9803  0.1977  0.0004
              Bcc     0.1435    19.255     6.871     6.423 -0.0004  0.0002  1.0000
 
              Baa    -0.0145    -7.756    -2.768    -2.587  0.9073 -0.4205  0.0006
     8 H(1)   Bbb    -0.0126    -6.703    -2.392    -2.236 -0.0005  0.0004  1.0000
              Bcc     0.0271    14.459     5.159     4.823  0.4205  0.9073 -0.0001
 
              Baa    -0.0282    -3.788    -1.352    -1.263  0.0029  0.0009  1.0000
     9 C(13)  Bbb     0.0090     1.213     0.433     0.405  1.0000  0.0010 -0.0029
              Bcc     0.0192     2.575     0.919     0.859 -0.0010  1.0000 -0.0009
 

 ---------------------------------------------------------------------------------

 No NMR shielding tensors so no spin-rotation constants.
 Leave Link  601 at Mon Jun 20 08:39:15 2016, MaxMem=    33554432 cpu:         1.8
 (Enter /home/proyectos/fulerenos/M3C-v1.9/M3C-deps_CCC/g09-AM64L-G09RevC.01/l701.exe)
 Compute integral second derivatives.
 ... and contract with generalized density number  0.
 Leave Link  701 at Mon Jun 20 08:39:15 2016, MaxMem=    33554432 cpu:         1.7
 (Enter /home/proyectos/fulerenos/M3C-v1.9/M3C-deps_CCC/g09-AM64L-G09RevC.01/l702.exe)
 L702 exits ... SP integral derivatives will be done elsewhere.
 Leave Link  702 at Mon Jun 20 08:39:15 2016, MaxMem=    33554432 cpu:         0.1
 (Enter /home/proyectos/fulerenos/M3C-v1.9/M3C-deps_CCC/g09-AM64L-G09RevC.01/l703.exe)
 Compute integral second derivatives, UseDBF=F ICtDFT=           0.
 Integral derivatives from FoFJK, PRISM(SPDF).
 Calling FoFJK, ICntrl=    100127 FMM=F ISym2X=0 I1Cent= 0 IOpClX= 1 NMat=1 NMatS=1 NMatT=0.
 FoFJK:  IHMeth= 1 ICntrl=  100127 DoSepK=F KAlg= 0 I1Cent=   0 FoldK=F
 IRaf=         0 NMat=   1 IRICut=       1 DoRegI=T DoRafI=F ISym2E= 0.
 FoFCou: FMM=F IPFlag=           0 FMFlag=      100000 FMFlg1=         800
         NFxFlg=           0 DoJE=F BraDBF=F KetDBF=F FulRan=T
         wScrn=  0.000000 ICntrl=  100127 IOpCl=  1 I1Cent=           0 NGrid=           0
         NMat0=    1 NMatS0=      1 NMatT0=    0 NMatD0=    1 NMtDS0=    0 NMtDT0=    0
 Symmetry not used in FoFCou.
 Leave Link  703 at Mon Jun 20 08:41:23 2016, MaxMem=    33554432 cpu:       510.7
 (Enter /home/proyectos/fulerenos/M3C-v1.9/M3C-deps_CCC/g09-AM64L-G09RevC.01/l716.exe)
 Dipole        =-6.06698131D-01 3.48286059D-04 2.71227274D-04
 Polarizability= 8.82469978D+01 6.52405735D-04 3.39830571D+01
                -7.48598210D-04 5.98023819D-04 2.67522068D+01
 Full mass-weighted force constant matrix:
 Low frequencies ---   -8.6082   -5.1990   -0.0009   -0.0004   -0.0002    2.7953
 Low frequencies ---  162.6537  174.3327  419.6144
 Diagonal vibrational polarizability:
        5.5333787      13.1224229      16.1197806
 Harmonic frequencies (cm**-1), IR intensities (KM/Mole), Raman scattering
 activities (A**4/AMU), depolarization ratios for plane and unpolarized
 incident light, reduced masses (AMU), force constants (mDyne/A),
 and normal coordinates:
                      1                      2                      3
                      A                      A                      A
 Frequencies --    162.6534               174.3326               419.6144
 Red. masses --      3.3210                 3.4931                 4.9188
 Frc consts  --      0.0518                 0.0625                 0.5103
 IR Inten    --     12.4521                11.1591                 6.3154
  Atom  AN      X      Y      Z        X      Y      Z        X      Y      Z
     1   6    -0.00   0.00  -0.19    -0.00  -0.23  -0.00     0.00   0.00  -0.03
     2   1    -0.41  -0.00  -0.43    -0.00  -0.41  -0.00     0.20   0.00   0.09
     3   1     0.41   0.00  -0.43     0.00  -0.41  -0.00    -0.20  -0.00   0.09
     4   6     0.00  -0.00   0.37     0.00   0.22   0.00     0.00  -0.00  -0.26
     5   6     0.00   0.00  -0.11    -0.16  -0.07   0.00    -0.00  -0.00  -0.08
     6   1     0.00   0.00  -0.20    -0.42  -0.19   0.00    -0.00  -0.00  -0.53
     7   6    -0.00   0.00  -0.11     0.16  -0.07  -0.00    -0.00   0.00  -0.08
     8   1    -0.00   0.00  -0.20     0.42  -0.19  -0.00     0.00  -0.00  -0.52
     9   6     0.00  -0.00   0.14     0.00   0.26   0.00    -0.00   0.00   0.53
                      4                      5                      6
                      A                      A                      A
 Frequencies --    447.7489               477.8558               688.8046
 Red. masses --      1.1094                 5.0403                 3.7035
 Frc consts  --      0.1310                 0.6781                 1.0353
 IR Inten    --      0.0000                 0.0594                 2.9068
  Atom  AN      X      Y      Z        X      Y      Z        X      Y      Z
     1   6    -0.00   0.00  -0.00    -0.00  -0.08   0.00     0.35  -0.00  -0.00
     2   1    -0.00   0.70  -0.00    -0.00  -0.35   0.00     0.36  -0.00   0.00
     3   1    -0.00  -0.70   0.00    -0.00  -0.36   0.00     0.36  -0.00  -0.00
     4   6    -0.00  -0.00   0.00    -0.00   0.48  -0.00     0.16   0.00   0.00
     5   6    -0.00   0.00  -0.07     0.15  -0.04  -0.00    -0.22  -0.02  -0.00
     6   1    -0.00  -0.00  -0.07     0.43   0.08  -0.00    -0.48  -0.14   0.00
     7   6     0.00   0.00   0.07    -0.15  -0.04   0.00    -0.22   0.02  -0.00
     8   1     0.00  -0.00   0.07    -0.43   0.08   0.00    -0.48   0.14   0.00
     9   6     0.00   0.00  -0.00     0.00  -0.28   0.00    -0.05   0.00  -0.00
                      7                      8                      9
                      A                      A                      A
 Frequencies --    818.8577               903.1053               927.5111
 Red. masses --      1.2601                 1.4021                 1.3422
 Frc consts  --      0.4978                 0.6738                 0.6803
 IR Inten    --     52.0704                 0.0002                 0.6126
  Atom  AN      X      Y      Z        X      Y      Z        X      Y      Z
     1   6    -0.00  -0.00  -0.01    -0.00   0.00  -0.00     0.00   0.00   0.14
     2   1     0.03  -0.00   0.01     0.00   0.08  -0.00    -0.65   0.00  -0.25
     3   1    -0.03   0.00   0.01    -0.00  -0.08   0.00     0.65  -0.00  -0.26
     4   6    -0.00  -0.00  -0.01     0.00  -0.00  -0.00     0.00  -0.00  -0.10
     5   6    -0.00  -0.00  -0.09    -0.00   0.00   0.13    -0.00  -0.00  -0.00
     6   1    -0.00   0.00   0.70     0.00  -0.00  -0.69     0.00   0.00   0.02
     7   6     0.00  -0.00  -0.09    -0.00  -0.00  -0.13    -0.00   0.00  -0.00
     8   1    -0.00   0.00   0.70    -0.00   0.00   0.69     0.00  -0.00   0.02
     9   6    -0.00   0.00   0.08     0.00  -0.00   0.00     0.00  -0.00   0.01
                     10                     11                     12
                      A                      A                      A
 Frequencies --    952.9344               970.6952              1003.0040
 Red. masses --      1.2147                 5.1430                 1.4965
 Frc consts  --      0.6499                 2.8552                 0.8870
 IR Inten    --      0.6045                29.2123                52.0847
  Atom  AN      X      Y      Z        X      Y      Z        X      Y      Z
     1   6     0.03  -0.00  -0.00    -0.00  -0.10   0.00     0.00  -0.17   0.00
     2   1     0.05   0.00   0.01    -0.00   0.47  -0.00     0.00   0.69  -0.00
     3   1     0.05   0.00  -0.01    -0.00   0.47  -0.00     0.00   0.69  -0.00
     4   6     0.02   0.00   0.00     0.00   0.01  -0.00    -0.00   0.06  -0.00
     5   6    -0.09  -0.01  -0.00     0.32  -0.14   0.00    -0.06   0.03  -0.00
     6   1     0.62   0.33   0.00     0.09  -0.28  -0.00    -0.00   0.06  -0.00
     7   6    -0.09   0.01  -0.00    -0.32  -0.14  -0.00     0.06   0.03   0.00
     8   1     0.62  -0.33   0.00    -0.10  -0.28   0.00     0.00   0.06   0.00
     9   6     0.02   0.00  -0.00     0.00   0.35  -0.00    -0.00  -0.07   0.00
                     13                     14                     15
                      A                      A                      A
 Frequencies --   1016.9821              1113.4861              1383.7667
 Red. masses --      1.3305                 6.9954                 1.1125
 Frc consts  --      0.8108                 5.1101                 1.2551
 IR Inten    --      9.8210               113.4881                34.9840
  Atom  AN      X      Y      Z        X      Y      Z        X      Y      Z
     1   6     0.00  -0.00   0.00    -0.26  -0.00  -0.00    -0.09   0.00   0.00
     2   1     0.00   0.00   0.00    -0.32   0.00  -0.03     0.58  -0.00   0.39
     3   1     0.00   0.00  -0.00    -0.32   0.00   0.03     0.58  -0.00  -0.39
     4   6     0.00   0.01  -0.00     0.18  -0.00   0.00    -0.02  -0.00   0.00
     5   6     0.08   0.07  -0.00    -0.18  -0.22  -0.00     0.00  -0.01   0.00
     6   1    -0.64  -0.27  -0.00    -0.24  -0.26   0.00    -0.00  -0.02   0.00
     7   6    -0.08   0.07  -0.00    -0.17   0.22  -0.00     0.00   0.01   0.00
     8   1     0.64  -0.27   0.00    -0.24   0.26  -0.00    -0.00   0.02  -0.00
     9   6     0.00  -0.10   0.00     0.53  -0.00   0.00     0.01  -0.00  -0.00
                     16                     17                     18
                      A                      A                      A
 Frequencies --   1583.6058              1838.5858              2982.6517
 Red. masses --      5.5400                 9.0747                 1.0492
 Frc consts  --      8.1857                18.0739                 5.4992
 IR Inten    --     22.3357                91.4908               287.4917
  Atom  AN      X      Y      Z        X      Y      Z        X      Y      Z
     1   6    -0.18   0.00   0.00    -0.26   0.00   0.00     0.06  -0.00  -0.00
     2   1    -0.05   0.00   0.09    -0.16   0.00   0.07    -0.35   0.00   0.61
     3   1    -0.05   0.00  -0.09    -0.16   0.00  -0.07    -0.35  -0.00  -0.61
     4   6     0.27  -0.00  -0.00     0.62  -0.00  -0.00    -0.00   0.00  -0.00
     5   6    -0.07   0.38  -0.00     0.05  -0.17   0.00     0.00  -0.00   0.00
     6   1    -0.27   0.46  -0.00     0.23  -0.23   0.00    -0.00   0.01  -0.00
     7   6    -0.07  -0.38   0.00     0.05   0.17  -0.00     0.00   0.00  -0.00
     8   1    -0.27  -0.46   0.00     0.23   0.23  -0.00    -0.00  -0.01   0.00
     9   6     0.11  -0.00   0.00    -0.47  -0.00  -0.00     0.00  -0.00  -0.00
                     19                     20                     21
                      A                      A                      A
 Frequencies --   3083.7358              3132.9902              3178.5341
 Red. masses --      1.1185                 1.0931                 1.1545
 Frc consts  --      6.2667                 6.3218                 6.8724
 IR Inten    --    134.0016               273.9879               209.4571
  Atom  AN      X      Y      Z        X      Y      Z        X      Y      Z
     1   6    -0.00  -0.00  -0.10     0.00   0.00  -0.00     0.00   0.00  -0.00
     2   1    -0.36   0.00   0.60    -0.00  -0.00   0.00     0.01  -0.00  -0.01
     3   1     0.37   0.00   0.60    -0.00  -0.00  -0.00     0.01   0.00   0.01
     4   6     0.00  -0.00  -0.00    -0.00   0.00  -0.00     0.00   0.00   0.00
     5   6    -0.00   0.00   0.00     0.03  -0.06   0.00     0.03  -0.08   0.00
     6   1     0.00  -0.00   0.00    -0.29   0.63  -0.00    -0.30   0.64  -0.00
     7   6    -0.00  -0.00   0.00    -0.03  -0.06   0.00     0.03   0.07  -0.00
     8   1     0.00   0.00   0.00     0.30   0.64  -0.00    -0.30  -0.63   0.00
     9   6     0.00  -0.00  -0.00     0.00   0.00  -0.00    -0.01   0.00  -0.00

 -------------------
 - Thermochemistry -
 -------------------
 Temperature   298.150 Kelvin.  Pressure   1.00000 Atm.
 Atom     1 has atomic number  6 and mass  12.00000
 Atom     2 has atomic number  1 and mass   1.00783
 Atom     3 has atomic number  1 and mass   1.00783
 Atom     4 has atomic number  6 and mass  12.00000
 Atom     5 has atomic number  6 and mass  12.00000
 Atom     6 has atomic number  1 and mass   1.00783
 Atom     7 has atomic number  6 and mass  12.00000
 Atom     8 has atomic number  1 and mass   1.00783
 Atom     9 has atomic number  6 and mass  12.00000
 Molecular mass:    64.03130 amu.
 Principal axes and moments of inertia in atomic units:
                           1         2         3
     Eigenvalues --    63.89452 598.27742 649.34715
           X            1.00000  -0.00001  -0.00001
           Y            0.00001   1.00000   0.00003
           Z            0.00001  -0.00003   1.00000
 This molecule is an asymmetric top.
 Rotational symmetry number  1.
 Rotational temperatures (Kelvin)      1.35558     0.14477     0.13339
 Rotational constants (GHZ):          28.24563     3.01656     2.77932
 Zero-point vibrational energy     163059.7 (Joules/Mol)
                                   38.97221 (Kcal/Mol)
 Warning -- explicit consideration of   5 degrees of freedom as
           vibrations may cause significant error
 Vibrational temperatures:    234.02   250.83   603.73   644.21   687.53
          (Kelvin)            991.03  1178.15  1299.37  1334.48  1371.06
                             1396.61  1443.10  1463.21  1602.06  1990.93
                             2278.45  2645.31  4291.37  4436.80  4507.67
                             4573.20
 
 Zero-point correction=                           0.062106 (Hartree/Particle)
 Thermal correction to Energy=                    0.067445
 Thermal correction to Enthalpy=                  0.068389
 Thermal correction to Gibbs Free Energy=         0.033289
 Sum of electronic and zero-point Energies=           -191.915696
 Sum of electronic and thermal Energies=              -191.910357
 Sum of electronic and thermal Enthalpies=            -191.909413
 Sum of electronic and thermal Free Energies=         -191.944513
 
                     E (Thermal)             CV                S
                      KCal/Mol        Cal/Mol-Kelvin    Cal/Mol-Kelvin
 Total                   42.322             18.281             73.875
 Electronic               0.000              0.000              2.183
 Translational            0.889              2.981             38.389
 Rotational               0.889              2.981             24.721
 Vibrational             40.545             12.319              8.581
 Vibration     1          0.623              1.888              2.519
 Vibration     2          0.627              1.874              2.388
 Vibration     3          0.782              1.428              0.893
 Vibration     4          0.807              1.366              0.803
 Vibration     5          0.834              1.299              0.716
                       Q            Log10(Q)             Ln(Q)
 Total Bot       0.487853D-15        -15.311711        -35.256518
 Total V=0       0.179921D+14         13.255081         30.520952
 Vib (Bot)       0.143171D-27        -27.844144        -64.113511
 Vib (Bot)    1  0.124190D+01          0.094087          0.216643
 Vib (Bot)    2  0.115433D+01          0.062331          0.143522
 Vib (Bot)    3  0.418577D+00         -0.378224         -0.870893
 Vib (Bot)    4  0.383698D+00         -0.416011         -0.957900
 Vib (Bot)    5  0.350637D+00         -0.455142         -1.048004
 Vib (V=0)       0.528017D+01          0.722648          1.663959
 Vib (V=0)    1  0.183877D+01          0.264529          0.609100
 Vib (V=0)    2  0.175797D+01          0.245011          0.564159
 Vib (V=0)    3  0.115208D+01          0.061482          0.141568
 Vib (V=0)    4  0.113026D+01          0.053177          0.122445
 Vib (V=0)    5  0.111069D+01          0.045594          0.104984
 Electronic      0.300000D+01          0.477121          1.098612
 Translational   0.201393D+08          7.304044         16.818182
 Rotational      0.563986D+05          4.751268         10.940199
 
                                                              b3lyp opt
                                                             IR Spectrum
 
      33 3   2                                             1         1       1          1  11                                        
      11 0   9                                             8         5       3          1  009999   8    6       4 44        11      
      73 8   8                                             3         8       8          1  107520   1    8       7 42        76      
      93 4   3                                             9         4       4          3  731383   9    9       8 80        43      
 
      XX X   X                                             X         X       X          X  XXXXX    X    X       X  X        XX      
      XX X   X                                             X         X       X          X   XX      X                                
      XX X   X                                             X                            X   X       X                                
      XX X   X                                             X                            X   X       X                                
      XX X   X                                             X                            X                                            
      XX X   X                                             X                            X                                            
      XX X   X                                                                          X                                            
      XX X   X                                                                          X                                            
      XX X   X                                                                                                                       
      XX     X                                                                                                                       
      XX     X                                                                                                                       
      XX     X                                                                                                                       
      XX     X                                                                                                                       
      XX     X                                                                                                                       
      XX     X                                                                                                                       
       X     X                                                                                                                       
       X     X                                                                                                                       
       X     X                                                                                                                       
       X     X                                                                                                                       
             X                                                                                                                       
 
 ***** Axes restored to original set *****
 -------------------------------------------------------------------
 Center     Atomic                   Forces (Hartrees/Bohr)
 Number     Number              X              Y              Z
 -------------------------------------------------------------------
      1        6          -0.000036703    0.000014822   -0.000053236
      2        1          -0.000016266    0.000007784    0.000052040
      3        1           0.000003321   -0.000003103   -0.000018807
      4        6           0.000066793   -0.000045830    0.000008449
      5        6           0.000028006   -0.000008070   -0.000001255
      6        1           0.000011829    0.000003686   -0.000004909
      7        6           0.000017950   -0.000007174    0.000005388
      8        1          -0.000016755    0.000035508   -0.000001302
      9        6          -0.000058173    0.000002376    0.000013632
 -------------------------------------------------------------------
 Cartesian Forces:  Max     0.000066793 RMS     0.000027883
 Z-matrix is all fixed cartesians, so copy forces.
 Force constants in Cartesian coordinates: 
                1             2             3             4             5 
      1  0.622748D+00
      2  0.187282D-03  0.116756D+00
      3 -0.186304D-03 -0.237245D-04  0.536899D+00
      4 -0.102369D+00 -0.250179D-04 -0.116230D+00  0.118994D+00
      5 -0.213330D-04 -0.384858D-01 -0.422738D-04  0.376030D-04  0.176503D-01
      6 -0.111056D+00 -0.346521D-04 -0.244963D+00  0.122889D+00  0.389097D-04
      7 -0.102669D+00 -0.373797D-04  0.116464D+00  0.107322D-01  0.260177D-05
      8 -0.244552D-04 -0.384682D-01  0.632119D-04  0.000000D+00  0.105460D-01
      9  0.111313D+00  0.579087D-04 -0.244771D+00  0.124106D-01  0.674879D-05
     10 -0.433593D+00 -0.152153D-03 -0.122945D-03 -0.276493D-01 -0.222430D-04
     11 -0.116022D-03 -0.487850D-01  0.263526D-05 -0.107827D-04  0.890738D-02
     12 -0.460447D-04  0.000000D+00 -0.506473D-01 -0.184926D-01 -0.134212D-05
     13 -0.148843D-01 -0.351449D-02 -0.234534D-04 -0.782874D-03  0.537416D-03
     14  0.201945D-01 -0.167880D-02  0.173776D-04 -0.102296D-04  0.204777D-03
     15  0.107435D-04  0.000000D+00  0.164255D-02  0.252444D-03 -0.103270D-02
     16  0.202355D-02  0.361674D-03  0.240635D-05 -0.203817D-04 -0.431755D-04
     17 -0.289334D-02 -0.581395D-05 -0.122756D-05 -0.325465D-03  0.182166D-04
     18  0.000000D+00 -0.106218D-05  0.756473D-04 -0.137323D-04 -0.161948D-02
     19 -0.148967D-01  0.350102D-02 -0.199284D-04 -0.781108D-03 -0.542348D-03
     20 -0.201832D-01 -0.169605D-02 -0.203067D-04  0.102564D-04  0.193771D-03
     21 -0.458603D-05 -0.153582D-05  0.164072D-02  0.251022D-03  0.103377D-02
     22  0.202472D-02 -0.359405D-03  0.224242D-05 -0.203510D-04  0.443607D-04
     23  0.289271D-02 -0.344657D-05  0.109277D-05  0.325489D-03  0.177605D-04
     24 -0.221513D-05  0.000000D+00  0.744542D-04 -0.149230D-04  0.161948D-02
     25  0.416162D-01  0.384675D-04  0.113529D-03  0.189654D-02  0.711799D-05
     26 -0.361771D-04  0.123674D-01  0.321495D-05 -0.120150D-05  0.947634D-03
     27 -0.285505D-04  0.290146D-05  0.486866D-04 -0.105242D-02 -0.311343D-05
                6             7             8             9            10 
      6  0.251988D+00
      7 -0.123870D-01  0.119298D+00
      8 -0.362585D-05  0.510456D-04  0.176433D-01
      9 -0.125191D-01 -0.123105D+00 -0.641322D-04  0.251765D+00
     10 -0.487310D-03 -0.276378D-01 -0.221122D-04  0.434872D-03  0.101429D+01
     11  0.000000D+00 -0.150328D-04  0.888503D-02  0.000000D+00  0.707990D-04
     12  0.622915D-02  0.184470D-01  0.110727D-05  0.626060D-02  0.145979D-05
     13  0.141288D-03 -0.776259D-03  0.542389D-03 -0.137338D-03 -0.479629D-01
     14 -0.648672D-03 -0.147878D-04  0.194812D-03  0.643480D-03  0.102128D-01
     15  0.347115D-04 -0.252081D-03  0.103172D-02  0.352745D-04  0.270351D-04
     16 -0.545138D-04 -0.209685D-04 -0.433497D-04  0.539062D-04  0.331539D-02
     17 -0.492215D-03 -0.325883D-03  0.167180D-04  0.492236D-03 -0.264622D-02
     18  0.195929D-04  0.134087D-04  0.161870D-02  0.201707D-04 -0.386552D-05
     19  0.141920D-03 -0.775218D-03 -0.540093D-03 -0.138307D-03 -0.479567D-01
     20  0.649267D-03  0.156719D-04  0.203571D-03 -0.643937D-03 -0.101912D-01
     21  0.354344D-04 -0.250808D-03 -0.103269D-02  0.341160D-04  0.124529D-04
     22 -0.543188D-04 -0.208608D-04  0.425438D-04  0.537790D-04  0.331467D-02
     23  0.492546D-03  0.325840D-03  0.180757D-04 -0.492413D-03  0.264586D-02
     24  0.203752D-04  0.151181D-04 -0.161861D-02  0.196804D-04  0.000000D+00
     25  0.866775D-03  0.186995D-02 -0.531697D-05 -0.885576D-03 -0.436121D+00
     26 -0.105535D-05 -0.207636D-05  0.960684D-03  0.000000D+00  0.104436D-03
     27 -0.844608D-03  0.105459D-02  0.431910D-05 -0.845148D-03  0.137911D-03
               11            12            13            14            15 
     11  0.734571D-01
     12  0.452937D-05  0.564922D-01
     13 -0.105277D-01  0.462886D-04  0.343972D+00
     14  0.135238D-02 -0.321069D-04  0.255167D+00  0.927301D+00
     15  0.260334D-05  0.679742D-02  0.762904D-04  0.365297D-03  0.866745D-01
     16 -0.751731D-03 -0.501210D-05 -0.886282D-01 -0.116180D+00 -0.551837D-04
     17  0.121278D-02  0.464527D-05 -0.123289D+00 -0.292694D+00 -0.114388D-03
     18  0.220583D-05 -0.844911D-03 -0.577698D-04 -0.119445D-03 -0.387195D-01
     19  0.105684D-01  0.538957D-04 -0.261449D-01  0.390147D-01  0.148185D-04
     20  0.137840D-02  0.264370D-04 -0.392170D-01 -0.540989D+00 -0.231834D-03
     21 -0.584381D-05  0.679501D-02 -0.204736D-04 -0.240671D-03 -0.360217D-01
     22  0.746810D-03 -0.435299D-05  0.607146D-02 -0.135945D-01 -0.517856D-05
     23  0.120706D-02 -0.292320D-05  0.705536D-02 -0.392364D-02 -0.586214D-05
     24 -0.122496D-05 -0.846368D-03  0.194386D-05 -0.570544D-05  0.958829D-02
     25  0.353083D-04  0.000000D+00 -0.170864D+00 -0.194790D+00 -0.688875D-04
     26 -0.476151D-01  0.000000D+00 -0.867537D-01 -0.897671D-01 -0.148453D-04
     27 -0.379668D-05 -0.302358D-01 -0.267760D-04  0.204443D-04 -0.300316D-01
               16            17            18            19            20 
     16  0.880440D-01
     17  0.120907D+00  0.287321D+00
     18  0.538859D-04  0.122807D-03  0.210356D-01
     19  0.607374D-02 -0.705874D-02 -0.135342D-05  0.343588D+00
     20  0.135937D-01 -0.392646D-02 -0.818114D-05 -0.254818D+00  0.927365D+00
     21  0.734217D-05 -0.589786D-05  0.958822D-02 -0.164927D-03  0.419409D-03
     22  0.184311D-02  0.273296D-03  0.000000D+00 -0.885249D-01  0.116047D+00
     23 -0.273935D-03  0.265580D-03  0.000000D+00  0.123150D+00 -0.292671D+00
     24  0.000000D+00  0.000000D+00 -0.302017D-03  0.548517D-04 -0.114194D-03
     25 -0.126302D-01  0.153590D-01  0.933231D-05 -0.170582D+00  0.194743D+00
     26 -0.175702D-01  0.779178D-02  0.449328D-05  0.867250D-01 -0.898585D-01
     27 -0.242158D-05 -0.589956D-05  0.912712D-02  0.590289D-04 -0.766596D-04
               21            22            23            24            25 
     21  0.866953D-01
     22  0.558053D-04  0.879366D-01
     23 -0.120216D-03 -0.120769D+00  0.287297D+00
     24 -0.387336D-01 -0.590269D-04  0.124039D-03  0.210538D-01
     25  0.114171D-03 -0.126245D-01 -0.153520D-01  0.427115D-05  0.757439D+00
     26 -0.463206D-04  0.175691D-01  0.779201D-02 -0.453992D-05 -0.351599D-04
     27 -0.300336D-01  0.115794D-04  0.377286D-05  0.912540D-02 -0.152940D-03
               26            27 
     26  0.197381D+00
     27  0.580314D-04  0.736895D-01
 Leave Link  716 at Mon Jun 20 08:41:23 2016, MaxMem=    33554432 cpu:         0.1
 (Enter /home/proyectos/fulerenos/M3C-v1.9/M3C-deps_CCC/g09-AM64L-G09RevC.01/l103.exe)

 GradGradGradGradGradGradGradGradGradGradGradGradGradGradGradGradGradGrad
 Berny optimization.
 Search for a local minimum.
 Step number   1 out of a maximum of    2
 All quantities printed in internal units (Hartrees-Bohrs-Radians)
 Second derivative matrix not updated -- analytic derivatives used.
 ITU=  0
     Eigenvalues ---    0.00400   0.00425   0.00906   0.02886   0.03272
     Eigenvalues ---    0.04641   0.07458   0.08881   0.12391   0.12789
     Eigenvalues ---    0.14688   0.18423   0.18443   0.27251   0.29418
     Eigenvalues ---    0.44512   0.67672   0.74179   0.81755   1.44150
     Eigenvalues ---    1.77519
 Angle between quadratic step and forces=  72.99 degrees.
 Linear search not attempted -- first point.
 B after Tr=     0.000017   -0.000138   -0.000102
         Rot=    1.000000    0.000007    0.000020   -0.000006 Ang=   0.00 deg.
 Variable       Old X    -DE/DX   Delta X   Delta X   Delta X     New X
                                 (Linear)    (Quad)   (Total)
    X1       -4.41137  -0.00004   0.00000  -0.00004  -0.00003  -4.41140
    Y1       -0.00038   0.00001   0.00000   0.00027   0.00008  -0.00030
    Z1        0.00013  -0.00005   0.00000  -0.00013  -0.00041  -0.00028
    X2       -5.47247  -0.00002   0.00000  -0.00149  -0.00140  -5.47387
    Y2       -0.00076   0.00001   0.00000   0.00140   0.00117   0.00042
    Z2       -1.78421   0.00005   0.00000   0.00087   0.00056  -1.78365
    X3       -5.47471   0.00000   0.00000   0.00094   0.00089  -5.47383
    Y3       -0.00092  -0.00000   0.00000   0.00015  -0.00002  -0.00094
    Z3        1.78303  -0.00002   0.00000   0.00042   0.00010   1.78313
    X4       -1.82823   0.00007   0.00000   0.00003   0.00004  -1.82819
    Y4        0.00075  -0.00005   0.00000  -0.00097  -0.00113  -0.00038
    Z4        0.00087   0.00001   0.00000  -0.00101  -0.00118  -0.00031
    X5        3.03752   0.00003   0.00000  -0.00011  -0.00011   3.03741
    Y5        1.25607  -0.00001   0.00000   0.00009  -0.00002   1.25605
    Z5       -0.00005  -0.00000   0.00000   0.00015   0.00015   0.00010
    X6        3.92195   0.00001   0.00000  -0.00027  -0.00028   3.92167
    Y6        3.11632   0.00000   0.00000   0.00019   0.00010   3.11642
    Z6        0.00082  -0.00000   0.00000  -0.00003  -0.00002   0.00080
    X7        3.03704   0.00002   0.00000   0.00026   0.00029   3.03734
    Y7       -1.25715  -0.00001   0.00000   0.00014   0.00004  -1.25711
    Z7       -0.00127   0.00001   0.00000   0.00038   0.00041  -0.00085
    X8        3.92086  -0.00002   0.00000   0.00055   0.00061   3.92147
    Y8       -3.11785   0.00004   0.00000   0.00040   0.00031  -3.11754
    Z8       -0.00213  -0.00000   0.00000   0.00046   0.00056  -0.00157
    X9        0.68283  -0.00006   0.00000  -0.00003  -0.00001   0.68281
    Y9        0.00007   0.00000   0.00000  -0.00040  -0.00053  -0.00046
    Z9       -0.00018   0.00001   0.00000  -0.00009  -0.00016  -0.00034
         Item               Value     Threshold  Converged?
 Maximum Force            0.000067     0.000450     YES
 RMS     Force            0.000028     0.000300     YES
 Maximum Displacement     0.001399     0.001800     YES
 RMS     Displacement     0.000569     0.001200     YES
 Predicted change in Energy=-6.458851D-08
 Optimization completed.
    -- Stationary point found.
 GradGradGradGradGradGradGradGradGradGradGradGradGradGradGradGradGradGrad

 Leave Link  103 at Mon Jun 20 08:41:23 2016, MaxMem=    33554432 cpu:         0.1
 (Enter /home/proyectos/fulerenos/M3C-v1.9/M3C-deps_CCC/g09-AM64L-G09RevC.01/l9999.exe)
 1\1\GINC-BELVIS17\Freq\UB3LYP\6-311++G(3df,2p)\C5H4(2+,3)\ROOT\20-Jun-
 2016\0\\#p b3lyp/6-311++G(3df,2p) freq symmetry=Loose\\b3lyp opt\\2,3\
 C,-2.334399,-0.0002,0.00007\H,-2.895907,-0.0004,-0.944163\H,-2.897092,
 -0.000485,0.943538\C,-0.967459,0.000396,0.000462\C,1.607387,0.664681,-
 0.000025\H,2.075407,1.649088,0.000435\C,1.607133,-0.665256,-0.00067\H,
 2.074832,-1.649897,-0.001128\C,0.361336,0.000039,-0.000096\\Version=EM
 64L-G09RevE.01\State=3-A\HF=-191.9778018\S2=2.007786\S2-1=0.\S2A=2.000
 03\RMSD=8.094e-09\RMSF=2.788e-05\ZeroPoint=0.0621062\Thermal=0.0674449
 \Dipole=-0.6066982,-0.000333,-0.0001981\DipoleDeriv=0.1272948,-0.00006
 28,-0.0000429,0.0000509,0.3044841,0.0000045,-0.0004902,-0.0000073,0.11
 66553,0.3609946,0.0000428,0.0883442,0.0000703,0.1571211,0.0000501,0.24
 64972,0.000023,0.2823456,0.3616119,0.0000458,-0.0883966,0.0001077,0.15
 70835,-0.0000611,-0.2462861,-0.0000216,0.2822512,0.662775,-0.0000755,0
 .0000874,-0.0005207,0.3469722,0.0000131,0.0001622,0.0000098,0.2347477,
 0.5499526,0.2480426,0.000108,-0.2114804,0.1700472,-0.0000316,-0.000088
 ,-0.0000799,0.224349,0.2076299,0.0832173,0.0000389,0.3142641,0.4209966
 ,0.0000797,0.0001244,0.0001087,0.2031541,0.5501638,-0.2482185,-0.00014
 42,0.2111597,0.1701281,-0.000039,-0.0001208,0.0000012,0.2243497,0.2074
 892,-0.0831593,-0.0000335,-0.3142524,0.4211735,0.0001379,-0.0000854,0.
 00012,0.2031758,-1.0279118,0.0001677,0.0000386,0.0006007,-0.1480062,-0
 .0001535,0.0002868,-0.0001538,0.2289715\Polar=88.246997,-0.0020046,33.
 9830542,-0.0066791,0.0046899,26.7522105\PG=C01 [X(C5H4)]\NImag=0\\0.62
 274807,0.00018728,0.11675573,-0.00018630,-0.00002372,0.53689940,-0.102
 36904,-0.00002502,-0.11622984,0.11899433,-0.00002133,-0.03848584,-0.00
 004227,0.00003760,0.01765026,-0.11105624,-0.00003465,-0.24496314,0.122
 88939,0.00003891,0.25198758,-0.10266900,-0.00003738,0.11646429,0.01073
 219,0.00000260,-0.01238700,0.11929800,-0.00002446,-0.03846819,0.000063
 21,-0.00000065,0.01054604,-0.00000363,0.00005105,0.01764326,0.11131257
 ,0.00005791,-0.24477098,0.01241064,0.00000675,-0.01251909,-0.12310454,
 -0.00006413,0.25176538,-0.43359339,-0.00015215,-0.00012294,-0.02764930
 ,-0.00002224,-0.00048731,-0.02763785,-0.00002211,0.00043487,1.01429086
 ,-0.00011602,-0.04878496,0.00000264,-0.00001078,0.00890738,-0.00000050
 ,-0.00001503,0.00888503,-0.00000061,0.00007080,0.07345706,-0.00004604,
 -0.00000065,-0.05064733,-0.01849257,-0.00000134,0.00622915,0.01844701,
 0.00000111,0.00626060,0.00000146,0.00000453,0.05649224,-0.01488434,-0.
 00351449,-0.00002345,-0.00078287,0.00053742,0.00014129,-0.00077626,0.0
 0054239,-0.00013734,-0.04796288,-0.01052770,0.00004629,0.34397214,0.02
 019452,-0.00167880,0.00001738,-0.00001023,0.00020478,-0.00064867,-0.00
 001479,0.00019481,0.00064348,0.01021279,0.00135238,-0.00003211,0.25516
 697,0.92730092,0.00001074,0.,0.00164255,0.00025244,-0.00103270,0.00003
 471,-0.00025208,0.00103172,0.00003527,0.00002704,0.00000260,0.00679742
 ,0.00007629,0.00036530,0.08667448,0.00202355,0.00036167,0.00000241,-0.
 00002038,-0.00004318,-0.00005451,-0.00002097,-0.00004335,0.00005391,0.
 00331539,-0.00075173,-0.00000501,-0.08862825,-0.11617955,-0.00005518,0
 .08804405,-0.00289334,-0.00000581,-0.00000123,-0.00032547,0.00001822,-
 0.00049221,-0.00032588,0.00001672,0.00049224,-0.00264622,0.00121278,0.
 00000465,-0.12328921,-0.29269394,-0.00011439,0.12090657,0.28732114,0.0
 0000062,-0.00000106,0.00007565,-0.00001373,-0.00161948,0.00001959,0.00
 001341,0.00161870,0.00002017,-0.00000387,0.00000221,-0.00084491,-0.000
 05777,-0.00011945,-0.03871946,0.00005389,0.00012281,0.02103563,-0.0148
 9673,0.00350102,-0.00001993,-0.00078111,-0.00054235,0.00014192,-0.0007
 7522,-0.00054009,-0.00013831,-0.04795672,0.01056836,0.00005390,-0.0261
 4485,0.03901474,0.00001482,0.00607374,-0.00705874,-0.00000135,0.343587
 79,-0.02018319,-0.00169605,-0.00002031,0.00001026,0.00019377,0.0006492
 7,0.00001567,0.00020357,-0.00064394,-0.01019116,0.00137840,0.00002644,
 -0.03921701,-0.54098943,-0.00023183,0.01359365,-0.00392646,-0.00000818
 ,-0.25481758,0.92736538,-0.00000459,-0.00000154,0.00164072,0.00025102,
 0.00103377,0.00003543,-0.00025081,-0.00103269,0.00003412,0.00001245,-0
 .00000584,0.00679501,-0.00002047,-0.00024067,-0.03602170,0.00000734,-0
 .00000590,0.00958822,-0.00016493,0.00041941,0.08669534,0.00202472,-0.0
 0035941,0.00000224,-0.00002035,0.00004436,-0.00005432,-0.00002086,0.00
 004254,0.00005378,0.00331467,0.00074681,-0.00000435,0.00607146,-0.0135
 9447,-0.00000518,0.00184311,0.00027330,-0.00000053,-0.08852488,0.11604
 681,0.00005581,0.08793660,0.00289271,-0.00000345,0.00000109,0.00032549
 ,0.00001776,0.00049255,0.00032584,0.00001808,-0.00049241,0.00264586,0.
 00120706,-0.00000292,0.00705536,-0.00392364,-0.00000586,-0.00027394,0.
 00026558,-0.00000004,0.12314965,-0.29267068,-0.00012022,-0.12076901,0.
 28729728,-0.00000222,0.00000081,0.00007445,-0.00001492,0.00161948,0.00
 002038,0.00001512,-0.00161861,0.00001968,0.00000039,-0.00000122,-0.000
 84637,0.00000194,-0.00000571,0.00958829,-0.00000041,-0.00000006,-0.000
 30202,0.00005485,-0.00011419,-0.03873359,-0.00005903,0.00012404,0.0210
 5378,0.04161617,0.00003847,0.00011353,0.00189654,0.00000712,0.00086677
 ,0.00186995,-0.00000532,-0.00088558,-0.43612077,0.00003531,-0.00000067
 ,-0.17086415,-0.19478999,-0.00006889,-0.01263023,0.01535899,0.00000933
 ,-0.17058201,0.19474255,0.00011417,-0.01262447,-0.01535197,0.00000427,
 0.75743896,-0.00003618,0.01236738,0.00000321,-0.00000120,0.00094763,-0
 .00000106,-0.00000208,0.00096068,0.00000071,0.00010444,-0.04761513,0.0
 0000031,-0.08675371,-0.08976709,-0.00001485,-0.01757016,0.00779178,0.0
 0000449,0.08672499,-0.08985850,-0.00004632,0.01756906,0.00779201,-0.00
 000454,-0.00003516,0.19738124,-0.00002855,0.00000290,0.00004869,-0.001
 05242,-0.00000311,-0.00084461,0.00105459,0.00000432,-0.00084515,0.0001
 3791,-0.00000380,-0.03023580,-0.00002678,0.00002044,-0.03003157,-0.000
 00242,-0.00000590,0.00912712,0.00005903,-0.00007666,-0.03003355,0.0000
 1158,0.00000377,0.00912540,-0.00015294,0.00005803,0.07368947\\0.000036
 70,-0.00001482,0.00005324,0.00001627,-0.00000778,-0.00005204,-0.000003
 32,0.00000310,0.00001881,-0.00006679,0.00004583,-0.00000845,-0.0000280
 1,0.00000807,0.00000126,-0.00001183,-0.00000369,0.00000491,-0.00001795
 ,0.00000717,-0.00000539,0.00001675,-0.00003551,0.00000130,0.00005817,-
 0.00000238,-0.00001363\\\@


    THE DOUGHNUT CREED
 AS YOU RAMBLE ON THROUGH LIFE, BROTHER
 WHATEVER BE YOUR GOAL
 KEEP YOUR EYE UPON THE DOUGHNUT
 AND NOT UPON THE HOLE.
 Job cpu time:       0 days  0 hours 55 minutes 47.3 seconds.
 File lengths (MBytes):  RWF=     79 Int=      0 D2E=      0 Chk=      5 Scr=      1
 Normal termination of Gaussian 09 at Mon Jun 20 08:41:23 2016.
