 Entering Gaussian System, Link 0=/home/proyectos/fulerenos/M3C-v1.9/M3C-deps_CCC/g09-AM64L-G09RevC.01/g09
 Initial command:
 /home/proyectos/fulerenos/M3C-v1.9/M3C-deps_CCC/g09-AM64L-G09RevC.01/l1.exe "/scratch/naguirre/gaussian/Gau-19669.inp" -scrdir="/scratch/naguirre/gaussian/"
 Entering Link 1 = /home/proyectos/fulerenos/M3C-v1.9/M3C-deps_CCC/g09-AM64L-G09RevC.01/l1.exe PID=     19676.
  
 Copyright (c) 1988,1990,1992,1993,1995,1998,2003,2009,2015,
            Gaussian, Inc.  All Rights Reserved.
  
 This is part of the Gaussian(R) 09 program.  It is based on
 the Gaussian(R) 03 system (copyright 2003, Gaussian, Inc.),
 the Gaussian(R) 98 system (copyright 1998, Gaussian, Inc.),
 the Gaussian(R) 94 system (copyright 1995, Gaussian, Inc.),
 the Gaussian 92(TM) system (copyright 1992, Gaussian, Inc.),
 the Gaussian 90(TM) system (copyright 1990, Gaussian, Inc.),
 the Gaussian 88(TM) system (copyright 1988, Gaussian, Inc.),
 the Gaussian 86(TM) system (copyright 1986, Carnegie Mellon
 University), and the Gaussian 82(TM) system (copyright 1983,
 Carnegie Mellon University). Gaussian is a federally registered
 trademark of Gaussian, Inc.
  
 This software contains proprietary and confidential information,
 including trade secrets, belonging to Gaussian, Inc.
  
 This software is provided under written license and may be
 used, copied, transmitted, or stored only in accord with that
 written license.
  
 The following legend is applicable only to US Government
 contracts under FAR:
  
                    RESTRICTED RIGHTS LEGEND
  
 Use, reproduction and disclosure by the US Government is
 subject to restrictions as set forth in subparagraphs (a)
 and (c) of the Commercial Computer Software - Restricted
 Rights clause in FAR 52.227-19.
  
 Gaussian, Inc.
 340 Quinnipiac St., Bldg. 40, Wallingford CT 06492
  
  
 ---------------------------------------------------------------
 Warning -- This program may not be used in any manner that
 competes with the business of Gaussian, Inc. or will provide
 assistance to any competitor of Gaussian, Inc.  The licensee
 of this program is prohibited from giving any competitor of
 Gaussian, Inc. access to this program.  By using this program,
 the user acknowledges that Gaussian, Inc. is engaged in the
 business of creating and licensing software in the field of
 computational chemistry and represents and warrants to the
 licensee that it is not a competitor of Gaussian, Inc. and that
 it will not use this program in any manner prohibited above.
 ---------------------------------------------------------------
  

 Cite this work as:
 Gaussian 09, Revision E.01,
 M. J. Frisch, G. W. Trucks, H. B. Schlegel, G. E. Scuseria, 
 M. A. Robb, J. R. Cheeseman, G. Scalmani, V. Barone, B. Mennucci, 
 G. A. Petersson, H. Nakatsuji, M. Caricato, X. Li, H. P. Hratchian, 
 A. F. Izmaylov, J. Bloino, G. Zheng, J. L. Sonnenberg, M. Hada, 
 M. Ehara, K. Toyota, R. Fukuda, J. Hasegawa, M. Ishida, T. Nakajima, 
 Y. Honda, O. Kitao, H. Nakai, T. Vreven, J. A. Montgomery, Jr., 
 J. E. Peralta, F. Ogliaro, M. Bearpark, J. J. Heyd, E. Brothers, 
 K. N. Kudin, V. N. Staroverov, T. Keith, R. Kobayashi, J. Normand, 
 K. Raghavachari, A. Rendell, J. C. Burant, S. S. Iyengar, J. Tomasi, 
 M. Cossi, N. Rega, J. M. Millam, M. Klene, J. E. Knox, J. B. Cross, 
 V. Bakken, C. Adamo, J. Jaramillo, R. Gomperts, R. E. Stratmann, 
 O. Yazyev, A. J. Austin, R. Cammi, C. Pomelli, J. W. Ochterski, 
 R. L. Martin, K. Morokuma, V. G. Zakrzewski, G. A. Voth, 
 P. Salvador, J. J. Dannenberg, S. Dapprich, A. D. Daniels, 
 O. Farkas, J. B. Foresman, J. V. Ortiz, J. Cioslowski, 
 and D. J. Fox, Gaussian, Inc., Wallingford CT, 2013.
 
 ******************************************
 Gaussian 09:  EM64L-G09RevE.01 30-Nov-2015
                19-Jun-2016 
 ******************************************
 %NProcShared=4
 Will use up to    4 processors via shared memory.
 ---------------------------------------------
 #p b3lyp/6-311++G(3df,2p) freq symmetry=Loose
 ---------------------------------------------
 1/10=4,30=1,38=1/1,3;
 2/12=2,17=4,18=3,40=1/2;
 3/5=4,6=6,7=1216,11=2,16=1,25=1,30=1,71=2,74=-5,140=1/1,2,3;
 4//1;
 5/5=2,38=5,98=1/2;
 8/6=4,10=90,11=11/1;
 11/6=1,8=1,9=11,15=111,16=1/1,2,10;
 10/6=1/2;
 6/7=2,8=2,9=2,10=2,18=1,28=1/1;
 7/8=1,10=1,25=1/1,2,3,16;
 1/10=4,30=1/3;
 99//99;
 Leave Link    1 at Sun Jun 19 04:46:38 2016, MaxMem=           0 cpu:         0.3
 (Enter /home/proyectos/fulerenos/M3C-v1.9/M3C-deps_CCC/g09-AM64L-G09RevC.01/l101.exe)
 ---------
 b3lyp opt
 ---------
 Symbolic Z-matrix:
 Charge =  0 Multiplicity = 2
 C                     0.16121   0.        0. 
 H                    -0.9615    0.        0. 
 
 NAtoms=      2 NQM=        2 NQMF=       0 NMMI=      0 NMMIF=      0
                NMic=       0 NMicF=      0.
                    Isotopes and Nuclear Properties:
 (Nuclear quadrupole moments (NQMom) in fm**2, nuclear magnetic moments (NMagM)
  in nuclear magnetons)

  Atom         1           2
 IAtWgt=          12           1
 AtmWgt=  12.0000000   1.0078250
 NucSpn=           0           1
 AtZEff=   0.0000000   0.0000000
 NQMom=    0.0000000   0.0000000
 NMagM=    0.0000000   2.7928460
 AtZNuc=   6.0000000   1.0000000
 Leave Link  101 at Sun Jun 19 04:46:38 2016, MaxMem=    33554432 cpu:         0.2
 (Enter /home/proyectos/fulerenos/M3C-v1.9/M3C-deps_CCC/g09-AM64L-G09RevC.01/l103.exe)

 GradGradGradGradGradGradGradGradGradGradGradGradGradGradGradGradGradGrad
 Berny optimization.
 Initialization pass.
 Trust Radius=3.00D-01 FncErr=1.00D-07 GrdErr=1.00D-07
 Number of steps in this run=      2 maximum allowed number of steps=      2.
 GradGradGradGradGradGradGradGradGradGradGradGradGradGradGradGradGradGrad

 Leave Link  103 at Sun Jun 19 04:46:38 2016, MaxMem=    33554432 cpu:         0.1
 (Enter /home/proyectos/fulerenos/M3C-v1.9/M3C-deps_CCC/g09-AM64L-G09RevC.01/l202.exe)
                          Input orientation:                          
 ---------------------------------------------------------------------
 Center     Atomic      Atomic             Coordinates (Angstroms)
 Number     Number       Type             X           Y           Z
 ---------------------------------------------------------------------
      1          6           0        0.161209    0.000000    0.000000
      2          1           0       -0.961499    0.000000    0.000000
 ---------------------------------------------------------------------
 Stoichiometry    CH(2)
 Framework group  C*V[C*(HC)]
 Deg. of freedom     1
 Full point group                 C*V     NOp   4
 Largest Abelian subgroup         C2V     NOp   4
 Largest concise Abelian subgroup C1      NOp   1
                         Standard orientation:                         
 ---------------------------------------------------------------------
 Center     Atomic      Atomic             Coordinates (Angstroms)
 Number     Number       Type             X           Y           Z
 ---------------------------------------------------------------------
      1          6           0        0.000000    0.000000    0.160387
      2          1           0        0.000000    0.000000   -0.962321
 ---------------------------------------------------------------------
 Rotational constants (GHZ):      0.0000000    431.2428018    431.2428018
 Leave Link  202 at Sun Jun 19 04:46:38 2016, MaxMem=    33554432 cpu:         0.0
 (Enter /home/proyectos/fulerenos/M3C-v1.9/M3C-deps_CCC/g09-AM64L-G09RevC.01/l301.exe)
 Standard basis: 6-311++G(3df,2p) (5D, 7F)
 Ernie: Thresh=  0.10000D-02 Tol=  0.10000D-05 Strict=F.
 There are    27 symmetry adapted cartesian basis functions of A1  symmetry.
 There are     4 symmetry adapted cartesian basis functions of A2  symmetry.
 There are    12 symmetry adapted cartesian basis functions of B1  symmetry.
 There are    12 symmetry adapted cartesian basis functions of B2  symmetry.
 There are    23 symmetry adapted basis functions of A1  symmetry.
 There are     4 symmetry adapted basis functions of A2  symmetry.
 There are    11 symmetry adapted basis functions of B1  symmetry.
 There are    11 symmetry adapted basis functions of B2  symmetry.
    49 basis functions,    70 primitive gaussians,    55 cartesian basis functions
     4 alpha electrons        3 beta electrons
       nuclear repulsion energy         2.8280401062 Hartrees.
 IExCor=  402 DFT=T Ex+Corr=B3LYP ExCW=0 ScaHFX=  0.200000
 ScaDFX=  0.800000  0.720000  1.000000  0.810000 ScalE2=  1.000000  1.000000
 IRadAn=      0 IRanWt=     -1 IRanGd=            0 ICorTp=0 IEmpDi=  4
 NAtoms=    2 NActive=    2 NUniq=    2 SFac= 1.00D+00 NAtFMM=   60 NAOKFM=F Big=F
 Integral buffers will be    131072 words long.
 Raffenetti 2 integral format.
 Two-electron integral symmetry is turned on.
 Leave Link  301 at Sun Jun 19 04:46:38 2016, MaxMem=    33554432 cpu:         0.2
 (Enter /home/proyectos/fulerenos/M3C-v1.9/M3C-deps_CCC/g09-AM64L-G09RevC.01/l302.exe)
 NPDir=0 NMtPBC=     1 NCelOv=     1 NCel=       1 NClECP=     1 NCelD=      1
         NCelK=      1 NCelE2=     1 NClLst=     1 CellRange=     0.0.
 One-electron integrals computed using PRISM.
 NBasis=    49 RedAO= T EigKep=  8.88D-03  NBF=    23     4    11    11
 NBsUse=    49 1.00D-06 EigRej= -1.00D+00 NBFU=    23     4    11    11
 Precomputing XC quadrature grid using
 IXCGrd= 4 IRadAn=           0 IRanWt=          -1 IRanGd=           0 AccXCQ= 0.00D+00.
 Generated NRdTot=       0 NPtTot=           0 NUsed=           0 NTot=          32
 NSgBfM=    55    55    55    55    55 MxSgAt=     2 MxSgA2=     2.
 Leave Link  302 at Sun Jun 19 04:46:38 2016, MaxMem=    33554432 cpu:         0.7
 (Enter /home/proyectos/fulerenos/M3C-v1.9/M3C-deps_CCC/g09-AM64L-G09RevC.01/l303.exe)
 DipDrv:  MaxL=1.
 Leave Link  303 at Sun Jun 19 04:46:38 2016, MaxMem=    33554432 cpu:         0.1
 (Enter /home/proyectos/fulerenos/M3C-v1.9/M3C-deps_CCC/g09-AM64L-G09RevC.01/l401.exe)
 ExpMin= 3.60D-02 ExpMax= 4.56D+03 ExpMxC= 6.82D+02 IAcc=3 IRadAn=         5 AccDes= 0.00D+00
 Harris functional with IExCor=  402 and IRadAn=       5 diagonalized for initial guess.
 HarFok:  IExCor=  402 AccDes= 0.00D+00 IRadAn=         5 IDoV= 1 UseB2=F ITyADJ=14
 ICtDFT=  3500011 ScaDFX=  1.000000  1.000000  1.000000  1.000000
 FoFCou: FMM=F IPFlag=           0 FMFlag=      100000 FMFlg1=           0
         NFxFlg=           0 DoJE=T BraDBF=F KetDBF=T FulRan=T
         wScrn=  0.000000 ICntrl=     500 IOpCl=  0 I1Cent=   200000004 NGrid=           0
         NMat0=    1 NMatS0=      1 NMatT0=    0 NMatD0=    1 NMtDS0=    0 NMtDT0=    0
 Petite list used in FoFCou.
 Harris En= -38.4656068095350    
 JPrj=0 DoOrth=F DoCkMO=F.
 Initial guess orbital symmetries:
 Alpha Orbitals:
       Occupied  (SG) (SG) (SG) (PI)
       Virtual   (PI) (SG) (SG) (PI) (PI) (SG) (SG) (PI) (PI) (DLTA)
                 (DLTA) (SG) (SG) (PI) (PI) (SG) (SG) (PI) (PI)
                 (SG) (DLTA) (DLTA) (PI) (PI) (SG) (SG) (PI) (PI)
                 (DLTA) (DLTA) (PHI) (PHI) (SG) (PI) (PI) (SG)
                 (PI) (PI) (SG) (DLTA) (DLTA) (PI) (PI) (SG) (SG)
 Beta  Orbitals:
       Occupied  (SG) (SG) (SG)
       Virtual   (PI) (PI) (SG) (SG) (PI) (PI) (SG) (SG) (PI) (PI)
                 (DLTA) (DLTA) (SG) (SG) (PI) (PI) (SG) (SG) (PI)
                 (PI) (SG) (DLTA) (DLTA) (PI) (PI) (SG) (SG) (PI)
                 (PI) (DLTA) (DLTA) (PHI) (PHI) (SG) (PI) (PI)
                 (SG) (PI) (PI) (SG) (DLTA) (DLTA) (PI) (PI) (SG)
                 (SG)
 Initial guess <Sx>= 0.0000 <Sy>= 0.0000 <Sz>= 0.5000 <S**2>= 0.7500 S= 0.5000
 Leave Link  401 at Sun Jun 19 04:46:39 2016, MaxMem=    33554432 cpu:         0.8
 (Enter /home/proyectos/fulerenos/M3C-v1.9/M3C-deps_CCC/g09-AM64L-G09RevC.01/l502.exe)
 UHF open shell SCF:
 Using DIIS extrapolation, IDIIS=  1040.
 Integral symmetry usage will be decided dynamically.
 Keep R1 and R2 ints in memory in symmetry-blocked form, NReq=2735961.
 IVT=       28410 IEndB=       28410 NGot=    33554432 MDV=    33124122
 LenX=    33124122 LenY=    33120656
 Requested convergence on RMS density matrix=1.00D-08 within 128 cycles.
 Requested convergence on MAX density matrix=1.00D-06.
 Requested convergence on             energy=1.00D-06.
 No special actions if energy rises.
 FoFCou: FMM=F IPFlag=           0 FMFlag=           0 FMFlg1=           0
         NFxFlg=           0 DoJE=F BraDBF=F KetDBF=F FulRan=T
         wScrn=  0.000000 ICntrl=     600 IOpCl=  0 I1Cent=           0 NGrid=           0
         NMat0=    1 NMatS0=   1225 NMatT0=    0 NMatD0=    1 NMtDS0=    0 NMtDT0=    0
 Petite list used in FoFCou.

 Cycle   1  Pass 1  IDiag  1:
 E= -38.4909513927241    
 DIIS: error= 1.35D-02 at cycle   1 NSaved=   1.
 NSaved= 1 IEnMin= 1 EnMin= -38.4909513927241     IErMin= 1 ErrMin= 1.35D-02
 ErrMax= 1.35D-02  0.00D+00 EMaxC= 1.00D-01 BMatC= 2.06D-02 BMatP= 2.06D-02
 IDIUse=3 WtCom= 8.65D-01 WtEn= 1.35D-01
 Coeff-Com:  0.100D+01
 Coeff-En:   0.100D+01
 Coeff:      0.100D+01
 Gap=     0.108 Goal=   None    Shift=    0.000
 Gap=     0.169 Goal=   None    Shift=    0.000
 GapD=    0.108 DampG=1.000 DampE=0.500 DampFc=0.5000 IDamp=-1.
 Damping current iteration by 5.00D-01
 RMSDP=1.33D-03 MaxDP=2.83D-02              OVMax= 4.30D-02

 Cycle   2  Pass 1  IDiag  1:
 E= -38.4933330296633     Delta-E=       -0.002381636939 Rises=F Damp=T
 DIIS: error= 6.53D-03 at cycle   2 NSaved=   2.
 NSaved= 2 IEnMin= 2 EnMin= -38.4933330296633     IErMin= 2 ErrMin= 6.53D-03
 ErrMax= 6.53D-03  0.00D+00 EMaxC= 1.00D-01 BMatC= 5.02D-03 BMatP= 2.06D-02
 IDIUse=3 WtCom= 9.35D-01 WtEn= 6.53D-02
 Coeff-Com: -0.847D+00 0.185D+01
 Coeff-En:   0.000D+00 0.100D+01
 Coeff:     -0.792D+00 0.179D+01
 Gap=     0.110 Goal=   None    Shift=    0.000
 Gap=     0.171 Goal=   None    Shift=    0.000
 RMSDP=7.15D-04 MaxDP=1.46D-02 DE=-2.38D-03 OVMax= 1.89D-02

 Cycle   3  Pass 1  IDiag  1:
 E= -38.4957833350048     Delta-E=       -0.002450305341 Rises=F Damp=F
 DIIS: error= 1.78D-03 at cycle   3 NSaved=   3.
 NSaved= 3 IEnMin= 3 EnMin= -38.4957833350048     IErMin= 3 ErrMin= 1.78D-03
 ErrMax= 1.78D-03  0.00D+00 EMaxC= 1.00D-01 BMatC= 3.85D-04 BMatP= 5.02D-03
 IDIUse=3 WtCom= 9.82D-01 WtEn= 1.78D-02
 Coeff-Com: -0.373D+00 0.713D+00 0.660D+00
 Coeff-En:   0.000D+00 0.000D+00 0.100D+01
 Coeff:     -0.367D+00 0.701D+00 0.666D+00
 Gap=     0.110 Goal=   None    Shift=    0.000
 Gap=     0.171 Goal=   None    Shift=    0.000
 RMSDP=2.56D-04 MaxDP=6.30D-03 DE=-2.45D-03 OVMax= 6.61D-03

 Cycle   4  Pass 1  IDiag  1:
 E= -38.4959021850707     Delta-E=       -0.000118850066 Rises=F Damp=F
 DIIS: error= 3.42D-04 at cycle   4 NSaved=   4.
 NSaved= 4 IEnMin= 4 EnMin= -38.4959021850707     IErMin= 4 ErrMin= 3.42D-04
 ErrMax= 3.42D-04  0.00D+00 EMaxC= 1.00D-01 BMatC= 6.26D-06 BMatP= 3.85D-04
 IDIUse=3 WtCom= 9.97D-01 WtEn= 3.42D-03
 Coeff-Com:  0.314D-01-0.788D-01 0.486D-01 0.999D+00
 Coeff-En:   0.000D+00 0.000D+00 0.000D+00 0.100D+01
 Coeff:      0.313D-01-0.785D-01 0.484D-01 0.999D+00
 Gap=     0.111 Goal=   None    Shift=    0.000
 Gap=     0.171 Goal=   None    Shift=    0.000
 RMSDP=3.33D-05 MaxDP=7.89D-04 DE=-1.19D-04 OVMax= 1.50D-03

 Cycle   5  Pass 1  IDiag  1:
 E= -38.4959049946408     Delta-E=       -0.000002809570 Rises=F Damp=F
 DIIS: error= 4.94D-05 at cycle   5 NSaved=   5.
 NSaved= 5 IEnMin= 5 EnMin= -38.4959049946408     IErMin= 5 ErrMin= 4.94D-05
 ErrMax= 4.94D-05  0.00D+00 EMaxC= 1.00D-01 BMatC= 1.19D-07 BMatP= 6.26D-06
 IDIUse=1 WtCom= 1.00D+00 WtEn= 0.00D+00
 Coeff-Com:  0.834D-02-0.147D-01-0.201D-01-0.638D-01 0.109D+01
 Coeff:      0.834D-02-0.147D-01-0.201D-01-0.638D-01 0.109D+01
 Gap=     0.111 Goal=   None    Shift=    0.000
 Gap=     0.171 Goal=   None    Shift=    0.000
 RMSDP=6.75D-06 MaxDP=1.81D-04 DE=-2.81D-06 OVMax= 1.91D-04

 Cycle   6  Pass 1  IDiag  1:
 E= -38.4959050732997     Delta-E=       -0.000000078659 Rises=F Damp=F
 DIIS: error= 1.13D-05 at cycle   6 NSaved=   6.
 NSaved= 6 IEnMin= 6 EnMin= -38.4959050732997     IErMin= 6 ErrMin= 1.13D-05
 ErrMax= 1.13D-05  0.00D+00 EMaxC= 1.00D-01 BMatC= 7.02D-09 BMatP= 1.19D-07
 IDIUse=1 WtCom= 1.00D+00 WtEn= 0.00D+00
 Coeff-Com: -0.258D-02 0.540D-02 0.293D-02-0.187D-01-0.235D+00 0.125D+01
 Coeff:     -0.258D-02 0.540D-02 0.293D-02-0.187D-01-0.235D+00 0.125D+01
 Gap=     0.111 Goal=   None    Shift=    0.000
 Gap=     0.171 Goal=   None    Shift=    0.000
 RMSDP=1.99D-06 MaxDP=3.21D-05 DE=-7.87D-08 OVMax= 6.36D-05

 Cycle   7  Pass 1  IDiag  1:
 E= -38.4959050792752     Delta-E=       -0.000000005976 Rises=F Damp=F
 DIIS: error= 2.61D-06 at cycle   7 NSaved=   7.
 NSaved= 7 IEnMin= 7 EnMin= -38.4959050792752     IErMin= 7 ErrMin= 2.61D-06
 ErrMax= 2.61D-06  0.00D+00 EMaxC= 1.00D-01 BMatC= 3.88D-10 BMatP= 7.02D-09
 IDIUse=1 WtCom= 1.00D+00 WtEn= 0.00D+00
 Coeff-Com: -0.405D-03 0.683D-03 0.881D-03 0.469D-02-0.521D-01-0.647D-01
 Coeff-Com:  0.111D+01
 Coeff:     -0.405D-03 0.683D-03 0.881D-03 0.469D-02-0.521D-01-0.647D-01
 Coeff:      0.111D+01
 Gap=     0.111 Goal=   None    Shift=    0.000
 Gap=     0.171 Goal=   None    Shift=    0.000
 RMSDP=4.98D-07 MaxDP=7.69D-06 DE=-5.98D-09 OVMax= 1.92D-05

 Cycle   8  Pass 1  IDiag  1:
 E= -38.4959050796078     Delta-E=       -0.000000000333 Rises=F Damp=F
 DIIS: error= 7.35D-07 at cycle   8 NSaved=   8.
 NSaved= 8 IEnMin= 8 EnMin= -38.4959050796078     IErMin= 8 ErrMin= 7.35D-07
 ErrMax= 7.35D-07  0.00D+00 EMaxC= 1.00D-01 BMatC= 1.91D-11 BMatP= 3.88D-10
 IDIUse=1 WtCom= 1.00D+00 WtEn= 0.00D+00
 Coeff-Com:  0.103D-03-0.205D-03-0.208D-03 0.358D-03 0.150D-01-0.842D-01
 Coeff-Com:  0.619D-01 0.101D+01
 Coeff:      0.103D-03-0.205D-03-0.208D-03 0.358D-03 0.150D-01-0.842D-01
 Coeff:      0.619D-01 0.101D+01
 Gap=     0.111 Goal=   None    Shift=    0.000
 Gap=     0.171 Goal=   None    Shift=    0.000
 RMSDP=9.67D-08 MaxDP=1.44D-06 DE=-3.33D-10 OVMax= 4.05D-06

 Cycle   9  Pass 1  IDiag  1:
 E= -38.4959050796194     Delta-E=       -0.000000000012 Rises=F Damp=F
 DIIS: error= 8.46D-08 at cycle   9 NSaved=   9.
 NSaved= 9 IEnMin= 9 EnMin= -38.4959050796194     IErMin= 9 ErrMin= 8.46D-08
 ErrMax= 8.46D-08  0.00D+00 EMaxC= 1.00D-01 BMatC= 3.00D-13 BMatP= 1.91D-11
 IDIUse=1 WtCom= 1.00D+00 WtEn= 0.00D+00
 Coeff-Com:  0.140D-04-0.263D-04-0.120D-05-0.576D-04 0.832D-03 0.260D-02
 Coeff-Com: -0.306D-01-0.362D-03 0.103D+01
 Coeff:      0.140D-04-0.263D-04-0.120D-05-0.576D-04 0.832D-03 0.260D-02
 Coeff:     -0.306D-01-0.362D-03 0.103D+01
 Gap=     0.111 Goal=   None    Shift=    0.000
 Gap=     0.171 Goal=   None    Shift=    0.000
 RMSDP=9.78D-09 MaxDP=1.84D-07 DE=-1.16D-11 OVMax= 4.36D-07

 SCF Done:  E(UB3LYP) =  -38.4959050796     A.U. after    9 cycles
            NFock=  9  Conv=0.98D-08     -V/T= 2.0037
 <Sx>= 0.0000 <Sy>= 0.0000 <Sz>= 0.5000 <S**2>= 0.7532 S= 0.5016
 <L.S>= 0.000000000000E+00
 KE= 3.835214384065D+01 PE=-9.500342450545D+01 EE= 1.532733547899D+01
 Annihilation of the first spin contaminant:
 S**2 before annihilation     0.7532,   after     0.7500
 Leave Link  502 at Sun Jun 19 04:46:39 2016, MaxMem=    33554432 cpu:         2.4
 (Enter /home/proyectos/fulerenos/M3C-v1.9/M3C-deps_CCC/g09-AM64L-G09RevC.01/l801.exe)
 DoSCS=F DFT=T ScalE2(SS,OS)=  1.000000  1.000000
 Range of M.O.s used for correlation:     1    49
 NBasis=    49 NAE=     4 NBE=     3 NFC=     0 NFV=     0
 NROrb=     49 NOA=     4 NOB=     3 NVA=    45 NVB=    46
 Leave Link  801 at Sun Jun 19 04:46:39 2016, MaxMem=    33554432 cpu:         0.1
 (Enter /home/proyectos/fulerenos/M3C-v1.9/M3C-deps_CCC/g09-AM64L-G09RevC.01/l1101.exe)
 Using compressed storage, NAtomX=     2.
 Will process      3 centers per pass.
 Leave Link 1101 at Sun Jun 19 04:46:40 2016, MaxMem=    33554432 cpu:         0.9
 (Enter /home/proyectos/fulerenos/M3C-v1.9/M3C-deps_CCC/g09-AM64L-G09RevC.01/l1102.exe)
 Symmetrizing basis deriv contribution to polar:
 IMax=3 JMax=2 DiffMx= 0.00D+00
 Leave Link 1102 at Sun Jun 19 04:46:40 2016, MaxMem=    33554432 cpu:         0.5
 (Enter /home/proyectos/fulerenos/M3C-v1.9/M3C-deps_CCC/g09-AM64L-G09RevC.01/l1110.exe)
 Forming Gx(P) for the SCF density, NAtomX=     2.
 Integral derivatives from FoFJK, PRISM(SPDF).
 Do as many integral derivatives as possible in FoFJK.
 G2DrvN: MDV=      33554312.
 G2DrvN: will do     3 centers at a time, making    1 passes.
 Calling FoFCou, ICntrl=  3107 FMM=F I1Cent=   0 AccDes= 0.00D+00.
 FoFJK:  IHMeth= 1 ICntrl=    3107 DoSepK=F KAlg= 0 I1Cent=   0 FoldK=F
 IRaf=         0 NMat=   1 IRICut=       1 DoRegI=T DoRafI=F ISym2E= 1.
 FoFCou: FMM=F IPFlag=           0 FMFlag=      100000 FMFlg1=           0
         NFxFlg=           0 DoJE=F BraDBF=F KetDBF=F FulRan=T
         wScrn=  0.000000 ICntrl=    3107 IOpCl=  1 I1Cent=           0 NGrid=           0
         NMat0=    1 NMatS0=      1 NMatT0=    0 NMatD0=    1 NMtDS0=    0 NMtDT0=    0
 Petite list used in FoFCou.
 End of G2Drv F.D. properties file   721 does not exist.
 End of G2Drv F.D. properties file   722 does not exist.
 End of G2Drv F.D. properties file   788 does not exist.
 Leave Link 1110 at Sun Jun 19 04:46:41 2016, MaxMem=    33554432 cpu:         3.6
 (Enter /home/proyectos/fulerenos/M3C-v1.9/M3C-deps_CCC/g09-AM64L-G09RevC.01/l1002.exe)
 Minotr:  UHF open shell wavefunction.
          IDoAtm=11
          Direct CPHF calculation.
          Differentiating once with respect to electric field.
                with respect to dipole field.
          Differentiating once with respect to nuclear coordinates.
          Using symmetry in CPHF.
          Requested convergence is 1.0D-08 RMS, and 1.0D-07 maximum.
          Secondary convergence is 1.0D-12 RMS, and 1.0D-12 maximum.
          NewPWx=T KeepS1=F KeepF1=F KeepIn=T MapXYZ=F SortEE=F KeepMc=T.
          MDV=      33554310 using IRadAn=       2.
 Generate precomputed XC quadrature information.
 Keep R1 and R2 ints in memory in symmetry-blocked form, NReq=2716302.
 FoFCou: FMM=F IPFlag=           0 FMFlag=           0 FMFlg1=           0
         NFxFlg=           0 DoJE=F BraDBF=F KetDBF=F FulRan=T
         wScrn=  0.000000 ICntrl=     600 IOpCl=  0 I1Cent=           0 NGrid=           0
         NMat0=    1 NMatS0=   1225 NMatT0=    0 NMatD0=    1 NMtDS0=    0 NMtDT0=    0
 Petite list used in FoFCou.
          Solving linear equations simultaneously, MaxMat=       0.
          There are     9 degrees of freedom in the 1st order CPHF.  IDoFFX=6 NUNeed=     3.
      6 vectors produced by pass  0 Test12= 3.53D-15 1.11D-08 XBig12= 2.47D+01 2.88D+00.
 AX will form     6 AO Fock derivatives at one time.
      6 vectors produced by pass  1 Test12= 3.53D-15 1.11D-08 XBig12= 1.74D+00 5.42D-01.
      6 vectors produced by pass  2 Test12= 3.53D-15 1.11D-08 XBig12= 6.28D-02 1.70D-01.
      6 vectors produced by pass  3 Test12= 3.53D-15 1.11D-08 XBig12= 1.62D-03 1.76D-02.
      6 vectors produced by pass  4 Test12= 3.53D-15 1.11D-08 XBig12= 2.67D-06 5.58D-04.
      6 vectors produced by pass  5 Test12= 3.53D-15 1.11D-08 XBig12= 1.10D-08 3.71D-05.
      5 vectors produced by pass  6 Test12= 3.53D-15 1.11D-08 XBig12= 2.63D-11 1.67D-06.
      4 vectors produced by pass  7 Test12= 3.53D-15 1.11D-08 XBig12= 2.18D-13 1.61D-07.
 InvSVY:  IOpt=1 It=  1 EMax= 2.22D-16
 Solved reduced A of dimension    45 with     6 vectors.
 FullF1:  Do perturbations    1 to     3.
 Isotropic polarizability for W=    0.000000       14.39 Bohr**3.
 End of Minotr F.D. properties file   721 does not exist.
 End of Minotr F.D. properties file   722 does not exist.
 End of Minotr F.D. properties file   788 does not exist.
 Leave Link 1002 at Sun Jun 19 04:46:42 2016, MaxMem=    33554432 cpu:         4.3
 (Enter /home/proyectos/fulerenos/M3C-v1.9/M3C-deps_CCC/g09-AM64L-G09RevC.01/l601.exe)
 Copying SCF densities to generalized density rwf, IOpCl= 1 IROHF=0.

 **********************************************************************

            Population analysis using the SCF density.

 **********************************************************************

 Orbital symmetries:
 Alpha Orbitals:
       Occupied  (SG) (SG) (SG) (?A)
       Virtual   (?A) (SG) (?A) (SG) (?A) (SG) (SG) (PI) (PI) (?B)
                 (?B) (?B) (PI) (PI) (SG) (SG) (SG) (PI) (PI) (SG)
                 (DLTA) (DLTA) (PI) (PI) (SG) (SG) (PI) (PI) (?C)
                 (DLTA) (?C) (DLTA) (?C) (?C) (SG) (SG) (PI) (PI)
                 (SG) (?D) (?D) (PI) (PI) (?D) (SG)
 Beta  Orbitals:
       Occupied  (SG) (SG) (SG)
       Virtual   (?A) (?A) (SG) (SG) (?A) (?A) (SG) (SG) (PI) (PI)
                 (?B) (?B) (?B) (PI) (SG) (PI) (SG) (SG) (PI) (PI)
                 (?C) (PI) (?C) (?C) (PI) (?C) (?C) (?D) (?D) (?C)
                 (?C) (?D) (?D) (?D) (?C) (?D) (SG) (PI) (PI) (SG)
                 (?E) (?E) (PI) (PI) (?E) (SG)
 Unable to determine electronic state:  an orbital has unidentified symmetry.
 Alpha  occ. eigenvalues --  -10.28064  -0.65394  -0.32818  -0.26325
 Alpha virt. eigenvalues --   -0.15249  -0.00197   0.06887   0.07001   0.07706
 Alpha virt. eigenvalues --    0.11317   0.14295   0.31302   0.31463   0.32953
 Alpha virt. eigenvalues --    0.33285   0.37525   0.51646   0.53598   0.54595
 Alpha virt. eigenvalues --    0.60628   0.75688   0.89883   0.89968   1.23496
 Alpha virt. eigenvalues --    1.54081   1.55017   1.58950   1.59831   1.89945
 Alpha virt. eigenvalues --    2.49713   2.62054   2.64404   2.77164   2.77194
 Alpha virt. eigenvalues --    2.77396   2.77672   2.95823   2.96064   2.97946
 Alpha virt. eigenvalues --    3.46646   4.09184   4.09333   5.11116   6.86515
 Alpha virt. eigenvalues --    6.87570   6.92062   6.94597   7.29506  23.50380
  Beta  occ. eigenvalues --  -10.26586  -0.61170  -0.30786
  Beta virt. eigenvalues --   -0.13695  -0.09340   0.00023   0.07136   0.07913
  Beta virt. eigenvalues --    0.08830   0.11680   0.14916   0.31486   0.32997
  Beta virt. eigenvalues --    0.34801   0.34938   0.38391   0.54420   0.55272
  Beta virt. eigenvalues --    0.57465   0.61608   0.77533   0.89848   0.91121
  Beta virt. eigenvalues --    1.24559   1.60412   1.60498   1.60541   1.64242
  Beta virt. eigenvalues --    1.91781   2.50419   2.65402   2.69856   2.80961
  Beta virt. eigenvalues --    2.81098   2.83168   2.83249   2.96545   2.99621
  Beta virt. eigenvalues --    2.99859   3.47602   4.08945   4.10324   5.11766
  Beta virt. eigenvalues --    6.94062   6.94201   6.94880   6.98976   7.32898
  Beta virt. eigenvalues --   23.51948
          Condensed to atoms (all electrons):
               1          2
     1  C    5.937910   0.207416
     2  H    0.207416   0.647257
          Atomic-Atomic Spin Densities.
               1          2
     1  C    0.987647   0.027356
     2  H    0.027356  -0.042360
 Mulliken charges and spin densities:
               1          2
     1  C   -0.145326   1.015003
     2  H    0.145326  -0.015003
 Sum of Mulliken charges =  -0.00000   1.00000
 Mulliken charges and spin densities with hydrogens summed into heavy atoms:
               1          2
     1  C   -0.000000   1.000000
 APT charges:
               1
     1  C   -0.059052
     2  H    0.059052
 Sum of APT charges =  -0.00000
 APT charges with hydrogens summed into heavy atoms:
               1
     1  C   -0.000000
 Electronic spatial extent (au):  <R**2>=             19.8273
 Charge=             -0.0000 electrons
 Dipole moment (field-independent basis, Debye):
    X=              0.0000    Y=              0.0000    Z=             -1.4659  Tot=              1.4659
 Quadrupole moment (field-independent basis, Debye-Ang):
   XX=             -5.7907   YY=             -7.8901   ZZ=             -7.7982
   XY=              0.0000   XZ=              0.0000   YZ=              0.0000
 Traceless Quadrupole moment (field-independent basis, Debye-Ang):
   XX=              1.3690   YY=             -0.7305   ZZ=             -0.6385
   XY=              0.0000   XZ=              0.0000   YZ=              0.0000
 Octapole moment (field-independent basis, Debye-Ang**2):
  XXX=              0.0000  YYY=              0.0000  ZZZ=             -2.8705  XYY=              0.0000
  XXY=              0.0000  XXZ=             -0.5924  XZZ=              0.0000  YZZ=              0.0000
  YYZ=             -0.7635  XYZ=              0.0000
 Hexadecapole moment (field-independent basis, Debye-Ang**3):
 XXXX=             -6.0799 YYYY=            -11.0658 ZZZZ=            -16.4316 XXXY=              0.0000
 XXXZ=              0.0000 YYYX=              0.0000 YYYZ=              0.0000 ZZZX=              0.0000
 ZZZY=              0.0000 XXYY=             -2.8564 XXZZ=             -3.9037 YYZZ=             -4.7624
 XXYZ=              0.0000 YYXZ=              0.0000 ZZXY=              0.0000
 N-N= 2.828040106190D+00 E-N=-9.500342519727D+01  KE= 3.835214384065D+01
 Symmetry A1   KE= 3.711709688470D+01
 Symmetry A2   KE= 4.024173574472D-35
 Symmetry B1   KE= 9.261625152117D-33
 Symmetry B2   KE= 1.235046955949D+00
  Exact polarizability:  12.174  -0.000  14.504   0.000  -0.000  16.491
 Approx polarizability:  17.113  -0.000  14.990  -0.000  -0.000  19.041
                          Isotropic Fermi Contact Couplings
        Atom                 a.u.       MegaHertz       Gauss      10(-4) cm-1
     1  C(13)              0.03952      44.42435      15.85171      14.81837
     2  H(1)              -0.00958     -42.82521     -15.28110     -14.28495
 --------------------------------------------------------
       Center         ----  Spin Dipole Couplings  ----
                      3XX-RR        3YY-RR        3ZZ-RR
 --------------------------------------------------------
     1   Atom       -0.701644      1.366690     -0.665047
     2   Atom       -0.074752      0.001625      0.073127
 --------------------------------------------------------
                        XY            XZ            YZ
 --------------------------------------------------------
     1   Atom        0.000000      0.000000      0.000000
     2   Atom        0.000000      0.000000      0.000000
 --------------------------------------------------------


 ---------------------------------------------------------------------------------
              Anisotropic Spin Dipole Couplings in Principal Axis System
 ---------------------------------------------------------------------------------

       Atom             a.u.   MegaHertz   Gauss  10(-4) cm-1        Axes

              Baa    -0.7016   -94.154   -33.596   -31.406  1.0000  0.0000  0.0000
     1 C(13)  Bbb    -0.6650   -89.243   -31.844   -29.768  0.0000  0.0000  1.0000
              Bcc     1.3667   183.397    65.441    61.175 -0.0000  1.0000  0.0000
 
              Baa    -0.0748   -39.884   -14.232   -13.304  1.0000  0.0000  0.0000
     2 H(1)   Bbb     0.0016     0.867     0.309     0.289 -0.0000  1.0000  0.0000
              Bcc     0.0731    39.017    13.922    13.015  0.0000  0.0000  1.0000
 

 ---------------------------------------------------------------------------------

 No NMR shielding tensors so no spin-rotation constants.
 Leave Link  601 at Sun Jun 19 04:46:43 2016, MaxMem=    33554432 cpu:         3.5
 (Enter /home/proyectos/fulerenos/M3C-v1.9/M3C-deps_CCC/g09-AM64L-G09RevC.01/l701.exe)
 Compute integral second derivatives.
 ... and contract with generalized density number  0.
 Leave Link  701 at Sun Jun 19 04:46:44 2016, MaxMem=    33554432 cpu:         1.2
 (Enter /home/proyectos/fulerenos/M3C-v1.9/M3C-deps_CCC/g09-AM64L-G09RevC.01/l702.exe)
 L702 exits ... SP integral derivatives will be done elsewhere.
 Leave Link  702 at Sun Jun 19 04:46:44 2016, MaxMem=    33554432 cpu:         0.1
 (Enter /home/proyectos/fulerenos/M3C-v1.9/M3C-deps_CCC/g09-AM64L-G09RevC.01/l703.exe)
 Compute integral second derivatives, UseDBF=F ICtDFT=           0.
 Integral derivatives from FoFJK, PRISM(SPDF).
 Calling FoFJK, ICntrl=    100127 FMM=F ISym2X=1 I1Cent= 0 IOpClX= 1 NMat=1 NMatS=1 NMatT=0.
 FoFJK:  IHMeth= 1 ICntrl=  100127 DoSepK=F KAlg= 0 I1Cent=   0 FoldK=F
 IRaf=         0 NMat=   1 IRICut=       1 DoRegI=T DoRafI=F ISym2E= 1.
 FoFCou: FMM=F IPFlag=           0 FMFlag=      100000 FMFlg1=         800
         NFxFlg=           0 DoJE=F BraDBF=F KetDBF=F FulRan=T
         wScrn=  0.000000 ICntrl=  100127 IOpCl=  1 I1Cent=           0 NGrid=           0
         NMat0=    1 NMatS0=      1 NMatT0=    0 NMatD0=    1 NMtDS0=    0 NMtDT0=    0
 Petite list used in FoFCou.
 Leave Link  703 at Sun Jun 19 04:46:46 2016, MaxMem=    33554432 cpu:         8.4
 (Enter /home/proyectos/fulerenos/M3C-v1.9/M3C-deps_CCC/g09-AM64L-G09RevC.01/l716.exe)
 Dipole        = 0.00000000D+00 0.00000000D+00-5.76748065D-01
 Polarizability= 1.21740644D+01-1.55707063D-09 1.45041362D+01
                 3.11736753D-09-1.60080158D-09 1.64905511D+01
 Full mass-weighted force constant matrix:
 Low frequencies ---   -0.0015   -0.0011   -0.0008   37.0472   43.6962 2827.1903
 Diagonal vibrational polarizability:
        0.0000000       0.0000000       0.4758871
 Harmonic frequencies (cm**-1), IR intensities (KM/Mole), Raman scattering
 activities (A**4/AMU), depolarization ratios for plane and unpolarized
 incident light, reduced masses (AMU), force constants (mDyne/A),
 and normal coordinates:
                      1
                     SG
 Frequencies --   2827.1903
 Red. masses --      1.0848
 Frc consts  --      5.1088
 IR Inten    --    141.3451
  Atom  AN      X      Y      Z
     1   6    -0.00  -0.00  -0.08
     2   1    -0.00  -0.00   1.00

 -------------------
 - Thermochemistry -
 -------------------
 Temperature   298.150 Kelvin.  Pressure   1.00000 Atm.
 Atom     1 has atomic number  6 and mass  12.00000
 Atom     2 has atomic number  1 and mass   1.00783
 Molecular mass:    13.00783 amu.
 Principal axes and moments of inertia in atomic units:
                           1         2         3
     Eigenvalues --     0.00000   4.18498   4.18498
           X            0.00000  -0.00000   1.00000
           Y            0.00000   1.00000   0.00000
           Z            1.00000   0.00000   0.00000
 This molecule is a prolate symmetric top.
 Rotational symmetry number  1.
 Rotational temperature (Kelvin)     20.69637
 Rotational constant (GHZ):         431.242802
 Zero-point vibrational energy      16910.4 (Joules/Mol)
                                    4.04167 (Kcal/Mol)
 Vibrational temperatures:   4067.69
          (Kelvin)
 
 Zero-point correction=                           0.006441 (Hartree/Particle)
 Thermal correction to Energy=                    0.008801
 Thermal correction to Enthalpy=                  0.009745
 Thermal correction to Gibbs Free Energy=        -0.010355
 Sum of electronic and zero-point Energies=            -38.489464
 Sum of electronic and thermal Energies=               -38.487104
 Sum of electronic and thermal Enthalpies=             -38.486160
 Sum of electronic and thermal Free Energies=          -38.506260
 
                     E (Thermal)             CV                S
                      KCal/Mol        Cal/Mol-Kelvin    Cal/Mol-Kelvin
 Total                    5.523              4.968             42.304
 Electronic               0.000              0.000              1.377
 Translational            0.889              2.981             33.638
 Rotational               0.592              1.987              7.288
 Vibrational              4.042              0.000              0.000
                       Q            Log10(Q)             Ln(Q)
 Total Bot       0.579124D+05          4.762771         10.966686
 Total V=0       0.531292D+08          7.725333         17.788238
 Vib (Bot)       0.109003D-02         -2.962562         -6.821550
 Vib (V=0)       0.100000D+01          0.000001          0.000001
 Electronic      0.200000D+01          0.301030          0.693147
 Translational   0.184401D+07          6.265762         14.427451
 Rotational      0.144059D+02          1.158541          2.667639
 ***** Axes restored to original set *****
 -------------------------------------------------------------------
 Center     Atomic                   Forces (Hartrees/Bohr)
 Number     Number              X              Y              Z
 -------------------------------------------------------------------
      1        6          -0.000218301   -0.000000000   -0.000000000
      2        1           0.000218301   -0.000000000   -0.000000000
 -------------------------------------------------------------------
 Cartesian Forces:  Max     0.000218301 RMS     0.000126036
 Z-matrix is all fixed cartesians, so copy forces.
 Force constants in Cartesian coordinates: 
                1             2             3             4             5 
      1  0.281231D+00
      2  0.000000D+00  0.482908D-04
      3  0.000000D+00  0.000000D+00  0.671802D-04
      4 -0.281231D+00  0.000000D+00  0.000000D+00  0.281231D+00
      5  0.000000D+00 -0.482908D-04  0.000000D+00  0.000000D+00  0.482908D-04
      6  0.000000D+00  0.000000D+00 -0.671802D-04  0.000000D+00  0.000000D+00
                6 
      6  0.671802D-04
 Leave Link  716 at Sun Jun 19 04:46:46 2016, MaxMem=    33554432 cpu:         0.1
 (Enter /home/proyectos/fulerenos/M3C-v1.9/M3C-deps_CCC/g09-AM64L-G09RevC.01/l103.exe)

 GradGradGradGradGradGradGradGradGradGradGradGradGradGradGradGradGradGrad
 Berny optimization.
 Search for a local minimum.
 Step number   1 out of a maximum of    2
 All quantities printed in internal units (Hartrees-Bohrs-Radians)
 Second derivative matrix not updated -- analytic derivatives used.
 The second derivative matrix:
                          X1        Y1        Z1        X2        Y2
           X1           0.28123
           Y1          -0.00000   0.00005
           Z1          -0.00000  -0.00000   0.00007
           X2          -0.28123   0.00000   0.00000   0.28123
           Y2           0.00000  -0.00005   0.00000  -0.00000   0.00005
           Z2           0.00000   0.00000  -0.00007  -0.00000  -0.00000
                          Z2
           Z2           0.00007
 ITU=  0
     Eigenvalues ---    0.47805
 Angle between quadratic step and forces=  22.79 degrees.
 ClnCor:  largest displacement from symmetrization is 0.00D+00 for atom     0.
 Linear search not attempted -- first point.
 ClnCor:  largest displacement from symmetrization is 0.00D+00 for atom     0.
 B after Tr=    -0.000163    0.000000    0.000000
         Rot=    1.000000    0.000000    0.000000    0.000000 Ang=   0.00 deg.
 Variable       Old X    -DE/DX   Delta X   Delta X   Delta X     New X
                                 (Linear)    (Quad)   (Total)
    X1        0.30464  -0.00022   0.00000  -0.00023  -0.00039   0.30425
    Y1        0.00000  -0.00000   0.00000   0.00000   0.00000   0.00000
    Z1        0.00000  -0.00000   0.00000   0.00000   0.00000   0.00000
    X2       -1.81697   0.00022   0.00000   0.00055   0.00039  -1.81658
    Y2        0.00000  -0.00000   0.00000   0.00000   0.00000   0.00000
    Z2        0.00000  -0.00000   0.00000   0.00000   0.00000   0.00000
         Item               Value     Threshold  Converged?
 Maximum Force            0.000218     0.000450     YES
 RMS     Force            0.000126     0.000300     YES
 Maximum Displacement     0.000388     0.001800     YES
 RMS     Displacement     0.000224     0.001200     YES
 Predicted change in Energy=-8.472633D-08
 Optimization completed.
    -- Stationary point found.
 GradGradGradGradGradGradGradGradGradGradGradGradGradGradGradGradGradGrad

 Leave Link  103 at Sun Jun 19 04:46:46 2016, MaxMem=    33554432 cpu:         0.1
 (Enter /home/proyectos/fulerenos/M3C-v1.9/M3C-deps_CCC/g09-AM64L-G09RevC.01/l9999.exe)
 1\1\GINC-BELVIS25\Freq\UB3LYP\6-311++G(3df,2p)\C1H1(2)\NAGUIRRE\19-Jun
 -2016\0\\#p b3lyp/6-311++G(3df,2p) freq symmetry=Loose\\b3lyp opt\\0,2
 \C,0.161209,0.,0.\H,-0.961499,0.,0.\\Version=EM64L-G09RevE.01\HF=-38.4
 959051\S2=0.753151\S2-1=0.\S2A=0.750002\RMSD=9.781e-09\RMSF=1.260e-04\
 ZeroPoint=0.0064408\Thermal=0.0088013\Dipole=-0.5767481,0.,0.\DipoleDe
 riv=0.3671518,0.,0.,0.,-0.2719644,0.,0.,0.,-0.2723429,-0.3671518,0.,0.
 ,0.,0.2719644,0.,0.,0.,0.2723429\Polar=16.4905511,0.,14.5041362,0.,0.,
 12.1740644\PG=C*V [C*(H1C1)]\NImag=0\\0.28123103,0.,0.00004829,0.,0.,0
 .00006718,-0.28123103,0.,0.,0.28123103,0.,-0.00004829,0.,0.,0.00004829
 ,0.,0.,-0.00006718,0.,0.,0.00006718\\0.00021830,0.,0.,-0.00021830,0.,0
 .\\\@


 THERE IS SOMETHING FASCINATING ABOUT SCIENCE.
 ONE GETS SUCH WHOLESALE CONJECTURE OUT OF SUCH TRIFLING INVESTMENTS.

                                                       -- MARK TWAIN
 Job cpu time:       0 days  0 hours  0 minutes 28.8 seconds.
 File lengths (MBytes):  RWF=      5 Int=      0 D2E=      0 Chk=      1 Scr=      1
 Normal termination of Gaussian 09 at Sun Jun 19 04:46:46 2016.
