 Entering Gaussian System, Link 0=/home/proyectos/fulerenos/M3C-v1.9/M3C-deps_CCC/g09-AM64L-G09RevC.01/g09
 Initial command:
 /home/proyectos/fulerenos/M3C-v1.9/M3C-deps_CCC/g09-AM64L-G09RevC.01/l1.exe "/scratch/naguirre/gaussian/Gau-20311.inp" -scrdir="/scratch/naguirre/gaussian/"
 Entering Link 1 = /home/proyectos/fulerenos/M3C-v1.9/M3C-deps_CCC/g09-AM64L-G09RevC.01/l1.exe PID=     20321.
  
 Copyright (c) 1988,1990,1992,1993,1995,1998,2003,2009,2015,
            Gaussian, Inc.  All Rights Reserved.
  
 This is part of the Gaussian(R) 09 program.  It is based on
 the Gaussian(R) 03 system (copyright 2003, Gaussian, Inc.),
 the Gaussian(R) 98 system (copyright 1998, Gaussian, Inc.),
 the Gaussian(R) 94 system (copyright 1995, Gaussian, Inc.),
 the Gaussian 92(TM) system (copyright 1992, Gaussian, Inc.),
 the Gaussian 90(TM) system (copyright 1990, Gaussian, Inc.),
 the Gaussian 88(TM) system (copyright 1988, Gaussian, Inc.),
 the Gaussian 86(TM) system (copyright 1986, Carnegie Mellon
 University), and the Gaussian 82(TM) system (copyright 1983,
 Carnegie Mellon University). Gaussian is a federally registered
 trademark of Gaussian, Inc.
  
 This software contains proprietary and confidential information,
 including trade secrets, belonging to Gaussian, Inc.
  
 This software is provided under written license and may be
 used, copied, transmitted, or stored only in accord with that
 written license.
  
 The following legend is applicable only to US Government
 contracts under FAR:
  
                    RESTRICTED RIGHTS LEGEND
  
 Use, reproduction and disclosure by the US Government is
 subject to restrictions as set forth in subparagraphs (a)
 and (c) of the Commercial Computer Software - Restricted
 Rights clause in FAR 52.227-19.
  
 Gaussian, Inc.
 340 Quinnipiac St., Bldg. 40, Wallingford CT 06492
  
  
 ---------------------------------------------------------------
 Warning -- This program may not be used in any manner that
 competes with the business of Gaussian, Inc. or will provide
 assistance to any competitor of Gaussian, Inc.  The licensee
 of this program is prohibited from giving any competitor of
 Gaussian, Inc. access to this program.  By using this program,
 the user acknowledges that Gaussian, Inc. is engaged in the
 business of creating and licensing software in the field of
 computational chemistry and represents and warrants to the
 licensee that it is not a competitor of Gaussian, Inc. and that
 it will not use this program in any manner prohibited above.
 ---------------------------------------------------------------
  

 Cite this work as:
 Gaussian 09, Revision E.01,
 M. J. Frisch, G. W. Trucks, H. B. Schlegel, G. E. Scuseria, 
 M. A. Robb, J. R. Cheeseman, G. Scalmani, V. Barone, B. Mennucci, 
 G. A. Petersson, H. Nakatsuji, M. Caricato, X. Li, H. P. Hratchian, 
 A. F. Izmaylov, J. Bloino, G. Zheng, J. L. Sonnenberg, M. Hada, 
 M. Ehara, K. Toyota, R. Fukuda, J. Hasegawa, M. Ishida, T. Nakajima, 
 Y. Honda, O. Kitao, H. Nakai, T. Vreven, J. A. Montgomery, Jr., 
 J. E. Peralta, F. Ogliaro, M. Bearpark, J. J. Heyd, E. Brothers, 
 K. N. Kudin, V. N. Staroverov, T. Keith, R. Kobayashi, J. Normand, 
 K. Raghavachari, A. Rendell, J. C. Burant, S. S. Iyengar, J. Tomasi, 
 M. Cossi, N. Rega, J. M. Millam, M. Klene, J. E. Knox, J. B. Cross, 
 V. Bakken, C. Adamo, J. Jaramillo, R. Gomperts, R. E. Stratmann, 
 O. Yazyev, A. J. Austin, R. Cammi, C. Pomelli, J. W. Ochterski, 
 R. L. Martin, K. Morokuma, V. G. Zakrzewski, G. A. Voth, 
 P. Salvador, J. J. Dannenberg, S. Dapprich, A. D. Daniels, 
 O. Farkas, J. B. Foresman, J. V. Ortiz, J. Cioslowski, 
 and D. J. Fox, Gaussian, Inc., Wallingford CT, 2013.
 
 ******************************************
 Gaussian 09:  EM64L-G09RevE.01 30-Nov-2015
                20-Jun-2016 
 ******************************************
 %NProcShared=4
 Will use up to    4 processors via shared memory.
 ---------------------------------------------
 #p b3lyp/6-311++G(3df,2p) freq symmetry=Loose
 ---------------------------------------------
 1/10=4,30=1,38=1/1,3;
 2/12=2,17=4,18=3,40=1/2;
 3/5=4,6=6,7=1216,11=2,16=1,25=1,30=1,71=2,74=-5,140=1/1,2,3;
 4//1;
 5/5=2,38=5,98=1/2;
 8/6=4,10=90,11=11/1;
 11/6=1,8=1,9=11,15=111,16=1/1,2,10;
 10/6=1/2;
 6/7=2,8=2,9=2,10=2,18=1,28=1/1;
 7/8=1,10=1,25=1/1,2,3,16;
 1/10=4,30=1/3;
 99//99;
 Leave Link    1 at Mon Jun 20 13:25:38 2016, MaxMem=           0 cpu:         0.3
 (Enter /home/proyectos/fulerenos/M3C-v1.9/M3C-deps_CCC/g09-AM64L-G09RevC.01/l101.exe)
 ---------
 b3lyp opt
 ---------
 Symbolic Z-matrix:
 Charge =  2 Multiplicity = 4
 H                     0.        0.        1.67669 
 C                     0.        0.        0.5345 
 C                     0.        0.       -0.81395 
 
 NAtoms=      3 NQM=        3 NQMF=       0 NMMI=      0 NMMIF=      0
                NMic=       0 NMicF=      0.
                    Isotopes and Nuclear Properties:
 (Nuclear quadrupole moments (NQMom) in fm**2, nuclear magnetic moments (NMagM)
  in nuclear magnetons)

  Atom         1           2           3
 IAtWgt=           1          12          12
 AtmWgt=   1.0078250  12.0000000  12.0000000
 NucSpn=           1           0           0
 AtZEff=   0.0000000   0.0000000   0.0000000
 NQMom=    0.0000000   0.0000000   0.0000000
 NMagM=    2.7928460   0.0000000   0.0000000
 AtZNuc=   1.0000000   6.0000000   6.0000000
 Leave Link  101 at Mon Jun 20 13:25:38 2016, MaxMem=    33554432 cpu:         0.2
 (Enter /home/proyectos/fulerenos/M3C-v1.9/M3C-deps_CCC/g09-AM64L-G09RevC.01/l103.exe)

 GradGradGradGradGradGradGradGradGradGradGradGradGradGradGradGradGradGrad
 Berny optimization.
 Initialization pass.
 Trust Radius=3.00D-01 FncErr=1.00D-07 GrdErr=1.00D-07
 Number of steps in this run=      2 maximum allowed number of steps=      2.
 GradGradGradGradGradGradGradGradGradGradGradGradGradGradGradGradGradGrad

 Leave Link  103 at Mon Jun 20 13:25:38 2016, MaxMem=    33554432 cpu:         0.1
 (Enter /home/proyectos/fulerenos/M3C-v1.9/M3C-deps_CCC/g09-AM64L-G09RevC.01/l202.exe)
                          Input orientation:                          
 ---------------------------------------------------------------------
 Center     Atomic      Atomic             Coordinates (Angstroms)
 Number     Number       Type             X           Y           Z
 ---------------------------------------------------------------------
      1          1           0        0.000000    0.000000    1.676687
      2          6           0        0.000000    0.000000    0.534504
      3          6           0        0.000000    0.000000   -0.813952
 ---------------------------------------------------------------------
                    Distance matrix (angstroms):
                    1          2          3
     1  H    0.000000
     2  C    1.142183   0.000000
     3  C    2.490639   1.348456   0.000000
 Stoichiometry    C2H(2+,4)
 Framework group  C*V[C*(HCC)]
 Deg. of freedom     2
 Full point group                 C*V     NOp   4
 Largest Abelian subgroup         C2V     NOp   4
 Largest concise Abelian subgroup C1      NOp   1
                         Standard orientation:                         
 ---------------------------------------------------------------------
 Center     Atomic      Atomic             Coordinates (Angstroms)
 Number     Number       Type             X           Y           Z
 ---------------------------------------------------------------------
      1          1           0        0.000000    0.000000   -1.676687
      2          6           0        0.000000    0.000000   -0.534504
      3          6           0        0.000000    0.000000    0.813952
 ---------------------------------------------------------------------
 Rotational constants (GHZ):      0.0000000     35.8395279     35.8395279
 Leave Link  202 at Mon Jun 20 13:25:38 2016, MaxMem=    33554432 cpu:         0.0
 (Enter /home/proyectos/fulerenos/M3C-v1.9/M3C-deps_CCC/g09-AM64L-G09RevC.01/l301.exe)
 Standard basis: 6-311++G(3df,2p) (5D, 7F)
 Ernie: Thresh=  0.10000D-02 Tol=  0.10000D-05 Strict=F.
 There are    48 symmetry adapted cartesian basis functions of A1  symmetry.
 There are     8 symmetry adapted cartesian basis functions of A2  symmetry.
 There are    22 symmetry adapted cartesian basis functions of B1  symmetry.
 There are    22 symmetry adapted cartesian basis functions of B2  symmetry.
 There are    40 symmetry adapted basis functions of A1  symmetry.
 There are     8 symmetry adapted basis functions of A2  symmetry.
 There are    20 symmetry adapted basis functions of B1  symmetry.
 There are    20 symmetry adapted basis functions of B2  symmetry.
    88 basis functions,   128 primitive gaussians,   100 cartesian basis functions
     7 alpha electrons        4 beta electrons
       nuclear repulsion energy        18.1821687085 Hartrees.
 IExCor=  402 DFT=T Ex+Corr=B3LYP ExCW=0 ScaHFX=  0.200000
 ScaDFX=  0.800000  0.720000  1.000000  0.810000 ScalE2=  1.000000  1.000000
 IRadAn=      0 IRanWt=     -1 IRanGd=            0 ICorTp=0 IEmpDi=  4
 NAtoms=    3 NActive=    3 NUniq=    3 SFac= 1.00D+00 NAtFMM=   60 NAOKFM=F Big=F
 Integral buffers will be    131072 words long.
 Raffenetti 2 integral format.
 Two-electron integral symmetry is turned on.
 Leave Link  301 at Mon Jun 20 13:25:38 2016, MaxMem=    33554432 cpu:         0.2
 (Enter /home/proyectos/fulerenos/M3C-v1.9/M3C-deps_CCC/g09-AM64L-G09RevC.01/l302.exe)
 NPDir=0 NMtPBC=     1 NCelOv=     1 NCel=       1 NClECP=     1 NCelD=      1
         NCelK=      1 NCelE2=     1 NClLst=     1 CellRange=     0.0.
 One-electron integrals computed using PRISM.
 NBasis=    88 RedAO= T EigKep=  9.38D-05  NBF=    40     8    20    20
 NBsUse=    88 1.00D-06 EigRej= -1.00D+00 NBFU=    40     8    20    20
 Precomputing XC quadrature grid using
 IXCGrd= 4 IRadAn=           0 IRanWt=          -1 IRanGd=           0 AccXCQ= 0.00D+00.
 Generated NRdTot=       0 NPtTot=           0 NUsed=           0 NTot=          32
 NSgBfM=   100   100   100   100   100 MxSgAt=     3 MxSgA2=     3.
 Leave Link  302 at Mon Jun 20 13:25:38 2016, MaxMem=    33554432 cpu:         0.7
 (Enter /home/proyectos/fulerenos/M3C-v1.9/M3C-deps_CCC/g09-AM64L-G09RevC.01/l303.exe)
 DipDrv:  MaxL=1.
 Leave Link  303 at Mon Jun 20 13:25:38 2016, MaxMem=    33554432 cpu:         0.1
 (Enter /home/proyectos/fulerenos/M3C-v1.9/M3C-deps_CCC/g09-AM64L-G09RevC.01/l401.exe)
 ExpMin= 3.60D-02 ExpMax= 4.56D+03 ExpMxC= 6.82D+02 IAcc=3 IRadAn=         5 AccDes= 0.00D+00
 Harris functional with IExCor=  402 and IRadAn=       5 diagonalized for initial guess.
 HarFok:  IExCor=  402 AccDes= 0.00D+00 IRadAn=         5 IDoV= 1 UseB2=F ITyADJ=14
 ICtDFT=  3500011 ScaDFX=  1.000000  1.000000  1.000000  1.000000
 FoFCou: FMM=F IPFlag=           0 FMFlag=      100000 FMFlg1=           0
         NFxFlg=           0 DoJE=T BraDBF=F KetDBF=T FulRan=T
         wScrn=  0.000000 ICntrl=     500 IOpCl=  0 I1Cent=   200000004 NGrid=           0
         NMat0=    1 NMatS0=      1 NMatT0=    0 NMatD0=    1 NMtDS0=    0 NMtDT0=    0
 Petite list used in FoFCou.
 Harris En= -75.9415761423961    
 JPrj=0 DoOrth=F DoCkMO=F.
 Initial guess orbital symmetries:
 Alpha Orbitals:
       Occupied  (SG) (SG) (SG) (SG) (SG) (PI) (PI)
       Virtual   (PI) (PI) (SG) (SG) (PI) (PI) (SG) (SG) (PI) (PI)
                 (SG) (SG) (DLTA) (DLTA) (SG) (SG) (PI) (PI) (DLTA)
                 (DLTA) (SG) (PI) (PI) (PI) (PI) (SG) (SG) (PI)
                 (PI) (SG) (SG) (PI) (PI) (SG) (PI) (PI) (DLTA)
                 (DLTA) (SG) (DLTA) (DLTA) (SG) (PI) (PI) (SG)
                 (DLTA) (DLTA) (PI) (PI) (SG) (PHI) (PHI) (PI)
                 (PI) (SG) (PHI) (PHI) (PI) (PI) (DLTA) (DLTA)
                 (SG) (SG) (PI) (PI) (SG) (PI) (PI) (SG) (DLTA)
                 (DLTA) (DLTA) (DLTA) (PI) (PI) (SG) (PI) (PI)
                 (SG) (SG) (SG)
 Beta  Orbitals:
       Occupied  (SG) (SG) (SG) (SG)
       Virtual   (SG) (PI) (PI) (PI) (PI) (SG) (SG) (PI) (PI) (SG)
                 (SG) (PI) (PI) (SG) (SG) (DLTA) (DLTA) (SG) (SG)
                 (PI) (PI) (DLTA) (DLTA) (SG) (PI) (PI) (PI) (PI)
                 (SG) (SG) (PI) (PI) (SG) (SG) (PI) (PI) (SG) (PI)
                 (PI) (DLTA) (DLTA) (SG) (DLTA) (DLTA) (SG) (PI)
                 (PI) (SG) (DLTA) (DLTA) (PI) (PI) (SG) (PHI) (PHI)
                 (PI) (PI) (SG) (PHI) (PHI) (PI) (PI) (DLTA) (DLTA)
                 (SG) (SG) (PI) (PI) (SG) (PI) (PI) (SG) (DLTA)
                 (DLTA) (DLTA) (DLTA) (PI) (PI) (SG) (PI) (PI)
                 (SG) (SG) (SG)
 The electronic state of the initial guess is 4-SG.
 Initial guess <Sx>= 0.0000 <Sy>= 0.0000 <Sz>= 1.5000 <S**2>= 3.7500 S= 1.5000
 Leave Link  401 at Mon Jun 20 13:25:38 2016, MaxMem=    33554432 cpu:         1.1
 (Enter /home/proyectos/fulerenos/M3C-v1.9/M3C-deps_CCC/g09-AM64L-G09RevC.01/l502.exe)
 UHF open shell SCF:
 Using DIIS extrapolation, IDIIS=  1040.
 Integral symmetry usage will be decided dynamically.
 Keep R1 and R2 ints in memory in symmetry-blocked form, NReq=9727284.
 IVT=       49952 IEndB=       49952 NGot=    33554432 MDV=    29499877
 LenX=    29499877 LenY=    29489436
 Requested convergence on RMS density matrix=1.00D-08 within 128 cycles.
 Requested convergence on MAX density matrix=1.00D-06.
 Requested convergence on             energy=1.00D-06.
 No special actions if energy rises.
 FoFCou: FMM=F IPFlag=           0 FMFlag=           0 FMFlg1=           0
         NFxFlg=           0 DoJE=F BraDBF=F KetDBF=F FulRan=T
         wScrn=  0.000000 ICntrl=     600 IOpCl=  0 I1Cent=           0 NGrid=           0
         NMat0=    1 NMatS0=   3916 NMatT0=    0 NMatD0=    1 NMtDS0=    0 NMtDT0=    0
 Petite list used in FoFCou.

 Cycle   1  Pass 1  IDiag  1:
 E= -75.3519641092133    
 DIIS: error= 4.46D-02 at cycle   1 NSaved=   1.
 NSaved= 1 IEnMin= 1 EnMin= -75.3519641092133     IErMin= 1 ErrMin= 4.46D-02
 ErrMax= 4.46D-02  0.00D+00 EMaxC= 1.00D-01 BMatC= 2.26D-01 BMatP= 2.26D-01
 IDIUse=3 WtCom= 5.54D-01 WtEn= 4.46D-01
 Coeff-Com:  0.100D+01
 Coeff-En:   0.100D+01
 Coeff:      0.100D+01
 Gap=     0.328 Goal=   None    Shift=    0.000
 Gap=     0.225 Goal=   None    Shift=    0.000
 GapD=    0.225 DampG=1.000 DampE=0.500 DampFc=0.5000 IDamp=-1.
 Damping current iteration by 5.00D-01
 RMSDP=8.12D-03 MaxDP=2.58D-01              OVMax= 2.38D-01

 Cycle   2  Pass 1  IDiag  1:
 E= -75.3986643440283     Delta-E=       -0.046700234815 Rises=F Damp=T
 DIIS: error= 1.57D-02 at cycle   2 NSaved=   2.
 NSaved= 2 IEnMin= 2 EnMin= -75.3986643440283     IErMin= 2 ErrMin= 1.57D-02
 ErrMax= 1.57D-02  0.00D+00 EMaxC= 1.00D-01 BMatC= 3.41D-02 BMatP= 2.26D-01
 IDIUse=3 WtCom= 8.43D-01 WtEn= 1.57D-01
 Coeff-Com: -0.191D+00 0.119D+01
 Coeff-En:   0.000D+00 0.100D+01
 Coeff:     -0.161D+00 0.116D+01
 Gap=     0.297 Goal=   None    Shift=    0.000
 Gap=     0.356 Goal=   None    Shift=    0.000
 RMSDP=3.77D-03 MaxDP=8.92D-02 DE=-4.67D-02 OVMax= 1.63D-01

 Cycle   3  Pass 1  IDiag  1:
 E= -75.4344396626757     Delta-E=       -0.035775318647 Rises=F Damp=F
 DIIS: error= 1.28D-02 at cycle   3 NSaved=   3.
 NSaved= 3 IEnMin= 3 EnMin= -75.4344396626757     IErMin= 3 ErrMin= 1.28D-02
 ErrMax= 1.28D-02  0.00D+00 EMaxC= 1.00D-01 BMatC= 3.91D-02 BMatP= 3.41D-02
 IDIUse=2 WtCom= 0.00D+00 WtEn= 1.00D+00
 Coeff-En:   0.000D+00 0.000D+00 0.100D+01
 Coeff:      0.000D+00 0.000D+00 0.100D+01
 Gap=     0.306 Goal=   None    Shift=    0.000
 Gap=     0.267 Goal=   None    Shift=    0.000
 RMSDP=2.96D-03 MaxDP=1.07D-01 DE=-3.58D-02 OVMax= 1.73D-01

 Cycle   4  Pass 1  IDiag  1:
 E= -75.4120967612983     Delta-E=        0.022342901377 Rises=F Damp=F
 DIIS: error= 2.30D-02 at cycle   4 NSaved=   4.
 NSaved= 4 IEnMin= 3 EnMin= -75.4344396626757     IErMin= 3 ErrMin= 1.28D-02
 ErrMax= 2.30D-02  0.00D+00 EMaxC= 1.00D-01 BMatC= 1.14D-01 BMatP= 3.41D-02
 IDIUse=2 WtCom= 0.00D+00 WtEn= 1.00D+00
 Coeff-En:   0.000D+00 0.000D+00 0.711D+00 0.289D+00
 Coeff:      0.000D+00 0.000D+00 0.711D+00 0.289D+00
 Gap=     0.309 Goal=   None    Shift=    0.000
 Gap=     0.320 Goal=   None    Shift=    0.000
 RMSDP=1.72D-03 MaxDP=7.26D-02 DE= 2.23D-02 OVMax= 8.64D-02

 Cycle   5  Pass 1  IDiag  1:
 E= -75.4442209547962     Delta-E=       -0.032124193498 Rises=F Damp=F
 DIIS: error= 4.58D-03 at cycle   5 NSaved=   5.
 NSaved= 5 IEnMin= 5 EnMin= -75.4442209547962     IErMin= 5 ErrMin= 4.58D-03
 ErrMax= 4.58D-03  0.00D+00 EMaxC= 1.00D-01 BMatC= 5.19D-03 BMatP= 3.41D-02
 IDIUse=3 WtCom= 9.54D-01 WtEn= 4.58D-02
 Coeff-Com: -0.529D-02-0.252D-02 0.152D+00-0.121D+00 0.977D+00
 Coeff-En:   0.000D+00 0.000D+00 0.126D+00 0.000D+00 0.874D+00
 Coeff:     -0.505D-02-0.240D-02 0.151D+00-0.116D+00 0.972D+00
 Gap=     0.313 Goal=   None    Shift=    0.000
 Gap=     0.322 Goal=   None    Shift=    0.000
 RMSDP=4.33D-04 MaxDP=1.42D-02 DE=-3.21D-02 OVMax= 2.23D-02

 Cycle   6  Pass 1  IDiag  1:
 E= -75.4457018502214     Delta-E=       -0.001480895425 Rises=F Damp=F
 DIIS: error= 1.28D-04 at cycle   6 NSaved=   6.
 NSaved= 6 IEnMin= 6 EnMin= -75.4457018502214     IErMin= 6 ErrMin= 1.28D-04
 ErrMax= 1.28D-04  0.00D+00 EMaxC= 1.00D-01 BMatC= 3.82D-06 BMatP= 5.19D-03
 IDIUse=3 WtCom= 9.99D-01 WtEn= 1.28D-03
 Coeff-Com:  0.604D-04 0.271D-03-0.331D-01 0.151D-01-0.137D+00 0.115D+01
 Coeff-En:   0.000D+00 0.000D+00 0.000D+00 0.000D+00 0.000D+00 0.100D+01
 Coeff:      0.603D-04 0.271D-03-0.330D-01 0.150D-01-0.137D+00 0.115D+01
 Gap=     0.313 Goal=   None    Shift=    0.000
 Gap=     0.322 Goal=   None    Shift=    0.000
 RMSDP=3.45D-05 MaxDP=1.37D-03 DE=-1.48D-03 OVMax= 1.31D-03

 Cycle   7  Pass 1  IDiag  1:
 E= -75.4457041989671     Delta-E=       -0.000002348746 Rises=F Damp=F
 DIIS: error= 3.48D-05 at cycle   7 NSaved=   7.
 NSaved= 7 IEnMin= 7 EnMin= -75.4457041989671     IErMin= 7 ErrMin= 3.48D-05
 ErrMax= 3.48D-05  0.00D+00 EMaxC= 1.00D-01 BMatC= 1.14D-07 BMatP= 3.82D-06
 IDIUse=1 WtCom= 1.00D+00 WtEn= 0.00D+00
 Coeff-Com:  0.813D-03-0.131D-02-0.393D-02 0.465D-02-0.332D-01-0.124D+00
 Coeff-Com:  0.116D+01
 Coeff:      0.813D-03-0.131D-02-0.393D-02 0.465D-02-0.332D-01-0.124D+00
 Coeff:      0.116D+01
 Gap=     0.313 Goal=   None    Shift=    0.000
 Gap=     0.322 Goal=   None    Shift=    0.000
 RMSDP=8.72D-06 MaxDP=3.37D-04 DE=-2.35D-06 OVMax= 2.96D-04

 Cycle   8  Pass 1  IDiag  1:
 E= -75.4457042811533     Delta-E=       -0.000000082186 Rises=F Damp=F
 DIIS: error= 6.07D-06 at cycle   8 NSaved=   8.
 NSaved= 8 IEnMin= 8 EnMin= -75.4457042811533     IErMin= 8 ErrMin= 6.07D-06
 ErrMax= 6.07D-06  0.00D+00 EMaxC= 1.00D-01 BMatC= 4.72D-09 BMatP= 1.14D-07
 IDIUse=1 WtCom= 1.00D+00 WtEn= 0.00D+00
 Coeff-Com:  0.750D-04-0.160D-03 0.168D-02-0.659D-03 0.665D-02-0.300D-01
 Coeff-Com: -0.445D-01 0.107D+01
 Coeff:      0.750D-04-0.160D-03 0.168D-02-0.659D-03 0.665D-02-0.300D-01
 Coeff:     -0.445D-01 0.107D+01
 Gap=     0.313 Goal=   None    Shift=    0.000
 Gap=     0.322 Goal=   None    Shift=    0.000
 RMSDP=1.18D-06 MaxDP=4.54D-05 DE=-8.22D-08 OVMax= 2.48D-05

 Cycle   9  Pass 1  IDiag  1:
 E= -75.4457042829221     Delta-E=       -0.000000001769 Rises=F Damp=F
 DIIS: error= 6.19D-07 at cycle   9 NSaved=   9.
 NSaved= 9 IEnMin= 9 EnMin= -75.4457042829221     IErMin= 9 ErrMin= 6.19D-07
 ErrMax= 6.19D-07  0.00D+00 EMaxC= 1.00D-01 BMatC= 6.27D-11 BMatP= 4.72D-09
 IDIUse=1 WtCom= 1.00D+00 WtEn= 0.00D+00
 Coeff-Com: -0.328D-04 0.618D-04-0.236D-04-0.575D-04 0.195D-03 0.295D-02
 Coeff-Com: -0.117D-01-0.116D+00 0.112D+01
 Coeff:     -0.328D-04 0.618D-04-0.236D-04-0.575D-04 0.195D-03 0.295D-02
 Coeff:     -0.117D-01-0.116D+00 0.112D+01
 Gap=     0.313 Goal=   None    Shift=    0.000
 Gap=     0.322 Goal=   None    Shift=    0.000
 RMSDP=1.04D-07 MaxDP=2.59D-06 DE=-1.77D-09 OVMax= 4.24D-06

 Cycle  10  Pass 1  IDiag  1:
 E= -75.4457042829530     Delta-E=       -0.000000000031 Rises=F Damp=F
 DIIS: error= 1.10D-07 at cycle  10 NSaved=  10.
 NSaved=10 IEnMin=10 EnMin= -75.4457042829530     IErMin=10 ErrMin= 1.10D-07
 ErrMax= 1.10D-07  0.00D+00 EMaxC= 1.00D-01 BMatC= 1.32D-12 BMatP= 6.27D-11
 IDIUse=1 WtCom= 1.00D+00 WtEn= 0.00D+00
 Coeff-Com:  0.106D-05-0.181D-05-0.231D-04 0.143D-04-0.114D-03 0.192D-03
 Coeff-Com:  0.182D-02-0.148D-01-0.558D-01 0.107D+01
 Coeff:      0.106D-05-0.181D-05-0.231D-04 0.143D-04-0.114D-03 0.192D-03
 Coeff:      0.182D-02-0.148D-01-0.558D-01 0.107D+01
 Gap=     0.313 Goal=   None    Shift=    0.000
 Gap=     0.322 Goal=   None    Shift=    0.000
 RMSDP=1.64D-08 MaxDP=5.64D-07 DE=-3.10D-11 OVMax= 6.83D-07

 Cycle  11  Pass 1  IDiag  1:
 E= -75.4457042829541     Delta-E=       -0.000000000001 Rises=F Damp=F
 DIIS: error= 4.82D-08 at cycle  11 NSaved=  11.
 NSaved=11 IEnMin=11 EnMin= -75.4457042829541     IErMin=11 ErrMin= 4.82D-08
 ErrMax= 4.82D-08  0.00D+00 EMaxC= 1.00D-01 BMatC= 2.72D-13 BMatP= 1.32D-12
 IDIUse=1 WtCom= 1.00D+00 WtEn= 0.00D+00
 Coeff-Com: -0.153D-06 0.392D-06 0.561D-05-0.296D-05 0.294D-04-0.148D-03
 Coeff-Com: -0.162D-03 0.742D-02-0.171D-01-0.292D+00 0.130D+01
 Coeff:     -0.153D-06 0.392D-06 0.561D-05-0.296D-05 0.294D-04-0.148D-03
 Coeff:     -0.162D-03 0.742D-02-0.171D-01-0.292D+00 0.130D+01
 Gap=     0.313 Goal=   None    Shift=    0.000
 Gap=     0.322 Goal=   None    Shift=    0.000
 RMSDP=6.48D-09 MaxDP=2.32D-07 DE=-1.07D-12 OVMax= 2.10D-07

 SCF Done:  E(UB3LYP) =  -75.4457042830     A.U. after   11 cycles
            NFock= 11  Conv=0.65D-08     -V/T= 2.0034
 <Sx>= 0.0000 <Sy>= 0.0000 <Sz>= 1.5000 <S**2>= 3.7523 S= 1.5006
 <L.S>= 0.000000000000E+00
 KE= 7.518990945924D+01 PE=-2.034236659236D+02 EE= 3.460588347293D+01
 Annihilation of the first spin contaminant:
 S**2 before annihilation     3.7523,   after     3.7500
 Leave Link  502 at Mon Jun 20 13:25:40 2016, MaxMem=    33554432 cpu:         6.9
 (Enter /home/proyectos/fulerenos/M3C-v1.9/M3C-deps_CCC/g09-AM64L-G09RevC.01/l801.exe)
 DoSCS=F DFT=T ScalE2(SS,OS)=  1.000000  1.000000
 Range of M.O.s used for correlation:     1    88
 NBasis=    88 NAE=     7 NBE=     4 NFC=     0 NFV=     0
 NROrb=     88 NOA=     7 NOB=     4 NVA=    81 NVB=    84

 **** Warning!!: The largest alpha MO coefficient is  0.48489158D+02


 **** Warning!!: The largest beta MO coefficient is  0.51948770D+02

 Leave Link  801 at Mon Jun 20 13:25:40 2016, MaxMem=    33554432 cpu:         0.1
 (Enter /home/proyectos/fulerenos/M3C-v1.9/M3C-deps_CCC/g09-AM64L-G09RevC.01/l1101.exe)
 Using compressed storage, NAtomX=     3.
 Will process      4 centers per pass.
 Leave Link 1101 at Mon Jun 20 13:25:41 2016, MaxMem=    33554432 cpu:         0.9
 (Enter /home/proyectos/fulerenos/M3C-v1.9/M3C-deps_CCC/g09-AM64L-G09RevC.01/l1102.exe)
 Symmetrizing basis deriv contribution to polar:
 IMax=3 JMax=2 DiffMx= 0.00D+00
 Leave Link 1102 at Mon Jun 20 13:25:41 2016, MaxMem=    33554432 cpu:         0.4
 (Enter /home/proyectos/fulerenos/M3C-v1.9/M3C-deps_CCC/g09-AM64L-G09RevC.01/l1110.exe)
 Forming Gx(P) for the SCF density, NAtomX=     3.
 Integral derivatives from FoFJK, PRISM(SPDF).
 Do as many integral derivatives as possible in FoFJK.
 G2DrvN: MDV=      33554304.
 G2DrvN: will do     4 centers at a time, making    1 passes.
 Calling FoFCou, ICntrl=  3107 FMM=F I1Cent=   0 AccDes= 0.00D+00.
 FoFJK:  IHMeth= 1 ICntrl=    3107 DoSepK=F KAlg= 0 I1Cent=   0 FoldK=F
 IRaf=         0 NMat=   1 IRICut=       1 DoRegI=T DoRafI=F ISym2E= 1.
 FoFCou: FMM=F IPFlag=           0 FMFlag=      100000 FMFlg1=           0
         NFxFlg=           0 DoJE=F BraDBF=F KetDBF=F FulRan=T
         wScrn=  0.000000 ICntrl=    3107 IOpCl=  1 I1Cent=           0 NGrid=           0
         NMat0=    1 NMatS0=      1 NMatT0=    0 NMatD0=    1 NMtDS0=    0 NMtDT0=    0
 Petite list used in FoFCou.
 End of G2Drv F.D. properties file   721 does not exist.
 End of G2Drv F.D. properties file   722 does not exist.
 End of G2Drv F.D. properties file   788 does not exist.
 Leave Link 1110 at Mon Jun 20 13:25:44 2016, MaxMem=    33554432 cpu:        11.2
 (Enter /home/proyectos/fulerenos/M3C-v1.9/M3C-deps_CCC/g09-AM64L-G09RevC.01/l1002.exe)
 Minotr:  UHF open shell wavefunction.
          IDoAtm=111
          Direct CPHF calculation.
          Differentiating once with respect to electric field.
                with respect to dipole field.
          Differentiating once with respect to nuclear coordinates.
          Using symmetry in CPHF.
          Requested convergence is 1.0D-08 RMS, and 1.0D-07 maximum.
          Secondary convergence is 1.0D-12 RMS, and 1.0D-12 maximum.
          NewPWx=T KeepS1=F KeepF1=F KeepIn=T MapXYZ=F SortEE=F KeepMc=T.
          MDV=      33554222 using IRadAn=       2.
 Generate precomputed XC quadrature information.
 Keep R1 and R2 ints in memory in symmetry-blocked form, NReq=9679343.
 FoFCou: FMM=F IPFlag=           0 FMFlag=           0 FMFlg1=           0
         NFxFlg=           0 DoJE=F BraDBF=F KetDBF=F FulRan=T
         wScrn=  0.000000 ICntrl=     600 IOpCl=  0 I1Cent=           0 NGrid=           0
         NMat0=    1 NMatS0=   3916 NMatT0=    0 NMatD0=    1 NMtDS0=    0 NMtDT0=    0
 Petite list used in FoFCou.
          Solving linear equations simultaneously, MaxMat=       0.
          There are    12 degrees of freedom in the 1st order CPHF.  IDoFFX=6 NUNeed=     3.
      9 vectors produced by pass  0 Test12= 7.52D-15 8.33D-09 XBig12= 4.20D+01 4.06D+00.
 AX will form     9 AO Fock derivatives at one time.
      9 vectors produced by pass  1 Test12= 7.52D-15 8.33D-09 XBig12= 1.02D+01 1.28D+00.
      9 vectors produced by pass  2 Test12= 7.52D-15 8.33D-09 XBig12= 1.94D-01 1.63D-01.
      9 vectors produced by pass  3 Test12= 7.52D-15 8.33D-09 XBig12= 2.83D-03 2.47D-02.
      9 vectors produced by pass  4 Test12= 7.52D-15 8.33D-09 XBig12= 1.27D-05 1.13D-03.
      9 vectors produced by pass  5 Test12= 7.52D-15 8.33D-09 XBig12= 8.50D-08 5.72D-05.
      7 vectors produced by pass  6 Test12= 7.52D-15 8.33D-09 XBig12= 7.88D-10 6.92D-06.
      2 vectors produced by pass  7 Test12= 7.52D-15 8.33D-09 XBig12= 3.12D-12 4.78D-07.
      1 vectors produced by pass  8 Test12= 7.52D-15 8.33D-09 XBig12= 6.52D-15 1.72D-08.
 InvSVY:  IOpt=1 It=  1 EMax= 2.22D-16
 Solved reduced A of dimension    64 with     9 vectors.
 FullF1:  Do perturbations    1 to     3.
 Isotropic polarizability for W=    0.000000       11.40 Bohr**3.
 End of Minotr F.D. properties file   721 does not exist.
 End of Minotr F.D. properties file   722 does not exist.
 End of Minotr F.D. properties file   788 does not exist.
 Leave Link 1002 at Mon Jun 20 13:25:51 2016, MaxMem=    33554432 cpu:        26.6
 (Enter /home/proyectos/fulerenos/M3C-v1.9/M3C-deps_CCC/g09-AM64L-G09RevC.01/l601.exe)
 Copying SCF densities to generalized density rwf, IOpCl= 1 IROHF=0.

 **********************************************************************

            Population analysis using the SCF density.

 **********************************************************************

 Orbital symmetries:
 Alpha Orbitals:
       Occupied  (SG) (SG) (SG) (SG) (SG) (PI) (PI)
       Virtual   (PI) (PI) (SG) (SG) (PI) (PI) (SG) (SG) (DLTA)
                 (DLTA) (PI) (PI) (SG) (SG) (PI) (PI) (SG) (SG)
                 (DLTA) (DLTA) (PI) (PI) (PI) (PI) (SG) (SG) (SG)
                 (PI) (PI) (SG) (SG) (PI) (PI) (SG) (PI) (PI) (DLTA)
                 (DLTA) (SG) (DLTA) (DLTA) (SG) (PI) (PI) (SG)
                 (DLTA) (DLTA) (PI) (PI) (PHI) (PHI) (SG) (PI)
                 (PI) (PHI) (PHI) (SG) (PI) (PI) (DLTA) (DLTA)
                 (SG) (SG) (PI) (PI) (SG) (PI) (PI) (SG) (DLTA)
                 (DLTA) (DLTA) (DLTA) (PI) (PI) (SG) (PI) (PI)
                 (SG) (SG) (SG)
 Beta  Orbitals:
       Occupied  (SG) (SG) (SG) (SG)
       Virtual   (PI) (PI) (SG) (PI) (PI) (SG) (SG) (PI) (PI) (SG)
                 (SG) (DLTA) (DLTA) (PI) (PI) (SG) (SG) (PI) (PI)
                 (SG) (SG) (DLTA) (DLTA) (PI) (PI) (PI) (PI) (SG)
                 (SG) (SG) (PI) (PI) (SG) (SG) (PI) (PI) (SG) (PI)
                 (PI) (DLTA) (DLTA) (SG) (DLTA) (DLTA) (SG) (PI)
                 (PI) (SG) (DLTA) (DLTA) (PI) (PI) (PHI) (PHI)
                 (SG) (PI) (PI) (SG) (PHI) (PHI) (PI) (PI) (DLTA)
                 (DLTA) (SG) (SG) (PI) (PI) (SG) (PI) (PI) (SG)
                 (DLTA) (DLTA) (DLTA) (DLTA) (PI) (PI) (SG) (PI)
                 (PI) (SG) (SG) (SG)
 The electronic state is 4-SG.
 Alpha  occ. eigenvalues --  -11.10568 -11.06529  -1.55824  -1.24509  -1.11978
 Alpha  occ. eigenvalues --   -1.06520  -1.06520
 Alpha virt. eigenvalues --   -0.75236  -0.75236  -0.52340  -0.38430  -0.31546
 Alpha virt. eigenvalues --   -0.31546  -0.30560  -0.28318  -0.24835  -0.24835
 Alpha virt. eigenvalues --   -0.23362  -0.23362  -0.16662  -0.14286  -0.12478
 Alpha virt. eigenvalues --   -0.12478  -0.10178  -0.04396  -0.03287  -0.03286
 Alpha virt. eigenvalues --   -0.01019  -0.01019   0.03102   0.03102   0.03877
 Alpha virt. eigenvalues --    0.10485   0.18505   0.20878   0.20878   0.23440
 Alpha virt. eigenvalues --    0.51070   0.62793   0.62793   0.68146   0.70624
 Alpha virt. eigenvalues --    0.70624   0.75013   0.75013   0.89864   0.98797
 Alpha virt. eigenvalues --    0.98797   1.22791   1.31249   1.31249   1.73379
 Alpha virt. eigenvalues --    1.82640   1.82640   1.90683   1.90683   1.92500
 Alpha virt. eigenvalues --    1.92500   1.99774   2.06331   2.06331   2.22347
 Alpha virt. eigenvalues --    2.22347   2.24663   2.38305   2.38305   2.74015
 Alpha virt. eigenvalues --    2.74015   2.81220   3.16853   3.30463   3.30463
 Alpha virt. eigenvalues --    3.57874   4.10006   4.10006   5.13529   6.06056
 Alpha virt. eigenvalues --    6.06057   6.19455   6.19456   6.23685   6.23685
 Alpha virt. eigenvalues --    6.41193   6.62170   6.62170   7.31854  22.72057
 Alpha virt. eigenvalues --   24.70247
  Beta  occ. eigenvalues --  -11.06378 -11.04587  -1.45733  -1.20385
  Beta virt. eigenvalues --   -0.88178  -0.88178  -0.85543  -0.63296  -0.63296
  Beta virt. eigenvalues --   -0.48715  -0.37238  -0.30417  -0.30417  -0.26516
  Beta virt. eigenvalues --   -0.26149  -0.22374  -0.22373  -0.22041  -0.22041
  Beta virt. eigenvalues --   -0.16157  -0.13577  -0.10251  -0.10251  -0.07958
  Beta virt. eigenvalues --   -0.03457  -0.01690  -0.01687   0.01659   0.01659
  Beta virt. eigenvalues --    0.05718   0.05718   0.06819   0.13268   0.19694
  Beta virt. eigenvalues --    0.22407   0.22407   0.24392   0.53751   0.63916
  Beta virt. eigenvalues --    0.63916   0.72127   0.77430   0.77430   0.83230
  Beta virt. eigenvalues --    0.83230   0.91853   1.07639   1.07640   1.34232
  Beta virt. eigenvalues --    1.40067   1.40067   1.77143   1.90726   1.90726
  Beta virt. eigenvalues --    1.97056   1.97056   2.00972   2.00972   2.03269
  Beta virt. eigenvalues --    2.12708   2.12708   2.29395   2.30946   2.30946
  Beta virt. eigenvalues --    2.45878   2.45878   2.82362   2.82363   2.87230
  Beta virt. eigenvalues --    3.22222   3.34036   3.34036   3.62256   4.14634
  Beta virt. eigenvalues --    4.14634   5.15764   6.16388   6.16391   6.29340
  Beta virt. eigenvalues --    6.29342   6.32165   6.32165   6.49569   6.70464
  Beta virt. eigenvalues --    6.70464   7.38229  22.75662  24.74236
          Condensed to atoms (all electrons):
               1          2          3
     1  H    0.221104   0.301792  -0.040374
     2  C    0.301792   5.638650  -0.601745
     3  C   -0.040374  -0.601745   5.820903
          Atomic-Atomic Spin Densities.
               1          2          3
     1  H   -0.007587  -0.022321   0.025476
     2  C   -0.022321   1.407949  -0.390110
     3  C    0.025476  -0.390110   2.373547
 Mulliken charges and spin densities:
               1          2
     1  H    0.517479  -0.004431
     2  C    0.661304   0.995518
     3  C    0.821217   2.008914
 Sum of Mulliken charges =   2.00000   3.00000
 Mulliken charges and spin densities with hydrogens summed into heavy atoms:
               1          2
     2  C    1.178783   0.991086
     3  C    0.821217   2.008914
 APT charges:
               1
     1  H    0.488439
     2  C    0.626996
     3  C    0.884565
 Sum of APT charges =   2.00000
 APT charges with hydrogens summed into heavy atoms:
               1
     2  C    1.115435
     3  C    0.884565
 Electronic spatial extent (au):  <R**2>=             38.8586
 Charge=              2.0000 electrons
 Dipole moment (field-independent basis, Debye):
    X=              0.0000    Y=              0.0000    Z=             -0.8106  Tot=              0.8106
 Quadrupole moment (field-independent basis, Debye-Ang):
   XX=             -7.3143   YY=             -7.3143   ZZ=              3.1923
   XY=              0.0000   XZ=              0.0000   YZ=              0.0000
 Traceless Quadrupole moment (field-independent basis, Debye-Ang):
   XX=             -3.5022   YY=             -3.5022   ZZ=              7.0044
   XY=              0.0000   XZ=              0.0000   YZ=              0.0000
 Octapole moment (field-independent basis, Debye-Ang**2):
  XXX=              0.0000  YYY=              0.0000  ZZZ=             -7.9822  XYY=              0.0000
  XXY=              0.0000  XXZ=             -0.0510  XZZ=              0.0000  YZZ=              0.0000
  YYZ=             -0.0510  XYZ=              0.0000
 Hexadecapole moment (field-independent basis, Debye-Ang**3):
 XXXX=             -5.7208 YYYY=             -5.7208 ZZZZ=             -7.7229 XXXY=              0.0000
 XXXZ=              0.0000 YYYX=              0.0000 YYYZ=              0.0000 ZZZX=              0.0000
 ZZZY=              0.0000 XXYY=             -1.9069 XXZZ=             -5.9601 YYZZ=             -5.9601
 XXYZ=              0.0000 YYXZ=              0.0000 ZZXY=              0.0000
 N-N= 1.818216870846D+01 E-N=-2.034236658926D+02  KE= 7.518990945924D+01
 Symmetry A1   KE= 7.237256077856D+01
 Symmetry A2   KE=-4.442521155674D-52
 Symmetry B1   KE= 1.408674340342D+00
 Symmetry B2   KE= 1.408674340342D+00
  Exact polarizability:   8.221   0.000   8.221  -0.000  -0.000  17.751
 Approx polarizability:  10.676  -0.000  10.676  -0.000  -0.000  31.142
                          Isotropic Fermi Contact Couplings
        Atom                 a.u.       MegaHertz       Gauss      10(-4) cm-1
     1  H(1)              -0.00956     -14.24038      -5.08132      -4.75008
     2  C(13)              0.19161      71.80055      25.62022      23.95009
     3  C(13)              1.54519     579.02803     206.61159     193.14296
 --------------------------------------------------------
       Center         ----  Spin Dipole Couplings  ----
                      3XX-RR        3YY-RR        3ZZ-RR
 --------------------------------------------------------
     1   Atom       -0.058781     -0.058781      0.117561
     2   Atom        0.204196      0.204196     -0.408391
     3   Atom       -0.034061     -0.034061      0.068121
 --------------------------------------------------------
                        XY            XZ            YZ
 --------------------------------------------------------
     1   Atom        0.000000      0.000000      0.000000
     2   Atom        0.000000      0.000000      0.000000
     3   Atom        0.000000      0.000000      0.000000
 --------------------------------------------------------


 ---------------------------------------------------------------------------------
              Anisotropic Spin Dipole Couplings in Principal Axis System
 ---------------------------------------------------------------------------------

       Atom             a.u.   MegaHertz   Gauss  10(-4) cm-1        Axes

              Baa    -0.0588   -31.362   -11.191   -10.461  1.0000  0.0000  0.0000
     1 H(1)   Bbb    -0.0588   -31.362   -11.191   -10.461 -0.0000  1.0000  0.0000
              Bcc     0.1176    62.725    22.382    20.923  0.0000  0.0000  1.0000
 
              Baa    -0.4084   -54.802   -19.555   -18.280  0.0000  0.0000  1.0000
     2 C(13)  Bbb     0.2042    27.401     9.777     9.140  1.0000  0.0000  0.0000
              Bcc     0.2042    27.401     9.777     9.140 -0.0000  1.0000  0.0000
 
              Baa    -0.0341    -4.571    -1.631    -1.525 -0.0000  1.0000  0.0000
     3 C(13)  Bbb    -0.0341    -4.571    -1.631    -1.525  1.0000  0.0000  0.0000
              Bcc     0.0681     9.141     3.262     3.049  0.0000  0.0000  1.0000
 

 ---------------------------------------------------------------------------------

 No NMR shielding tensors so no spin-rotation constants.
 Leave Link  601 at Mon Jun 20 13:25:51 2016, MaxMem=    33554432 cpu:         1.5
 (Enter /home/proyectos/fulerenos/M3C-v1.9/M3C-deps_CCC/g09-AM64L-G09RevC.01/l701.exe)
 Compute integral second derivatives.
 ... and contract with generalized density number  0.
 Leave Link  701 at Mon Jun 20 13:25:52 2016, MaxMem=    33554432 cpu:         1.4
 (Enter /home/proyectos/fulerenos/M3C-v1.9/M3C-deps_CCC/g09-AM64L-G09RevC.01/l702.exe)
 L702 exits ... SP integral derivatives will be done elsewhere.
 Leave Link  702 at Mon Jun 20 13:25:52 2016, MaxMem=    33554432 cpu:         0.1
 (Enter /home/proyectos/fulerenos/M3C-v1.9/M3C-deps_CCC/g09-AM64L-G09RevC.01/l703.exe)
 Compute integral second derivatives, UseDBF=F ICtDFT=           0.
 Integral derivatives from FoFJK, PRISM(SPDF).
 Calling FoFJK, ICntrl=    100127 FMM=F ISym2X=1 I1Cent= 0 IOpClX= 1 NMat=1 NMatS=1 NMatT=0.
 FoFJK:  IHMeth= 1 ICntrl=  100127 DoSepK=F KAlg= 0 I1Cent=   0 FoldK=F
 IRaf=         0 NMat=   1 IRICut=       1 DoRegI=T DoRafI=F ISym2E= 1.
 FoFCou: FMM=F IPFlag=           0 FMFlag=      100000 FMFlg1=         800
         NFxFlg=           0 DoJE=F BraDBF=F KetDBF=F FulRan=T
         wScrn=  0.000000 ICntrl=  100127 IOpCl=  1 I1Cent=           0 NGrid=           0
         NMat0=    1 NMatS0=      1 NMatT0=    0 NMatD0=    1 NMtDS0=    0 NMtDT0=    0
 Petite list used in FoFCou.
 Leave Link  703 at Mon Jun 20 13:25:56 2016, MaxMem=    33554432 cpu:        16.4
 (Enter /home/proyectos/fulerenos/M3C-v1.9/M3C-deps_CCC/g09-AM64L-G09RevC.01/l716.exe)
 Dipole        = 0.00000000D+00 0.00000000D+00-3.18915675D-01
 Polarizability= 8.22130522D+00 6.16958773D-11 8.22130522D+00
                -8.99183331D-09-3.18092632D-09 1.77512938D+01
 Full mass-weighted force constant matrix:
 Low frequencies ---   -7.3010   -7.3008    0.0002    0.0009    0.0009  695.4368
 Low frequencies ---  695.4368 1531.5408 2702.9639
 Diagonal vibrational polarizability:
        2.1349837       2.1349838       2.6417993
 Harmonic frequencies (cm**-1), IR intensities (KM/Mole), Raman scattering
 activities (A**4/AMU), depolarization ratios for plane and unpolarized
 incident light, reduced masses (AMU), force constants (mDyne/A),
 and normal coordinates:
                      1                      2                      3
                     PI                     PI                     SG
 Frequencies --    695.4368               695.4368              1531.5408
 Red. masses --      1.3189                 1.3189                 5.7590
 Frc consts  --      0.3758                 0.3758                 7.9589
 IR Inten    --     38.3687                38.3687                24.6124
  Atom  AN      X      Y      Z        X      Y      Z        X      Y      Z
     1   1    -0.00   0.99  -0.00     0.99   0.00   0.00     0.00  -0.00  -0.75
     2   6     0.00  -0.15  -0.00    -0.15  -0.00   0.00    -0.00   0.00  -0.43
     3   6    -0.00   0.07   0.00     0.07   0.00  -0.00     0.00  -0.00   0.50
                      4
                     SG
 Frequencies --   2702.9639
 Red. masses --      1.1557
 Frc consts  --      4.9747
 IR Inten    --    640.5498
  Atom  AN      X      Y      Z
     1   1    -0.00  -0.00   0.99
     2   6     0.00   0.00  -0.11
     3   6    -0.00  -0.00   0.03

 -------------------
 - Thermochemistry -
 -------------------
 Temperature   298.150 Kelvin.  Pressure   1.00000 Atm.
 Atom     1 has atomic number  1 and mass   1.00783
 Atom     2 has atomic number  6 and mass  12.00000
 Atom     3 has atomic number  6 and mass  12.00000
 Molecular mass:    25.00783 amu.
 Principal axes and moments of inertia in atomic units:
                           1         2         3
     Eigenvalues --     0.00000  50.35617  50.35617
           X            0.00000  -0.00000   1.00000
           Y            0.00000   1.00000   0.00000
           Z            1.00000   0.00000   0.00000
 This molecule is a prolate symmetric top.
 Rotational symmetry number  1.
 Rotational temperature (Kelvin)      1.72002
 Rotational constant (GHZ):          35.839528
 Zero-point vibrational energy      33647.2 (Joules/Mol)
                                    8.04188 (Kcal/Mol)
 Vibrational temperatures:   1000.58  1000.58  2203.54  3888.96
          (Kelvin)
 
 Zero-point correction=                           0.012816 (Hartree/Particle)
 Thermal correction to Energy=                    0.015409
 Thermal correction to Enthalpy=                  0.016354
 Thermal correction to Gibbs Free Energy=        -0.007976
 Sum of electronic and zero-point Energies=            -75.432889
 Sum of electronic and thermal Energies=               -75.430295
 Sum of electronic and thermal Enthalpies=             -75.429351
 Sum of electronic and thermal Free Energies=          -75.453681
 
                     E (Thermal)             CV                S
                      KCal/Mol        Cal/Mol-Kelvin    Cal/Mol-Kelvin
 Total                    9.670              6.712             51.207
 Electronic               0.000              0.000              2.755
 Translational            0.889              2.981             35.587
 Rotational               0.592              1.987             12.232
 Vibrational              8.188              1.744              0.633
                       Q            Log10(Q)             Ln(Q)
 Total Bot       0.466551D+04          3.668899          8.447952
 Total V=0       0.366127D+10          9.563632         22.021077
 Vib (Bot)       0.136889D-05         -5.863631        -13.501508
 Vib (V=0)       0.107424D+01          0.031103          0.071617
 Electronic      0.400000D+01          0.602060          1.386294
 Translational   0.491552D+07          6.691569         15.407907
 Rotational      0.173341D+03          2.238900          5.155258
 
                                                              b3lyp opt
                                                             IR Spectrum
 
     2                                                       1                                                                       
     7                                                       5                                      6                                
     0                                                       3                                      9                                
     3                                                       2                                      5                                
 
     X                                                       X                                      X                                
     X                                                                                              X                                
     X                                                                                                                               
     X                                                                                                                               
     X                                                                                                                               
     X                                                                                                                               
     X                                                                                                                               
     X                                                                                                                               
     X                                                                                                                               
     X                                                                                                                               
     X                                                                                                                               
     X                                                                                                                               
     X                                                                                                                               
     X                                                                                                                               
     X                                                                                                                               
     X                                                                                                                               
     X                                                                                                                               
     X                                                                                                                               
     X                                                                                                                               
     X                                                                                                                               
 
 ***** Axes restored to original set *****
 -------------------------------------------------------------------
 Center     Atomic                   Forces (Hartrees/Bohr)
 Number     Number              X              Y              Z
 -------------------------------------------------------------------
      1        1          -0.000000000   -0.000000000   -0.000001292
      2        6          -0.000000000   -0.000000000   -0.000000222
      3        6          -0.000000000   -0.000000000    0.000001514
 -------------------------------------------------------------------
 Cartesian Forces:  Max     0.000001514 RMS     0.000000668
 Z-matrix is all fixed cartesians, so copy forces.
 Force constants in Cartesian coordinates: 
                1             2             3             4             5 
      1  0.136959D-01
      2  0.000000D+00  0.136959D-01
      3  0.000000D+00  0.000000D+00  0.248622D+00
      4 -0.252987D-01  0.000000D+00  0.000000D+00  0.467154D-01
      5  0.000000D+00 -0.252987D-01  0.000000D+00  0.000000D+00  0.467154D-01
      6  0.000000D+00  0.000000D+00 -0.262078D+00  0.000000D+00  0.000000D+00
      7  0.116028D-01  0.000000D+00  0.000000D+00 -0.214168D-01  0.000000D+00
      8  0.000000D+00  0.116028D-01  0.000000D+00  0.000000D+00 -0.214168D-01
      9  0.000000D+00  0.000000D+00  0.134569D-01  0.000000D+00  0.000000D+00
                6             7             8             9 
      6  0.849130D+00
      7  0.000000D+00  0.981396D-02
      8  0.000000D+00  0.000000D+00  0.981396D-02
      9 -0.587052D+00  0.000000D+00  0.000000D+00  0.573595D+00
 Leave Link  716 at Mon Jun 20 13:25:56 2016, MaxMem=    33554432 cpu:         0.1
 (Enter /home/proyectos/fulerenos/M3C-v1.9/M3C-deps_CCC/g09-AM64L-G09RevC.01/l103.exe)

 GradGradGradGradGradGradGradGradGradGradGradGradGradGradGradGradGradGrad
 Berny optimization.
 Search for a local minimum.
 Step number   1 out of a maximum of    2
 All quantities printed in internal units (Hartrees-Bohrs-Radians)
 Second derivative matrix not updated -- analytic derivatives used.
 The second derivative matrix:
                          X1        Y1        Z1        X2        Y2
           X1           0.01370
           Y1          -0.00000   0.01370
           Z1           0.00000  -0.00000   0.24862
           X2          -0.02530  -0.00000  -0.00000   0.04672
           Y2          -0.00000  -0.02530  -0.00000   0.00000   0.04672
           Z2           0.00000   0.00000  -0.26208   0.00000   0.00000
           X3           0.01160   0.00000   0.00000  -0.02142  -0.00000
           Y3           0.00000   0.01160   0.00000  -0.00000  -0.02142
           Z3          -0.00000  -0.00000   0.01346  -0.00000  -0.00000
                          Z2        X3        Y3        Z3
           Z2           0.84913
           X3          -0.00000   0.00981
           Y3          -0.00000  -0.00000   0.00981
           Z3          -0.58705   0.00000   0.00000   0.57359
 ITU=  0
     Eigenvalues ---    0.05851   0.05851   0.28273   1.34843
 Angle between quadratic step and forces=  25.48 degrees.
 ClnCor:  largest displacement from symmetrization is 4.14D-15 for atom     1.
 Linear search not attempted -- first point.
 ClnCor:  largest displacement from symmetrization is 0.00D+00 for atom     0.
 B after Tr=     0.000000    0.000000    0.000001
         Rot=    1.000000    0.000000    0.000000    0.000000 Ang=   0.00 deg.
 Variable       Old X    -DE/DX   Delta X   Delta X   Delta X     New X
                                 (Linear)    (Quad)   (Total)
    X1        0.00000  -0.00000   0.00000   0.00000   0.00000   0.00000
    Y1        0.00000  -0.00000   0.00000   0.00000   0.00000   0.00000
    Z1        3.16848  -0.00000   0.00000  -0.00001  -0.00000   3.16847
    X2        0.00000  -0.00000   0.00000   0.00000   0.00000   0.00000
    Y2        0.00000  -0.00000   0.00000   0.00000   0.00000   0.00000
    Z2        1.01007  -0.00000   0.00000  -0.00000   0.00000   1.01007
    X3        0.00000  -0.00000   0.00000   0.00000   0.00000   0.00000
    Y3        0.00000  -0.00000   0.00000   0.00000   0.00000   0.00000
    Z3       -1.53815   0.00000   0.00000   0.00000   0.00000  -1.53814
         Item               Value     Threshold  Converged?
 Maximum Force            0.000002     0.000450     YES
 RMS     Force            0.000001     0.000300     YES
 Maximum Displacement     0.000004     0.001800     YES
 RMS     Displacement     0.000002     0.001200     YES
 Predicted change in Energy=-5.549727D-12
 Optimization completed.
    -- Stationary point found.
 GradGradGradGradGradGradGradGradGradGradGradGradGradGradGradGradGradGrad

 Leave Link  103 at Mon Jun 20 13:25:56 2016, MaxMem=    33554432 cpu:         0.1
 (Enter /home/proyectos/fulerenos/M3C-v1.9/M3C-deps_CCC/g09-AM64L-G09RevC.01/l9999.exe)
 1\1\GINC-BELVIS17\Freq\UB3LYP\6-311++G(3df,2p)\C2H1(2+,4)\ROOT\20-Jun-
 2016\0\\#p b3lyp/6-311++G(3df,2p) freq symmetry=Loose\\b3lyp opt\\2,4\
 H,0.,0.,1.676687\C,0.,0.,0.534504\C,0.,0.,-0.813952\\Version=EM64L-G09
 RevE.01\State=4-SG\HF=-75.4457043\S2=3.752261\S2-1=0.\S2A=3.750001\RMS
 D=6.477e-09\RMSF=6.678e-07\ZeroPoint=0.0128156\Thermal=0.0154094\Dipol
 e=0.,0.,0.3189157\DipoleDeriv=0.2898211,0.,0.,0.,0.2898211,0.,0.,0.,0.
 8856754,0.7970947,0.,0.,0.,0.7970947,0.,0.,0.,0.2867987,0.9130842,0.,0
 .,0.,0.9130842,0.,0.,0.,0.827526\Polar=8.2213052,0.,8.2213052,0.,0.,17
 .7512938\PG=C*V [C*(H1C1C1)]\NImag=0\\0.01369589,0.,0.01369588,0.,0.,0
 .24862158,-0.02529869,0.,0.,0.04671545,0.,-0.02529869,0.,0.,0.04671545
 ,0.,0.,-0.26207844,0.,0.,0.84913017,0.01160280,0.,0.,-0.02141676,0.,0.
 ,0.00981396,0.,0.01160280,0.,0.,-0.02141676,0.,0.,0.00981396,0.,0.,0.0
 1345685,0.,0.,-0.58705173,0.,0.,0.57359488\\0.,0.,0.00000129,0.,0.,0.0
 0000022,0.,0.,-0.00000151\\\@


 You never know when you're making a memory.
                        -- Rickie Lee Jones
 Job cpu time:       0 days  0 hours  1 minutes  9.5 seconds.
 File lengths (MBytes):  RWF=      7 Int=      0 D2E=      0 Chk=      2 Scr=      1
 Normal termination of Gaussian 09 at Mon Jun 20 13:25:56 2016.
