 Entering Gaussian System, Link 0=/home/proyectos/fulerenos/M3C-v1.9/M3C-deps_CCC/g09-AM64L-G09RevC.01/g09
 Initial command:
 /home/proyectos/fulerenos/M3C-v1.9/M3C-deps_CCC/g09-AM64L-G09RevC.01/l1.exe "/scratch/naguirre/gaussian/Gau-18035.inp" -scrdir="/scratch/naguirre/gaussian/"
 Entering Link 1 = /home/proyectos/fulerenos/M3C-v1.9/M3C-deps_CCC/g09-AM64L-G09RevC.01/l1.exe PID=     18043.
  
 Copyright (c) 1988,1990,1992,1993,1995,1998,2003,2009,2015,
            Gaussian, Inc.  All Rights Reserved.
  
 This is part of the Gaussian(R) 09 program.  It is based on
 the Gaussian(R) 03 system (copyright 2003, Gaussian, Inc.),
 the Gaussian(R) 98 system (copyright 1998, Gaussian, Inc.),
 the Gaussian(R) 94 system (copyright 1995, Gaussian, Inc.),
 the Gaussian 92(TM) system (copyright 1992, Gaussian, Inc.),
 the Gaussian 90(TM) system (copyright 1990, Gaussian, Inc.),
 the Gaussian 88(TM) system (copyright 1988, Gaussian, Inc.),
 the Gaussian 86(TM) system (copyright 1986, Carnegie Mellon
 University), and the Gaussian 82(TM) system (copyright 1983,
 Carnegie Mellon University). Gaussian is a federally registered
 trademark of Gaussian, Inc.
  
 This software contains proprietary and confidential information,
 including trade secrets, belonging to Gaussian, Inc.
  
 This software is provided under written license and may be
 used, copied, transmitted, or stored only in accord with that
 written license.
  
 The following legend is applicable only to US Government
 contracts under FAR:
  
                    RESTRICTED RIGHTS LEGEND
  
 Use, reproduction and disclosure by the US Government is
 subject to restrictions as set forth in subparagraphs (a)
 and (c) of the Commercial Computer Software - Restricted
 Rights clause in FAR 52.227-19.
  
 Gaussian, Inc.
 340 Quinnipiac St., Bldg. 40, Wallingford CT 06492
  
  
 ---------------------------------------------------------------
 Warning -- This program may not be used in any manner that
 competes with the business of Gaussian, Inc. or will provide
 assistance to any competitor of Gaussian, Inc.  The licensee
 of this program is prohibited from giving any competitor of
 Gaussian, Inc. access to this program.  By using this program,
 the user acknowledges that Gaussian, Inc. is engaged in the
 business of creating and licensing software in the field of
 computational chemistry and represents and warrants to the
 licensee that it is not a competitor of Gaussian, Inc. and that
 it will not use this program in any manner prohibited above.
 ---------------------------------------------------------------
  

 Cite this work as:
 Gaussian 09, Revision E.01,
 M. J. Frisch, G. W. Trucks, H. B. Schlegel, G. E. Scuseria, 
 M. A. Robb, J. R. Cheeseman, G. Scalmani, V. Barone, B. Mennucci, 
 G. A. Petersson, H. Nakatsuji, M. Caricato, X. Li, H. P. Hratchian, 
 A. F. Izmaylov, J. Bloino, G. Zheng, J. L. Sonnenberg, M. Hada, 
 M. Ehara, K. Toyota, R. Fukuda, J. Hasegawa, M. Ishida, T. Nakajima, 
 Y. Honda, O. Kitao, H. Nakai, T. Vreven, J. A. Montgomery, Jr., 
 J. E. Peralta, F. Ogliaro, M. Bearpark, J. J. Heyd, E. Brothers, 
 K. N. Kudin, V. N. Staroverov, T. Keith, R. Kobayashi, J. Normand, 
 K. Raghavachari, A. Rendell, J. C. Burant, S. S. Iyengar, J. Tomasi, 
 M. Cossi, N. Rega, J. M. Millam, M. Klene, J. E. Knox, J. B. Cross, 
 V. Bakken, C. Adamo, J. Jaramillo, R. Gomperts, R. E. Stratmann, 
 O. Yazyev, A. J. Austin, R. Cammi, C. Pomelli, J. W. Ochterski, 
 R. L. Martin, K. Morokuma, V. G. Zakrzewski, G. A. Voth, 
 P. Salvador, J. J. Dannenberg, S. Dapprich, A. D. Daniels, 
 O. Farkas, J. B. Foresman, J. V. Ortiz, J. Cioslowski, 
 and D. J. Fox, Gaussian, Inc., Wallingford CT, 2013.
 
 ******************************************
 Gaussian 09:  EM64L-G09RevE.01 30-Nov-2015
                19-Jun-2016 
 ******************************************
 %NProcShared=4
 Will use up to    4 processors via shared memory.
 ---------------------------------------------
 #p b3lyp/6-311++G(3df,2p) freq symmetry=Loose
 ---------------------------------------------
 1/10=4,30=1,38=1/1,3;
 2/12=2,17=4,18=3,40=1/2;
 3/5=4,6=6,7=1216,11=2,16=1,25=1,30=1,71=2,74=-5,140=1/1,2,3;
 4//1;
 5/5=2,38=5,98=1/2;
 8/6=4,10=90,11=11/1;
 11/6=1,8=1,9=11,15=111,16=1/1,2,10;
 10/6=1/2;
 6/7=2,8=2,9=2,10=2,18=1,28=1/1;
 7/8=1,10=1,25=1/1,2,3,16;
 1/10=4,30=1/3;
 99//99;
 Leave Link    1 at Sun Jun 19 04:43:43 2016, MaxMem=           0 cpu:         0.3
 (Enter /home/proyectos/fulerenos/M3C-v1.9/M3C-deps_CCC/g09-AM64L-G09RevC.01/l101.exe)
 ---------
 b3lyp opt
 ---------
 Symbolic Z-matrix:
 Charge =  1 Multiplicity = 3
 H                    -0.00021   1.57637   0. 
 C                     0.00002   0.49293   0. 
 C                     0.00002  -0.75566   0. 
 
 NAtoms=      3 NQM=        3 NQMF=       0 NMMI=      0 NMMIF=      0
                NMic=       0 NMicF=      0.
                    Isotopes and Nuclear Properties:
 (Nuclear quadrupole moments (NQMom) in fm**2, nuclear magnetic moments (NMagM)
  in nuclear magnetons)

  Atom         1           2           3
 IAtWgt=           1          12          12
 AtmWgt=   1.0078250  12.0000000  12.0000000
 NucSpn=           1           0           0
 AtZEff=   0.0000000   0.0000000   0.0000000
 NQMom=    0.0000000   0.0000000   0.0000000
 NMagM=    2.7928460   0.0000000   0.0000000
 AtZNuc=   1.0000000   6.0000000   6.0000000
 Leave Link  101 at Sun Jun 19 04:43:43 2016, MaxMem=    33554432 cpu:         0.2
 (Enter /home/proyectos/fulerenos/M3C-v1.9/M3C-deps_CCC/g09-AM64L-G09RevC.01/l103.exe)

 GradGradGradGradGradGradGradGradGradGradGradGradGradGradGradGradGradGrad
 Berny optimization.
 Initialization pass.
 Trust Radius=3.00D-01 FncErr=1.00D-07 GrdErr=1.00D-07
 Number of steps in this run=      2 maximum allowed number of steps=      2.
 GradGradGradGradGradGradGradGradGradGradGradGradGradGradGradGradGradGrad

 Leave Link  103 at Sun Jun 19 04:43:43 2016, MaxMem=    33554432 cpu:         0.1
 (Enter /home/proyectos/fulerenos/M3C-v1.9/M3C-deps_CCC/g09-AM64L-G09RevC.01/l202.exe)
                          Input orientation:                          
 ---------------------------------------------------------------------
 Center     Atomic      Atomic             Coordinates (Angstroms)
 Number     Number       Type             X           Y           Z
 ---------------------------------------------------------------------
      1          1           0       -0.000209    1.576368    0.000000
      2          6           0        0.000017    0.492927    0.000000
      3          6           0        0.000017   -0.755655    0.000000
 ---------------------------------------------------------------------
                    Distance matrix (angstroms):
                    1          2          3
     1  H    0.000000
     2  C    1.083441   0.000000
     3  C    2.332023   1.248582   0.000000
 Stoichiometry    C2H(1+,3)
 Framework group  C*V[C*(HCC)]
 Deg. of freedom     2
 Full point group                 C*V     NOp   4
 Largest Abelian subgroup         C2V     NOp   4
 Largest concise Abelian subgroup C1      NOp   1
                         Standard orientation:                         
 ---------------------------------------------------------------------
 Center     Atomic      Atomic             Coordinates (Angstroms)
 Number     Number       Type             X           Y           Z
 ---------------------------------------------------------------------
      1          1           0        0.000000   -0.000000   -1.576368
      2          6           0        0.000000   -0.000000   -0.492927
      3          6           0        0.000000    0.000000    0.755655
 ---------------------------------------------------------------------
 Rotational constants (GHZ):      0.0000000     41.5114051     41.5114051
 Leave Link  202 at Sun Jun 19 04:43:43 2016, MaxMem=    33554432 cpu:         0.0
 (Enter /home/proyectos/fulerenos/M3C-v1.9/M3C-deps_CCC/g09-AM64L-G09RevC.01/l301.exe)
 Standard basis: 6-311++G(3df,2p) (5D, 7F)
 Ernie: Thresh=  0.10000D-02 Tol=  0.10000D-05 Strict=F.
 There are    48 symmetry adapted cartesian basis functions of A1  symmetry.
 There are     8 symmetry adapted cartesian basis functions of A2  symmetry.
 There are    22 symmetry adapted cartesian basis functions of B1  symmetry.
 There are    22 symmetry adapted cartesian basis functions of B2  symmetry.
 There are    40 symmetry adapted basis functions of A1  symmetry.
 There are     8 symmetry adapted basis functions of A2  symmetry.
 There are    20 symmetry adapted basis functions of B1  symmetry.
 There are    20 symmetry adapted basis functions of B2  symmetry.
    88 basis functions,   128 primitive gaussians,   100 cartesian basis functions
     7 alpha electrons        5 beta electrons
       nuclear repulsion energy        19.5496541721 Hartrees.
 IExCor=  402 DFT=T Ex+Corr=B3LYP ExCW=0 ScaHFX=  0.200000
 ScaDFX=  0.800000  0.720000  1.000000  0.810000 ScalE2=  1.000000  1.000000
 IRadAn=      0 IRanWt=     -1 IRanGd=            0 ICorTp=0 IEmpDi=  4
 NAtoms=    3 NActive=    3 NUniq=    3 SFac= 1.00D+00 NAtFMM=   60 NAOKFM=F Big=F
 Integral buffers will be    131072 words long.
 Raffenetti 2 integral format.
 Two-electron integral symmetry is turned on.
 Leave Link  301 at Sun Jun 19 04:43:43 2016, MaxMem=    33554432 cpu:         0.2
 (Enter /home/proyectos/fulerenos/M3C-v1.9/M3C-deps_CCC/g09-AM64L-G09RevC.01/l302.exe)
 NPDir=0 NMtPBC=     1 NCelOv=     1 NCel=       1 NClECP=     1 NCelD=      1
         NCelK=      1 NCelE2=     1 NClLst=     1 CellRange=     0.0.
 One-electron integrals computed using PRISM.
 NBasis=    88 RedAO= T EigKep=  5.98D-05  NBF=    40     8    20    20
 NBsUse=    88 1.00D-06 EigRej= -1.00D+00 NBFU=    40     8    20    20
 Precomputing XC quadrature grid using
 IXCGrd= 4 IRadAn=           0 IRanWt=          -1 IRanGd=           0 AccXCQ= 0.00D+00.
 Generated NRdTot=       0 NPtTot=           0 NUsed=           0 NTot=          32
 NSgBfM=   100   100   100   100   100 MxSgAt=     3 MxSgA2=     3.
 Leave Link  302 at Sun Jun 19 04:43:44 2016, MaxMem=    33554432 cpu:         0.8
 (Enter /home/proyectos/fulerenos/M3C-v1.9/M3C-deps_CCC/g09-AM64L-G09RevC.01/l303.exe)
 DipDrv:  MaxL=1.
 Leave Link  303 at Sun Jun 19 04:43:44 2016, MaxMem=    33554432 cpu:         0.1
 (Enter /home/proyectos/fulerenos/M3C-v1.9/M3C-deps_CCC/g09-AM64L-G09RevC.01/l401.exe)
 ExpMin= 3.60D-02 ExpMax= 4.56D+03 ExpMxC= 6.82D+02 IAcc=3 IRadAn=         5 AccDes= 0.00D+00
 Harris functional with IExCor=  402 and IRadAn=       5 diagonalized for initial guess.
 HarFok:  IExCor=  402 AccDes= 0.00D+00 IRadAn=         5 IDoV= 1 UseB2=F ITyADJ=14
 ICtDFT=  3500011 ScaDFX=  1.000000  1.000000  1.000000  1.000000
 FoFCou: FMM=F IPFlag=           0 FMFlag=      100000 FMFlg1=           0
         NFxFlg=           0 DoJE=T BraDBF=F KetDBF=T FulRan=T
         wScrn=  0.000000 ICntrl=     500 IOpCl=  0 I1Cent=   200000004 NGrid=           0
         NMat0=    1 NMatS0=      1 NMatT0=    0 NMatD0=    1 NMtDS0=    0 NMtDT0=    0
 Petite list used in FoFCou.
 Harris En= -76.2764276269618    
 JPrj=0 DoOrth=F DoCkMO=F.
 Initial guess orbital symmetries:
 Alpha Orbitals:
       Occupied  (SG) (SG) (SG) (SG) (PI) (PI) (SG)
       Virtual   (PI) (PI) (SG) (SG) (PI) (PI) (SG) (SG) (PI) (PI)
                 (SG) (SG) (DLTA) (DLTA) (SG) (PI) (PI) (SG) (SG)
                 (DLTA) (DLTA) (PI) (PI) (PI) (PI) (SG) (PI) (PI)
                 (SG) (SG) (SG) (PI) (PI) (SG) (DLTA) (DLTA) (PI)
                 (PI) (SG) (DLTA) (DLTA) (SG) (PI) (PI) (SG) (PI)
                 (PI) (DLTA) (DLTA) (PHI) (PHI) (SG) (PI) (PI)
                 (SG) (PHI) (PHI) (PI) (PI) (DLTA) (DLTA) (SG)
                 (SG) (PI) (PI) (SG) (PI) (PI) (SG) (DLTA) (DLTA)
                 (DLTA) (DLTA) (PI) (PI) (PI) (PI) (SG) (SG) (SG)
                 (SG)
 Beta  Orbitals:
       Occupied  (SG) (SG) (SG) (SG) (PI)
       Virtual   (PI) (SG) (PI) (PI) (SG) (SG) (PI) (PI) (SG) (SG)
                 (PI) (PI) (SG) (SG) (DLTA) (DLTA) (SG) (PI) (PI)
                 (SG) (SG) (DLTA) (DLTA) (PI) (PI) (PI) (PI) (SG)
                 (PI) (PI) (SG) (SG) (SG) (PI) (PI) (SG) (DLTA)
                 (DLTA) (PI) (PI) (SG) (DLTA) (DLTA) (SG) (PI)
                 (PI) (SG) (PI) (PI) (DLTA) (DLTA) (PHI) (PHI)
                 (SG) (PI) (PI) (SG) (PHI) (PHI) (PI) (PI) (DLTA)
                 (DLTA) (SG) (SG) (PI) (PI) (SG) (PI) (PI) (SG)
                 (DLTA) (DLTA) (DLTA) (DLTA) (PI) (PI) (PI) (PI)
                 (SG) (SG) (SG) (SG)
 Initial guess <Sx>= 0.0000 <Sy>= 0.0000 <Sz>= 1.0000 <S**2>= 2.0000 S= 1.0000
 Leave Link  401 at Sun Jun 19 04:43:44 2016, MaxMem=    33554432 cpu:         1.0
 (Enter /home/proyectos/fulerenos/M3C-v1.9/M3C-deps_CCC/g09-AM64L-G09RevC.01/l502.exe)
 UHF open shell SCF:
 Using DIIS extrapolation, IDIIS=  1040.
 Integral symmetry usage will be decided dynamically.
 Keep R1 and R2 ints in memory in symmetry-blocked form, NReq=9727284.
 IVT=       49952 IEndB=       49952 NGot=    33554432 MDV=    29499877
 LenX=    29499877 LenY=    29489436
 Requested convergence on RMS density matrix=1.00D-08 within 128 cycles.
 Requested convergence on MAX density matrix=1.00D-06.
 Requested convergence on             energy=1.00D-06.
 No special actions if energy rises.
 FoFCou: FMM=F IPFlag=           0 FMFlag=           0 FMFlg1=           0
         NFxFlg=           0 DoJE=F BraDBF=F KetDBF=F FulRan=T
         wScrn=  0.000000 ICntrl=     600 IOpCl=  0 I1Cent=           0 NGrid=           0
         NMat0=    1 NMatS0=   3916 NMatT0=    0 NMatD0=    1 NMtDS0=    0 NMtDT0=    0
 Petite list used in FoFCou.

 Cycle   1  Pass 1  IDiag  1:
 E= -76.1790059694824    
 DIIS: error= 2.17D-02 at cycle   1 NSaved=   1.
 NSaved= 1 IEnMin= 1 EnMin= -76.1790059694824     IErMin= 1 ErrMin= 2.17D-02
 ErrMax= 2.17D-02  0.00D+00 EMaxC= 1.00D-01 BMatC= 1.13D-01 BMatP= 1.13D-01
 IDIUse=3 WtCom= 7.83D-01 WtEn= 2.17D-01
 Coeff-Com:  0.100D+01
 Coeff-En:   0.100D+01
 Coeff:      0.100D+01
 Gap=     0.302 Goal=   None    Shift=    0.000
 Gap=     0.053 Goal=   None    Shift=    0.000
 GapD=    0.053 DampG=0.500 DampE=0.500 DampFc=0.2500 IDamp=-1.
 Damping current iteration by 2.50D-01
 RMSDP=7.30D-03 MaxDP=2.96D-01              OVMax= 2.13D-01

 Cycle   2  Pass 1  IDiag  1:
 E= -76.1890379830407     Delta-E=       -0.010032013558 Rises=F Damp=T
 DIIS: error= 1.13D-02 at cycle   2 NSaved=   2.
 NSaved= 2 IEnMin= 2 EnMin= -76.1890379830407     IErMin= 2 ErrMin= 1.13D-02
 ErrMax= 1.13D-02  0.00D+00 EMaxC= 1.00D-01 BMatC= 3.14D-02 BMatP= 1.13D-01
 IDIUse=3 WtCom= 8.87D-01 WtEn= 1.13D-01
 Coeff-Com: -0.494D+00 0.149D+01
 Coeff-En:   0.000D+00 0.100D+01
 Coeff:     -0.438D+00 0.144D+01
 Gap=     0.297 Goal=   None    Shift=    0.000
 Gap=     0.105 Goal=   None    Shift=    0.000
 RMSDP=4.35D-03 MaxDP=1.63D-01 DE=-1.00D-02 OVMax= 1.53D-01

 Cycle   3  Pass 1  IDiag  1:
 E= -76.2101772789143     Delta-E=       -0.021139295874 Rises=F Damp=F
 DIIS: error= 5.38D-03 at cycle   3 NSaved=   3.
 NSaved= 3 IEnMin= 3 EnMin= -76.2101772789143     IErMin= 3 ErrMin= 5.38D-03
 ErrMax= 5.38D-03  0.00D+00 EMaxC= 1.00D-01 BMatC= 4.79D-03 BMatP= 3.14D-02
 IDIUse=3 WtCom= 9.46D-01 WtEn= 5.38D-02
 Coeff-Com: -0.324D+00 0.460D+00 0.864D+00
 Coeff-En:   0.000D+00 0.000D+00 0.100D+01
 Coeff:     -0.306D+00 0.435D+00 0.871D+00
 Gap=     0.310 Goal=   None    Shift=    0.000
 Gap=     0.104 Goal=   None    Shift=    0.000
 RMSDP=5.00D-04 MaxDP=1.33D-02 DE=-2.11D-02 OVMax= 2.47D-02

 Cycle   4  Pass 1  IDiag  1:
 E= -76.2115293973803     Delta-E=       -0.001352118466 Rises=F Damp=F
 DIIS: error= 1.09D-03 at cycle   4 NSaved=   4.
 NSaved= 4 IEnMin= 4 EnMin= -76.2115293973803     IErMin= 4 ErrMin= 1.09D-03
 ErrMax= 1.09D-03  0.00D+00 EMaxC= 1.00D-01 BMatC= 1.17D-04 BMatP= 4.79D-03
 IDIUse=3 WtCom= 9.89D-01 WtEn= 1.09D-02
 Coeff-Com: -0.930D-02 0.203D-02 0.115D+00 0.892D+00
 Coeff-En:   0.000D+00 0.000D+00 0.000D+00 0.100D+01
 Coeff:     -0.920D-02 0.201D-02 0.114D+00 0.893D+00
 Gap=     0.311 Goal=   None    Shift=    0.000
 Gap=     0.104 Goal=   None    Shift=    0.000
 RMSDP=1.09D-04 MaxDP=2.84D-03 DE=-1.35D-03 OVMax= 8.08D-03

 Cycle   5  Pass 1  IDiag  1:
 E= -76.2116139535408     Delta-E=       -0.000084556160 Rises=F Damp=F
 DIIS: error= 6.63D-04 at cycle   5 NSaved=   5.
 NSaved= 5 IEnMin= 5 EnMin= -76.2116139535408     IErMin= 5 ErrMin= 6.63D-04
 ErrMax= 6.63D-04  0.00D+00 EMaxC= 1.00D-01 BMatC= 2.34D-05 BMatP= 1.17D-04
 IDIUse=3 WtCom= 9.93D-01 WtEn= 6.63D-03
 Coeff-Com:  0.246D-01-0.358D-01-0.532D-01-0.449D-01 0.111D+01
 Coeff-En:   0.000D+00 0.000D+00 0.000D+00 0.000D+00 0.100D+01
 Coeff:      0.245D-01-0.356D-01-0.528D-01-0.446D-01 0.111D+01
 Gap=     0.311 Goal=   None    Shift=    0.000
 Gap=     0.104 Goal=   None    Shift=    0.000
 RMSDP=6.95D-05 MaxDP=1.96D-03 DE=-8.46D-05 OVMax= 6.46D-03

 Cycle   6  Pass 1  IDiag  1:
 E= -76.2116500830583     Delta-E=       -0.000036129518 Rises=F Damp=F
 DIIS: error= 2.71D-04 at cycle   6 NSaved=   6.
 NSaved= 6 IEnMin= 6 EnMin= -76.2116500830583     IErMin= 6 ErrMin= 2.71D-04
 ErrMax= 2.71D-04  0.00D+00 EMaxC= 1.00D-01 BMatC= 7.36D-06 BMatP= 2.34D-05
 IDIUse=3 WtCom= 9.97D-01 WtEn= 2.71D-03
 Coeff-Com:  0.335D-02 0.215D-02-0.374D-01-0.300D+00-0.613D-01 0.139D+01
 Coeff-En:   0.000D+00 0.000D+00 0.000D+00 0.000D+00 0.000D+00 0.100D+01
 Coeff:      0.334D-02 0.214D-02-0.373D-01-0.300D+00-0.611D-01 0.139D+01
 Gap=     0.311 Goal=   None    Shift=    0.000
 Gap=     0.104 Goal=   None    Shift=    0.000
 RMSDP=5.85D-05 MaxDP=1.70D-03 DE=-3.61D-05 OVMax= 5.84D-03

 Cycle   7  Pass 1  IDiag  1:
 E= -76.2116652052572     Delta-E=       -0.000015122199 Rises=F Damp=F
 DIIS: error= 8.00D-05 at cycle   7 NSaved=   7.
 NSaved= 7 IEnMin= 7 EnMin= -76.2116652052572     IErMin= 7 ErrMin= 8.00D-05
 ErrMax= 8.00D-05  0.00D+00 EMaxC= 1.00D-01 BMatC= 5.78D-07 BMatP= 7.36D-06
 IDIUse=1 WtCom= 1.00D+00 WtEn= 0.00D+00
 Coeff-Com: -0.383D-02 0.495D-02 0.114D-01 0.388D-01-0.222D+00 0.534D-02
 Coeff-Com:  0.117D+01
 Coeff:     -0.383D-02 0.495D-02 0.114D-01 0.388D-01-0.222D+00 0.534D-02
 Coeff:      0.117D+01
 Gap=     0.311 Goal=   None    Shift=    0.000
 Gap=     0.104 Goal=   None    Shift=    0.000
 RMSDP=1.57D-05 MaxDP=4.42D-04 DE=-1.51D-05 OVMax= 1.56D-03

 Cycle   8  Pass 1  IDiag  1:
 E= -76.2116660501933     Delta-E=       -0.000000844936 Rises=F Damp=F
 DIIS: error= 8.89D-06 at cycle   8 NSaved=   8.
 NSaved= 8 IEnMin= 8 EnMin= -76.2116660501933     IErMin= 8 ErrMin= 8.89D-06
 ErrMax= 8.89D-06  0.00D+00 EMaxC= 1.00D-01 BMatC= 1.32D-08 BMatP= 5.78D-07
 IDIUse=1 WtCom= 1.00D+00 WtEn= 0.00D+00
 Coeff-Com:  0.739D-03-0.110D-02-0.139D-02 0.124D-02 0.552D-01-0.635D-01
 Coeff-Com: -0.203D+00 0.121D+01
 Coeff:      0.739D-03-0.110D-02-0.139D-02 0.124D-02 0.552D-01-0.635D-01
 Coeff:     -0.203D+00 0.121D+01
 Gap=     0.311 Goal=   None    Shift=    0.000
 Gap=     0.104 Goal=   None    Shift=    0.000
 RMSDP=2.85D-06 MaxDP=1.33D-04 DE=-8.45D-07 OVMax= 1.05D-04

 Cycle   9  Pass 1  IDiag  1:
 E= -76.2116660607544     Delta-E=       -0.000000010561 Rises=F Damp=F
 DIIS: error= 1.41D-06 at cycle   9 NSaved=   9.
 NSaved= 9 IEnMin= 9 EnMin= -76.2116660607544     IErMin= 9 ErrMin= 1.41D-06
 ErrMax= 1.41D-06  0.00D+00 EMaxC= 1.00D-01 BMatC= 4.31D-10 BMatP= 1.32D-08
 IDIUse=1 WtCom= 1.00D+00 WtEn= 0.00D+00
 Coeff-Com:  0.683D-04-0.674D-04-0.400D-03-0.154D-02 0.261D-02 0.693D-02
 Coeff-Com: -0.236D-01-0.161D+00 0.118D+01
 Coeff:      0.683D-04-0.674D-04-0.400D-03-0.154D-02 0.261D-02 0.693D-02
 Coeff:     -0.236D-01-0.161D+00 0.118D+01
 Gap=     0.311 Goal=   None    Shift=    0.000
 Gap=     0.104 Goal=   None    Shift=    0.000
 RMSDP=4.61D-07 MaxDP=1.59D-05 DE=-1.06D-08 OVMax= 1.56D-05

 Cycle  10  Pass 1  IDiag  1:
 E= -76.2116660610649     Delta-E=       -0.000000000310 Rises=F Damp=F
 DIIS: error= 4.78D-07 at cycle  10 NSaved=  10.
 NSaved=10 IEnMin=10 EnMin= -76.2116660610649     IErMin=10 ErrMin= 4.78D-07
 ErrMax= 4.78D-07  0.00D+00 EMaxC= 1.00D-01 BMatC= 2.78D-11 BMatP= 4.31D-10
 IDIUse=1 WtCom= 1.00D+00 WtEn= 0.00D+00
 Coeff-Com: -0.392D-04 0.520D-04 0.228D-04-0.335D-05-0.150D-02 0.166D-02
 Coeff-Com:  0.506D-02-0.292D-01 0.263D-01 0.998D+00
 Coeff:     -0.392D-04 0.520D-04 0.228D-04-0.335D-05-0.150D-02 0.166D-02
 Coeff:      0.506D-02-0.292D-01 0.263D-01 0.998D+00
 Gap=     0.311 Goal=   None    Shift=    0.000
 Gap=     0.104 Goal=   None    Shift=    0.000
 RMSDP=6.40D-08 MaxDP=2.49D-06 DE=-3.10D-10 OVMax= 3.08D-06

 Cycle  11  Pass 1  IDiag  1:
 E= -76.2116660610744     Delta-E=       -0.000000000009 Rises=F Damp=F
 DIIS: error= 7.11D-08 at cycle  11 NSaved=  11.
 NSaved=11 IEnMin=11 EnMin= -76.2116660610744     IErMin=11 ErrMin= 7.11D-08
 ErrMax= 7.11D-08  0.00D+00 EMaxC= 1.00D-01 BMatC= 3.70D-13 BMatP= 2.78D-11
 IDIUse=1 WtCom= 1.00D+00 WtEn= 0.00D+00
 Coeff-Com: -0.118D-05 0.130D-05 0.147D-04 0.121D-04-0.223D-04-0.158D-03
 Coeff-Com:  0.386D-03 0.551D-02-0.374D-01-0.331D-01 0.106D+01
 Coeff:     -0.118D-05 0.130D-05 0.147D-04 0.121D-04-0.223D-04-0.158D-03
 Coeff:      0.386D-03 0.551D-02-0.374D-01-0.331D-01 0.106D+01
 Gap=     0.311 Goal=   None    Shift=    0.000
 Gap=     0.104 Goal=   None    Shift=    0.000
 RMSDP=7.01D-09 MaxDP=2.07D-07 DE=-9.46D-12 OVMax= 5.83D-07

 SCF Done:  E(UB3LYP) =  -76.2116660611     A.U. after   11 cycles
            NFock= 11  Conv=0.70D-08     -V/T= 2.0041
 <Sx>= 0.0000 <Sy>= 0.0000 <Sz>= 1.0000 <S**2>= 2.0149 S= 1.0049
 <L.S>= 0.000000000000E+00
 KE= 7.590352591867D+01 PE=-2.118478621221D+02 EE= 4.018301597027D+01
 Annihilation of the first spin contaminant:
 S**2 before annihilation     2.0149,   after     2.0000
 Leave Link  502 at Sun Jun 19 04:43:46 2016, MaxMem=    33554432 cpu:         6.7
 (Enter /home/proyectos/fulerenos/M3C-v1.9/M3C-deps_CCC/g09-AM64L-G09RevC.01/l801.exe)
 DoSCS=F DFT=T ScalE2(SS,OS)=  1.000000  1.000000
 Range of M.O.s used for correlation:     1    88
 NBasis=    88 NAE=     7 NBE=     5 NFC=     0 NFV=     0
 NROrb=     88 NOA=     7 NOB=     5 NVA=    81 NVB=    83

 **** Warning!!: The largest alpha MO coefficient is  0.63926746D+02


 **** Warning!!: The largest beta MO coefficient is  0.68775128D+02

 Leave Link  801 at Sun Jun 19 04:43:46 2016, MaxMem=    33554432 cpu:         0.1
 (Enter /home/proyectos/fulerenos/M3C-v1.9/M3C-deps_CCC/g09-AM64L-G09RevC.01/l1101.exe)
 Using compressed storage, NAtomX=     3.
 Will process      4 centers per pass.
 Leave Link 1101 at Sun Jun 19 04:43:46 2016, MaxMem=    33554432 cpu:         0.9
 (Enter /home/proyectos/fulerenos/M3C-v1.9/M3C-deps_CCC/g09-AM64L-G09RevC.01/l1102.exe)
 Symmetrizing basis deriv contribution to polar:
 IMax=3 JMax=2 DiffMx= 0.00D+00
 Leave Link 1102 at Sun Jun 19 04:43:46 2016, MaxMem=    33554432 cpu:         0.1
 (Enter /home/proyectos/fulerenos/M3C-v1.9/M3C-deps_CCC/g09-AM64L-G09RevC.01/l1110.exe)
 Forming Gx(P) for the SCF density, NAtomX=     3.
 Integral derivatives from FoFJK, PRISM(SPDF).
 Do as many integral derivatives as possible in FoFJK.
 G2DrvN: MDV=      33554304.
 G2DrvN: will do     4 centers at a time, making    1 passes.
 Calling FoFCou, ICntrl=  3107 FMM=F I1Cent=   0 AccDes= 0.00D+00.
 FoFJK:  IHMeth= 1 ICntrl=    3107 DoSepK=F KAlg= 0 I1Cent=   0 FoldK=F
 IRaf=         0 NMat=   1 IRICut=       1 DoRegI=T DoRafI=F ISym2E= 1.
 FoFCou: FMM=F IPFlag=           0 FMFlag=      100000 FMFlg1=           0
         NFxFlg=           0 DoJE=F BraDBF=F KetDBF=F FulRan=T
         wScrn=  0.000000 ICntrl=    3107 IOpCl=  1 I1Cent=           0 NGrid=           0
         NMat0=    1 NMatS0=      1 NMatT0=    0 NMatD0=    1 NMtDS0=    0 NMtDT0=    0
 Petite list used in FoFCou.
 End of G2Drv F.D. properties file   721 does not exist.
 End of G2Drv F.D. properties file   722 does not exist.
 End of G2Drv F.D. properties file   788 does not exist.
 Leave Link 1110 at Sun Jun 19 04:43:50 2016, MaxMem=    33554432 cpu:        13.9
 (Enter /home/proyectos/fulerenos/M3C-v1.9/M3C-deps_CCC/g09-AM64L-G09RevC.01/l1002.exe)
 Minotr:  UHF open shell wavefunction.
          IDoAtm=111
          Direct CPHF calculation.
          Differentiating once with respect to electric field.
                with respect to dipole field.
          Differentiating once with respect to nuclear coordinates.
          Using symmetry in CPHF.
          Requested convergence is 1.0D-08 RMS, and 1.0D-07 maximum.
          Secondary convergence is 1.0D-12 RMS, and 1.0D-12 maximum.
          NewPWx=T KeepS1=F KeepF1=F KeepIn=T MapXYZ=F SortEE=F KeepMc=T.
          MDV=      33554222 using IRadAn=       2.
 Generate precomputed XC quadrature information.
 Keep R1 and R2 ints in memory in symmetry-blocked form, NReq=9679343.
 FoFCou: FMM=F IPFlag=           0 FMFlag=           0 FMFlg1=           0
         NFxFlg=           0 DoJE=F BraDBF=F KetDBF=F FulRan=T
         wScrn=  0.000000 ICntrl=     600 IOpCl=  0 I1Cent=           0 NGrid=           0
         NMat0=    1 NMatS0=   3916 NMatT0=    0 NMatD0=    1 NMtDS0=    0 NMtDT0=    0
 Petite list used in FoFCou.
          Solving linear equations simultaneously, MaxMat=       0.
          There are    12 degrees of freedom in the 1st order CPHF.  IDoFFX=6 NUNeed=     3.
     11 vectors produced by pass  0 Test12= 8.18D-15 8.33D-09 XBig12= 4.68D+01 3.67D+00.
 AX will form    11 AO Fock derivatives at one time.
      9 vectors produced by pass  1 Test12= 8.18D-15 8.33D-09 XBig12= 1.58D+01 1.16D+00.
      9 vectors produced by pass  2 Test12= 8.18D-15 8.33D-09 XBig12= 2.95D-01 1.65D-01.
      9 vectors produced by pass  3 Test12= 8.18D-15 8.33D-09 XBig12= 5.49D-03 3.59D-02.
      9 vectors produced by pass  4 Test12= 8.18D-15 8.33D-09 XBig12= 2.42D-05 1.79D-03.
      9 vectors produced by pass  5 Test12= 8.18D-15 8.33D-09 XBig12= 3.80D-07 2.18D-04.
      8 vectors produced by pass  6 Test12= 8.18D-15 8.33D-09 XBig12= 2.33D-09 1.88D-05.
      4 vectors produced by pass  7 Test12= 8.18D-15 8.33D-09 XBig12= 1.33D-11 8.41D-07.
      2 vectors produced by pass  8 Test12= 8.18D-15 8.33D-09 XBig12= 9.29D-14 5.29D-08.
      1 vectors produced by pass  9 Test12= 8.18D-15 8.33D-09 XBig12= 1.06D-14 3.66D-08.
 InvSVY:  IOpt=1 It=  1 EMax= 1.39D-15
 Solved reduced A of dimension    71 with    12 vectors.
 FullF1:  Do perturbations    1 to     3.
 Isotropic polarizability for W=    0.000000       14.99 Bohr**3.
 End of Minotr F.D. properties file   721 does not exist.
 End of Minotr F.D. properties file   722 does not exist.
 End of Minotr F.D. properties file   788 does not exist.
 Leave Link 1002 at Sun Jun 19 04:43:59 2016, MaxMem=    33554432 cpu:        32.4
 (Enter /home/proyectos/fulerenos/M3C-v1.9/M3C-deps_CCC/g09-AM64L-G09RevC.01/l601.exe)
 Copying SCF densities to generalized density rwf, IOpCl= 1 IROHF=0.

 **********************************************************************

            Population analysis using the SCF density.

 **********************************************************************

 Orbital symmetries:
 Alpha Orbitals:
       Occupied  (SG) (SG) (SG) (SG) (SG) (PI) (PI)
       Virtual   (PI) (PI) (SG) (SG) (PI) (PI) (SG) (PI) (SG) (PI)
                 (SG) (?A) (?A) (?A) (?A) (PI) (PI) (?A) (?A) (?A)
                 (?A) (?B) (?B) (?B) (?B) (SG) (PI) (PI) (SG) (SG)
                 (SG) (PI) (PI) (SG) (DLTA) (DLTA) (PI) (PI) (SG)
                 (DLTA) (DLTA) (SG) (PI) (PI) (?A) (?A) (?A) (?C)
                 (?C) (?C) (?C) (?A) (?C) (?C) (SG) (?C) (?C) (PI)
                 (PI) (?D) (?D) (?D) (SG) (PI) (PI) (SG) (PI) (PI)
                 (SG) (DLTA) (DLTA) (DLTA) (DLTA) (PI) (PI) (PI)
                 (PI) (SG) (SG) (SG) (SG)
 Beta  Orbitals:
       Occupied  (SG) (SG) (SG) (SG) (PI)
       Virtual   (PI) (SG) (PI) (PI) (SG) (SG) (PI) (PI) (SG) (PI)
                 (SG) (PI) (SG) (?A) (?A) (?A) (SG) (PI) (PI) (SG)
                 (DLTA) (DLTA) (SG) (PI) (PI) (PI) (PI) (SG) (PI)
                 (PI) (SG) (SG) (SG) (PI) (PI) (SG) (DLTA) (DLTA)
                 (PI) (PI) (SG) (DLTA) (DLTA) (SG) (PI) (PI) (SG)
                 (DLTA) (DLTA) (?B) (?B) (?B) (?B) (SG) (PI) (PI)
                 (SG) (PHI) (PHI) (PI) (PI) (?C) (?C) (?C) (SG)
                 (PI) (PI) (SG) (PI) (PI) (SG) (DLTA) (DLTA) (DLTA)
                 (DLTA) (PI) (PI) (PI) (PI) (SG) (SG) (SG) (SG)
 Unable to determine electronic state:  partially filled degenerate orbitals.
 Alpha  occ. eigenvalues --  -10.65347 -10.61033  -1.16764  -0.89616  -0.75576
 Alpha  occ. eigenvalues --   -0.70666  -0.66998
 Alpha virt. eigenvalues --   -0.35903  -0.33010  -0.18815  -0.16651  -0.11877
 Alpha virt. eigenvalues --   -0.11440  -0.09908  -0.05104  -0.05094  -0.04739
 Alpha virt. eigenvalues --   -0.00672   0.02895   0.02945   0.03452   0.12959
 Alpha virt. eigenvalues --    0.14092   0.15081   0.18142   0.22821   0.22869
 Alpha virt. eigenvalues --    0.23669   0.25227   0.26926   0.27794   0.28904
 Alpha virt. eigenvalues --    0.37896   0.46440   0.47386   0.50012   0.52071
 Alpha virt. eigenvalues --    0.78997   0.88759   0.89675   0.97106   1.09519
 Alpha virt. eigenvalues --    1.09551   1.09813   1.12323   1.22348   1.38268
 Alpha virt. eigenvalues --    1.38277   1.67555   1.75072   1.77370   2.07859
 Alpha virt. eigenvalues --    2.25508   2.25559   2.27110   2.27466   2.29170
 Alpha virt. eigenvalues --    2.31503   2.43681   2.46757   2.49656   2.58945
 Alpha virt. eigenvalues --    2.65188   2.65224   2.87834   2.90380   3.24080
 Alpha virt. eigenvalues --    3.24279   3.35766   3.59639   3.75211   3.76699
 Alpha virt. eigenvalues --    3.93062   4.74561   4.77019   5.73839   6.50307
 Alpha virt. eigenvalues --    6.50388   6.64545   6.64635   6.72890   6.75525
 Alpha virt. eigenvalues --    7.00976   7.03636   7.06766   7.82658  23.16483
 Alpha virt. eigenvalues --   25.96857
  Beta  occ. eigenvalues --  -10.62195 -10.60163  -1.10644  -0.87515  -0.64425
  Beta virt. eigenvalues --   -0.53978  -0.51565  -0.29658  -0.26591  -0.17950
  Beta virt. eigenvalues --   -0.15974  -0.11398  -0.11023  -0.08652  -0.04409
  Beta virt. eigenvalues --   -0.04066  -0.03963  -0.00120   0.03863   0.04134
  Beta virt. eigenvalues --    0.04438   0.14838   0.15787   0.16106   0.20012
  Beta virt. eigenvalues --    0.23655   0.23937   0.26830   0.27838   0.28560
  Beta virt. eigenvalues --    0.29951   0.30984   0.39308   0.47958   0.48221
  Beta virt. eigenvalues --    0.50710   0.56209   0.81460   0.89909   0.89988
  Beta virt. eigenvalues --    1.01204   1.13844   1.14350   1.15871   1.17347
  Beta virt. eigenvalues --    1.23193   1.43154   1.43763   1.77494   1.81705
  Beta virt. eigenvalues --    1.83346   2.09959   2.30529   2.31048   2.32183
  Beta virt. eigenvalues --    2.32361   2.32986   2.34289   2.47341   2.51424
  Beta virt. eigenvalues --    2.52584   2.62150   2.69763   2.69989   2.93626
  Beta virt. eigenvalues --    2.94837   3.29247   3.29843   3.39472   3.67047
  Beta virt. eigenvalues --    3.78122   3.78573   3.94663   4.78976   4.79886
  Beta virt. eigenvalues --    5.76185   6.55935   6.56285   6.69613   6.69943
  Beta virt. eigenvalues --    6.79507   6.81314   7.07425   7.08988   7.12851
  Beta virt. eigenvalues --    7.87641  23.18779  25.99632
          Condensed to atoms (all electrons):
               1          2          3
     1  H    0.298825   0.366091  -0.067491
     2  C    0.366091   6.497285  -1.247853
     3  C   -0.067491  -1.247853   7.102396
          Atomic-Atomic Spin Densities.
               1          2          3
     1  H    0.002624  -0.033611   0.038176
     2  C   -0.033611   1.516214  -1.217994
     3  C    0.038176  -1.217994   2.908019
 Mulliken charges and spin densities:
               1          2
     1  H    0.402575   0.007189
     2  C    0.384477   0.264609
     3  C    0.212948   1.728202
 Sum of Mulliken charges =   1.00000   2.00000
 Mulliken charges and spin densities with hydrogens summed into heavy atoms:
               1          2
     2  C    0.787052   0.271798
     3  C    0.212948   1.728202
 APT charges:
               1
     1  H    0.290557
     2  C    0.302038
     3  C    0.407405
 Sum of APT charges =   1.00000
 APT charges with hydrogens summed into heavy atoms:
               1
     2  C    0.592595
     3  C    0.407405
 Electronic spatial extent (au):  <R**2>=             42.6730
 Charge=              1.0000 electrons
 Dipole moment (field-independent basis, Debye):
    X=              0.0000    Y=             -0.0000    Z=             -0.6896  Tot=              0.6896
 Quadrupole moment (field-independent basis, Debye-Ang):
   XX=            -10.4510   YY=             -8.7653   ZZ=             -2.7861
   XY=             -0.0000   XZ=             -0.0000   YZ=              0.0000
 Traceless Quadrupole moment (field-independent basis, Debye-Ang):
   XX=             -3.1169   YY=             -1.4312   ZZ=              4.5480
   XY=             -0.0000   XZ=             -0.0000   YZ=              0.0000
 Octapole moment (field-independent basis, Debye-Ang**2):
  XXX=              0.0000  YYY=             -0.0000  ZZZ=             -5.5461  XYY=              0.0000
  XXY=             -0.0000  XXZ=             -0.2584  XZZ=              0.0000  YZZ=             -0.0000
  YYZ=             -0.1732  XYZ=             -0.0000
 Hexadecapole moment (field-independent basis, Debye-Ang**3):
 XXXX=            -10.6351 YYYY=             -7.7109 ZZZZ=            -21.8644 XXXY=             -0.0000
 XXXZ=             -0.0000 YYYX=             -0.0000 YYYZ=             -0.0000 ZZZX=             -0.0000
 ZZZY=             -0.0000 XXYY=             -3.0568 XXZZ=             -7.7904 YYZZ=             -6.9317
 XXYZ=             -0.0000 YYXZ=             -0.0000 ZZXY=             -0.0000
 N-N= 1.954965417213D+01 E-N=-2.118478625348D+02  KE= 7.590352591867D+01
 Symmetry A1   KE= 7.206853354408D+01
 Symmetry A2   KE= 2.670351935225D-35
 Symmetry B1   KE= 2.536994076280D+00
 Symmetry B2   KE= 1.297998298307D+00
  Exact polarizability:  14.572   0.000  10.568  -0.000   0.000  19.835
 Approx polarizability:  14.998  -0.000  13.934  -0.000   0.000  36.461
                          Isotropic Fermi Contact Couplings
        Atom                 a.u.       MegaHertz       Gauss      10(-4) cm-1
     1  H(1)               0.00097       2.17157       0.77487       0.72436
     2  C(13)              0.17186      96.60081      34.46957      32.22256
     3  C(13)              1.19889     673.89271     240.46167     224.78641
 --------------------------------------------------------
       Center         ----  Spin Dipole Couplings  ----
                      3XX-RR        3YY-RR        3ZZ-RR
 --------------------------------------------------------
     1   Atom       -0.051935     -0.014479      0.066414
     2   Atom       -0.654444      0.630043      0.024401
     3   Atom       -0.700476      0.240492      0.459984
 --------------------------------------------------------
                        XY            XZ            YZ
 --------------------------------------------------------
     1   Atom        0.000000      0.000000      0.000000
     2   Atom        0.000000      0.000000     -0.000000
     3   Atom        0.000000      0.000000      0.000000
 --------------------------------------------------------


 ---------------------------------------------------------------------------------
              Anisotropic Spin Dipole Couplings in Principal Axis System
 ---------------------------------------------------------------------------------

       Atom             a.u.   MegaHertz   Gauss  10(-4) cm-1        Axes

              Baa    -0.0519   -27.710    -9.888    -9.243  1.0000  0.0000  0.0000
     1 H(1)   Bbb    -0.0145    -7.725    -2.757    -2.577 -0.0000  1.0000  0.0000
              Bcc     0.0664    35.435    12.644    11.820  0.0000  0.0000  1.0000
 
              Baa    -0.6544   -87.820   -31.336   -29.294  1.0000  0.0000  0.0000
     2 C(13)  Bbb     0.0244     3.274     1.168     1.092  0.0000  0.0000  1.0000
              Bcc     0.6300    84.546    30.168    28.201 -0.0000  1.0000  0.0000
 
              Baa    -0.7005   -93.997   -33.541   -31.354  1.0000  0.0000  0.0000
     3 C(13)  Bbb     0.2405    32.272    11.515    10.765 -0.0000  1.0000  0.0000
              Bcc     0.4600    61.725    22.025    20.589  0.0000  0.0000  1.0000
 

 ---------------------------------------------------------------------------------

 No NMR shielding tensors so no spin-rotation constants.
 Leave Link  601 at Sun Jun 19 04:44:00 2016, MaxMem=    33554432 cpu:         1.3
 (Enter /home/proyectos/fulerenos/M3C-v1.9/M3C-deps_CCC/g09-AM64L-G09RevC.01/l701.exe)
 Compute integral second derivatives.
 ... and contract with generalized density number  0.
 Leave Link  701 at Sun Jun 19 04:44:00 2016, MaxMem=    33554432 cpu:         1.2
 (Enter /home/proyectos/fulerenos/M3C-v1.9/M3C-deps_CCC/g09-AM64L-G09RevC.01/l702.exe)
 L702 exits ... SP integral derivatives will be done elsewhere.
 Leave Link  702 at Sun Jun 19 04:44:00 2016, MaxMem=    33554432 cpu:         0.1
 (Enter /home/proyectos/fulerenos/M3C-v1.9/M3C-deps_CCC/g09-AM64L-G09RevC.01/l703.exe)
 Compute integral second derivatives, UseDBF=F ICtDFT=           0.
 Integral derivatives from FoFJK, PRISM(SPDF).
 Calling FoFJK, ICntrl=    100127 FMM=F ISym2X=1 I1Cent= 0 IOpClX= 1 NMat=1 NMatS=1 NMatT=0.
 FoFJK:  IHMeth= 1 ICntrl=  100127 DoSepK=F KAlg= 0 I1Cent=   0 FoldK=F
 IRaf=         0 NMat=   1 IRICut=       1 DoRegI=T DoRafI=F ISym2E= 1.
 FoFCou: FMM=F IPFlag=           0 FMFlag=      100000 FMFlg1=         800
         NFxFlg=           0 DoJE=F BraDBF=F KetDBF=F FulRan=T
         wScrn=  0.000000 ICntrl=  100127 IOpCl=  1 I1Cent=           0 NGrid=           0
         NMat0=    1 NMatS0=      1 NMatT0=    0 NMatD0=    1 NMtDS0=    0 NMtDT0=    0
 Petite list used in FoFCou.
 Leave Link  703 at Sun Jun 19 04:44:05 2016, MaxMem=    33554432 cpu:        20.1
 (Enter /home/proyectos/fulerenos/M3C-v1.9/M3C-deps_CCC/g09-AM64L-G09RevC.01/l716.exe)
 Dipole        = 1.66380502D-21-4.04824417D-25-2.71310145D-01
 Polarizability= 1.45724015D+01 6.00655017D-06 1.05683988D+01
                -3.60597018D-04 2.43778428D-04 1.98347587D+01
 Full mass-weighted force constant matrix:
 Low frequencies ---  -28.3852   -0.0009   -0.0009   -0.0005   13.3666  489.9276
 Low frequencies ---  788.8318 1896.9660 3259.8340
 Diagonal vibrational polarizability:
        0.8447127       0.8142004       0.7052110
 Harmonic frequencies (cm**-1), IR intensities (KM/Mole), Raman scattering
 activities (A**4/AMU), depolarization ratios for plane and unpolarized
 incident light, reduced masses (AMU), force constants (mDyne/A),
 and normal coordinates:
                      1                      2                      3
                     PI                     PI                     SG
 Frequencies --    489.8849               788.8318              1896.9660
 Red. masses --      1.3271                 1.3271                 5.7792
 Frc consts  --      0.1877                 0.4866                12.2529
 IR Inten    --      7.5329                18.8264                11.7054
  Atom  AN      X      Y      Z        X      Y      Z        X      Y      Z
     1   1     0.99   0.00  -0.00    -0.00   0.99  -0.00    -0.00  -0.00  -0.75
     2   6    -0.15  -0.00  -0.00     0.00  -0.15  -0.00     0.00   0.00  -0.43
     3   6     0.07   0.00   0.00    -0.00   0.07   0.00    -0.00  -0.00   0.50
                      4
                     SG
 Frequencies --   3259.8340
 Red. masses --      1.1549
 Frc consts  --      7.2305
 IR Inten    --    243.9024
  Atom  AN      X      Y      Z
     1   1     0.00   0.00   0.99
     2   6    -0.00  -0.00  -0.11
     3   6     0.00   0.00   0.03

 -------------------
 - Thermochemistry -
 -------------------
 Temperature   298.150 Kelvin.  Pressure   1.00000 Atm.
 Atom     1 has atomic number  1 and mass   1.00783
 Atom     2 has atomic number  6 and mass  12.00000
 Atom     3 has atomic number  6 and mass  12.00000
 Molecular mass:    25.00783 amu.
 Principal axes and moments of inertia in atomic units:
                           1         2         3
     Eigenvalues --    -0.00000  43.47579  43.47579
           X           -0.00000  -0.00000   1.00000
           Y            0.00000   1.00000   0.00000
           Z            1.00000  -0.00000   0.00000
 This molecule is a prolate symmetric top.
 Rotational symmetry number  1.
 Rotational temperature (Kelvin)      1.99223
 Rotational constant (GHZ):          41.511405
 Zero-point vibrational energy      38492.9 (Joules/Mol)
                                    9.20003 (Kcal/Mol)
 Warning -- explicit consideration of   1 degrees of freedom as
           vibrations may cause significant error
 Vibrational temperatures:    704.83  1134.95  2729.31  4690.17
          (Kelvin)
 
 Zero-point correction=                           0.014661 (Hartree/Particle)
 Thermal correction to Energy=                    0.017336
 Thermal correction to Enthalpy=                  0.018280
 Thermal correction to Gibbs Free Energy=        -0.005767
 Sum of electronic and zero-point Energies=            -76.197005
 Sum of electronic and thermal Energies=               -76.194330
 Sum of electronic and thermal Enthalpies=             -76.193386
 Sum of electronic and thermal Free Energies=          -76.217433
 
                     E (Thermal)             CV                S
                      KCal/Mol        Cal/Mol-Kelvin    Cal/Mol-Kelvin
 Total                   10.878              6.928             50.612
 Electronic               0.000              0.000              2.183
 Translational            0.889              2.981             35.587
 Rotational               0.592              1.987             11.940
 Vibrational              9.397              1.959              0.903
 Vibration     1          0.846              1.272              0.684
                       Q            Log10(Q)             Ln(Q)
 Total Bot       0.449593D+03          2.652820          6.108343
 Total V=0       0.249163D+10          9.396483         21.636201
 Vib (Bot)       0.203720D-06         -6.690966        -15.406518
 Vib (Bot)    1  0.338493D+00         -0.470450         -1.083252
 Vib (V=0)       0.112901D+01          0.052697          0.121340
 Vib (V=0)    1  0.110380D+01          0.042891          0.098761
 Electronic      0.300000D+01          0.477121          1.098612
 Translational   0.491552D+07          6.691569         15.407907
 Rotational      0.149656D+03          2.175095          5.008342
 
                                                              b3lyp opt
                                                             IR Spectrum
 
     3                                                     1                                                                         
     2                                                     8                                          7          4                   
     6                                                     9                                          8          9                   
     0                                                     7                                          9          0                   
 
     X                                                     X                                          X          X                   
     X                                                                                                X                              
     X                                                                                                                               
     X                                                                                                                               
     X                                                                                                                               
     X                                                                                                                               
     X                                                                                                                               
     X                                                                                                                               
     X                                                                                                                               
     X                                                                                                                               
     X                                                                                                                               
     X                                                                                                                               
     X                                                                                                                               
     X                                                                                                                               
     X                                                                                                                               
     X                                                                                                                               
     X                                                                                                                               
     X                                                                                                                               
     X                                                                                                                               
     X                                                                                                                               
 
 ***** Axes restored to original set *****
 -------------------------------------------------------------------
 Center     Atomic                   Forces (Hartrees/Bohr)
 Number     Number              X              Y              Z
 -------------------------------------------------------------------
      1        1           0.000000000   -0.000001502    0.000000000
      2        6           0.000000004   -0.000081820   -0.000000000
      3        6          -0.000000004    0.000083321   -0.000000000
 -------------------------------------------------------------------
 Cartesian Forces:  Max     0.000083321 RMS     0.000038929
 Z-matrix is all fixed cartesians, so copy forces.
 Force constants in Cartesian coordinates: 
                1             2             3             4             5 
      1  0.664444D-02
      2 -0.173469D-04  0.362504D+00
      3  0.000000D+00  0.000000D+00  0.175008D-01
      4 -0.127376D-01  0.176875D-04  0.000000D+00  0.241766D-01
      5  0.167362D-04 -0.375864D+00  0.000000D+00 -0.593065D-04  0.126642D+01
      6  0.000000D+00  0.000000D+00 -0.326775D-01  0.167472D-05  0.120636D-05
      7  0.609319D-02  0.000000D+00  0.000000D+00 -0.114390D-01  0.425703D-04
      8  0.000000D+00  0.133592D-01  0.000000D+00  0.416190D-04 -0.890552D+00
      9  0.000000D+00  0.000000D+00  0.151767D-01  0.000000D+00  0.000000D+00
                6             7             8             9 
      6  0.610682D-01
      7  0.000000D+00  0.534577D-02
      8 -0.156751D-05 -0.422298D-04  0.877193D+00
      9 -0.283907D-01  0.000000D+00  0.125847D-05  0.132140D-01
 Leave Link  716 at Sun Jun 19 04:44:05 2016, MaxMem=    33554432 cpu:         0.1
 (Enter /home/proyectos/fulerenos/M3C-v1.9/M3C-deps_CCC/g09-AM64L-G09RevC.01/l103.exe)

 GradGradGradGradGradGradGradGradGradGradGradGradGradGradGradGradGradGrad
 Berny optimization.
 Search for a local minimum.
 Step number   1 out of a maximum of    2
 All quantities printed in internal units (Hartrees-Bohrs-Radians)
 Second derivative matrix not updated -- analytic derivatives used.
 The second derivative matrix:
                          X1        Y1        Z1        X2        Y2
           X1           0.00664
           Y1          -0.00002   0.36250
           Z1           0.00000  -0.00000   0.01750
           X2          -0.01274   0.00002  -0.00000   0.02418
           Y2           0.00002  -0.37586  -0.00000  -0.00006   1.26642
           Z2          -0.00000   0.00000  -0.03268   0.00000   0.00000
           X3           0.00609  -0.00000   0.00000  -0.01144   0.00004
           Y3           0.00000   0.01336   0.00000   0.00004  -0.89055
           Z3           0.00000  -0.00000   0.01518  -0.00000  -0.00000
                          Z2        X3        Y3        Z3
           Z2           0.06107
           X3          -0.00000   0.00535
           Y3          -0.00000  -0.00004   0.87719
           Z3          -0.02839   0.00000   0.00000   0.01321
 ITU=  0
     Eigenvalues ---    0.03005   0.07651   0.41946   2.02806
 Angle between quadratic step and forces=  34.50 degrees.
 ClnCor:  largest displacement from symmetrization is 3.34D-09 for atom     1.
 Linear search not attempted -- first point.
 ClnCor:  largest displacement from symmetrization is 4.44D-16 for atom     1.
 B after Tr=    -0.000000    0.000009    0.000000
         Rot=    1.000000    0.000000    0.000000    0.000000 Ang=   0.00 deg.
 Variable       Old X    -DE/DX   Delta X   Delta X   Delta X     New X
                                 (Linear)    (Quad)   (Total)
    X1       -0.00014   0.00000   0.00000   0.00000   0.00000  -0.00014
    Y1        2.97890  -0.00000   0.00000  -0.00005  -0.00004   2.97887
    Z1       -0.00000   0.00000   0.00000   0.00000  -0.00000  -0.00000
    X2       -0.00005   0.00000   0.00000   0.00000   0.00000  -0.00005
    Y2        0.93150  -0.00008   0.00000  -0.00004  -0.00003   0.93147
    Z2       -0.00000  -0.00000   0.00000   0.00000  -0.00000  -0.00000
    X3        0.00007  -0.00000   0.00000  -0.00000  -0.00000   0.00007
    Y3       -1.42798   0.00008   0.00000   0.00006   0.00007  -1.42792
    Z3        0.00000  -0.00000   0.00000   0.00000   0.00000   0.00000
         Item               Value     Threshold  Converged?
 Maximum Force            0.000083     0.000450     YES
 RMS     Force            0.000039     0.000300     YES
 Maximum Displacement     0.000066     0.001800     YES
 RMS     Displacement     0.000027     0.001200     YES
 Predicted change in Energy=-3.967770D-09
 Optimization completed.
    -- Stationary point found.
 GradGradGradGradGradGradGradGradGradGradGradGradGradGradGradGradGradGrad

 Leave Link  103 at Sun Jun 19 04:44:05 2016, MaxMem=    33554432 cpu:         0.1
 (Enter /home/proyectos/fulerenos/M3C-v1.9/M3C-deps_CCC/g09-AM64L-G09RevC.01/l9999.exe)
 1\1\GINC-BELVIS25\Freq\UB3LYP\6-311++G(3df,2p)\C2H1(1+,3)\NAGUIRRE\19-
 Jun-2016\0\\#p b3lyp/6-311++G(3df,2p) freq symmetry=Loose\\b3lyp opt\\
 1,3\H,-0.0000765964,1.5763680064,0.\C,-0.0000242159,0.492926998,0.\C,0
 .0000361486,-0.7556549991,0.\\Version=EM64L-G09RevE.01\HF=-76.2116661\
 S2=2.014851\S2-1=0.\S2A=2.000023\RMSD=7.011e-09\RMSF=3.893e-05\ZeroPoi
 nt=0.0146612\Thermal=0.017336\Dipole=-0.0000131,0.2713101,0.\DipoleDer
 iv=0.1428101,-0.00004,0.0000037,-0.0000231,0.540797,0.0000022,0.000002
 2,-0.0000086,0.1880638,0.4462019,0.000036,-0.0000053,-0.0000074,0.0909
 354,0.0000095,-0.0000031,0.0000405,0.3689761,0.410988,0.000004,0.00000
 15,0.0000306,0.3682675,-0.0000117,0.0000008,-0.000032,0.4429601\Polar=
 14.5724015,0.0001062,19.8347587,-0.0001876,-0.0002438,10.5683988\PG=C*
 V [C*(H1C1C1)]\NImag=0\\0.00664444,-0.00001735,0.36250439,0.00000050,-
 0.00000008,0.01750080,-0.01273763,0.00001769,-0.00000094,0.02417659,0.
 00001674,-0.37586360,-0.00000023,-0.00005931,1.26641596,-0.00000085,0.
 00000036,-0.03267749,0.00000167,0.00000121,0.06106819,0.00609319,-0.00
 000034,0.00000044,-0.01143895,0.00004257,-0.00000082,0.00534577,0.0000
 0061,0.01335921,0.00000031,0.00004162,-0.89055236,-0.00000157,-0.00004
 223,0.87719315,0.00000036,-0.00000029,0.01517669,-0.00000074,-0.000000
 97,-0.02839071,0.00000038,0.00000126,0.01321402\\0.,0.00000150,0.,0.,0
 .00008182,0.,0.,-0.00008332,0.\\\@


 Ideas are like rabbits. You get a couple and learn
 how to handle them, and pretty soon you have a dozen.
                                    -- John Steinbeck
 Job cpu time:       0 days  0 hours  1 minutes 20.2 seconds.
 File lengths (MBytes):  RWF=      8 Int=      0 D2E=      0 Chk=      2 Scr=      1
 Normal termination of Gaussian 09 at Sun Jun 19 04:44:05 2016.
