 Entering Gaussian System, Link 0=/home/proyectos/fulerenos/M3C-v1.9/M3C-deps_CCC/g09-AM64L-G09RevC.01/g09
 Initial command:
 /home/proyectos/fulerenos/M3C-v1.9/M3C-deps_CCC/g09-AM64L-G09RevC.01/l1.exe "/scratch/naguirre/gaussian/Gau-21116.inp" -scrdir="/scratch/naguirre/gaussian/"
 Entering Link 1 = /home/proyectos/fulerenos/M3C-v1.9/M3C-deps_CCC/g09-AM64L-G09RevC.01/l1.exe PID=     21124.
  
 Copyright (c) 1988,1990,1992,1993,1995,1998,2003,2009,2015,
            Gaussian, Inc.  All Rights Reserved.
  
 This is part of the Gaussian(R) 09 program.  It is based on
 the Gaussian(R) 03 system (copyright 2003, Gaussian, Inc.),
 the Gaussian(R) 98 system (copyright 1998, Gaussian, Inc.),
 the Gaussian(R) 94 system (copyright 1995, Gaussian, Inc.),
 the Gaussian 92(TM) system (copyright 1992, Gaussian, Inc.),
 the Gaussian 90(TM) system (copyright 1990, Gaussian, Inc.),
 the Gaussian 88(TM) system (copyright 1988, Gaussian, Inc.),
 the Gaussian 86(TM) system (copyright 1986, Carnegie Mellon
 University), and the Gaussian 82(TM) system (copyright 1983,
 Carnegie Mellon University). Gaussian is a federally registered
 trademark of Gaussian, Inc.
  
 This software contains proprietary and confidential information,
 including trade secrets, belonging to Gaussian, Inc.
  
 This software is provided under written license and may be
 used, copied, transmitted, or stored only in accord with that
 written license.
  
 The following legend is applicable only to US Government
 contracts under FAR:
  
                    RESTRICTED RIGHTS LEGEND
  
 Use, reproduction and disclosure by the US Government is
 subject to restrictions as set forth in subparagraphs (a)
 and (c) of the Commercial Computer Software - Restricted
 Rights clause in FAR 52.227-19.
  
 Gaussian, Inc.
 340 Quinnipiac St., Bldg. 40, Wallingford CT 06492
  
  
 ---------------------------------------------------------------
 Warning -- This program may not be used in any manner that
 competes with the business of Gaussian, Inc. or will provide
 assistance to any competitor of Gaussian, Inc.  The licensee
 of this program is prohibited from giving any competitor of
 Gaussian, Inc. access to this program.  By using this program,
 the user acknowledges that Gaussian, Inc. is engaged in the
 business of creating and licensing software in the field of
 computational chemistry and represents and warrants to the
 licensee that it is not a competitor of Gaussian, Inc. and that
 it will not use this program in any manner prohibited above.
 ---------------------------------------------------------------
  

 Cite this work as:
 Gaussian 09, Revision E.01,
 M. J. Frisch, G. W. Trucks, H. B. Schlegel, G. E. Scuseria, 
 M. A. Robb, J. R. Cheeseman, G. Scalmani, V. Barone, B. Mennucci, 
 G. A. Petersson, H. Nakatsuji, M. Caricato, X. Li, H. P. Hratchian, 
 A. F. Izmaylov, J. Bloino, G. Zheng, J. L. Sonnenberg, M. Hada, 
 M. Ehara, K. Toyota, R. Fukuda, J. Hasegawa, M. Ishida, T. Nakajima, 
 Y. Honda, O. Kitao, H. Nakai, T. Vreven, J. A. Montgomery, Jr., 
 J. E. Peralta, F. Ogliaro, M. Bearpark, J. J. Heyd, E. Brothers, 
 K. N. Kudin, V. N. Staroverov, T. Keith, R. Kobayashi, J. Normand, 
 K. Raghavachari, A. Rendell, J. C. Burant, S. S. Iyengar, J. Tomasi, 
 M. Cossi, N. Rega, J. M. Millam, M. Klene, J. E. Knox, J. B. Cross, 
 V. Bakken, C. Adamo, J. Jaramillo, R. Gomperts, R. E. Stratmann, 
 O. Yazyev, A. J. Austin, R. Cammi, C. Pomelli, J. W. Ochterski, 
 R. L. Martin, K. Morokuma, V. G. Zakrzewski, G. A. Voth, 
 P. Salvador, J. J. Dannenberg, S. Dapprich, A. D. Daniels, 
 O. Farkas, J. B. Foresman, J. V. Ortiz, J. Cioslowski, 
 and D. J. Fox, Gaussian, Inc., Wallingford CT, 2013.
 
 ******************************************
 Gaussian 09:  EM64L-G09RevE.01 30-Nov-2015
                20-Jun-2016 
 ******************************************
 %NProcShared=4
 Will use up to    4 processors via shared memory.
 ---------------------------------------------
 #p b3lyp/6-311++G(3df,2p) freq symmetry=Loose
 ---------------------------------------------
 1/10=4,30=1,38=1/1,3;
 2/12=2,17=4,18=3,40=1/2;
 3/5=4,6=6,7=1216,11=2,16=1,25=1,30=1,71=2,74=-5,140=1/1,2,3;
 4//1;
 5/5=2,38=5,98=1/2;
 8/6=4,10=90,11=11/1;
 11/6=1,8=1,9=11,15=111,16=1/1,2,10;
 10/6=1/2;
 6/7=2,8=2,9=2,10=2,18=1,28=1/1;
 7/8=1,10=1,25=1/1,2,3,16;
 1/10=4,30=1/3;
 99//99;
 Leave Link    1 at Mon Jun 20 13:26:49 2016, MaxMem=           0 cpu:         0.3
 (Enter /home/proyectos/fulerenos/M3C-v1.9/M3C-deps_CCC/g09-AM64L-G09RevC.01/l101.exe)
 ---------
 b3lyp opt
 ---------
 Symbolic Z-matrix:
 Charge =  1 Multiplicity = 1
 C                    -1.42425   0.00017   0. 
 C                    -0.08684  -0.0003    0. 
 C                     1.14085   0.00008  -0.00001 
 H                     2.22143   0.00032   0.00004 
 
 NAtoms=      4 NQM=        4 NQMF=       0 NMMI=      0 NMMIF=      0
                NMic=       0 NMicF=      0.
                    Isotopes and Nuclear Properties:
 (Nuclear quadrupole moments (NQMom) in fm**2, nuclear magnetic moments (NMagM)
  in nuclear magnetons)

  Atom         1           2           3           4
 IAtWgt=          12          12          12           1
 AtmWgt=  12.0000000  12.0000000  12.0000000   1.0078250
 NucSpn=           0           0           0           1
 AtZEff=   0.0000000   0.0000000   0.0000000   0.0000000
 NQMom=    0.0000000   0.0000000   0.0000000   0.0000000
 NMagM=    0.0000000   0.0000000   0.0000000   2.7928460
 AtZNuc=   6.0000000   6.0000000   6.0000000   1.0000000
 Leave Link  101 at Mon Jun 20 13:26:49 2016, MaxMem=    33554432 cpu:         0.2
 (Enter /home/proyectos/fulerenos/M3C-v1.9/M3C-deps_CCC/g09-AM64L-G09RevC.01/l103.exe)

 GradGradGradGradGradGradGradGradGradGradGradGradGradGradGradGradGradGrad
 Berny optimization.
 Initialization pass.
 Trust Radius=3.00D-01 FncErr=1.00D-07 GrdErr=1.00D-07
 Number of steps in this run=      2 maximum allowed number of steps=      2.
 GradGradGradGradGradGradGradGradGradGradGradGradGradGradGradGradGradGrad

 Leave Link  103 at Mon Jun 20 13:26:49 2016, MaxMem=    33554432 cpu:         0.1
 (Enter /home/proyectos/fulerenos/M3C-v1.9/M3C-deps_CCC/g09-AM64L-G09RevC.01/l202.exe)
                          Input orientation:                          
 ---------------------------------------------------------------------
 Center     Atomic      Atomic             Coordinates (Angstroms)
 Number     Number       Type             X           Y           Z
 ---------------------------------------------------------------------
      1          6           0       -1.424252    0.000168    0.000001
      2          6           0       -0.086835   -0.000304    0.000004
      3          6           0        1.140849    0.000083   -0.000011
      4          1           0        2.221427    0.000318    0.000036
 ---------------------------------------------------------------------
                    Distance matrix (angstroms):
                    1          2          3          4
     1  C    0.000000
     2  C    1.337417   0.000000
     3  C    2.565101   1.227684   0.000000
     4  H    3.645679   2.308262   1.080578   0.000000
 Stoichiometry    C3H(1+)
 Framework group  C*V[C*(CCCH)]
 Deg. of freedom     3
 Full point group                 C*V     NOp   4
 Largest Abelian subgroup         C2V     NOp   4
 Largest concise Abelian subgroup C1      NOp   1
                         Standard orientation:                         
 ---------------------------------------------------------------------
 Center     Atomic      Atomic             Coordinates (Angstroms)
 Number     Number       Type             X           Y           Z
 ---------------------------------------------------------------------
      1          6           0       -0.000000    0.000000   -1.424252
      2          6           0        0.000000   -0.000000   -0.086835
      3          6           0       -0.000000    0.000000    1.140849
      4          1           0       -0.000000    0.000000    2.221427
 ---------------------------------------------------------------------
 Rotational constants (GHZ):      0.0000000     11.2574287     11.2574287
 Leave Link  202 at Mon Jun 20 13:26:49 2016, MaxMem=    33554432 cpu:         0.0
 (Enter /home/proyectos/fulerenos/M3C-v1.9/M3C-deps_CCC/g09-AM64L-G09RevC.01/l301.exe)
 Standard basis: 6-311++G(3df,2p) (5D, 7F)
 Ernie: Thresh=  0.10000D-02 Tol=  0.10000D-05 Strict=F.
 There are    69 symmetry adapted cartesian basis functions of A1  symmetry.
 There are    12 symmetry adapted cartesian basis functions of A2  symmetry.
 There are    32 symmetry adapted cartesian basis functions of B1  symmetry.
 There are    32 symmetry adapted cartesian basis functions of B2  symmetry.
 There are    57 symmetry adapted basis functions of A1  symmetry.
 There are    12 symmetry adapted basis functions of A2  symmetry.
 There are    29 symmetry adapted basis functions of B1  symmetry.
 There are    29 symmetry adapted basis functions of B2  symmetry.
   127 basis functions,   186 primitive gaussians,   145 cartesian basis functions
     9 alpha electrons        9 beta electrons
       nuclear repulsion energy        42.3729792386 Hartrees.
 IExCor=  402 DFT=T Ex+Corr=B3LYP ExCW=0 ScaHFX=  0.200000
 ScaDFX=  0.800000  0.720000  1.000000  0.810000 ScalE2=  1.000000  1.000000
 IRadAn=      0 IRanWt=     -1 IRanGd=            0 ICorTp=0 IEmpDi=  4
 NAtoms=    4 NActive=    4 NUniq=    4 SFac= 1.00D+00 NAtFMM=   60 NAOKFM=F Big=F
 Integral buffers will be    131072 words long.
 Raffenetti 2 integral format.
 Two-electron integral symmetry is turned on.
 Leave Link  301 at Mon Jun 20 13:26:49 2016, MaxMem=    33554432 cpu:         0.2
 (Enter /home/proyectos/fulerenos/M3C-v1.9/M3C-deps_CCC/g09-AM64L-G09RevC.01/l302.exe)
 NPDir=0 NMtPBC=     1 NCelOv=     1 NCel=       1 NClECP=     1 NCelD=      1
         NCelK=      1 NCelE2=     1 NClLst=     1 CellRange=     0.0.
 One-electron integrals computed using PRISM.
 NBasis=   127 RedAO= T EigKep=  3.18D-06  NBF=    57    12    29    29
 NBsUse=   127 1.00D-06 EigRej= -1.00D+00 NBFU=    57    12    29    29
 Precomputing XC quadrature grid using
 IXCGrd= 4 IRadAn=           0 IRanWt=          -1 IRanGd=           0 AccXCQ= 0.00D+00.
 Generated NRdTot=       0 NPtTot=           0 NUsed=           0 NTot=          32
 NSgBfM=   145   145   145   145   145 MxSgAt=     4 MxSgA2=     4.
 Leave Link  302 at Mon Jun 20 13:26:49 2016, MaxMem=    33554432 cpu:         0.8
 (Enter /home/proyectos/fulerenos/M3C-v1.9/M3C-deps_CCC/g09-AM64L-G09RevC.01/l303.exe)
 DipDrv:  MaxL=1.
 Leave Link  303 at Mon Jun 20 13:26:49 2016, MaxMem=    33554432 cpu:         0.1
 (Enter /home/proyectos/fulerenos/M3C-v1.9/M3C-deps_CCC/g09-AM64L-G09RevC.01/l401.exe)
 ExpMin= 3.60D-02 ExpMax= 4.56D+03 ExpMxC= 6.82D+02 IAcc=3 IRadAn=         5 AccDes= 0.00D+00
 Harris functional with IExCor=  402 and IRadAn=       5 diagonalized for initial guess.
 HarFok:  IExCor=  402 AccDes= 0.00D+00 IRadAn=         5 IDoV= 1 UseB2=F ITyADJ=14
 ICtDFT=  3500011 ScaDFX=  1.000000  1.000000  1.000000  1.000000
 FoFCou: FMM=F IPFlag=           0 FMFlag=      100000 FMFlg1=           0
         NFxFlg=           0 DoJE=T BraDBF=F KetDBF=T FulRan=T
         wScrn=  0.000000 ICntrl=     500 IOpCl=  0 I1Cent=   200000004 NGrid=           0
         NMat0=    1 NMatS0=      1 NMatT0=    0 NMatD0=    1 NMtDS0=    0 NMtDT0=    0
 Petite list used in FoFCou.
 Harris En= -114.494556791753    
 JPrj=0 DoOrth=F DoCkMO=F.
 Initial guess orbital symmetries:
       Occupied  (SG) (SG) (SG) (SG) (SG) (SG) (PI) (PI) (SG)
       Virtual   (PI) (PI) (PI) (PI) (SG) (SG) (SG) (PI) (PI) (SG)
                 (PI) (PI) (SG) (PI) (PI) (SG) (SG) (SG) (DLTA)
                 (DLTA) (SG) (DLTA) (DLTA) (SG) (PI) (PI) (SG)
                 (SG) (PI) (PI) (PI) (PI) (PI) (PI) (DLTA) (DLTA)
                 (SG) (SG) (SG) (PI) (PI) (SG) (PI) (PI) (SG) (SG)
                 (PI) (PI) (SG) (SG) (DLTA) (DLTA) (SG) (DLTA)
                 (DLTA) (PI) (PI) (PI) (PI) (DLTA) (DLTA) (SG)
                 (PI) (PI) (SG) (DLTA) (DLTA) (SG) (PHI) (PHI)
                 (PI) (PI) (PI) (PI) (PHI) (PHI) (PI) (PI) (SG)
                 (PHI) (PHI) (SG) (DLTA) (DLTA) (SG) (PI) (PI)
                 (SG) (DLTA) (DLTA) (PI) (PI) (SG) (SG) (PI) (PI)
                 (SG) (PI) (PI) (SG) (DLTA) (DLTA) (DLTA) (DLTA)
                 (DLTA) (DLTA) (PI) (PI) (SG) (PI) (PI) (PI) (PI)
                 (SG) (SG) (SG) (SG) (SG)
 The electronic state of the initial guess is 1-SG.
 Leave Link  401 at Mon Jun 20 13:26:50 2016, MaxMem=    33554432 cpu:         1.3
 (Enter /home/proyectos/fulerenos/M3C-v1.9/M3C-deps_CCC/g09-AM64L-G09RevC.01/l502.exe)
 Closed shell SCF:
 Using DIIS extrapolation, IDIIS=  1040.
 Integral symmetry usage will be decided dynamically.
 IVT=       83644 IEndB=       83644 NGot=    33554432 MDV=    33508599
 LenX=    33508599 LenY=    33487133
 Requested convergence on RMS density matrix=1.00D-08 within 128 cycles.
 Requested convergence on MAX density matrix=1.00D-06.
 Requested convergence on             energy=1.00D-06.
 No special actions if energy rises.
 Fock matrices will be formed incrementally for  20 cycles.

 Cycle   1  Pass 1  IDiag  1:
 FoFJK:  IHMeth= 1 ICntrl=       0 DoSepK=F KAlg= 0 I1Cent=   0 FoldK=F
 IRaf= 990000000 NMat=   1 IRICut=       1 DoRegI=T DoRafI=F ISym2E= 1.
 FoFCou: FMM=F IPFlag=           0 FMFlag=      100000 FMFlg1=           0
         NFxFlg=           0 DoJE=F BraDBF=F KetDBF=F FulRan=T
         wScrn=  0.000000 ICntrl=       0 IOpCl=  0 I1Cent=           0 NGrid=           0
         NMat0=    1 NMatS0=      1 NMatT0=    0 NMatD0=    1 NMtDS0=    0 NMtDT0=    0
 Petite list used in FoFCou.
 E= -114.337391118246    
 DIIS: error= 2.03D-02 at cycle   1 NSaved=   1.
 NSaved= 1 IEnMin= 1 EnMin= -114.337391118246     IErMin= 1 ErrMin= 2.03D-02
 ErrMax= 2.03D-02  0.00D+00 EMaxC= 1.00D-01 BMatC= 5.04D-02 BMatP= 5.04D-02
 IDIUse=3 WtCom= 7.97D-01 WtEn= 2.03D-01
 Coeff-Com:  0.100D+01
 Coeff-En:   0.100D+01
 Coeff:      0.100D+01
 Gap=     0.154 Goal=   None    Shift=    0.000
 GapD=    0.154 DampG=1.000 DampE=0.500 DampFc=0.5000 IDamp=-1.
 Damping current iteration by 5.00D-01
 RMSDP=7.20D-03 MaxDP=1.73D-01              OVMax= 2.00D-01

 Cycle   2  Pass 1  IDiag  1:
 RMSU=  3.59D-03    CP:  9.91D-01
 E= -114.336815477219     Delta-E=        0.000575641027 Rises=F Damp=T
 DIIS: error= 1.57D-02 at cycle   2 NSaved=   2.
 NSaved= 2 IEnMin= 1 EnMin= -114.337391118246     IErMin= 2 ErrMin= 1.57D-02
 ErrMax= 1.57D-02  0.00D+00 EMaxC= 1.00D-01 BMatC= 1.22D-02 BMatP= 5.04D-02
 IDIUse=3 WtCom= 8.43D-01 WtEn= 1.57D-01
 Coeff-Com:  0.237D+00 0.763D+00
 Coeff-En:   0.506D+00 0.494D+00
 Coeff:      0.280D+00 0.720D+00
 Gap=     0.134 Goal=   None    Shift=    0.000
 RMSDP=5.09D-03 MaxDP=2.08D-01 DE= 5.76D-04 OVMax= 2.33D-01

 Cycle   3  Pass 1  IDiag  1:
 RMSU=  4.52D-03    CP:  1.06D+00  1.23D+00
 E= -114.332329863943     Delta-E=        0.004485613275 Rises=F Damp=F
 DIIS: error= 3.52D-02 at cycle   3 NSaved=   3.
 NSaved= 3 IEnMin= 1 EnMin= -114.337391118246     IErMin= 2 ErrMin= 1.57D-02
 ErrMax= 3.52D-02  0.00D+00 EMaxC= 1.00D-01 BMatC= 3.76D-02 BMatP= 1.22D-02
 IDIUse=2 WtCom= 0.00D+00 WtEn= 1.00D+00
 EnCoef did     3 forward-backward iterations
 Coeff-En:   0.170D+00 0.449D+00 0.381D+00
 Coeff:      0.170D+00 0.449D+00 0.381D+00
 Gap=     0.179 Goal=   None    Shift=    0.000
 RMSDP=3.26D-03 MaxDP=7.89D-02 DE= 4.49D-03 OVMax= 1.68D-01

 Cycle   4  Pass 1  IDiag  1:
 RMSU=  2.35D-03    CP:  1.04D+00  1.56D+00  6.03D-01
 E= -114.353593102610     Delta-E=       -0.021263238667 Rises=F Damp=F
 DIIS: error= 2.62D-02 at cycle   4 NSaved=   4.
 NSaved= 4 IEnMin= 4 EnMin= -114.353593102610     IErMin= 2 ErrMin= 1.57D-02
 ErrMax= 2.62D-02  0.00D+00 EMaxC= 1.00D-01 BMatC= 2.00D-02 BMatP= 1.22D-02
 IDIUse=2 WtCom= 0.00D+00 WtEn= 1.00D+00
 Coeff-En:   0.000D+00 0.000D+00 0.398D+00 0.602D+00
 Coeff:      0.000D+00 0.000D+00 0.398D+00 0.602D+00
 Gap=     0.165 Goal=   None    Shift=    0.000
 RMSDP=1.47D-03 MaxDP=5.39D-02 DE=-2.13D-02 OVMax= 8.51D-02

 Cycle   5  Pass 1  IDiag  1:
 RMSU=  7.43D-04    CP:  1.04D+00  1.51D+00  6.18D-01  4.76D-01
 E= -114.376390754374     Delta-E=       -0.022797651764 Rises=F Damp=F
 DIIS: error= 5.03D-03 at cycle   5 NSaved=   5.
 NSaved= 5 IEnMin= 5 EnMin= -114.376390754374     IErMin= 5 ErrMin= 5.03D-03
 ErrMax= 5.03D-03  0.00D+00 EMaxC= 1.00D-01 BMatC= 8.26D-04 BMatP= 1.22D-02
 IDIUse=3 WtCom= 9.50D-01 WtEn= 5.03D-02
 Coeff-Com: -0.285D-01 0.387D-01 0.123D-02 0.137D+00 0.852D+00
 Coeff-En:   0.000D+00 0.000D+00 0.000D+00 0.711D-01 0.929D+00
 Coeff:     -0.271D-01 0.367D-01 0.116D-02 0.133D+00 0.856D+00
 Gap=     0.168 Goal=   None    Shift=    0.000
 RMSDP=3.24D-04 MaxDP=1.18D-02 DE=-2.28D-02 OVMax= 1.55D-02

 Cycle   6  Pass 1  IDiag  1:
 RMSU=  9.03D-05    CP:  1.04D+00  1.58D+00  5.90D-01  5.34D-01  9.67D-01
 E= -114.377368810880     Delta-E=       -0.000978056506 Rises=F Damp=F
 DIIS: error= 3.26D-04 at cycle   6 NSaved=   6.
 NSaved= 6 IEnMin= 6 EnMin= -114.377368810880     IErMin= 6 ErrMin= 3.26D-04
 ErrMax= 3.26D-04  0.00D+00 EMaxC= 1.00D-01 BMatC= 5.09D-06 BMatP= 8.26D-04
 IDIUse=3 WtCom= 9.97D-01 WtEn= 3.26D-03
 Coeff-Com: -0.221D-02 0.361D-02-0.606D-02 0.895D-02 0.160D+00 0.836D+00
 Coeff-En:   0.000D+00 0.000D+00 0.000D+00 0.000D+00 0.000D+00 0.100D+01
 Coeff:     -0.220D-02 0.360D-02-0.604D-02 0.892D-02 0.159D+00 0.837D+00
 Gap=     0.168 Goal=   None    Shift=    0.000
 RMSDP=2.95D-05 MaxDP=8.24D-04 DE=-9.78D-04 OVMax= 1.11D-03

 Cycle   7  Pass 1  IDiag  1:
 RMSU=  1.48D-05    CP:  1.04D+00  1.57D+00  5.89D-01  5.35D-01  9.79D-01
                    CP:  8.73D-01
 E= -114.377374559774     Delta-E=       -0.000005748895 Rises=F Damp=F
 DIIS: error= 2.16D-05 at cycle   7 NSaved=   7.
 NSaved= 7 IEnMin= 7 EnMin= -114.377374559774     IErMin= 7 ErrMin= 2.16D-05
 ErrMax= 2.16D-05  0.00D+00 EMaxC= 1.00D-01 BMatC= 3.42D-08 BMatP= 5.09D-06
 IDIUse=1 WtCom= 1.00D+00 WtEn= 0.00D+00
 Coeff-Com: -0.195D-03 0.278D-03-0.190D-02-0.809D-03 0.231D-01 0.222D+00
 Coeff-Com:  0.757D+00
 Coeff:     -0.195D-03 0.278D-03-0.190D-02-0.809D-03 0.231D-01 0.222D+00
 Coeff:      0.757D+00
 Gap=     0.168 Goal=   None    Shift=    0.000
 RMSDP=6.79D-06 MaxDP=2.48D-04 DE=-5.75D-06 OVMax= 6.53D-05

 Cycle   8  Pass 1  IDiag  1:
 RMSU=  2.14D-06    CP:  1.04D+00  1.57D+00  5.89D-01  5.33D-01  9.81D-01
                    CP:  8.92D-01  8.08D-01
 E= -114.377374593177     Delta-E=       -0.000000033403 Rises=F Damp=F
 DIIS: error= 6.66D-06 at cycle   8 NSaved=   8.
 NSaved= 8 IEnMin= 8 EnMin= -114.377374593177     IErMin= 8 ErrMin= 6.66D-06
 ErrMax= 6.66D-06  0.00D+00 EMaxC= 1.00D-01 BMatC= 1.79D-09 BMatP= 3.42D-08
 IDIUse=1 WtCom= 1.00D+00 WtEn= 0.00D+00
 Coeff-Com: -0.105D-04 0.801D-04-0.108D-03-0.351D-03-0.189D-02 0.499D-02
 Coeff-Com:  0.903D-01 0.907D+00
 Coeff:     -0.105D-04 0.801D-04-0.108D-03-0.351D-03-0.189D-02 0.499D-02
 Coeff:      0.903D-01 0.907D+00
 Gap=     0.168 Goal=   None    Shift=    0.000
 RMSDP=9.17D-07 MaxDP=4.45D-05 DE=-3.34D-08 OVMax= 1.64D-05

 Cycle   9  Pass 1  IDiag  1:
 RMSU=  2.99D-07    CP:  1.04D+00  1.57D+00  5.89D-01  5.33D-01  9.81D-01
                    CP:  8.94D-01  8.29D-01  1.03D+00
 E= -114.377374595216     Delta-E=       -0.000000002038 Rises=F Damp=F
 DIIS: error= 8.97D-07 at cycle   9 NSaved=   9.
 NSaved= 9 IEnMin= 9 EnMin= -114.377374595216     IErMin= 9 ErrMin= 8.97D-07
 ErrMax= 8.97D-07  0.00D+00 EMaxC= 1.00D-01 BMatC= 3.76D-11 BMatP= 1.79D-09
 IDIUse=1 WtCom= 1.00D+00 WtEn= 0.00D+00
 Coeff-Com: -0.890D-05 0.194D-04-0.241D-05-0.425D-04-0.477D-03-0.210D-02
 Coeff-Com: -0.101D-02 0.318D-01 0.972D+00
 Coeff:     -0.890D-05 0.194D-04-0.241D-05-0.425D-04-0.477D-03-0.210D-02
 Coeff:     -0.101D-02 0.318D-01 0.972D+00
 Gap=     0.168 Goal=   None    Shift=    0.000
 RMSDP=1.69D-07 MaxDP=6.11D-06 DE=-2.04D-09 OVMax= 2.56D-06

 Cycle  10  Pass 1  IDiag  1:
 RMSU=  6.79D-08    CP:  1.04D+00  1.57D+00  5.89D-01  5.33D-01  9.81D-01
                    CP:  8.94D-01  8.35D-01  1.05D+00  9.90D-01
 E= -114.377374595260     Delta-E=       -0.000000000044 Rises=F Damp=F
 DIIS: error= 6.23D-08 at cycle  10 NSaved=  10.
 NSaved=10 IEnMin=10 EnMin= -114.377374595260     IErMin=10 ErrMin= 6.23D-08
 ErrMax= 6.23D-08  0.00D+00 EMaxC= 1.00D-01 BMatC= 3.13D-13 BMatP= 3.76D-11
 IDIUse=1 WtCom= 1.00D+00 WtEn= 0.00D+00
 Coeff-Com: -0.150D-05 0.289D-05 0.113D-05-0.233D-05-0.228D-04-0.261D-03
 Coeff-Com: -0.998D-03-0.156D-01 0.758D-01 0.941D+00
 Coeff:     -0.150D-05 0.289D-05 0.113D-05-0.233D-05-0.228D-04-0.261D-03
 Coeff:     -0.998D-03-0.156D-01 0.758D-01 0.941D+00
 Gap=     0.168 Goal=   None    Shift=    0.000
 RMSDP=1.81D-08 MaxDP=9.60D-07 DE=-4.41D-11 OVMax= 1.64D-07

 Cycle  11  Pass 1  IDiag  1:
 RMSU=  3.42D-09    CP:  1.04D+00  1.57D+00  5.89D-01  5.33D-01  9.81D-01
                    CP:  8.94D-01  8.35D-01  1.05D+00  1.02D+00  1.03D+00
 E= -114.377374595260     Delta-E=       -0.000000000000 Rises=F Damp=F
 DIIS: error= 2.32D-08 at cycle  11 NSaved=  11.
 NSaved=11 IEnMin=11 EnMin= -114.377374595260     IErMin=11 ErrMin= 2.32D-08
 ErrMax= 2.32D-08  0.00D+00 EMaxC= 1.00D-01 BMatC= 1.50D-14 BMatP= 3.13D-13
 IDIUse=1 WtCom= 1.00D+00 WtEn= 0.00D+00
 Coeff-Com: -0.261D-07 0.264D-07-0.292D-06 0.736D-06 0.493D-05 0.124D-04
 Coeff-Com: -0.142D-05-0.112D-02-0.731D-02 0.279D-01 0.980D+00
 Coeff:     -0.261D-07 0.264D-07-0.292D-06 0.736D-06 0.493D-05 0.124D-04
 Coeff:     -0.142D-05-0.112D-02-0.731D-02 0.279D-01 0.980D+00
 Gap=     0.168 Goal=   None    Shift=    0.000
 RMSDP=2.50D-09 MaxDP=7.77D-08 DE=-3.41D-13 OVMax= 6.27D-08

 SCF Done:  E(RB3LYP) =  -114.377374595     A.U. after   11 cycles
            NFock= 11  Conv=0.25D-08     -V/T= 2.0044
 KE= 1.138759221206D+02 PE=-3.447000036293D+02 EE= 7.407372767482D+01
 Leave Link  502 at Mon Jun 20 13:27:05 2016, MaxMem=    33554432 cpu:        54.2
 (Enter /home/proyectos/fulerenos/M3C-v1.9/M3C-deps_CCC/g09-AM64L-G09RevC.01/l801.exe)
 DoSCS=F DFT=T ScalE2(SS,OS)=  1.000000  1.000000
 Range of M.O.s used for correlation:     1   127
 NBasis=   127 NAE=     9 NBE=     9 NFC=     0 NFV=     0
 NROrb=    127 NOA=     9 NOB=     9 NVA=   118 NVB=   118

 **** Warning!!: The largest alpha MO coefficient is  0.24710933D+03

 Leave Link  801 at Mon Jun 20 13:27:05 2016, MaxMem=    33554432 cpu:         0.1
 (Enter /home/proyectos/fulerenos/M3C-v1.9/M3C-deps_CCC/g09-AM64L-G09RevC.01/l1101.exe)
 Using compressed storage, NAtomX=     4.
 Will process      5 centers per pass.
 Leave Link 1101 at Mon Jun 20 13:27:05 2016, MaxMem=    33554432 cpu:         0.8
 (Enter /home/proyectos/fulerenos/M3C-v1.9/M3C-deps_CCC/g09-AM64L-G09RevC.01/l1102.exe)
 Symmetrizing basis deriv contribution to polar:
 IMax=3 JMax=2 DiffMx= 0.00D+00
 Leave Link 1102 at Mon Jun 20 13:27:05 2016, MaxMem=    33554432 cpu:         0.1
 (Enter /home/proyectos/fulerenos/M3C-v1.9/M3C-deps_CCC/g09-AM64L-G09RevC.01/l1110.exe)
 Forming Gx(P) for the SCF density, NAtomX=     4.
 Integral derivatives from FoFJK, PRISM(SPDF).
 Do as many integral derivatives as possible in FoFJK.
 G2DrvN: MDV=      33554296.
 G2DrvN: will do     5 centers at a time, making    1 passes.
 Calling FoFCou, ICntrl=  3107 FMM=F I1Cent=   0 AccDes= 0.00D+00.
 FoFJK:  IHMeth= 1 ICntrl=    3107 DoSepK=F KAlg= 0 I1Cent=   0 FoldK=F
 IRaf=         0 NMat=   1 IRICut=       1 DoRegI=T DoRafI=F ISym2E= 1.
 FoFCou: FMM=F IPFlag=           0 FMFlag=      100000 FMFlg1=           0
         NFxFlg=           0 DoJE=F BraDBF=F KetDBF=F FulRan=T
         wScrn=  0.000000 ICntrl=    3107 IOpCl=  0 I1Cent=           0 NGrid=           0
         NMat0=    1 NMatS0=      1 NMatT0=    0 NMatD0=    1 NMtDS0=    0 NMtDT0=    0
 Petite list used in FoFCou.
 End of G2Drv F.D. properties file   721 does not exist.
 End of G2Drv F.D. properties file   722 does not exist.
 End of G2Drv F.D. properties file   788 does not exist.
 Leave Link 1110 at Mon Jun 20 13:27:11 2016, MaxMem=    33554432 cpu:        24.5
 (Enter /home/proyectos/fulerenos/M3C-v1.9/M3C-deps_CCC/g09-AM64L-G09RevC.01/l1002.exe)
 Minotr:  Closed shell wavefunction.
          IDoAtm=1111
          Direct CPHF calculation.
          Differentiating once with respect to electric field.
                with respect to dipole field.
          Differentiating once with respect to nuclear coordinates.
          Using symmetry in CPHF.
          Requested convergence is 1.0D-08 RMS, and 1.0D-07 maximum.
          Secondary convergence is 1.0D-12 RMS, and 1.0D-12 maximum.
          NewPWx=T KeepS1=F KeepF1=F KeepIn=T MapXYZ=F SortEE=F KeepMc=T.
          MDV=      33554261 using IRadAn=       2.
 Generate precomputed XC quadrature information.
          Solving linear equations simultaneously, MaxMat=       0.
 FoFJK:  IHMeth= 1 ICntrl=       0 DoSepK=F KAlg= 0 I1Cent=   0 FoldK=F
 IRaf= 990000000 NMat=  15 IRICut=      37 DoRegI=T DoRafI=T ISym2E= 2.
 FoFCou: FMM=F IPFlag=           0 FMFlag=      100000 FMFlg1=           0
         NFxFlg=           0 DoJE=F BraDBF=F KetDBF=F FulRan=T
         wScrn=  0.000000 ICntrl=       0 IOpCl=  0 I1Cent=           0 NGrid=           0
         NMat0=   15 NMatS0=     15 NMatT0=    0 NMatD0=   15 NMtDS0=    0 NMtDT0=    0
 Integrals replicated using symmetry in FoFCou.
          There are    15 degrees of freedom in the 1st order CPHF.  IDoFFX=6 NUNeed=     3.
     13 vectors produced by pass  0 Test12= 7.08D-15 6.67D-09 XBig12= 1.29D+02 7.85D+00.
 AX will form    13 AO Fock derivatives at one time.
     12 vectors produced by pass  1 Test12= 7.08D-15 6.67D-09 XBig12= 4.83D+01 2.37D+00.
     12 vectors produced by pass  2 Test12= 7.08D-15 6.67D-09 XBig12= 6.64D-01 2.36D-01.
     12 vectors produced by pass  3 Test12= 7.08D-15 6.67D-09 XBig12= 3.08D-03 1.39D-02.
     12 vectors produced by pass  4 Test12= 7.08D-15 6.67D-09 XBig12= 6.68D-06 6.62D-04.
     10 vectors produced by pass  5 Test12= 7.08D-15 6.67D-09 XBig12= 6.44D-09 1.82D-05.
      5 vectors produced by pass  6 Test12= 7.08D-15 6.67D-09 XBig12= 9.27D-12 6.99D-07.
      4 vectors produced by pass  7 Test12= 7.08D-15 6.67D-09 XBig12= 3.07D-13 2.02D-07.
      3 vectors produced by pass  8 Test12= 7.08D-15 6.67D-09 XBig12= 9.47D-15 2.76D-08.
 InvSVY:  IOpt=1 It=  1 EMax= 1.78D-15
 Solved reduced A of dimension    83 with    15 vectors.
 FullF1:  Do perturbations    1 to     3.
 Isotropic polarizability for W=    0.000000       26.97 Bohr**3.
 End of Minotr F.D. properties file   721 does not exist.
 End of Minotr F.D. properties file   722 does not exist.
 End of Minotr F.D. properties file   788 does not exist.
 Leave Link 1002 at Mon Jun 20 13:27:32 2016, MaxMem=    33554432 cpu:        78.0
 (Enter /home/proyectos/fulerenos/M3C-v1.9/M3C-deps_CCC/g09-AM64L-G09RevC.01/l601.exe)
 Copying SCF densities to generalized density rwf, IOpCl= 0 IROHF=0.

 **********************************************************************

            Population analysis using the SCF density.

 **********************************************************************

 Orbital symmetries:
       Occupied  (SG) (SG) (SG) (SG) (SG) (SG) (PI) (PI) (SG)
       Virtual   (PI) (PI) (PI) (PI) (SG) (SG) (PI) (PI) (SG) (SG)
                 (PI) (PI) (SG) (PI) (PI) (SG) (DLTA) (DLTA) (SG)
                 (SG) (SG) (DLTA) (DLTA) (PI) (PI) (SG) (SG) (PI)
                 (PI) (SG) (PI) (PI) (DLTA) (DLTA) (PI) (PI) (SG)
                 (SG) (SG) (PI) (PI) (PI) (PI) (SG) (SG) (SG) (PI)
                 (PI) (SG) (DLTA) (DLTA) (SG) (SG) (DLTA) (DLTA)
                 (PI) (PI) (PI) (PI) (DLTA) (DLTA) (SG) (PI) (PI)
                 (SG) (DLTA) (DLTA) (PHI) (PHI) (SG) (PI) (PI)
                 (PHI) (PHI) (PI) (PI) (PI) (PI) (SG) (PHI) (PHI)
                 (DLTA) (DLTA) (SG) (SG) (PI) (PI) (SG) (DLTA)
                 (DLTA) (PI) (PI) (SG) (SG) (PI) (PI) (SG) (PI)
                 (PI) (SG) (DLTA) (DLTA) (DLTA) (DLTA) (DLTA) (DLTA)
                 (PI) (PI) (SG) (PI) (PI) (PI) (PI) (SG) (SG) (SG)
                 (SG) (SG)
 The electronic state is 1-SG.
 Alpha  occ. eigenvalues --  -10.61034 -10.59250 -10.50334  -1.13107  -1.01873
 Alpha  occ. eigenvalues --   -0.85936  -0.65628  -0.65628  -0.61267
 Alpha virt. eigenvalues --   -0.44468  -0.44468  -0.20656  -0.20656  -0.17895
 Alpha virt. eigenvalues --   -0.16435  -0.10573  -0.10573  -0.10114  -0.05897
 Alpha virt. eigenvalues --   -0.05806  -0.05806  -0.02443   0.00409   0.00409
 Alpha virt. eigenvalues --    0.01247   0.02571   0.02571   0.02984   0.07593
 Alpha virt. eigenvalues --    0.12449   0.15491   0.15491   0.19339   0.19339
 Alpha virt. eigenvalues --    0.20152   0.22850   0.27352   0.27352   0.28506
 Alpha virt. eigenvalues --    0.30419   0.30419   0.35249   0.35249   0.35566
 Alpha virt. eigenvalues --    0.35566   0.37993   0.44549   0.56989   0.59475
 Alpha virt. eigenvalues --    0.59475   0.63950   0.63950   0.65852   0.85057
 Alpha virt. eigenvalues --    0.91048   0.94232   0.94232   1.08044   1.11674
 Alpha virt. eigenvalues --    1.11674   1.12188   1.26978   1.27164   1.27164
 Alpha virt. eigenvalues --    1.33630   1.33630   1.49157   1.49157   1.51096
 Alpha virt. eigenvalues --    1.51096   1.75186   2.06827   2.06827   2.20403
 Alpha virt. eigenvalues --    2.21749   2.21749   2.27928   2.27928   2.29476
 Alpha virt. eigenvalues --    2.36209   2.36209   2.49630   2.49630   2.51883
 Alpha virt. eigenvalues --    2.51883   2.60615   2.60615   2.71543   2.77931
 Alpha virt. eigenvalues --    2.77931   2.78837   2.78837   2.82789   2.92087
 Alpha virt. eigenvalues --    2.95804   2.95804   3.57419   3.68256   3.68256
 Alpha virt. eigenvalues --    3.71111   3.71111   3.84041   3.98175   4.28514
 Alpha virt. eigenvalues --    4.28514   5.08410   5.50551   5.50551   5.84226
 Alpha virt. eigenvalues --    6.56135   6.56136   6.64888   6.64890   6.76632
 Alpha virt. eigenvalues --    6.76634   6.84092   6.84092   6.93764   6.99030
 Alpha virt. eigenvalues --    6.99030   7.26700   7.26700   7.84029   8.24925
 Alpha virt. eigenvalues --   23.39513  25.23908  26.44075
          Condensed to atoms (all electrons):
               1          2          3          4
     1  C   10.397158  -1.732006  -2.415413   0.013709
     2  C   -1.732006   8.141521  -1.088820   0.096578
     3  C   -2.415413  -1.088820   9.049166   0.186833
     4  H    0.013709   0.096578   0.186833   0.290394
 Mulliken charges:
               1
     1  C   -0.263449
     2  C    0.582727
     3  C    0.268234
     4  H    0.412487
 Sum of Mulliken charges =   1.00000
 Mulliken charges with hydrogens summed into heavy atoms:
               1
     1  C   -0.263449
     2  C    0.582727
     3  C    0.680721
 APT charges:
               1
     1  C    0.718796
     2  C   -0.566307
     3  C    0.535744
     4  H    0.311767
 Sum of APT charges =   1.00000
 APT charges with hydrogens summed into heavy atoms:
               1
     1  C    0.718796
     2  C   -0.566307
     3  C    0.847511
 Electronic spatial extent (au):  <R**2>=            114.3592
 Charge=              1.0000 electrons
 Dipole moment (field-independent basis, Debye):
    X=              0.0000    Y=             -0.0000    Z=              2.9963  Tot=              2.9963
 Quadrupole moment (field-independent basis, Debye-Ang):
   XX=            -14.6210   YY=            -14.6210   ZZ=             -4.6862
   XY=              0.0000   XZ=             -0.0000   YZ=              0.0000
 Traceless Quadrupole moment (field-independent basis, Debye-Ang):
   XX=             -3.3116   YY=             -3.3116   ZZ=              6.6232
   XY=              0.0000   XZ=             -0.0000   YZ=              0.0000
 Octapole moment (field-independent basis, Debye-Ang**2):
  XXX=              0.0000  YYY=             -0.0000  ZZZ=             26.5954  XYY=              0.0000
  XXY=             -0.0000  XXZ=              0.8108  XZZ=              0.0000  YZZ=             -0.0000
  YYZ=              0.8108  XYZ=              0.0000
 Hexadecapole moment (field-independent basis, Debye-Ang**3):
 XXXX=            -14.3645 YYYY=            -14.3645 ZZZZ=            -95.6805 XXXY=              0.0000
 XXXZ=             -0.0000 YYYX=              0.0000 YYYZ=              0.0000 ZZZX=             -0.0000
 ZZZY=              0.0000 XXYY=             -4.7882 XXZZ=            -22.8219 YYZZ=            -22.8219
 XXYZ=              0.0000 YYXZ=             -0.0000 ZZXY=              0.0000
 N-N= 4.237297923865D+01 E-N=-3.447000036108D+02  KE= 1.138759221206D+02
 Symmetry A1   KE= 1.091468356978D+02
 Symmetry A2   KE= 4.240586963546D-39
 Symmetry B1   KE= 2.364543211360D+00
 Symmetry B2   KE= 2.364543211360D+00
  Exact polarizability:  18.203  -0.000  18.203   0.001  -0.002  44.493
 Approx polarizability:  25.882  -0.000  25.882   0.000  -0.000 118.927
 No NMR shielding tensors so no spin-rotation constants.
 Leave Link  601 at Mon Jun 20 13:27:32 2016, MaxMem=    33554432 cpu:         0.9
 (Enter /home/proyectos/fulerenos/M3C-v1.9/M3C-deps_CCC/g09-AM64L-G09RevC.01/l701.exe)
 Compute integral second derivatives.
 ... and contract with generalized density number  0.
 Leave Link  701 at Mon Jun 20 13:27:32 2016, MaxMem=    33554432 cpu:         1.5
 (Enter /home/proyectos/fulerenos/M3C-v1.9/M3C-deps_CCC/g09-AM64L-G09RevC.01/l702.exe)
 L702 exits ... SP integral derivatives will be done elsewhere.
 Leave Link  702 at Mon Jun 20 13:27:32 2016, MaxMem=    33554432 cpu:         0.1
 (Enter /home/proyectos/fulerenos/M3C-v1.9/M3C-deps_CCC/g09-AM64L-G09RevC.01/l703.exe)
 Compute integral second derivatives, UseDBF=F ICtDFT=           0.
 Integral derivatives from FoFJK, PRISM(SPDF).
 Calling FoFJK, ICntrl=    100127 FMM=F ISym2X=1 I1Cent= 0 IOpClX= 0 NMat=1 NMatS=1 NMatT=0.
 FoFJK:  IHMeth= 1 ICntrl=  100127 DoSepK=F KAlg= 0 I1Cent=   0 FoldK=F
 IRaf=         0 NMat=   1 IRICut=       1 DoRegI=T DoRafI=F ISym2E= 1.
 FoFCou: FMM=F IPFlag=           0 FMFlag=      100000 FMFlg1=         800
         NFxFlg=           0 DoJE=F BraDBF=F KetDBF=F FulRan=T
         wScrn=  0.000000 ICntrl=  100127 IOpCl=  0 I1Cent=           0 NGrid=           0
         NMat0=    1 NMatS0=      1 NMatT0=    0 NMatD0=    1 NMtDS0=    0 NMtDT0=    0
 Petite list used in FoFCou.
 Leave Link  703 at Mon Jun 20 13:27:48 2016, MaxMem=    33554432 cpu:        61.9
 (Enter /home/proyectos/fulerenos/M3C-v1.9/M3C-deps_CCC/g09-AM64L-G09RevC.01/l716.exe)
 Dipole        = 1.09385733D-20-8.88075378D-21 1.17884492D+00
 Polarizability= 1.82025591D+01-5.16001218D-06 1.82025819D+01
                 1.21717621D-03-2.14143136D-03 4.44925718D+01
 Full mass-weighted force constant matrix:
 Low frequencies ---   -2.4498   -2.4303    0.0001    0.0011    0.0012  148.9484
 Low frequencies ---  148.9585  838.6738  838.6741
 Diagonal vibrational polarizability:
        2.1645453       2.1649290       6.6948716
 Harmonic frequencies (cm**-1), IR intensities (KM/Mole), Raman scattering
 activities (A**4/AMU), depolarization ratios for plane and unpolarized
 incident light, reduced masses (AMU), force constants (mDyne/A),
 and normal coordinates:
                      1                      2                      3
                     PI                     PI                     PI
 Frequencies --    148.9482               148.9584               838.6738
 Red. masses --      5.1065                 5.1065                 1.3354
 Frc consts  --      0.0667                 0.0668                 0.5534
 IR Inten    --      1.2656                 1.2652                16.4672
  Atom  AN      X      Y      Z        X      Y      Z        X      Y      Z
     1   6     0.01  -0.27  -0.00    -0.27  -0.01  -0.00    -0.00  -0.00  -0.00
     2   6    -0.02   0.52  -0.00     0.52   0.02  -0.00     0.01   0.07  -0.00
     3   6     0.01  -0.17   0.00    -0.17  -0.01   0.00    -0.01  -0.16   0.00
     4   1     0.04  -0.79   0.00    -0.79  -0.04   0.00     0.09   0.98   0.00
                      4                      5                      6
                     PI                     SG                     SG
 Frequencies --    838.6741              1205.0527              2180.6441
 Red. masses --      1.3354                 8.4338                 6.1646
 Frc consts  --      0.5534                 7.2158                17.2712
 IR Inten    --     16.4675                71.3531               903.3496
  Atom  AN      X      Y      Z        X      Y      Z        X      Y      Z
     1   6    -0.00   0.00   0.00    -0.00  -0.00   0.65    -0.00  -0.00  -0.19
     2   6     0.07  -0.01   0.00     0.00   0.00  -0.12     0.00   0.00   0.57
     3   6    -0.16   0.01  -0.00    -0.00  -0.00  -0.48    -0.00  -0.00  -0.33
     4   1     0.98  -0.09  -0.00    -0.00   0.00  -0.57    -0.00   0.00  -0.73
                      7
                     SG
 Frequencies --   3301.5388
 Red. masses --      1.1718
 Frc consts  --      7.5257
 IR Inten    --    105.2739
  Atom  AN      X      Y      Z
     1   6     0.00   0.00  -0.01
     2   6    -0.00  -0.00   0.04
     3   6     0.00   0.00  -0.12
     4   1     0.00  -0.00   0.99

 -------------------
 - Thermochemistry -
 -------------------
 Temperature   298.150 Kelvin.  Pressure   1.00000 Atm.
 Atom     1 has atomic number  6 and mass  12.00000
 Atom     2 has atomic number  6 and mass  12.00000
 Atom     3 has atomic number  6 and mass  12.00000
 Atom     4 has atomic number  1 and mass   1.00783
 Molecular mass:    37.00783 amu.
 Principal axes and moments of inertia in atomic units:
                           1         2         3
     Eigenvalues --     0.00000 160.31558 160.31558
           X            0.00000   0.85061   0.52580
           Y           -0.00000  -0.52580   0.85061
           Z            1.00000  -0.00000   0.00000
 This molecule is a prolate symmetric top.
 Rotational symmetry number  1.
 Rotational temperature (Kelvin)      0.54027
 Rotational constant (GHZ):          11.257429
 Zero-point vibrational energy      51813.2 (Joules/Mol)
                                   12.38365 (Kcal/Mol)
 Warning -- explicit consideration of   2 degrees of freedom as
           vibrations may cause significant error
 Vibrational temperatures:    214.30   214.32  1206.66  1206.66  1733.80
          (Kelvin)           3137.46  4750.17
 
 Zero-point correction=                           0.019735 (Hartree/Particle)
 Thermal correction to Energy=                    0.023538
 Thermal correction to Enthalpy=                  0.024482
 Thermal correction to Gibbs Free Energy=        -0.002627
 Sum of electronic and zero-point Energies=           -114.357640
 Sum of electronic and thermal Energies=              -114.353837
 Sum of electronic and thermal Enthalpies=            -114.352892
 Sum of electronic and thermal Free Energies=         -114.380002
 
                     E (Thermal)             CV                S
                      KCal/Mol        Cal/Mol-Kelvin    Cal/Mol-Kelvin
 Total                   14.770             10.161             57.056
 Electronic               0.000              0.000              0.000
 Translational            0.889              2.981             36.755
 Rotational               0.592              1.987             14.533
 Vibrational             13.289              5.193              5.768
 Vibration     1          0.618              1.904              2.686
 Vibration     2          0.618              1.904              2.685
                       Q            Log10(Q)             Ln(Q)
 Total Bot       0.161586D+02          1.208404          2.782453
 Total V=0       0.193051D+11         10.285673         23.683637
 Vib (Bot)       0.330891D-08         -8.480315        -19.526646
 Vib (Bot)    1  0.136175D+01          0.134098          0.308771
 Vib (Bot)    2  0.136165D+01          0.134067          0.308700
 Vib (V=0)       0.395325D+01          0.596954          1.374537
 Vib (V=0)    1  0.195064D+01          0.290178          0.668159
 Vib (V=0)    2  0.195055D+01          0.290158          0.668113
 Electronic      0.100000D+01          0.000000          0.000000
 Translational   0.884903D+07          6.946896         15.995818
 Rotational      0.551853D+03          2.741823          6.313282
 
                                                              b3lyp opt
                                                             IR Spectrum
 
     3                                           2                                    1                                              
     3                                           1                                    2             8                          1     
     0                                           8                                    0             3                          4     
     2                                           1                                    5             9                          9     
 
     X                                           X                                    X             X                          X     
     X                                           X                                    X                                              
                                                 X                                                                                   
                                                 X                                                                                   
                                                 X                                                                                   
                                                 X                                                                                   
                                                 X                                                                                   
                                                 X                                                                                   
                                                 X                                                                                   
                                                 X                                                                                   
                                                 X                                                                                   
                                                 X                                                                                   
                                                 X                                                                                   
                                                 X                                                                                   
                                                 X                                                                                   
                                                 X                                                                                   
                                                 X                                                                                   
                                                 X                                                                                   
                                                 X                                                                                   
                                                 X                                                                                   
 
 ***** Axes restored to original set *****
 -------------------------------------------------------------------
 Center     Atomic                   Forces (Hartrees/Bohr)
 Number     Number              X              Y              Z
 -------------------------------------------------------------------
      1        6           0.000056250   -0.000000000   -0.000000000
      2        6          -0.000008767    0.000000000    0.000000000
      3        6          -0.000071105    0.000000000    0.000000000
      4        1           0.000023622   -0.000000000   -0.000000000
 -------------------------------------------------------------------
 Cartesian Forces:  Max     0.000071105 RMS     0.000027164
 Z-matrix is all fixed cartesians, so copy forces.
 Force constants in Cartesian coordinates: 
                1             2             3             4             5 
      1  0.549065D+00
      2 -0.258834D-05  0.179932D-02
      3  0.000000D+00  0.000000D+00  0.179948D-02
      4 -0.536411D+00 -0.631778D-04 -0.763720D-05  0.146944D+01
      5  0.605613D-05 -0.347151D-02  0.000000D+00  0.150212D-03  0.219506D-01
      6  0.000000D+00  0.000000D+00 -0.347191D-02 -0.216565D-04  0.000000D+00
      7 -0.655923D-02  0.529337D-04  0.650116D-05 -0.953098D+00 -0.125769D-03
      8 -0.361466D-05  0.135109D-02  0.000000D+00 -0.905347D-04 -0.351930D-01
      9  0.000000D+00  0.000000D+00  0.135133D-02  0.235961D-04  0.000000D+00
     10 -0.609469D-02  0.128324D-04  0.157777D-05  0.200672D-01 -0.304995D-04
     11  0.000000D+00  0.321097D-03  0.000000D+00  0.350043D-05  0.167139D-01
     12  0.000000D+00  0.000000D+00  0.321099D-03  0.569759D-05  0.000000D+00
                6             7             8             9            10 
      6  0.219517D-01
      7  0.180584D-04  0.134373D+01
      8  0.000000D+00  0.757283D-04  0.706233D-01
      9 -0.351937D-01 -0.198719D-04  0.000000D+00  0.706237D-01
     10  0.435915D-05 -0.384069D+00  0.184209D-04 -0.468709D-05  0.370096D+00
     11  0.000000D+00 -0.289345D-05 -0.367814D-01  0.000000D+00  0.000000D+00
     12  0.167139D-01 -0.468771D-05  0.000000D+00 -0.367814D-01 -0.124983D-05
               11            12 
     11  0.197464D-01
     12  0.000000D+00  0.197464D-01
 Leave Link  716 at Mon Jun 20 13:27:48 2016, MaxMem=    33554432 cpu:         0.1
 (Enter /home/proyectos/fulerenos/M3C-v1.9/M3C-deps_CCC/g09-AM64L-G09RevC.01/l103.exe)

 GradGradGradGradGradGradGradGradGradGradGradGradGradGradGradGradGradGrad
 Berny optimization.
 Search for a local minimum.
 Step number   1 out of a maximum of    2
 All quantities printed in internal units (Hartrees-Bohrs-Radians)
 Second derivative matrix not updated -- analytic derivatives used.
 The second derivative matrix:
                          X1        Y1        Z1        X2        Y2
           X1           0.54907
           Y1          -0.00000   0.00180
           Z1          -0.00000  -0.00000   0.00180
           X2          -0.53641  -0.00006  -0.00001   1.46944
           Y2           0.00001  -0.00347   0.00000   0.00015   0.02195
           Z2          -0.00000   0.00000  -0.00347  -0.00002  -0.00000
           X3          -0.00656   0.00005   0.00001  -0.95310  -0.00013
           Y3          -0.00000   0.00135  -0.00000  -0.00009  -0.03519
           Z3           0.00000   0.00000   0.00135   0.00002  -0.00000
           X4          -0.00609   0.00001   0.00000   0.02007  -0.00003
           Y4           0.00000   0.00032  -0.00000   0.00000   0.01671
           Z4           0.00000  -0.00000   0.00032   0.00001   0.00000
                          Z2        X3        Y3        Z3        X4
           Z2           0.02195
           X3           0.00002   1.34373
           Y3           0.00000   0.00008   0.07062
           Z3          -0.03519  -0.00002   0.00000   0.07062
           X4           0.00000  -0.38407   0.00002  -0.00000   0.37010
           Y4          -0.00000  -0.00000  -0.03678   0.00000  -0.00000
           Z4           0.01671  -0.00000  -0.00000  -0.03678  -0.00000
                          Y4        Z4
           Y4           0.01975
           Z4           0.00000   0.01975
 ITU=  0
     Eigenvalues ---    0.00586   0.00586   0.09787   0.09787   0.31523
     Eigenvalues ---    0.90336   2.47281
 Angle between quadratic step and forces=  20.96 degrees.
 ClnCor:  largest displacement from symmetrization is 5.79D-07 for atom     2.
 Linear search not attempted -- first point.
 ClnCor:  largest displacement from symmetrization is 4.44D-16 for atom     3.
 B after Tr=     0.000000   -0.000000   -0.000000
         Rot=    1.000000   -0.000000    0.000000    0.000000 Ang=   0.00 deg.
 Variable       Old X    -DE/DX   Delta X   Delta X   Delta X     New X
                                 (Linear)    (Quad)   (Total)
    X1       -2.69145   0.00006   0.00000   0.00008   0.00008  -2.69136
    Y1        0.00000  -0.00000   0.00000  -0.00000  -0.00000   0.00000
    Z1        0.00000  -0.00000   0.00000  -0.00000  -0.00000   0.00000
    X2       -0.16409  -0.00001   0.00000  -0.00002  -0.00002  -0.16411
    Y2        0.00000   0.00000   0.00000   0.00000   0.00000   0.00000
    Z2        0.00000   0.00000   0.00000   0.00000   0.00000   0.00000
    X3        2.15589  -0.00007   0.00000  -0.00007  -0.00007   2.15583
    Y3       -0.00000   0.00000   0.00000   0.00000   0.00000  -0.00000
    Z3       -0.00000   0.00000   0.00000   0.00000   0.00000  -0.00000
    X4        4.19789   0.00002   0.00000  -0.00000  -0.00000   4.19789
    Y4       -0.00000  -0.00000   0.00000   0.00000   0.00000  -0.00000
    Z4       -0.00000  -0.00000   0.00000   0.00000   0.00000  -0.00000
         Item               Value     Threshold  Converged?
 Maximum Force            0.000071     0.000450     YES
 RMS     Force            0.000027     0.000300     YES
 Maximum Displacement     0.000085     0.001800     YES
 RMS     Displacement     0.000031     0.001200     YES
 Predicted change in Energy=-4.759840D-09
 Optimization completed.
    -- Stationary point found.
 GradGradGradGradGradGradGradGradGradGradGradGradGradGradGradGradGradGrad

 Leave Link  103 at Mon Jun 20 13:27:48 2016, MaxMem=    33554432 cpu:         0.1
 (Enter /home/proyectos/fulerenos/M3C-v1.9/M3C-deps_CCC/g09-AM64L-G09RevC.01/l9999.exe)
 1\1\GINC-BELVIS17\Freq\RB3LYP\6-311++G(3df,2p)\C3H1(1+)\ROOT\20-Jun-20
 16\0\\#p b3lyp/6-311++G(3df,2p) freq symmetry=Loose\\b3lyp opt\\1,1\C,
 -1.424252,0.0000001542,0.0000003398\C,-0.086835,0.0000000094,0.0000000
 207\C,1.140849,-0.0000001235,-0.0000002721\H,2.221427,-0.0000002405,-0
 .0000005299\\Version=EM64L-G09RevE.01\State=1-SG\HF=-114.3773746\RMSD=
 2.503e-09\RMSF=2.716e-05\ZeroPoint=0.0197346\Thermal=0.023538\Dipole=1
 .1788449,-0.0000001,-0.0000003\DipoleDeriv=1.9025143,0.0000074,0.00000
 52,-0.0005798,0.126939,-0.0000001,-0.0000715,0.0000004,0.1269357,-2.33
 9129,0.0002236,0.0001352,0.0013795,0.3200996,0.0000003,-0.0001921,0.00
 00008,0.3201072,0.8745139,-0.0001869,-0.0001128,-0.0008314,0.3663619,-
 0.0000002,0.0002122,-0.000001,0.3663573,0.5621007,-0.000044,-0.0000276
 ,0.0000316,0.1865995,0.,0.0000514,-0.0000002,0.1865997\Polar=44.492571
 8,-0.0021443,18.2025819,-0.0012234,0.0000052,18.2025591\PG=C*V [C*(C1C
 1C1H1)]\NImag=0\\0.54906511,-0.00000259,0.00179932,-0.00000044,-0.0000
 0002,0.00179948,-0.53641119,-0.00006318,-0.00000764,1.46944241,0.00000
 606,-0.00347151,0.00000004,0.00015021,0.02195062,-0.00000076,0.0000000
 2,-0.00347191,-0.00002166,-0.00000004,0.02195166,-0.00655923,0.0000529
 3,0.00000650,-0.95309846,-0.00012577,0.00001806,1.34372624,-0.00000361
 ,0.00135109,-0.00000003,-0.00009053,-0.03519303,0.00000002,0.00007573,
 0.07062332,0.00000096,0.,0.00135133,0.00002360,-0.00000001,-0.03519366
 ,-0.00001987,0.,0.07062371,-0.00609469,0.00001283,0.00000158,0.0200672
 4,-0.00003050,0.00000436,-0.38406855,0.00001842,-0.00000469,0.37009601
 ,0.00000015,0.00032110,0.,0.00000350,0.01671392,0.,-0.00000289,-0.0367
 8139,0.,-0.00000075,0.01974637,0.00000024,0.,0.00032110,0.00000570,0.0
 0000001,0.01671390,-0.00000469,0.,-0.03678138,-0.00000125,0.,0.0197463
 7\\-0.00005625,0.,0.,0.00000877,0.,0.,0.00007111,0.,0.,-0.00002362,0.,
 0.\\\@


 A MATHEMATICIAN IS A MACHINE FOR TURNING COFFEE INTO THEOREMS.
     -- QUOTED BY PAUL ERDOS
 Job cpu time:       0 days  0 hours  3 minutes 45.9 seconds.
 File lengths (MBytes):  RWF=     11 Int=      0 D2E=      0 Chk=      2 Scr=      1
 Normal termination of Gaussian 09 at Mon Jun 20 13:27:48 2016.
