 Entering Gaussian System, Link 0=/home/proyectos/fulerenos/M3C-v1.9/M3C-deps_CCC/g09-AM64L-G09RevC.01/g09
 Initial command:
 /home/proyectos/fulerenos/M3C-v1.9/M3C-deps_CCC/g09-AM64L-G09RevC.01/l1.exe "/scratch/naguirre/gaussian/Gau-21121.inp" -scrdir="/scratch/naguirre/gaussian/"
 Entering Link 1 = /home/proyectos/fulerenos/M3C-v1.9/M3C-deps_CCC/g09-AM64L-G09RevC.01/l1.exe PID=     21129.
  
 Copyright (c) 1988,1990,1992,1993,1995,1998,2003,2009,2015,
            Gaussian, Inc.  All Rights Reserved.
  
 This is part of the Gaussian(R) 09 program.  It is based on
 the Gaussian(R) 03 system (copyright 2003, Gaussian, Inc.),
 the Gaussian(R) 98 system (copyright 1998, Gaussian, Inc.),
 the Gaussian(R) 94 system (copyright 1995, Gaussian, Inc.),
 the Gaussian 92(TM) system (copyright 1992, Gaussian, Inc.),
 the Gaussian 90(TM) system (copyright 1990, Gaussian, Inc.),
 the Gaussian 88(TM) system (copyright 1988, Gaussian, Inc.),
 the Gaussian 86(TM) system (copyright 1986, Carnegie Mellon
 University), and the Gaussian 82(TM) system (copyright 1983,
 Carnegie Mellon University). Gaussian is a federally registered
 trademark of Gaussian, Inc.
  
 This software contains proprietary and confidential information,
 including trade secrets, belonging to Gaussian, Inc.
  
 This software is provided under written license and may be
 used, copied, transmitted, or stored only in accord with that
 written license.
  
 The following legend is applicable only to US Government
 contracts under FAR:
  
                    RESTRICTED RIGHTS LEGEND
  
 Use, reproduction and disclosure by the US Government is
 subject to restrictions as set forth in subparagraphs (a)
 and (c) of the Commercial Computer Software - Restricted
 Rights clause in FAR 52.227-19.
  
 Gaussian, Inc.
 340 Quinnipiac St., Bldg. 40, Wallingford CT 06492
  
  
 ---------------------------------------------------------------
 Warning -- This program may not be used in any manner that
 competes with the business of Gaussian, Inc. or will provide
 assistance to any competitor of Gaussian, Inc.  The licensee
 of this program is prohibited from giving any competitor of
 Gaussian, Inc. access to this program.  By using this program,
 the user acknowledges that Gaussian, Inc. is engaged in the
 business of creating and licensing software in the field of
 computational chemistry and represents and warrants to the
 licensee that it is not a competitor of Gaussian, Inc. and that
 it will not use this program in any manner prohibited above.
 ---------------------------------------------------------------
  

 Cite this work as:
 Gaussian 09, Revision E.01,
 M. J. Frisch, G. W. Trucks, H. B. Schlegel, G. E. Scuseria, 
 M. A. Robb, J. R. Cheeseman, G. Scalmani, V. Barone, B. Mennucci, 
 G. A. Petersson, H. Nakatsuji, M. Caricato, X. Li, H. P. Hratchian, 
 A. F. Izmaylov, J. Bloino, G. Zheng, J. L. Sonnenberg, M. Hada, 
 M. Ehara, K. Toyota, R. Fukuda, J. Hasegawa, M. Ishida, T. Nakajima, 
 Y. Honda, O. Kitao, H. Nakai, T. Vreven, J. A. Montgomery, Jr., 
 J. E. Peralta, F. Ogliaro, M. Bearpark, J. J. Heyd, E. Brothers, 
 K. N. Kudin, V. N. Staroverov, T. Keith, R. Kobayashi, J. Normand, 
 K. Raghavachari, A. Rendell, J. C. Burant, S. S. Iyengar, J. Tomasi, 
 M. Cossi, N. Rega, J. M. Millam, M. Klene, J. E. Knox, J. B. Cross, 
 V. Bakken, C. Adamo, J. Jaramillo, R. Gomperts, R. E. Stratmann, 
 O. Yazyev, A. J. Austin, R. Cammi, C. Pomelli, J. W. Ochterski, 
 R. L. Martin, K. Morokuma, V. G. Zakrzewski, G. A. Voth, 
 P. Salvador, J. J. Dannenberg, S. Dapprich, A. D. Daniels, 
 O. Farkas, J. B. Foresman, J. V. Ortiz, J. Cioslowski, 
 and D. J. Fox, Gaussian, Inc., Wallingford CT, 2013.
 
 ******************************************
 Gaussian 09:  EM64L-G09RevE.01 30-Nov-2015
                20-Jun-2016 
 ******************************************
 %NProcShared=4
 Will use up to    4 processors via shared memory.
 ---------------------------------------------
 #p b3lyp/6-311++G(3df,2p) freq symmetry=Loose
 ---------------------------------------------
 1/10=4,30=1,38=1/1,3;
 2/12=2,17=4,18=3,40=1/2;
 3/5=4,6=6,7=1216,11=2,16=1,25=1,30=1,71=2,74=-5,140=1/1,2,3;
 4//1;
 5/5=2,38=5,98=1/2;
 8/6=4,10=90,11=11/1;
 11/6=1,8=1,9=11,15=111,16=1/1,2,10;
 10/6=1/2;
 6/7=2,8=2,9=2,10=2,18=1,28=1/1;
 7/8=1,10=1,25=1/1,2,3,16;
 1/10=4,30=1/3;
 99//99;
 Leave Link    1 at Mon Jun 20 13:26:49 2016, MaxMem=           0 cpu:         0.3
 (Enter /home/proyectos/fulerenos/M3C-v1.9/M3C-deps_CCC/g09-AM64L-G09RevC.01/l101.exe)
 ---------
 b3lyp opt
 ---------
 Symbolic Z-matrix:
 Charge =  3 Multiplicity = 1
 H                    -0.50214   2.53457   0. 
 C                    -0.2715    1.38446   0. 
 C                    -0.0012    0.01464   0. 
 C                     0.35695  -1.82144   0. 
 
 NAtoms=      4 NQM=        4 NQMF=       0 NMMI=      0 NMMIF=      0
                NMic=       0 NMicF=      0.
                    Isotopes and Nuclear Properties:
 (Nuclear quadrupole moments (NQMom) in fm**2, nuclear magnetic moments (NMagM)
  in nuclear magnetons)

  Atom         1           2           3           4
 IAtWgt=           1          12          12          12
 AtmWgt=   1.0078250  12.0000000  12.0000000  12.0000000
 NucSpn=           1           0           0           0
 AtZEff=   0.0000000   0.0000000   0.0000000   0.0000000
 NQMom=    0.0000000   0.0000000   0.0000000   0.0000000
 NMagM=    2.7928460   0.0000000   0.0000000   0.0000000
 AtZNuc=   1.0000000   6.0000000   6.0000000   6.0000000
 Leave Link  101 at Mon Jun 20 13:26:49 2016, MaxMem=    33554432 cpu:         0.2
 (Enter /home/proyectos/fulerenos/M3C-v1.9/M3C-deps_CCC/g09-AM64L-G09RevC.01/l103.exe)

 GradGradGradGradGradGradGradGradGradGradGradGradGradGradGradGradGradGrad
 Berny optimization.
 Initialization pass.
 Trust Radius=3.00D-01 FncErr=1.00D-07 GrdErr=1.00D-07
 Number of steps in this run=      2 maximum allowed number of steps=      2.
 GradGradGradGradGradGradGradGradGradGradGradGradGradGradGradGradGradGrad

 Leave Link  103 at Mon Jun 20 13:26:49 2016, MaxMem=    33554432 cpu:         0.1
 (Enter /home/proyectos/fulerenos/M3C-v1.9/M3C-deps_CCC/g09-AM64L-G09RevC.01/l202.exe)
                          Input orientation:                          
 ---------------------------------------------------------------------
 Center     Atomic      Atomic             Coordinates (Angstroms)
 Number     Number       Type             X           Y           Z
 ---------------------------------------------------------------------
      1          1           0       -0.502137    2.534567    0.000000
      2          6           0       -0.271497    1.384457    0.000000
      3          6           0       -0.001203    0.014638    0.000000
      4          6           0        0.356949   -1.821443    0.000000
 ---------------------------------------------------------------------
                    Distance matrix (angstroms):
                    1          2          3          4
     1  H    0.000000
     2  C    1.173008   0.000000
     3  C    2.569237   1.396232   0.000000
     4  C    4.439916   3.266916   1.870686   0.000000
 Stoichiometry    C3H(3+)
 Framework group  C*V[C*(HCCC)]
 Deg. of freedom     3
 Full point group                 C*V     NOp   4
 Largest Abelian subgroup         C2V     NOp   4
 Largest concise Abelian subgroup C1      NOp   1
                         Standard orientation:                         
 ---------------------------------------------------------------------
 Center     Atomic      Atomic             Coordinates (Angstroms)
 Number     Number       Type             X           Y           Z
 ---------------------------------------------------------------------
      1          1           0       -0.000000   -0.000000   -2.583835
      2          6           0       -0.000000   -0.000000   -1.410836
      3          6           0       -0.000000   -0.000000   -0.014605
      4          6           0        0.000000    0.000000    1.856080
 ---------------------------------------------------------------------
 Rotational constants (GHZ):      0.0000000      7.0407351      7.0407351
 Leave Link  202 at Mon Jun 20 13:26:49 2016, MaxMem=    33554432 cpu:         0.0
 (Enter /home/proyectos/fulerenos/M3C-v1.9/M3C-deps_CCC/g09-AM64L-G09RevC.01/l301.exe)
 Standard basis: 6-311++G(3df,2p) (5D, 7F)
 Ernie: Thresh=  0.10000D-02 Tol=  0.10000D-05 Strict=F.
 There are    69 symmetry adapted cartesian basis functions of A1  symmetry.
 There are    12 symmetry adapted cartesian basis functions of A2  symmetry.
 There are    32 symmetry adapted cartesian basis functions of B1  symmetry.
 There are    32 symmetry adapted cartesian basis functions of B2  symmetry.
 There are    57 symmetry adapted basis functions of A1  symmetry.
 There are    12 symmetry adapted basis functions of A2  symmetry.
 There are    29 symmetry adapted basis functions of B1  symmetry.
 There are    29 symmetry adapted basis functions of B2  symmetry.
   127 basis functions,   186 primitive gaussians,   145 cartesian basis functions
     8 alpha electrons        8 beta electrons
       nuclear repulsion energy        34.3168036435 Hartrees.
 IExCor=  402 DFT=T Ex+Corr=B3LYP ExCW=0 ScaHFX=  0.200000
 ScaDFX=  0.800000  0.720000  1.000000  0.810000 ScalE2=  1.000000  1.000000
 IRadAn=      0 IRanWt=     -1 IRanGd=            0 ICorTp=0 IEmpDi=  4
 NAtoms=    4 NActive=    4 NUniq=    4 SFac= 1.00D+00 NAtFMM=   60 NAOKFM=F Big=F
 Integral buffers will be    131072 words long.
 Raffenetti 2 integral format.
 Two-electron integral symmetry is turned on.
 Leave Link  301 at Mon Jun 20 13:26:49 2016, MaxMem=    33554432 cpu:         0.2
 (Enter /home/proyectos/fulerenos/M3C-v1.9/M3C-deps_CCC/g09-AM64L-G09RevC.01/l302.exe)
 NPDir=0 NMtPBC=     1 NCelOv=     1 NCel=       1 NClECP=     1 NCelD=      1
         NCelK=      1 NCelE2=     1 NClLst=     1 CellRange=     0.0.
 One-electron integrals computed using PRISM.
 NBasis=   127 RedAO= T EigKep=  1.29D-05  NBF=    57    12    29    29
 NBsUse=   127 1.00D-06 EigRej= -1.00D+00 NBFU=    57    12    29    29
 Precomputing XC quadrature grid using
 IXCGrd= 4 IRadAn=           0 IRanWt=          -1 IRanGd=           0 AccXCQ= 0.00D+00.
 Generated NRdTot=       0 NPtTot=           0 NUsed=           0 NTot=          32
 NSgBfM=   145   145   145   145   145 MxSgAt=     4 MxSgA2=     4.
 Leave Link  302 at Mon Jun 20 13:26:49 2016, MaxMem=    33554432 cpu:         0.9
 (Enter /home/proyectos/fulerenos/M3C-v1.9/M3C-deps_CCC/g09-AM64L-G09RevC.01/l303.exe)
 DipDrv:  MaxL=1.
 Leave Link  303 at Mon Jun 20 13:26:50 2016, MaxMem=    33554432 cpu:         0.1
 (Enter /home/proyectos/fulerenos/M3C-v1.9/M3C-deps_CCC/g09-AM64L-G09RevC.01/l401.exe)
 ExpMin= 3.60D-02 ExpMax= 4.56D+03 ExpMxC= 6.82D+02 IAcc=3 IRadAn=         5 AccDes= 0.00D+00
 Harris functional with IExCor=  402 and IRadAn=       5 diagonalized for initial guess.
 HarFok:  IExCor=  402 AccDes= 0.00D+00 IRadAn=         5 IDoV= 1 UseB2=F ITyADJ=14
 ICtDFT=  3500011 ScaDFX=  1.000000  1.000000  1.000000  1.000000
 FoFCou: FMM=F IPFlag=           0 FMFlag=      100000 FMFlg1=           0
         NFxFlg=           0 DoJE=T BraDBF=F KetDBF=T FulRan=T
         wScrn=  0.000000 ICntrl=     500 IOpCl=  0 I1Cent=   200000004 NGrid=           0
         NMat0=    1 NMatS0=      1 NMatT0=    0 NMatD0=    1 NMtDS0=    0 NMtDT0=    0
 Petite list used in FoFCou.
 Harris En= -113.755805902130    
 JPrj=0 DoOrth=F DoCkMO=F.
 Initial guess orbital symmetries:
       Occupied  (SG) (SG) (SG) (SG) (SG) (SG) (SG) (PI)
       Virtual   (PI) (PI) (PI) (PI) (PI) (SG) (SG) (SG) (PI) (PI)
                 (SG) (SG) (PI) (PI) (SG) (PI) (PI) (SG) (SG) (DLTA)
                 (DLTA) (SG) (DLTA) (DLTA) (SG) (PI) (PI) (SG)
                 (PI) (PI) (SG) (DLTA) (DLTA) (SG) (PI) (PI) (PI)
                 (PI) (SG) (SG) (SG) (PI) (PI) (PI) (PI) (SG) (PI)
                 (PI) (SG) (SG) (SG) (DLTA) (DLTA) (SG) (PI) (PI)
                 (SG) (DLTA) (DLTA) (PI) (PI) (DLTA) (DLTA) (PI)
                 (PI) (SG) (SG) (DLTA) (DLTA) (PI) (PI) (SG) (PI)
                 (PI) (PHI) (PHI) (PI) (PI) (PHI) (PHI) (DLTA)
                 (DLTA) (PI) (PI) (SG) (PHI) (PHI) (SG) (SG) (PI)
                 (PI) (DLTA) (DLTA) (SG) (PI) (PI) (SG) (SG) (PI)
                 (PI) (SG) (DLTA) (DLTA) (DLTA) (DLTA) (PI) (PI)
                 (DLTA) (DLTA) (SG) (PI) (PI) (PI) (PI) (SG) (SG)
                 (SG) (SG) (SG)
 Leave Link  401 at Mon Jun 20 13:26:50 2016, MaxMem=    33554432 cpu:         1.4
 (Enter /home/proyectos/fulerenos/M3C-v1.9/M3C-deps_CCC/g09-AM64L-G09RevC.01/l502.exe)
 Closed shell SCF:
 Using DIIS extrapolation, IDIIS=  1040.
 Integral symmetry usage will be decided dynamically.
 IVT=       83644 IEndB=       83644 NGot=    33554432 MDV=    33508599
 LenX=    33508599 LenY=    33487133
 Requested convergence on RMS density matrix=1.00D-08 within 128 cycles.
 Requested convergence on MAX density matrix=1.00D-06.
 Requested convergence on             energy=1.00D-06.
 No special actions if energy rises.
 Fock matrices will be formed incrementally for  20 cycles.

 Cycle   1  Pass 1  IDiag  1:
 FoFJK:  IHMeth= 1 ICntrl=       0 DoSepK=F KAlg= 0 I1Cent=   0 FoldK=F
 IRaf= 980000000 NMat=   1 IRICut=       1 DoRegI=T DoRafI=F ISym2E= 1.
 FoFCou: FMM=F IPFlag=           0 FMFlag=      100000 FMFlg1=           0
         NFxFlg=           0 DoJE=F BraDBF=F KetDBF=F FulRan=T
         wScrn=  0.000000 ICntrl=       0 IOpCl=  0 I1Cent=           0 NGrid=           0
         NMat0=    1 NMatS0=      1 NMatT0=    0 NMatD0=    1 NMtDS0=    0 NMtDT0=    0
 Petite list used in FoFCou.
 E= -112.422657439531    
 DIIS: error= 3.23D-02 at cycle   1 NSaved=   1.
 NSaved= 1 IEnMin= 1 EnMin= -112.422657439531     IErMin= 1 ErrMin= 3.23D-02
 ErrMax= 3.23D-02  0.00D+00 EMaxC= 1.00D-01 BMatC= 9.02D-02 BMatP= 9.02D-02
 IDIUse=3 WtCom= 6.77D-01 WtEn= 3.23D-01
 Coeff-Com:  0.100D+01
 Coeff-En:   0.100D+01
 Coeff:      0.100D+01
 Gap=     0.064 Goal=   None    Shift=    0.000
 GapD=    0.064 DampG=0.500 DampE=0.500 DampFc=0.2500 IDamp=-1.
 Damping current iteration by 2.50D-01
 RMSDP=8.35D-03 MaxDP=3.24D-01              OVMax= 3.30D-01

 Cycle   2  Pass 1  IDiag  1:
 RMSU=  2.05D-03    CP:  9.87D-01
 E= -112.467330299778     Delta-E=       -0.044672860246 Rises=F Damp=T
 DIIS: error= 2.16D-02 at cycle   2 NSaved=   2.
 NSaved= 2 IEnMin= 2 EnMin= -112.467330299778     IErMin= 2 ErrMin= 2.16D-02
 ErrMax= 2.16D-02  0.00D+00 EMaxC= 1.00D-01 BMatC= 3.84D-02 BMatP= 9.02D-02
 IDIUse=3 WtCom= 7.84D-01 WtEn= 2.16D-01
 Coeff-Com: -0.143D+01 0.243D+01
 Coeff-En:   0.000D+00 0.100D+01
 Coeff:     -0.112D+01 0.212D+01
 Gap=     0.090 Goal=   None    Shift=    0.000
 RMSDP=4.59D-03 MaxDP=1.62D-01 DE=-4.47D-02 OVMax= 3.05D-01

 Cycle   3  Pass 1  IDiag  1:
 RMSU=  3.39D-03    CP:  1.02D+00  2.43D+00
 E= -112.544190050937     Delta-E=       -0.076859751160 Rises=F Damp=F
 DIIS: error= 2.07D-02 at cycle   3 NSaved=   3.
 NSaved= 3 IEnMin= 3 EnMin= -112.544190050937     IErMin= 3 ErrMin= 2.07D-02
 ErrMax= 2.07D-02  0.00D+00 EMaxC= 1.00D-01 BMatC= 2.01D-02 BMatP= 3.84D-02
 IDIUse=3 WtCom= 7.93D-01 WtEn= 2.07D-01
 Coeff-Com: -0.979D+00 0.155D+01 0.430D+00
 Coeff-En:   0.000D+00 0.000D+00 0.100D+01
 Coeff:     -0.777D+00 0.123D+01 0.547D+00
 Gap=     0.069 Goal=   None    Shift=    0.000
 RMSDP=2.58D-03 MaxDP=1.13D-01 DE=-7.69D-02 OVMax= 1.58D-01

 Cycle   4  Pass 1  IDiag  1:
 RMSU=  1.70D-03    CP:  1.05D+00  2.79D+00  5.28D-01
 E= -112.566080309197     Delta-E=       -0.021890258260 Rises=F Damp=F
 DIIS: error= 8.83D-03 at cycle   4 NSaved=   4.
 NSaved= 4 IEnMin= 4 EnMin= -112.566080309197     IErMin= 4 ErrMin= 8.83D-03
 ErrMax= 8.83D-03  0.00D+00 EMaxC= 1.00D-01 BMatC= 2.99D-03 BMatP= 2.01D-02
 IDIUse=3 WtCom= 9.12D-01 WtEn= 8.83D-02
 Coeff-Com:  0.120D+00-0.160D+00 0.258D+00 0.782D+00
 Coeff-En:   0.000D+00 0.000D+00 0.176D+00 0.824D+00
 Coeff:      0.109D+00-0.146D+00 0.251D+00 0.786D+00
 Gap=     0.068 Goal=   None    Shift=    0.000
 RMSDP=6.91D-04 MaxDP=2.29D-02 DE=-2.19D-02 OVMax= 5.34D-02

 Cycle   5  Pass 1  IDiag  1:
 RMSU=  2.53D-04    CP:  1.06D+00  2.64D+00  6.53D-01  9.59D-01
 E= -112.570225099783     Delta-E=       -0.004144790586 Rises=F Damp=F
 DIIS: error= 6.78D-04 at cycle   5 NSaved=   5.
 NSaved= 5 IEnMin= 5 EnMin= -112.570225099783     IErMin= 5 ErrMin= 6.78D-04
 ErrMax= 6.78D-04  0.00D+00 EMaxC= 1.00D-01 BMatC= 2.13D-05 BMatP= 2.99D-03
 IDIUse=3 WtCom= 9.93D-01 WtEn= 6.78D-03
 Coeff-Com: -0.275D-01 0.375D-01-0.117D-01 0.233D-01 0.978D+00
 Coeff-En:   0.000D+00 0.000D+00 0.000D+00 0.000D+00 0.100D+01
 Coeff:     -0.273D-01 0.373D-01-0.116D-01 0.231D-01 0.978D+00
 Gap=     0.068 Goal=   None    Shift=    0.000
 RMSDP=6.83D-05 MaxDP=3.18D-03 DE=-4.14D-03 OVMax= 3.23D-03

 Cycle   6  Pass 1  IDiag  1:
 RMSU=  3.75D-05    CP:  1.06D+00  2.64D+00  6.43D-01  9.66D-01  1.00D+00
 E= -112.570252097429     Delta-E=       -0.000026997646 Rises=F Damp=F
 DIIS: error= 1.79D-04 at cycle   6 NSaved=   6.
 NSaved= 6 IEnMin= 6 EnMin= -112.570252097429     IErMin= 6 ErrMin= 1.79D-04
 ErrMax= 1.79D-04  0.00D+00 EMaxC= 1.00D-01 BMatC= 1.59D-06 BMatP= 2.13D-05
 IDIUse=3 WtCom= 9.98D-01 WtEn= 1.79D-03
 Coeff-Com: -0.165D-01 0.220D-01-0.111D-01 0.842D-02 0.608D+00 0.389D+00
 Coeff-En:   0.000D+00 0.000D+00 0.000D+00 0.000D+00 0.000D+00 0.100D+01
 Coeff:     -0.165D-01 0.220D-01-0.111D-01 0.840D-02 0.607D+00 0.390D+00
 Gap=     0.068 Goal=   None    Shift=    0.000
 RMSDP=3.65D-05 MaxDP=1.82D-03 DE=-2.70D-05 OVMax= 9.18D-04

 Cycle   7  Pass 1  IDiag  1:
 RMSU=  1.81D-05    CP:  1.06D+00  2.64D+00  6.39D-01  9.76D-01  1.06D+00
                    CP:  9.39D-01
 E= -112.570254539993     Delta-E=       -0.000002442564 Rises=F Damp=F
 DIIS: error= 5.84D-05 at cycle   7 NSaved=   7.
 NSaved= 7 IEnMin= 7 EnMin= -112.570254539993     IErMin= 7 ErrMin= 5.84D-05
 ErrMax= 5.84D-05  0.00D+00 EMaxC= 1.00D-01 BMatC= 1.44D-07 BMatP= 1.59D-06
 IDIUse=1 WtCom= 1.00D+00 WtEn= 0.00D+00
 Coeff-Com: -0.383D-02 0.538D-02-0.394D-02-0.126D-01-0.598D-01 0.834D-01
 Coeff-Com:  0.991D+00
 Coeff:     -0.383D-02 0.538D-02-0.394D-02-0.126D-01-0.598D-01 0.834D-01
 Coeff:      0.991D+00
 Gap=     0.068 Goal=   None    Shift=    0.000
 RMSDP=1.23D-05 MaxDP=6.37D-04 DE=-2.44D-06 OVMax= 5.27D-04

 Cycle   8  Pass 1  IDiag  1:
 RMSU=  5.13D-06    CP:  1.06D+00  2.64D+00  6.38D-01  9.80D-01  1.07D+00
                    CP:  1.02D+00  8.61D-01
 E= -112.570254786504     Delta-E=       -0.000000246511 Rises=F Damp=F
 DIIS: error= 1.68D-05 at cycle   8 NSaved=   8.
 NSaved= 8 IEnMin= 8 EnMin= -112.570254786504     IErMin= 8 ErrMin= 1.68D-05
 ErrMax= 1.68D-05  0.00D+00 EMaxC= 1.00D-01 BMatC= 1.30D-08 BMatP= 1.44D-07
 IDIUse=1 WtCom= 1.00D+00 WtEn= 0.00D+00
 Coeff-Com:  0.189D-03-0.229D-03-0.131D-03-0.129D-02-0.223D-01-0.804D-01
 Coeff-Com:  0.136D+00 0.969D+00
 Coeff:      0.189D-03-0.229D-03-0.131D-03-0.129D-02-0.223D-01-0.804D-01
 Coeff:      0.136D+00 0.969D+00
 Gap=     0.068 Goal=   None    Shift=    0.000
 RMSDP=4.34D-06 MaxDP=2.19D-04 DE=-2.47D-07 OVMax= 1.13D-04

 Cycle   9  Pass 1  IDiag  1:
 RMSU=  4.86D-07    CP:  1.06D+00  2.64D+00  6.37D-01  9.82D-01  1.08D+00
                    CP:  1.03D+00  9.46D-01  1.11D+00
 E= -112.570254809163     Delta-E=       -0.000000022659 Rises=F Damp=F
 DIIS: error= 1.12D-06 at cycle   9 NSaved=   9.
 NSaved= 9 IEnMin= 9 EnMin= -112.570254809163     IErMin= 9 ErrMin= 1.12D-06
 ErrMax= 1.12D-06  0.00D+00 EMaxC= 1.00D-01 BMatC= 4.12D-11 BMatP= 1.30D-08
 IDIUse=1 WtCom= 1.00D+00 WtEn= 0.00D+00
 Coeff-Com:  0.271D-04-0.368D-04 0.262D-04 0.690D-04-0.223D-03-0.584D-02
 Coeff-Com: -0.142D-01 0.486D-01 0.972D+00
 Coeff:      0.271D-04-0.368D-04 0.262D-04 0.690D-04-0.223D-03-0.584D-02
 Coeff:     -0.142D-01 0.486D-01 0.972D+00
 Gap=     0.068 Goal=   None    Shift=    0.000
 RMSDP=1.70D-07 MaxDP=8.29D-06 DE=-2.27D-08 OVMax= 5.26D-06

 Cycle  10  Pass 1  IDiag  1:
 RMSU=  3.83D-08    CP:  1.06D+00  2.64D+00  6.37D-01  9.82D-01  1.08D+00
                    CP:  1.03D+00  9.47D-01  1.12D+00  9.61D-01
 E= -112.570254809219     Delta-E=       -0.000000000055 Rises=F Damp=F
 DIIS: error= 1.60D-07 at cycle  10 NSaved=  10.
 NSaved=10 IEnMin=10 EnMin= -112.570254809219     IErMin=10 ErrMin= 1.60D-07
 ErrMax= 1.60D-07  0.00D+00 EMaxC= 1.00D-01 BMatC= 1.66D-12 BMatP= 4.12D-11
 IDIUse=1 WtCom= 1.00D+00 WtEn= 0.00D+00
 Coeff-Com: -0.673D-05 0.888D-05 0.335D-05 0.423D-04 0.346D-03 0.142D-03
 Coeff-Com: -0.365D-02-0.230D-03 0.185D+00 0.818D+00
 Coeff:     -0.673D-05 0.888D-05 0.335D-05 0.423D-04 0.346D-03 0.142D-03
 Coeff:     -0.365D-02-0.230D-03 0.185D+00 0.818D+00
 Gap=     0.068 Goal=   None    Shift=    0.000
 RMSDP=3.13D-08 MaxDP=1.03D-06 DE=-5.52D-11 OVMax= 7.51D-07

 Cycle  11  Pass 1  IDiag  1:
 RMSU=  8.73D-09    CP:  1.06D+00  2.64D+00  6.37D-01  9.82D-01  1.08D+00
                    CP:  1.03D+00  9.47D-01  1.12D+00  9.71D-01  8.42D-01
 E= -112.570254809221     Delta-E=       -0.000000000002 Rises=F Damp=F
 DIIS: error= 4.23D-08 at cycle  11 NSaved=  11.
 NSaved=11 IEnMin=11 EnMin= -112.570254809221     IErMin=11 ErrMin= 4.23D-08
 ErrMax= 4.23D-08  0.00D+00 EMaxC= 1.00D-01 BMatC= 7.00D-14 BMatP= 1.66D-12
 IDIUse=1 WtCom= 1.00D+00 WtEn= 0.00D+00
 Coeff-Com: -0.385D-06 0.511D-06 0.432D-06 0.508D-05 0.223D-04 0.984D-04
 Coeff-Com: -0.340D-03-0.891D-03-0.980D-02 0.458D-01 0.965D+00
 Coeff:     -0.385D-06 0.511D-06 0.432D-06 0.508D-05 0.223D-04 0.984D-04
 Coeff:     -0.340D-03-0.891D-03-0.980D-02 0.458D-01 0.965D+00
 Gap=     0.068 Goal=   None    Shift=    0.000
 RMSDP=6.80D-09 MaxDP=3.34D-07 DE=-2.07D-12 OVMax= 1.26D-07

 SCF Done:  E(RB3LYP) =  -112.570254809     A.U. after   11 cycles
            NFock= 11  Conv=0.68D-08     -V/T= 2.0037
 KE= 1.121537580655D+02 PE=-3.155753943072D+02 EE= 5.653457778898D+01
 Leave Link  502 at Mon Jun 20 13:27:06 2016, MaxMem=    33554432 cpu:        56.6
 (Enter /home/proyectos/fulerenos/M3C-v1.9/M3C-deps_CCC/g09-AM64L-G09RevC.01/l801.exe)
 DoSCS=F DFT=T ScalE2(SS,OS)=  1.000000  1.000000
 Range of M.O.s used for correlation:     1   127
 NBasis=   127 NAE=     8 NBE=     8 NFC=     0 NFV=     0
 NROrb=    127 NOA=     8 NOB=     8 NVA=   119 NVB=   119

 **** Warning!!: The largest alpha MO coefficient is  0.10615159D+03


 **** Warning!!: The smallest alpha delta epsilon is  0.67572558D-01

 Leave Link  801 at Mon Jun 20 13:27:06 2016, MaxMem=    33554432 cpu:         0.1
 (Enter /home/proyectos/fulerenos/M3C-v1.9/M3C-deps_CCC/g09-AM64L-G09RevC.01/l1101.exe)
 Using compressed storage, NAtomX=     4.
 Will process      5 centers per pass.
 Leave Link 1101 at Mon Jun 20 13:27:06 2016, MaxMem=    33554432 cpu:         1.2
 (Enter /home/proyectos/fulerenos/M3C-v1.9/M3C-deps_CCC/g09-AM64L-G09RevC.01/l1102.exe)
 Symmetrizing basis deriv contribution to polar:
 IMax=3 JMax=2 DiffMx= 0.00D+00
 Leave Link 1102 at Mon Jun 20 13:27:06 2016, MaxMem=    33554432 cpu:         0.1
 (Enter /home/proyectos/fulerenos/M3C-v1.9/M3C-deps_CCC/g09-AM64L-G09RevC.01/l1110.exe)
 Forming Gx(P) for the SCF density, NAtomX=     4.
 Integral derivatives from FoFJK, PRISM(SPDF).
 Do as many integral derivatives as possible in FoFJK.
 G2DrvN: MDV=      33554296.
 G2DrvN: will do     5 centers at a time, making    1 passes.
 Calling FoFCou, ICntrl=  3107 FMM=F I1Cent=   0 AccDes= 0.00D+00.
 FoFJK:  IHMeth= 1 ICntrl=    3107 DoSepK=F KAlg= 0 I1Cent=   0 FoldK=F
 IRaf=         0 NMat=   1 IRICut=       1 DoRegI=T DoRafI=F ISym2E= 1.
 FoFCou: FMM=F IPFlag=           0 FMFlag=      100000 FMFlg1=           0
         NFxFlg=           0 DoJE=F BraDBF=F KetDBF=F FulRan=T
         wScrn=  0.000000 ICntrl=    3107 IOpCl=  0 I1Cent=           0 NGrid=           0
         NMat0=    1 NMatS0=      1 NMatT0=    0 NMatD0=    1 NMtDS0=    0 NMtDT0=    0
 Petite list used in FoFCou.
 End of G2Drv F.D. properties file   721 does not exist.
 End of G2Drv F.D. properties file   722 does not exist.
 End of G2Drv F.D. properties file   788 does not exist.
 Leave Link 1110 at Mon Jun 20 13:27:12 2016, MaxMem=    33554432 cpu:        22.5
 (Enter /home/proyectos/fulerenos/M3C-v1.9/M3C-deps_CCC/g09-AM64L-G09RevC.01/l1002.exe)
 Minotr:  Closed shell wavefunction.
          IDoAtm=1111
          Direct CPHF calculation.
          Differentiating once with respect to electric field.
                with respect to dipole field.
          Differentiating once with respect to nuclear coordinates.
          Using symmetry in CPHF.
          Requested convergence is 1.0D-08 RMS, and 1.0D-07 maximum.
          Secondary convergence is 1.0D-12 RMS, and 1.0D-12 maximum.
          NewPWx=T KeepS1=F KeepF1=F KeepIn=T MapXYZ=F SortEE=F KeepMc=T.
          MDV=      33554261 using IRadAn=       2.
 Generate precomputed XC quadrature information.
          Solving linear equations simultaneously, MaxMat=       0.
 FoFJK:  IHMeth= 1 ICntrl=       0 DoSepK=F KAlg= 0 I1Cent=   0 FoldK=F
 IRaf= 980000000 NMat=  15 IRICut=      37 DoRegI=T DoRafI=T ISym2E= 2.
 FoFCou: FMM=F IPFlag=           0 FMFlag=      100000 FMFlg1=           0
         NFxFlg=           0 DoJE=F BraDBF=F KetDBF=F FulRan=T
         wScrn=  0.000000 ICntrl=       0 IOpCl=  0 I1Cent=           0 NGrid=           0
         NMat0=   15 NMatS0=     15 NMatT0=    0 NMatD0=   15 NMtDS0=    0 NMtDT0=    0
 Integrals replicated using symmetry in FoFCou.
          There are    15 degrees of freedom in the 1st order CPHF.  IDoFFX=6 NUNeed=     3.
     12 vectors produced by pass  0 Test12= 6.35D-15 6.67D-09 XBig12= 1.24D+02 9.25D+00.
 AX will form    12 AO Fock derivatives at one time.
     12 vectors produced by pass  1 Test12= 6.35D-15 6.67D-09 XBig12= 1.51D+01 2.07D+00.
     12 vectors produced by pass  2 Test12= 6.35D-15 6.67D-09 XBig12= 2.74D-01 2.06D-01.
     12 vectors produced by pass  3 Test12= 6.35D-15 6.67D-09 XBig12= 1.10D-03 1.01D-02.
     12 vectors produced by pass  4 Test12= 6.35D-15 6.67D-09 XBig12= 3.80D-06 6.40D-04.
     11 vectors produced by pass  5 Test12= 6.35D-15 6.67D-09 XBig12= 3.33D-09 1.41D-05.
      5 vectors produced by pass  6 Test12= 6.35D-15 6.67D-09 XBig12= 3.75D-12 5.98D-07.
      1 vectors produced by pass  7 Test12= 6.35D-15 6.67D-09 XBig12= 1.05D-13 9.85D-08.
 InvSVY:  IOpt=1 It=  1 EMax= 8.88D-16
 Solved reduced A of dimension    77 with    12 vectors.
 FullF1:  Do perturbations    1 to     3.
 Isotropic polarizability for W=    0.000000       25.63 Bohr**3.
 End of Minotr F.D. properties file   721 does not exist.
 End of Minotr F.D. properties file   722 does not exist.
 End of Minotr F.D. properties file   788 does not exist.
 Leave Link 1002 at Mon Jun 20 13:27:30 2016, MaxMem=    33554432 cpu:        70.2
 (Enter /home/proyectos/fulerenos/M3C-v1.9/M3C-deps_CCC/g09-AM64L-G09RevC.01/l601.exe)
 Copying SCF densities to generalized density rwf, IOpCl= 0 IROHF=0.

 **********************************************************************

            Population analysis using the SCF density.

 **********************************************************************

 Orbital symmetries:
       Occupied  (SG) (SG) (SG) (SG) (SG) (SG) (SG) (?A)
       Virtual   (?A) (?A) (?A) (SG) (PI) (PI) (SG) (?B) (SG) (PI)
                 (PI) (?B) (?B) (?B) (PI) (PI) (?B) (?A) (?A) (?A)
                 (?B) (?B) (?A) (?B) (SG) (SG) (SG) (PI) (?B) (?B)
                 (PI) (?B) (PI) (PI) (?B) (PI) (PI) (SG) (SG) (PI)
                 (PI) (SG) (SG) (PI) (PI) (SG) (SG) (PI) (PI) (SG)
                 (?C) (?C) (?C) (SG) (PI) (DLTA) (DLTA) (PI) (SG)
                 (PI) (PI) (DLTA) (DLTA) (PI) (PI) (SG) (?D) (?D)
                 (?D) (?E) (?E) (?E) (?E) (?E) (?E) (?B) (?F) (?F)
                 (?F) (?F) (?B) (?B) (?B) (PI) (PI) (?F) (?F) (SG)
                 (?B) (PI) (PI) (?B) (?B) (?B) (SG) (PI) (PI) (SG)
                 (PI) (PI) (SG) (DLTA) (DLTA) (DLTA) (DLTA) (PI)
                 (PI) (DLTA) (DLTA) (SG) (PI) (PI) (PI) (PI) (SG)
                 (SG) (SG) (SG) (SG)
 Unable to determine electronic state:  an orbital has unidentified symmetry.
 Alpha  occ. eigenvalues --  -11.37500 -11.23193 -11.22753  -1.65886  -1.50809
 Alpha  occ. eigenvalues --   -1.35949  -1.23621  -1.16827
 Alpha virt. eigenvalues --   -1.10070  -1.01852  -1.01392  -0.91361  -0.86660
 Alpha virt. eigenvalues --   -0.86024  -0.65581  -0.54403  -0.46472  -0.46197
 Alpha virt. eigenvalues --   -0.45876  -0.41835  -0.41709  -0.41400  -0.38723
 Alpha virt. eigenvalues --   -0.38438  -0.33878  -0.33252  -0.32986  -0.30588
 Alpha virt. eigenvalues --   -0.29990  -0.29892  -0.29668  -0.27652  -0.24508
 Alpha virt. eigenvalues --   -0.24101  -0.17751  -0.14045  -0.13727  -0.13616
 Alpha virt. eigenvalues --   -0.13497  -0.13062  -0.12637  -0.12149  -0.10109
 Alpha virt. eigenvalues --   -0.08745  -0.08463  -0.04672  -0.00517   0.04920
 Alpha virt. eigenvalues --    0.05845   0.07279   0.08860   0.10369   0.11336
 Alpha virt. eigenvalues --    0.27295   0.48480   0.49640   0.50316   0.57728
 Alpha virt. eigenvalues --    0.61408   0.63760   0.64308   0.69255   0.73126
 Alpha virt. eigenvalues --    0.73953   0.74011   0.74250   0.82544   0.84326
 Alpha virt. eigenvalues --    0.85081   0.86874   0.87370   1.14142   1.15466
 Alpha virt. eigenvalues --    1.27540   1.63111   1.63295   1.64502   1.72118
 Alpha virt. eigenvalues --    1.72649   1.79307   1.79873   1.81499   1.81565
 Alpha virt. eigenvalues --    1.86554   1.92469   1.92711   1.92732   1.93750
 Alpha virt. eigenvalues --    1.97993   1.98051   2.00578   2.00594   2.01627
 Alpha virt. eigenvalues --    2.08156   2.08227   2.33504   2.37346   2.43633
 Alpha virt. eigenvalues --    2.44914   2.57657   2.57951   2.74345   3.23774
 Alpha virt. eigenvalues --    3.24632   3.25604   3.83902   3.89249   3.90595
 Alpha virt. eigenvalues --    4.96742   5.89632   5.89694   5.95867   5.96334
 Alpha virt. eigenvalues --    5.98052   5.98195   6.08502   6.09016   6.11752
 Alpha virt. eigenvalues --    6.17636   6.18275   6.52169   6.53169   6.72727
 Alpha virt. eigenvalues --    7.17245  22.42058  22.79977  24.17677
          Condensed to atoms (all electrons):
               1          2          3          4
     1  H    0.181537   0.218293   0.024186  -0.003071
     2  C    0.218293  10.052976  -4.521120  -1.018706
     3  C    0.024186  -4.521120   9.556577   0.908964
     4  C   -0.003071  -1.018706   0.908964   4.991818
 Mulliken charges:
               1
     1  H    0.579055
     2  C    1.268557
     3  C    0.031392
     4  C    1.120995
 Sum of Mulliken charges =   3.00000
 Mulliken charges with hydrogens summed into heavy atoms:
               1
     2  C    1.847612
     3  C    0.031392
     4  C    1.120995
 APT charges:
               1
     1  H    0.589259
     2  C    0.853407
     3  C   -0.019649
     4  C    1.576983
 Sum of APT charges =   3.00000
 APT charges with hydrogens summed into heavy atoms:
               1
     2  C    1.442666
     3  C   -0.019649
     4  C    1.576983
 Electronic spatial extent (au):  <R**2>=            133.4661
 Charge=              3.0000 electrons
 Dipole moment (field-independent basis, Debye):
    X=             -0.0000    Y=             -0.0000    Z=             -0.0453  Tot=              0.0453
 Quadrupole moment (field-independent basis, Debye-Ang):
   XX=            -12.1111   YY=             -9.0764   ZZ=             30.3910
   XY=              0.0000   XZ=              0.0000   YZ=              0.0000
 Traceless Quadrupole moment (field-independent basis, Debye-Ang):
   XX=            -15.1789   YY=            -12.1442   ZZ=             27.3232
   XY=              0.0000   XZ=              0.0000   YZ=              0.0000
 Octapole moment (field-independent basis, Debye-Ang**2):
  XXX=              0.0000  YYY=             -0.0000  ZZZ=            -14.3486  XYY=             -0.0000
  XXY=              0.0000  XXZ=              1.0147  XZZ=             -0.0000  YZZ=             -0.0000
  YYZ=             -0.3136  XYZ=             -0.0000
 Hexadecapole moment (field-independent basis, Debye-Ang**3):
 XXXX=            -10.5558 YYYY=             -6.0923 ZZZZ=             50.8930 XXXY=              0.0000
 XXXZ=             -0.0000 YYYX=              0.0000 YYYZ=             -0.0000 ZZZX=              0.0000
 ZZZY=              0.0000 XXYY=             -2.7777 XXZZ=            -23.7051 YYZZ=            -20.6666
 XXYZ=             -0.0000 YYXZ=             -0.0000 ZZXY=              0.0000
 N-N= 3.431680364348D+01 E-N=-3.155753942228D+02  KE= 1.121537580655D+02
 Symmetry A1   KE= 1.094946111315D+02
 Symmetry A2   KE= 9.531654057379D-34
 Symmetry B1   KE= 2.659146933988D+00
 Symmetry B2   KE= 3.086628271714D-31
  Exact polarizability:  13.978   0.000  13.639  -0.000   0.000  49.272
 Approx polarizability:  19.745   0.000  21.616   0.000   0.000 104.234
 No NMR shielding tensors so no spin-rotation constants.
 Leave Link  601 at Mon Jun 20 13:27:31 2016, MaxMem=    33554432 cpu:         0.8
 (Enter /home/proyectos/fulerenos/M3C-v1.9/M3C-deps_CCC/g09-AM64L-G09RevC.01/l701.exe)
 Compute integral second derivatives.
 ... and contract with generalized density number  0.
 Leave Link  701 at Mon Jun 20 13:27:31 2016, MaxMem=    33554432 cpu:         1.3
 (Enter /home/proyectos/fulerenos/M3C-v1.9/M3C-deps_CCC/g09-AM64L-G09RevC.01/l702.exe)
 L702 exits ... SP integral derivatives will be done elsewhere.
 Leave Link  702 at Mon Jun 20 13:27:31 2016, MaxMem=    33554432 cpu:         0.1
 (Enter /home/proyectos/fulerenos/M3C-v1.9/M3C-deps_CCC/g09-AM64L-G09RevC.01/l703.exe)
 Compute integral second derivatives, UseDBF=F ICtDFT=           0.
 Integral derivatives from FoFJK, PRISM(SPDF).
 Calling FoFJK, ICntrl=    100127 FMM=F ISym2X=1 I1Cent= 0 IOpClX= 0 NMat=1 NMatS=1 NMatT=0.
 FoFJK:  IHMeth= 1 ICntrl=  100127 DoSepK=F KAlg= 0 I1Cent=   0 FoldK=F
 IRaf=         0 NMat=   1 IRICut=       1 DoRegI=T DoRafI=F ISym2E= 1.
 FoFCou: FMM=F IPFlag=           0 FMFlag=      100000 FMFlg1=         800
         NFxFlg=           0 DoJE=F BraDBF=F KetDBF=F FulRan=T
         wScrn=  0.000000 ICntrl=  100127 IOpCl=  0 I1Cent=           0 NGrid=           0
         NMat0=    1 NMatS0=      1 NMatT0=    0 NMatD0=    1 NMtDS0=    0 NMtDT0=    0
 Petite list used in FoFCou.
 Leave Link  703 at Mon Jun 20 13:27:46 2016, MaxMem=    33554432 cpu:        61.3
 (Enter /home/proyectos/fulerenos/M3C-v1.9/M3C-deps_CCC/g09-AM64L-G09RevC.01/l716.exe)
 Dipole        =-8.83943343D-18-4.82030271D-19-1.78232414D-02
 Polarizability= 1.39782712D+01 1.14501041D-09 1.36389411D+01
                -4.05677242D-09 6.29130008D-09 4.92723441D+01
 Full mass-weighted force constant matrix:
 Low frequencies ---  -10.6651    0.0006    0.0008    0.0008   10.8299  214.1593
 Low frequencies ---  275.8723  434.8256  628.9739
 Diagonal vibrational polarizability:
       18.8377439       5.0487596      56.5197610
 Harmonic frequencies (cm**-1), IR intensities (KM/Mole), Raman scattering
 activities (A**4/AMU), depolarization ratios for plane and unpolarized
 incident light, reduced masses (AMU), force constants (mDyne/A),
 and normal coordinates:
                      1                      2                      3
                     ?A                     ?A                     SG
 Frequencies --    214.1592               275.8722               434.8256
 Red. masses --      6.7892                 3.5877                10.7112
 Frc consts  --      0.1835                 0.1609                 1.1932
 IR Inten    --     25.7042                13.2601               294.4136
  Atom  AN      X      Y      Z        X      Y      Z        X      Y      Z
     1   1    -0.69   0.00   0.00    -0.00  -0.87  -0.00     0.00   0.00  -0.34
     2   6    -0.27   0.00   0.00    -0.00  -0.14  -0.00    -0.00  -0.00  -0.39
     3   6     0.61  -0.00   0.00     0.00   0.42  -0.00     0.00  -0.00  -0.36
     4   6    -0.28   0.00  -0.00    -0.00  -0.20   0.00    -0.00   0.00   0.78
                      4                      5                      6
                     ?A                     ?A                     SG
 Frequencies --    628.9739               796.2023              1322.6867
 Red. masses --      1.2290                 1.4657                 5.4371
 Frc consts  --      0.2865                 0.5475                 5.6045
 IR Inten    --     55.2087                 8.4788               679.2156
  Atom  AN      X      Y      Z        X      Y      Z        X      Y      Z
     1   1     0.99   0.00  -0.00    -0.00   0.98   0.00    -0.00   0.00  -0.77
     2   6    -0.14   0.00  -0.00     0.00  -0.17   0.00     0.00  -0.00  -0.41
     3   6     0.04  -0.00   0.00    -0.00   0.11  -0.00    -0.00   0.00   0.48
     4   6     0.01   0.00  -0.00     0.00  -0.02  -0.00    -0.00  -0.00  -0.01
                      7
                     SG
 Frequencies --   2432.8362
 Red. masses --      1.1670
 Frc consts  --      4.0697
 IR Inten    --    916.5555
  Atom  AN      X      Y      Z
     1   1    -0.00   0.00   0.99
     2   6     0.00  -0.00  -0.11
     3   6    -0.00   0.00   0.04
     4   6     0.00  -0.00  -0.00

 -------------------
 - Thermochemistry -
 -------------------
 Temperature   298.150 Kelvin.  Pressure   1.00000 Atm.
 Atom     1 has atomic number  1 and mass   1.00783
 Atom     2 has atomic number  6 and mass  12.00000
 Atom     3 has atomic number  6 and mass  12.00000
 Atom     4 has atomic number  6 and mass  12.00000
 Molecular mass:    37.00783 amu.
 Principal axes and moments of inertia in atomic units:
                           1         2         3
     Eigenvalues --     0.00000 256.32852 256.32852
           X            0.00000   0.86065   0.50920
           Y            0.00000  -0.50920   0.86065
           Z            1.00000  -0.00000  -0.00000
 This molecule is a prolate symmetric top.
 Rotational symmetry number  1.
 Rotational temperature (Kelvin)      0.33790
 Rotational constant (GHZ):           7.040735
 Zero-point vibrational energy      36519.3 (Joules/Mol)
                                    8.72833 (Kcal/Mol)
 Warning -- explicit consideration of   3 degrees of freedom as
           vibrations may cause significant error
 Vibrational temperatures:    308.13   396.92   625.62   904.95  1145.56
          (Kelvin)           1903.05  3500.30
 
 Zero-point correction=                           0.013909 (Hartree/Particle)
 Thermal correction to Energy=                    0.017772
 Thermal correction to Enthalpy=                  0.018716
 Thermal correction to Gibbs Free Energy=        -0.008494
 Sum of electronic and zero-point Energies=           -112.556345
 Sum of electronic and thermal Energies=              -112.552483
 Sum of electronic and thermal Enthalpies=            -112.551539
 Sum of electronic and thermal Free Energies=         -112.578749
 
                     E (Thermal)             CV                S
                      KCal/Mol        Cal/Mol-Kelvin    Cal/Mol-Kelvin
 Total                   11.152             11.667             57.269
 Electronic               0.000              0.000              0.000
 Translational            0.889              2.981             36.755
 Rotational               0.592              1.987             15.466
 Vibrational              9.671              6.699              5.048
 Vibration     1          0.644              1.819              2.008
 Vibration     2          0.678              1.718              1.559
 Vibration     3          0.795              1.394              0.843
                       Q            Log10(Q)             Ln(Q)
 Total Bot       0.807574D+04          3.907182          8.996619
 Total V=0       0.201876D+11         10.305085         23.728336
 Vib (Bot)       0.103429D-05         -5.985358        -13.781796
 Vib (Bot)    1  0.925864D+00         -0.033453         -0.077028
 Vib (Bot)    2  0.698432D+00         -0.155876         -0.358917
 Vib (Bot)    3  0.399197D+00         -0.398813         -0.918301
 Vib (V=0)       0.258550D+01          0.412545          0.949920
 Vib (V=0)    1  0.155225D+01          0.190961          0.439704
 Vib (V=0)    2  0.135896D+01          0.133206          0.306718
 Vib (V=0)    3  0.113981D+01          0.056833          0.130862
 Electronic      0.100000D+01          0.000000          0.000000
 Translational   0.884903D+07          6.946896         15.995818
 Rotational      0.882357D+03          2.945645          6.782597
 
                                                              b3lyp opt
                                                             IR Spectrum
 
      2                                                        1                                                                     
      4                                                        3                           7        6         4       2  2           
      3                                                        2                           9        2         3       7  1           
      3                                                        3                           6        9         5       6  4           
 
      X                                                        X                           X        X         X       X  X           
      X                                                        X                                              X                      
      X                                                        X                                              X                      
      X                                                        X                                              X                      
      X                                                        X                                              X                      
      X                                                        X                                              X                      
      X                                                        X                                                                     
      X                                                        X                                                                     
      X                                                        X                                                                     
      X                                                        X                                                                     
      X                                                        X                                                                     
      X                                                        X                                                                     
      X                                                        X                                                                     
      X                                                        X                                                                     
      X                                                        X                                                                     
      X                                                                                                                              
      X                                                                                                                              
      X                                                                                                                              
      X                                                                                                                              
      X                                                                                                                              
 
 ***** Axes restored to original set *****
 -------------------------------------------------------------------
 Center     Atomic                   Forces (Hartrees/Bohr)
 Number     Number              X              Y              Z
 -------------------------------------------------------------------
      1        1          -0.000006585    0.000033535    0.000000000
      2        6          -0.000000586    0.000002985   -0.000000000
      3        6           0.000022540   -0.000114782   -0.000000000
      4        6          -0.000015368    0.000078262   -0.000000000
 -------------------------------------------------------------------
 Cartesian Forces:  Max     0.000114782 RMS     0.000042053
 Z-matrix is all fixed cartesians, so copy forces.
 Force constants in Cartesian coordinates: 
                1             2             3             4             5 
      1  0.193567D-01
      2 -0.353909D-01  0.192631D+00
      3  0.799719D-03  0.157042D-03  0.163972D-01
      4 -0.270099D-01  0.372922D-01 -0.244045D-02  0.600531D-01
      5  0.372922D-01 -0.209593D+00 -0.479234D-03 -0.120420D+00  0.649630D+00
      6 -0.244045D-02 -0.479234D-03 -0.318635D-01  0.699992D-02  0.137459D-02
      7  0.579737D-02 -0.440486D-02  0.236474D-02 -0.328163D-01  0.815918D-01
      8 -0.440486D-02  0.273637D-01  0.464368D-03  0.815918D-01 -0.432291D+00
      9  0.236474D-02  0.464368D-03  0.167313D-01 -0.645897D-02 -0.126836D-02
     10  0.185581D-02  0.250360D-02 -0.724015D-03 -0.226875D-03  0.153571D-02
     11  0.250360D-02 -0.104019D-01 -0.142176D-03  0.153571D-02 -0.774574D-02
     12 -0.724015D-03 -0.142176D-03 -0.126504D-02  0.189950D-02  0.373007D-03
                6             7             8             9            10 
      6  0.713324D-01
      7 -0.645897D-02  0.340247D-01
      8 -0.126836D-02 -0.836150D-01  0.443405D+00
      9 -0.490212D-01  0.567852D-02  0.111510D-02  0.459382D-01
     10  0.189950D-02 -0.700577D-02  0.642811D-02 -0.158429D-02  0.537683D-02
     11  0.373007D-03  0.642811D-02 -0.384779D-01 -0.311109D-03 -0.104674D-01
     12  0.955228D-02 -0.158429D-02 -0.311109D-03 -0.136483D-01  0.408807D-03
               11            12 
     11  0.566255D-01
     12  0.802781D-04  0.536108D-02
 Leave Link  716 at Mon Jun 20 13:27:46 2016, MaxMem=    33554432 cpu:         0.1
 (Enter /home/proyectos/fulerenos/M3C-v1.9/M3C-deps_CCC/g09-AM64L-G09RevC.01/l103.exe)

 GradGradGradGradGradGradGradGradGradGradGradGradGradGradGradGradGradGrad
 Berny optimization.
 Search for a local minimum.
 Step number   1 out of a maximum of    2
 All quantities printed in internal units (Hartrees-Bohrs-Radians)
 Second derivative matrix not updated -- analytic derivatives used.
 The second derivative matrix:
                          X1        Y1        Z1        X2        Y2
           X1           0.01936
           Y1          -0.03539   0.19263
           Z1           0.00080   0.00016   0.01640
           X2          -0.02701   0.03729  -0.00244   0.06005
           Y2           0.03729  -0.20959  -0.00048  -0.12042   0.64963
           Z2          -0.00244  -0.00048  -0.03186   0.00700   0.00137
           X3           0.00580  -0.00440   0.00236  -0.03282   0.08159
           Y3          -0.00440   0.02736   0.00046   0.08159  -0.43229
           Z3           0.00236   0.00046   0.01673  -0.00646  -0.00127
           X4           0.00186   0.00250  -0.00072  -0.00023   0.00154
           Y4           0.00250  -0.01040  -0.00014   0.00154  -0.00775
           Z4          -0.00072  -0.00014  -0.00127   0.00190   0.00037
                          Z2        X3        Y3        Z3        X4
           Z2           0.07133
           X3          -0.00646   0.03402
           Y3          -0.00127  -0.08362   0.44341
           Z3          -0.04902   0.00568   0.00112   0.04594
           X4           0.00190  -0.00701   0.00643  -0.00158   0.00538
           Y4           0.00037   0.00643  -0.03848  -0.00031  -0.01047
           Z4           0.00955  -0.00158  -0.00031  -0.01365   0.00041
                          Y4        Z4
           Y4           0.05663
           Z4           0.00008   0.00536
 ITU=  0
     Eigenvalues ---    0.01276   0.01364   0.04842   0.07449   0.12048
     Eigenvalues ---    0.23119   1.06362
 Angle between quadratic step and forces=  37.57 degrees.
 ClnCor:  largest displacement from symmetrization is 4.33D-12 for atom     3.
 Linear search not attempted -- first point.
 ClnCor:  largest displacement from symmetrization is 1.83D-15 for atom     4.
 B after Tr=    -0.000003    0.000015   -0.000000
         Rot=    1.000000   -0.000000   -0.000000    0.000000 Ang=   0.00 deg.
 Variable       Old X    -DE/DX   Delta X   Delta X   Delta X     New X
                                 (Linear)    (Quad)   (Total)
    X1       -0.94053  -0.00001   0.00000   0.00002   0.00002  -0.94051
    Y1        4.79128   0.00003   0.00000  -0.00010  -0.00009   4.79120
    Z1       -0.00000   0.00000   0.00000   0.00000   0.00000  -0.00000
    X2       -0.51340  -0.00000   0.00000   0.00007   0.00007  -0.51333
    Y2        2.61618   0.00000   0.00000  -0.00036  -0.00035   2.61583
    Z2       -0.00000  -0.00000   0.00000   0.00000   0.00000  -0.00000
    X3       -0.00498   0.00002   0.00000   0.00010   0.00010  -0.00489
    Y3        0.02713  -0.00011   0.00000  -0.00052  -0.00050   0.02663
    Z3       -0.00000  -0.00000   0.00000   0.00000  -0.00000  -0.00000
    X4        0.67620  -0.00002   0.00000  -0.00018  -0.00018   0.67601
    Y4       -3.44170   0.00008   0.00000   0.00092   0.00093  -3.44077
    Z4        0.00000  -0.00000   0.00000  -0.00000  -0.00000  -0.00000
         Item               Value     Threshold  Converged?
 Maximum Force            0.000115     0.000450     YES
 RMS     Force            0.000042     0.000300     YES
 Maximum Displacement     0.000931     0.001800     YES
 RMS     Displacement     0.000328     0.001200     YES
 Predicted change in Energy=-6.566131D-08
 Optimization completed.
    -- Stationary point found.
 GradGradGradGradGradGradGradGradGradGradGradGradGradGradGradGradGradGrad

 Leave Link  103 at Mon Jun 20 13:27:46 2016, MaxMem=    33554432 cpu:         0.1
 (Enter /home/proyectos/fulerenos/M3C-v1.9/M3C-deps_CCC/g09-AM64L-G09RevC.01/l9999.exe)
 1\1\GINC-BELVIS17\Freq\RB3LYP\6-311++G(3df,2p)\C3H1(3+)\ROOT\20-Jun-20
 16\0\\#p b3lyp/6-311++G(3df,2p) freq symmetry=Loose\\b3lyp opt\\3,1\H,
 -0.497705958,2.5354371304,0.\C,-0.2716792358,1.3844212141,0.\C,-0.0026
 375331,0.0143562986,0.\C,0.3578272618,-1.8212705344,0.\\Version=EM64L-
 G09RevE.01\HF=-112.5702548\RMSD=6.797e-09\RMSF=4.205e-05\ZeroPoint=0.0
 139095\Thermal=0.0177715\Dipole=-0.0034344,0.0174892,0.\DipoleDeriv=0.
 3743252,-0.1622404,-0.0235838,-0.1622404,1.1686571,-0.0046312,-0.02358
 38,-0.0046312,0.2247938,0.876863,0.0325332,0.0165402,0.0325332,0.71758
 ,0.003248,0.0165402,0.003248,0.9657791,0.5492822,0.3919406,0.0270944,0
 .3919406,-1.3696657,0.0053206,0.0270944,0.0053206,0.7614365,1.1995297,
 -0.2622333,-0.0200508,-0.2622333,2.4834286,-0.0039374,-0.0200508,-0.00
 39374,1.0479906\Polar=15.2766075,-6.6757938,47.9614084,-0.0629582,-0.0
 123632,13.6515405\PG=C*V [C*(H1C1C1C1)]\NImag=0\\0.01935674,-0.0353908
 9,0.19263117,0.00079972,0.00015704,0.01639720,-0.02700993,0.03729215,-
 0.00244045,0.06005307,0.03729215,-0.20959296,-0.00047923,-0.12041963,0
 .64962966,-0.00244045,-0.00047923,-0.03186348,0.00699992,0.00137459,0.
 07133237,0.00579737,-0.00440486,0.00236474,-0.03281627,0.08159177,-0.0
 0645897,0.03402466,-0.00440486,0.02736366,0.00046437,0.08159177,-0.432
 29096,-0.00126836,-0.08361501,0.44340519,0.00236474,0.00046437,0.01673
 133,-0.00645897,-0.00126836,-0.04902117,0.00567852,0.00111510,0.045938
 16,0.00185581,0.00250360,-0.00072402,-0.00022687,0.00153571,0.00189950
 ,-0.00700577,0.00642811,-0.00158429,0.00537683,0.00250360,-0.01040187,
 -0.00014218,0.00153571,-0.00774574,0.00037301,0.00642811,-0.03847788,-
 0.00031111,-0.01046742,0.05662550,-0.00072402,-0.00014218,-0.00126504,
 0.00189950,0.00037301,0.00955228,-0.00158429,-0.00031111,-0.01364832,0
 .00040881,0.00008028,0.00536108\\0.00000659,-0.00003353,0.,0.00000059,
 -0.00000299,0.,-0.00002254,0.00011478,0.,0.00001537,-0.00007826,0.\\\@


 ALL THINGS ARE POSSIBLE EXCEPT SKIING THROUGH A REVOLVING DOOR.
 Job cpu time:       0 days  0 hours  3 minutes 38.6 seconds.
 File lengths (MBytes):  RWF=     11 Int=      0 D2E=      0 Chk=      2 Scr=      1
 Normal termination of Gaussian 09 at Mon Jun 20 13:27:46 2016.
