 Entering Gaussian System, Link 0=/home/proyectos/fulerenos/M3C-v1.9/M3C-deps_CCC/g09-AM64L-G09RevC.01/g09
 Initial command:
 /home/proyectos/fulerenos/M3C-v1.9/M3C-deps_CCC/g09-AM64L-G09RevC.01/l1.exe "/scratch/naguirre/gaussian/Gau-31063.inp" -scrdir="/scratch/naguirre/gaussian/"
 Entering Link 1 = /home/proyectos/fulerenos/M3C-v1.9/M3C-deps_CCC/g09-AM64L-G09RevC.01/l1.exe PID=     31072.
  
 Copyright (c) 1988,1990,1992,1993,1995,1998,2003,2009,2015,
            Gaussian, Inc.  All Rights Reserved.
  
 This is part of the Gaussian(R) 09 program.  It is based on
 the Gaussian(R) 03 system (copyright 2003, Gaussian, Inc.),
 the Gaussian(R) 98 system (copyright 1998, Gaussian, Inc.),
 the Gaussian(R) 94 system (copyright 1995, Gaussian, Inc.),
 the Gaussian 92(TM) system (copyright 1992, Gaussian, Inc.),
 the Gaussian 90(TM) system (copyright 1990, Gaussian, Inc.),
 the Gaussian 88(TM) system (copyright 1988, Gaussian, Inc.),
 the Gaussian 86(TM) system (copyright 1986, Carnegie Mellon
 University), and the Gaussian 82(TM) system (copyright 1983,
 Carnegie Mellon University). Gaussian is a federally registered
 trademark of Gaussian, Inc.
  
 This software contains proprietary and confidential information,
 including trade secrets, belonging to Gaussian, Inc.
  
 This software is provided under written license and may be
 used, copied, transmitted, or stored only in accord with that
 written license.
  
 The following legend is applicable only to US Government
 contracts under FAR:
  
                    RESTRICTED RIGHTS LEGEND
  
 Use, reproduction and disclosure by the US Government is
 subject to restrictions as set forth in subparagraphs (a)
 and (c) of the Commercial Computer Software - Restricted
 Rights clause in FAR 52.227-19.
  
 Gaussian, Inc.
 340 Quinnipiac St., Bldg. 40, Wallingford CT 06492
  
  
 ---------------------------------------------------------------
 Warning -- This program may not be used in any manner that
 competes with the business of Gaussian, Inc. or will provide
 assistance to any competitor of Gaussian, Inc.  The licensee
 of this program is prohibited from giving any competitor of
 Gaussian, Inc. access to this program.  By using this program,
 the user acknowledges that Gaussian, Inc. is engaged in the
 business of creating and licensing software in the field of
 computational chemistry and represents and warrants to the
 licensee that it is not a competitor of Gaussian, Inc. and that
 it will not use this program in any manner prohibited above.
 ---------------------------------------------------------------
  

 Cite this work as:
 Gaussian 09, Revision E.01,
 M. J. Frisch, G. W. Trucks, H. B. Schlegel, G. E. Scuseria, 
 M. A. Robb, J. R. Cheeseman, G. Scalmani, V. Barone, B. Mennucci, 
 G. A. Petersson, H. Nakatsuji, M. Caricato, X. Li, H. P. Hratchian, 
 A. F. Izmaylov, J. Bloino, G. Zheng, J. L. Sonnenberg, M. Hada, 
 M. Ehara, K. Toyota, R. Fukuda, J. Hasegawa, M. Ishida, T. Nakajima, 
 Y. Honda, O. Kitao, H. Nakai, T. Vreven, J. A. Montgomery, Jr., 
 J. E. Peralta, F. Ogliaro, M. Bearpark, J. J. Heyd, E. Brothers, 
 K. N. Kudin, V. N. Staroverov, T. Keith, R. Kobayashi, J. Normand, 
 K. Raghavachari, A. Rendell, J. C. Burant, S. S. Iyengar, J. Tomasi, 
 M. Cossi, N. Rega, J. M. Millam, M. Klene, J. E. Knox, J. B. Cross, 
 V. Bakken, C. Adamo, J. Jaramillo, R. Gomperts, R. E. Stratmann, 
 O. Yazyev, A. J. Austin, R. Cammi, C. Pomelli, J. W. Ochterski, 
 R. L. Martin, K. Morokuma, V. G. Zakrzewski, G. A. Voth, 
 P. Salvador, J. J. Dannenberg, S. Dapprich, A. D. Daniels, 
 O. Farkas, J. B. Foresman, J. V. Ortiz, J. Cioslowski, 
 and D. J. Fox, Gaussian, Inc., Wallingford CT, 2013.
 
 ******************************************
 Gaussian 09:  EM64L-G09RevE.01 30-Nov-2015
                 2-Jul-2016 
 ******************************************
 %NProcShared=1
 Will use up to    1 processors via shared memory.
 ---------------------------------------------
 #p b3lyp/6-311++G(3df,2p) freq symmetry=Loose
 ---------------------------------------------
 1/10=4,30=1,38=1/1,3;
 2/12=2,17=4,18=3,40=1/2;
 3/5=4,6=6,7=1216,11=2,16=1,25=1,30=1,71=2,74=-5,140=1/1,2,3;
 4//1;
 5/5=2,38=5,98=1/2;
 8/6=4,10=90,11=11/1;
 11/6=1,8=1,9=11,15=111,16=1/1,2,10;
 10/6=1/2;
 6/7=2,8=2,9=2,10=2,18=1,28=1/1;
 7/8=1,10=1,25=1/1,2,3,16;
 1/10=4,30=1/3;
 99//99;
 Leave Link    1 at Sat Jul  2 15:37:31 2016, MaxMem=           0 cpu:         0.1
 (Enter /home/proyectos/fulerenos/M3C-v1.9/M3C-deps_CCC/g09-AM64L-G09RevC.01/l101.exe)
 ---------
 b3lyp opt
 ---------
 Symbolic Z-matrix:
 Charge =  1 Multiplicity = 1
 H                     0.17719  -0.02387  -1.41516 
 C                     0.04763   0.00261  -0.32699 
 F                     0.79241  -0.63778   0.41509 
 F                    -0.84683   0.67358   0.18801 
 
 NAtoms=      4 NQM=        4 NQMF=       0 NMMI=      0 NMMIF=      0
                NMic=       0 NMicF=      0.
                    Isotopes and Nuclear Properties:
 (Nuclear quadrupole moments (NQMom) in fm**2, nuclear magnetic moments (NMagM)
  in nuclear magnetons)

  Atom         1           2           3           4
 IAtWgt=           1          12          19          19
 AtmWgt=   1.0078250  12.0000000  18.9984033  18.9984033
 NucSpn=           1           0           1           1
 AtZEff=   0.0000000   0.0000000   0.0000000   0.0000000
 NQMom=    0.0000000   0.0000000   0.0000000   0.0000000
 NMagM=    2.7928460   0.0000000   2.6288670   2.6288670
 AtZNuc=   1.0000000   6.0000000   9.0000000   9.0000000
 Leave Link  101 at Sat Jul  2 15:37:31 2016, MaxMem=    33554432 cpu:         0.3
 (Enter /home/proyectos/fulerenos/M3C-v1.9/M3C-deps_CCC/g09-AM64L-G09RevC.01/l103.exe)

 GradGradGradGradGradGradGradGradGradGradGradGradGradGradGradGradGradGrad
 Berny optimization.
 Initialization pass.
 Trust Radius=3.00D-01 FncErr=1.00D-07 GrdErr=1.00D-07
 Number of steps in this run=      2 maximum allowed number of steps=      2.
 GradGradGradGradGradGradGradGradGradGradGradGradGradGradGradGradGradGrad

 Leave Link  103 at Sat Jul  2 15:37:31 2016, MaxMem=    33554432 cpu:         0.0
 (Enter /home/proyectos/fulerenos/M3C-v1.9/M3C-deps_CCC/g09-AM64L-G09RevC.01/l202.exe)
                          Input orientation:                          
 ---------------------------------------------------------------------
 Center     Atomic      Atomic             Coordinates (Angstroms)
 Number     Number       Type             X           Y           Z
 ---------------------------------------------------------------------
      1          1           0        0.177188   -0.023866   -1.415161
      2          6           0        0.047626    0.002610   -0.326985
      3          9           0        0.792413   -0.637781    0.415089
      4          9           0       -0.846833    0.673585    0.188009
 ---------------------------------------------------------------------
                    Distance matrix (angstroms):
                    1          2          3          4
     1  H    0.000000
     2  C    1.096181   0.000000
     3  F    2.026131   1.231049   0.000000
     4  F    2.026131   1.231049   2.111485   0.000000
 Stoichiometry    CHF2(1+)
 Framework group  C2V[C2(CH),SGV(F2)]
 Deg. of freedom     3
 Full point group                 C2V     NOp   4
 Largest Abelian subgroup         C2V     NOp   4
 Largest concise Abelian subgroup C2      NOp   2
                         Standard orientation:                         
 ---------------------------------------------------------------------
 Center     Atomic      Atomic             Coordinates (Angstroms)
 Number     Number       Type             X           Y           Z
 ---------------------------------------------------------------------
      1          1           0        0.000000    0.000000    1.508208
      2          6           0        0.000000    0.000000    0.412027
      3          9           0        0.000000    1.055743   -0.221132
      4          9           0       -0.000000   -1.055743   -0.221132
 ---------------------------------------------------------------------
 Rotational constants (GHZ):     82.6585127     11.9331171     10.4277060
 Leave Link  202 at Sat Jul  2 15:37:32 2016, MaxMem=    33554432 cpu:         0.0
 (Enter /home/proyectos/fulerenos/M3C-v1.9/M3C-deps_CCC/g09-AM64L-G09RevC.01/l301.exe)
 Standard basis: 6-311++G(3df,2p) (5D, 7F)
 Ernie: Thresh=  0.10000D-02 Tol=  0.10000D-05 Strict=F.
 There are    58 symmetry adapted cartesian basis functions of A1  symmetry.
 There are    18 symmetry adapted cartesian basis functions of A2  symmetry.
 There are    26 symmetry adapted cartesian basis functions of B1  symmetry.
 There are    43 symmetry adapted cartesian basis functions of B2  symmetry.
 There are    49 symmetry adapted basis functions of A1  symmetry.
 There are    17 symmetry adapted basis functions of A2  symmetry.
 There are    24 symmetry adapted basis functions of B1  symmetry.
 There are    37 symmetry adapted basis functions of B2  symmetry.
   127 basis functions,   186 primitive gaussians,   145 cartesian basis functions
    12 alpha electrons       12 beta electrons
       nuclear repulsion energy        74.3224847540 Hartrees.
 IExCor=  402 DFT=T Ex+Corr=B3LYP ExCW=0 ScaHFX=  0.200000
 ScaDFX=  0.800000  0.720000  1.000000  0.810000 ScalE2=  1.000000  1.000000
 IRadAn=      0 IRanWt=     -1 IRanGd=            0 ICorTp=0 IEmpDi=  4
 NAtoms=    4 NActive=    4 NUniq=    3 SFac= 1.78D+00 NAtFMM=   60 NAOKFM=F Big=F
 Integral buffers will be    131072 words long.
 Raffenetti 2 integral format.
 Two-electron integral symmetry is turned on.
 Leave Link  301 at Sat Jul  2 15:37:32 2016, MaxMem=    33554432 cpu:         0.3
 (Enter /home/proyectos/fulerenos/M3C-v1.9/M3C-deps_CCC/g09-AM64L-G09RevC.01/l302.exe)
 NPDir=0 NMtPBC=     1 NCelOv=     1 NCel=       1 NClECP=     1 NCelD=      1
         NCelK=      1 NCelE2=     1 NClLst=     1 CellRange=     0.0.
 One-electron integrals computed using PRISM.
 One-electron integral symmetry used in STVInt
 NBasis=   127 RedAO= T EigKep=  9.65D-04  NBF=    49    17    24    37
 NBsUse=   127 1.00D-06 EigRej= -1.00D+00 NBFU=    49    17    24    37
 Precomputing XC quadrature grid using
 IXCGrd= 4 IRadAn=           0 IRanWt=          -1 IRanGd=           0 AccXCQ= 0.00D+00.
 Generated NRdTot=       0 NPtTot=           0 NUsed=           0 NTot=          32
 NSgBfM=   145   145   145   145   145 MxSgAt=     4 MxSgA2=     4.
 Leave Link  302 at Sat Jul  2 15:37:32 2016, MaxMem=    33554432 cpu:         0.4
 (Enter /home/proyectos/fulerenos/M3C-v1.9/M3C-deps_CCC/g09-AM64L-G09RevC.01/l303.exe)
 DipDrv:  MaxL=1.
 Leave Link  303 at Sat Jul  2 15:37:33 2016, MaxMem=    33554432 cpu:         0.1
 (Enter /home/proyectos/fulerenos/M3C-v1.9/M3C-deps_CCC/g09-AM64L-G09RevC.01/l401.exe)
 ExpMin= 3.60D-02 ExpMax= 1.14D+04 ExpMxC= 1.72D+03 IAcc=3 IRadAn=         5 AccDes= 0.00D+00
 Harris functional with IExCor=  402 and IRadAn=       5 diagonalized for initial guess.
 HarFok:  IExCor=  402 AccDes= 0.00D+00 IRadAn=         5 IDoV= 1 UseB2=F ITyADJ=14
 ICtDFT=  3500011 ScaDFX=  1.000000  1.000000  1.000000  1.000000
 FoFCou: FMM=F IPFlag=           0 FMFlag=      100000 FMFlg1=           0
         NFxFlg=           0 DoJE=T BraDBF=F KetDBF=T FulRan=T
         wScrn=  0.000000 ICntrl=     500 IOpCl=  0 I1Cent=   200000004 NGrid=           0
         NMat0=    1 NMatS0=      1 NMatT0=    0 NMatD0=    1 NMtDS0=    0 NMtDT0=    0
 Petite list used in FoFCou.
 Harris En= -238.205963043739    
 JPrj=0 DoOrth=F DoCkMO=F.
 Initial guess orbital symmetries:
       Occupied  (A1) (B2) (A1) (A1) (B2) (A1) (B2) (A1) (B1) (A2)
                 (B2) (A1)
       Virtual   (B1) (A1) (A1) (B2) (B1) (A1) (A1) (B2) (A1) (B2)
                 (A1) (A2) (B1) (A1) (B2) (A1) (B1) (B2) (A1) (A2)
                 (A1) (B2) (B1) (A1) (A1) (B2) (B1) (A1) (B2) (A1)
                 (B2) (A2) (B1) (A2) (B1) (B2) (A1) (B2) (A2) (A1)
                 (A1) (B1) (A1) (B2) (A1) (B2) (A1) (B1) (A2) (B2)
                 (A1) (B2) (A1) (A1) (B1) (B1) (A2) (A1) (B2) (B1)
                 (B2) (A1) (B2) (A1) (B1) (B2) (B1) (A1) (A2) (B2)
                 (A1) (B1) (A2) (A1) (B2) (B2) (A1) (B1) (A2) (A1)
                 (B2) (A2) (B2) (A1) (B1) (B2) (A2) (A1) (B2) (B1)
                 (A1) (A1) (A2) (B1) (A1) (B1) (A2) (B2) (A1) (A1)
                 (B2) (B2) (B1) (A2) (A1) (B2) (A1) (B1) (A2) (A1)
                 (B2) (B2) (A1) (B2) (A1)
 The electronic state of the initial guess is 1-A1.
 Leave Link  401 at Sat Jul  2 15:37:34 2016, MaxMem=    33554432 cpu:         1.3
 (Enter /home/proyectos/fulerenos/M3C-v1.9/M3C-deps_CCC/g09-AM64L-G09RevC.01/l502.exe)
 Closed shell SCF:
 Using DIIS extrapolation, IDIIS=  1040.
 Integral symmetry usage will be decided dynamically.
 IVT=       83771 IEndB=       83771 NGot=    33554432 MDV=    33508472
 LenX=    33508472 LenY=    33487006
 Requested convergence on RMS density matrix=1.00D-08 within 128 cycles.
 Requested convergence on MAX density matrix=1.00D-06.
 Requested convergence on             energy=1.00D-06.
 No special actions if energy rises.
 Fock matrices will be formed incrementally for  20 cycles.

 Cycle   1  Pass 1  IDiag  1:
 FoFJK:  IHMeth= 1 ICntrl=       0 DoSepK=F KAlg= 0 I1Cent=   0 FoldK=F
 IRaf= 990000000 NMat=   1 IRICut=       1 DoRegI=T DoRafI=F ISym2E= 1.
 FoFCou: FMM=F IPFlag=           0 FMFlag=      100000 FMFlg1=           0
         NFxFlg=           0 DoJE=F BraDBF=F KetDBF=F FulRan=T
         wScrn=  0.000000 ICntrl=       0 IOpCl=  0 I1Cent=           0 NGrid=           0
         NMat0=    1 NMatS0=      1 NMatT0=    0 NMatD0=    1 NMtDS0=    0 NMtDT0=    0
 Petite list used in FoFCou.
 E= -238.048276361686    
 DIIS: error= 2.75D-02 at cycle   1 NSaved=   1.
 NSaved= 1 IEnMin= 1 EnMin= -238.048276361686     IErMin= 1 ErrMin= 2.75D-02
 ErrMax= 2.75D-02  0.00D+00 EMaxC= 1.00D-01 BMatC= 5.01D-02 BMatP= 5.01D-02
 IDIUse=3 WtCom= 7.25D-01 WtEn= 2.75D-01
 Coeff-Com:  0.100D+01
 Coeff-En:   0.100D+01
 Coeff:      0.100D+01
 Gap=     0.313 Goal=   None    Shift=    0.000
 GapD=    0.313 DampG=1.000 DampE=0.500 DampFc=0.5000 IDamp=-1.
 Damping current iteration by 5.00D-01
 RMSDP=2.14D-03 MaxDP=1.01D-01              OVMax= 1.31D-01

 Cycle   2  Pass 1  IDiag  1:
 RMSU=  1.05D-03    CP:  1.01D+00
 E= -238.062836285004     Delta-E=       -0.014559923318 Rises=F Damp=T
 DIIS: error= 7.15D-03 at cycle   2 NSaved=   2.
 NSaved= 2 IEnMin= 2 EnMin= -238.062836285004     IErMin= 2 ErrMin= 7.15D-03
 ErrMax= 7.15D-03  0.00D+00 EMaxC= 1.00D-01 BMatC= 5.24D-03 BMatP= 5.01D-02
 IDIUse=3 WtCom= 9.29D-01 WtEn= 7.15D-02
 Coeff-Com:  0.116D+00 0.884D+00
 Coeff-En:   0.175D+00 0.825D+00
 Coeff:      0.120D+00 0.880D+00
 Gap=     0.359 Goal=   None    Shift=    0.000
 RMSDP=5.53D-04 MaxDP=1.26D-02 DE=-1.46D-02 OVMax= 9.46D-02

 Cycle   3  Pass 1  IDiag  1:
 RMSU=  5.41D-04    CP:  1.02D+00  9.06D-01
 E= -238.083182330554     Delta-E=       -0.020346045550 Rises=F Damp=F
 DIIS: error= 7.46D-03 at cycle   3 NSaved=   3.
 NSaved= 3 IEnMin= 3 EnMin= -238.083182330554     IErMin= 2 ErrMin= 7.15D-03
 ErrMax= 7.46D-03  0.00D+00 EMaxC= 1.00D-01 BMatC= 4.71D-03 BMatP= 5.24D-03
 IDIUse=3 WtCom= 9.25D-01 WtEn= 7.46D-02
 Coeff-Com: -0.383D-01 0.486D+00 0.552D+00
 Coeff-En:   0.000D+00 0.000D+00 0.100D+01
 Coeff:     -0.354D-01 0.450D+00 0.586D+00
 Gap=     0.356 Goal=   None    Shift=    0.000
 RMSDP=2.35D-04 MaxDP=7.65D-03 DE=-2.03D-02 OVMax= 1.51D-02

 Cycle   4  Pass 1  IDiag  1:
 RMSU=  1.76D-04    CP:  1.01D+00  9.62D-01  7.39D-01
 E= -238.085683461305     Delta-E=       -0.002501130751 Rises=F Damp=F
 DIIS: error= 1.02D-03 at cycle   4 NSaved=   4.
 NSaved= 4 IEnMin= 4 EnMin= -238.085683461305     IErMin= 4 ErrMin= 1.02D-03
 ErrMax= 1.02D-03  0.00D+00 EMaxC= 1.00D-01 BMatC= 1.28D-04 BMatP= 4.71D-03
 IDIUse=3 WtCom= 9.90D-01 WtEn= 1.02D-02
 Coeff-Com: -0.248D-01 0.647D-01 0.181D+00 0.780D+00
 Coeff-En:   0.000D+00 0.000D+00 0.000D+00 0.100D+01
 Coeff:     -0.246D-01 0.640D-01 0.179D+00 0.782D+00
 Gap=     0.355 Goal=   None    Shift=    0.000
 RMSDP=4.69D-05 MaxDP=2.17D-03 DE=-2.50D-03 OVMax= 2.05D-03

 Cycle   5  Pass 1  IDiag  1:
 RMSU=  2.25D-05    CP:  1.02D+00  9.78D-01  7.78D-01  8.28D-01
 E= -238.085751335978     Delta-E=       -0.000067874673 Rises=F Damp=F
 DIIS: error= 5.37D-05 at cycle   5 NSaved=   5.
 NSaved= 5 IEnMin= 5 EnMin= -238.085751335978     IErMin= 5 ErrMin= 5.37D-05
 ErrMax= 5.37D-05  0.00D+00 EMaxC= 1.00D-01 BMatC= 2.86D-07 BMatP= 1.28D-04
 IDIUse=1 WtCom= 1.00D+00 WtEn= 0.00D+00
 Coeff-Com: -0.350D-02 0.484D-02 0.159D-01 0.688D-01 0.914D+00
 Coeff:     -0.350D-02 0.484D-02 0.159D-01 0.688D-01 0.914D+00
 Gap=     0.355 Goal=   None    Shift=    0.000
 RMSDP=2.53D-06 MaxDP=7.50D-05 DE=-6.79D-05 OVMax= 1.32D-04

 Cycle   6  Pass 1  IDiag  1:
 RMSU=  2.16D-06    CP:  1.02D+00  9.79D-01  7.79D-01  8.32D-01  9.65D-01
 E= -238.085751467786     Delta-E=       -0.000000131808 Rises=F Damp=F
 DIIS: error= 1.69D-05 at cycle   6 NSaved=   6.
 NSaved= 6 IEnMin= 6 EnMin= -238.085751467786     IErMin= 6 ErrMin= 1.69D-05
 ErrMax= 1.69D-05  0.00D+00 EMaxC= 1.00D-01 BMatC= 2.60D-08 BMatP= 2.86D-07
 IDIUse=1 WtCom= 1.00D+00 WtEn= 0.00D+00
 Coeff-Com: -0.565D-03 0.780D-03 0.862D-05-0.346D-02 0.172D+00 0.831D+00
 Coeff:     -0.565D-03 0.780D-03 0.862D-05-0.346D-02 0.172D+00 0.831D+00
 Gap=     0.355 Goal=   None    Shift=    0.000
 RMSDP=7.30D-07 MaxDP=4.45D-05 DE=-1.32D-07 OVMax= 3.24D-05

 Cycle   7  Pass 1  IDiag  1:
 RMSU=  2.25D-07    CP:  1.02D+00  9.79D-01  7.79D-01  8.31D-01  9.79D-01
                    CP:  9.18D-01
 E= -238.085751487390     Delta-E=       -0.000000019604 Rises=F Damp=F
 DIIS: error= 2.05D-06 at cycle   7 NSaved=   7.
 NSaved= 7 IEnMin= 7 EnMin= -238.085751487390     IErMin= 7 ErrMin= 2.05D-06
 ErrMax= 2.05D-06  0.00D+00 EMaxC= 1.00D-01 BMatC= 4.09D-10 BMatP= 2.60D-08
 IDIUse=1 WtCom= 1.00D+00 WtEn= 0.00D+00
 Coeff-Com: -0.653D-04 0.102D-03-0.342D-03-0.175D-02 0.125D-01 0.119D+00
 Coeff-Com:  0.870D+00
 Coeff:     -0.653D-04 0.102D-03-0.342D-03-0.175D-02 0.125D-01 0.119D+00
 Coeff:      0.870D+00
 Gap=     0.355 Goal=   None    Shift=    0.000
 RMSDP=7.97D-08 MaxDP=2.69D-06 DE=-1.96D-08 OVMax= 3.61D-06

 Cycle   8  Pass 1  IDiag  1:
 RMSU=  4.32D-08    CP:  1.02D+00  9.79D-01  7.79D-01  8.31D-01  9.81D-01
                    CP:  9.26D-01  1.00D+00
 E= -238.085751487623     Delta-E=       -0.000000000233 Rises=F Damp=F
 DIIS: error= 3.47D-07 at cycle   8 NSaved=   8.
 NSaved= 8 IEnMin= 8 EnMin= -238.085751487623     IErMin= 8 ErrMin= 3.47D-07
 ErrMax= 3.47D-07  0.00D+00 EMaxC= 1.00D-01 BMatC= 7.26D-12 BMatP= 4.09D-10
 IDIUse=1 WtCom= 1.00D+00 WtEn= 0.00D+00
 Coeff-Com:  0.806D-05-0.131D-04-0.723D-04-0.176D-03-0.361D-02-0.105D-01
 Coeff-Com:  0.829D-01 0.931D+00
 Coeff:      0.806D-05-0.131D-04-0.723D-04-0.176D-03-0.361D-02-0.105D-01
 Coeff:      0.829D-01 0.931D+00
 Gap=     0.355 Goal=   None    Shift=    0.000
 RMSDP=1.23D-08 MaxDP=2.35D-07 DE=-2.33D-10 OVMax= 5.93D-07

 Cycle   9  Pass 1  IDiag  1:
 RMSU=  4.25D-09    CP:  1.02D+00  9.79D-01  7.79D-01  8.31D-01  9.81D-01
                    CP:  9.28D-01  1.03D+00  1.05D+00
 E= -238.085751487626     Delta-E=       -0.000000000003 Rises=F Damp=F
 DIIS: error= 1.98D-08 at cycle   9 NSaved=   9.
 NSaved= 9 IEnMin= 9 EnMin= -238.085751487626     IErMin= 9 ErrMin= 1.98D-08
 ErrMax= 1.98D-08  0.00D+00 EMaxC= 1.00D-01 BMatC= 2.78D-14 BMatP= 7.26D-12
 IDIUse=1 WtCom= 1.00D+00 WtEn= 0.00D+00
 Coeff-Com:  0.602D-06-0.918D-06 0.962D-06 0.117D-04-0.170D-03-0.160D-02
 Coeff-Com: -0.687D-02 0.367D-01 0.972D+00
 Coeff:      0.602D-06-0.918D-06 0.962D-06 0.117D-04-0.170D-03-0.160D-02
 Coeff:     -0.687D-02 0.367D-01 0.972D+00
 Gap=     0.355 Goal=   None    Shift=    0.000
 RMSDP=1.18D-09 MaxDP=4.98D-08 DE=-2.67D-12 OVMax= 6.19D-08

 SCF Done:  E(RB3LYP) =  -238.085751488     A.U. after    9 cycles
            NFock=  9  Conv=0.12D-08     -V/T= 2.0029
 KE= 2.373891836126D+02 PE=-7.057598622375D+02 EE= 1.559624423832D+02
 Leave Link  502 at Sat Jul  2 15:38:13 2016, MaxMem=    33554432 cpu:        25.2
 (Enter /home/proyectos/fulerenos/M3C-v1.9/M3C-deps_CCC/g09-AM64L-G09RevC.01/l801.exe)
 DoSCS=F DFT=T ScalE2(SS,OS)=  1.000000  1.000000
 Range of M.O.s used for correlation:     1   127
 NBasis=   127 NAE=    12 NBE=    12 NFC=     0 NFV=     0
 NROrb=    127 NOA=    12 NOB=    12 NVA=   115 NVB=   115

 **** Warning!!: The largest alpha MO coefficient is  0.17346677D+02

 Leave Link  801 at Sat Jul  2 15:38:13 2016, MaxMem=    33554432 cpu:         0.0
 (Enter /home/proyectos/fulerenos/M3C-v1.9/M3C-deps_CCC/g09-AM64L-G09RevC.01/l1101.exe)
 Using compressed storage, NAtomX=     4.
 Will process      5 centers per pass.
 Leave Link 1101 at Sat Jul  2 15:38:13 2016, MaxMem=    33554432 cpu:         0.4
 (Enter /home/proyectos/fulerenos/M3C-v1.9/M3C-deps_CCC/g09-AM64L-G09RevC.01/l1102.exe)
 Symmetrizing basis deriv contribution to polar:
 IMax=3 JMax=2 DiffMx= 0.00D+00
 Leave Link 1102 at Sat Jul  2 15:38:13 2016, MaxMem=    33554432 cpu:         0.1
 (Enter /home/proyectos/fulerenos/M3C-v1.9/M3C-deps_CCC/g09-AM64L-G09RevC.01/l1110.exe)
 Forming Gx(P) for the SCF density, NAtomX=     4.
 Integral derivatives from FoFJK, PRISM(SPDF).
 Do as many integral derivatives as possible in FoFJK.
 G2DrvN: MDV=      33554296.
 G2DrvN: will do     5 centers at a time, making    1 passes.
 Calling FoFCou, ICntrl=  3107 FMM=F I1Cent=   0 AccDes= 0.00D+00.
 FoFJK:  IHMeth= 1 ICntrl=    3107 DoSepK=F KAlg= 0 I1Cent=   0 FoldK=F
 IRaf=         0 NMat=   1 IRICut=       1 DoRegI=T DoRafI=F ISym2E= 1.
 FoFCou: FMM=F IPFlag=           0 FMFlag=      100000 FMFlg1=           0
         NFxFlg=           0 DoJE=F BraDBF=F KetDBF=F FulRan=T
         wScrn=  0.000000 ICntrl=    3107 IOpCl=  0 I1Cent=           0 NGrid=           0
         NMat0=    1 NMatS0=      1 NMatT0=    0 NMatD0=    1 NMtDS0=    0 NMtDT0=    0
 Petite list used in FoFCou.
 End of G2Drv F.D. properties file   721 does not exist.
 End of G2Drv F.D. properties file   722 does not exist.
 End of G2Drv F.D. properties file   788 does not exist.
 Leave Link 1110 at Sat Jul  2 15:38:38 2016, MaxMem=    33554432 cpu:        25.0
 (Enter /home/proyectos/fulerenos/M3C-v1.9/M3C-deps_CCC/g09-AM64L-G09RevC.01/l1002.exe)
 Minotr:  Closed shell wavefunction.
          IDoAtm=1111
          Direct CPHF calculation.
          Differentiating once with respect to electric field.
                with respect to dipole field.
          Differentiating once with respect to nuclear coordinates.
          Using symmetry in CPHF.
          Requested convergence is 1.0D-08 RMS, and 1.0D-07 maximum.
          Secondary convergence is 1.0D-12 RMS, and 1.0D-12 maximum.
          NewPWx=T KeepS1=F KeepF1=F KeepIn=T MapXYZ=F SortEE=F KeepMc=T.
          MDV=      33554261 using IRadAn=       2.
 Generate precomputed XC quadrature information.
          Solving linear equations simultaneously, MaxMat=       0.
 FoFJK:  IHMeth= 1 ICntrl=       0 DoSepK=F KAlg= 0 I1Cent=   0 FoldK=F
 IRaf= 990000000 NMat=  12 IRICut=      30 DoRegI=T DoRafI=T ISym2E= 2.
 FoFCou: FMM=F IPFlag=           0 FMFlag=      100000 FMFlg1=           0
         NFxFlg=           0 DoJE=F BraDBF=F KetDBF=F FulRan=T
         wScrn=  0.000000 ICntrl=       0 IOpCl=  0 I1Cent=           0 NGrid=           0
         NMat0=   12 NMatS0=     12 NMatT0=    0 NMatD0=   12 NMtDS0=    0 NMtDT0=    0
 Integrals replicated using symmetry in FoFCou.
          There are    12 degrees of freedom in the 1st order CPHF.  IDoFFX=4 NUNeed=    12.
     12 vectors produced by pass  0 Test12= 1.15D-14 8.33D-09 XBig12= 9.79D+00 2.37D+00.
 AX will form    12 AO Fock derivatives at one time.
     12 vectors produced by pass  1 Test12= 1.15D-14 8.33D-09 XBig12= 3.44D+00 4.48D-01.
     12 vectors produced by pass  2 Test12= 1.15D-14 8.33D-09 XBig12= 3.18D-02 4.27D-02.
     12 vectors produced by pass  3 Test12= 1.15D-14 8.33D-09 XBig12= 8.00D-05 3.01D-03.
     12 vectors produced by pass  4 Test12= 1.15D-14 8.33D-09 XBig12= 4.09D-07 1.67D-04.
     11 vectors produced by pass  5 Test12= 1.15D-14 8.33D-09 XBig12= 9.54D-10 6.97D-06.
      4 vectors produced by pass  6 Test12= 1.15D-14 8.33D-09 XBig12= 1.12D-12 2.59D-07.
 InvSVY:  IOpt=1 It=  1 EMax= 8.88D-16
 Solved reduced A of dimension    75 with    12 vectors.
 FullF1:  Do perturbations    1 to    12.
 Isotropic polarizability for W=    0.000000       12.00 Bohr**3.
 End of Minotr F.D. properties file   721 does not exist.
 End of Minotr F.D. properties file   722 does not exist.
 End of Minotr F.D. properties file   788 does not exist.
 Leave Link 1002 at Sat Jul  2 15:39:57 2016, MaxMem=    33554432 cpu:        78.3
 (Enter /home/proyectos/fulerenos/M3C-v1.9/M3C-deps_CCC/g09-AM64L-G09RevC.01/l601.exe)
 Copying SCF densities to generalized density rwf, IOpCl= 0 IROHF=0.

 **********************************************************************

            Population analysis using the SCF density.

 **********************************************************************

 Orbital symmetries:
       Occupied  (A1) (B2) (A1) (A1) (B2) (A1) (B2) (A1) (B1) (A2)
                 (B2) (A1)
       Virtual   (B1) (A1) (A1) (B2) (B1) (A1) (A1) (B2) (A1) (A1)
                 (B2) (A2) (B1) (A1) (B1) (B2) (A1) (B2) (A1) (A2)
                 (A1) (B2) (B1) (A1) (A1) (B2) (B1) (A1) (B2) (A1)
                 (A2) (B2) (B1) (A2) (A1) (B1) (A2) (B2) (B2) (A1)
                 (B1) (A1) (A1) (B2) (A1) (B2) (A1) (B1) (A2) (B2)
                 (A1) (B2) (A1) (A1) (B1) (B1) (A2) (A1) (B2) (B1)
                 (B2) (A1) (B2) (A1) (B1) (B2) (A1) (B1) (A2) (B2)
                 (A1) (B1) (A2) (A1) (B2) (B2) (A1) (B1) (A2) (A1)
                 (B2) (A2) (B2) (A1) (B1) (A1) (B2) (A2) (B2) (B1)
                 (A1) (A2) (A1) (B1) (A1) (B1) (A2) (B2) (A1) (A1)
                 (B2) (B2) (B1) (A2) (A1) (B2) (A1) (B1) (A2) (A1)
                 (B2) (B2) (A1) (B2) (A1)
 The electronic state is 1-A1.
 Alpha  occ. eigenvalues --  -25.10228 -25.10228 -10.76382  -1.70189  -1.63479
 Alpha  occ. eigenvalues --   -1.05399  -0.96001  -0.95861  -0.90933  -0.81563
 Alpha  occ. eigenvalues --   -0.79837  -0.77656
 Alpha virt. eigenvalues --   -0.42153  -0.20781  -0.19314  -0.16593  -0.12762
 Alpha virt. eigenvalues --   -0.08884  -0.04377  -0.04293  -0.01821   0.00194
 Alpha virt. eigenvalues --    0.00716   0.02225   0.02639   0.09764   0.10690
 Alpha virt. eigenvalues --    0.12284   0.13303   0.13919   0.17301   0.20876
 Alpha virt. eigenvalues --    0.22155   0.27289   0.27886   0.35936   0.48558
 Alpha virt. eigenvalues --    0.50979   0.57330   0.60492   0.79594   0.80228
 Alpha virt. eigenvalues --    0.88112   0.88697   0.88921   0.89771   0.98349
 Alpha virt. eigenvalues --    0.99655   1.00370   1.00781   1.04207   1.05245
 Alpha virt. eigenvalues --    1.05936   1.07180   1.24119   1.27324   1.39604
 Alpha virt. eigenvalues --    1.43876   1.52410   1.56362   1.69183   1.90465
 Alpha virt. eigenvalues --    2.05495   2.07193   2.13711   2.24956   2.33381
 Alpha virt. eigenvalues --    2.57107   2.72082   2.74901   2.79678   2.86302
 Alpha virt. eigenvalues --    2.86879   3.27438   3.48273   3.58202   3.84109
 Alpha virt. eigenvalues --    3.88307   4.21194   4.21285   4.22080   4.26772
 Alpha virt. eigenvalues --    4.29453   4.45028   4.48165   4.76722   4.80453
 Alpha virt. eigenvalues --    4.88824   5.08146   5.95646   5.95841   6.02923
 Alpha virt. eigenvalues --    6.16255   6.22508   6.23663   6.23748   6.24906
 Alpha virt. eigenvalues --    6.27923   6.30130   6.30978   6.44465   6.47450
 Alpha virt. eigenvalues --    6.65552   6.68560   6.70679   6.77944   6.90439
 Alpha virt. eigenvalues --    7.22058   7.43961   7.46832   7.47740   7.76930
 Alpha virt. eigenvalues --    7.88987   8.26410  18.87321  18.88227  18.89046
 Alpha virt. eigenvalues --   18.90455  18.95663  18.99351  19.03831  19.20098
 Alpha virt. eigenvalues --   19.21342  19.48669  24.53182  66.55917  66.67336
          Condensed to atoms (all electrons):
               1          2          3          4
     1  H    0.367855   0.392918  -0.027993  -0.027993
     2  C    0.392918   4.606906   0.125929   0.125929
     3  F   -0.027993   0.125929   8.959688  -0.035858
     4  F   -0.027993   0.125929  -0.035858   8.959688
 Mulliken charges:
               1
     1  H    0.295213
     2  C    0.748318
     3  F   -0.021766
     4  F   -0.021766
 Sum of Mulliken charges =   1.00000
 Mulliken charges with hydrogens summed into heavy atoms:
               1
     2  C    1.043532
     3  F   -0.021766
     4  F   -0.021766
 APT charges:
               1
     1  H    0.202350
     2  C    1.339831
     3  F   -0.271090
     4  F   -0.271090
 Sum of APT charges =   1.00000
 APT charges with hydrogens summed into heavy atoms:
               1
     2  C    1.542180
     3  F   -0.271090
     4  F   -0.271090
 Electronic spatial extent (au):  <R**2>=            112.6512
 Charge=              1.0000 electrons
 Dipole moment (field-independent basis, Debye):
    X=              0.0000    Y=              0.0000    Z=              2.5647  Tot=              2.5647
 Quadrupole moment (field-independent basis, Debye-Ang):
   XX=            -12.7274   YY=            -12.3354   ZZ=            -10.0458
   XY=             -0.0000   XZ=             -0.0000   YZ=              0.0000
 Traceless Quadrupole moment (field-independent basis, Debye-Ang):
   XX=             -1.0245   YY=             -0.6326   ZZ=              1.6571
   XY=             -0.0000   XZ=             -0.0000   YZ=              0.0000
 Octapole moment (field-independent basis, Debye-Ang**2):
  XXX=              0.0000  YYY=              0.0000  ZZZ=              3.5218  XYY=              0.0000
  XXY=             -0.0000  XXZ=             -0.4295  XZZ=              0.0000  YZZ=             -0.0000
  YYZ=             -1.3862  XYZ=             -0.0000
 Hexadecapole moment (field-independent basis, Debye-Ang**3):
 XXXX=             -7.8793 YYYY=            -63.8015 ZZZZ=            -13.5516 XXXY=             -0.0000
 XXXZ=             -0.0000 YYYX=             -0.0000 YYYZ=              0.0000 ZZZX=             -0.0000
 ZZZY=              0.0000 XXYY=            -12.3939 XXZZ=             -5.0792 YYZZ=            -14.4984
 XXYZ=              0.0000 YYXZ=             -0.0000 ZZXY=             -0.0000
 N-N= 7.432248475403D+01 E-N=-7.057598625885D+02  KE= 2.373891836126D+02
 Symmetry A1   KE= 1.294572834730D+02
 Symmetry A2   KE= 6.842431266887D+00
 Symmetry B1   KE= 5.260161033653D+00
 Symmetry B2   KE= 9.582930783908D+01
  Exact polarizability:   8.808   0.000  15.111  -0.000   0.000  12.075
 Approx polarizability:  11.730   0.000  22.882   0.000  -0.000  15.564
 No NMR shielding tensors so no spin-rotation constants.
 Leave Link  601 at Sat Jul  2 15:39:57 2016, MaxMem=    33554432 cpu:         0.3
 (Enter /home/proyectos/fulerenos/M3C-v1.9/M3C-deps_CCC/g09-AM64L-G09RevC.01/l701.exe)
 Compute integral second derivatives.
 ... and contract with generalized density number  0.
 Leave Link  701 at Sat Jul  2 15:39:57 2016, MaxMem=    33554432 cpu:         0.3
 (Enter /home/proyectos/fulerenos/M3C-v1.9/M3C-deps_CCC/g09-AM64L-G09RevC.01/l702.exe)
 L702 exits ... SP integral derivatives will be done elsewhere.
 Leave Link  702 at Sat Jul  2 15:39:57 2016, MaxMem=    33554432 cpu:         0.0
 (Enter /home/proyectos/fulerenos/M3C-v1.9/M3C-deps_CCC/g09-AM64L-G09RevC.01/l703.exe)
 Compute integral second derivatives, UseDBF=F ICtDFT=           0.
 Integral derivatives from FoFJK, PRISM(SPDF).
 Calling FoFJK, ICntrl=    100127 FMM=F ISym2X=1 I1Cent= 0 IOpClX= 0 NMat=1 NMatS=1 NMatT=0.
 FoFJK:  IHMeth= 1 ICntrl=  100127 DoSepK=F KAlg= 0 I1Cent=   0 FoldK=F
 IRaf=         0 NMat=   1 IRICut=       1 DoRegI=T DoRafI=F ISym2E= 1.
 FoFCou: FMM=F IPFlag=           0 FMFlag=      100000 FMFlg1=         800
         NFxFlg=           0 DoJE=F BraDBF=F KetDBF=F FulRan=T
         wScrn=  0.000000 ICntrl=  100127 IOpCl=  0 I1Cent=           0 NGrid=           0
         NMat0=    1 NMatS0=      1 NMatT0=    0 NMatD0=    1 NMtDS0=    0 NMtDT0=    0
 Petite list used in FoFCou.
 Leave Link  703 at Sat Jul  2 15:40:29 2016, MaxMem=    33554432 cpu:        31.3
 (Enter /home/proyectos/fulerenos/M3C-v1.9/M3C-deps_CCC/g09-AM64L-G09RevC.01/l716.exe)
 Dipole        = 8.70351607D-17 1.28402978D-14 1.00903444D+00
 Polarizability= 8.80801227D+00 2.43143061D-10 1.51109758D+01
                -2.25643653D-11 3.82648679D-10 1.20753825D+01
 Full mass-weighted force constant matrix:
 Low frequencies ---  -24.6511  -13.0392   -8.9449   -0.0015   -0.0014   -0.0012
 Low frequencies ---  669.4951 1084.2769 1314.5000
 Diagonal vibrational polarizability:
        0.0105152       4.3758660       3.6691734
 Harmonic frequencies (cm**-1), IR intensities (KM/Mole), Raman scattering
 activities (A**4/AMU), depolarization ratios for plane and unpolarized
 incident light, reduced masses (AMU), force constants (mDyne/A),
 and normal coordinates:
                      1                      2                      3
                     A1                     B1                     B2
 Frequencies --    669.4951              1084.2769              1314.5000
 Red. masses --     13.1388                 1.6269                 1.1294
 Frc consts  --      3.4698                 1.1269                 1.1498
 IR Inten    --     30.8988                 0.4594                58.2692
  Atom  AN      X      Y      Z        X      Y      Z        X      Y      Z
     1   1     0.00  -0.00  -0.49     0.97   0.00   0.00    -0.00   1.00   0.00
     2   6    -0.00  -0.00  -0.47    -0.22   0.00   0.00     0.00   0.02   0.00
     3   9     0.00   0.49   0.16     0.04   0.00  -0.00    -0.00  -0.03   0.05
     4   9     0.00  -0.49   0.16     0.04  -0.00  -0.00    -0.00  -0.03  -0.05
                      4                      5                      6
                     A1                     B2                     A1
 Frequencies --   1391.1242              1635.6440              3126.0771
 Red. masses --      8.0127                 8.6115                 1.1093
 Frc consts  --      9.1361                13.5740                 6.3868
 IR Inten    --    123.3967               344.8007                35.6124
  Atom  AN      X      Y      Z        X      Y      Z        X      Y      Z
     1   1    -0.00  -0.00   0.70    -0.00  -0.62  -0.00    -0.00   0.00   1.00
     2   6     0.00  -0.00   0.56     0.00   0.71  -0.00     0.00   0.00  -0.10
     3   9    -0.00   0.25  -0.19    -0.00  -0.21   0.11    -0.00  -0.00   0.00
     4   9    -0.00  -0.25  -0.19    -0.00  -0.21  -0.11    -0.00   0.00   0.00

 -------------------
 - Thermochemistry -
 -------------------
 Temperature   298.150 Kelvin.  Pressure   1.00000 Atm.
 Atom     1 has atomic number  1 and mass   1.00783
 Atom     2 has atomic number  6 and mass  12.00000
 Atom     3 has atomic number  9 and mass  18.99840
 Atom     4 has atomic number  9 and mass  18.99840
 Molecular mass:    51.00463 amu.
 Principal axes and moments of inertia in atomic units:
                           1         2         3
     Eigenvalues --    21.83370 151.23804 173.07174
           X            0.00000   0.00000   1.00000
           Y            1.00000   0.00000  -0.00000
           Z           -0.00000   1.00000  -0.00000
 This molecule is an asymmetric top.
 Rotational symmetry number  2.
 Rotational temperatures (Kelvin)      3.96698     0.57270     0.50045
 Rotational constants (GHZ):          82.65851    11.93312    10.42771
 Zero-point vibrational energy      55154.5 (Joules/Mol)
                                   13.18225 (Kcal/Mol)
 Vibrational temperatures:    963.25  1560.03  1891.27  2001.51  2353.32
          (Kelvin)           4497.72
 
 Zero-point correction=                           0.021007 (Hartree/Particle)
 Thermal correction to Energy=                    0.024013
 Thermal correction to Enthalpy=                  0.024957
 Thermal correction to Gibbs Free Energy=        -0.002491
 Sum of electronic and zero-point Energies=           -238.064744
 Sum of electronic and thermal Energies=              -238.061739
 Sum of electronic and thermal Enthalpies=            -238.060794
 Sum of electronic and thermal Free Energies=         -238.088243
 
                     E (Thermal)             CV                S
                      KCal/Mol        Cal/Mol-Kelvin    Cal/Mol-Kelvin
 Total                   15.068              7.441             57.770
 Electronic               0.000              0.000              0.000
 Translational            0.889              2.981             37.711
 Rotational               0.889              2.981             19.597
 Vibrational             13.291              1.479              0.462
                       Q            Log10(Q)             Ln(Q)
 Total Bot       0.139909D+02          1.145845          2.638405
 Total V=0       0.643411D+11         10.808489         24.887465
 Vib (Bot)       0.228376D-09         -9.641349        -22.200026
 Vib (V=0)       0.105026D+01          0.021295          0.049034
 Electronic      0.100000D+01          0.000000          0.000000
 Translational   0.143176D+08          7.155870         16.476999
 Rotational      0.427882D+04          3.631324          8.361432
 
                                                              b3lyp opt
                                                             IR Spectrum
 
     3                                                            1         1  1        1                                            
     1                                                            6         3  3        0                6                           
     2                                                            3         9  1        8                6                           
     6                                                            6         1  5        4                9                           
 
     X                                                            X         X  X        X                X                           
     X                                                            X         X  X                         X                           
                                                                  X         X  X                                                     
                                                                  X         X                                                        
                                                                  X         X                                                        
                                                                  X         X                                                        
                                                                  X         X                                                        
                                                                  X                                                                  
                                                                  X                                                                  
                                                                  X                                                                  
                                                                  X                                                                  
                                                                  X                                                                  
                                                                  X                                                                  
                                                                  X                                                                  
                                                                  X                                                                  
                                                                  X                                                                  
                                                                  X                                                                  
                                                                  X                                                                  
                                                                  X                                                                  
                                                                  X                                                                  
 
 ***** Axes restored to original set *****
 -------------------------------------------------------------------
 Center     Atomic                   Forces (Hartrees/Bohr)
 Number     Number              X              Y              Z
 -------------------------------------------------------------------
      1        1           0.000002353   -0.000000481   -0.000019764
      2        6          -0.000006844    0.000001398    0.000057480
      3        9          -0.000001387    0.000002447   -0.000019361
      4        9           0.000005877   -0.000003364   -0.000018355
 -------------------------------------------------------------------
 Cartesian Forces:  Max     0.000057480 RMS     0.000019396
 Z-matrix is all fixed cartesians, so copy forces.
 Force constants in Cartesian coordinates: 
                1             2             3             4             5 
      1  0.527545D-01
      2 -0.185663D-01  0.405976D-01
      3 -0.337938D-01  0.508315D-02  0.336231D+00
      4 -0.617594D-01 -0.102347D-01  0.330143D-01  0.609785D+00
      5 -0.102347D-01 -0.631566D-01 -0.788005D-02 -0.325211D+00  0.455031D+00
      6  0.330143D-01 -0.788005D-02 -0.332829D+00 -0.254057D-01 -0.281471D-01
      7  0.806738D-02  0.116577D-01 -0.680345D-03 -0.231274D+00  0.146978D+00
      8  0.135629D-01  0.118623D-01  0.253353D-02  0.145543D+00 -0.188951D+00
      9 -0.279877D-01  0.241150D-01 -0.584891D-02 -0.170042D+00  0.152863D+00
     10  0.937523D-03  0.171433D-01  0.145982D-02 -0.316752D+00  0.188467D+00
     11  0.152381D-01  0.106967D-01  0.263371D-03  0.189902D+00 -0.202924D+00
     12  0.287672D-01 -0.213181D-01  0.244648D-02  0.162433D+00 -0.116836D+00
                6             7             8             9            10 
      6  0.887279D+00
      7 -0.190608D+00  0.281649D+00
      8  0.169117D+00 -0.221589D+00  0.207589D+00
      9 -0.326951D+00  0.208282D+00 -0.183574D+00  0.291489D+00
     10  0.183000D+00 -0.584431D-01  0.624834D-01 -0.102527D-01  0.374258D+00
     11 -0.133090D+00  0.629537D-01 -0.305005D-01  0.659601D-02 -0.268094D+00
     12 -0.227499D+00 -0.169934D-01  0.119233D-01  0.413117D-01 -0.174207D+00
               11            12 
     11  0.222728D+00
     12  0.126231D+00  0.183741D+00
 Leave Link  716 at Sat Jul  2 15:40:29 2016, MaxMem=    33554432 cpu:         0.1
 (Enter /home/proyectos/fulerenos/M3C-v1.9/M3C-deps_CCC/g09-AM64L-G09RevC.01/l103.exe)

 GradGradGradGradGradGradGradGradGradGradGradGradGradGradGradGradGradGrad
 Berny optimization.
 Search for a local minimum.
 Step number   1 out of a maximum of    2
 All quantities printed in internal units (Hartrees-Bohrs-Radians)
 Second derivative matrix not updated -- analytic derivatives used.
 The second derivative matrix:
                          X1        Y1        Z1        X2        Y2
           X1           0.05275
           Y1          -0.01857   0.04060
           Z1          -0.03379   0.00508   0.33623
           X2          -0.06176  -0.01023   0.03301   0.60979
           Y2          -0.01023  -0.06316  -0.00788  -0.32521   0.45503
           Z2           0.03301  -0.00788  -0.33283  -0.02541  -0.02815
           X3           0.00807   0.01166  -0.00068  -0.23127   0.14698
           Y3           0.01356   0.01186   0.00253   0.14554  -0.18895
           Z3          -0.02799   0.02411  -0.00585  -0.17004   0.15286
           X4           0.00094   0.01714   0.00146  -0.31675   0.18847
           Y4           0.01524   0.01070   0.00026   0.18990  -0.20292
           Z4           0.02877  -0.02132   0.00245   0.16243  -0.11684
                          Z2        X3        Y3        Z3        X4
           Z2           0.88728
           X3          -0.19061   0.28165
           Y3           0.16912  -0.22159   0.20759
           Z3          -0.32695   0.20828  -0.18357   0.29149
           X4           0.18300  -0.05844   0.06248  -0.01025   0.37426
           Y4          -0.13309   0.06295  -0.03050   0.00660  -0.26809
           Z4          -0.22750  -0.01699   0.01192   0.04131  -0.17421
                          Y4        Z4
           Y4           0.22273
           Z4           0.12623   0.18374
 ITU=  0
     Eigenvalues ---    0.11270   0.19445   0.22529   0.51651   1.38550
     Eigenvalues ---    1.39820
 Angle between quadratic step and forces=  40.70 degrees.
 ClnCor:  largest displacement from symmetrization is 7.44D-14 for atom     1.
 Linear search not attempted -- first point.
 ClnCor:  largest displacement from symmetrization is 1.92D-15 for atom     4.
 B after Tr=     0.000001   -0.000000   -0.000004
         Rot=    1.000000   -0.000000    0.000000   -0.000000 Ang=   0.00 deg.
 Variable       Old X    -DE/DX   Delta X   Delta X   Delta X     New X
                                 (Linear)    (Quad)   (Total)
    X1        0.33484   0.00000   0.00000  -0.00000  -0.00000   0.33484
    Y1       -0.04510  -0.00000   0.00000   0.00000   0.00000  -0.04510
    Z1       -2.67427  -0.00002   0.00000   0.00001   0.00000  -2.67426
    X2        0.09000  -0.00001   0.00000  -0.00001  -0.00001   0.08999
    Y2        0.00493   0.00000   0.00000   0.00000   0.00000   0.00493
    Z2       -0.61791   0.00006   0.00000   0.00007   0.00006  -0.61785
    X3        1.49744  -0.00000   0.00000   0.00003   0.00003   1.49747
    Y3       -1.20523   0.00000   0.00000  -0.00002  -0.00002  -1.20525
    Z3        0.78440  -0.00002   0.00000  -0.00003  -0.00003   0.78438
    X4       -1.60028   0.00001   0.00000  -0.00002  -0.00002  -1.60030
    Y4        1.27289  -0.00000   0.00000   0.00002   0.00002   1.27291
    Z4        0.35529  -0.00002   0.00000  -0.00003  -0.00004   0.35525
         Item               Value     Threshold  Converged?
 Maximum Force            0.000057     0.000450     YES
 RMS     Force            0.000019     0.000300     YES
 Maximum Displacement     0.000062     0.001800     YES
 RMS     Displacement     0.000025     0.001200     YES
 Predicted change in Energy=-2.254459D-09
 Optimization completed.
    -- Stationary point found.
 GradGradGradGradGradGradGradGradGradGradGradGradGradGradGradGradGradGrad

 Leave Link  103 at Sat Jul  2 15:40:29 2016, MaxMem=    33554432 cpu:         0.0
 (Enter /home/proyectos/fulerenos/M3C-v1.9/M3C-deps_CCC/g09-AM64L-G09RevC.01/l9999.exe)
 1\1\GINC-BLADI19\Freq\RB3LYP\6-311++G(3df,2p)\C1H1F2(1+)\ROOT\02-Jul-2
 016\0\\#p b3lyp/6-311++G(3df,2p) freq symmetry=Loose\\b3lyp opt\\1,1\H
 ,0.177187629,-0.0238658501,-1.41516051\C,0.047625531,0.0026096541,-0.3
 26985041\F,0.79241263,-0.637780924,0.415089111\F,-0.84683263,0.6735849
 24,0.188008889\\Version=EM64L-G09RevE.01\State=1-A1\HF=-238.0857515\RM
 SD=1.182e-09\RMSF=1.940e-05\ZeroPoint=0.0210073\Thermal=0.0240129\Dipo
 le=0.1192619,-0.0243707,-1.0016652\DipoleDeriv=0.1479255,0.002139,-0.0
 19911,0.002139,0.1468811,0.0043382,-0.019911,0.0043382,0.3122422,1.576
 4444,-0.6292758,0.066765,-0.6292758,1.2889059,-0.0784425,0.066765,-0.0
 784425,1.1541419,-0.3158967,0.2829938,-0.1095381,0.2976544,-0.2103266,
 0.1088646,-0.3196728,0.2749376,-0.2870472,-0.4084732,0.344143,0.062684
 2,0.3294824,-0.2254604,-0.0347603,0.2728189,-0.2008332,-0.1793369\Pola
 r=12.6525448,-3.0483673,11.241094,0.1428864,-0.3426512,12.1007318\PG=C
 02V [C2(C1H1),SGV(F2)]\NImag=0\\0.05275449,-0.01856629,0.04059763,-0.0
 3379381,0.00508315,0.33623107,-0.06175939,-0.01023472,0.03301434,0.609
 78505,-0.01023472,-0.06315665,-0.00788005,-0.32521062,0.45503141,0.033
 01434,-0.00788005,-0.33282863,-0.02540567,-0.02814714,0.88727950,0.008
 06738,0.01165774,-0.00068035,-0.23127355,0.14697799,-0.19060826,0.2816
 4926,0.01356291,0.01186228,0.00253353,0.14554310,-0.18895066,0.1691171
 4,-0.22158942,0.20758888,-0.02798771,0.02411500,-0.00584891,-0.1700415
 8,0.15286295,-0.32695143,0.20828201,-0.18357395,0.29148863,0.00093752,
 0.01714327,0.00145982,-0.31675211,0.18846734,0.18299960,-0.05844308,0.
 06248340,-0.01025273,0.37425767,0.01523809,0.01069674,0.00026337,0.189
 90223,-0.20292410,-0.13308995,0.06295368,-0.03050050,0.00659601,-0.268
 09401,0.22272787,0.02876718,-0.02131809,0.00244648,0.16243291,-0.11683
 575,-0.22749943,-0.01699340,0.01192328,0.04131172,-0.17420669,0.126230
 57,0.18374124\\-0.00000235,0.00000048,0.00001976,0.00000684,-0.0000014
 0,-0.00005748,0.00000139,-0.00000245,0.00001936,-0.00000588,0.00000336
 ,0.00001835\\\@


            ARSENIC

 FOR SMELTER FUMES HAVE I BEEN NAMED,
    I AM AN EVIL POISONOUS SMOKE...
 BUT WHEN FROM POISON I AM FREED,
    THROUGH ART AND SLEIGHT OF HAND,
 THEN CAN I CURE BOTH MAN AND BEAST,
    FROM DIRE DISEASE OFTTIMES DIRECT THEM;
 BUT PREPARE ME CORRECTLY, AND TAKE GREAT CARE
    THAT YOU FAITHFULLY KEEP WATCHFUL GUARD OVER ME;
 FOR ELSE I AM POISON, AND POISON REMAIN,
    THAT PIERCES THE HEART OF MANY A ONE.

 ATTRIBUTED TO THE PROBABLY MYTHICAL 15TH
 CENTURY MONK, BASILIUS VALENTINUS
 Job cpu time:       0 days  0 hours  2 minutes 44.2 seconds.
 File lengths (MBytes):  RWF=     11 Int=      0 D2E=      0 Chk=      2 Scr=      1
 Normal termination of Gaussian 09 at Sat Jul  2 15:40:29 2016.
