4
Energy =   -189.356745631     
    C    1.669502   -1.024203   -0.220136
    C    0.658092   -0.312639   -0.067583
    C   -1.415953    1.146632    0.245119
    O   -0.399094    0.431373    0.091940

FREQUENCIES 7
-423.1508
170.2366
261.4232
329.6989
827.1443
1527.2878
2004.0661

SYMMETRY C*V
ELECTRONIC_STATE ??
