4
Energy =   -189.393224464     
    C    1.953563   -0.496007   -0.062226
    C    0.704263   -0.112645   -0.033405
    C   -0.510137    0.260360   -0.003186
    O   -1.682759    0.620485    0.025920

FREQUENCIES 7
-53.3982
-53.3981
283.8345
283.8346
939.8757
1520.7412
2119.7478

SYMMETRY C*V
ELECTRONIC_STATE 4-SG
