4
Energy =   -189.393224437     
    C    0.057425   -0.586333    0.025337
    C    0.215513    0.670146   -0.081324
    C    0.378006    1.962610   -0.191022
    O   -0.095332   -1.799313    0.128534

FREQUENCIES 7
-53.5906
-53.5905
283.6932
283.6932
939.7592
1520.4378
2119.5316

SYMMETRY C*V
ELECTRONIC_STATE 4-SG
