4
Energy =   -189.272625560     
    C    1.672377   -1.026256   -0.219238
    C    0.676686   -0.325772   -0.071131
    C   -1.508873    1.211942    0.260765
    O   -0.327643    0.381249    0.078943

FREQUENCIES 7
-388.1079
-365.1764
-320.7070
-50.2047
581.8761
1275.6668
2255.2064

SYMMETRY C*V
ELECTRONIC_STATE ??
