5
Energy =   -227.522264853     
    C   -0.892680    0.321163    0.127326
    C   -0.776883    1.640668   -0.488391
    C    0.286324   -0.478840    0.193979
    C    0.419302    0.806193   -0.410908
    O    0.816749   -1.535981    0.534266

FREQUENCIES 9
-1037.0577
280.5897
458.7892
463.2685
699.6629
797.7579
1048.1884
1222.3622
1781.9348

SYMMETRY C2V
ELECTRONIC_STATE 2-B1
