7
Energy =   -228.829343860     
    C    1.349013    1.079622    0.240927
    C   -0.785585   -0.224066   -0.585630
    C   -1.861959   -0.690837   -1.015332
    C    0.357773    0.211297   -0.124977
    H   -2.755855   -1.135007   -1.368207
    H    1.054882    2.144311    0.040728
    O    2.480809    0.874867    0.741459

FREQUENCIES 15
-341.9627
-41.0445
90.0487
224.0122
430.3251
492.8739
544.0038
874.4168
908.1665
1344.6780
1447.7331
1666.6465
1881.5095
2688.8155
3469.0397

SYMMETRY CS
ELECTRONIC_STATE 2-A'
