7
Energy =   -228.677192602     
    C   -0.610340    0.905520    0.100206
    C    1.068876   -0.529363   -0.076831
    O    0.821156    0.880166    0.015918
    C   -0.177031   -1.291444   -0.048705
    C   -1.169788   -0.443178    0.056350
    H   -1.029657    1.896481    0.179357
    H    2.113231   -0.788997   -0.154347

FREQUENCIES 15
-541.5195
-486.3405
-112.2203
291.2596
462.0036
679.9106
762.8756
878.7457
920.3452
1040.8935
1220.6262
1316.2078
1632.9429
3204.3050
3209.6467

SYMMETRY C1
ELECTRONIC_STATE 4-A
