4
Energy =   -114.398893098     
    C    0.394424   -0.378591   -0.262284
    H    0.527170   -1.450142   -0.195762
    H   -0.765873    1.169036   -0.376760
    O   -0.807151    0.184969   -0.319101

FREQUENCIES 6
-433.5810
953.2410
1196.8678
1288.2196
3157.3725
3194.2121

SYMMETRY CS
ELECTRONIC_STATE 4-A"
