6
Energy =   -153.173651982     
    C    0.041557   -0.189686   -0.501624
    C    0.934195   -1.126097   -0.244578
    H    1.957326   -1.025908   -0.589111
    H    0.673648   -2.021616    0.317204
    H   -1.583325    0.851171   -0.607536
    O   -1.224890   -0.008060   -0.241794

FREQUENCIES 12
-211.9064
413.4449
560.5263
755.9119
952.2783
1087.7884
1187.6635
1409.6773
1682.6735
2960.8540
3051.4605
3139.2398

SYMMETRY CS
ELECTRONIC_STATE 3-A'
