7
Energy =   -191.281080760     
    C   -0.155173    1.920131   -0.000000
    C    0.099249    0.722125   -0.000000
    C    0.499732   -0.586230    0.000000
    H   -0.393877    2.954982    0.000000
    H   -1.260388   -1.365774    0.000000
    H    1.542739   -0.866784    0.000000
    O   -0.330605   -1.666042    0.000000

FREQUENCIES 15
-549.1024
385.7354
424.9127
521.4655
578.2014
591.8557
693.6141
974.4624
1205.3242
1285.8887
1395.5293
2089.8119
3181.7583
3423.4962
3461.5748

SYMMETRY CS
ELECTRONIC_STATE 3-A"
