7
Energy =   -153.734870647     
    C    0.475871    0.548753   -0.167750
    C   -0.803044    0.506558    0.571224
    H   -1.446868    1.376789    0.369405
    H   -1.373456   -0.379633    0.277493
    H   -0.668703    0.447219    1.662503
    H    0.404418   -1.037934   -1.266124
    O    1.000254   -0.287294   -1.085981

FREQUENCIES 15
-417.4339
-172.4563
392.2861
870.7899
988.9310
992.1509
1174.0748
1351.4779
1383.9868
1427.8132
1462.9195
2887.4602
2930.7067
3023.4291
3521.9000

SYMMETRY C1
ELECTRONIC_STATE 4-A
