8
Energy =   -191.919877763     
    C   -0.449574   -0.025648   -0.462183
    C    0.762787    0.673575   -0.038577
    C   -1.455364   -0.543308   -0.870968
    H    1.864120   -0.738991    0.745438
    H    1.440526    0.766877   -0.898051
    H    0.504885    1.685413    0.282953
    H   -2.333307   -1.016135   -1.237289
    O    1.438765    0.072625    1.062590

FREQUENCIES 18
-300.0923
201.6223
291.1070
527.4580
714.9194
719.4744
927.7903
968.6690
1024.9405
1213.5849
1364.5762
1387.2155
1462.6304
2216.8384
2942.6648
3028.8555
3469.5178
3623.5167

SYMMETRY C1
ELECTRONIC_STATE 2-A
