9
Energy =   -229.865525066     
    O    0.059962   -0.361120    0.000427
    C    1.037806    0.610677   -0.000208
    C    2.435548    0.041910   -0.000002
    C   -1.194684   -0.025050    0.000327
    C   -2.372415    0.204749    0.000287
    H    0.733851    1.640766   -0.000781
    H    3.288124    0.705127   -0.000466
    H    2.575802   -1.026608    0.000588
    H   -3.414791    0.410848    0.000274

FREQUENCIES 21
-637.9076
-462.0638
-278.3214
132.8231
175.7540
368.6668
446.1525
542.3145
659.2604
701.4412
829.1865
1057.2774
1103.6549
1225.3482
1351.8308
1426.9791
2225.6551
3133.9049
3258.5294
3265.6847
3422.0001

SYMMETRY CS
ELECTRONIC_STATE 4-A'
