9
Energy =   -229.908757165     
    C   -0.428075    1.090223   -0.001005
    C   -0.325401   -1.479764   -0.731569
    O    0.287437    2.138970    0.001269
    C   -0.325460   -1.479311    0.731466
    C    0.251757   -0.337921   -0.000397
    H   -1.516916    1.083048    0.000305
    H    0.173417   -2.127499    1.454615
    H    0.173524   -2.128377   -1.454291
    H    1.325324   -0.160305   -0.000392

FREQUENCIES 21
-4247.4472
-391.9048
234.7597
319.7509
351.8149
406.0060
680.9059
698.9223
805.9355
886.6290
905.5677
1004.0855
1052.5564
1207.3975
1218.9412
1261.8240
1329.1023
1771.5754
3028.1096
3057.3871
3065.4504

SYMMETRY C1
ELECTRONIC_STATE 4-A
