9
Energy =   -230.042753772     
    C    2.285829   -0.615145   -0.144394
    C   -1.124286    0.350772    0.233781
    O   -2.316827    0.567236   -0.055185
    C   -0.354486   -0.799558   -0.389970
    C    1.091624   -0.691825   -0.264194
    H    3.340892   -0.545552   -0.041820
    H   -0.624917    0.863338    1.071467
    H   -0.685995   -1.770000    0.057486
    H   -0.635874   -0.871377   -1.443487

FREQUENCIES 21
-176.6165
150.3397
333.3770
446.2370
488.8426
575.1386
676.9671
764.2704
861.0342
961.5162
1018.7665
1151.3310
1253.4171
1327.6742
1429.6265
1504.1872
2191.0559
2654.5200
2929.0317
3016.6848
3436.8134

SYMMETRY C1
ELECTRONIC_STATE 2-A
