9
Energy =   -229.865523212     
    O    0.060219   -0.361189    0.000425
    C    1.037468    0.611355   -0.000010
    C    2.435785    0.043774    0.000053
    C   -1.194319   -0.025323    0.000419
    C   -2.372506    0.202036    0.000436
    H    0.731853    1.641014   -0.000344
    H    3.288477    0.706836   -0.000270
    H    2.577240   -1.024646    0.000411
    H   -3.415015    0.407444    0.000403

FREQUENCIES 21
-637.5790
-462.3681
-276.6954
132.6760
168.2613
367.9424
445.6334
540.9157
659.0890
699.0516
828.9828
1057.6350
1102.5777
1225.3227
1352.1966
1427.1163
2227.3294
3133.9101
3258.0849
3265.0151
3420.2790

SYMMETRY CS
ELECTRONIC_STATE 4-A'
