9
Energy =   -230.022051259     
    O    0.930726    1.443361   -0.000000
    C    0.268396    0.187517    0.000000
    C    1.047712   -0.972959    0.000000
    C   -1.105519    0.272372    0.000000
    C   -2.336770    0.326133    0.000000
    H    2.130046   -0.917020   -0.000000
    H    0.591670   -1.950319    0.000000
    H    1.868959    1.237774    0.000000
    H   -3.395217    0.373242   -0.000000

FREQUENCIES 21
-589.2804
-263.1072
195.8726
278.5738
384.8327
431.2956
480.0591
599.4255
660.6212
778.5188
944.0900
1165.5794
1248.9353
1428.9842
1517.0565
2046.1408
3124.1362
3224.6463
3469.4110
3843.5147
8177.6499

SYMMETRY CS
ELECTRONIC_STATE 2-A"
