9
Energy =   -230.076903404     
    C    2.211542   -0.381626   -0.000000
    C   -1.465144    0.272851    0.000002
    O   -1.789375   -0.944360   -0.000002
    C   -0.155098    0.831348    0.000001
    C    1.043676    0.193353   -0.000000
    H    2.749337   -0.659437   -0.918635
    H   -2.263783    1.048216   -0.000001
    H   -0.120240    1.919827    0.000001
    H    2.749338   -0.659433    0.918635

FREQUENCIES 21
-243.1651
152.0674
237.5892
390.9565
403.1280
638.3843
779.6128
817.8813
854.8502
912.1203
1018.0804
1078.9967
1351.6352
1374.2022
1470.2428
1563.1969
1863.5245
2793.0045
2834.6657
2903.8003
3079.2496

SYMMETRY CS
ELECTRONIC_STATE 2-A"
