9
Energy =   -229.928524053     
    O    0.969772    1.455299   -0.000000
    C    0.265168    0.296607    0.000000
    C    1.026181   -0.993039    0.000000
    C   -1.090803    0.339916    0.000000
    C   -2.320785    0.280362    0.000000
    H    2.105151   -0.984836    0.000000
    H    0.491717   -1.933221   -0.000000
    H    1.934444    1.280303   -0.000000
    H   -3.380844    0.258708   -0.000000

FREQUENCIES 21
-329.8094
-291.5669
132.2975
223.5328
315.9081
349.7414
401.6831
536.7568
577.7355
688.4721
770.4293
957.9919
1152.2483
1275.8184
1424.1624
1452.8713
1977.3979
3111.6304
3239.3255
3348.4657
3455.4388

SYMMETRY CS
ELECTRONIC_STATE 4-A'
