9
Energy =   -229.941068979     
    C   -0.215193   -0.554933    1.023789
    C    0.683640    1.689450   -1.656321
    O    0.727347   -1.545485    1.119909
    C    0.050782    0.868587   -1.009145
    C   -0.652642   -0.064278   -0.289330
    H   -0.218263    0.087251    1.893590
    H    0.793391   -2.019514    0.274651
    H    1.220320    2.391990   -2.248470
    H   -1.561103   -0.469355   -0.734257

FREQUENCIES 21
-306.2380
159.0887
294.6955
367.7401
439.1216
510.8825
583.6101
664.8401
687.9996
714.3035
948.2843
1098.4802
1188.0724
1248.4404
1324.2704
1393.7252
1983.6991
3049.7106
3166.6970
3401.1263
3588.8393

SYMMETRY C1
ELECTRONIC_STATE 4-A
