9
Energy =   -230.073461254     
    O    1.878216   -1.296303    0.005526
    C    0.448125    0.849157   -0.025559
    C    0.786751   -0.689015    0.005675
    C   -1.005740    0.377331    0.005026
    C   -0.601834   -0.983754    0.030849
    H    0.783493    1.363950   -0.934780
    H    0.807555    1.405698    0.849219
    H   -1.950859    0.896689    0.004487
    H   -1.145907   -1.923953    0.059683

FREQUENCIES 21
-399.9772
287.0207
442.3033
449.2552
699.8692
731.2355
836.8146
933.5609
962.2071
1012.9525
1031.6129
1090.6242
1142.1977
1282.9997
1331.5843
1454.9487
1641.0716
2957.7062
2985.6706
3108.2429
3211.3878

SYMMETRY C1
ELECTRONIC_STATE 2-A
