9
Energy =   -229.928523615     
    O    0.969659    1.454899   -0.000000
    C    0.264854    0.295994   -0.000000
    C    1.026066   -0.993118    0.000000
    C   -1.090924    0.339985   -0.000000
    C   -2.320920    0.281271   -0.000000
    H    2.105082   -0.984573    0.000000
    H    0.492938   -1.934065   -0.000000
    H    1.934237    1.279657   -0.000000
    H   -3.380987    0.260051    0.000000

FREQUENCIES 21
-330.3321
-291.1512
148.0312
224.2855
313.6828
348.6740
403.4304
535.6556
580.7228
689.2374
770.5230
958.1143
1152.7441
1275.9928
1424.8136
1453.4292
1974.7177
3111.5687
3238.7991
3350.8930
3456.3267

SYMMETRY CS
ELECTRONIC_STATE 4-A'
