9
Energy =   -230.077131531     
    O    2.853955    0.811068   -0.000004
    C    0.757489   -0.343886    0.000001
    C    1.587266    0.806807   -0.000002
    C   -0.601923   -0.394176    0.000008
    C   -1.901547   -0.442242    0.000001
    H    1.283928   -1.297322   -0.000001
    H    1.044216    1.774912    0.000002
    H   -2.511746   -0.457581    0.918866
    H   -2.511737   -0.457580   -0.918870

FREQUENCIES 21
-327.1953
-120.1448
168.4012
255.2135
458.3003
558.3359
776.1971
829.2253
873.4713
1008.9248
1015.4368
1162.9115
1279.3064
1341.4528
1468.3369
1547.8533
1867.4514
2735.9290
2828.3568
2875.1576
3083.7491

SYMMETRY CS
ELECTRONIC_STATE 2-A"
