9
Energy =   -229.941068992     
    C   -0.246486   -0.555783    1.014709
    C    0.698596    1.696321   -1.642543
    O    0.716577   -1.521354    1.153766
    C    0.061802    0.863071   -1.015412
    C   -0.644861   -0.083949   -0.317516
    H   -0.301061    0.090030    1.880069
    H    0.827573   -1.997828    0.314616
    H    1.240055    2.408986   -2.217992
    H   -1.523918   -0.515784   -0.795281

FREQUENCIES 21
-312.3406
165.5760
295.3205
367.4677
441.4096
511.4967
583.0098
664.5912
687.9147
714.6904
947.8633
1097.3085
1188.2543
1248.3305
1323.8082
1393.8112
1959.1166
3049.1633
3167.1046
3398.0259
3589.3241

SYMMETRY C1
ELECTRONIC_STATE 4-A
