6
Energy =   -115.578373312     
    C    0.736818   -0.483844   -0.506917
    H    0.932012   -0.875167   -1.527005
    H    1.085486    0.565966   -0.594452
    H   -1.660608   -1.525767    1.473236
    H    1.353781   -1.022929    0.222868
    O   -0.601297   -0.497432   -0.268784

FREQUENCIES 12
-77.0456
110.7110
269.9487
639.0432
1021.5950
1172.1493
1294.9748
1368.3409
1471.9796
2810.2802
2831.8402
2986.8519

SYMMETRY C1
ELECTRONIC_STATE 4-A
