4
Energy =   -151.820017516     
    C   -1.068844   -0.288169    0.045172
    C   -0.057698   -1.168697    0.363516
    H    1.816754    1.554446   -0.904954
    O    0.305404    0.117414   -0.207537

FREQUENCIES 6
-31.5842
128.3599
296.6224
486.0885
880.7581
1443.7301

SYMMETRY C1
ELECTRONIC_STATE 3-A
