4
Energy =   -151.910741817     
    C   -0.833258   -0.065185    0.082255
    C    0.141196   -0.911189    0.320382
    H    1.056209    0.919789   -0.270033
    O    0.631468    0.271580   -0.836407

FREQUENCIES 6
-72.1895
553.6394
576.4348
1061.8663
1633.0606
3840.5890

SYMMETRY C1
ELECTRONIC_STATE 1-A
