5
Energy =   -190.030116775     
    C    0.155559    0.139202    0.631600
    C    0.032582   -0.950275   -0.095585
    C   -0.094025   -2.101714   -0.661478
    H    0.351524    1.967026    1.116969
    O    0.286786    1.481514    0.292691

FREQUENCIES 9
-59.8128
224.7394
377.6183
536.9083
862.1174
1178.1945
1369.7667
1719.6421
3859.7790

SYMMETRY C1
ELECTRONIC_STATE 3-A
