6
Energy =   -228.189409120     
    C   -0.794098   -2.437017   -0.636641
    C    0.462507    1.248992   -0.134189
    C   -0.023694   -0.007455   -0.256092
    C   -0.408513   -1.229039   -0.449631
    H    1.331816    1.358532   -0.833113
    O    0.111192    2.219776    0.583790

FREQUENCIES 12
-50.3413
134.4882
284.5760
426.2587
642.6021
852.1479
868.0488
1314.4575
1420.8491
1656.7804
1964.2997
2730.7818

SYMMETRY CS
ELECTRONIC_STATE 1-A'
