6
Energy =   -228.188401841     
    C   -0.943412   -2.423091   -0.502464
    C    0.521647    1.242979   -0.187565
    C    0.134399   -0.075030   -0.420820
    C   -0.425991   -1.232556   -0.436177
    H    1.391420    1.590708   -0.784671
    O    0.001147    2.050778    0.605822

FREQUENCIES 12
-56.1340
195.5259
381.0160
436.3391
567.0623
854.4026
930.7704
1387.4306
1422.1288
1547.8589
1840.9905
2822.7061

SYMMETRY CS
ELECTRONIC_STATE 3-A"
