 Entering Gaussian System, Link 0=/home/proyectos/fulerenos/M3C-v2.0/M3C-deps_CCC/g09-AM64L-G09RevC.01/g09
 Initial command:
 /home/proyectos/fulerenos/M3C-v2.0/M3C-deps_CCC/g09-AM64L-G09RevC.01/l1.exe "/scratch/naguirre/gaussian/Gau-17023.inp" -scrdir="/scratch/naguirre/gaussian/"
 Entering Link 1 = /home/proyectos/fulerenos/M3C-v2.0/M3C-deps_CCC/g09-AM64L-G09RevC.01/l1.exe PID=     17035.
  
 Copyright (c) 1988,1990,1992,1993,1995,1998,2003,2009,2015,
            Gaussian, Inc.  All Rights Reserved.
  
 This is part of the Gaussian(R) 09 program.  It is based on
 the Gaussian(R) 03 system (copyright 2003, Gaussian, Inc.),
 the Gaussian(R) 98 system (copyright 1998, Gaussian, Inc.),
 the Gaussian(R) 94 system (copyright 1995, Gaussian, Inc.),
 the Gaussian 92(TM) system (copyright 1992, Gaussian, Inc.),
 the Gaussian 90(TM) system (copyright 1990, Gaussian, Inc.),
 the Gaussian 88(TM) system (copyright 1988, Gaussian, Inc.),
 the Gaussian 86(TM) system (copyright 1986, Carnegie Mellon
 University), and the Gaussian 82(TM) system (copyright 1983,
 Carnegie Mellon University). Gaussian is a federally registered
 trademark of Gaussian, Inc.
  
 This software contains proprietary and confidential information,
 including trade secrets, belonging to Gaussian, Inc.
  
 This software is provided under written license and may be
 used, copied, transmitted, or stored only in accord with that
 written license.
  
 The following legend is applicable only to US Government
 contracts under FAR:
  
                    RESTRICTED RIGHTS LEGEND
  
 Use, reproduction and disclosure by the US Government is
 subject to restrictions as set forth in subparagraphs (a)
 and (c) of the Commercial Computer Software - Restricted
 Rights clause in FAR 52.227-19.
  
 Gaussian, Inc.
 340 Quinnipiac St., Bldg. 40, Wallingford CT 06492
  
  
 ---------------------------------------------------------------
 Warning -- This program may not be used in any manner that
 competes with the business of Gaussian, Inc. or will provide
 assistance to any competitor of Gaussian, Inc.  The licensee
 of this program is prohibited from giving any competitor of
 Gaussian, Inc. access to this program.  By using this program,
 the user acknowledges that Gaussian, Inc. is engaged in the
 business of creating and licensing software in the field of
 computational chemistry and represents and warrants to the
 licensee that it is not a competitor of Gaussian, Inc. and that
 it will not use this program in any manner prohibited above.
 ---------------------------------------------------------------
  

 Cite this work as:
 Gaussian 09, Revision E.01,
 M. J. Frisch, G. W. Trucks, H. B. Schlegel, G. E. Scuseria, 
 M. A. Robb, J. R. Cheeseman, G. Scalmani, V. Barone, B. Mennucci, 
 G. A. Petersson, H. Nakatsuji, M. Caricato, X. Li, H. P. Hratchian, 
 A. F. Izmaylov, J. Bloino, G. Zheng, J. L. Sonnenberg, M. Hada, 
 M. Ehara, K. Toyota, R. Fukuda, J. Hasegawa, M. Ishida, T. Nakajima, 
 Y. Honda, O. Kitao, H. Nakai, T. Vreven, J. A. Montgomery, Jr., 
 J. E. Peralta, F. Ogliaro, M. Bearpark, J. J. Heyd, E. Brothers, 
 K. N. Kudin, V. N. Staroverov, T. Keith, R. Kobayashi, J. Normand, 
 K. Raghavachari, A. Rendell, J. C. Burant, S. S. Iyengar, J. Tomasi, 
 M. Cossi, N. Rega, J. M. Millam, M. Klene, J. E. Knox, J. B. Cross, 
 V. Bakken, C. Adamo, J. Jaramillo, R. Gomperts, R. E. Stratmann, 
 O. Yazyev, A. J. Austin, R. Cammi, C. Pomelli, J. W. Ochterski, 
 R. L. Martin, K. Morokuma, V. G. Zakrzewski, G. A. Voth, 
 P. Salvador, J. J. Dannenberg, S. Dapprich, A. D. Daniels, 
 O. Farkas, J. B. Foresman, J. V. Ortiz, J. Cioslowski, 
 and D. J. Fox, Gaussian, Inc., Wallingford CT, 2013.
 
 ******************************************
 Gaussian 09:  EM64L-G09RevE.01 30-Nov-2015
                 1-Mar-2019 
 ******************************************
 %NProcShared=4
 Will use up to    4 processors via shared memory.
 ------------------------------------------------------
 #p b3lyp/6-311++G(3df,2p) freq IOp(2/17=3) IOp(2/18=3)
 ------------------------------------------------------
 1/10=4,30=1,38=1/1,3;
 2/12=2,17=3,18=3,40=1/2;
 3/5=4,6=6,7=1216,11=2,16=1,25=1,30=1,71=2,74=-5,140=1/1,2,3;
 4//1;
 5/5=2,38=5,98=1/2;
 8/6=4,10=90,11=11/1;
 11/6=1,8=1,9=11,15=111,16=1/1,2,10;
 10/6=1/2;
 6/7=2,8=2,9=2,10=2,18=1,28=1/1;
 7/8=1,10=1,25=1/1,2,3,16;
 1/10=4,30=1/3;
 99//99;
 Leave Link    1 at Fri Mar  1 07:21:33 2019, MaxMem=           0 cpu:         1.2
 (Enter /home/proyectos/fulerenos/M3C-v2.0/M3C-deps_CCC/g09-AM64L-G09RevC.01/l101.exe)
 ---------
 b3lyp opt
 ---------
 Symbolic Z-matrix:
 Charge =  0 Multiplicity = 1
 C                    -0.15567  -0.07919   0. 
 C                    -1.51826   0.12433   0. 
 O                     1.00483  -0.25182   0. 
 
 NAtoms=      3 NQM=        3 NQMF=       0 NMMI=      0 NMMIF=      0
                NMic=       0 NMicF=      0.
                    Isotopes and Nuclear Properties:
 (Nuclear quadrupole moments (NQMom) in fm**2, nuclear magnetic moments (NMagM)
  in nuclear magnetons)

  Atom         1           2           3
 IAtWgt=          12          12          16
 AtmWgt=  12.0000000  12.0000000  15.9949146
 NucSpn=           0           0           0
 AtZEff=   0.0000000   0.0000000   0.0000000
 NQMom=    0.0000000   0.0000000   0.0000000
 NMagM=    0.0000000   0.0000000   0.0000000
 AtZNuc=   6.0000000   6.0000000   8.0000000
 Leave Link  101 at Fri Mar  1 07:21:34 2019, MaxMem=    33554432 cpu:         1.1
 (Enter /home/proyectos/fulerenos/M3C-v2.0/M3C-deps_CCC/g09-AM64L-G09RevC.01/l103.exe)

 GradGradGradGradGradGradGradGradGradGradGradGradGradGradGradGradGradGrad
 Berny optimization.
 Initialization pass.
 Trust Radius=3.00D-01 FncErr=1.00D-07 GrdErr=1.00D-07
 Number of steps in this run=      2 maximum allowed number of steps=      2.
 GradGradGradGradGradGradGradGradGradGradGradGradGradGradGradGradGradGrad

 Leave Link  103 at Fri Mar  1 07:21:35 2019, MaxMem=    33554432 cpu:         0.3
 (Enter /home/proyectos/fulerenos/M3C-v2.0/M3C-deps_CCC/g09-AM64L-G09RevC.01/l202.exe)
                          Input orientation:                          
 ---------------------------------------------------------------------
 Center     Atomic      Atomic             Coordinates (Angstroms)
 Number     Number       Type             X           Y           Z
 ---------------------------------------------------------------------
      1          6           0       -0.155666   -0.079194    0.000000
      2          6           0       -1.518255    0.124331    0.000000
      3          8           0        1.004833   -0.251824    0.000000
 ---------------------------------------------------------------------
                    Distance matrix (angstroms):
                    1          2          3
     1  C    0.000000
     2  C    1.377705   0.000000
     3  O    1.173269   2.550973   0.000000
 Stoichiometry    C2O
 Framework group  C*V[C*(CCO)]
 Deg. of freedom     2
 Full point group                 C*V     NOp   4
 Largest Abelian subgroup         C2V     NOp   4
 Largest concise Abelian subgroup C1      NOp   1
                         Standard orientation:                         
 ---------------------------------------------------------------------
 Center     Atomic      Atomic             Coordinates (Angstroms)
 Number     Number       Type             X           Y           Z
 ---------------------------------------------------------------------
      1          6           0       -0.000000    0.000000   -0.055996
      2          6           0       -0.000000    0.000000   -1.433701
      3          8           0        0.000000   -0.000000    1.117273
 ---------------------------------------------------------------------
 Rotational constants (GHZ):      0.0000000     11.3136048     11.3136048
 Leave Link  202 at Fri Mar  1 07:21:36 2019, MaxMem=    33554432 cpu:         0.8
 (Enter /home/proyectos/fulerenos/M3C-v2.0/M3C-deps_CCC/g09-AM64L-G09RevC.01/l301.exe)
 Standard basis: 6-311++G(3df,2p) (5D, 7F)
 Ernie: Thresh=  0.10000D-02 Tol=  0.10000D-05 Strict=F.
 There are    63 symmetry adapted cartesian basis functions of A1  symmetry.
 There are    12 symmetry adapted cartesian basis functions of A2  symmetry.
 There are    30 symmetry adapted cartesian basis functions of B1  symmetry.
 There are    30 symmetry adapted cartesian basis functions of B2  symmetry.
 There are    51 symmetry adapted basis functions of A1  symmetry.
 There are    12 symmetry adapted basis functions of A2  symmetry.
 There are    27 symmetry adapted basis functions of B1  symmetry.
 There are    27 symmetry adapted basis functions of B2  symmetry.
   117 basis functions,   174 primitive gaussians,   135 cartesian basis functions
    10 alpha electrons       10 beta electrons
       nuclear repulsion energy        45.4341556647 Hartrees.
 IExCor=  402 DFT=T Ex+Corr=B3LYP ExCW=0 ScaHFX=  0.200000
 ScaDFX=  0.800000  0.720000  1.000000  0.810000 ScalE2=  1.000000  1.000000
 IRadAn=      0 IRanWt=     -1 IRanGd=            0 ICorTp=0 IEmpDi=  4
 NAtoms=    3 NActive=    3 NUniq=    3 SFac= 1.00D+00 NAtFMM=   60 NAOKFM=F Big=F
 Integral buffers will be    131072 words long.
 Raffenetti 2 integral format.
 Two-electron integral symmetry is turned on.
 Leave Link  301 at Fri Mar  1 07:21:38 2019, MaxMem=    33554432 cpu:         1.8
 (Enter /home/proyectos/fulerenos/M3C-v2.0/M3C-deps_CCC/g09-AM64L-G09RevC.01/l302.exe)
 NPDir=0 NMtPBC=     1 NCelOv=     1 NCel=       1 NClECP=     1 NCelD=      1
         NCelK=      1 NCelE2=     1 NClLst=     1 CellRange=     0.0.
 One-electron integrals computed using PRISM.
 NBasis=   117 RedAO= T EigKep=  1.37D-04  NBF=    51    12    27    27
 NBsUse=   117 1.00D-06 EigRej= -1.00D+00 NBFU=    51    12    27    27
 Precomputing XC quadrature grid using
 IXCGrd= 4 IRadAn=           0 IRanWt=          -1 IRanGd=           0 AccXCQ= 0.00D+00.
 Generated NRdTot=       0 NPtTot=           0 NUsed=           0 NTot=          32
 NSgBfM=   135   135   135   135   135 MxSgAt=     3 MxSgA2=     3.
 Leave Link  302 at Fri Mar  1 07:21:40 2019, MaxMem=    33554432 cpu:         4.4
 (Enter /home/proyectos/fulerenos/M3C-v2.0/M3C-deps_CCC/g09-AM64L-G09RevC.01/l303.exe)
 DipDrv:  MaxL=1.
 Leave Link  303 at Fri Mar  1 07:21:42 2019, MaxMem=    33554432 cpu:         1.7
 (Enter /home/proyectos/fulerenos/M3C-v2.0/M3C-deps_CCC/g09-AM64L-G09RevC.01/l401.exe)
 ExpMin= 4.38D-02 ExpMax= 8.59D+03 ExpMxC= 1.30D+03 IAcc=2 IRadAn=         4 AccDes= 0.00D+00
 Harris functional with IExCor=  402 and IRadAn=       4 diagonalized for initial guess.
 HarFok:  IExCor=  402 AccDes= 0.00D+00 IRadAn=         4 IDoV= 1 UseB2=F ITyADJ=14
 ICtDFT=  3500011 ScaDFX=  1.000000  1.000000  1.000000  1.000000
 FoFCou: FMM=F IPFlag=           0 FMFlag=      100000 FMFlg1=           0
         NFxFlg=           0 DoJE=T BraDBF=F KetDBF=T FulRan=T
         wScrn=  0.000000 ICntrl=     500 IOpCl=  0 I1Cent=   200000004 NGrid=           0
         NMat0=    1 NMatS0=      1 NMatT0=    0 NMatD0=    1 NMtDS0=    0 NMtDT0=    0
 Petite list used in FoFCou.
 Harris En= -151.274004021806    
 JPrj=0 DoOrth=F DoCkMO=F.
 Initial guess orbital symmetries:
       Occupied  (SG) (SG) (SG) (SG) (SG) (SG) (PI) (PI) (SG) (PI)
       Virtual   (PI) (PI) (PI) (SG) (SG) (PI) (PI) (SG) (PI) (PI)
                 (SG) (SG) (PI) (PI) (SG) (DLTA) (DLTA) (SG) (SG)
                 (DLTA) (DLTA) (SG) (PI) (PI) (PI) (PI) (SG) (PI)
                 (PI) (SG) (SG) (PI) (PI) (DLTA) (DLTA) (PI) (PI)
                 (SG) (SG) (SG) (PI) (PI) (DLTA) (DLTA) (PI) (PI)
                 (SG) (DLTA) (DLTA) (SG) (SG) (PI) (PI) (SG) (DLTA)
                 (DLTA) (PHI) (PHI) (PI) (PI) (PI) (PI) (PHI) (PHI)
                 (SG) (PI) (PI) (DLTA) (DLTA) (SG) (DLTA) (DLTA)
                 (SG) (PI) (PI) (SG) (PI) (PI) (PHI) (PHI) (SG)
                 (PI) (PI) (DLTA) (DLTA) (SG) (PI) (PI) (SG) (DLTA)
                 (DLTA) (DLTA) (DLTA) (PI) (PI) (SG) (PI) (PI)
                 (SG) (DLTA) (DLTA) (PI) (PI) (SG) (SG) (SG) (SG)
 Leave Link  401 at Fri Mar  1 07:21:46 2019, MaxMem=    33554432 cpu:         6.0
 (Enter /home/proyectos/fulerenos/M3C-v2.0/M3C-deps_CCC/g09-AM64L-G09RevC.01/l502.exe)
 Closed shell SCF:
 Using DIIS extrapolation, IDIIS=  1040.
 Integral symmetry usage will be decided dynamically.
 Keep R1 ints in memory in symmetry-blocked form, NReq=30051055.
 IVT=       75088 IEndB=       75088 NGot=    33554432 MDV=    27332651
 LenX=    27332651 LenY=    27313985
 Requested convergence on RMS density matrix=1.00D-08 within 128 cycles.
 Requested convergence on MAX density matrix=1.00D-06.
 Requested convergence on             energy=1.00D-06.
 No special actions if energy rises.
 FoFCou: FMM=F IPFlag=           0 FMFlag=           0 FMFlg1=           0
         NFxFlg=           0 DoJE=F BraDBF=F KetDBF=F FulRan=T
         wScrn=  0.000000 ICntrl=     600 IOpCl=  0 I1Cent=           0 NGrid=           0
         NMat0=    1 NMatS0=   6903 NMatT0=    0 NMatD0=    1 NMtDS0=    0 NMtDT0=    0
 Petite list used in FoFCou.

 Cycle   1  Pass 1  IDiag  1:
 E= -151.247162990728    
 DIIS: error= 3.01D-02 at cycle   1 NSaved=   1.
 NSaved= 1 IEnMin= 1 EnMin= -151.247162990728     IErMin= 1 ErrMin= 3.01D-02
 ErrMax= 3.01D-02  0.00D+00 EMaxC= 1.00D-01 BMatC= 4.28D-02 BMatP= 4.28D-02
 IDIUse=3 WtCom= 6.99D-01 WtEn= 3.01D-01
 Coeff-Com:  0.100D+01
 Coeff-En:   0.100D+01
 Coeff:      0.100D+01
 Gap=     0.058 Goal=   None    Shift=    0.000
 GapD=    0.058 DampG=0.500 DampE=0.500 DampFc=0.2500 IDamp=-1.
 Damping current iteration by 2.50D-01
 RMSDP=3.33D-03 MaxDP=1.03D-01              OVMax= 1.71D-01

 Cycle   2  Pass 1  IDiag  1:
 E= -151.256294550253     Delta-E=       -0.009131559525 Rises=F Damp=T
 DIIS: error= 1.15D-02 at cycle   2 NSaved=   2.
 NSaved= 2 IEnMin= 2 EnMin= -151.256294550253     IErMin= 2 ErrMin= 1.15D-02
 ErrMax= 1.15D-02  0.00D+00 EMaxC= 1.00D-01 BMatC= 8.93D-03 BMatP= 4.28D-02
 IDIUse=3 WtCom= 8.85D-01 WtEn= 1.15D-01
 Coeff-Com: -0.419D+00 0.142D+01
 Coeff-En:   0.000D+00 0.100D+01
 Coeff:     -0.371D+00 0.137D+01
 Gap=     0.058 Goal=   None    Shift=    0.000
 RMSDP=1.77D-03 MaxDP=6.92D-02 DE=-9.13D-03 OVMax= 1.54D-01

 Cycle   3  Pass 1  IDiag  1:
 E= -151.268727726869     Delta-E=       -0.012433176616 Rises=F Damp=F
 DIIS: error= 1.56D-02 at cycle   3 NSaved=   3.
 NSaved= 3 IEnMin= 3 EnMin= -151.268727726869     IErMin= 2 ErrMin= 1.15D-02
 ErrMax= 1.56D-02  0.00D+00 EMaxC= 1.00D-01 BMatC= 6.68D-03 BMatP= 8.93D-03
 IDIUse=3 WtCom= 8.44D-01 WtEn= 1.56D-01
 Coeff-Com: -0.401D+00 0.844D+00 0.557D+00
 Coeff-En:   0.000D+00 0.000D+00 0.100D+01
 Coeff:     -0.338D+00 0.712D+00 0.627D+00
 Gap=     0.057 Goal=   None    Shift=    0.000
 RMSDP=1.43D-03 MaxDP=5.14D-02 DE=-1.24D-02 OVMax= 6.06D-02

 Cycle   4  Pass 1  IDiag  1:
 E= -151.270939697688     Delta-E=       -0.002211970820 Rises=F Damp=F
 DIIS: error= 1.31D-02 at cycle   4 NSaved=   4.
 NSaved= 4 IEnMin= 4 EnMin= -151.270939697688     IErMin= 2 ErrMin= 1.15D-02
 ErrMax= 1.31D-02  0.00D+00 EMaxC= 1.00D-01 BMatC= 4.38D-03 BMatP= 6.68D-03
 IDIUse=3 WtCom= 8.69D-01 WtEn= 1.31D-01
 Coeff-Com: -0.140D+00 0.282D+00 0.456D+00 0.402D+00
 Coeff-En:   0.000D+00 0.000D+00 0.425D+00 0.575D+00
 Coeff:     -0.121D+00 0.245D+00 0.452D+00 0.425D+00
 Gap=     0.057 Goal=   None    Shift=    0.000
 RMSDP=6.07D-04 MaxDP=2.05D-02 DE=-2.21D-03 OVMax= 3.34D-02

 Cycle   5  Pass 1  IDiag  1:
 E= -151.275221144256     Delta-E=       -0.004281446567 Rises=F Damp=F
 DIIS: error= 1.26D-03 at cycle   5 NSaved=   5.
 NSaved= 5 IEnMin= 5 EnMin= -151.275221144256     IErMin= 5 ErrMin= 1.26D-03
 ErrMax= 1.26D-03  0.00D+00 EMaxC= 1.00D-01 BMatC= 6.42D-05 BMatP= 4.38D-03
 IDIUse=3 WtCom= 9.87D-01 WtEn= 1.26D-02
 Coeff-Com: -0.378D-02 0.565D-02 0.151D+00 0.188D+00 0.659D+00
 Coeff-En:   0.000D+00 0.000D+00 0.000D+00 0.000D+00 0.100D+01
 Coeff:     -0.373D-02 0.558D-02 0.149D+00 0.186D+00 0.663D+00
 Gap=     0.057 Goal=   None    Shift=    0.000
 RMSDP=7.90D-05 MaxDP=2.23D-03 DE=-4.28D-03 OVMax= 3.88D-03

 Cycle   6  Pass 1  IDiag  1:
 E= -151.275283047945     Delta-E=       -0.000061903689 Rises=F Damp=F
 DIIS: error= 1.64D-04 at cycle   6 NSaved=   6.
 NSaved= 6 IEnMin= 6 EnMin= -151.275283047945     IErMin= 6 ErrMin= 1.64D-04
 ErrMax= 1.64D-04  0.00D+00 EMaxC= 1.00D-01 BMatC= 1.25D-06 BMatP= 6.42D-05
 IDIUse=3 WtCom= 9.98D-01 WtEn= 1.64D-03
 Coeff-Com:  0.453D-03-0.213D-02 0.111D-01 0.765D-02 0.136D+00 0.847D+00
 Coeff-En:   0.000D+00 0.000D+00 0.000D+00 0.000D+00 0.000D+00 0.100D+01
 Coeff:      0.452D-03-0.213D-02 0.111D-01 0.764D-02 0.136D+00 0.847D+00
 Gap=     0.057 Goal=   None    Shift=    0.000
 RMSDP=1.09D-05 MaxDP=2.68D-04 DE=-6.19D-05 OVMax= 5.68D-04

 Cycle   7  Pass 1  IDiag  1:
 E= -151.275284375577     Delta-E=       -0.000001327633 Rises=F Damp=F
 DIIS: error= 6.96D-06 at cycle   7 NSaved=   7.
 NSaved= 7 IEnMin= 7 EnMin= -151.275284375577     IErMin= 7 ErrMin= 6.96D-06
 ErrMax= 6.96D-06  0.00D+00 EMaxC= 1.00D-01 BMatC= 2.40D-09 BMatP= 1.25D-06
 IDIUse=1 WtCom= 1.00D+00 WtEn= 0.00D+00
 Coeff-Com: -0.116D-03 0.107D-03-0.136D-02-0.220D-02 0.115D-02 0.414D-01
 Coeff-Com:  0.961D+00
 Coeff:     -0.116D-03 0.107D-03-0.136D-02-0.220D-02 0.115D-02 0.414D-01
 Coeff:      0.961D+00
 Gap=     0.057 Goal=   None    Shift=    0.000
 RMSDP=4.66D-07 MaxDP=1.56D-05 DE=-1.33D-06 OVMax= 2.53D-05

 Cycle   8  Pass 1  IDiag  1:
 E= -151.275284378049     Delta-E=       -0.000000002472 Rises=F Damp=F
 DIIS: error= 1.36D-06 at cycle   8 NSaved=   8.
 NSaved= 8 IEnMin= 8 EnMin= -151.275284378049     IErMin= 8 ErrMin= 1.36D-06
 ErrMax= 1.36D-06  0.00D+00 EMaxC= 1.00D-01 BMatC= 7.71D-11 BMatP= 2.40D-09
 IDIUse=1 WtCom= 1.00D+00 WtEn= 0.00D+00
 Coeff-Com: -0.215D-04 0.373D-04-0.245D-03-0.150D-03-0.190D-02-0.857D-02
 Coeff-Com:  0.133D-01 0.998D+00
 Coeff:     -0.215D-04 0.373D-04-0.245D-03-0.150D-03-0.190D-02-0.857D-02
 Coeff:      0.133D-01 0.998D+00
 Gap=     0.057 Goal=   None    Shift=    0.000
 RMSDP=1.08D-07 MaxDP=6.16D-06 DE=-2.47D-09 OVMax= 5.82D-06

 Cycle   9  Pass 1  IDiag  1:
 E= -151.275284378139     Delta-E=       -0.000000000090 Rises=F Damp=F
 DIIS: error= 3.28D-07 at cycle   9 NSaved=   9.
 NSaved= 9 IEnMin= 9 EnMin= -151.275284378139     IErMin= 9 ErrMin= 3.28D-07
 ErrMax= 3.28D-07  0.00D+00 EMaxC= 1.00D-01 BMatC= 2.43D-12 BMatP= 7.71D-11
 IDIUse=1 WtCom= 1.00D+00 WtEn= 0.00D+00
 Coeff-Com:  0.660D-05-0.803D-05 0.134D-04 0.194D-04-0.852D-04-0.971D-03
 Coeff-Com: -0.145D-01 0.591D-01 0.956D+00
 Coeff:      0.660D-05-0.803D-05 0.134D-04 0.194D-04-0.852D-04-0.971D-03
 Coeff:     -0.145D-01 0.591D-01 0.956D+00
 Gap=     0.057 Goal=   None    Shift=    0.000
 RMSDP=1.24D-08 MaxDP=4.32D-07 DE=-9.03D-11 OVMax= 5.51D-07

 Cycle  10  Pass 1  IDiag  1:
 E= -151.275284378142     Delta-E=       -0.000000000002 Rises=F Damp=F
 DIIS: error= 1.39D-08 at cycle  10 NSaved=  10.
 NSaved=10 IEnMin=10 EnMin= -151.275284378142     IErMin=10 ErrMin= 1.39D-08
 ErrMax= 1.39D-08  0.00D+00 EMaxC= 1.00D-01 BMatC= 6.18D-15 BMatP= 2.43D-12
 IDIUse=1 WtCom= 1.00D+00 WtEn= 0.00D+00
 Coeff-Com:  0.642D-06-0.920D-06 0.483D-05 0.437D-05 0.142D-04 0.142D-04
 Coeff-Com: -0.164D-02-0.437D-02 0.520D-01 0.954D+00
 Coeff:      0.642D-06-0.920D-06 0.483D-05 0.437D-05 0.142D-04 0.142D-04
 Coeff:     -0.164D-02-0.437D-02 0.520D-01 0.954D+00
 Gap=     0.057 Goal=   None    Shift=    0.000
 RMSDP=1.25D-09 MaxDP=4.37D-08 DE=-2.33D-12 OVMax= 5.35D-08

 SCF Done:  E(RB3LYP) =  -151.275284378     A.U. after   10 cycles
            NFock= 10  Conv=0.13D-08     -V/T= 2.0042
 KE= 1.506398433047D+02 PE=-4.448552966586D+02 EE= 9.750601331110D+01
 Leave Link  502 at Fri Mar  1 07:21:52 2019, MaxMem=    33554432 cpu:        17.4
 (Enter /home/proyectos/fulerenos/M3C-v2.0/M3C-deps_CCC/g09-AM64L-G09RevC.01/l801.exe)
 DoSCS=F DFT=T ScalE2(SS,OS)=  1.000000  1.000000
 Range of M.O.s used for correlation:     1   117
 NBasis=   117 NAE=    10 NBE=    10 NFC=     0 NFV=     0
 NROrb=    117 NOA=    10 NOB=    10 NVA=   107 NVB=   107

 **** Warning!!: The largest alpha MO coefficient is  0.42714893D+02


 **** Warning!!: The smallest alpha delta epsilon is  0.56848508D-01

 Leave Link  801 at Fri Mar  1 07:21:52 2019, MaxMem=    33554432 cpu:         0.1
 (Enter /home/proyectos/fulerenos/M3C-v2.0/M3C-deps_CCC/g09-AM64L-G09RevC.01/l1101.exe)
 Using compressed storage, NAtomX=     3.
 Will process      4 centers per pass.
 Leave Link 1101 at Fri Mar  1 07:21:54 2019, MaxMem=    33554432 cpu:         2.7
 (Enter /home/proyectos/fulerenos/M3C-v2.0/M3C-deps_CCC/g09-AM64L-G09RevC.01/l1102.exe)
 Symmetrizing basis deriv contribution to polar:
 IMax=3 JMax=2 DiffMx= 0.00D+00
 Leave Link 1102 at Fri Mar  1 07:21:55 2019, MaxMem=    33554432 cpu:         0.8
 (Enter /home/proyectos/fulerenos/M3C-v2.0/M3C-deps_CCC/g09-AM64L-G09RevC.01/l1110.exe)
 Forming Gx(P) for the SCF density, NAtomX=     3.
 Integral derivatives from FoFJK, PRISM(SPDF).
 Do as many integral derivatives as possible in FoFJK.
 G2DrvN: MDV=      33554304.
 G2DrvN: will do     4 centers at a time, making    1 passes.
 Calling FoFCou, ICntrl=  3107 FMM=F I1Cent=   0 AccDes= 0.00D+00.
 FoFJK:  IHMeth= 1 ICntrl=    3107 DoSepK=F KAlg= 0 I1Cent=   0 FoldK=F
 IRaf=         0 NMat=   1 IRICut=       1 DoRegI=T DoRafI=F ISym2E= 1.
 FoFCou: FMM=F IPFlag=           0 FMFlag=      100000 FMFlg1=           0
         NFxFlg=           0 DoJE=F BraDBF=F KetDBF=F FulRan=T
         wScrn=  0.000000 ICntrl=    3107 IOpCl=  0 I1Cent=           0 NGrid=           0
         NMat0=    1 NMatS0=      1 NMatT0=    0 NMatD0=    1 NMtDS0=    0 NMtDT0=    0
 Petite list used in FoFCou.
 End of G2Drv F.D. properties file   721 does not exist.
 End of G2Drv F.D. properties file   722 does not exist.
 End of G2Drv F.D. properties file   788 does not exist.
 Leave Link 1110 at Fri Mar  1 07:22:02 2019, MaxMem=    33554432 cpu:        21.2
 (Enter /home/proyectos/fulerenos/M3C-v2.0/M3C-deps_CCC/g09-AM64L-G09RevC.01/l1002.exe)
 Minotr:  Closed shell wavefunction.
          IDoAtm=111
          Direct CPHF calculation.
          Differentiating once with respect to electric field.
                with respect to dipole field.
          Differentiating once with respect to nuclear coordinates.
          Using symmetry in CPHF.
          Requested convergence is 1.0D-08 RMS, and 1.0D-07 maximum.
          Secondary convergence is 1.0D-12 RMS, and 1.0D-12 maximum.
          NewPWx=T KeepS1=F KeepF1=F KeepIn=T MapXYZ=F SortEE=F KeepMc=T.
          MDV=      33554281 using IRadAn=       2.
 Generate precomputed XC quadrature information.
 Keep R1 ints in memory in symmetry-blocked form, NReq=29978039.
 FoFCou: FMM=F IPFlag=           0 FMFlag=           0 FMFlg1=           0
         NFxFlg=           0 DoJE=F BraDBF=F KetDBF=F FulRan=T
         wScrn=  0.000000 ICntrl=     600 IOpCl=  0 I1Cent=           0 NGrid=           0
         NMat0=    1 NMatS0=   6903 NMatT0=    0 NMatD0=    1 NMtDS0=    0 NMtDT0=    0
 Petite list used in FoFCou.
          Solving linear equations simultaneously, MaxMat=       0.
          There are    12 degrees of freedom in the 1st order CPHF.  IDoFFX=6 NUNeed=     3.
      9 vectors produced by pass  0 Test12= 8.92D-15 8.33D-09 XBig12= 5.66D+01 5.55D+00.
 AX will form     9 AO Fock derivatives at one time.
      9 vectors produced by pass  1 Test12= 8.92D-15 8.33D-09 XBig12= 3.50D+01 2.07D+00.
      9 vectors produced by pass  2 Test12= 8.92D-15 8.33D-09 XBig12= 3.83D-01 1.52D-01.
      9 vectors produced by pass  3 Test12= 8.92D-15 8.33D-09 XBig12= 8.90D-03 2.63D-02.
      9 vectors produced by pass  4 Test12= 8.92D-15 8.33D-09 XBig12= 6.19D-05 2.44D-03.
      9 vectors produced by pass  5 Test12= 8.92D-15 8.33D-09 XBig12= 3.62D-07 2.20D-04.
      6 vectors produced by pass  6 Test12= 8.92D-15 8.33D-09 XBig12= 5.02D-10 6.97D-06.
      3 vectors produced by pass  7 Test12= 8.92D-15 8.33D-09 XBig12= 1.07D-12 2.92D-07.
      1 vectors produced by pass  8 Test12= 8.92D-15 8.33D-09 XBig12= 2.78D-15 1.50D-08.
 InvSVY:  IOpt=1 It=  1 EMax= 4.44D-16
 Solved reduced A of dimension    64 with     9 vectors.
 FullF1:  Do perturbations    1 to     3.
 Isotropic polarizability for W=    0.000000       26.41 Bohr**3.
 End of Minotr F.D. properties file   721 does not exist.
 End of Minotr F.D. properties file   722 does not exist.
 End of Minotr F.D. properties file   788 does not exist.
 Leave Link 1002 at Fri Mar  1 07:22:11 2019, MaxMem=    33554432 cpu:        33.4
 (Enter /home/proyectos/fulerenos/M3C-v2.0/M3C-deps_CCC/g09-AM64L-G09RevC.01/l601.exe)
 Copying SCF densities to generalized density rwf, IOpCl= 0 IROHF=0.

 **********************************************************************

            Population analysis using the SCF density.

 **********************************************************************

 Orbital symmetries:
       Occupied  (SG) (SG) (SG) (SG) (SG) (SG) (PI) (PI) (SG) (PI)
       Virtual   (PI) (SG) (PI) (PI) (SG) (PI) (PI) (SG) (PI) (PI)
                 (SG) (SG) (PI) (PI) (?A) (?A) (SG) (?A) (?A) (?B)
                 (?B) (PI) (?B) (PI) (PI) (PI) (SG) (PI) (PI) (SG)
                 (SG) (PI) (PI) (DLTA) (DLTA) (PI) (PI) (SG) (SG)
                 (SG) (PI) (PI) (?C) (?C) (?C) (PI) (PI) (DLTA)
                 (DLTA) (SG) (SG) (PI) (PI) (?D) (?D) (?D) (?E)
                 (?E) (?E) (?E) (?E) (?E) (?E) (?E) (SG) (?E) (?E)
                 (DLTA) (DLTA) (?F) (?F) (?F) (PI) (PI) (SG) (SG)
                 (PI) (PI) (PHI) (PHI) (SG) (PI) (PI) (DLTA) (DLTA)
                 (SG) (PI) (PI) (SG) (DLTA) (DLTA) (DLTA) (DLTA)
                 (PI) (PI) (SG) (PI) (PI) (SG) (DLTA) (DLTA) (PI)
                 (PI) (SG) (SG) (SG) (SG)
 Unable to determine electronic state:  partially filled degenerate orbitals.
 Alpha  occ. eigenvalues --  -19.25273 -10.32948 -10.28214  -1.16567  -0.78577
 Alpha  occ. eigenvalues --   -0.57163  -0.49784  -0.49581  -0.35099  -0.27591
 Alpha virt. eigenvalues --   -0.21906  -0.00791   0.01191   0.01292   0.05262
 Alpha virt. eigenvalues --    0.05498   0.05795   0.08852   0.10525   0.10721
 Alpha virt. eigenvalues --    0.13885   0.16944   0.23854   0.24062   0.25973
 Alpha virt. eigenvalues --    0.26112   0.26907   0.29277   0.37563   0.43555
 Alpha virt. eigenvalues --    0.43561   0.46506   0.46606   0.47587   0.48758
 Alpha virt. eigenvalues --    0.49604   0.59729   0.60338   0.61464   0.73383
 Alpha virt. eigenvalues --    0.77608   0.79455   0.80592   0.88699   0.88742
 Alpha virt. eigenvalues --    0.97913   0.98617   0.99945   1.11536   1.29699
 Alpha virt. eigenvalues --    1.36723   1.38002   1.41618   1.41855   1.49995
 Alpha virt. eigenvalues --    1.50019   1.51661   1.64670   1.65006   1.91502
 Alpha virt. eigenvalues --    1.98620   2.11135   2.12743   2.57512   2.57597
 Alpha virt. eigenvalues --    2.61462   2.61910   2.61963   2.71167   2.72734
 Alpha virt. eigenvalues --    2.78756   2.80204   2.90316   2.90376   2.96245
 Alpha virt. eigenvalues --    2.99725   3.01491   3.18961   3.19095   3.49517
 Alpha virt. eigenvalues --    3.58218   3.58476   3.75133   3.76853   3.77827
 Alpha virt. eigenvalues --    4.09765   4.66525   4.68047   4.95612   4.95615
 Alpha virt. eigenvalues --    4.99443   5.33248   5.34850   5.42255   5.42310
 Alpha virt. eigenvalues --    5.69639   6.50086   6.51525   6.53624   6.84676
 Alpha virt. eigenvalues --    6.84863   6.96604   6.97028   7.05912   7.06802
 Alpha virt. eigenvalues --    7.28816   7.50525   7.51713   8.43552  14.19770
 Alpha virt. eigenvalues --   14.19858  14.69647  14.70516  14.97081  24.57517
 Alpha virt. eigenvalues --   25.27554  50.46611
          Condensed to atoms (all electrons):
               1          2          3
     1  C    6.758902  -1.426477   0.053188
     2  C   -1.426477   7.567270   0.031039
     3  O    0.053188   0.031039   8.358328
 Mulliken charges:
               1
     1  C    0.614386
     2  C   -0.171832
     3  O   -0.442554
 Sum of Mulliken charges =   0.00000
 Mulliken charges with hydrogens summed into heavy atoms:
               1
     1  C    0.614386
     2  C   -0.171832
     3  O   -0.442554
 APT charges:
               1
     1  C    0.567393
     2  C   -0.083118
     3  O   -0.484274
 Sum of APT charges =   0.00000
 APT charges with hydrogens summed into heavy atoms:
               1
     1  C    0.567393
     2  C   -0.083118
     3  O   -0.484274
 Electronic spatial extent (au):  <R**2>=            120.4410
 Charge=             -0.0000 electrons
 Dipole moment (field-independent basis, Debye):
    X=             -0.0000    Y=              0.0000    Z=              1.0644  Tot=              1.0644
 Quadrupole moment (field-independent basis, Debye-Ang):
   XX=            -14.4460   YY=            -17.9624   ZZ=            -22.2941
   XY=              0.0000   XZ=             -0.0000   YZ=              0.0000
 Traceless Quadrupole moment (field-independent basis, Debye-Ang):
   XX=              3.7881   YY=              0.2718   ZZ=             -4.0599
   XY=              0.0000   XZ=             -0.0000   YZ=              0.0000
 Octapole moment (field-independent basis, Debye-Ang**2):
  XXX=              0.0000  YYY=             -0.0000  ZZZ=             19.8303  XYY=              0.0000
  XXY=             -0.0000  XXZ=              2.5202  XZZ=              0.0000  YZZ=             -0.0000
  YYZ=              5.6069  XYZ=             -0.0000
 Hexadecapole moment (field-independent basis, Debye-Ang**3):
 XXXX=            -13.4716 YYYY=            -20.9073 ZZZZ=           -162.1161 XXXY=              0.0000
 XXXZ=             -0.0000 YYYX=              0.0000 YYYZ=              0.0000 ZZZX=             -0.0000
 ZZZY=              0.0000 XXYY=             -5.7328 XXZZ=            -23.5715 YYZZ=            -29.6695
 XXYZ=              0.0000 YYXZ=             -0.0000 ZZXY=              0.0000
 N-N= 4.543415566466D+01 E-N=-4.448552967725D+02  KE= 1.506398433047D+02
 Symmetry A1   KE= 1.398698716067D+02
 Symmetry A2   KE= 1.175122841853D-33
 Symmetry B1   KE= 3.804245349236D+00
 Symmetry B2   KE= 6.965726348818D+00
  Exact polarizability:  19.294   0.000  20.406  -0.000  -0.000  39.534
 Approx polarizability:  29.190  -0.000  26.072   0.000  -0.000  73.667
 No NMR shielding tensors so no spin-rotation constants.
 Leave Link  601 at Fri Mar  1 07:22:13 2019, MaxMem=    33554432 cpu:         2.6
 (Enter /home/proyectos/fulerenos/M3C-v2.0/M3C-deps_CCC/g09-AM64L-G09RevC.01/l701.exe)
 Compute integral second derivatives.
 ... and contract with generalized density number  0.
 Leave Link  701 at Fri Mar  1 07:22:15 2019, MaxMem=    33554432 cpu:         3.4
 (Enter /home/proyectos/fulerenos/M3C-v2.0/M3C-deps_CCC/g09-AM64L-G09RevC.01/l702.exe)
 L702 exits ... SP integral derivatives will be done elsewhere.
 Leave Link  702 at Fri Mar  1 07:22:15 2019, MaxMem=    33554432 cpu:         0.3
 (Enter /home/proyectos/fulerenos/M3C-v2.0/M3C-deps_CCC/g09-AM64L-G09RevC.01/l703.exe)
 Compute integral second derivatives, UseDBF=F ICtDFT=           0.
 Integral derivatives from FoFJK, PRISM(SPDF).
 Calling FoFJK, ICntrl=    100127 FMM=F ISym2X=1 I1Cent= 0 IOpClX= 0 NMat=1 NMatS=1 NMatT=0.
 FoFJK:  IHMeth= 1 ICntrl=  100127 DoSepK=F KAlg= 0 I1Cent=   0 FoldK=F
 IRaf=         0 NMat=   1 IRICut=       1 DoRegI=T DoRafI=F ISym2E= 1.
 FoFCou: FMM=F IPFlag=           0 FMFlag=      100000 FMFlg1=         800
         NFxFlg=           0 DoJE=F BraDBF=F KetDBF=F FulRan=T
         wScrn=  0.000000 ICntrl=  100127 IOpCl=  0 I1Cent=           0 NGrid=           0
         NMat0=    1 NMatS0=      1 NMatT0=    0 NMatD0=    1 NMtDS0=    0 NMtDT0=    0
 Petite list used in FoFCou.
 Leave Link  703 at Fri Mar  1 07:22:30 2019, MaxMem=    33554432 cpu:        52.3
 (Enter /home/proyectos/fulerenos/M3C-v2.0/M3C-deps_CCC/g09-AM64L-G09RevC.01/l716.exe)
 Dipole        =-3.47341491D-19 7.12501867D-19 4.18759468D-01
 Polarizability= 1.92941350D+01 1.09230464D-09 2.04059138D+01
                -5.34899845D-09-4.81090233D-10 3.95341580D+01
 Full mass-weighted force constant matrix:
 Low frequencies ---   -0.0011   -0.0004    0.0011  120.1215  120.2141  380.7091
 Low frequencies ---  516.4573 1042.8135 1959.5109
 Diagonal vibrational polarizability:
       10.9755195       0.2042490       1.6130481
 Harmonic frequencies (cm**-1), IR intensities (KM/Mole), Raman scattering
 activities (A**4/AMU), depolarization ratios for plane and unpolarized
 incident light, reduced masses (AMU), force constants (mDyne/A),
 and normal coordinates:
                      1                      2                      3
                     PI                     PI                     SG
 Frequencies --    380.7056               516.4562              1042.8135
 Red. masses --     12.4767                12.4767                12.9096
 Frc consts  --      1.0654                 1.9607                 8.2714
 IR Inten    --     59.1113                 2.0244                30.7281
  Atom  AN      X      Y      Z        X      Y      Z        X      Y      Z
     1   6     0.85   0.00   0.00    -0.00   0.85   0.00     0.00  -0.00  -0.22
     2   6    -0.39  -0.00  -0.00     0.00  -0.39   0.00    -0.00   0.00   0.85
     3   8    -0.35  -0.00  -0.00     0.00  -0.35  -0.00    -0.00   0.00  -0.48
                      4
                     SG
 Frequencies --   1959.5109
 Red. masses --     13.0352
 Frc consts  --     29.4892
 IR Inten    --    121.6524
  Atom  AN      X      Y      Z
     1   6    -0.00  -0.00   0.84
     2   6     0.00   0.00  -0.17
     3   8     0.00   0.00  -0.51

 -------------------
 - Thermochemistry -
 -------------------
 Temperature   298.150 Kelvin.  Pressure   1.00000 Atm.
 Atom     1 has atomic number  6 and mass  12.00000
 Atom     2 has atomic number  6 and mass  12.00000
 Atom     3 has atomic number  8 and mass  15.99491
 Molecular mass:    39.99491 amu.
 Principal axes and moments of inertia in atomic units:
                           1         2         3
     Eigenvalues --     0.00000 159.51956 159.51956
           X            0.00000  -0.06236   0.99805
           Y           -0.00000   0.99805   0.06236
           Z            1.00000   0.00000   0.00000
 This molecule is a prolate symmetric top.
 Rotational symmetry number  1.
 Rotational temperature (Kelvin)      0.54297
 Rotational constant (GHZ):          11.313605
 Zero-point vibrational energy      23324.1 (Joules/Mol)
                                    5.57460 (Kcal/Mol)
 Warning -- explicit consideration of   2 degrees of freedom as
           vibrations may cause significant error
 Vibrational temperatures:    547.75   743.06  1500.37  2819.30
          (Kelvin)
 
 Zero-point correction=                           0.008884 (Hartree/Particle)
 Thermal correction to Energy=                    0.011817
 Thermal correction to Enthalpy=                  0.012761
 Thermal correction to Gibbs Free Energy=        -0.012537
 Sum of electronic and zero-point Energies=           -151.266401
 Sum of electronic and thermal Energies=              -151.263468
 Sum of electronic and thermal Enthalpies=            -151.262523
 Sum of electronic and thermal Free Energies=         -151.287821
 
                     E (Thermal)             CV                S
                      KCal/Mol        Cal/Mol-Kelvin    Cal/Mol-Kelvin
 Total                    7.415              8.039             53.244
 Electronic               0.000              0.000              0.000
 Translational            0.889              2.981             36.986
 Rotational               0.592              1.987             14.523
 Vibrational              5.934              3.071              1.735
 Vibration     1          0.750              1.511              1.036
 Vibration     2          0.871              1.214              0.618
                       Q            Log10(Q)             Ln(Q)
 Total Bot       0.584307D+06          5.766641         13.278182
 Total V=0       0.712596D+10          9.852843         22.687010
 Vib (Bot)       0.107033D-03         -3.970483         -9.142374
 Vib (Bot)    1  0.474688D+00         -0.323592         -0.745098
 Vib (Bot)    2  0.313556D+00         -0.503685         -1.159779
 Vib (V=0)       0.130533D+01          0.115719          0.266453
 Vib (V=0)    1  0.118944D+01          0.075343          0.173483
 Vib (V=0)    2  0.109018D+01          0.037500          0.086346
 Electronic      0.100000D+01          0.000000          0.000000
 Translational   0.994174D+07          6.997462         16.112253
 Rotational      0.549113D+03          2.739662          6.308304
 
                                                              b3lyp opt
                                                             IR Spectrum
 
     1                                                           1                                                                   
     9                                                           0                                 5        3                        
     6                                                           4                                 1        8                        
     0                                                           3                                 6        1                        
 
     X                                                           X                                 X        X                        
     X                                                           X                                          X                        
     X                                                           X                                          X                        
     X                                                           X                                          X                        
     X                                                           X                                          X                        
     X                                                                                                      X                        
     X                                                                                                      X                        
     X                                                                                                      X                        
     X                                                                                                      X                        
     X                                                                                                      X                        
     X                                                                                                                               
     X                                                                                                                               
     X                                                                                                                               
     X                                                                                                                               
     X                                                                                                                               
     X                                                                                                                               
     X                                                                                                                               
     X                                                                                                                               
     X                                                                                                                               
     X                                                                                                                               
 
 ***** Axes restored to original set *****
 -------------------------------------------------------------------
 Center     Atomic                   Forces (Hartrees/Bohr)
 Number     Number              X              Y              Z
 -------------------------------------------------------------------
      1        6          -0.000143630    0.000021412   -0.000000000
      2        6           0.017944374   -0.002675135    0.000000000
      3        8          -0.017800744    0.002653723    0.000000000
 -------------------------------------------------------------------
 Cartesian Forces:  Max     0.017944374 RMS     0.008518521
 Z-matrix is all fixed cartesians, so copy forces.
 Force constants in Cartesian coordinates: 
                1             2             3             4             5 
      1  0.114284D+01
      2 -0.157876D+00  0.107372D+00
      3  0.831510D-03  0.557763D-02  0.468489D-01
      4 -0.303639D+00  0.395165D-01 -0.382123D-03  0.369656D+00
      5  0.395165D-01 -0.444600D-01 -0.256322D-02 -0.519040D-01  0.292304D-01
      6 -0.382123D-03 -0.256322D-02 -0.215716D-01  0.175473D-03  0.117704D-02
      7 -0.839202D+00  0.118359D+00 -0.449387D-03 -0.660169D-01  0.123875D-01
      8  0.118359D+00 -0.629116D-01 -0.301442D-02  0.123875D-01  0.152296D-01
      9 -0.449387D-03 -0.301442D-02 -0.252773D-01  0.206650D-03  0.138617D-02
                6             7             8             9 
      6  0.136873D-01
      7  0.206650D-03  0.905219D+00
      8  0.138617D-02 -0.130747D+00  0.476819D-01
      9  0.788431D-02  0.242737D-03  0.162824D-02  0.173930D-01
 Leave Link  716 at Fri Mar  1 07:22:30 2019, MaxMem=    33554432 cpu:         0.1
 (Enter /home/proyectos/fulerenos/M3C-v2.0/M3C-deps_CCC/g09-AM64L-G09RevC.01/l103.exe)

 GradGradGradGradGradGradGradGradGradGradGradGradGradGradGradGradGradGrad
 Berny optimization.
 Search for a local minimum.
 Step number   1 out of a maximum of    2
 All quantities printed in internal units (Hartrees-Bohrs-Radians)
 Second derivative matrix not updated -- analytic derivatives used.
 The second derivative matrix:
                          X1        Y1        Z1        X2        Y2
           X1           1.14284
           Y1          -0.15788   0.10737
           Z1           0.00083   0.00558   0.04685
           X2          -0.30364   0.03952  -0.00038   0.36966
           Y2           0.03952  -0.04446  -0.00256  -0.05190   0.02923
           Z2          -0.00038  -0.00256  -0.02157   0.00018   0.00118
           X3          -0.83920   0.11836  -0.00045  -0.06602   0.01239
           Y3           0.11836  -0.06291  -0.00301   0.01239   0.01523
           Z3          -0.00045  -0.00301  -0.02528   0.00021   0.00139
                          Z2        X3        Y3        Z3
           Z2           0.01369
           X3           0.00021   0.90522
           Y3           0.00139  -0.13075   0.04768
           Z3           0.00788   0.00024   0.00163   0.01739
 ITU=  0
     Eigenvalues ---    0.06896   0.12691   0.53308   1.92877
 Angle between quadratic step and forces=  15.14 degrees.
 ClnCor:  largest displacement from symmetrization is 1.65D-11 for atom     1.
 Linear search not attempted -- first point.
 ClnCor:  largest displacement from symmetrization is 4.44D-16 for atom     2.
 B after Tr=    -0.002757   -0.009908    0.061581
         Rot=    0.986544   -0.161711    0.024108    0.000000 Ang= -18.82 deg.
 Variable       Old X    -DE/DX   Delta X   Delta X   Delta X     New X
                                 (Linear)    (Quad)   (Total)
    X1       -0.29409  -0.00014   0.00000  -0.00832  -0.00957  -0.30366
    Y1       -0.14916   0.00002   0.00000   0.00124   0.00143  -0.14773
    Z1        0.00000  -0.00000   0.00000   0.00000   0.00000   0.00000
    X2       -2.86912   0.01794   0.00000   0.03636   0.03511  -2.83401
    Y2        0.23472  -0.00268   0.00000  -0.00542  -0.00523   0.22949
    Z2        0.00000   0.00000   0.00000  -0.00000  -0.00000  -0.00000
    X3        1.89883  -0.01780   0.00000  -0.02429  -0.02554   1.87329
    Y3       -0.47608   0.00265   0.00000   0.00362   0.00381  -0.47227
    Z3       -0.00000   0.00000   0.00000   0.00000   0.00000   0.00000
         Item               Value     Threshold  Converged?
 Maximum Force            0.017944     0.000450     NO 
 RMS     Force            0.008519     0.000300     NO 
 Maximum Displacement     0.035108     0.001800     NO 
 RMS     Displacement     0.014983     0.001200     NO 
 Predicted change in Energy=-5.550614D-04
 GradGradGradGradGradGradGradGradGradGradGradGradGradGradGradGradGradGrad

 Leave Link  103 at Fri Mar  1 07:22:30 2019, MaxMem=    33554432 cpu:         0.1
 (Enter /home/proyectos/fulerenos/M3C-v2.0/M3C-deps_CCC/g09-AM64L-G09RevC.01/l9999.exe)

 Test job not archived.
 1\1\GINC-BOHRIO\Freq\RB3LYP\6-311++G(3df,2p)\C2O1\ROOT\01-Mar-2019\0\\
 #p b3lyp/6-311++G(3df,2p) freq IOp(2/17=3) IOp(2/18=3)\\b3lyp opt\\0,1
 \C,-0.1556269286,-0.0789319153,0.\C,-1.5182729701,0.1242104595,0.\O,1.
 004817174,-0.2519301581,0.\\Version=EM64L-G09RevE.01\HF=-151.2752844\R
 MSD=1.254e-09\RMSF=8.519e-03\ZeroPoint=0.0088837\Thermal=0.0118169\Dip
 ole=0.4141822,-0.061746,0.\DipoleDeriv=0.8479116,-0.1053414,-0.0124988
 ,-0.1053414,0.1570028,-0.0838402,-0.0124988,-0.0838402,0.6972631,0.300
 1177,-0.0673906,0.0057477,-0.0673906,-0.1418808,0.0385546,0.0057477,0.
 0385546,-0.4075921,-1.1480292,0.172732,0.0067511,0.172732,-0.015122,0.
 0452856,0.0067511,0.0452856,-0.289671\Polar=39.1177566,-2.7931527,20.7
 981435,0.0239075,0.1603675,19.3183067\PG=C*V [C*(C1C1O1)]\NImag=0\\1.1
 4284134,-0.15787588,0.10737160,0.00083151,0.00557763,0.04684894,-0.303
 63912,0.03951649,-0.00038212,0.36965601,0.03951649,-0.04446001,-0.0025
 6322,-0.05190398,0.02923037,-0.00038212,-0.00256322,-0.02157161,0.0001
 7547,0.00117704,0.01368730,-0.83920221,0.11835939,-0.00044939,-0.06601
 689,0.01238749,0.00020665,0.90521910,0.11835939,-0.06291158,-0.0030144
 2,0.01238749,0.01522965,0.00138617,-0.13074688,0.04768194,-0.00044939,
 -0.00301442,-0.02527733,0.00020665,0.00138617,0.00788431,0.00024274,0.
 00162824,0.01739302\\0.00014363,-0.00002141,0.,-0.01794437,0.00267514,
 0.,0.01780074,-0.00265372,0.\\\@


 A MATHEMATICIAN IS A MACHINE FOR TURNING COFFEE INTO THEOREMS.
     -- QUOTED BY PAUL ERDOS
 Job cpu time:       0 days  0 hours  2 minutes 33.1 seconds.
 File lengths (MBytes):  RWF=      8 Int=      0 D2E=      0 Chk=      2 Scr=      1
 Normal termination of Gaussian 09 at Fri Mar  1 07:22:30 2019.
