 Entering Gaussian System, Link 0=/home/proyectos/fulerenos/M3C-v2.0/M3C-deps_CCC/g09-AM64L-G09RevC.01/g09
 Initial command:
 /home/proyectos/fulerenos/M3C-v2.0/M3C-deps_CCC/g09-AM64L-G09RevC.01/l1.exe "/scratch/naguirre/gaussian/Gau-105026.inp" -scrdir="/scratch/naguirre/gaussian/"
 Entering Link 1 = /home/proyectos/fulerenos/M3C-v2.0/M3C-deps_CCC/g09-AM64L-G09RevC.01/l1.exe PID=    105036.
  
 Copyright (c) 1988,1990,1992,1993,1995,1998,2003,2009,2015,
            Gaussian, Inc.  All Rights Reserved.
  
 This is part of the Gaussian(R) 09 program.  It is based on
 the Gaussian(R) 03 system (copyright 2003, Gaussian, Inc.),
 the Gaussian(R) 98 system (copyright 1998, Gaussian, Inc.),
 the Gaussian(R) 94 system (copyright 1995, Gaussian, Inc.),
 the Gaussian 92(TM) system (copyright 1992, Gaussian, Inc.),
 the Gaussian 90(TM) system (copyright 1990, Gaussian, Inc.),
 the Gaussian 88(TM) system (copyright 1988, Gaussian, Inc.),
 the Gaussian 86(TM) system (copyright 1986, Carnegie Mellon
 University), and the Gaussian 82(TM) system (copyright 1983,
 Carnegie Mellon University). Gaussian is a federally registered
 trademark of Gaussian, Inc.
  
 This software contains proprietary and confidential information,
 including trade secrets, belonging to Gaussian, Inc.
  
 This software is provided under written license and may be
 used, copied, transmitted, or stored only in accord with that
 written license.
  
 The following legend is applicable only to US Government
 contracts under FAR:
  
                    RESTRICTED RIGHTS LEGEND
  
 Use, reproduction and disclosure by the US Government is
 subject to restrictions as set forth in subparagraphs (a)
 and (c) of the Commercial Computer Software - Restricted
 Rights clause in FAR 52.227-19.
  
 Gaussian, Inc.
 340 Quinnipiac St., Bldg. 40, Wallingford CT 06492
  
  
 ---------------------------------------------------------------
 Warning -- This program may not be used in any manner that
 competes with the business of Gaussian, Inc. or will provide
 assistance to any competitor of Gaussian, Inc.  The licensee
 of this program is prohibited from giving any competitor of
 Gaussian, Inc. access to this program.  By using this program,
 the user acknowledges that Gaussian, Inc. is engaged in the
 business of creating and licensing software in the field of
 computational chemistry and represents and warrants to the
 licensee that it is not a competitor of Gaussian, Inc. and that
 it will not use this program in any manner prohibited above.
 ---------------------------------------------------------------
  

 Cite this work as:
 Gaussian 09, Revision E.01,
 M. J. Frisch, G. W. Trucks, H. B. Schlegel, G. E. Scuseria, 
 M. A. Robb, J. R. Cheeseman, G. Scalmani, V. Barone, B. Mennucci, 
 G. A. Petersson, H. Nakatsuji, M. Caricato, X. Li, H. P. Hratchian, 
 A. F. Izmaylov, J. Bloino, G. Zheng, J. L. Sonnenberg, M. Hada, 
 M. Ehara, K. Toyota, R. Fukuda, J. Hasegawa, M. Ishida, T. Nakajima, 
 Y. Honda, O. Kitao, H. Nakai, T. Vreven, J. A. Montgomery, Jr., 
 J. E. Peralta, F. Ogliaro, M. Bearpark, J. J. Heyd, E. Brothers, 
 K. N. Kudin, V. N. Staroverov, T. Keith, R. Kobayashi, J. Normand, 
 K. Raghavachari, A. Rendell, J. C. Burant, S. S. Iyengar, J. Tomasi, 
 M. Cossi, N. Rega, J. M. Millam, M. Klene, J. E. Knox, J. B. Cross, 
 V. Bakken, C. Adamo, J. Jaramillo, R. Gomperts, R. E. Stratmann, 
 O. Yazyev, A. J. Austin, R. Cammi, C. Pomelli, J. W. Ochterski, 
 R. L. Martin, K. Morokuma, V. G. Zakrzewski, G. A. Voth, 
 P. Salvador, J. J. Dannenberg, S. Dapprich, A. D. Daniels, 
 O. Farkas, J. B. Foresman, J. V. Ortiz, J. Cioslowski, 
 and D. J. Fox, Gaussian, Inc., Wallingford CT, 2013.
 
 ******************************************
 Gaussian 09:  EM64L-G09RevE.01 30-Nov-2015
                 3-Mar-2019 
 ******************************************
 %NProcShared=4
 Will use up to    4 processors via shared memory.
 ------------------------------------------------------
 #p b3lyp/6-311++G(3df,2p) freq IOp(2/17=3) IOp(2/18=3)
 ------------------------------------------------------
 1/10=4,30=1,38=1/1,3;
 2/12=2,17=3,18=3,40=1/2;
 3/5=4,6=6,7=1216,11=2,16=1,25=1,30=1,71=2,74=-5,140=1/1,2,3;
 4//1;
 5/5=2,38=5,98=1/2;
 8/6=4,10=90,11=11/1;
 11/6=1,8=1,9=11,15=111,16=1/1,2,10;
 10/6=1/2;
 6/7=2,8=2,9=2,10=2,18=1,28=1/1;
 7/8=1,10=1,25=1/1,2,3,16;
 1/10=4,30=1/3;
 99//99;
 Leave Link    1 at Sun Mar  3 15:32:47 2019, MaxMem=           0 cpu:         1.0
 (Enter /home/proyectos/fulerenos/M3C-v2.0/M3C-deps_CCC/g09-AM64L-G09RevC.01/l101.exe)
 ---------
 b3lyp opt
 ---------
 Symbolic Z-matrix:
 Charge =  0 Multiplicity = 1
 C                     2.26259  -0.4519   -0.52885 
 C                    -1.16164   0.30866   0.20672 
 O                    -0.77573   1.44082   0.24757 
 C                    -0.30625  -0.91667  -0.08224 
 C                     1.10119  -0.66326  -0.32706 
 H                     3.29119  -0.2581   -0.7069 
 H                    -2.22785   0.05829   0.38625 
 H                    -0.44037  -1.60134   0.76404 
 H                    -0.76714  -1.42862  -0.93572 
 
 NAtoms=      9 NQM=        9 NQMF=       0 NMMI=      0 NMMIF=      0
                NMic=       0 NMicF=      0.
                    Isotopes and Nuclear Properties:
 (Nuclear quadrupole moments (NQMom) in fm**2, nuclear magnetic moments (NMagM)
  in nuclear magnetons)

  Atom         1           2           3           4           5           6           7           8           9
 IAtWgt=          12          12          16          12          12           1           1           1           1
 AtmWgt=  12.0000000  12.0000000  15.9949146  12.0000000  12.0000000   1.0078250   1.0078250   1.0078250   1.0078250
 NucSpn=           0           0           0           0           0           1           1           1           1
 AtZEff=   0.0000000   0.0000000   0.0000000   0.0000000   0.0000000   0.0000000   0.0000000   0.0000000   0.0000000
 NQMom=    0.0000000   0.0000000   0.0000000   0.0000000   0.0000000   0.0000000   0.0000000   0.0000000   0.0000000
 NMagM=    0.0000000   0.0000000   0.0000000   0.0000000   0.0000000   2.7928460   2.7928460   2.7928460   2.7928460
 AtZNuc=   6.0000000   6.0000000   8.0000000   6.0000000   6.0000000   1.0000000   1.0000000   1.0000000   1.0000000
 Leave Link  101 at Sun Mar  3 15:32:48 2019, MaxMem=    33554432 cpu:         1.6
 (Enter /home/proyectos/fulerenos/M3C-v2.0/M3C-deps_CCC/g09-AM64L-G09RevC.01/l103.exe)

 GradGradGradGradGradGradGradGradGradGradGradGradGradGradGradGradGradGrad
 Berny optimization.
 Initialization pass.
 Trust Radius=3.00D-01 FncErr=1.00D-07 GrdErr=1.00D-07
 Number of steps in this run=      2 maximum allowed number of steps=      2.
 GradGradGradGradGradGradGradGradGradGradGradGradGradGradGradGradGradGrad

 Leave Link  103 at Sun Mar  3 15:32:49 2019, MaxMem=    33554432 cpu:         0.5
 (Enter /home/proyectos/fulerenos/M3C-v2.0/M3C-deps_CCC/g09-AM64L-G09RevC.01/l202.exe)
                          Input orientation:                          
 ---------------------------------------------------------------------
 Center     Atomic      Atomic             Coordinates (Angstroms)
 Number     Number       Type             X           Y           Z
 ---------------------------------------------------------------------
      1          6           0        2.262587   -0.451901   -0.528853
      2          6           0       -1.161645    0.308656    0.206718
      3          8           0       -0.775728    1.440816    0.247572
      4          6           0       -0.306245   -0.916670   -0.082238
      5          6           0        1.101193   -0.663263   -0.327059
      6          1           0        3.291188   -0.258096   -0.706902
      7          1           0       -2.227853    0.058291    0.386250
      8          1           0       -0.440373   -1.601338    0.764037
      9          1           0       -0.767140   -1.428619   -0.935716
 ---------------------------------------------------------------------
                    Distance matrix (angstroms):
                    1          2          3          4          5
     1  C    0.000000
     2  C    3.583975   0.000000
     3  O    3.662864   1.196824   0.000000
     4  C    2.648467   1.522048   2.426300   0.000000
     5  C    1.197594   2.519917   2.877531   1.450874   0.000000
     6  H    1.061735   4.580789   4.509670   3.710182   2.259318
     7  H    4.611047   1.109826   2.009795   2.205131   3.480229
     8  H    3.209168   2.116345   3.103853   1.096786   2.108768
     9  H    3.209168   2.116345   3.103853   1.096786   2.108768
                    6          7          8          9
     6  H    0.000000
     7  H    5.635147   0.000000
     8  H    4.229953   2.468233   0.000000
     9  H    4.229953   2.468233   1.739474   0.000000
 Stoichiometry    C4H4O
 Framework group  CS[SG(C4H2O),X(H2)]
 Deg. of freedom    14
 Full point group                 CS      NOp   2
 Largest Abelian subgroup         CS      NOp   2
 Largest concise Abelian subgroup CS      NOp   2
                         Standard orientation:                         
 ---------------------------------------------------------------------
 Center     Atomic      Atomic             Coordinates (Angstroms)
 Number     Number       Type             X           Y           Z
 ---------------------------------------------------------------------
      1          6           0       -2.114925   -0.625554   -0.000000
      2          6           0        1.354311    0.274043    0.000000
      3          8           0        1.536974   -0.908759   -0.000000
      4          6           0       -0.000000    0.968644    0.000000
      5          6           0       -1.159329    0.096295   -0.000000
      6          1           0       -2.958145   -1.270737   -0.000000
      7          1           0        2.205057    0.986746    0.000000
      8          1           0       -0.011523    1.636750    0.869737
      9          1           0       -0.011523    1.636750   -0.869737
 ---------------------------------------------------------------------
 Rotational constants (GHZ):     12.7893303      3.4877949      2.7865220
 Leave Link  202 at Sun Mar  3 15:32:50 2019, MaxMem=    33554432 cpu:         1.1
 (Enter /home/proyectos/fulerenos/M3C-v2.0/M3C-deps_CCC/g09-AM64L-G09RevC.01/l301.exe)
 Standard basis: 6-311++G(3df,2p) (5D, 7F)
 Ernie: Thresh=  0.10000D-02 Tol=  0.10000D-05 Strict=F.
 There are   181 symmetry adapted cartesian basis functions of A'  symmetry.
 There are    84 symmetry adapted cartesian basis functions of A"  symmetry.
 There are   156 symmetry adapted basis functions of A'  symmetry.
 There are    79 symmetry adapted basis functions of A"  symmetry.
   235 basis functions,   338 primitive gaussians,   265 cartesian basis functions
    18 alpha electrons       18 beta electrons
       nuclear repulsion energy       141.5526867920 Hartrees.
 IExCor=  402 DFT=T Ex+Corr=B3LYP ExCW=0 ScaHFX=  0.200000
 ScaDFX=  0.800000  0.720000  1.000000  0.810000 ScalE2=  1.000000  1.000000
 IRadAn=      0 IRanWt=     -1 IRanGd=            0 ICorTp=0 IEmpDi=  4
 NAtoms=    9 NActive=    9 NUniq=    8 SFac= 1.27D+00 NAtFMM=   60 NAOKFM=F Big=F
 Integral buffers will be    131072 words long.
 Raffenetti 2 integral format.
 Two-electron integral symmetry is turned on.
 Leave Link  301 at Sun Mar  3 15:32:52 2019, MaxMem=    33554432 cpu:         1.3
 (Enter /home/proyectos/fulerenos/M3C-v2.0/M3C-deps_CCC/g09-AM64L-G09RevC.01/l302.exe)
 NPDir=0 NMtPBC=     1 NCelOv=     1 NCel=       1 NClECP=     1 NCelD=      1
         NCelK=      1 NCelE2=     1 NClLst=     1 CellRange=     0.0.
 One-electron integrals computed using PRISM.
 One-electron integral symmetry used in STVInt
 NBasis=   235 RedAO= T EigKep=  1.50D-06  NBF=   156    79
 NBsUse=   235 1.00D-06 EigRej= -1.00D+00 NBFU=   156    79
 Precomputing XC quadrature grid using
 IXCGrd= 4 IRadAn=           0 IRanWt=          -1 IRanGd=           0 AccXCQ= 0.00D+00.
 Generated NRdTot=       0 NPtTot=           0 NUsed=           0 NTot=          32
 NSgBfM=   265   265   265   265   265 MxSgAt=     9 MxSgA2=     9.
 Leave Link  302 at Sun Mar  3 15:32:55 2019, MaxMem=    33554432 cpu:         4.3
 (Enter /home/proyectos/fulerenos/M3C-v2.0/M3C-deps_CCC/g09-AM64L-G09RevC.01/l303.exe)
 DipDrv:  MaxL=1.
 Leave Link  303 at Sun Mar  3 15:32:57 2019, MaxMem=    33554432 cpu:         1.5
 (Enter /home/proyectos/fulerenos/M3C-v2.0/M3C-deps_CCC/g09-AM64L-G09RevC.01/l401.exe)
 ExpMin= 3.60D-02 ExpMax= 8.59D+03 ExpMxC= 1.30D+03 IAcc=3 IRadAn=         5 AccDes= 0.00D+00
 Harris functional with IExCor=  402 and IRadAn=       5 diagonalized for initial guess.
 HarFok:  IExCor=  402 AccDes= 0.00D+00 IRadAn=         5 IDoV= 1 UseB2=F ITyADJ=14
 ICtDFT=  3500011 ScaDFX=  1.000000  1.000000  1.000000  1.000000
 FoFCou: FMM=F IPFlag=           0 FMFlag=      100000 FMFlg1=           0
         NFxFlg=           0 DoJE=T BraDBF=F KetDBF=T FulRan=T
         wScrn=  0.000000 ICntrl=     500 IOpCl=  0 I1Cent=   200000004 NGrid=           0
         NMat0=    1 NMatS0=      1 NMatT0=    0 NMatD0=    1 NMtDS0=    0 NMtDT0=    0
 Petite list used in FoFCou.
 Harris En= -230.112968259106    
 JPrj=0 DoOrth=F DoCkMO=F.
 Initial guess orbital symmetries:
       Occupied  (A') (A') (A') (A') (A') (A') (A') (A') (A') (A')
                 (A') (A') (A") (A') (A") (A') (A") (A')
       Virtual   (A") (A') (A") (A') (A') (A') (A") (A') (A') (A')
                 (A") (A') (A') (A") (A') (A') (A') (A') (A") (A")
                 (A') (A') (A') (A') (A") (A') (A') (A") (A') (A')
                 (A') (A") (A') (A') (A') (A') (A") (A') (A") (A')
                 (A') (A') (A") (A") (A') (A') (A") (A') (A") (A')
                 (A') (A") (A') (A') (A") (A') (A') (A") (A') (A')
                 (A') (A") (A") (A') (A') (A') (A") (A') (A") (A')
                 (A') (A') (A") (A") (A') (A') (A') (A') (A") (A')
                 (A") (A') (A') (A') (A") (A') (A") (A") (A') (A')
                 (A") (A') (A") (A') (A') (A') (A') (A') (A') (A')
                 (A") (A") (A') (A") (A') (A") (A') (A') (A") (A')
                 (A') (A') (A") (A') (A') (A') (A") (A') (A") (A")
                 (A') (A") (A') (A') (A") (A') (A") (A") (A') (A")
                 (A') (A') (A') (A") (A") (A') (A") (A') (A') (A')
                 (A") (A') (A') (A') (A") (A") (A') (A') (A') (A')
                 (A") (A') (A") (A') (A') (A") (A') (A') (A") (A")
                 (A') (A') (A') (A") (A') (A") (A') (A') (A") (A')
                 (A') (A") (A') (A") (A') (A") (A') (A') (A") (A')
                 (A') (A") (A') (A") (A') (A') (A') (A") (A') (A")
                 (A") (A') (A") (A') (A") (A') (A") (A') (A') (A")
                 (A') (A') (A') (A") (A') (A') (A') (A") (A') (A")
                 (A') (A') (A') (A') (A') (A') (A')
 The electronic state of the initial guess is 1-A'.
 Leave Link  401 at Sun Mar  3 15:33:02 2019, MaxMem=    33554432 cpu:        10.0
 (Enter /home/proyectos/fulerenos/M3C-v2.0/M3C-deps_CCC/g09-AM64L-G09RevC.01/l502.exe)
 Closed shell SCF:
 Using DIIS extrapolation, IDIIS=  1040.
 Integral symmetry usage will be decided dynamically.
 IVT=      233035 IEndB=      233035 NGot=    33554432 MDV=    33408528
 LenX=    33408528 LenY=    33337862
 Requested convergence on RMS density matrix=1.00D-08 within 128 cycles.
 Requested convergence on MAX density matrix=1.00D-06.
 Requested convergence on             energy=1.00D-06.
 No special actions if energy rises.
 Fock matrices will be formed incrementally for  20 cycles.

 Cycle   1  Pass 1  IDiag  1:
 FoFJK:  IHMeth= 1 ICntrl=       0 DoSepK=F KAlg= 0 I1Cent=   0 FoldK=F
 IRaf= 980000000 NMat=   1 IRICut=       1 DoRegI=T DoRafI=F ISym2E= 1.
 FoFCou: FMM=F IPFlag=           0 FMFlag=      100000 FMFlg1=           0
         NFxFlg=           0 DoJE=F BraDBF=F KetDBF=F FulRan=T
         wScrn=  0.000000 ICntrl=       0 IOpCl=  0 I1Cent=           0 NGrid=           0
         NMat0=    1 NMatS0=      1 NMatT0=    0 NMatD0=    1 NMtDS0=    0 NMtDT0=    0
 Petite list used in FoFCou.
 E= -229.884334881533    
 DIIS: error= 2.98D-02 at cycle   1 NSaved=   1.
 NSaved= 1 IEnMin= 1 EnMin= -229.884334881533     IErMin= 1 ErrMin= 2.98D-02
 ErrMax= 2.98D-02  0.00D+00 EMaxC= 1.00D-01 BMatC= 2.00D-01 BMatP= 2.00D-01
 IDIUse=3 WtCom= 7.02D-01 WtEn= 2.98D-01
 Coeff-Com:  0.100D+01
 Coeff-En:   0.100D+01
 Coeff:      0.100D+01
 Gap=     0.158 Goal=   None    Shift=    0.000
 GapD=    0.158 DampG=1.000 DampE=0.500 DampFc=0.5000 IDamp=-1.
 Damping current iteration by 5.00D-01
 RMSDP=1.31D-02 MaxDP=8.89D-01              OVMax= 2.90D-01

 Cycle   2  Pass 1  IDiag  1:
 RMSU=  6.50D-03    CP:  9.70D-01
 E= -229.927800627385     Delta-E=       -0.043465745852 Rises=F Damp=T
 DIIS: error= 1.00D-02 at cycle   2 NSaved=   2.
 NSaved= 2 IEnMin= 2 EnMin= -229.927800627385     IErMin= 2 ErrMin= 1.00D-02
 ErrMax= 1.00D-02  0.00D+00 EMaxC= 1.00D-01 BMatC= 3.25D-02 BMatP= 2.00D-01
 IDIUse=3 WtCom= 9.00D-01 WtEn= 1.00D-01
 Coeff-Com:  0.212D+00 0.788D+00
 Coeff-En:   0.352D+00 0.648D+00
 Coeff:      0.226D+00 0.774D+00
 Gap=     0.237 Goal=   None    Shift=    0.000
 RMSDP=6.57D-03 MaxDP=7.14D-01 DE=-4.35D-02 OVMax= 2.33D-01

 Cycle   3  Pass 1  IDiag  1:
 RMSU=  3.21D-03    CP:  8.57D-01  2.15D-01
 E= -230.024358727068     Delta-E=       -0.096558099683 Rises=F Damp=F
 DIIS: error= 1.25D-02 at cycle   3 NSaved=   3.
 NSaved= 3 IEnMin= 3 EnMin= -230.024358727068     IErMin= 2 ErrMin= 1.00D-02
 ErrMax= 1.25D-02  0.00D+00 EMaxC= 1.00D-01 BMatC= 3.56D-02 BMatP= 3.25D-02
 IDIUse=3 WtCom= 8.75D-01 WtEn= 1.25D-01
 Coeff-Com:  0.342D-01 0.509D+00 0.457D+00
 Coeff-En:   0.000D+00 0.000D+00 0.100D+01
 Coeff:      0.299D-01 0.445D+00 0.525D+00
 Gap=     0.240 Goal=   None    Shift=    0.000
 RMSDP=1.98D-03 MaxDP=2.07D-01 DE=-9.66D-02 OVMax= 8.92D-02

 Cycle   4  Pass 1  IDiag  1:
 RMSU=  1.24D-03    CP:  9.19D-01  2.70D-01  8.76D-01
 E= -230.049187551901     Delta-E=       -0.024828824834 Rises=F Damp=F
 DIIS: error= 4.45D-03 at cycle   4 NSaved=   4.
 NSaved= 4 IEnMin= 4 EnMin= -230.049187551901     IErMin= 4 ErrMin= 4.45D-03
 ErrMax= 4.45D-03  0.00D+00 EMaxC= 1.00D-01 BMatC= 4.59D-03 BMatP= 3.25D-02
 IDIUse=3 WtCom= 9.56D-01 WtEn= 4.45D-02
 Coeff-Com: -0.203D-02 0.823D-01 0.288D+00 0.631D+00
 Coeff-En:   0.000D+00 0.000D+00 0.135D+00 0.865D+00
 Coeff:     -0.194D-02 0.787D-01 0.282D+00 0.642D+00
 Gap=     0.228 Goal=   None    Shift=    0.000
 RMSDP=7.75D-04 MaxDP=7.45D-02 DE=-2.48D-02 OVMax= 1.97D-02

 Cycle   5  Pass 1  IDiag  1:
 RMSU=  2.81D-04    CP:  8.93D-01  2.44D-01  9.20D-01  7.47D-01
 E= -230.052612857452     Delta-E=       -0.003425305550 Rises=F Damp=F
 DIIS: error= 1.20D-03 at cycle   5 NSaved=   5.
 NSaved= 5 IEnMin= 5 EnMin= -230.052612857452     IErMin= 5 ErrMin= 1.20D-03
 ErrMax= 1.20D-03  0.00D+00 EMaxC= 1.00D-01 BMatC= 2.76D-04 BMatP= 4.59D-03
 IDIUse=3 WtCom= 9.88D-01 WtEn= 1.20D-02
 Coeff-Com: -0.314D-02 0.244D-01 0.151D+00 0.390D+00 0.437D+00
 Coeff-En:   0.000D+00 0.000D+00 0.000D+00 0.000D+00 0.100D+01
 Coeff:     -0.310D-02 0.241D-01 0.149D+00 0.385D+00 0.444D+00
 Gap=     0.227 Goal=   None    Shift=    0.000
 RMSDP=1.44D-04 MaxDP=9.45D-03 DE=-3.43D-03 OVMax= 8.57D-03

 Cycle   6  Pass 1  IDiag  1:
 RMSU=  8.21D-05    CP:  8.96D-01  2.44D-01  9.11D-01  7.53D-01  6.63D-01
 E= -230.052823780675     Delta-E=       -0.000210923223 Rises=F Damp=F
 DIIS: error= 6.22D-04 at cycle   6 NSaved=   6.
 NSaved= 6 IEnMin= 6 EnMin= -230.052823780675     IErMin= 6 ErrMin= 6.22D-04
 ErrMax= 6.22D-04  0.00D+00 EMaxC= 1.00D-01 BMatC= 5.42D-05 BMatP= 2.76D-04
 IDIUse=3 WtCom= 9.94D-01 WtEn= 6.22D-03
 Coeff-Com: -0.110D-02-0.289D-02 0.422D-01 0.130D+00 0.315D+00 0.517D+00
 Coeff-En:   0.000D+00 0.000D+00 0.000D+00 0.000D+00 0.213D+00 0.787D+00
 Coeff:     -0.109D-02-0.287D-02 0.420D-01 0.129D+00 0.315D+00 0.519D+00
 Gap=     0.227 Goal=   None    Shift=    0.000
 RMSDP=4.44D-05 MaxDP=2.34D-03 DE=-2.11D-04 OVMax= 3.14D-03

 Cycle   7  Pass 1  IDiag  1:
 RMSU=  2.97D-05    CP:  8.95D-01  2.41D-01  9.15D-01  7.44D-01  6.62D-01
                    CP:  7.90D-01
 E= -230.052877996866     Delta-E=       -0.000054216191 Rises=F Damp=F
 DIIS: error= 4.49D-05 at cycle   7 NSaved=   7.
 NSaved= 7 IEnMin= 7 EnMin= -230.052877996866     IErMin= 7 ErrMin= 4.49D-05
 ErrMax= 4.49D-05  0.00D+00 EMaxC= 1.00D-01 BMatC= 4.91D-07 BMatP= 5.42D-05
 IDIUse=1 WtCom= 1.00D+00 WtEn= 0.00D+00
 Coeff-Com:  0.182D-03-0.206D-02 0.665D-02 0.214D-01 0.685D-01 0.157D+00
 Coeff-Com:  0.748D+00
 Coeff:      0.182D-03-0.206D-02 0.665D-02 0.214D-01 0.685D-01 0.157D+00
 Coeff:      0.748D+00
 Gap=     0.227 Goal=   None    Shift=    0.000
 RMSDP=1.58D-05 MaxDP=1.37D-03 DE=-5.42D-05 OVMax= 2.58D-04

 Cycle   8  Pass 1  IDiag  1:
 RMSU=  8.46D-06    CP:  8.96D-01  2.40D-01  9.14D-01  7.46D-01  6.52D-01
                    CP:  8.35D-01  1.04D+00
 E= -230.052878398269     Delta-E=       -0.000000401402 Rises=F Damp=F
 DIIS: error= 1.41D-05 at cycle   8 NSaved=   8.
 NSaved= 8 IEnMin= 8 EnMin= -230.052878398269     IErMin= 8 ErrMin= 1.41D-05
 ErrMax= 1.41D-05  0.00D+00 EMaxC= 1.00D-01 BMatC= 5.32D-08 BMatP= 4.91D-07
 IDIUse=1 WtCom= 1.00D+00 WtEn= 0.00D+00
 Coeff-Com:  0.189D-03-0.891D-03 0.654D-03 0.216D-02 0.121D-01 0.378D-01
 Coeff-Com:  0.313D+00 0.635D+00
 Coeff:      0.189D-03-0.891D-03 0.654D-03 0.216D-02 0.121D-01 0.378D-01
 Coeff:      0.313D+00 0.635D+00
 Gap=     0.227 Goal=   None    Shift=    0.000
 RMSDP=2.36D-06 MaxDP=1.67D-04 DE=-4.01D-07 OVMax= 5.26D-05

 Cycle   9  Pass 1  IDiag  1:
 RMSU=  1.70D-06    CP:  8.96D-01  2.40D-01  9.14D-01  7.46D-01  6.54D-01
                    CP:  8.35D-01  1.05D+00  9.91D-01
 E= -230.052878444496     Delta-E=       -0.000000046227 Rises=F Damp=F
 DIIS: error= 4.64D-06 at cycle   9 NSaved=   9.
 NSaved= 9 IEnMin= 9 EnMin= -230.052878444496     IErMin= 9 ErrMin= 4.64D-06
 ErrMax= 4.64D-06  0.00D+00 EMaxC= 1.00D-01 BMatC= 2.54D-09 BMatP= 5.32D-08
 IDIUse=1 WtCom= 1.00D+00 WtEn= 0.00D+00
 Coeff-Com:  0.578D-04-0.138D-03-0.184D-03-0.786D-03-0.112D-02-0.457D-03
 Coeff-Com:  0.389D-01 0.205D+00 0.758D+00
 Coeff:      0.578D-04-0.138D-03-0.184D-03-0.786D-03-0.112D-02-0.457D-03
 Coeff:      0.389D-01 0.205D+00 0.758D+00
 Gap=     0.227 Goal=   None    Shift=    0.000
 RMSDP=1.19D-06 MaxDP=6.84D-05 DE=-4.62D-08 OVMax= 1.71D-05

 Cycle  10  Pass 1  IDiag  1:
 RMSU=  4.32D-07    CP:  8.96D-01  2.40D-01  9.14D-01  7.46D-01  6.54D-01
                    CP:  8.39D-01  1.05D+00  1.02D+00  8.80D-01
 E= -230.052878446950     Delta-E=       -0.000000002454 Rises=F Damp=F
 DIIS: error= 6.10D-07 at cycle  10 NSaved=  10.
 NSaved=10 IEnMin=10 EnMin= -230.052878446950     IErMin=10 ErrMin= 6.10D-07
 ErrMax= 6.10D-07  0.00D+00 EMaxC= 1.00D-01 BMatC= 6.81D-11 BMatP= 2.54D-09
 IDIUse=1 WtCom= 1.00D+00 WtEn= 0.00D+00
 Coeff-Com:  0.659D-05-0.630D-05-0.460D-04-0.223D-03-0.665D-03-0.139D-02
 Coeff-Com: -0.160D-02 0.187D-01 0.191D+00 0.794D+00
 Coeff:      0.659D-05-0.630D-05-0.460D-04-0.223D-03-0.665D-03-0.139D-02
 Coeff:     -0.160D-02 0.187D-01 0.191D+00 0.794D+00
 Gap=     0.227 Goal=   None    Shift=    0.000
 RMSDP=7.81D-08 MaxDP=3.13D-06 DE=-2.45D-09 OVMax= 2.23D-06

 Cycle  11  Pass 1  IDiag  1:
 RMSU=  5.90D-08    CP:  8.96D-01  2.40D-01  9.14D-01  7.46D-01  6.54D-01
                    CP:  8.39D-01  1.06D+00  1.02D+00  8.95D-01  9.89D-01
 E= -230.052878447017     Delta-E=       -0.000000000067 Rises=F Damp=F
 DIIS: error= 9.04D-08 at cycle  11 NSaved=  11.
 NSaved=11 IEnMin=11 EnMin= -230.052878447017     IErMin=11 ErrMin= 9.04D-08
 ErrMax= 9.04D-08  0.00D+00 EMaxC= 1.00D-01 BMatC= 2.33D-12 BMatP= 6.81D-11
 IDIUse=1 WtCom= 1.00D+00 WtEn= 0.00D+00
 Coeff-Com: -0.890D-06 0.202D-05 0.735D-06-0.747D-05-0.948D-04-0.192D-03
 Coeff-Com: -0.147D-02-0.583D-02 0.484D-02 0.145D+00 0.857D+00
 Coeff:     -0.890D-06 0.202D-05 0.735D-06-0.747D-05-0.948D-04-0.192D-03
 Coeff:     -0.147D-02-0.583D-02 0.484D-02 0.145D+00 0.857D+00
 Gap=     0.227 Goal=   None    Shift=    0.000
 RMSDP=2.40D-08 MaxDP=9.19D-07 DE=-6.75D-11 OVMax= 3.68D-07

 Cycle  12  Pass 1  IDiag  1:
 RMSU=  9.72D-09    CP:  8.96D-01  2.40D-01  9.14D-01  7.46D-01  6.54D-01
                    CP:  8.39D-01  1.06D+00  1.02D+00  8.99D-01  1.01D+00
                    CP:  9.42D-01
 E= -230.052878447020     Delta-E=       -0.000000000003 Rises=F Damp=F
 DIIS: error= 3.92D-08 at cycle  12 NSaved=  12.
 NSaved=12 IEnMin=12 EnMin= -230.052878447020     IErMin=12 ErrMin= 3.92D-08
 ErrMax= 3.92D-08  0.00D+00 EMaxC= 1.00D-01 BMatC= 3.52D-13 BMatP= 2.33D-12
 IDIUse=1 WtCom= 1.00D+00 WtEn= 0.00D+00
 Coeff-Com: -0.454D-06 0.108D-05 0.199D-05 0.298D-05-0.227D-04-0.424D-04
 Coeff-Com: -0.573D-03-0.324D-02-0.443D-02 0.362D-01 0.382D+00 0.591D+00
 Coeff:     -0.454D-06 0.108D-05 0.199D-05 0.298D-05-0.227D-04-0.424D-04
 Coeff:     -0.573D-03-0.324D-02-0.443D-02 0.362D-01 0.382D+00 0.591D+00
 Gap=     0.227 Goal=   None    Shift=    0.000
 RMSDP=5.20D-09 MaxDP=2.17D-07 DE=-2.73D-12 OVMax= 1.34D-07

 SCF Done:  E(RB3LYP) =  -230.052878447     A.U. after   12 cycles
            NFock= 12  Conv=0.52D-08     -V/T= 2.0043
 KE= 2.290660065927D+02 PE=-8.199053891348D+02 EE= 2.192338173031D+02
 Leave Link  502 at Sun Mar  3 15:35:12 2019, MaxMem=    33554432 cpu:       504.8
 (Enter /home/proyectos/fulerenos/M3C-v2.0/M3C-deps_CCC/g09-AM64L-G09RevC.01/l801.exe)
 DoSCS=F DFT=T ScalE2(SS,OS)=  1.000000  1.000000
 Range of M.O.s used for correlation:     1   235
 NBasis=   235 NAE=    18 NBE=    18 NFC=     0 NFV=     0
 NROrb=    235 NOA=    18 NOB=    18 NVA=   217 NVB=   217

 **** Warning!!: The largest alpha MO coefficient is  0.32890177D+03

 Leave Link  801 at Sun Mar  3 15:35:12 2019, MaxMem=    33554432 cpu:         0.2
 (Enter /home/proyectos/fulerenos/M3C-v2.0/M3C-deps_CCC/g09-AM64L-G09RevC.01/l1101.exe)
 Using compressed storage, NAtomX=     9.
 Will process     10 centers per pass.
 Leave Link 1101 at Sun Mar  3 15:35:13 2019, MaxMem=    33554432 cpu:         2.6
 (Enter /home/proyectos/fulerenos/M3C-v2.0/M3C-deps_CCC/g09-AM64L-G09RevC.01/l1102.exe)
 Symmetrizing basis deriv contribution to polar:
 IMax=3 JMax=2 DiffMx= 0.00D+00
 Leave Link 1102 at Sun Mar  3 15:35:14 2019, MaxMem=    33554432 cpu:         0.7
 (Enter /home/proyectos/fulerenos/M3C-v2.0/M3C-deps_CCC/g09-AM64L-G09RevC.01/l1110.exe)
 Forming Gx(P) for the SCF density, NAtomX=     9.
 Integral derivatives from FoFJK, PRISM(SPDF).
 Do as many integral derivatives as possible in FoFJK.
 G2DrvN: MDV=      33554256.
 G2DrvN: will do    10 centers at a time, making    1 passes.
 Calling FoFCou, ICntrl=  3107 FMM=F I1Cent=   0 AccDes= 0.00D+00.
 FoFJK:  IHMeth= 1 ICntrl=    3107 DoSepK=F KAlg= 0 I1Cent=   0 FoldK=F
 IRaf=         0 NMat=   1 IRICut=       1 DoRegI=T DoRafI=F ISym2E= 1.
 FoFCou: FMM=F IPFlag=           0 FMFlag=      100000 FMFlg1=           0
         NFxFlg=           0 DoJE=F BraDBF=F KetDBF=F FulRan=T
         wScrn=  0.000000 ICntrl=    3107 IOpCl=  0 I1Cent=           0 NGrid=           0
         NMat0=    1 NMatS0=      1 NMatT0=    0 NMatD0=    1 NMtDS0=    0 NMtDT0=    0
 Petite list used in FoFCou.
 End of G2Drv F.D. properties file   721 does not exist.
 End of G2Drv F.D. properties file   722 does not exist.
 End of G2Drv F.D. properties file   788 does not exist.
 Leave Link 1110 at Sun Mar  3 15:36:45 2019, MaxMem=    33554432 cpu:       360.7
 (Enter /home/proyectos/fulerenos/M3C-v2.0/M3C-deps_CCC/g09-AM64L-G09RevC.01/l1002.exe)
 Minotr:  Closed shell wavefunction.
          IDoAtm=111111111
          Direct CPHF calculation.
          Differentiating once with respect to electric field.
                with respect to dipole field.
          Differentiating once with respect to nuclear coordinates.
          Using symmetry in CPHF.
          Requested convergence is 1.0D-08 RMS, and 1.0D-07 maximum.
          Secondary convergence is 1.0D-12 RMS, and 1.0D-12 maximum.
          NewPWx=T KeepS1=F KeepF1=F KeepIn=T MapXYZ=F SortEE=F KeepMc=T.
          MDV=      33554103 using IRadAn=       2.
 Generate precomputed XC quadrature information.
          Solving linear equations simultaneously, MaxMat=       0.
 FoFJK:  IHMeth= 1 ICntrl=       0 DoSepK=F KAlg= 0 I1Cent=   0 FoldK=F
 IRaf= 980000000 NMat=  27 IRICut=      67 DoRegI=T DoRafI=T ISym2E= 2.
 FoFCou: FMM=F IPFlag=           0 FMFlag=      100000 FMFlg1=           0
         NFxFlg=           0 DoJE=F BraDBF=F KetDBF=F FulRan=T
         wScrn=  0.000000 ICntrl=       0 IOpCl=  0 I1Cent=           0 NGrid=           0
         NMat0=   27 NMatS0=     27 NMatT0=    0 NMatD0=   27 NMtDS0=    0 NMtDT0=    0
 Integrals replicated using symmetry in FoFCou.
          There are    27 degrees of freedom in the 1st order CPHF.  IDoFFX=4 NUNeed=    27.
     27 vectors produced by pass  0 Test12= 1.45D-14 3.70D-09 XBig12= 5.43D+01 3.71D+00.
 AX will form    27 AO Fock derivatives at one time.
     27 vectors produced by pass  1 Test12= 1.45D-14 3.70D-09 XBig12= 1.55D+01 1.24D+00.
     27 vectors produced by pass  2 Test12= 1.45D-14 3.70D-09 XBig12= 4.38D-01 1.51D-01.
     27 vectors produced by pass  3 Test12= 1.45D-14 3.70D-09 XBig12= 1.09D-03 6.28D-03.
     27 vectors produced by pass  4 Test12= 1.45D-14 3.70D-09 XBig12= 2.77D-06 2.21D-04.
     27 vectors produced by pass  5 Test12= 1.45D-14 3.70D-09 XBig12= 5.04D-09 1.32D-05.
      7 vectors produced by pass  6 Test12= 1.45D-14 3.70D-09 XBig12= 1.01D-11 6.63D-07.
      4 vectors produced by pass  7 Test12= 1.45D-14 3.70D-09 XBig12= 2.05D-12 3.13D-07.
      4 vectors produced by pass  8 Test12= 1.45D-14 3.70D-09 XBig12= 5.15D-13 1.69D-07.
      2 vectors produced by pass  9 Test12= 1.45D-14 3.70D-09 XBig12= 1.31D-14 2.37D-08.
      1 vectors produced by pass 10 Test12= 1.45D-14 3.70D-09 XBig12= 4.82D-16 6.60D-09.
 InvSVY:  IOpt=1 It=  1 EMax= 3.55D-15
 Solved reduced A of dimension   180 with    27 vectors.
 FullF1:  Do perturbations    1 to    27.
 Isotropic polarizability for W=    0.000000       50.53 Bohr**3.
 End of Minotr F.D. properties file   721 does not exist.
 End of Minotr F.D. properties file   722 does not exist.
 End of Minotr F.D. properties file   788 does not exist.
 Leave Link 1002 at Sun Mar  3 15:42:08 2019, MaxMem=    33554432 cpu:      1290.7
 (Enter /home/proyectos/fulerenos/M3C-v2.0/M3C-deps_CCC/g09-AM64L-G09RevC.01/l601.exe)
 Copying SCF densities to generalized density rwf, IOpCl= 0 IROHF=0.

 **********************************************************************

            Population analysis using the SCF density.

 **********************************************************************

 Orbital symmetries:
       Occupied  (A') (A') (A') (A') (A') (A') (A') (A') (A') (A')
                 (A') (A") (A') (A') (A") (A') (A") (A')
       Virtual   (A") (A') (A') (A") (A') (A') (A") (A') (A') (A')
                 (A") (A') (A") (A') (A') (A') (A') (A") (A') (A")
                 (A') (A') (A') (A') (A") (A') (A") (A') (A') (A')
                 (A') (A') (A") (A') (A') (A") (A') (A') (A") (A')
                 (A') (A') (A") (A") (A') (A') (A") (A') (A") (A')
                 (A') (A") (A') (A') (A") (A") (A') (A') (A') (A')
                 (A') (A") (A") (A') (A') (A') (A") (A') (A') (A")
                 (A') (A") (A') (A") (A') (A') (A') (A") (A') (A")
                 (A') (A') (A') (A') (A") (A") (A') (A") (A') (A')
                 (A') (A") (A") (A') (A') (A') (A') (A') (A') (A')
                 (A") (A") (A') (A") (A') (A") (A') (A') (A") (A')
                 (A') (A') (A") (A') (A') (A') (A") (A') (A") (A")
                 (A') (A") (A') (A') (A") (A') (A") (A") (A') (A")
                 (A') (A') (A') (A") (A") (A') (A") (A') (A') (A')
                 (A") (A') (A') (A') (A") (A") (A') (A') (A') (A')
                 (A") (A') (A") (A') (A') (A") (A') (A") (A') (A")
                 (A') (A') (A') (A") (A') (A") (A') (A') (A") (A')
                 (A') (A") (A') (A") (A') (A") (A') (A') (A") (A')
                 (A') (A") (A') (A") (A') (A') (A') (A") (A') (A")
                 (A") (A') (A") (A') (A") (A') (A') (A") (A') (A")
                 (A') (A') (A') (A") (A') (A') (A') (A") (A') (A")
                 (A') (A') (A') (A') (A') (A') (A')
 The electronic state is 1-A'.
 Alpha  occ. eigenvalues --  -19.14169 -10.28054 -10.22289 -10.18507 -10.17358
 Alpha  occ. eigenvalues --   -1.07329  -0.81693  -0.73814  -0.61738  -0.53859
 Alpha  occ. eigenvalues --   -0.50723  -0.48188  -0.47928  -0.44396  -0.39498
 Alpha  occ. eigenvalues --   -0.29798  -0.28895  -0.27443
 Alpha virt. eigenvalues --   -0.04704  -0.01754   0.00599   0.00731   0.01996
 Alpha virt. eigenvalues --    0.02456   0.03574   0.04019   0.06873   0.08144
 Alpha virt. eigenvalues --    0.08377   0.08535   0.08643   0.10810   0.11294
 Alpha virt. eigenvalues --    0.11866   0.12990   0.13758   0.13925   0.15255
 Alpha virt. eigenvalues --    0.16978   0.18291   0.19529   0.20694   0.20800
 Alpha virt. eigenvalues --    0.21490   0.25250   0.25927   0.26522   0.29032
 Alpha virt. eigenvalues --    0.30402   0.31320   0.32393   0.32980   0.35228
 Alpha virt. eigenvalues --    0.37680   0.38590   0.39233   0.40212   0.42867
 Alpha virt. eigenvalues --    0.43359   0.44083   0.44265   0.49960   0.51054
 Alpha virt. eigenvalues --    0.51941   0.52064   0.53971   0.54546   0.56167
 Alpha virt. eigenvalues --    0.57625   0.59793   0.60178   0.60749   0.62382
 Alpha virt. eigenvalues --    0.65596   0.66412   0.67956   0.71739   0.74276
 Alpha virt. eigenvalues --    0.75776   0.79290   0.84272   0.85059   0.86456
 Alpha virt. eigenvalues --    0.89092   0.90170   0.93568   0.99725   1.00176
 Alpha virt. eigenvalues --    1.02947   1.05454   1.05732   1.08872   1.10463
 Alpha virt. eigenvalues --    1.12339   1.13557   1.13840   1.15066   1.19386
 Alpha virt. eigenvalues --    1.19913   1.20495   1.24917   1.29681   1.31989
 Alpha virt. eigenvalues --    1.32501   1.33360   1.36304   1.40139   1.42687
 Alpha virt. eigenvalues --    1.46517   1.47705   1.50914   1.51774   1.53388
 Alpha virt. eigenvalues --    1.58288   1.59099   1.63324   1.68524   1.75138
 Alpha virt. eigenvalues --    1.76437   1.78230   1.82625   1.82733   1.88522
 Alpha virt. eigenvalues --    1.94502   1.95934   2.06295   2.08146   2.19469
 Alpha virt. eigenvalues --    2.23734   2.27562   2.44253   2.50136   2.56384
 Alpha virt. eigenvalues --    2.62489   2.63135   2.63625   2.64456   2.70901
 Alpha virt. eigenvalues --    2.71248   2.73457   2.75553   2.79336   2.82306
 Alpha virt. eigenvalues --    2.84698   2.87664   2.92286   2.93536   2.96357
 Alpha virt. eigenvalues --    3.01706   3.02534   3.06446   3.06620   3.08475
 Alpha virt. eigenvalues --    3.11687   3.14036   3.19055   3.23799   3.24349
 Alpha virt. eigenvalues --    3.30886   3.31202   3.38971   3.49535   3.52003
 Alpha virt. eigenvalues --    3.57319   3.60795   3.66130   3.71185   3.82617
 Alpha virt. eigenvalues --    3.83271   3.90096   3.94181   3.97573   4.00375
 Alpha virt. eigenvalues --    4.04743   4.13206   4.16751   4.19838   4.27117
 Alpha virt. eigenvalues --    4.31648   4.35707   4.38009   4.47867   4.50433
 Alpha virt. eigenvalues --    4.54843   4.60147   4.66603   4.67040   4.80879
 Alpha virt. eigenvalues --    5.03989   5.06817   5.17146   5.22287   5.44605
 Alpha virt. eigenvalues --    5.48658   5.51088   5.57201   5.64982   5.68512
 Alpha virt. eigenvalues --    5.84221   5.90429   5.99381   6.31058   6.34817
 Alpha virt. eigenvalues --    6.44406   6.58527   6.96930   6.99176   7.02791
 Alpha virt. eigenvalues --    7.10929   7.12031   7.17129   7.23148   7.35195
 Alpha virt. eigenvalues --    7.39286   7.42986   7.43303   7.64061   7.65233
 Alpha virt. eigenvalues --    7.72953   7.90653   8.12795   8.16519   8.29263
 Alpha virt. eigenvalues --    8.53007   8.57238  14.33795  14.36944  14.66511
 Alpha virt. eigenvalues --   14.78480  14.96946  23.94715  24.72214  24.97690
 Alpha virt. eigenvalues --   27.05391  50.43750
          Condensed to atoms (all electrons):
               1          2          3          4          5          6
     1  C   10.160989  -0.089518   0.042544  -2.685541  -1.955101   0.175678
     2  C   -0.089518   5.726233   0.190994  -0.267820  -0.069151  -0.002099
     3  O    0.042544   0.190994   8.491073  -0.130105   0.061334   0.000264
     4  C   -2.685541  -0.267820  -0.130105   8.249810   0.370809   0.039711
     5  C   -1.955101  -0.069151   0.061334   0.370809   8.013008   0.118607
     6  H    0.175678  -0.002099   0.000264   0.039711   0.118607   0.354746
     7  H   -0.003000   0.483919  -0.084623  -0.241050   0.021289   0.000336
     8  H    0.007849  -0.040859  -0.000533   0.455702  -0.064981  -0.000278
     9  H    0.007849  -0.040859  -0.000533   0.455702  -0.064981  -0.000278
               7          8          9
     1  C   -0.003000   0.007849   0.007849
     2  C    0.483919  -0.040859  -0.040859
     3  O   -0.084623  -0.000533  -0.000533
     4  C   -0.241050   0.455702   0.455702
     5  C    0.021289  -0.064981  -0.064981
     6  H    0.000336  -0.000278  -0.000278
     7  H    0.686745  -0.000147  -0.000147
     8  H   -0.000147   0.503808  -0.036092
     9  H   -0.000147  -0.036092   0.503808
 Mulliken charges:
               1
     1  C    0.338252
     2  C    0.109160
     3  O   -0.570415
     4  C   -0.247218
     5  C   -0.430833
     6  H    0.313312
     7  H    0.136679
     8  H    0.175531
     9  H    0.175531
 Sum of Mulliken charges =  -0.00000
 Mulliken charges with hydrogens summed into heavy atoms:
               1
     1  C    0.651564
     2  C    0.245840
     3  O   -0.570415
     4  C    0.103844
     5  C   -0.430833
 APT charges:
               1
     1  C   -0.296101
     2  C    0.779459
     3  O   -0.608074
     4  C    0.021991
     5  C   -0.051549
     6  H    0.217675
     7  H   -0.089071
     8  H    0.012835
     9  H    0.012835
 Sum of APT charges =  -0.00000
 APT charges with hydrogens summed into heavy atoms:
               1
     1  C   -0.078426
     2  C    0.690388
     3  O   -0.608074
     4  C    0.047660
     5  C   -0.051549
 Electronic spatial extent (au):  <R**2>=            432.0961
 Charge=             -0.0000 electrons
 Dipole moment (field-independent basis, Debye):
    X=             -0.4346    Y=              2.7294    Z=             -0.0000  Tot=              2.7638
 Quadrupole moment (field-independent basis, Debye-Ang):
   XX=            -28.4071   YY=            -28.8063   ZZ=            -29.3948
   XY=              6.2850   XZ=              0.0000   YZ=             -0.0000
 Traceless Quadrupole moment (field-independent basis, Debye-Ang):
   XX=              0.4623   YY=              0.0631   ZZ=             -0.5254
   XY=              6.2850   XZ=              0.0000   YZ=             -0.0000
 Octapole moment (field-independent basis, Debye-Ang**2):
  XXX=             -4.3802  YYY=              1.1102  ZZZ=             -0.0000  XYY=             -3.0068
  XXY=             -5.2389  XXZ=             -0.0000  XZZ=              5.5860  YZZ=              1.2753
  YYZ=             -0.0000  XYZ=              0.0000
 Hexadecapole moment (field-independent basis, Debye-Ang**3):
 XXXX=           -372.9490 YYYY=           -135.9030 ZZZZ=            -38.1299 XXXY=             31.7498
 XXXZ=             -0.0000 YYYX=             -7.2175 YYYZ=             -0.0000 ZZZX=             -0.0000
 ZZZY=             -0.0000 XXYY=            -83.6658 XXZZ=            -79.7832 YYZZ=            -27.2224
 XXYZ=             -0.0000 YYXZ=              0.0000 ZZXY=             -6.1260
 N-N= 1.415526867920D+02 E-N=-8.199053909098D+02  KE= 2.290660065927D+02
 Symmetry A'   KE= 2.210252989848D+02
 Symmetry A"   KE= 8.040707607910D+00
  Exact polarizability:  62.855   9.098  53.294   0.000   0.000  35.447
 Approx polarizability:  85.870  17.588  85.751   0.000  -0.000  50.958
 No NMR shielding tensors so no spin-rotation constants.
 Leave Link  601 at Sun Mar  3 15:42:09 2019, MaxMem=    33554432 cpu:         2.0
 (Enter /home/proyectos/fulerenos/M3C-v2.0/M3C-deps_CCC/g09-AM64L-G09RevC.01/l701.exe)
 Compute integral second derivatives.
 ... and contract with generalized density number  0.
 Leave Link  701 at Sun Mar  3 15:42:10 2019, MaxMem=    33554432 cpu:         2.2
 (Enter /home/proyectos/fulerenos/M3C-v2.0/M3C-deps_CCC/g09-AM64L-G09RevC.01/l702.exe)
 L702 exits ... SP integral derivatives will be done elsewhere.
 Leave Link  702 at Sun Mar  3 15:42:10 2019, MaxMem=    33554432 cpu:         0.1
 (Enter /home/proyectos/fulerenos/M3C-v2.0/M3C-deps_CCC/g09-AM64L-G09RevC.01/l703.exe)
 Compute integral second derivatives, UseDBF=F ICtDFT=           0.
 Integral derivatives from FoFJK, PRISM(SPDF).
 Calling FoFJK, ICntrl=    100127 FMM=F ISym2X=1 I1Cent= 0 IOpClX= 0 NMat=1 NMatS=1 NMatT=0.
 FoFJK:  IHMeth= 1 ICntrl=  100127 DoSepK=F KAlg= 0 I1Cent=   0 FoldK=F
 IRaf=         0 NMat=   1 IRICut=       1 DoRegI=T DoRafI=F ISym2E= 1.
 FoFCou: FMM=F IPFlag=           0 FMFlag=      100000 FMFlg1=         800
         NFxFlg=           0 DoJE=F BraDBF=F KetDBF=F FulRan=T
         wScrn=  0.000000 ICntrl=  100127 IOpCl=  0 I1Cent=           0 NGrid=           0
         NMat0=    1 NMatS0=      1 NMatT0=    0 NMatD0=    1 NMtDS0=    0 NMtDT0=    0
 Petite list used in FoFCou.
 Leave Link  703 at Sun Mar  3 15:45:56 2019, MaxMem=    33554432 cpu:       902.1
 (Enter /home/proyectos/fulerenos/M3C-v2.0/M3C-deps_CCC/g09-AM64L-G09RevC.01/l716.exe)
 Dipole        =-1.71002622D-01 1.07381737D+00 1.63400109D-15
 Polarizability= 6.28549244D+01 9.09848443D+00 5.32937153D+01
                 7.86472925D-08 5.37748878D-08 3.54470099D+01
 Full mass-weighted force constant matrix:
 Low frequencies ---  -14.4223   -9.0987   -0.0008   -0.0008   -0.0005    4.0092
 Low frequencies ---  142.6944  148.6493  327.4227
 Diagonal vibrational polarizability:
       11.3374276       4.5136016      12.0566266
 Harmonic frequencies (cm**-1), IR intensities (KM/Mole), Raman scattering
 activities (A**4/AMU), depolarization ratios for plane and unpolarized
 incident light, reduced masses (AMU), force constants (mDyne/A),
 and normal coordinates:
                      1                      2                      3
                     A"                     A'                     A"
 Frequencies --    142.6925               148.6492               327.4221
 Red. masses --      2.0457                 5.3757                 2.4387
 Frc consts  --      0.0245                 0.0700                 0.1540
 IR Inten    --      5.0191                 5.9547                11.2901
  Atom  AN      X      Y      Z        X      Y      Z        X      Y      Z
     1   6    -0.00   0.00   0.09    -0.35   0.21  -0.00     0.00  -0.00  -0.15
     2   6     0.00   0.00   0.22     0.07   0.02  -0.00    -0.00  -0.00   0.00
     3   8     0.00   0.00  -0.14     0.34   0.06   0.00     0.00  -0.00  -0.02
     4   6    -0.00  -0.00  -0.10    -0.04  -0.19   0.00    -0.00  -0.00  -0.04
     5   6    -0.00  -0.00  -0.05    -0.08  -0.15   0.00    -0.00   0.00   0.32
     6   1    -0.00   0.00   0.20    -0.55   0.47  -0.00     0.00  -0.00  -0.45
     7   1    -0.00   0.00   0.75    -0.08   0.21  -0.00    -0.00   0.00  -0.04
     8   1    -0.14   0.23  -0.28    -0.08  -0.18  -0.01     0.10   0.43  -0.37
     9   1     0.14  -0.23  -0.28    -0.08  -0.18   0.01    -0.10  -0.43  -0.37
                      4                      5                      6
                     A'                     A"                     A'
 Frequencies --    376.0837               685.9172               690.2460
 Red. masses --      6.8206                 1.2662                 1.2702
 Frc consts  --      0.5684                 0.3510                 0.3566
 IR Inten    --      4.6659                45.0902                43.4465
  Atom  AN      X      Y      Z        X      Y      Z        X      Y      Z
     1   6     0.05  -0.14   0.00     0.00  -0.00  -0.14     0.09  -0.11   0.00
     2   6    -0.05  -0.16   0.00    -0.00   0.00  -0.00    -0.01   0.00   0.00
     3   8     0.30  -0.10  -0.00    -0.00   0.00   0.00    -0.00   0.00  -0.00
     4   6    -0.07   0.02  -0.00     0.00  -0.00   0.00     0.00  -0.00   0.00
     5   6    -0.38   0.44  -0.00    -0.00   0.00   0.05    -0.03   0.04  -0.00
     6   1     0.34  -0.52   0.00    -0.00   0.00   0.99    -0.60   0.79  -0.00
     7   1    -0.19   0.03   0.00    -0.00   0.00   0.03    -0.02   0.01  -0.00
     8   1     0.20   0.04  -0.01     0.02  -0.02   0.02     0.01   0.00  -0.00
     9   1     0.20   0.04   0.01    -0.02   0.02   0.02     0.01   0.00   0.00
                      7                      8                      9
                     A"                     A'                     A'
 Frequencies --    711.4869               736.3134               828.3178
 Red. masses --      1.3899                 6.4282                 3.9724
 Frc consts  --      0.4145                 2.0534                 1.6058
 IR Inten    --      0.0458                33.0926                12.9220
  Atom  AN      X      Y      Z        X      Y      Z        X      Y      Z
     1   6     0.00  -0.00  -0.00    -0.18  -0.17   0.00    -0.10  -0.07  -0.00
     2   6    -0.00  -0.00  -0.05     0.43   0.16   0.00     0.22  -0.07  -0.00
     3   8     0.00  -0.00   0.03    -0.20   0.10  -0.00     0.07  -0.13   0.00
     4   6    -0.00   0.00  -0.15     0.23  -0.14  -0.00    -0.15   0.38   0.00
     5   6    -0.00   0.00   0.09    -0.28   0.06   0.00    -0.02  -0.11  -0.00
     6   1    -0.00   0.00  -0.12    -0.12  -0.27  -0.00    -0.18   0.03   0.00
     7   1    -0.00   0.00   0.62     0.61  -0.05   0.00     0.41  -0.31  -0.00
     8   1     0.26  -0.42   0.19     0.16  -0.08  -0.04    -0.35   0.31   0.04
     9   1    -0.26   0.42   0.19     0.16  -0.08   0.04    -0.35   0.31  -0.04
                     10                     11                     12
                     A'                     A"                     A"
 Frequencies --   1016.1309              1047.3232              1235.0797
 Red. masses --      2.4215                 1.7264                 1.1691
 Frc consts  --      1.4731                 1.1157                 1.0508
 IR Inten    --     12.2656                 0.0442                 0.1655
  Atom  AN      X      Y      Z        X      Y      Z        X      Y      Z
     1   6    -0.13  -0.09   0.00     0.00  -0.00   0.01    -0.00   0.00   0.00
     2   6    -0.15  -0.01   0.00     0.00   0.00  -0.18    -0.00   0.00   0.11
     3   8     0.03   0.02  -0.00    -0.00   0.00   0.04     0.00   0.00  -0.02
     4   6     0.20   0.17  -0.00     0.00  -0.00   0.15     0.00  -0.00  -0.01
     5   6    -0.03  -0.11  -0.00    -0.00   0.00  -0.08     0.00  -0.00  -0.05
     6   1    -0.16  -0.09  -0.00    -0.00   0.00   0.04     0.00  -0.00   0.02
     7   1    -0.17   0.02  -0.00    -0.00   0.00   0.71     0.00  -0.00  -0.28
     8   1     0.61   0.17   0.01     0.27   0.35  -0.13     0.67   0.05  -0.03
     9   1     0.61   0.17  -0.01    -0.27  -0.35  -0.13    -0.67  -0.05  -0.03
                     13                     14                     15
                     A'                     A'                     A'
 Frequencies --   1322.9528              1414.8372              1437.2483
 Red. masses --      1.6767                 1.1420                 1.1392
 Frc consts  --      1.7290                 1.3468                 1.3865
 IR Inten    --     26.0608                12.7647                18.3230
  Atom  AN      X      Y      Z        X      Y      Z        X      Y      Z
     1   6    -0.02  -0.02   0.00    -0.01  -0.00  -0.00     0.01   0.01  -0.00
     2   6    -0.10   0.00  -0.00     0.07  -0.00   0.00    -0.01   0.01   0.00
     3   8     0.03  -0.00   0.00    -0.02  -0.07  -0.00     0.01   0.02  -0.00
     4   6     0.22  -0.00   0.00     0.02  -0.00  -0.00    -0.06  -0.08  -0.00
     5   6    -0.02   0.02  -0.00     0.00  -0.01  -0.00     0.01  -0.01  -0.00
     6   1    -0.02  -0.04   0.00    -0.01  -0.00  -0.00     0.01   0.01   0.00
     7   1     0.05  -0.21   0.00    -0.52   0.72  -0.00     0.23  -0.29  -0.00
     8   1    -0.64   0.16  -0.13    -0.07   0.25  -0.18     0.15   0.48  -0.41
     9   1    -0.64   0.16   0.13    -0.07   0.25   0.18     0.15   0.48   0.41
                     16                     17                     18
                     A'                     A'                     A'
 Frequencies --   1827.9513              2230.3818              2873.8761
 Red. masses --     10.0595                 5.9088                 1.0832
 Frc consts  --     19.8041                17.3184                 5.2712
 IR Inten    --    165.4728                 1.9285               127.8069
  Atom  AN      X      Y      Z        X      Y      Z        X      Y      Z
     1   6     0.01   0.01  -0.00    -0.31  -0.23   0.00    -0.00  -0.00   0.00
     2   6    -0.14   0.69  -0.00    -0.01   0.01  -0.00    -0.07  -0.05  -0.00
     3   8     0.07  -0.48   0.00     0.00  -0.01   0.00     0.00  -0.00  -0.00
     4   6    -0.01  -0.03   0.00    -0.06  -0.05   0.00     0.00   0.00  -0.00
     5   6    -0.02   0.00   0.00     0.43   0.32  -0.00     0.00   0.00   0.00
     6   1     0.02   0.01   0.00    -0.59  -0.45  -0.00    -0.00  -0.00  -0.00
     7   1     0.41  -0.04  -0.00     0.00  -0.03  -0.00     0.77   0.62   0.00
     8   1     0.16  -0.11   0.09    -0.03  -0.03  -0.00    -0.01  -0.03  -0.05
     9   1     0.16  -0.11  -0.09    -0.03  -0.03   0.00    -0.01  -0.03   0.05
                     19                     20                     21
                     A'                     A"                     A'
 Frequencies --   2998.0661              3018.3985              3463.3923
 Red. masses --      1.0602                 1.0977                 1.1633
 Frc consts  --      5.6146                 5.8922                 8.2215
 IR Inten    --     24.1820                 1.1194                64.6144
  Atom  AN      X      Y      Z        X      Y      Z        X      Y      Z
     1   6     0.00   0.00   0.00    -0.00  -0.00  -0.00    -0.09  -0.07   0.00
     2   6    -0.00  -0.01   0.00     0.00   0.00  -0.00    -0.00   0.00   0.00
     3   8    -0.00   0.00  -0.00    -0.00   0.00  -0.00     0.00  -0.00  -0.00
     4   6     0.00  -0.07  -0.00    -0.00   0.00  -0.09    -0.00  -0.00   0.00
     5   6    -0.00  -0.00   0.00     0.00   0.00  -0.00     0.03   0.02  -0.00
     6   1     0.00   0.00  -0.00     0.00  -0.00  -0.00     0.79   0.60   0.00
     7   1     0.06   0.04  -0.00    -0.00  -0.00   0.00     0.00   0.00   0.00
     8   1    -0.01   0.41   0.57    -0.01   0.44   0.55    -0.00  -0.00  -0.00
     9   1    -0.01   0.41  -0.57     0.01  -0.44   0.55    -0.00  -0.00   0.00

 -------------------
 - Thermochemistry -
 -------------------
 Temperature   298.150 Kelvin.  Pressure   1.00000 Atm.
 Atom     1 has atomic number  6 and mass  12.00000
 Atom     2 has atomic number  6 and mass  12.00000
 Atom     3 has atomic number  8 and mass  15.99491
 Atom     4 has atomic number  6 and mass  12.00000
 Atom     5 has atomic number  6 and mass  12.00000
 Atom     6 has atomic number  1 and mass   1.00783
 Atom     7 has atomic number  1 and mass   1.00783
 Atom     8 has atomic number  1 and mass   1.00783
 Atom     9 has atomic number  1 and mass   1.00783
 Molecular mass:    68.02621 amu.
 Principal axes and moments of inertia in atomic units:
                           1         2         3
     Eigenvalues --   141.11303 517.44477 647.66803
           X            0.99969  -0.02492   0.00000
           Y            0.02492   0.99969   0.00000
           Z            0.00000  -0.00000   1.00000
 This molecule is an asymmetric top.
 Rotational symmetry number  1.
 Rotational temperatures (Kelvin)      0.61379     0.16739     0.13373
 Rotational constants (GHZ):          12.78933     3.48779     2.78652
 Zero-point vibrational energy     170663.8 (Joules/Mol)
                                   40.78964 (Kcal/Mol)
 Warning -- explicit consideration of   4 degrees of freedom as
           vibrations may cause significant error
 Vibrational temperatures:    205.30   213.87   471.09   541.10   986.88
          (Kelvin)            993.11  1023.67  1059.39  1191.76  1461.98
                             1506.86  1777.00  1903.43  2035.63  2067.88
                             2630.01  3209.02  4134.86  4313.54  4342.80
                             4983.04
 
 Zero-point correction=                           0.065002 (Hartree/Particle)
 Thermal correction to Energy=                    0.070475
 Thermal correction to Enthalpy=                  0.071419
 Thermal correction to Gibbs Free Energy=         0.036562
 Sum of electronic and zero-point Energies=           -229.987876
 Sum of electronic and thermal Energies=              -229.982404
 Sum of electronic and thermal Enthalpies=            -229.981460
 Sum of electronic and thermal Free Energies=         -230.016316
 
                     E (Thermal)             CV                S
                      KCal/Mol        Cal/Mol-Kelvin    Cal/Mol-Kelvin
 Total                   44.224             18.027             73.362
 Electronic               0.000              0.000              0.000
 Translational            0.889              2.981             38.570
 Rotational               0.889              2.981             25.362
 Vibrational             42.446             12.065              9.431
 Vibration     1          0.616              1.911              2.767
 Vibration     2          0.618              1.904              2.689
 Vibration     3          0.711              1.621              1.273
 Vibration     4          0.747              1.521              1.055
                       Q            Log10(Q)             Ln(Q)
 Total Bot       0.152270D-16        -16.817385        -38.723459
 Total V=0       0.120668D+14         13.081592         30.121478
 Vib (Bot)       0.886967D-29        -29.052093        -66.894915
 Vib (Bot)    1  0.142395D+01          0.153494          0.353434
 Vib (Bot)    2  0.136461D+01          0.135007          0.310866
 Vib (Bot)    3  0.571561D+00         -0.242938         -0.559384
 Vib (Bot)    4  0.482071D+00         -0.316889         -0.729664
 Vib (V=0)       0.702885D+01          0.846884          1.950022
 Vib (V=0)    1  0.200918D+01          0.303019          0.697728
 Vib (V=0)    2  0.195332D+01          0.290774          0.669533
 Vib (V=0)    3  0.125940D+01          0.100162          0.230632
 Vib (V=0)    4  0.119454D+01          0.077202          0.177765
 Electronic      0.100000D+01          0.000000          0.000000
 Translational   0.220531D+08          7.343470         16.908964
 Rotational      0.778463D+05          4.891238         11.262492
 
                                                              b3lyp opt
                                                             IR Spectrum
 
     3                32   2                       2             1              11  1  1      11                                     
     4                09   8                       2             8              44  3  2      00      8 7766           33     11     
     6                19   7                       3             2              31  2  3      41      2 3198           72     44     
     3                88   4                       0             8              75  3  5      76      8 6106           67     93     
 
     X                XX   X                       X             X              XX  X  X       X      X X XX           XX     XX     
     X                 X   X                                     X              XX  X                 X X XX                         
     X                 X   X                                     X                  X                   X XX                         
     X                     X                                     X                                      X XX                         
     X                     X                                     X                                        XX                         
     X                     X                                     X                                                                   
     X                     X                                     X                                                                   
     X                     X                                     X                                                                   
                           X                                     X                                                                   
                           X                                     X                                                                   
                           X                                     X                                                                   
                           X                                     X                                                                   
                           X                                     X                                                                   
                           X                                     X                                                                   
                           X                                     X                                                                   
                                                                 X                                                                   
                                                                 X                                                                   
                                                                 X                                                                   
                                                                 X                                                                   
                                                                 X                                                                   
 
 ***** Axes restored to original set *****
 -------------------------------------------------------------------
 Center     Atomic                   Forces (Hartrees/Bohr)
 Number     Number              X              Y              Z
 -------------------------------------------------------------------
      1        6          -0.000007423    0.000009656    0.000002408
      2        6           0.000041016    0.000076200   -0.000000142
      3        8          -0.000023396   -0.000053639   -0.000000953
      4        6           0.000042997    0.000002100   -0.000008053
      5        6          -0.000010007    0.000001977    0.000002125
      6        1           0.000001601   -0.000006095   -0.000000927
      7        1          -0.000014700   -0.000019538    0.000000841
      8        1          -0.000014450   -0.000005644    0.000005439
      9        1          -0.000015638   -0.000005017   -0.000000738
 -------------------------------------------------------------------
 Cartesian Forces:  Max     0.000076200 RMS     0.000022993
 Z-matrix is all fixed cartesians, so copy forces.
 Force constants in Cartesian coordinates: 
                1             2             3             4             5 
      1  0.143449D+01
      2  0.254383D+00  0.952934D-01
      3 -0.240639D+00 -0.441272D-01  0.900654D-01
      4  0.266428D-02 -0.654184D-03 -0.500442D-03  0.585114D+00
      5 -0.106105D-01 -0.608984D-02  0.137964D-02  0.190938D+00  0.899603D+00
      6 -0.151215D-02 -0.534401D-03  0.643305D-03 -0.539003D-01  0.339955D-01
      7  0.147857D-02  0.194163D-02 -0.481151D-04 -0.182882D+00 -0.217517D+00
      8  0.427545D-02  0.243347D-02 -0.595179D-03 -0.216346D+00 -0.710796D+00
      9  0.189035D-03 -0.146516D-03  0.150767D-03  0.103104D-02 -0.239925D-01
     10 -0.837856D-02 -0.494416D-02  0.220600D-02 -0.131852D+00  0.271010D-01
     11 -0.773807D-03  0.580976D-02  0.158916D-03  0.406694D-01 -0.102559D+00
     12  0.262977D-02  0.960641D-03  0.530186D-02  0.137423D-01 -0.731279D-02
     13 -0.103586D+01 -0.182081D+00  0.174449D+00 -0.370285D-01  0.125183D-01
     14 -0.180539D+00 -0.629782D-01  0.315786D-01  0.290932D-01  0.179264D-01
     15  0.174605D+00  0.318751D-01 -0.625139D-01  0.100419D-01 -0.567612D-03
     16 -0.391482D+00 -0.691433D-01  0.639301D-01 -0.105355D-03  0.480124D-03
     17 -0.693958D-01 -0.359385D-01  0.119640D-01 -0.129528D-02 -0.412076D-03
     18  0.639045D-01  0.119154D-01 -0.334623D-01 -0.764955D-04 -0.152605D-03
     19 -0.832088D-03 -0.295142D-03  0.105263D-03 -0.250579D+00 -0.166830D-01
     20  0.139688D-02  0.598228D-03 -0.194691D-03 -0.234493D-01 -0.582285D-01
     21  0.277197D-03  0.130589D-03 -0.168554D-03  0.342131D-01  0.340931D-02
     22 -0.157037D-02  0.516917D-03 -0.819812D-03  0.436898D-02  0.831075D-02
     23  0.835514D-03  0.413471D-03  0.766025D-04 -0.498726D-02 -0.220194D-01
     24 -0.132548D-02 -0.315860D-04  0.547303D-03 -0.104199D-02 -0.477728D-02
     25 -0.503893D-03  0.276020D-03  0.131755D-02  0.103001D-01  0.546250D-02
     26  0.428003D-03  0.458241D-03 -0.240654D-03 -0.139681D-01 -0.174239D-01
     27  0.187104D-02 -0.419991D-04 -0.563942D-03 -0.350908D-02 -0.198168D-02
                6             7             8             9            10 
      6  0.217632D+00
      7  0.912073D-03  0.165126D+00
      8 -0.242176D-01  0.246540D+00  0.798038D+00
      9 -0.658011D-01 -0.250696D-02  0.314841D-01  0.254525D-01
     10  0.123635D-01  0.254961D-01 -0.148027D-02 -0.375702D-03  0.526342D+00
     11 -0.992125D-02  0.106685D-01 -0.602252D-01 -0.106424D-01  0.558721D-01
     12 -0.852501D-01  0.858794D-03 -0.830688D-02  0.233150D-01 -0.211171D-03
     13  0.835767D-02  0.228274D-02 -0.751648D-02 -0.142891D-02 -0.262345D+00
     14 -0.375403D-02 -0.325123D-02 -0.111949D-02  0.630881D-03 -0.360844D-01
     15 -0.215915D-02 -0.995501D-03  0.145085D-02 -0.838275D-03  0.339072D-01
     16  0.103912D-03  0.682045D-04 -0.168470D-03 -0.347410D-04  0.960371D-03
     17  0.188706D-03  0.165391D-03 -0.245285D-03 -0.543359D-04 -0.876472D-03
     18  0.180585D-03  0.000000D+00  0.984685D-05 -0.223037D-04  0.788512D-03
     19  0.349006D-01 -0.878958D-02 -0.301973D-01  0.244568D-02 -0.158371D-01
     20  0.471009D-02 -0.474433D-01 -0.235006D-01  0.471120D-02  0.231779D-01
     21 -0.664482D-01  0.693239D-03  0.139578D-02  0.199022D-01  0.842183D-02
     22 -0.162603D-01 -0.928507D-03  0.196921D-02  0.309998D-02 -0.483073D-01
     23  0.232417D-01  0.386240D-02 -0.185938D-02 -0.423081D-02 -0.147739D-01
     24  0.586476D-02  0.114201D-04 -0.154377D-02 -0.197352D-02  0.209695D-01
     25  0.150350D-01 -0.185103D-02  0.292383D-02 -0.241941D-02 -0.860793D-01
     26 -0.237088D-01  0.503321D-02 -0.272507D-02  0.224035D-02 -0.479918D-01
     27 -0.466179D-02  0.107587D-02  0.322787D-03 -0.185292D-03 -0.780697D-01
               11            12            13            14            15 
     11  0.450410D+00
     12 -0.153444D-01  0.494193D+00
     13 -0.413564D-01  0.333715D-01  0.135776D+01
     14 -0.762476D-01  0.598667D-02  0.224982D+00  0.130090D+00
     15  0.700018D-02 -0.727023D-01 -0.221066D+00 -0.390671D-01  0.127440D+00
     16 -0.105187D-02  0.770688D-03  0.520078D-02  0.342501D-03 -0.498516D-03
     17  0.540966D-02  0.156749D-03  0.705914D-03  0.297634D-02 -0.798456D-04
     18  0.190468D-03  0.539304D-02 -0.461588D-03 -0.998172D-05  0.251432D-02
     19 -0.417020D-02  0.564287D-02  0.272310D-03  0.334964D-02  0.748196D-03
     20  0.601404D-02 -0.544206D-02  0.192314D-02 -0.461626D-02 -0.108203D-02
     21 -0.184553D-03  0.140820D-01  0.603244D-03 -0.135626D-02  0.213991D-02
     22 -0.141854D-01  0.209890D-01 -0.951950D-02 -0.219460D-01  0.268723D-01
     23 -0.136683D+00  0.126866D+00 -0.447935D-02 -0.305704D-02  0.290625D-02
     24  0.122017D+00 -0.188675D+00  0.600280D-02  0.130145D-02 -0.251806D-02
     25 -0.456724D-01 -0.777938D-01 -0.207583D-01 -0.159465D-01 -0.236145D-01
     26 -0.919286D-01 -0.975640D-01 -0.469602D-02 -0.297370D-02 -0.243575D-02
     27 -0.932740D-01 -0.195657D+00  0.173178D-03  0.468976D-02  0.863737D-02
               16            17            18            19            20 
     16  0.385252D+00
     17  0.696683D-01  0.277434D-01
     18 -0.641893D-01 -0.120508D-01  0.256476D-01
     19  0.135830D-03 -0.175189D-03 -0.685602D-04  0.275908D+00
     20 -0.483362D-04  0.213599D-03  0.440244D-04  0.468792D-01  0.772180D-01
     21 -0.556703D-04  0.684109D-04 -0.110549D-03 -0.440316D-01 -0.341033D-02
     22 -0.195214D-03  0.717538D-03 -0.869364D-03 -0.578528D-04 -0.125786D-02
     23 -0.487161D-04  0.120418D-03 -0.301166D-04  0.172675D-03  0.139922D-02
     24  0.602340D-05  0.100352D-05  0.116140D-03 -0.788169D-03  0.833560D-03
     25  0.165366D-03  0.485581D-03  0.973159D-03 -0.220646D-03 -0.117835D-02
     26 -0.301863D-04  0.132489D-03  0.837743D-04  0.111937D-02  0.902278D-03
     27 -0.325004D-04 -0.193807D-03 -0.256511D-03  0.104567D-02 -0.169762D-03
               21            22            23            24            25 
     21  0.302072D-01
     22  0.121624D-02  0.554270D-01
     23 -0.293982D-02  0.183417D-01  0.151856D+00
     24 -0.131878D-03 -0.248863D-01 -0.134359D+00  0.208771D+00
     25 -0.133758D-02  0.782753D-03  0.107696D-02  0.105226D-02  0.981650D-01
     26  0.288688D-02  0.753318D-02  0.982934D-02  0.165584D-01  0.525724D-01
     27  0.527852D-03 -0.934176D-02 -0.115311D-01 -0.220004D-01  0.867873D-01
               26            27 
     26  0.103729D+00
     27  0.102180D+00  0.214160D+00
 Leave Link  716 at Sun Mar  3 15:45:56 2019, MaxMem=    33554432 cpu:         0.2
 (Enter /home/proyectos/fulerenos/M3C-v2.0/M3C-deps_CCC/g09-AM64L-G09RevC.01/l103.exe)

 GradGradGradGradGradGradGradGradGradGradGradGradGradGradGradGradGradGrad
 Berny optimization.
 Search for a local minimum.
 Step number   1 out of a maximum of    2
 All quantities printed in internal units (Hartrees-Bohrs-Radians)
 Second derivative matrix not updated -- analytic derivatives used.
 ITU=  0
     Eigenvalues ---    0.00188   0.00463   0.01139   0.03259   0.03522
     Eigenvalues ---    0.05214   0.05423   0.07967   0.09605   0.10316
     Eigenvalues ---    0.14257   0.18568   0.21965   0.25086   0.39461
     Eigenvalues ---    0.60781   0.71157   0.71175   0.81846   1.72688
     Eigenvalues ---    2.63435
 Angle between quadratic step and forces=  75.82 degrees.
 ClnCor:  largest displacement from symmetrization is 2.37D-12 for atom     7.
 Linear search not attempted -- first point.
 ClnCor:  largest displacement from symmetrization is 4.45D-15 for atom     8.
 B after Tr=    -0.000017    0.000048    0.000008
         Rot=    1.000000   -0.000001    0.000001   -0.000007 Ang=  -0.00 deg.
 Variable       Old X    -DE/DX   Delta X   Delta X   Delta X     New X
                                 (Linear)    (Quad)   (Total)
    X1        4.27567  -0.00001   0.00000   0.00011   0.00011   4.27578
    Y1       -0.85397   0.00001   0.00000  -0.00005   0.00006  -0.85391
    Z1       -0.99939   0.00000   0.00000  -0.00003  -0.00002  -0.99940
    X2       -2.19519   0.00004   0.00000   0.00003   0.00000  -2.19519
    Y2        0.58328   0.00008   0.00000   0.00007   0.00009   0.58337
    Z2        0.39064  -0.00000   0.00000   0.00000   0.00001   0.39065
    X3       -1.46591  -0.00002   0.00000  -0.00036  -0.00042  -1.46633
    Y3        2.72275  -0.00005   0.00000   0.00011   0.00014   2.72289
    Z3        0.46784  -0.00000   0.00000   0.00008   0.00009   0.46794
    X4       -0.57872   0.00004   0.00000   0.00017   0.00017  -0.57855
    Y4       -1.73226   0.00000   0.00000   0.00013   0.00017  -1.73208
    Z4       -0.15541  -0.00001   0.00000  -0.00002  -0.00002  -0.15542
    X5        2.08095  -0.00001   0.00000   0.00010   0.00011   2.08106
    Y5       -1.25339   0.00000   0.00000   0.00002   0.00010  -1.25328
    Z5       -0.61805   0.00000   0.00000  -0.00002  -0.00001  -0.61806
    X6        6.21944   0.00000   0.00000   0.00020   0.00019   6.21964
    Y6       -0.48773  -0.00001   0.00000  -0.00058  -0.00045  -0.48818
    Z6       -1.33585  -0.00000   0.00000  -0.00010  -0.00008  -1.33593
    X7       -4.21003  -0.00001   0.00000   0.00006   0.00004  -4.20999
    Y7        0.11015  -0.00002   0.00000  -0.00048  -0.00050   0.10966
    Z7        0.72991   0.00000   0.00000  -0.00006  -0.00006   0.72985
    X8       -0.83218  -0.00001   0.00000  -0.00013  -0.00011  -0.83229
    Y8       -3.02609  -0.00001   0.00000   0.00016   0.00019  -3.02590
    Z8        1.44382   0.00001   0.00000   0.00000   0.00000   1.44382
    X9       -1.44968  -0.00002   0.00000  -0.00012  -0.00009  -1.44978
    Y9       -2.69970  -0.00001   0.00000   0.00015   0.00019  -2.69951
    Z9       -1.76825  -0.00000   0.00000   0.00008   0.00008  -1.76817
         Item               Value     Threshold  Converged?
 Maximum Force            0.000076     0.000450     YES
 RMS     Force            0.000023     0.000300     YES
 Maximum Displacement     0.000495     0.001800     YES
 RMS     Displacement     0.000182     0.001200     YES
 Predicted change in Energy=-1.454268D-08
 Optimization completed.
    -- Stationary point found.
 GradGradGradGradGradGradGradGradGradGradGradGradGradGradGradGradGradGrad

 Leave Link  103 at Sun Mar  3 15:45:56 2019, MaxMem=    33554432 cpu:         0.1
 (Enter /home/proyectos/fulerenos/M3C-v2.0/M3C-deps_CCC/g09-AM64L-G09RevC.01/l9999.exe)

 Test job not archived.
 1\1\GINC-FOSFORO\Freq\RB3LYP\6-311++G(3df,2p)\C4H4O1\NAGUIRRE\03-Mar-2
 019\0\\#p b3lyp/6-311++G(3df,2p) freq IOp(2/17=3) IOp(2/18=3)\\b3lyp o
 pt\\0,1\C,2.262587134,-0.451901228,-0.528852905\C,-1.161644557,0.30865
 6309,0.2067184119\O,-0.77572812,1.440816192,0.247572238\C,-0.306245289
 ,-0.916670362,-0.082237872\C,1.101193047,-0.663263368,-0.3270594559\H,
 3.291187651,-0.25809623,-0.7069016628\H,-2.2278527009,0.0582906989,0.3
 862496256\H,-0.440372963,-1.601338186,0.764036522\H,-0.7671400776,-1.4
 286185775,-0.9357164193\\Version=EM64L-G09RevE.01\State=1-A'\HF=-230.0
 528784\RMSD=5.205e-09\RMSF=2.299e-05\ZeroPoint=0.0650024\Thermal=0.070
 4747\Dipole=-0.3458715,-1.0301652,-0.0381881\DipoleDeriv=-0.4626479,0.
 0335965,0.0488021,-0.0350232,-0.1907758,0.0103683,0.0418294,-0.0028235
 ,-0.2348791,0.8772995,-0.0515397,-0.1459798,-0.2290845,1.271713,0.1585
 107,-0.1640209,0.1243788,0.1893658,-0.4711833,-0.1119304,0.0218113,0.0
 496648,-1.0416382,-0.0850549,0.0382317,-0.0539892,-0.3113999,0.0960545
 ,0.147935,0.0356709,0.2396783,-0.2176064,-0.0888581,0.0449933,-0.07122
 1,0.1875237,0.1507801,0.022469,-0.0542394,0.0746118,-0.1708749,-0.0171
 523,-0.0489409,-0.0071281,-0.1345507,0.2225194,-0.0019789,-0.0013558,-
 0.0052927,0.213659,0.0007275,-0.0016925,0.0000904,0.2168477,-0.2987751
 ,-0.0666475,0.0627494,-0.03438,-0.0190599,-0.0017147,0.0660282,0.00448
 85,0.0506206,-0.0387117,0.0234716,0.0499362,-0.0300825,0.0671919,0.044
 1649,0.071795,0.0707502,0.0100237,-0.0753355,0.0046244,-0.0173949,-0.0
 300919,0.0873912,-0.0209914,-0.0482233,-0.0645461,0.0264482\Polar=67.1
 294368,1.7308168,47.788483,-5.9148769,0.9213341,36.6777298\PG=CS [SG(C
 4H2O1),X(H2)]\NImag=0\\1.43448661,0.25438342,0.09529342,-0.24063916,-0
 .04412722,0.09006545,0.00266428,-0.00065418,-0.00050044,0.58511378,-0.
 01061051,-0.00608984,0.00137964,0.19093767,0.89960274,-0.00151215,-0.0
 0053440,0.00064331,-0.05390028,0.03399553,0.21763164,0.00147857,0.0019
 4163,-0.00004812,-0.18288228,-0.21751681,0.00091207,0.16512581,0.00427
 545,0.00243347,-0.00059518,-0.21634607,-0.71079639,-0.02421757,0.24654
 014,0.79803792,0.00018904,-0.00014652,0.00015077,0.00103104,-0.0239925
 0,-0.06580105,-0.00250696,0.03148414,0.02545251,-0.00837856,-0.0049441
 6,0.00220600,-0.13185191,0.02710096,0.01236350,0.02549608,-0.00148027,
 -0.00037570,0.52634229,-0.00077381,0.00580976,0.00015892,0.04066942,-0
 .10255903,-0.00992125,0.01066854,-0.06022522,-0.01064241,0.05587210,0.
 45040980,0.00262977,0.00096064,0.00530186,0.01374226,-0.00731279,-0.08
 525009,0.00085879,-0.00830688,0.02331501,-0.00021117,-0.01534438,0.494
 19285,-1.03586244,-0.18208116,0.17444856,-0.03702848,0.01251832,0.0083
 5767,0.00228274,-0.00751648,-0.00142891,-0.26234455,-0.04135644,0.0333
 7153,1.35775741,-0.18053917,-0.06297822,0.03157862,0.02909318,0.017926
 42,-0.00375403,-0.00325123,-0.00111949,0.00063088,-0.03608442,-0.07624
 758,0.00598667,0.22498207,0.13008953,0.17460525,0.03187506,-0.06251387
 ,0.01004192,-0.00056761,-0.00215915,-0.00099550,0.00145085,-0.00083828
 ,0.03390725,0.00700018,-0.07270232,-0.22106648,-0.03906711,0.12744007,
 -0.39148212,-0.06914334,0.06393015,-0.00010536,0.00048012,0.00010391,0
 .00006820,-0.00016847,-0.00003474,0.00096037,-0.00105187,0.00077069,0.
 00520078,0.00034250,-0.00049852,0.38525214,-0.06939578,-0.03593852,0.0
 1196397,-0.00129528,-0.00041208,0.00018871,0.00016539,-0.00024529,-0.0
 0005434,-0.00087647,0.00540966,0.00015675,0.00070591,0.00297634,-0.000
 07985,0.06966830,0.02774338,0.06390450,0.01191544,-0.03346232,-0.00007
 650,-0.00015261,0.00018059,-0.00000082,0.00000985,-0.00002230,0.000788
 51,0.00019047,0.00539304,-0.00046159,-0.00000998,0.00251432,-0.0641893
 4,-0.01205085,0.02564760,-0.00083209,-0.00029514,0.00010526,-0.2505790
 6,-0.01668300,0.03490063,-0.00878958,-0.03019734,0.00244568,-0.0158370
 7,-0.00417020,0.00564287,0.00027231,0.00334964,0.00074820,0.00013583,-
 0.00017519,-0.00006856,0.27590815,0.00139688,0.00059823,-0.00019469,-0
 .02344933,-0.05822849,0.00471009,-0.04744326,-0.02350056,0.00471120,0.
 02317793,0.00601404,-0.00544206,0.00192314,-0.00461626,-0.00108203,-0.
 00004834,0.00021360,0.00004402,0.04687919,0.07721795,0.00027720,0.0001
 3059,-0.00016855,0.03421308,0.00340931,-0.06644820,0.00069324,0.001395
 78,0.01990216,0.00842183,-0.00018455,0.01408202,0.00060324,-0.00135626
 ,0.00213991,-0.00005567,0.00006841,-0.00011055,-0.04403158,-0.00341033
 ,0.03020724,-0.00157037,0.00051692,-0.00081981,0.00436898,0.00831075,-
 0.01626032,-0.00092851,0.00196921,0.00309998,-0.04830731,-0.01418536,0
 .02098902,-0.00951950,-0.02194603,0.02687234,-0.00019521,0.00071754,-0
 .00086936,-0.00005785,-0.00125786,0.00121624,0.05542702,0.00083551,0.0
 0041347,0.00007660,-0.00498726,-0.02201940,0.02324167,0.00386240,-0.00
 185938,-0.00423081,-0.01477388,-0.13668279,0.12686610,-0.00447935,-0.0
 0305704,0.00290625,-0.00004872,0.00012042,-0.00003012,0.00017268,0.001
 39922,-0.00293982,0.01834165,0.15185616,-0.00132548,-0.00003159,0.0005
 4730,-0.00104199,-0.00477728,0.00586476,0.00001142,-0.00154377,-0.0019
 7352,0.02096947,0.12201699,-0.18867512,0.00600280,0.00130145,-0.002518
 06,0.00000602,0.00000100,0.00011614,-0.00078817,0.00083356,-0.00013188
 ,-0.02488633,-0.13435879,0.20877079,-0.00050389,0.00027602,0.00131755,
 0.01030006,0.00546250,0.01503495,-0.00185103,0.00292383,-0.00241941,-0
 .08607933,-0.04567237,-0.07779376,-0.02075826,-0.01594654,-0.02361445,
 0.00016537,0.00048558,0.00097316,-0.00022065,-0.00117835,-0.00133758,0
 .00078275,0.00107696,0.00105226,0.09816499,0.00042800,0.00045824,-0.00
 024065,-0.01396813,-0.01742394,-0.02370876,0.00503321,-0.00272507,0.00
 224035,-0.04799178,-0.09192864,-0.09756404,-0.00469602,-0.00297370,-0.
 00243575,-0.00003019,0.00013249,0.00008377,0.00111937,0.00090228,0.002
 88688,0.00753318,0.00982934,0.01655842,0.05257236,0.10372901,0.0018710
 4,-0.00004200,-0.00056394,-0.00350908,-0.00198168,-0.00466179,0.001075
 87,0.00032279,-0.00018529,-0.07806969,-0.09327397,-0.19565726,0.000173
 18,0.00468976,0.00863737,-0.00003250,-0.00019381,-0.00025651,0.0010456
 7,-0.00016976,0.00052785,-0.00934176,-0.01153110,-0.02200041,0.0867872
 8,0.10217977,0.21415998\\0.00000742,-0.00000966,-0.00000241,-0.0000410
 2,-0.00007620,0.00000014,0.00002340,0.00005364,0.00000095,-0.00004300,
 -0.00000210,0.00000805,0.00001001,-0.00000198,-0.00000212,-0.00000160,
 0.00000609,0.00000093,0.00001470,0.00001954,-0.00000084,0.00001445,0.0
 0000564,-0.00000544,0.00001564,0.00000502,0.00000074\\\@


 PATIENCE IS THE ABILITY TO IDLE YOUR MOTOR WHEN
 YOU FEEL LIKE STRIPPING YOUR GEARS.
 Job cpu time:       0 days  0 hours 51 minutes 29.9 seconds.
 File lengths (MBytes):  RWF=     45 Int=      0 D2E=      0 Chk=      4 Scr=      1
 Normal termination of Gaussian 09 at Sun Mar  3 15:45:56 2019.
