 Entering Gaussian System, Link 0=/home/proyectos/fulerenos/M3C-v2.0/M3C-deps_CCC/g09-AM64L-G09RevC.01/g09
 Initial command:
 /home/proyectos/fulerenos/M3C-v2.0/M3C-deps_CCC/g09-AM64L-G09RevC.01/l1.exe "/scratch/naguirre/gaussian/Gau-20348.inp" -scrdir="/scratch/naguirre/gaussian/"
 Entering Link 1 = /home/proyectos/fulerenos/M3C-v2.0/M3C-deps_CCC/g09-AM64L-G09RevC.01/l1.exe PID=     20350.
  
 Copyright (c) 1988,1990,1992,1993,1995,1998,2003,2009,2015,
            Gaussian, Inc.  All Rights Reserved.
  
 This is part of the Gaussian(R) 09 program.  It is based on
 the Gaussian(R) 03 system (copyright 2003, Gaussian, Inc.),
 the Gaussian(R) 98 system (copyright 1998, Gaussian, Inc.),
 the Gaussian(R) 94 system (copyright 1995, Gaussian, Inc.),
 the Gaussian 92(TM) system (copyright 1992, Gaussian, Inc.),
 the Gaussian 90(TM) system (copyright 1990, Gaussian, Inc.),
 the Gaussian 88(TM) system (copyright 1988, Gaussian, Inc.),
 the Gaussian 86(TM) system (copyright 1986, Carnegie Mellon
 University), and the Gaussian 82(TM) system (copyright 1983,
 Carnegie Mellon University). Gaussian is a federally registered
 trademark of Gaussian, Inc.
  
 This software contains proprietary and confidential information,
 including trade secrets, belonging to Gaussian, Inc.
  
 This software is provided under written license and may be
 used, copied, transmitted, or stored only in accord with that
 written license.
  
 The following legend is applicable only to US Government
 contracts under FAR:
  
                    RESTRICTED RIGHTS LEGEND
  
 Use, reproduction and disclosure by the US Government is
 subject to restrictions as set forth in subparagraphs (a)
 and (c) of the Commercial Computer Software - Restricted
 Rights clause in FAR 52.227-19.
  
 Gaussian, Inc.
 340 Quinnipiac St., Bldg. 40, Wallingford CT 06492
  
  
 ---------------------------------------------------------------
 Warning -- This program may not be used in any manner that
 competes with the business of Gaussian, Inc. or will provide
 assistance to any competitor of Gaussian, Inc.  The licensee
 of this program is prohibited from giving any competitor of
 Gaussian, Inc. access to this program.  By using this program,
 the user acknowledges that Gaussian, Inc. is engaged in the
 business of creating and licensing software in the field of
 computational chemistry and represents and warrants to the
 licensee that it is not a competitor of Gaussian, Inc. and that
 it will not use this program in any manner prohibited above.
 ---------------------------------------------------------------
  

 Cite this work as:
 Gaussian 09, Revision E.01,
 M. J. Frisch, G. W. Trucks, H. B. Schlegel, G. E. Scuseria, 
 M. A. Robb, J. R. Cheeseman, G. Scalmani, V. Barone, B. Mennucci, 
 G. A. Petersson, H. Nakatsuji, M. Caricato, X. Li, H. P. Hratchian, 
 A. F. Izmaylov, J. Bloino, G. Zheng, J. L. Sonnenberg, M. Hada, 
 M. Ehara, K. Toyota, R. Fukuda, J. Hasegawa, M. Ishida, T. Nakajima, 
 Y. Honda, O. Kitao, H. Nakai, T. Vreven, J. A. Montgomery, Jr., 
 J. E. Peralta, F. Ogliaro, M. Bearpark, J. J. Heyd, E. Brothers, 
 K. N. Kudin, V. N. Staroverov, T. Keith, R. Kobayashi, J. Normand, 
 K. Raghavachari, A. Rendell, J. C. Burant, S. S. Iyengar, J. Tomasi, 
 M. Cossi, N. Rega, J. M. Millam, M. Klene, J. E. Knox, J. B. Cross, 
 V. Bakken, C. Adamo, J. Jaramillo, R. Gomperts, R. E. Stratmann, 
 O. Yazyev, A. J. Austin, R. Cammi, C. Pomelli, J. W. Ochterski, 
 R. L. Martin, K. Morokuma, V. G. Zakrzewski, G. A. Voth, 
 P. Salvador, J. J. Dannenberg, S. Dapprich, A. D. Daniels, 
 O. Farkas, J. B. Foresman, J. V. Ortiz, J. Cioslowski, 
 and D. J. Fox, Gaussian, Inc., Wallingford CT, 2013.
 
 ******************************************
 Gaussian 09:  EM64L-G09RevE.01 30-Nov-2015
                 3-Mar-2019 
 ******************************************
 %NProcShared=4
 Will use up to    4 processors via shared memory.
 ------------------------------------------------------
 #p b3lyp/6-311++G(3df,2p) freq IOp(2/17=3) IOp(2/18=3)
 ------------------------------------------------------
 1/10=4,30=1,38=1/1,3;
 2/12=2,17=3,18=3,40=1/2;
 3/5=4,6=6,7=1216,11=2,16=1,25=1,30=1,71=2,74=-5,140=1/1,2,3;
 4//1;
 5/5=2,38=5,98=1/2;
 8/6=4,10=90,11=11/1;
 11/6=1,8=1,9=11,15=111,16=1/1,2,10;
 10/6=1/2;
 6/7=2,8=2,9=2,10=2,18=1,28=1/1;
 7/8=1,10=1,25=1/1,2,3,16;
 1/10=4,30=1/3;
 99//99;
 Leave Link    1 at Sun Mar  3 08:39:59 2019, MaxMem=           0 cpu:         0.3
 (Enter /home/proyectos/fulerenos/M3C-v2.0/M3C-deps_CCC/g09-AM64L-G09RevC.01/l101.exe)
 ---------
 b3lyp opt
 ---------
 Symbolic Z-matrix:
 Charge =  1 Multiplicity = 2
 C                    -0.7144    0.        0. 
 O                     0.39376   0.        0. 
 
 NAtoms=      2 NQM=        2 NQMF=       0 NMMI=      0 NMMIF=      0
                NMic=       0 NMicF=      0.
                    Isotopes and Nuclear Properties:
 (Nuclear quadrupole moments (NQMom) in fm**2, nuclear magnetic moments (NMagM)
  in nuclear magnetons)

  Atom         1           2
 IAtWgt=          12          16
 AtmWgt=  12.0000000  15.9949146
 NucSpn=           0           0
 AtZEff=   0.0000000   0.0000000
 NQMom=    0.0000000   0.0000000
 NMagM=    0.0000000   0.0000000
 AtZNuc=   6.0000000   8.0000000
 Leave Link  101 at Sun Mar  3 08:40:00 2019, MaxMem=    33554432 cpu:         2.0
 (Enter /home/proyectos/fulerenos/M3C-v2.0/M3C-deps_CCC/g09-AM64L-G09RevC.01/l103.exe)

 GradGradGradGradGradGradGradGradGradGradGradGradGradGradGradGradGradGrad
 Berny optimization.
 Initialization pass.
 Trust Radius=3.00D-01 FncErr=1.00D-07 GrdErr=1.00D-07
 Number of steps in this run=      2 maximum allowed number of steps=      2.
 GradGradGradGradGradGradGradGradGradGradGradGradGradGradGradGradGradGrad

 Leave Link  103 at Sun Mar  3 08:40:00 2019, MaxMem=    33554432 cpu:         0.6
 (Enter /home/proyectos/fulerenos/M3C-v2.0/M3C-deps_CCC/g09-AM64L-G09RevC.01/l202.exe)
                          Input orientation:                          
 ---------------------------------------------------------------------
 Center     Atomic      Atomic             Coordinates (Angstroms)
 Number     Number       Type             X           Y           Z
 ---------------------------------------------------------------------
      1          6           0       -0.714404    0.000000    0.000000
      2          8           0        0.393764    0.000000    0.000000
 ---------------------------------------------------------------------
 Stoichiometry    CO(1+,2)
 Framework group  C*V[C*(CO)]
 Deg. of freedom     1
 Full point group                 C*V     NOp   4
 Largest Abelian subgroup         C2V     NOp   4
 Largest concise Abelian subgroup C1      NOp   1
                         Standard orientation:                         
 ---------------------------------------------------------------------
 Center     Atomic      Atomic             Coordinates (Angstroms)
 Number     Number       Type             X           Y           Z
 ---------------------------------------------------------------------
      1          6           0        0.000000    0.000000   -0.633239
      2          8           0        0.000000    0.000000    0.474929
 ---------------------------------------------------------------------
 Rotational constants (GHZ):      0.0000000     60.0235891     60.0235891
 Leave Link  202 at Sun Mar  3 08:40:01 2019, MaxMem=    33554432 cpu:         1.1
 (Enter /home/proyectos/fulerenos/M3C-v2.0/M3C-deps_CCC/g09-AM64L-G09RevC.01/l301.exe)
 Standard basis: 6-311++G(3df,2p) (5D, 7F)
 Ernie: Thresh=  0.10000D-02 Tol=  0.10000D-05 Strict=F.
 There are    42 symmetry adapted cartesian basis functions of A1  symmetry.
 There are     8 symmetry adapted cartesian basis functions of A2  symmetry.
 There are    20 symmetry adapted cartesian basis functions of B1  symmetry.
 There are    20 symmetry adapted cartesian basis functions of B2  symmetry.
 There are    34 symmetry adapted basis functions of A1  symmetry.
 There are     8 symmetry adapted basis functions of A2  symmetry.
 There are    18 symmetry adapted basis functions of B1  symmetry.
 There are    18 symmetry adapted basis functions of B2  symmetry.
    78 basis functions,   116 primitive gaussians,    90 cartesian basis functions
     7 alpha electrons        6 beta electrons
       nuclear repulsion energy        22.9211690035 Hartrees.
 IExCor=  402 DFT=T Ex+Corr=B3LYP ExCW=0 ScaHFX=  0.200000
 ScaDFX=  0.800000  0.720000  1.000000  0.810000 ScalE2=  1.000000  1.000000
 IRadAn=      0 IRanWt=     -1 IRanGd=            0 ICorTp=0 IEmpDi=  4
 NAtoms=    2 NActive=    2 NUniq=    2 SFac= 1.00D+00 NAtFMM=   60 NAOKFM=F Big=F
 Integral buffers will be    131072 words long.
 Raffenetti 2 integral format.
 Two-electron integral symmetry is turned on.
 Leave Link  301 at Sun Mar  3 08:40:01 2019, MaxMem=    33554432 cpu:         1.6
 (Enter /home/proyectos/fulerenos/M3C-v2.0/M3C-deps_CCC/g09-AM64L-G09RevC.01/l302.exe)
 NPDir=0 NMtPBC=     1 NCelOv=     1 NCel=       1 NClECP=     1 NCelD=      1
         NCelK=      1 NCelE2=     1 NClLst=     1 CellRange=     0.0.
 One-electron integrals computed using PRISM.
 NBasis=    78 RedAO= T EigKep=  1.41D-03  NBF=    34     8    18    18
 NBsUse=    78 1.00D-06 EigRej= -1.00D+00 NBFU=    34     8    18    18
 Precomputing XC quadrature grid using
 IXCGrd= 4 IRadAn=           0 IRanWt=          -1 IRanGd=           0 AccXCQ= 0.00D+00.
 Generated NRdTot=       0 NPtTot=           0 NUsed=           0 NTot=          32
 NSgBfM=    90    90    90    90    90 MxSgAt=     2 MxSgA2=     2.
 Leave Link  302 at Sun Mar  3 08:40:02 2019, MaxMem=    33554432 cpu:         3.9
 (Enter /home/proyectos/fulerenos/M3C-v2.0/M3C-deps_CCC/g09-AM64L-G09RevC.01/l303.exe)
 DipDrv:  MaxL=1.
 Leave Link  303 at Sun Mar  3 08:40:03 2019, MaxMem=    33554432 cpu:         0.7
 (Enter /home/proyectos/fulerenos/M3C-v2.0/M3C-deps_CCC/g09-AM64L-G09RevC.01/l401.exe)
 ExpMin= 4.38D-02 ExpMax= 8.59D+03 ExpMxC= 1.30D+03 IAcc=2 IRadAn=         4 AccDes= 0.00D+00
 Harris functional with IExCor=  402 and IRadAn=       4 diagonalized for initial guess.
 HarFok:  IExCor=  402 AccDes= 0.00D+00 IRadAn=         4 IDoV= 1 UseB2=F ITyADJ=14
 ICtDFT=  3500011 ScaDFX=  1.000000  1.000000  1.000000  1.000000
 FoFCou: FMM=F IPFlag=           0 FMFlag=      100000 FMFlg1=           0
         NFxFlg=           0 DoJE=T BraDBF=F KetDBF=T FulRan=T
         wScrn=  0.000000 ICntrl=     500 IOpCl=  0 I1Cent=   200000004 NGrid=           0
         NMat0=    1 NMatS0=      1 NMatT0=    0 NMatD0=    1 NMtDS0=    0 NMtDT0=    0
 Petite list used in FoFCou.
 Harris En= -112.985110773355    
 JPrj=0 DoOrth=F DoCkMO=F.
 Initial guess orbital symmetries:
 Alpha Orbitals:
       Occupied  (SG) (SG) (SG) (SG) (PI) (PI) (SG)
       Virtual   (PI) (PI) (SG) (SG) (PI) (PI) (SG) (PI) (PI) (SG)
                 (DLTA) (DLTA) (SG) (PI) (PI) (SG) (PI) (PI) (SG)
                 (SG) (DLTA) (DLTA) (PI) (PI) (SG) (PI) (PI) (SG)
                 (DLTA) (DLTA) (SG) (PI) (PI) (SG) (PI) (PI) (PHI)
                 (PHI) (DLTA) (DLTA) (PI) (PI) (SG) (DLTA) (DLTA)
                 (SG) (PI) (PI) (SG) (PHI) (PHI) (PI) (PI) (SG)
                 (DLTA) (DLTA) (SG) (PI) (PI) (DLTA) (DLTA) (PI)
                 (PI) (SG) (DLTA) (DLTA) (PI) (PI) (SG) (SG) (SG)
 Beta  Orbitals:
       Occupied  (SG) (SG) (SG) (SG) (PI) (PI)
       Virtual   (SG) (PI) (PI) (SG) (SG) (PI) (PI) (SG) (PI) (PI)
                 (SG) (DLTA) (DLTA) (SG) (PI) (PI) (SG) (PI) (PI)
                 (SG) (SG) (DLTA) (DLTA) (PI) (PI) (SG) (PI) (PI)
                 (SG) (DLTA) (DLTA) (SG) (PI) (PI) (SG) (PI) (PI)
                 (PHI) (PHI) (DLTA) (DLTA) (PI) (PI) (SG) (DLTA)
                 (DLTA) (SG) (PI) (PI) (SG) (PHI) (PHI) (PI) (PI)
                 (SG) (DLTA) (DLTA) (SG) (PI) (PI) (DLTA) (DLTA)
                 (PI) (PI) (SG) (DLTA) (DLTA) (PI) (PI) (SG) (SG)
                 (SG)
 The electronic state of the initial guess is 2-SG.
 Initial guess <Sx>= 0.0000 <Sy>= 0.0000 <Sz>= 0.5000 <S**2>= 0.7500 S= 0.5000
 Leave Link  401 at Sun Mar  3 08:40:04 2019, MaxMem=    33554432 cpu:         1.7
 (Enter /home/proyectos/fulerenos/M3C-v2.0/M3C-deps_CCC/g09-AM64L-G09RevC.01/l502.exe)
 UHF open shell SCF:
 Using DIIS extrapolation, IDIIS=  1040.
 Integral symmetry usage will be decided dynamically.
 Keep R1 and R2 ints in memory in symmetry-blocked form, NReq=6755505.
 IVT=       44096 IEndB=       44096 NGot=    33554432 MDV=    31053347
 LenX=    31053347 LenY=    31044806
 Requested convergence on RMS density matrix=1.00D-08 within 128 cycles.
 Requested convergence on MAX density matrix=1.00D-06.
 Requested convergence on             energy=1.00D-06.
 No special actions if energy rises.
 FoFCou: FMM=F IPFlag=           0 FMFlag=           0 FMFlg1=           0
         NFxFlg=           0 DoJE=F BraDBF=F KetDBF=F FulRan=T
         wScrn=  0.000000 ICntrl=     600 IOpCl=  0 I1Cent=           0 NGrid=           0
         NMat0=    1 NMatS0=   3081 NMatT0=    0 NMatD0=    1 NMtDS0=    0 NMtDT0=    0
 Petite list used in FoFCou.

 Cycle   1  Pass 1  IDiag  1:
 E= -112.753280706448    
 DIIS: error= 4.91D-02 at cycle   1 NSaved=   1.
 NSaved= 1 IEnMin= 1 EnMin= -112.753280706448     IErMin= 1 ErrMin= 4.91D-02
 ErrMax= 4.91D-02  0.00D+00 EMaxC= 1.00D-01 BMatC= 3.51D-01 BMatP= 3.51D-01
 IDIUse=3 WtCom= 5.09D-01 WtEn= 4.91D-01
 Coeff-Com:  0.100D+01
 Coeff-En:   0.100D+01
 Coeff:      0.100D+01
 Gap=     0.343 Goal=   None    Shift=    0.000
 Gap=     0.041 Goal=   None    Shift=    0.000
 GapD=    0.041 DampG=0.250 DampE=0.500 DampFc=0.2500 IDamp=-1.
 Damping current iteration by 2.50D-01
 RMSDP=8.46D-03 MaxDP=2.71D-01              OVMax= 5.00D-01

 Cycle   2  Pass 1  IDiag  1:
 E= -112.761904809666     Delta-E=       -0.008624103218 Rises=F Damp=T
 DIIS: error= 1.67D-02 at cycle   2 NSaved=   2.
 NSaved= 2 IEnMin= 2 EnMin= -112.761904809666     IErMin= 2 ErrMin= 1.67D-02
 ErrMax= 1.67D-02  0.00D+00 EMaxC= 1.00D-01 BMatC= 3.78D-02 BMatP= 3.51D-01
 IDIUse=3 WtCom= 8.33D-01 WtEn= 1.67D-01
 Coeff-Com:  0.754D-01 0.925D+00
 Coeff-En:   0.427D+00 0.573D+00
 Coeff:      0.134D+00 0.866D+00
 Gap=     0.392 Goal=   None    Shift=    0.000
 Gap=     0.126 Goal=   None    Shift=    0.000
 RMSDP=1.91D-03 MaxDP=7.25D-02 DE=-8.62D-03 OVMax= 4.33D-01

 Cycle   3  Pass 1  IDiag  1:
 E= -112.834494102738     Delta-E=       -0.072589293072 Rises=F Damp=F
 DIIS: error= 5.40D-03 at cycle   3 NSaved=   3.
 NSaved= 3 IEnMin= 3 EnMin= -112.834494102738     IErMin= 3 ErrMin= 5.40D-03
 ErrMax= 5.40D-03  0.00D+00 EMaxC= 1.00D-01 BMatC= 5.04D-03 BMatP= 3.78D-02
 IDIUse=3 WtCom= 9.46D-01 WtEn= 5.40D-02
 Coeff-Com: -0.480D-01 0.173D+00 0.875D+00
 Coeff-En:   0.000D+00 0.000D+00 0.100D+01
 Coeff:     -0.454D-01 0.164D+00 0.882D+00
 Gap=     0.433 Goal=   None    Shift=    0.000
 Gap=     0.210 Goal=   None    Shift=    0.000
 RMSDP=4.56D-04 MaxDP=1.48D-02 DE=-7.26D-02 OVMax= 1.40D-02

 Cycle   4  Pass 1  IDiag  1:
 E= -112.835449445057     Delta-E=       -0.000955342319 Rises=F Damp=F
 DIIS: error= 3.26D-03 at cycle   4 NSaved=   4.
 NSaved= 4 IEnMin= 4 EnMin= -112.835449445057     IErMin= 4 ErrMin= 3.26D-03
 ErrMax= 3.26D-03  0.00D+00 EMaxC= 1.00D-01 BMatC= 1.06D-03 BMatP= 5.04D-03
 IDIUse=3 WtCom= 9.67D-01 WtEn= 3.26D-02
 Coeff-Com: -0.459D-01 0.496D-01 0.209D+00 0.788D+00
 Coeff-En:   0.000D+00 0.000D+00 0.000D+00 0.100D+01
 Coeff:     -0.444D-01 0.480D-01 0.202D+00 0.795D+00
 Gap=     0.435 Goal=   None    Shift=    0.000
 Gap=     0.212 Goal=   None    Shift=    0.000
 RMSDP=1.51D-04 MaxDP=6.48D-03 DE=-9.55D-04 OVMax= 9.19D-03

 Cycle   5  Pass 1  IDiag  1:
 E= -112.835760703549     Delta-E=       -0.000311258493 Rises=F Damp=F
 DIIS: error= 1.08D-03 at cycle   5 NSaved=   5.
 NSaved= 5 IEnMin= 5 EnMin= -112.835760703549     IErMin= 5 ErrMin= 1.08D-03
 ErrMax= 1.08D-03  0.00D+00 EMaxC= 1.00D-01 BMatC= 5.66D-05 BMatP= 1.06D-03
 IDIUse=3 WtCom= 9.89D-01 WtEn= 1.08D-02
 Coeff-Com: -0.202D-02-0.230D-02-0.448D-01-0.550D-01 0.110D+01
 Coeff-En:   0.000D+00 0.000D+00 0.000D+00 0.000D+00 0.100D+01
 Coeff:     -0.200D-02-0.227D-02-0.443D-01-0.544D-01 0.110D+01
 Gap=     0.435 Goal=   None    Shift=    0.000
 Gap=     0.214 Goal=   None    Shift=    0.000
 RMSDP=9.17D-05 MaxDP=2.48D-03 DE=-3.11D-04 OVMax= 5.46D-03

 Cycle   6  Pass 1  IDiag  1:
 E= -112.835826568757     Delta-E=       -0.000065865208 Rises=F Damp=F
 DIIS: error= 3.49D-04 at cycle   6 NSaved=   6.
 NSaved= 6 IEnMin= 6 EnMin= -112.835826568757     IErMin= 6 ErrMin= 3.49D-04
 ErrMax= 3.49D-04  0.00D+00 EMaxC= 1.00D-01 BMatC= 1.30D-05 BMatP= 5.66D-05
 IDIUse=3 WtCom= 9.97D-01 WtEn= 3.49D-03
 Coeff-Com:  0.895D-02-0.686D-02-0.128D-01-0.911D-01-0.542D+00 0.164D+01
 Coeff-En:   0.000D+00 0.000D+00 0.000D+00 0.000D+00 0.000D+00 0.100D+01
 Coeff:      0.892D-02-0.684D-02-0.127D-01-0.908D-01-0.540D+00 0.164D+01
 Gap=     0.435 Goal=   None    Shift=    0.000
 Gap=     0.215 Goal=   None    Shift=    0.000
 RMSDP=7.95D-05 MaxDP=2.28D-03 DE=-6.59D-05 OVMax= 4.60D-03

 Cycle   7  Pass 1  IDiag  1:
 E= -112.835851451513     Delta-E=       -0.000024882756 Rises=F Damp=F
 DIIS: error= 1.39D-04 at cycle   7 NSaved=   7.
 NSaved= 7 IEnMin= 7 EnMin= -112.835851451513     IErMin= 7 ErrMin= 1.39D-04
 ErrMax= 1.39D-04  0.00D+00 EMaxC= 1.00D-01 BMatC= 1.68D-06 BMatP= 1.30D-05
 IDIUse=3 WtCom= 9.99D-01 WtEn= 1.39D-03
 Coeff-Com: -0.235D-03 0.631D-03 0.112D-01 0.443D-01-0.139D+00-0.187D+00
 Coeff-Com:  0.127D+01
 Coeff-En:   0.000D+00 0.000D+00 0.000D+00 0.000D+00 0.000D+00 0.000D+00
 Coeff-En:   0.100D+01
 Coeff:     -0.234D-03 0.631D-03 0.111D-01 0.443D-01-0.138D+00-0.187D+00
 Coeff:      0.127D+01
 Gap=     0.435 Goal=   None    Shift=    0.000
 Gap=     0.216 Goal=   None    Shift=    0.000
 RMSDP=2.11D-05 MaxDP=5.27D-04 DE=-2.49D-05 OVMax= 1.20D-03

 Cycle   8  Pass 1  IDiag  1:
 E= -112.835853021108     Delta-E=       -0.000001569595 Rises=F Damp=F
 DIIS: error= 2.49D-05 at cycle   8 NSaved=   8.
 NSaved= 8 IEnMin= 8 EnMin= -112.835853021108     IErMin= 8 ErrMin= 2.49D-05
 ErrMax= 2.49D-05  0.00D+00 EMaxC= 1.00D-01 BMatC= 5.53D-08 BMatP= 1.68D-06
 IDIUse=1 WtCom= 1.00D+00 WtEn= 0.00D+00
 Coeff-Com:  0.205D-03-0.454D-03-0.173D-02-0.924D-02 0.499D-01-0.157D-01
 Coeff-Com: -0.240D+00 0.122D+01
 Coeff:      0.205D-03-0.454D-03-0.173D-02-0.924D-02 0.499D-01-0.157D-01
 Coeff:     -0.240D+00 0.122D+01
 Gap=     0.435 Goal=   None    Shift=    0.000
 Gap=     0.216 Goal=   None    Shift=    0.000
 RMSDP=2.18D-06 MaxDP=5.00D-05 DE=-1.57D-06 OVMax= 1.43D-04

 Cycle   9  Pass 1  IDiag  1:
 E= -112.835853045937     Delta-E=       -0.000000024829 Rises=F Damp=F
 DIIS: error= 6.09D-06 at cycle   9 NSaved=   9.
 NSaved= 9 IEnMin= 9 EnMin= -112.835853045937     IErMin= 9 ErrMin= 6.09D-06
 ErrMax= 6.09D-06  0.00D+00 EMaxC= 1.00D-01 BMatC= 3.82D-09 BMatP= 5.53D-08
 IDIUse=1 WtCom= 1.00D+00 WtEn= 0.00D+00
 Coeff-Com:  0.482D-04-0.483D-04-0.463D-04 0.240D-03-0.251D-02 0.861D-02
 Coeff-Com: -0.662D-02-0.237D+00 0.124D+01
 Coeff:      0.482D-04-0.483D-04-0.463D-04 0.240D-03-0.251D-02 0.861D-02
 Coeff:     -0.662D-02-0.237D+00 0.124D+01
 Gap=     0.435 Goal=   None    Shift=    0.000
 Gap=     0.216 Goal=   None    Shift=    0.000
 RMSDP=5.53D-07 MaxDP=1.49D-05 DE=-2.48D-08 OVMax= 3.91D-05

 Cycle  10  Pass 1  IDiag  1:
 E= -112.835853047141     Delta-E=       -0.000000001204 Rises=F Damp=F
 DIIS: error= 2.12D-07 at cycle  10 NSaved=  10.
 NSaved=10 IEnMin=10 EnMin= -112.835853047141     IErMin=10 ErrMin= 2.12D-07
 ErrMax= 2.12D-07  0.00D+00 EMaxC= 1.00D-01 BMatC= 6.99D-12 BMatP= 3.82D-09
 IDIUse=1 WtCom= 1.00D+00 WtEn= 0.00D+00
 Coeff-Com:  0.100D-05 0.754D-06 0.936D-05 0.570D-04-0.643D-03 0.182D-03
 Coeff-Com:  0.207D-02 0.702D-03-0.337D-01 0.103D+01
 Coeff:      0.100D-05 0.754D-06 0.936D-05 0.570D-04-0.643D-03 0.182D-03
 Coeff:      0.207D-02 0.702D-03-0.337D-01 0.103D+01
 Gap=     0.435 Goal=   None    Shift=    0.000
 Gap=     0.216 Goal=   None    Shift=    0.000
 RMSDP=2.96D-08 MaxDP=5.86D-07 DE=-1.20D-09 OVMax= 2.13D-06

 Cycle  11  Pass 1  IDiag  1:
 E= -112.835853047145     Delta-E=       -0.000000000003 Rises=F Damp=F
 DIIS: error= 1.10D-07 at cycle  11 NSaved=  11.
 NSaved=11 IEnMin=11 EnMin= -112.835853047145     IErMin=11 ErrMin= 1.10D-07
 ErrMax= 1.10D-07  0.00D+00 EMaxC= 1.00D-01 BMatC= 1.47D-12 BMatP= 6.99D-12
 IDIUse=1 WtCom= 1.00D+00 WtEn= 0.00D+00
 Coeff-Com:  0.425D-06-0.747D-06 0.443D-05 0.114D-04 0.165D-04-0.115D-03
 Coeff-Com:  0.247D-03 0.132D-02-0.150D-01-0.653D-01 0.108D+01
 Coeff:      0.425D-06-0.747D-06 0.443D-05 0.114D-04 0.165D-04-0.115D-03
 Coeff:      0.247D-03 0.132D-02-0.150D-01-0.653D-01 0.108D+01
 Gap=     0.435 Goal=   None    Shift=    0.000
 Gap=     0.216 Goal=   None    Shift=    0.000
 RMSDP=5.68D-09 MaxDP=1.75D-07 DE=-3.30D-12 OVMax= 2.21D-07

 SCF Done:  E(UB3LYP) =  -112.835853047     A.U. after   11 cycles
            NFock= 11  Conv=0.57D-08     -V/T= 2.0032
 <Sx>= 0.0000 <Sy>= 0.0000 <Sz>= 0.5000 <S**2>= 0.7643 S= 0.5071
 <L.S>= 0.000000000000E+00
 KE= 1.124726166876D+02 PE=-3.058698721147D+02 EE= 5.764023337635D+01
 Annihilation of the first spin contaminant:
 S**2 before annihilation     0.7643,   after     0.7501
 Leave Link  502 at Sun Mar  3 08:40:05 2019, MaxMem=    33554432 cpu:         5.7
 (Enter /home/proyectos/fulerenos/M3C-v2.0/M3C-deps_CCC/g09-AM64L-G09RevC.01/l801.exe)
 DoSCS=F DFT=T ScalE2(SS,OS)=  1.000000  1.000000
 Range of M.O.s used for correlation:     1    78
 NBasis=    78 NAE=     7 NBE=     6 NFC=     0 NFV=     0
 NROrb=     78 NOA=     7 NOB=     6 NVA=    71 NVB=    72

 **** Warning!!: The largest alpha MO coefficient is  0.10026896D+02


 **** Warning!!: The largest beta MO coefficient is  0.10805220D+02

 Leave Link  801 at Sun Mar  3 08:40:05 2019, MaxMem=    33554432 cpu:         0.1
 (Enter /home/proyectos/fulerenos/M3C-v2.0/M3C-deps_CCC/g09-AM64L-G09RevC.01/l1101.exe)
 Using compressed storage, NAtomX=     2.
 Will process      3 centers per pass.
 Leave Link 1101 at Sun Mar  3 08:40:08 2019, MaxMem=    33554432 cpu:         5.1
 (Enter /home/proyectos/fulerenos/M3C-v2.0/M3C-deps_CCC/g09-AM64L-G09RevC.01/l1102.exe)
 Symmetrizing basis deriv contribution to polar:
 IMax=3 JMax=2 DiffMx= 0.00D+00
 Leave Link 1102 at Sun Mar  3 08:40:10 2019, MaxMem=    33554432 cpu:         1.8
 (Enter /home/proyectos/fulerenos/M3C-v2.0/M3C-deps_CCC/g09-AM64L-G09RevC.01/l1110.exe)
 Forming Gx(P) for the SCF density, NAtomX=     2.
 Integral derivatives from FoFJK, PRISM(SPDF).
 Do as many integral derivatives as possible in FoFJK.
 G2DrvN: MDV=      33554312.
 G2DrvN: will do     3 centers at a time, making    1 passes.
 Calling FoFCou, ICntrl=  3107 FMM=F I1Cent=   0 AccDes= 0.00D+00.
 FoFJK:  IHMeth= 1 ICntrl=    3107 DoSepK=F KAlg= 0 I1Cent=   0 FoldK=F
 IRaf=         0 NMat=   1 IRICut=       1 DoRegI=T DoRafI=F ISym2E= 1.
 FoFCou: FMM=F IPFlag=           0 FMFlag=      100000 FMFlg1=           0
         NFxFlg=           0 DoJE=F BraDBF=F KetDBF=F FulRan=T
         wScrn=  0.000000 ICntrl=    3107 IOpCl=  1 I1Cent=           0 NGrid=           0
         NMat0=    1 NMatS0=      1 NMatT0=    0 NMatD0=    1 NMtDS0=    0 NMtDT0=    0
 Petite list used in FoFCou.
 End of G2Drv F.D. properties file   721 does not exist.
 End of G2Drv F.D. properties file   722 does not exist.
 End of G2Drv F.D. properties file   788 does not exist.
 Leave Link 1110 at Sun Mar  3 08:40:15 2019, MaxMem=    33554432 cpu:        17.5
 (Enter /home/proyectos/fulerenos/M3C-v2.0/M3C-deps_CCC/g09-AM64L-G09RevC.01/l1002.exe)
 Minotr:  UHF open shell wavefunction.
          IDoAtm=11
          Direct CPHF calculation.
          Differentiating once with respect to electric field.
                with respect to dipole field.
          Differentiating once with respect to nuclear coordinates.
          Using symmetry in CPHF.
          Requested convergence is 1.0D-08 RMS, and 1.0D-07 maximum.
          Secondary convergence is 1.0D-12 RMS, and 1.0D-12 maximum.
          NewPWx=T KeepS1=F KeepF1=F KeepIn=T MapXYZ=F SortEE=F KeepMc=T.
          MDV=      33554252 using IRadAn=       2.
 Generate precomputed XC quadrature information.
 Keep R1 and R2 ints in memory in symmetry-blocked form, NReq=6720065.
 FoFCou: FMM=F IPFlag=           0 FMFlag=           0 FMFlg1=           0
         NFxFlg=           0 DoJE=F BraDBF=F KetDBF=F FulRan=T
         wScrn=  0.000000 ICntrl=     600 IOpCl=  0 I1Cent=           0 NGrid=           0
         NMat0=    1 NMatS0=   3081 NMatT0=    0 NMatD0=    1 NMtDS0=    0 NMtDT0=    0
 Petite list used in FoFCou.
          Solving linear equations simultaneously, MaxMat=       0.
          There are     9 degrees of freedom in the 1st order CPHF.  IDoFFX=6 NUNeed=     3.
      6 vectors produced by pass  0 Test12= 1.03D-14 1.11D-08 XBig12= 2.78D+01 2.73D+00.
 AX will form     6 AO Fock derivatives at one time.
      6 vectors produced by pass  1 Test12= 1.03D-14 1.11D-08 XBig12= 1.78D+01 1.39D+00.
      6 vectors produced by pass  2 Test12= 1.03D-14 1.11D-08 XBig12= 5.46D-01 3.02D-01.
      6 vectors produced by pass  3 Test12= 1.03D-14 1.11D-08 XBig12= 3.17D-02 6.14D-02.
      6 vectors produced by pass  4 Test12= 1.03D-14 1.11D-08 XBig12= 1.17D-03 8.87D-03.
      6 vectors produced by pass  5 Test12= 1.03D-14 1.11D-08 XBig12= 1.57D-05 1.36D-03.
      6 vectors produced by pass  6 Test12= 1.03D-14 1.11D-08 XBig12= 1.45D-07 1.20D-04.
      3 vectors produced by pass  7 Test12= 1.03D-14 1.11D-08 XBig12= 8.27D-10 6.54D-06.
      1 vectors produced by pass  8 Test12= 1.03D-14 1.11D-08 XBig12= 2.27D-12 4.27D-07.
      1 vectors produced by pass  9 Test12= 1.03D-14 1.11D-08 XBig12= 4.66D-15 1.27D-08.
 InvSVY:  IOpt=1 It=  1 EMax= 2.22D-16
 Solved reduced A of dimension    47 with     6 vectors.
 FullF1:  Do perturbations    1 to     3.
 Isotropic polarizability for W=    0.000000        8.98 Bohr**3.
 End of Minotr F.D. properties file   721 does not exist.
 End of Minotr F.D. properties file   722 does not exist.
 End of Minotr F.D. properties file   788 does not exist.
 Leave Link 1002 at Sun Mar  3 08:40:19 2019, MaxMem=    33554432 cpu:        15.5
 (Enter /home/proyectos/fulerenos/M3C-v2.0/M3C-deps_CCC/g09-AM64L-G09RevC.01/l601.exe)
 Copying SCF densities to generalized density rwf, IOpCl= 1 IROHF=0.

 **********************************************************************

            Population analysis using the SCF density.

 **********************************************************************

 Orbital symmetries:
 Alpha Orbitals:
       Occupied  (SG) (SG) (SG) (SG) (PI) (PI) (SG)
       Virtual   (PI) (PI) (SG) (SG) (PI) (PI) (SG) (PI) (PI) (SG)
                 (DLTA) (DLTA) (SG) (PI) (PI) (SG) (PI) (PI) (SG)
                 (SG) (DLTA) (DLTA) (PI) (PI) (SG) (PI) (PI) (SG)
                 (DLTA) (DLTA) (PI) (PI) (SG) (SG) (PI) (PI) (PHI)
                 (PHI) (DLTA) (DLTA) (PI) (PI) (SG) (DLTA) (DLTA)
                 (SG) (PI) (PI) (SG) (PHI) (PHI) (PI) (PI) (SG)
                 (DLTA) (DLTA) (SG) (PI) (PI) (DLTA) (DLTA) (PI)
                 (PI) (SG) (DLTA) (DLTA) (PI) (PI) (SG) (SG) (SG)
 Beta  Orbitals:
       Occupied  (SG) (SG) (SG) (SG) (PI) (PI)
       Virtual   (SG) (PI) (PI) (SG) (SG) (PI) (PI) (SG) (PI) (PI)
                 (SG) (DLTA) (DLTA) (SG) (PI) (PI) (SG) (PI) (PI)
                 (SG) (SG) (DLTA) (DLTA) (PI) (PI) (SG) (PI) (PI)
                 (SG) (DLTA) (DLTA) (PI) (PI) (SG) (SG) (PI) (PI)
                 (PHI) (PHI) (DLTA) (DLTA) (PI) (PI) (SG) (DLTA)
                 (DLTA) (SG) (PI) (PI) (SG) (PHI) (PHI) (PI) (PI)
                 (SG) (DLTA) (DLTA) (SG) (PI) (PI) (DLTA) (DLTA)
                 (PI) (PI) (SG) (DLTA) (DLTA) (PI) (PI) (SG) (SG)
                 (SG)
 The electronic state is 2-SG.
 Alpha  occ. eigenvalues --  -19.64730 -10.79169  -1.57667  -0.96766  -0.86857
 Alpha  occ. eigenvalues --   -0.86857  -0.86588
 Alpha virt. eigenvalues --   -0.43098  -0.43098  -0.18206  -0.13941  -0.12550
 Alpha virt. eigenvalues --   -0.12550  -0.03926   0.00489   0.00489   0.03399
 Alpha virt. eigenvalues --    0.03576   0.03576   0.09931   0.17433   0.17433
 Alpha virt. eigenvalues --    0.22368   0.25186   0.25186   0.39497   0.47594
 Alpha virt. eigenvalues --    0.55251   0.55251   0.67547   0.67547   0.75573
 Alpha virt. eigenvalues --    0.90173   0.90173   1.09535   1.14690   1.14692
 Alpha virt. eigenvalues --    1.42078   1.42078   1.47727   1.71312   2.29931
 Alpha virt. eigenvalues --    2.29931   2.34620   2.34620   2.41156   2.41157
 Alpha virt. eigenvalues --    2.55267   2.55267   2.70485   3.06099   3.06099
 Alpha virt. eigenvalues --    3.23583   3.76779   3.76779   3.77804   4.61756
 Alpha virt. eigenvalues --    4.61756   4.73447   4.73447   5.07674   5.10723
 Alpha virt. eigenvalues --    5.10724   5.25810   5.90401   5.90401   6.42483
 Alpha virt. eigenvalues --    6.42484   6.69630   6.69630   7.74319  13.81688
 Alpha virt. eigenvalues --   13.81691  14.31924  14.31924  14.56336  24.57207
 Alpha virt. eigenvalues --   50.04722
  Beta  occ. eigenvalues --  -19.64802 -10.76656  -1.56864  -0.93421  -0.86431
  Beta  occ. eigenvalues --   -0.86431
  Beta virt. eigenvalues --   -0.64861  -0.38919  -0.38919  -0.16979  -0.13100
  Beta virt. eigenvalues --   -0.12258  -0.12258  -0.03173   0.00432   0.00432
  Beta virt. eigenvalues --    0.04221   0.04256   0.04256   0.11961   0.18795
  Beta virt. eigenvalues --    0.18795   0.25266   0.26373   0.26373   0.42876
  Beta virt. eigenvalues --    0.49724   0.55015   0.55016   0.67882   0.67882
  Beta virt. eigenvalues --    0.76399   0.91194   0.91194   1.10250   1.18824
  Beta virt. eigenvalues --    1.18826   1.47757   1.47757   1.49727   1.78998
  Beta virt. eigenvalues --    2.33316   2.33316   2.38388   2.38388   2.45529
  Beta virt. eigenvalues --    2.45529   2.59150   2.59150   2.77097   3.05737
  Beta virt. eigenvalues --    3.05737   3.26523   3.78477   3.78477   3.81919
  Beta virt. eigenvalues --    4.60773   4.60773   4.72990   4.72990   5.08632
  Beta virt. eigenvalues --    5.11069   5.11069   5.29015   5.92051   5.92051
  Beta virt. eigenvalues --    6.46386   6.46387   6.76346   6.76346   7.80852
  Beta virt. eigenvalues --   13.80112  13.80115  14.32503  14.32503  14.57549
  Beta virt. eigenvalues --   24.60140  50.04705
          Condensed to atoms (all electrons):
               1          2
     1  C    4.864640   0.219140
     2  O    0.219140   7.697081
          Atomic-Atomic Spin Densities.
               1          2
     1  C    1.133911  -0.034142
     2  O   -0.034142  -0.065626
 Mulliken charges and spin densities:
               1          2
     1  C    0.916221   1.099769
     2  O    0.083779  -0.099769
 Sum of Mulliken charges =   1.00000   1.00000
 Mulliken charges and spin densities with hydrogens summed into heavy atoms:
               1          2
     1  C    0.916221   1.099769
     2  O    0.083779  -0.099769
 APT charges:
               1
     1  C    0.870873
     2  O    0.129127
 Sum of APT charges =   1.00000
 APT charges with hydrogens summed into heavy atoms:
               1
     1  C    0.870873
     2  O    0.129127
 Electronic spatial extent (au):  <R**2>=             30.8889
 Charge=              1.0000 electrons
 Dipole moment (field-independent basis, Debye):
    X=              0.0000    Y=              0.0000    Z=             -2.7316  Tot=              2.7316
 Quadrupole moment (field-independent basis, Debye-Ang):
   XX=             -7.9361   YY=             -7.9361   ZZ=             -5.4509
   XY=              0.0000   XZ=              0.0000   YZ=              0.0000
 Traceless Quadrupole moment (field-independent basis, Debye-Ang):
   XX=             -0.8284   YY=             -0.8284   ZZ=              1.6568
   XY=              0.0000   XZ=              0.0000   YZ=              0.0000
 Octapole moment (field-independent basis, Debye-Ang**2):
  XXX=              0.0000  YYY=              0.0000  ZZZ=             -0.8703  XYY=              0.0000
  XXY=              0.0000  XXZ=              0.0105  XZZ=              0.0000  YZZ=              0.0000
  YYZ=              0.0105  XYZ=              0.0000
 Hexadecapole moment (field-independent basis, Debye-Ang**3):
 XXXX=             -5.6114 YYYY=             -5.6114 ZZZZ=            -19.0947 XXXY=              0.0000
 XXXZ=              0.0000 YYYX=              0.0000 YYYZ=              0.0000 ZZZX=              0.0000
 ZZZY=              0.0000 XXYY=             -1.8705 XXZZ=             -4.0800 YYZZ=             -4.0800
 XXYZ=              0.0000 YYXZ=              0.0000 ZZXY=              0.0000
 N-N= 2.292116900354D+01 E-N=-3.058698737042D+02  KE= 1.124726166876D+02
 Symmetry A1   KE= 1.038954157008D+02
 Symmetry A2   KE= 2.567196547468D-52
 Symmetry B1   KE= 4.288600493410D+00
 Symmetry B2   KE= 4.288600493410D+00
  Exact polarizability:   7.682  -0.000   7.682   0.000  -0.000  11.571
 Approx polarizability:   9.584  -0.000   9.584  -0.000  -0.000  24.740
                          Isotropic Fermi Contact Couplings
        Atom                 a.u.       MegaHertz       Gauss      10(-4) cm-1
     1  C(13)              1.38908    1561.59218     557.21490     520.89108
     2  O(17)             -0.04340      26.30934       9.38783       8.77585
 --------------------------------------------------------
       Center         ----  Spin Dipole Couplings  ----
                      3XX-RR        3YY-RR        3ZZ-RR
 --------------------------------------------------------
     1   Atom       -0.376526     -0.376526      0.753052
     2   Atom       -0.534433     -0.534433      1.068867
 --------------------------------------------------------
                        XY            XZ            YZ
 --------------------------------------------------------
     1   Atom        0.000000      0.000000      0.000000
     2   Atom        0.000000      0.000000      0.000000
 --------------------------------------------------------


 ---------------------------------------------------------------------------------
              Anisotropic Spin Dipole Couplings in Principal Axis System
 ---------------------------------------------------------------------------------

       Atom             a.u.   MegaHertz   Gauss  10(-4) cm-1        Axes

              Baa    -0.3765   -50.526   -18.029   -16.854  1.0000  0.0000  0.0000
     1 C(13)  Bbb    -0.3765   -50.526   -18.029   -16.854 -0.0000  1.0000  0.0000
              Bcc     0.7531   101.052    36.058    33.707  0.0000  0.0000  1.0000
 
              Baa    -0.5344    38.671    13.799    12.899 -0.0000  1.0000  0.0000
     2 O(17)  Bbb    -0.5344    38.671    13.799    12.899  1.0000  0.0000  0.0000
              Bcc     1.0689   -77.342   -27.598   -25.799  0.0000  0.0000  1.0000
 

 ---------------------------------------------------------------------------------

 No NMR shielding tensors so no spin-rotation constants.
 Leave Link  601 at Sun Mar  3 08:40:20 2019, MaxMem=    33554432 cpu:         2.4
 (Enter /home/proyectos/fulerenos/M3C-v2.0/M3C-deps_CCC/g09-AM64L-G09RevC.01/l701.exe)
 Compute integral second derivatives.
 ... and contract with generalized density number  0.
 Leave Link  701 at Sun Mar  3 08:40:21 2019, MaxMem=    33554432 cpu:         3.1
 (Enter /home/proyectos/fulerenos/M3C-v2.0/M3C-deps_CCC/g09-AM64L-G09RevC.01/l702.exe)
 L702 exits ... SP integral derivatives will be done elsewhere.
 Leave Link  702 at Sun Mar  3 08:40:21 2019, MaxMem=    33554432 cpu:         0.2
 (Enter /home/proyectos/fulerenos/M3C-v2.0/M3C-deps_CCC/g09-AM64L-G09RevC.01/l703.exe)
 Compute integral second derivatives, UseDBF=F ICtDFT=           0.
 Integral derivatives from FoFJK, PRISM(SPDF).
 Calling FoFJK, ICntrl=    100127 FMM=F ISym2X=1 I1Cent= 0 IOpClX= 1 NMat=1 NMatS=1 NMatT=0.
 FoFJK:  IHMeth= 1 ICntrl=  100127 DoSepK=F KAlg= 0 I1Cent=   0 FoldK=F
 IRaf=         0 NMat=   1 IRICut=       1 DoRegI=T DoRafI=F ISym2E= 1.
 FoFCou: FMM=F IPFlag=           0 FMFlag=      100000 FMFlg1=         800
         NFxFlg=           0 DoJE=F BraDBF=F KetDBF=F FulRan=T
         wScrn=  0.000000 ICntrl=  100127 IOpCl=  1 I1Cent=           0 NGrid=           0
         NMat0=    1 NMatS0=      1 NMatT0=    0 NMatD0=    1 NMtDS0=    0 NMtDT0=    0
 Petite list used in FoFCou.
 Leave Link  703 at Sun Mar  3 08:40:29 2019, MaxMem=    33554432 cpu:        30.1
 (Enter /home/proyectos/fulerenos/M3C-v2.0/M3C-deps_CCC/g09-AM64L-G09RevC.01/l716.exe)
 Dipole        = 0.00000000D+00 0.00000000D+00-1.07469164D+00
 Polarizability= 7.68248630D+00-2.04185721D-09 7.68248632D+00
                 4.83167815D-09-4.84327044D-09 1.15709700D+01
 Full mass-weighted force constant matrix:
 Low frequencies ---  -20.1391  -20.1391   -0.0011    0.0011    0.0011 2300.5545
 Diagonal vibrational polarizability:
        0.0000000       0.0000000       0.0651551
 Harmonic frequencies (cm**-1), IR intensities (KM/Mole), Raman scattering
 activities (A**4/AMU), depolarization ratios for plane and unpolarized
 incident light, reduced masses (AMU), force constants (mDyne/A),
 and normal coordinates:
                      1
                     SG
 Frequencies --   2300.5545
 Red. masses --     13.4388
 Frc consts  --     41.9058
 IR Inten    --     12.8139
  Atom  AN      X      Y      Z
     1   6     0.00   0.00   0.80
     2   8     0.00   0.00  -0.60

 -------------------
 - Thermochemistry -
 -------------------
 Temperature   298.150 Kelvin.  Pressure   1.00000 Atm.
 Atom     1 has atomic number  6 and mass  12.00000
 Atom     2 has atomic number  8 and mass  15.99491
 Molecular mass:    27.99491 amu.
 Principal axes and moments of inertia in atomic units:
                           1         2         3
     Eigenvalues --     0.00000  30.06720  30.06720
           X            0.00000  -0.00000   1.00000
           Y            0.00000   1.00000   0.00000
           Z            1.00000   0.00000   0.00000
 This molecule is a prolate symmetric top.
 Rotational symmetry number  1.
 Rotational temperature (Kelvin)      2.88067
 Rotational constant (GHZ):          60.023589
 Zero-point vibrational energy      13760.4 (Joules/Mol)
                                    3.28881 (Kcal/Mol)
 Vibrational temperatures:   3309.98
          (Kelvin)
 
 Zero-point correction=                           0.005241 (Hartree/Particle)
 Thermal correction to Energy=                    0.007602
 Thermal correction to Enthalpy=                  0.008546
 Thermal correction to Gibbs Free Energy=        -0.014502
 Sum of electronic and zero-point Energies=           -112.830612
 Sum of electronic and thermal Energies=              -112.828251
 Sum of electronic and thermal Enthalpies=            -112.827307
 Sum of electronic and thermal Free Energies=         -112.850355
 
                     E (Thermal)             CV                S
                      KCal/Mol        Cal/Mol-Kelvin    Cal/Mol-Kelvin
 Total                    4.770              4.972             48.508
 Electronic               0.000              0.000              1.377
 Translational            0.889              2.981             35.923
 Rotational               0.592              1.987             11.207
 Vibrational              3.289              0.004              0.000
                       Q            Log10(Q)             Ln(Q)
 Total Bot       0.468103D+07          6.670341         15.359028
 Total V=0       0.120518D+10          9.081051         20.909893
 Vib (Bot)       0.388416D-02         -2.410703         -5.550850
 Vib (V=0)       0.100002D+01          0.000007          0.000015
 Electronic      0.200000D+01          0.301030          0.693147
 Translational   0.582202D+07          6.765074         15.577158
 Rotational      0.103500D+03          2.014941          4.639572
 ***** Axes restored to original set *****
 -------------------------------------------------------------------
 Center     Atomic                   Forces (Hartrees/Bohr)
 Number     Number              X              Y              Z
 -------------------------------------------------------------------
      1        6          -0.000222637   -0.000000000   -0.000000000
      2        8           0.000222637   -0.000000000   -0.000000000
 -------------------------------------------------------------------
 Cartesian Forces:  Max     0.000222637 RMS     0.000128540
 Z-matrix is all fixed cartesians, so copy forces.
 Force constants in Cartesian coordinates: 
                1             2             3             4             5 
      1  0.137322D+01
      2  0.000000D+00 -0.105234D-03
      3  0.000000D+00  0.000000D+00 -0.105234D-03
      4 -0.137322D+01  0.000000D+00  0.000000D+00  0.137322D+01
      5  0.000000D+00  0.105234D-03  0.000000D+00  0.000000D+00 -0.105234D-03
      6  0.000000D+00  0.000000D+00  0.105234D-03  0.000000D+00  0.000000D+00
                6 
      6 -0.105234D-03
 Leave Link  716 at Sun Mar  3 08:40:29 2019, MaxMem=    33554432 cpu:         0.2
 (Enter /home/proyectos/fulerenos/M3C-v2.0/M3C-deps_CCC/g09-AM64L-G09RevC.01/l103.exe)

 GradGradGradGradGradGradGradGradGradGradGradGradGradGradGradGradGradGrad
 Berny optimization.
 Search for a local minimum.
 Step number   1 out of a maximum of    2
 All quantities printed in internal units (Hartrees-Bohrs-Radians)
 Second derivative matrix not updated -- analytic derivatives used.
 The second derivative matrix:
                          X1        Y1        Z1        X2        Y2
           X1           1.37322
           Y1          -0.00000  -0.00011
           Z1          -0.00000  -0.00000  -0.00011
           X2          -1.37322   0.00000   0.00000   1.37322
           Y2           0.00000   0.00011   0.00000  -0.00000  -0.00011
           Z2           0.00000   0.00000   0.00011  -0.00000  -0.00000
                          Z2
           Z2          -0.00011
 ITU=  0
     Eigenvalues ---    2.73236
 Angle between quadratic step and forces=   4.11 degrees.
 ClnCor:  largest displacement from symmetrization is 0.00D+00 for atom     0.
 Linear search not attempted -- first point.
 ClnCor:  largest displacement from symmetrization is 0.00D+00 for atom     0.
 B after Tr=     0.000006    0.000000    0.000000
         Rot=    1.000000    0.000000    0.000000    0.000000 Ang=   0.00 deg.
 Variable       Old X    -DE/DX   Delta X   Delta X   Delta X     New X
                                 (Linear)    (Quad)   (Total)
    X1       -1.35003  -0.00022   0.00000  -0.00009  -0.00008  -1.35011
    Y1        0.00000  -0.00000   0.00000   0.00000   0.00000   0.00000
    Z1        0.00000  -0.00000   0.00000   0.00000   0.00000   0.00000
    X2        0.74411   0.00022   0.00000   0.00008   0.00008   0.74419
    Y2        0.00000  -0.00000   0.00000   0.00000   0.00000   0.00000
    Z2        0.00000  -0.00000   0.00000   0.00000   0.00000   0.00000
         Item               Value     Threshold  Converged?
 Maximum Force            0.000223     0.000450     YES
 RMS     Force            0.000129     0.000300     YES
 Maximum Displacement     0.000081     0.001800     YES
 RMS     Displacement     0.000047     0.001200     YES
 Predicted change in Energy=-1.804783D-08
 Optimization completed.
    -- Stationary point found.
 GradGradGradGradGradGradGradGradGradGradGradGradGradGradGradGradGradGrad

 Leave Link  103 at Sun Mar  3 08:40:29 2019, MaxMem=    33554432 cpu:         0.0
 (Enter /home/proyectos/fulerenos/M3C-v2.0/M3C-deps_CCC/g09-AM64L-G09RevC.01/l9999.exe)

 Test job not archived.
 1\1\GINC-POLONIO\Freq\UB3LYP\6-311++G(3df,2p)\C1O1(1+,2)\NAGUIRRE\03-M
 ar-2019\0\\#p b3lyp/6-311++G(3df,2p) freq IOp(2/17=3) IOp(2/18=3)\\b3l
 yp opt\\1,2\C,-0.714404,0.,0.\O,0.393764,0.,0.\\Version=EM64L-G09RevE.
 01\State=2-SG\HF=-112.835853\S2=0.764318\S2-1=0.\S2A=0.750123\RMSD=5.6
 80e-09\RMSF=1.285e-04\ZeroPoint=0.005241\Thermal=0.0076017\Dipole=-1.0
 746916,0.,0.\DipoleDeriv=0.7288463,0.,0.,0.,0.9418868,0.,0.,0.,0.94188
 68,0.2711537,0.,0.,0.,0.0581132,0.,0.,0.,0.0581132\Polar=11.57097,0.,7
 .6824863,0.,0.,7.6824863\PG=C*V [C*(C1O1)]\NImag=0\\1.37322123,0.,-0.0
 0010523,0.,0.,-0.00010523,-1.37322123,0.,0.,1.37322123,0.,0.00010523,0
 .,0.,-0.00010523,0.,0.,0.00010523,0.,0.,-0.00010523\\0.00022264,0.,0.,
 -0.00022264,0.,0.\\\@


 A MAN IS EXACTLY AS GREAT AS THE TIDE SURGING
 BENEATH HIM.      - BISMARCK
 Job cpu time:       0 days  0 hours  1 minutes 36.5 seconds.
 File lengths (MBytes):  RWF=      6 Int=      0 D2E=      0 Chk=      2 Scr=      1
 Normal termination of Gaussian 09 at Sun Mar  3 08:40:29 2019.
