 Entering Gaussian System, Link 0=/home/proyectos/fulerenos/M3C-v2.0/M3C-deps_CCC/g09-AM64L-G09RevC.01/g09
 Initial command:
 /home/proyectos/fulerenos/M3C-v2.0/M3C-deps_CCC/g09-AM64L-G09RevC.01/l1.exe "/scratch/naguirre/gaussian/Gau-23496.inp" -scrdir="/scratch/naguirre/gaussian/"
 Entering Link 1 = /home/proyectos/fulerenos/M3C-v2.0/M3C-deps_CCC/g09-AM64L-G09RevC.01/l1.exe PID=     23503.
  
 Copyright (c) 1988,1990,1992,1993,1995,1998,2003,2009,2015,
            Gaussian, Inc.  All Rights Reserved.
  
 This is part of the Gaussian(R) 09 program.  It is based on
 the Gaussian(R) 03 system (copyright 2003, Gaussian, Inc.),
 the Gaussian(R) 98 system (copyright 1998, Gaussian, Inc.),
 the Gaussian(R) 94 system (copyright 1995, Gaussian, Inc.),
 the Gaussian 92(TM) system (copyright 1992, Gaussian, Inc.),
 the Gaussian 90(TM) system (copyright 1990, Gaussian, Inc.),
 the Gaussian 88(TM) system (copyright 1988, Gaussian, Inc.),
 the Gaussian 86(TM) system (copyright 1986, Carnegie Mellon
 University), and the Gaussian 82(TM) system (copyright 1983,
 Carnegie Mellon University). Gaussian is a federally registered
 trademark of Gaussian, Inc.
  
 This software contains proprietary and confidential information,
 including trade secrets, belonging to Gaussian, Inc.
  
 This software is provided under written license and may be
 used, copied, transmitted, or stored only in accord with that
 written license.
  
 The following legend is applicable only to US Government
 contracts under FAR:
  
                    RESTRICTED RIGHTS LEGEND
  
 Use, reproduction and disclosure by the US Government is
 subject to restrictions as set forth in subparagraphs (a)
 and (c) of the Commercial Computer Software - Restricted
 Rights clause in FAR 52.227-19.
  
 Gaussian, Inc.
 340 Quinnipiac St., Bldg. 40, Wallingford CT 06492
  
  
 ---------------------------------------------------------------
 Warning -- This program may not be used in any manner that
 competes with the business of Gaussian, Inc. or will provide
 assistance to any competitor of Gaussian, Inc.  The licensee
 of this program is prohibited from giving any competitor of
 Gaussian, Inc. access to this program.  By using this program,
 the user acknowledges that Gaussian, Inc. is engaged in the
 business of creating and licensing software in the field of
 computational chemistry and represents and warrants to the
 licensee that it is not a competitor of Gaussian, Inc. and that
 it will not use this program in any manner prohibited above.
 ---------------------------------------------------------------
  

 Cite this work as:
 Gaussian 09, Revision E.01,
 M. J. Frisch, G. W. Trucks, H. B. Schlegel, G. E. Scuseria, 
 M. A. Robb, J. R. Cheeseman, G. Scalmani, V. Barone, B. Mennucci, 
 G. A. Petersson, H. Nakatsuji, M. Caricato, X. Li, H. P. Hratchian, 
 A. F. Izmaylov, J. Bloino, G. Zheng, J. L. Sonnenberg, M. Hada, 
 M. Ehara, K. Toyota, R. Fukuda, J. Hasegawa, M. Ishida, T. Nakajima, 
 Y. Honda, O. Kitao, H. Nakai, T. Vreven, J. A. Montgomery, Jr., 
 J. E. Peralta, F. Ogliaro, M. Bearpark, J. J. Heyd, E. Brothers, 
 K. N. Kudin, V. N. Staroverov, T. Keith, R. Kobayashi, J. Normand, 
 K. Raghavachari, A. Rendell, J. C. Burant, S. S. Iyengar, J. Tomasi, 
 M. Cossi, N. Rega, J. M. Millam, M. Klene, J. E. Knox, J. B. Cross, 
 V. Bakken, C. Adamo, J. Jaramillo, R. Gomperts, R. E. Stratmann, 
 O. Yazyev, A. J. Austin, R. Cammi, C. Pomelli, J. W. Ochterski, 
 R. L. Martin, K. Morokuma, V. G. Zakrzewski, G. A. Voth, 
 P. Salvador, J. J. Dannenberg, S. Dapprich, A. D. Daniels, 
 O. Farkas, J. B. Foresman, J. V. Ortiz, J. Cioslowski, 
 and D. J. Fox, Gaussian, Inc., Wallingford CT, 2013.
 
 ******************************************
 Gaussian 09:  EM64L-G09RevE.01 30-Nov-2015
                 1-Mar-2019 
 ******************************************
 %NProcShared=4
 Will use up to    4 processors via shared memory.
 ------------------------------------------------------
 #p b3lyp/6-311++G(3df,2p) freq IOp(2/17=3) IOp(2/18=3)
 ------------------------------------------------------
 1/10=4,30=1,38=1/1,3;
 2/12=2,17=3,18=3,40=1/2;
 3/5=4,6=6,7=1216,11=2,16=1,25=1,30=1,71=2,74=-5,140=1/1,2,3;
 4//1;
 5/5=2,38=5,98=1/2;
 8/6=4,10=90,11=11/1;
 11/6=1,8=1,9=11,15=111,16=1/1,2,10;
 10/6=1/2;
 6/7=2,8=2,9=2,10=2,18=1,28=1/1;
 7/8=1,10=1,25=1/1,2,3,16;
 1/10=4,30=1/3;
 99//99;
 Leave Link    1 at Fri Mar  1 08:36:55 2019, MaxMem=           0 cpu:         0.2
 (Enter /home/proyectos/fulerenos/M3C-v2.0/M3C-deps_CCC/g09-AM64L-G09RevC.01/l101.exe)
 ---------
 b3lyp opt
 ---------
 Symbolic Z-matrix:
 Charge =  0 Multiplicity = 1
 C                     0.74569   0.23462  -0.5864 
 C                    -0.31059  -0.20934   0.04439 
 H                     1.65488  -0.34469  -0.57795 
 H                     0.69825   1.17606  -1.10959 
 O                    -1.24645  -0.60274   0.6033 
 
 NAtoms=      5 NQM=        5 NQMF=       0 NMMI=      0 NMMIF=      0
                NMic=       0 NMicF=      0.
                    Isotopes and Nuclear Properties:
 (Nuclear quadrupole moments (NQMom) in fm**2, nuclear magnetic moments (NMagM)
  in nuclear magnetons)

  Atom         1           2           3           4           5
 IAtWgt=          12          12           1           1          16
 AtmWgt=  12.0000000  12.0000000   1.0078250   1.0078250  15.9949146
 NucSpn=           0           0           1           1           0
 AtZEff=   0.0000000   0.0000000   0.0000000   0.0000000   0.0000000
 NQMom=    0.0000000   0.0000000   0.0000000   0.0000000   0.0000000
 NMagM=    0.0000000   0.0000000   2.7928460   2.7928460   0.0000000
 AtZNuc=   6.0000000   6.0000000   1.0000000   1.0000000   8.0000000
 Leave Link  101 at Fri Mar  1 08:36:55 2019, MaxMem=    33554432 cpu:         0.3
 (Enter /home/proyectos/fulerenos/M3C-v2.0/M3C-deps_CCC/g09-AM64L-G09RevC.01/l103.exe)

 GradGradGradGradGradGradGradGradGradGradGradGradGradGradGradGradGradGrad
 Berny optimization.
 Initialization pass.
 Trust Radius=3.00D-01 FncErr=1.00D-07 GrdErr=1.00D-07
 Number of steps in this run=      2 maximum allowed number of steps=      2.
 GradGradGradGradGradGradGradGradGradGradGradGradGradGradGradGradGradGrad

 Leave Link  103 at Fri Mar  1 08:36:55 2019, MaxMem=    33554432 cpu:         0.1
 (Enter /home/proyectos/fulerenos/M3C-v2.0/M3C-deps_CCC/g09-AM64L-G09RevC.01/l202.exe)
                          Input orientation:                          
 ---------------------------------------------------------------------
 Center     Atomic      Atomic             Coordinates (Angstroms)
 Number     Number       Type             X           Y           Z
 ---------------------------------------------------------------------
      1          6           0        0.745686    0.234619   -0.586401
      2          6           0       -0.310591   -0.209341    0.044385
      3          1           0        1.654883   -0.344690   -0.577945
      4          1           0        0.698252    1.176064   -1.109590
      5          8           0       -1.246451   -0.602735    0.603300
 ---------------------------------------------------------------------
                    Distance matrix (angstroms):
                    1          2          3          4          5
     1  C    0.000000
     2  C    1.307942   0.000000
     3  H    1.078105   2.066084   0.000000
     4  H    1.078098   2.066100   1.873628   0.000000
     5  O    2.466812   1.158870   3.143194   3.143245   0.000000
 Stoichiometry    C2H2O
 Framework group  C2V[C2(CCO),SGV(H2)]
 Deg. of freedom     4
 Full point group                 C2V     NOp   4
 Largest Abelian subgroup         C2V     NOp   4
 Largest concise Abelian subgroup C2      NOp   2
                         Standard orientation:                         
 ---------------------------------------------------------------------
 Center     Atomic      Atomic             Coordinates (Angstroms)
 Number     Number       Type             X           Y           Z
 ---------------------------------------------------------------------
      1          6           0        0.000000    0.000000   -1.205229
      2          6           0       -0.000000   -0.000000    0.102713
      3          1           0        0.000000    0.936840   -1.738752
      4          1           0       -0.000000   -0.936840   -1.738752
      5          8           0       -0.000000   -0.000000    1.261583
 ---------------------------------------------------------------------
 Rotational constants (GHZ):    285.6743765     10.3505321      9.9886250
 Leave Link  202 at Fri Mar  1 08:36:55 2019, MaxMem=    33554432 cpu:         0.0
 (Enter /home/proyectos/fulerenos/M3C-v2.0/M3C-deps_CCC/g09-AM64L-G09RevC.01/l301.exe)
 Standard basis: 6-311++G(3df,2p) (5D, 7F)
 Ernie: Thresh=  0.10000D-02 Tol=  0.10000D-05 Strict=F.
 There are    71 symmetry adapted cartesian basis functions of A1  symmetry.
 There are    14 symmetry adapted cartesian basis functions of A2  symmetry.
 There are    32 symmetry adapted cartesian basis functions of B1  symmetry.
 There are    38 symmetry adapted cartesian basis functions of B2  symmetry.
 There are    59 symmetry adapted basis functions of A1  symmetry.
 There are    14 symmetry adapted basis functions of A2  symmetry.
 There are    29 symmetry adapted basis functions of B1  symmetry.
 There are    35 symmetry adapted basis functions of B2  symmetry.
   137 basis functions,   198 primitive gaussians,   155 cartesian basis functions
    11 alpha electrons       11 beta electrons
       nuclear repulsion energy        58.7201189590 Hartrees.
 IExCor=  402 DFT=T Ex+Corr=B3LYP ExCW=0 ScaHFX=  0.200000
 ScaDFX=  0.800000  0.720000  1.000000  0.810000 ScalE2=  1.000000  1.000000
 IRadAn=      0 IRanWt=     -1 IRanGd=            0 ICorTp=0 IEmpDi=  4
 NAtoms=    5 NActive=    5 NUniq=    4 SFac= 1.56D+00 NAtFMM=   60 NAOKFM=F Big=F
 Integral buffers will be    131072 words long.
 Raffenetti 2 integral format.
 Two-electron integral symmetry is turned on.
 Leave Link  301 at Fri Mar  1 08:36:55 2019, MaxMem=    33554432 cpu:         0.3
 (Enter /home/proyectos/fulerenos/M3C-v2.0/M3C-deps_CCC/g09-AM64L-G09RevC.01/l302.exe)
 NPDir=0 NMtPBC=     1 NCelOv=     1 NCel=       1 NClECP=     1 NCelD=      1
         NCelK=      1 NCelE2=     1 NClLst=     1 CellRange=     0.0.
 One-electron integrals computed using PRISM.
 One-electron integral symmetry used in STVInt
 NBasis=   137 RedAO= T EigKep=  7.78D-05  NBF=    59    14    29    35
 NBsUse=   137 1.00D-06 EigRej= -1.00D+00 NBFU=    59    14    29    35
 Precomputing XC quadrature grid using
 IXCGrd= 4 IRadAn=           0 IRanWt=          -1 IRanGd=           0 AccXCQ= 0.00D+00.
 Generated NRdTot=       0 NPtTot=           0 NUsed=           0 NTot=          32
 NSgBfM=   155   155   155   155   155 MxSgAt=     5 MxSgA2=     5.
 Leave Link  302 at Fri Mar  1 08:36:55 2019, MaxMem=    33554432 cpu:         1.2
 (Enter /home/proyectos/fulerenos/M3C-v2.0/M3C-deps_CCC/g09-AM64L-G09RevC.01/l303.exe)
 DipDrv:  MaxL=1.
 Leave Link  303 at Fri Mar  1 08:36:55 2019, MaxMem=    33554432 cpu:         0.1
 (Enter /home/proyectos/fulerenos/M3C-v2.0/M3C-deps_CCC/g09-AM64L-G09RevC.01/l401.exe)
 ExpMin= 3.60D-02 ExpMax= 8.59D+03 ExpMxC= 1.30D+03 IAcc=3 IRadAn=         5 AccDes= 0.00D+00
 Harris functional with IExCor=  402 and IRadAn=       5 diagonalized for initial guess.
 HarFok:  IExCor=  402 AccDes= 0.00D+00 IRadAn=         5 IDoV= 1 UseB2=F ITyADJ=14
 ICtDFT=  3500011 ScaDFX=  1.000000  1.000000  1.000000  1.000000
 FoFCou: FMM=F IPFlag=           0 FMFlag=      100000 FMFlg1=           0
         NFxFlg=           0 DoJE=T BraDBF=F KetDBF=T FulRan=T
         wScrn=  0.000000 ICntrl=     500 IOpCl=  0 I1Cent=   200000004 NGrid=           0
         NMat0=    1 NMatS0=      1 NMatT0=    0 NMatD0=    1 NMtDS0=    0 NMtDT0=    0
 Petite list used in FoFCou.
 Harris En= -152.696286073106    
 JPrj=0 DoOrth=F DoCkMO=F.
 Initial guess orbital symmetries:
       Occupied  (A1) (A1) (A1) (A1) (A1) (A1) (A1) (B2) (B1) (B2)
                 (B1)
       Virtual   (B2) (B1) (A1) (B2) (A1) (B1) (A1) (B2) (A1) (B1)
                 (A1) (B2) (A1) (A1) (B2) (A2) (B1) (A1) (B2) (A1)
                 (A1) (A1) (A1) (A2) (B2) (B1) (B1) (A1) (B2) (A1)
                 (B1) (B2) (B2) (A1) (A1) (A1) (B1) (B2) (A2) (B1)
                 (A1) (B2) (B1) (A1) (A2) (A1) (A1) (B2) (A1) (A1)
                 (B2) (B1) (A2) (B2) (B1) (A1) (A1) (B2) (A2) (A1)
                 (A1) (A1) (B1) (B2) (A1) (B2) (B1) (A2) (B2) (B1)
                 (A1) (B1) (B2) (A1) (B1) (B1) (B2) (A1) (B2) (A2)
                 (A1) (B2) (A2) (A1) (B2) (A1) (B1) (A1) (A1) (B1)
                 (A1) (A2) (B2) (B1) (A1) (B2) (B1) (B2) (B1) (A1)
                 (B2) (A2) (B2) (A1) (A1) (B1) (B2) (A1) (A2) (A1)
                 (A2) (B1) (A1) (B2) (B1) (A1) (B2) (A1) (A2) (A1)
                 (B1) (B2) (A1) (A1) (A1) (A1)
 The electronic state of the initial guess is 1-A1.
 Leave Link  401 at Fri Mar  1 08:36:56 2019, MaxMem=    33554432 cpu:         1.9
 (Enter /home/proyectos/fulerenos/M3C-v2.0/M3C-deps_CCC/g09-AM64L-G09RevC.01/l502.exe)
 Closed shell SCF:
 Using DIIS extrapolation, IDIIS=  1040.
 Integral symmetry usage will be decided dynamically.
 IVT=       92937 IEndB=       92937 NGot=    33554432 MDV=    33502316
 LenX=    33502316 LenY=    33477850
 Requested convergence on RMS density matrix=1.00D-08 within 128 cycles.
 Requested convergence on MAX density matrix=1.00D-06.
 Requested convergence on             energy=1.00D-06.
 No special actions if energy rises.
 Fock matrices will be formed incrementally for  20 cycles.

 Cycle   1  Pass 1  IDiag  1:
 FoFJK:  IHMeth= 1 ICntrl=       0 DoSepK=F KAlg= 0 I1Cent=   0 FoldK=F
 IRaf= 990000000 NMat=   1 IRICut=       1 DoRegI=T DoRafI=F ISym2E= 1.
 FoFCou: FMM=F IPFlag=           0 FMFlag=      100000 FMFlg1=           0
         NFxFlg=           0 DoJE=F BraDBF=F KetDBF=F FulRan=T
         wScrn=  0.000000 ICntrl=       0 IOpCl=  0 I1Cent=           0 NGrid=           0
         NMat0=    1 NMatS0=      1 NMatT0=    0 NMatD0=    1 NMtDS0=    0 NMtDT0=    0
 Petite list used in FoFCou.
 E= -152.554805937340    
 DIIS: error= 5.32D-02 at cycle   1 NSaved=   1.
 NSaved= 1 IEnMin= 1 EnMin= -152.554805937340     IErMin= 1 ErrMin= 5.32D-02
 ErrMax= 5.32D-02  0.00D+00 EMaxC= 1.00D-01 BMatC= 1.33D-01 BMatP= 1.33D-01
 IDIUse=3 WtCom= 4.68D-01 WtEn= 5.32D-01
 Coeff-Com:  0.100D+01
 Coeff-En:   0.100D+01
 Coeff:      0.100D+01
 Gap=     0.121 Goal=   None    Shift=    0.000
 GapD=    0.121 DampG=1.000 DampE=0.500 DampFc=0.5000 IDamp=-1.
 Damping current iteration by 5.00D-01
 RMSDP=3.94D-03 MaxDP=1.41D-01              OVMax= 2.51D-01

 Cycle   2  Pass 1  IDiag  1:
 RMSU=  1.93D-03    CP:  9.75D-01
 E= -152.598524657525     Delta-E=       -0.043718720185 Rises=F Damp=T
 DIIS: error= 7.83D-03 at cycle   2 NSaved=   2.
 NSaved= 2 IEnMin= 2 EnMin= -152.598524657525     IErMin= 2 ErrMin= 7.83D-03
 ErrMax= 7.83D-03  0.00D+00 EMaxC= 1.00D-01 BMatC= 7.81D-03 BMatP= 1.33D-01
 IDIUse=3 WtCom= 9.22D-01 WtEn= 7.83D-02
 Coeff-Com:  0.111D+00 0.889D+00
 Coeff-En:   0.213D+00 0.787D+00
 Coeff:      0.119D+00 0.881D+00
 Gap=     0.204 Goal=   None    Shift=    0.000
 RMSDP=1.05D-03 MaxDP=4.33D-02 DE=-4.37D-02 OVMax= 1.57D-01

 Cycle   3  Pass 1  IDiag  1:
 RMSU=  8.46D-04    CP:  9.47D-01  7.70D-01
 E= -152.658981480775     Delta-E=       -0.060456823250 Rises=F Damp=F
 DIIS: error= 9.24D-03 at cycle   3 NSaved=   3.
 NSaved= 3 IEnMin= 3 EnMin= -152.658981480775     IErMin= 2 ErrMin= 7.83D-03
 ErrMax= 9.24D-03  0.00D+00 EMaxC= 1.00D-01 BMatC= 4.08D-03 BMatP= 7.81D-03
 IDIUse=3 WtCom= 9.08D-01 WtEn= 9.24D-02
 Coeff-Com:  0.155D-01 0.413D+00 0.572D+00
 Coeff-En:   0.000D+00 0.000D+00 0.100D+01
 Coeff:      0.141D-01 0.375D+00 0.611D+00
 Gap=     0.208 Goal=   None    Shift=    0.000
 RMSDP=4.94D-04 MaxDP=1.97D-02 DE=-6.05D-02 OVMax= 2.75D-02

 Cycle   4  Pass 1  IDiag  1:
 RMSU=  2.71D-04    CP:  9.59D-01  8.06D-01  5.84D-01
 E= -152.661946570221     Delta-E=       -0.002965089446 Rises=F Damp=F
 DIIS: error= 4.09D-03 at cycle   4 NSaved=   4.
 NSaved= 4 IEnMin= 4 EnMin= -152.661946570221     IErMin= 4 ErrMin= 4.09D-03
 ErrMax= 4.09D-03  0.00D+00 EMaxC= 1.00D-01 BMatC= 8.84D-04 BMatP= 4.08D-03
 IDIUse=3 WtCom= 9.59D-01 WtEn= 4.09D-02
 Coeff-Com:  0.321D-03 0.717D-01 0.334D+00 0.594D+00
 Coeff-En:   0.000D+00 0.000D+00 0.166D+00 0.834D+00
 Coeff:      0.308D-03 0.688D-01 0.327D+00 0.603D+00
 Gap=     0.206 Goal=   None    Shift=    0.000
 RMSDP=1.90D-04 MaxDP=5.93D-03 DE=-2.97D-03 OVMax= 1.04D-02

 Cycle   5  Pass 1  IDiag  1:
 RMSU=  1.11D-04    CP:  9.55D-01  8.12D-01  7.10D-01  7.06D-01
 E= -152.662459370636     Delta-E=       -0.000512800416 Rises=F Damp=F
 DIIS: error= 2.96D-03 at cycle   5 NSaved=   5.
 NSaved= 5 IEnMin= 5 EnMin= -152.662459370636     IErMin= 5 ErrMin= 2.96D-03
 ErrMax= 2.96D-03  0.00D+00 EMaxC= 1.00D-01 BMatC= 2.88D-04 BMatP= 8.84D-04
 IDIUse=3 WtCom= 9.70D-01 WtEn= 2.96D-02
 Coeff-Com: -0.242D-02 0.849D-02 0.184D+00 0.451D+00 0.359D+00
 Coeff-En:   0.000D+00 0.000D+00 0.000D+00 0.224D+00 0.776D+00
 Coeff:     -0.235D-02 0.824D-02 0.179D+00 0.444D+00 0.371D+00
 Gap=     0.208 Goal=   None    Shift=    0.000
 RMSDP=7.11D-05 MaxDP=1.75D-03 DE=-5.13D-04 OVMax= 6.95D-03

 Cycle   6  Pass 1  IDiag  1:
 RMSU=  2.94D-05    CP:  9.54D-01  8.04D-01  7.17D-01  7.11D-01  4.45D-01
 E= -152.662696524943     Delta-E=       -0.000237154306 Rises=F Damp=F
 DIIS: error= 1.37D-04 at cycle   6 NSaved=   6.
 NSaved= 6 IEnMin= 6 EnMin= -152.662696524943     IErMin= 6 ErrMin= 1.37D-04
 ErrMax= 1.37D-04  0.00D+00 EMaxC= 1.00D-01 BMatC= 1.02D-06 BMatP= 2.88D-04
 IDIUse=3 WtCom= 9.99D-01 WtEn= 1.37D-03
 Coeff-Com: -0.240D-03-0.100D-02 0.178D-01 0.687D-01 0.923D-01 0.822D+00
 Coeff-En:   0.000D+00 0.000D+00 0.000D+00 0.000D+00 0.000D+00 0.100D+01
 Coeff:     -0.240D-03-0.100D-02 0.178D-01 0.686D-01 0.921D-01 0.823D+00
 Gap=     0.208 Goal=   None    Shift=    0.000
 RMSDP=5.10D-06 MaxDP=1.18D-04 DE=-2.37D-04 OVMax= 6.20D-04

 Cycle   7  Pass 1  IDiag  1:
 RMSU=  2.55D-06    CP:  9.54D-01  8.04D-01  7.15D-01  7.19D-01  4.74D-01
                    CP:  9.42D-01
 E= -152.662697621699     Delta-E=       -0.000001096756 Rises=F Damp=F
 DIIS: error= 1.87D-05 at cycle   7 NSaved=   7.
 NSaved= 7 IEnMin= 7 EnMin= -152.662697621699     IErMin= 7 ErrMin= 1.87D-05
 ErrMax= 1.87D-05  0.00D+00 EMaxC= 1.00D-01 BMatC= 1.38D-08 BMatP= 1.02D-06
 IDIUse=1 WtCom= 1.00D+00 WtEn= 0.00D+00
 Coeff-Com:  0.110D-03-0.410D-03-0.800D-03 0.263D-02 0.308D-02 0.115D+00
 Coeff-Com:  0.881D+00
 Coeff:      0.110D-03-0.410D-03-0.800D-03 0.263D-02 0.308D-02 0.115D+00
 Coeff:      0.881D+00
 Gap=     0.208 Goal=   None    Shift=    0.000
 RMSDP=8.17D-07 MaxDP=2.37D-05 DE=-1.10D-06 OVMax= 6.80D-05

 Cycle   8  Pass 1  IDiag  1:
 RMSU=  4.27D-07    CP:  9.54D-01  8.03D-01  7.15D-01  7.20D-01  4.71D-01
                    CP:  9.57D-01  9.95D-01
 E= -152.662697636878     Delta-E=       -0.000000015179 Rises=F Damp=F
 DIIS: error= 3.57D-06 at cycle   8 NSaved=   8.
 NSaved= 8 IEnMin= 8 EnMin= -152.662697636878     IErMin= 8 ErrMin= 3.57D-06
 ErrMax= 3.57D-06  0.00D+00 EMaxC= 1.00D-01 BMatC= 3.96D-10 BMatP= 1.38D-08
 IDIUse=1 WtCom= 1.00D+00 WtEn= 0.00D+00
 Coeff-Com:  0.285D-04-0.702D-04-0.342D-03-0.723D-03-0.748D-03-0.237D-02
 Coeff-Com:  0.147D+00 0.857D+00
 Coeff:      0.285D-04-0.702D-04-0.342D-03-0.723D-03-0.748D-03-0.237D-02
 Coeff:      0.147D+00 0.857D+00
 Gap=     0.208 Goal=   None    Shift=    0.000
 RMSDP=1.23D-07 MaxDP=4.29D-06 DE=-1.52D-08 OVMax= 1.32D-05

 Cycle   9  Pass 1  IDiag  1:
 RMSU=  7.59D-08    CP:  9.54D-01  8.03D-01  7.15D-01  7.20D-01  4.72D-01
                    CP:  9.57D-01  1.02D+00  9.53D-01
 E= -152.662697637280     Delta-E=       -0.000000000403 Rises=F Damp=F
 DIIS: error= 3.36D-07 at cycle   9 NSaved=   9.
 NSaved= 9 IEnMin= 9 EnMin= -152.662697637280     IErMin= 9 ErrMin= 3.36D-07
 ErrMax= 3.36D-07  0.00D+00 EMaxC= 1.00D-01 BMatC= 7.96D-12 BMatP= 3.96D-10
 IDIUse=1 WtCom= 1.00D+00 WtEn= 0.00D+00
 Coeff-Com: -0.309D-06 0.509D-06 0.348D-05-0.179D-03-0.314D-03-0.456D-02
 Coeff-Com: -0.166D-01 0.531D-01 0.969D+00
 Coeff:     -0.309D-06 0.509D-06 0.348D-05-0.179D-03-0.314D-03-0.456D-02
 Coeff:     -0.166D-01 0.531D-01 0.969D+00
 Gap=     0.208 Goal=   None    Shift=    0.000
 RMSDP=2.86D-08 MaxDP=1.08D-06 DE=-4.03D-10 OVMax= 1.74D-06

 Cycle  10  Pass 1  IDiag  1:
 RMSU=  1.26D-08    CP:  9.54D-01  8.03D-01  7.15D-01  7.20D-01  4.72D-01
                    CP:  9.57D-01  1.02D+00  9.75D-01  1.11D+00
 E= -152.662697637288     Delta-E=       -0.000000000008 Rises=F Damp=F
 DIIS: error= 8.07D-08 at cycle  10 NSaved=  10.
 NSaved=10 IEnMin=10 EnMin= -152.662697637288     IErMin=10 ErrMin= 8.07D-08
 ErrMax= 8.07D-08  0.00D+00 EMaxC= 1.00D-01 BMatC= 3.36D-13 BMatP= 7.96D-12
 IDIUse=1 WtCom= 1.00D+00 WtEn= 0.00D+00
 Coeff-Com: -0.296D-06 0.909D-06 0.109D-04 0.161D-04-0.159D-04-0.624D-04
 Coeff-Com: -0.412D-02-0.164D-01 0.383D-01 0.982D+00
 Coeff:     -0.296D-06 0.909D-06 0.109D-04 0.161D-04-0.159D-04-0.624D-04
 Coeff:     -0.412D-02-0.164D-01 0.383D-01 0.982D+00
 Gap=     0.208 Goal=   None    Shift=    0.000
 RMSDP=4.06D-09 MaxDP=1.53D-07 DE=-7.62D-12 OVMax= 3.54D-07

 SCF Done:  E(RB3LYP) =  -152.662697637     A.U. after   10 cycles
            NFock= 10  Conv=0.41D-08     -V/T= 2.0040
 KE= 1.520492250186D+02 PE=-4.745465834980D+02 EE= 1.111145418831D+02
 Leave Link  502 at Fri Mar  1 08:37:08 2019, MaxMem=    33554432 cpu:        49.7
 (Enter /home/proyectos/fulerenos/M3C-v2.0/M3C-deps_CCC/g09-AM64L-G09RevC.01/l801.exe)
 DoSCS=F DFT=T ScalE2(SS,OS)=  1.000000  1.000000
 Range of M.O.s used for correlation:     1   137
 NBasis=   137 NAE=    11 NBE=    11 NFC=     0 NFV=     0
 NROrb=    137 NOA=    11 NOB=    11 NVA=   126 NVB=   126

 **** Warning!!: The largest alpha MO coefficient is  0.54871128D+02

 Leave Link  801 at Fri Mar  1 08:37:08 2019, MaxMem=    33554432 cpu:         0.1
 (Enter /home/proyectos/fulerenos/M3C-v2.0/M3C-deps_CCC/g09-AM64L-G09RevC.01/l1101.exe)
 Using compressed storage, NAtomX=     5.
 Will process      6 centers per pass.
 Leave Link 1101 at Fri Mar  1 08:37:09 2019, MaxMem=    33554432 cpu:         1.2
 (Enter /home/proyectos/fulerenos/M3C-v2.0/M3C-deps_CCC/g09-AM64L-G09RevC.01/l1102.exe)
 Symmetrizing basis deriv contribution to polar:
 IMax=3 JMax=2 DiffMx= 0.00D+00
 Leave Link 1102 at Fri Mar  1 08:37:09 2019, MaxMem=    33554432 cpu:         0.1
 (Enter /home/proyectos/fulerenos/M3C-v2.0/M3C-deps_CCC/g09-AM64L-G09RevC.01/l1110.exe)
 Forming Gx(P) for the SCF density, NAtomX=     5.
 Integral derivatives from FoFJK, PRISM(SPDF).
 Do as many integral derivatives as possible in FoFJK.
 G2DrvN: MDV=      33554288.
 G2DrvN: will do     6 centers at a time, making    1 passes.
 Calling FoFCou, ICntrl=  3107 FMM=F I1Cent=   0 AccDes= 0.00D+00.
 FoFJK:  IHMeth= 1 ICntrl=    3107 DoSepK=F KAlg= 0 I1Cent=   0 FoldK=F
 IRaf=         0 NMat=   1 IRICut=       1 DoRegI=T DoRafI=F ISym2E= 1.
 FoFCou: FMM=F IPFlag=           0 FMFlag=      100000 FMFlg1=           0
         NFxFlg=           0 DoJE=F BraDBF=F KetDBF=F FulRan=T
         wScrn=  0.000000 ICntrl=    3107 IOpCl=  0 I1Cent=           0 NGrid=           0
         NMat0=    1 NMatS0=      1 NMatT0=    0 NMatD0=    1 NMtDS0=    0 NMtDT0=    0
 Petite list used in FoFCou.
 End of G2Drv F.D. properties file   721 does not exist.
 End of G2Drv F.D. properties file   722 does not exist.
 End of G2Drv F.D. properties file   788 does not exist.
 Leave Link 1110 at Fri Mar  1 08:37:16 2019, MaxMem=    33554432 cpu:        30.0
 (Enter /home/proyectos/fulerenos/M3C-v2.0/M3C-deps_CCC/g09-AM64L-G09RevC.01/l1002.exe)
 Minotr:  Closed shell wavefunction.
          IDoAtm=11111
          Direct CPHF calculation.
          Differentiating once with respect to electric field.
                with respect to dipole field.
          Differentiating once with respect to nuclear coordinates.
          Using symmetry in CPHF.
          Requested convergence is 1.0D-08 RMS, and 1.0D-07 maximum.
          Secondary convergence is 1.0D-12 RMS, and 1.0D-12 maximum.
          NewPWx=T KeepS1=F KeepF1=F KeepIn=T MapXYZ=F SortEE=F KeepMc=T.
          MDV=      33554241 using IRadAn=       2.
 Generate precomputed XC quadrature information.
          Solving linear equations simultaneously, MaxMat=       0.
 FoFJK:  IHMeth= 1 ICntrl=       0 DoSepK=F KAlg= 0 I1Cent=   0 FoldK=F
 IRaf= 990000000 NMat=  15 IRICut=      37 DoRegI=T DoRafI=T ISym2E= 2.
 FoFCou: FMM=F IPFlag=           0 FMFlag=      100000 FMFlg1=           0
         NFxFlg=           0 DoJE=F BraDBF=F KetDBF=F FulRan=T
         wScrn=  0.000000 ICntrl=       0 IOpCl=  0 I1Cent=           0 NGrid=           0
         NMat0=   15 NMatS0=     15 NMatT0=    0 NMatD0=   15 NMtDS0=    0 NMtDT0=    0
 Integrals replicated using symmetry in FoFCou.
          There are    15 degrees of freedom in the 1st order CPHF.  IDoFFX=4 NUNeed=    15.
     15 vectors produced by pass  0 Test12= 9.24D-15 6.67D-09 XBig12= 5.03D+01 5.07D+00.
 AX will form    15 AO Fock derivatives at one time.
     15 vectors produced by pass  1 Test12= 9.24D-15 6.67D-09 XBig12= 1.50D+01 1.25D+00.
     15 vectors produced by pass  2 Test12= 9.24D-15 6.67D-09 XBig12= 2.38D-01 1.00D-01.
     15 vectors produced by pass  3 Test12= 9.24D-15 6.67D-09 XBig12= 1.59D-03 1.31D-02.
     15 vectors produced by pass  4 Test12= 9.24D-15 6.67D-09 XBig12= 5.29D-06 7.55D-04.
     11 vectors produced by pass  5 Test12= 9.24D-15 6.67D-09 XBig12= 1.34D-08 2.50D-05.
      5 vectors produced by pass  6 Test12= 9.24D-15 6.67D-09 XBig12= 2.34D-11 1.19D-06.
      1 vectors produced by pass  7 Test12= 9.24D-15 6.67D-09 XBig12= 4.48D-14 5.54D-08.
 InvSVY:  IOpt=1 It=  1 EMax= 3.55D-15
 Solved reduced A of dimension    92 with    15 vectors.
 FullF1:  Do perturbations    1 to    15.
 Isotropic polarizability for W=    0.000000       28.36 Bohr**3.
 End of Minotr F.D. properties file   721 does not exist.
 End of Minotr F.D. properties file   722 does not exist.
 End of Minotr F.D. properties file   788 does not exist.
 Leave Link 1002 at Fri Mar  1 08:37:46 2019, MaxMem=    33554432 cpu:       120.4
 (Enter /home/proyectos/fulerenos/M3C-v2.0/M3C-deps_CCC/g09-AM64L-G09RevC.01/l601.exe)
 Copying SCF densities to generalized density rwf, IOpCl= 0 IROHF=0.

 **********************************************************************

            Population analysis using the SCF density.

 **********************************************************************

 Orbital symmetries:
       Occupied  (A1) (A1) (A1) (A1) (A1) (A1) (A1) (B2) (B1) (B2)
                 (B1)
       Virtual   (B2) (A1) (B2) (A1) (B1) (B1) (A1) (B2) (A1) (B1)
                 (A1) (B2) (A1) (A1) (B2) (B1) (A2) (B2) (A1) (A1)
                 (A1) (A1) (A1) (A2) (B2) (B1) (B1) (A1) (B2) (A1)
                 (B1) (B2) (B2) (A1) (A1) (B1) (B2) (A1) (A2) (B1)
                 (A1) (B2) (B1) (A1) (A2) (A1) (A1) (B2) (A1) (B2)
                 (A1) (B1) (A2) (B2) (A1) (B1) (A1) (B2) (A2) (A1)
                 (A1) (A1) (B1) (B2) (A1) (B2) (B1) (A2) (B2) (B1)
                 (B2) (B1) (A1) (A1) (B1) (B1) (A1) (B2) (B2) (A2)
                 (A1) (B2) (A2) (A1) (B2) (A1) (B1) (A1) (A1) (B1)
                 (A1) (A2) (B2) (B1) (A1) (B2) (B1) (B2) (A1) (B1)
                 (A2) (B2) (B2) (A1) (A1) (B1) (B2) (A1) (A2) (A1)
                 (A2) (B1) (B2) (A1) (B1) (A1) (B2) (A1) (A2) (A1)
                 (B1) (B2) (A1) (A1) (A1) (A1)
 The electronic state is 1-A1.
 Alpha  occ. eigenvalues --  -19.19562 -10.30039 -10.18303  -1.12920  -0.78708
 Alpha  occ. eigenvalues --   -0.54983  -0.49966  -0.49711  -0.46336  -0.41713
 Alpha  occ. eigenvalues --   -0.25536
 Alpha virt. eigenvalues --   -0.04725  -0.00986   0.02553   0.03140   0.03272
 Alpha virt. eigenvalues --    0.06840   0.08045   0.08776   0.10325   0.10943
 Alpha virt. eigenvalues --    0.13412   0.13969   0.14455   0.21949   0.23430
 Alpha virt. eigenvalues --    0.25506   0.25802   0.27977   0.27999   0.31250
 Alpha virt. eigenvalues --    0.34466   0.36489   0.40606   0.41666   0.45638
 Alpha virt. eigenvalues --    0.46787   0.48910   0.50783   0.52916   0.62720
 Alpha virt. eigenvalues --    0.64343   0.65355   0.68960   0.70690   0.76747
 Alpha virt. eigenvalues --    0.81126   0.82000   0.83949   0.88337   0.95025
 Alpha virt. eigenvalues --    0.99226   1.01028   1.02163   1.06096   1.08754
 Alpha virt. eigenvalues --    1.11620   1.17098   1.21764   1.29972   1.35474
 Alpha virt. eigenvalues --    1.36875   1.41248   1.44964   1.47631   1.53159
 Alpha virt. eigenvalues --    1.57114   1.58840   1.73017   1.74840   1.97062
 Alpha virt. eigenvalues --    2.08513   2.17321   2.18846   2.35098   2.58853
 Alpha virt. eigenvalues --    2.67879   2.69269   2.70240   2.70445   2.78991
 Alpha virt. eigenvalues --    2.84959   2.85048   2.86390   2.88534   3.04749
 Alpha virt. eigenvalues --    3.10334   3.10548   3.12026   3.15695   3.31268
 Alpha virt. eigenvalues --    3.40668   3.56259   3.61782   3.66835   3.86214
 Alpha virt. eigenvalues --    3.87607   3.88825   3.98444   4.14524   4.17359
 Alpha virt. eigenvalues --    4.23570   4.34625   4.60358   4.84008   4.98961
 Alpha virt. eigenvalues --    5.00441   5.00601   5.11156   5.44840   5.45129
 Alpha virt. eigenvalues --    5.52356   5.52442   5.57066   5.64473   5.89791
 Alpha virt. eigenvalues --    6.60731   6.69103   6.74733   6.89989   6.92367
 Alpha virt. eigenvalues --    7.08562   7.20081   7.37132   7.42433   7.60113
 Alpha virt. eigenvalues --    7.71641   8.05860   8.73080  14.26589  14.27593
 Alpha virt. eigenvalues --   14.81022  14.82538  15.07986  24.77623  25.95189
 Alpha virt. eigenvalues --   50.62776
          Condensed to atoms (all electrons):
               1          2          3          4          5
     1  C    6.058037  -0.748789   0.494379   0.494379   0.044072
     2  C   -0.748789   6.342102  -0.109554  -0.109554   0.029605
     3  H    0.494379  -0.109554   0.483254  -0.032917  -0.002258
     4  H    0.494379  -0.109554  -0.032917   0.483254  -0.002258
     5  O    0.044072   0.029605  -0.002258  -0.002258   8.519146
 Mulliken charges:
               1
     1  C   -0.342079
     2  C    0.596191
     3  H    0.167097
     4  H    0.167097
     5  O   -0.588307
 Sum of Mulliken charges =  -0.00000
 Mulliken charges with hydrogens summed into heavy atoms:
               1
     1  C   -0.007884
     2  C    0.596191
     5  O   -0.588307
 APT charges:
               1
     1  C   -0.533639
     2  C    0.944535
     3  H    0.133429
     4  H    0.133429
     5  O   -0.677754
 Sum of APT charges =  -0.00000
 APT charges with hydrogens summed into heavy atoms:
               1
     1  C   -0.266781
     2  C    0.944535
     5  O   -0.677754
 Electronic spatial extent (au):  <R**2>=            143.9797
 Charge=             -0.0000 electrons
 Dipole moment (field-independent basis, Debye):
    X=             -0.0000    Y=             -0.0000    Z=             -1.5201  Tot=              1.5201
 Quadrupole moment (field-independent basis, Debye-Ang):
   XX=            -19.1535   YY=            -15.4769   ZZ=            -18.2293
   XY=              0.0000   XZ=              0.0000   YZ=              0.0000
 Traceless Quadrupole moment (field-independent basis, Debye-Ang):
   XX=             -1.5336   YY=              2.1430   ZZ=             -0.6094
   XY=              0.0000   XZ=              0.0000   YZ=              0.0000
 Octapole moment (field-independent basis, Debye-Ang**2):
  XXX=              0.0000  YYY=             -0.0000  ZZZ=             -0.7929  XYY=             -0.0000
  XXY=             -0.0000  XXZ=              4.1683  XZZ=             -0.0000  YZZ=             -0.0000
  YYZ=             -0.1923  XYZ=             -0.0000
 Hexadecapole moment (field-independent basis, Debye-Ang**3):
 XXXX=            -22.2052 YYYY=            -21.4111 ZZZZ=           -139.6507 XXXY=             -0.0000
 XXXZ=              0.0000 YYYX=             -0.0000 YYYZ=              0.0000 ZZZX=              0.0000
 ZZZY=              0.0000 XXYY=             -7.7325 XXZZ=            -30.6692 YYZZ=            -23.0225
 XXYZ=              0.0000 YYXZ=              0.0000 ZZXY=              0.0000
 N-N= 5.872011895902D+01 E-N=-4.745465818523D+02  KE= 1.520492250186D+02
 Symmetry A1   KE= 1.392814326048D+02
 Symmetry A2   KE= 1.009850094119D-29
 Symmetry B1   KE= 6.732343040146D+00
 Symmetry B2   KE= 6.035449373653D+00
  Exact polarizability:  22.284   0.000  20.845   0.000  -0.000  41.965
 Approx polarizability:  28.547   0.000  28.578  -0.000   0.000  72.016
 No NMR shielding tensors so no spin-rotation constants.
 Leave Link  601 at Fri Mar  1 08:37:47 2019, MaxMem=    33554432 cpu:         1.1
 (Enter /home/proyectos/fulerenos/M3C-v2.0/M3C-deps_CCC/g09-AM64L-G09RevC.01/l701.exe)
 Compute integral second derivatives.
 ... and contract with generalized density number  0.
 Leave Link  701 at Fri Mar  1 08:37:47 2019, MaxMem=    33554432 cpu:         1.6
 (Enter /home/proyectos/fulerenos/M3C-v2.0/M3C-deps_CCC/g09-AM64L-G09RevC.01/l702.exe)
 L702 exits ... SP integral derivatives will be done elsewhere.
 Leave Link  702 at Fri Mar  1 08:37:47 2019, MaxMem=    33554432 cpu:         0.1
 (Enter /home/proyectos/fulerenos/M3C-v2.0/M3C-deps_CCC/g09-AM64L-G09RevC.01/l703.exe)
 Compute integral second derivatives, UseDBF=F ICtDFT=           0.
 Integral derivatives from FoFJK, PRISM(SPDF).
 Calling FoFJK, ICntrl=    100127 FMM=F ISym2X=1 I1Cent= 0 IOpClX= 0 NMat=1 NMatS=1 NMatT=0.
 FoFJK:  IHMeth= 1 ICntrl=  100127 DoSepK=F KAlg= 0 I1Cent=   0 FoldK=F
 IRaf=         0 NMat=   1 IRICut=       1 DoRegI=T DoRafI=F ISym2E= 1.
 FoFCou: FMM=F IPFlag=           0 FMFlag=      100000 FMFlg1=         800
         NFxFlg=           0 DoJE=F BraDBF=F KetDBF=F FulRan=T
         wScrn=  0.000000 ICntrl=  100127 IOpCl=  0 I1Cent=           0 NGrid=           0
         NMat0=    1 NMatS0=      1 NMatT0=    0 NMatD0=    1 NMtDS0=    0 NMtDT0=    0
 Petite list used in FoFCou.
 Leave Link  703 at Fri Mar  1 08:38:04 2019, MaxMem=    33554432 cpu:        64.9
 (Enter /home/proyectos/fulerenos/M3C-v2.0/M3C-deps_CCC/g09-AM64L-G09RevC.01/l716.exe)
 Dipole        =-4.84034317D-17-1.29020586D-15-5.98039569D-01
 Polarizability= 2.22838844D+01 4.88167583D-09 2.08447774D+01
                 2.21745107D-11-1.12794165D-08 4.19648636D+01
 Full mass-weighted force constant matrix:
 Low frequencies ---  -40.4000   -5.2361   -0.0010   -0.0008    0.0015    5.1591
 Low frequencies ---  446.3775  552.1423  594.2660
 Diagonal vibrational polarizability:
        9.6528172       0.4804243       4.1291929
 Harmonic frequencies (cm**-1), IR intensities (KM/Mole), Raman scattering
 activities (A**4/AMU), depolarization ratios for plane and unpolarized
 incident light, reduced masses (AMU), force constants (mDyne/A),
 and normal coordinates:
                      1                      2                      3
                     B2                     B1                     B1
 Frequencies --    446.3775               552.1423               594.2659
 Red. masses --      2.1986                 5.9339                 1.3593
 Frc consts  --      0.2581                 1.0658                 0.2828
 IR Inten    --      2.4853                49.9757                68.7806
  Atom  AN      X      Y      Z        X      Y      Z        X      Y      Z
     1   6     0.00  -0.02   0.00    -0.35   0.00   0.00    -0.08  -0.00  -0.00
     2   6    -0.00   0.28   0.00     0.52   0.00  -0.00    -0.14   0.00   0.00
     3   1    -0.00  -0.36  -0.57     0.53  -0.00  -0.00     0.70  -0.00  -0.00
     4   1    -0.00  -0.36   0.57     0.53  -0.00   0.00     0.70  -0.00   0.00
     5   8     0.00  -0.15  -0.00    -0.19  -0.00  -0.00     0.07  -0.00   0.00
                      4                      5                      6
                     B2                     A1                     A1
 Frequencies --    989.6725              1171.4720              1411.4083
 Red. masses --      1.9279                 2.5733                 1.4814
 Frc consts  --      1.1125                 2.0807                 1.7387
 IR Inten    --      4.4448                 4.8047                17.9334
  Atom  AN      X      Y      Z        X      Y      Z        X      Y      Z
     1   6    -0.00  -0.18   0.00    -0.00  -0.00  -0.26    -0.00   0.00   0.19
     2   6     0.00   0.22  -0.00     0.00   0.00   0.06     0.00  -0.00   0.00
     3   1     0.00   0.21   0.64    -0.00  -0.19  -0.63     0.00  -0.43  -0.54
     4   1     0.00   0.21  -0.64    -0.00   0.19  -0.63     0.00   0.43  -0.54
     5   8    -0.00  -0.05  -0.00    -0.00  -0.00   0.23    -0.00   0.00  -0.07
                      7                      8                      9
                     A1                     A1                     B2
 Frequencies --   2218.3609              3176.2299              3268.4682
 Red. masses --     11.9644                 1.0555                 1.1172
 Frc consts  --     34.6900                 6.2739                 7.0317
 IR Inten    --    679.1608                29.5088                 8.9839
  Atom  AN      X      Y      Z        X      Y      Z        X      Y      Z
     1   6    -0.00  -0.00  -0.25    -0.00  -0.00   0.07    -0.00  -0.10  -0.00
     2   6     0.00  -0.00   0.83     0.00  -0.00  -0.01    -0.00  -0.00  -0.00
     3   1    -0.00   0.12  -0.14    -0.00   0.61  -0.35     0.00   0.60  -0.36
     4   1    -0.00  -0.12  -0.14    -0.00  -0.61  -0.35     0.00   0.60   0.36
     5   8    -0.00   0.00  -0.42    -0.00   0.00  -0.00     0.00  -0.00   0.00

 -------------------
 - Thermochemistry -
 -------------------
 Temperature   298.150 Kelvin.  Pressure   1.00000 Atm.
 Atom     1 has atomic number  6 and mass  12.00000
 Atom     2 has atomic number  6 and mass  12.00000
 Atom     3 has atomic number  1 and mass   1.00783
 Atom     4 has atomic number  1 and mass   1.00783
 Atom     5 has atomic number  8 and mass  15.99491
 Molecular mass:    42.01056 amu.
 Principal axes and moments of inertia in atomic units:
                           1         2         3
     Eigenvalues --     6.31748 174.36217 180.67964
           X           -0.00000   0.00000   1.00000
           Y           -0.00000   1.00000  -0.00000
           Z            1.00000   0.00000   0.00000
 This molecule is an asymmetric top.
 Rotational symmetry number  2.
 Rotational temperatures (Kelvin)     13.71019     0.49675     0.47938
 Rotational constants (GHZ):         285.67438    10.35053     9.98862
 Zero-point vibrational energy      82712.2 (Joules/Mol)
                                   19.76869 (Kcal/Mol)
 Warning -- explicit consideration of   3 degrees of freedom as
           vibrations may cause significant error
 Vibrational temperatures:    642.24   794.41   855.02  1423.92  1685.48
          (Kelvin)           2030.70  3191.72  4569.88  4702.59
 
 Zero-point correction=                           0.031503 (Hartree/Particle)
 Thermal correction to Energy=                    0.035019
 Thermal correction to Enthalpy=                  0.035963
 Thermal correction to Gibbs Free Energy=         0.008572
 Sum of electronic and zero-point Energies=           -152.631194
 Sum of electronic and thermal Energies=              -152.627679
 Sum of electronic and thermal Enthalpies=            -152.626735
 Sum of electronic and thermal Free Energies=         -152.654126
 
                     E (Thermal)             CV                S
                      KCal/Mol        Cal/Mol-Kelvin    Cal/Mol-Kelvin
 Total                   21.975             10.229             57.649
 Electronic               0.000              0.000              0.000
 Translational            0.889              2.981             37.133
 Rotational               0.889              2.981             18.549
 Vibrational             20.197              4.268              1.968
 Vibration     1          0.806              1.369              0.807
 Vibration     2          0.907              1.135              0.540
 Vibration     3          0.952              1.044              0.460
                       Q            Log10(Q)             Ln(Q)
 Total Bot       0.114086D-03         -3.942768         -9.078559
 Total V=0       0.352990D+11         10.547763         24.287121
 Vib (Bot)       0.422153D-14        -14.374530        -33.098579
 Vib (Bot)    1  0.385303D+00         -0.414198         -0.953726
 Vib (Bot)    2  0.283640D+00         -0.547232         -1.260049
 Vib (Bot)    3  0.252748D+00         -0.597312         -1.375361
 Vib (V=0)       0.130617D+01          0.116001          0.267101
 Vib (V=0)    1  0.113124D+01          0.053553          0.123310
 Vib (V=0)    2  0.107485D+01          0.031348          0.072180
 Vib (V=0)    3  0.106025D+01          0.025409          0.058506
 Electronic      0.100000D+01          0.000000          0.000000
 Translational   0.107027D+08          7.029493         16.186006
 Rotational      0.252504D+04          3.402269          7.834014
 
                                                              b3lyp opt
                                                             IR Spectrum
 
     3   3                                    2                               1        1                                             
     2   1                                    2                               4        1      9              5 5   4                 
     6   7                                    1                               1        7      9              9 5   4                 
     8   6                                    8                               1        1      0              4 2   6                 
 
     X   X                                    X                               X        X      X              X X   X                 
                                              X                                                              X                       
                                              X                                                                                      
                                              X                                                                                      
                                              X                                                                                      
                                              X                                                                                      
                                              X                                                                                      
                                              X                                                                                      
                                              X                                                                                      
                                              X                                                                                      
                                              X                                                                                      
                                              X                                                                                      
                                              X                                                                                      
                                              X                                                                                      
                                              X                                                                                      
                                              X                                                                                      
                                              X                                                                                      
                                              X                                                                                      
                                              X                                                                                      
                                              X                                                                                      
 
 ***** Axes restored to original set *****
 -------------------------------------------------------------------
 Center     Atomic                   Forces (Hartrees/Bohr)
 Number     Number              X              Y              Z
 -------------------------------------------------------------------
      1        6          -0.000005454   -0.000002292    0.000003257
      2        6           0.000001669    0.000000702   -0.000000997
      3        1          -0.000003539    0.000004104   -0.000001094
      4        1           0.000002025   -0.000004741    0.000001998
      5        8           0.000005299    0.000002227   -0.000003165
 -------------------------------------------------------------------
 Cartesian Forces:  Max     0.000005454 RMS     0.000003205
 Z-matrix is all fixed cartesians, so copy forces.
 Force constants in Cartesian coordinates: 
                1             2             3             4             5 
      1  0.697397D+00
      2 -0.234549D-01  0.507875D+00
      3 -0.219307D+00 -0.257905D+00  0.269770D+00
      4 -0.375076D+00 -0.104636D+00  0.180570D+00  0.107461D+01
      5 -0.104636D+00 -0.140383D+00  0.968248D-01  0.374859D+00  0.313691D+00
      6  0.180570D+00  0.968248D-01 -0.156390D+00 -0.561203D+00 -0.254647D+00
      7 -0.256290D+00  0.142079D+00  0.587113D-02 -0.257315D-01  0.913223D-02
      8  0.143514D+00 -0.122350D+00  0.128220D-01 -0.134378D-01  0.623033D-02
      9  0.504809D-02  0.133329D-01 -0.203604D-01  0.151790D-01 -0.955211D-02
     10 -0.389749D-01  0.164732D-01  0.542124D-03 -0.346891D-02 -0.264524D-01
     11  0.150384D-01 -0.267541D+00  0.141859D+00 -0.388229D-02 -0.864351D-02
     12  0.136517D-02  0.141348D+00 -0.924851D-01  0.177005D-02  0.116515D-01
     13 -0.270558D-01 -0.304612D-01  0.323238D-01 -0.670336D+00 -0.252902D+00
     14 -0.304612D-01  0.223996D-01  0.639930D-02 -0.252902D+00 -0.170895D+00
     15  0.323238D-01  0.639930D-02 -0.534448D-03  0.363684D+00  0.155722D+00
                6             7             8             9            10 
      6  0.448390D+00
      7  0.223166D-02  0.273030D+00
      8 -0.151521D-02 -0.150494D+00  0.124866D+00
      9 -0.467785D-02 -0.897960D-02 -0.149611D-01  0.171477D-01
     10  0.147174D-01  0.404201D-02  0.199868D-01 -0.109712D-01  0.400411D-01
     11  0.361458D-02 -0.105017D-02 -0.656754D-02  0.725632D-02 -0.142911D-01
     12 -0.120666D-01  0.109666D-02 -0.234654D-03  0.517405D-02 -0.414865D-02
     13  0.363684D+00  0.494994D-02  0.431479D-03 -0.276285D-03 -0.163932D-02
     14  0.155722D+00  0.333105D-03 -0.217806D-02  0.392403D-02  0.428351D-02
     15 -0.275256D+00 -0.219853D-03  0.388900D-02  0.271651D-02 -0.139659D-03
               11            12            13            14            15 
     11  0.280528D+00
     12 -0.152757D+00  0.944742D-01
     13  0.418514D-02 -0.832277D-04  0.694081D+00
     14  0.222429D-02 -0.807283D-05  0.278747D+00  0.148449D+00
     15  0.269565D-04  0.490342D-02 -0.395648D+00 -0.166038D+00  0.268170D+00
 Leave Link  716 at Fri Mar  1 08:38:04 2019, MaxMem=    33554432 cpu:         0.2
 (Enter /home/proyectos/fulerenos/M3C-v2.0/M3C-deps_CCC/g09-AM64L-G09RevC.01/l103.exe)

 GradGradGradGradGradGradGradGradGradGradGradGradGradGradGradGradGradGrad
 Berny optimization.
 Search for a local minimum.
 Step number   1 out of a maximum of    2
 All quantities printed in internal units (Hartrees-Bohrs-Radians)
 Second derivative matrix not updated -- analytic derivatives used.
 The second derivative matrix:
                          X1        Y1        Z1        X2        Y2
           X1           0.69740
           Y1          -0.02345   0.50787
           Z1          -0.21931  -0.25791   0.26977
           X2          -0.37508  -0.10464   0.18057   1.07461
           Y2          -0.10464  -0.14038   0.09682   0.37486   0.31369
           Z2           0.18057   0.09682  -0.15639  -0.56120  -0.25465
           X3          -0.25629   0.14208   0.00587  -0.02573   0.00913
           Y3           0.14351  -0.12235   0.01282  -0.01344   0.00623
           Z3           0.00505   0.01333  -0.02036   0.01518  -0.00955
           X4          -0.03897   0.01647   0.00054  -0.00347  -0.02645
           Y4           0.01504  -0.26754   0.14186  -0.00388  -0.00864
           Z4           0.00137   0.14135  -0.09249   0.00177   0.01165
           X5          -0.02706  -0.03046   0.03232  -0.67034  -0.25290
           Y5          -0.03046   0.02240   0.00640  -0.25290  -0.17089
           Z5           0.03232   0.00640  -0.00053   0.36368   0.15572
                          Z2        X3        Y3        Z3        X4
           Z2           0.44839
           X3           0.00223   0.27303
           Y3          -0.00152  -0.15049   0.12487
           Z3          -0.00468  -0.00898  -0.01496   0.01715
           X4           0.01472   0.00404   0.01999  -0.01097   0.04004
           Y4           0.00361  -0.00105  -0.00657   0.00726  -0.01429
           Z4          -0.01207   0.00110  -0.00023   0.00517  -0.00415
           X5           0.36368   0.00495   0.00043  -0.00028  -0.00164
           Y5           0.15572   0.00033  -0.00218   0.00392   0.00428
           Z5          -0.27526  -0.00022   0.00389   0.00272  -0.00014
                          Y4        Z4        X5        Y5        Z5
           Y4           0.28053
           Z4          -0.15276   0.09447
           X5           0.00419  -0.00008   0.69408
           Y5           0.00222  -0.00001   0.27875   0.14845
           Z5           0.00003   0.00490  -0.39565  -0.16604   0.26817
 ITU=  0
     Eigenvalues ---    0.02227   0.03325   0.08325   0.14789   0.22592
     Eigenvalues ---    0.33166   0.83646   0.99627   2.42390
 Angle between quadratic step and forces=  37.45 degrees.
 ClnCor:  largest displacement from symmetrization is 2.55D-13 for atom     4.
 Linear search not attempted -- first point.
 ClnCor:  largest displacement from symmetrization is 4.62D-15 for atom     3.
 B after Tr=    -0.000001   -0.000001    0.000001
         Rot=    1.000000    0.000000    0.000000    0.000000 Ang=   0.00 deg.
 Variable       Old X    -DE/DX   Delta X   Delta X   Delta X     New X
                                 (Linear)    (Quad)   (Total)
    X1        1.40913  -0.00001   0.00000  -0.00001  -0.00001   1.40912
    Y1        0.44336  -0.00000   0.00000  -0.00000  -0.00001   0.44335
    Z1       -1.10816   0.00000   0.00000   0.00001   0.00001  -1.10816
    X2       -0.58691   0.00000   0.00000   0.00000  -0.00000  -0.58691
    Y2       -0.39563   0.00000   0.00000   0.00000  -0.00000  -0.39563
    Z2        0.08389  -0.00000   0.00000  -0.00000   0.00000   0.08389
    X3        3.12732  -0.00000   0.00000  -0.00001  -0.00001   3.12731
    Y3       -0.65130   0.00000   0.00000   0.00003   0.00002  -0.65128
    Z3       -1.09204  -0.00000   0.00000  -0.00001  -0.00001  -1.09205
    X4        1.31935   0.00000   0.00000   0.00002   0.00002   1.31937
    Y4        2.22248  -0.00000   0.00000  -0.00002  -0.00002   2.22246
    Z4       -2.09679   0.00000   0.00000   0.00000   0.00001  -2.09678
    X5       -2.35546   0.00001   0.00000   0.00001   0.00000  -2.35545
    Y5       -1.13899   0.00000   0.00000   0.00000   0.00000  -1.13899
    Z5        1.14007  -0.00000   0.00000  -0.00000  -0.00000   1.14007
         Item               Value     Threshold  Converged?
 Maximum Force            0.000005     0.000450     YES
 RMS     Force            0.000003     0.000300     YES
 Maximum Displacement     0.000025     0.001800     YES
 RMS     Displacement     0.000011     0.001200     YES
 Predicted change in Energy=-2.149800D-10
 Optimization completed.
    -- Stationary point found.
 GradGradGradGradGradGradGradGradGradGradGradGradGradGradGradGradGradGrad

 Leave Link  103 at Fri Mar  1 08:38:04 2019, MaxMem=    33554432 cpu:         0.1
 (Enter /home/proyectos/fulerenos/M3C-v2.0/M3C-deps_CCC/g09-AM64L-G09RevC.01/l9999.exe)

 Test job not archived.
 1\1\GINC-BOHRIO\Freq\RB3LYP\6-311++G(3df,2p)\C2H2O1\ROOT\01-Mar-2019\0
 \\#p b3lyp/6-311++G(3df,2p) freq IOp(2/17=3) IOp(2/18=3)\\b3lyp opt\\0
 ,1\C,0.7456796864,0.2346143653,-0.5864148339\C,-0.310580539,-0.2093579
 819,0.0443905644\H,1.6549058683,-0.3446531595,-0.5778807789\H,0.698172
 464,1.1760837225,-1.1095729921\O,-1.2464536632,-0.6027286473,0.6033000
 117\\Version=EM64L-G09RevE.01\State=1-A1\HF=-152.6626976\RMSD=4.056e-0
 9\RMSF=3.205e-06\ZeroPoint=0.0315034\Thermal=0.0350188\Dipole=0.482961
 3,0.2030006,-0.2884276\DipoleDeriv=-0.7063168,-0.2822277,0.2322947,-0.
 2822277,-0.3107295,-0.013027,0.2322947,-0.013027,-0.5838718,1.6376291,
 0.5855761,-0.8450058,0.5855761,0.4784868,-0.3637092,-0.8450058,-0.3637
 092,0.7174881,0.1247624,0.029139,0.0177582,0.0256512,0.0962687,0.06274
 83,0.019759,0.0615063,0.1792563,0.0964465,0.0422044,0.0203461,0.045692
 2,0.1151868,0.0447595,0.0183453,0.0460015,0.188654,-1.1525211,-0.37469
 18,0.5746068,-0.3746918,-0.3792128,0.2692284,0.5746068,0.2692284,-0.50
 15267\Polar=34.7441281,5.9914761,23.6035583,-7.8739433,-2.8905172,26.7
 45839\PG=C02V [C2(C1C1O1),SGV(H2)]\NImag=0\\0.69739719,-0.02345488,0.5
 0787480,-0.21930731,-0.25790523,0.26976990,-0.37507634,-0.10463633,0.1
 8057029,1.07461251,-0.10463633,-0.14038294,0.09682482,0.37485852,0.313
 69106,0.18057029,0.09682482,-0.15638999,-0.56120331,-0.25464661,0.4483
 9001,-0.25629020,0.14207928,0.00587113,-0.02573146,0.00913223,0.002231
 66,0.27302971,0.14351403,-0.12235045,0.01282197,-0.01343784,0.00623033
 ,-0.00151521,-0.15049444,0.12486573,0.00504809,0.01333286,-0.02036037,
 0.01517900,-0.00955211,-0.00467785,-0.00897960,-0.01496110,0.01714766,
 -0.03897489,0.01647316,0.00054212,-0.00346891,-0.02645235,0.01471739,0
 .00404201,0.01998677,-0.01097120,0.04004112,0.01503841,-0.26754104,0.1
 4185915,-0.00388229,-0.00864351,0.00361458,-0.00105017,-0.00656754,0.0
 0725632,-0.01429108,0.28052779,0.00136517,0.14134826,-0.09248509,0.001
 77005,0.01165148,-0.01206656,0.00109666,-0.00023465,0.00517405,-0.0041
 4865,-0.15275700,0.09447419,-0.02705576,-0.03046123,0.03232376,-0.6703
 3579,-0.25290206,0.36368397,0.00494994,0.00043148,-0.00027629,-0.00163
 932,0.00418514,-0.00008323,0.69408094,-0.03046123,0.02239962,0.0063993
 0,-0.25290206,-0.17089494,0.15572244,0.00033311,-0.00217806,0.00392403
 ,0.00428351,0.00222429,-0.00000807,0.27874668,0.14844909,0.03232376,0.
 00639930,-0.00053445,0.36368397,0.15572244,-0.27525560,-0.00021985,0.0
 0388900,0.00271651,-0.00013966,0.00002696,0.00490342,-0.39564822,-0.16
 603769,0.26817012\\0.00000545,0.00000229,-0.00000326,-0.00000167,-0.00
 000070,0.00000100,0.00000354,-0.00000410,0.00000109,-0.00000203,0.0000
 0474,-0.00000200,-0.00000530,-0.00000223,0.00000316\\\@


 DEMOCRATS BUY MOST OF THE BOOKS THAT HAVE BEEN
 BANNED; REPUBLICANS FORM CENSORSHIP COMMITTEES AND
 READ THEM AS A GROUP.
 Job cpu time:       0 days  0 hours  4 minutes 34.2 seconds.
 File lengths (MBytes):  RWF=     12 Int=      0 D2E=      0 Chk=      2 Scr=      1
 Normal termination of Gaussian 09 at Fri Mar  1 08:38:04 2019.
