 Entering Gaussian System, Link 0=/home/proyectos/fulerenos/M3C-v2.0/M3C-deps_CCC/g09-AM64L-G09RevC.01/g09
 Initial command:
 /home/proyectos/fulerenos/M3C-v2.0/M3C-deps_CCC/g09-AM64L-G09RevC.01/l1.exe "/scratch/naguirre/gaussian/Gau-24318.inp" -scrdir="/scratch/naguirre/gaussian/"
 Entering Link 1 = /home/proyectos/fulerenos/M3C-v2.0/M3C-deps_CCC/g09-AM64L-G09RevC.01/l1.exe PID=     24329.
  
 Copyright (c) 1988,1990,1992,1993,1995,1998,2003,2009,2015,
            Gaussian, Inc.  All Rights Reserved.
  
 This is part of the Gaussian(R) 09 program.  It is based on
 the Gaussian(R) 03 system (copyright 2003, Gaussian, Inc.),
 the Gaussian(R) 98 system (copyright 1998, Gaussian, Inc.),
 the Gaussian(R) 94 system (copyright 1995, Gaussian, Inc.),
 the Gaussian 92(TM) system (copyright 1992, Gaussian, Inc.),
 the Gaussian 90(TM) system (copyright 1990, Gaussian, Inc.),
 the Gaussian 88(TM) system (copyright 1988, Gaussian, Inc.),
 the Gaussian 86(TM) system (copyright 1986, Carnegie Mellon
 University), and the Gaussian 82(TM) system (copyright 1983,
 Carnegie Mellon University). Gaussian is a federally registered
 trademark of Gaussian, Inc.
  
 This software contains proprietary and confidential information,
 including trade secrets, belonging to Gaussian, Inc.
  
 This software is provided under written license and may be
 used, copied, transmitted, or stored only in accord with that
 written license.
  
 The following legend is applicable only to US Government
 contracts under FAR:
  
                    RESTRICTED RIGHTS LEGEND
  
 Use, reproduction and disclosure by the US Government is
 subject to restrictions as set forth in subparagraphs (a)
 and (c) of the Commercial Computer Software - Restricted
 Rights clause in FAR 52.227-19.
  
 Gaussian, Inc.
 340 Quinnipiac St., Bldg. 40, Wallingford CT 06492
  
  
 ---------------------------------------------------------------
 Warning -- This program may not be used in any manner that
 competes with the business of Gaussian, Inc. or will provide
 assistance to any competitor of Gaussian, Inc.  The licensee
 of this program is prohibited from giving any competitor of
 Gaussian, Inc. access to this program.  By using this program,
 the user acknowledges that Gaussian, Inc. is engaged in the
 business of creating and licensing software in the field of
 computational chemistry and represents and warrants to the
 licensee that it is not a competitor of Gaussian, Inc. and that
 it will not use this program in any manner prohibited above.
 ---------------------------------------------------------------
  

 Cite this work as:
 Gaussian 09, Revision E.01,
 M. J. Frisch, G. W. Trucks, H. B. Schlegel, G. E. Scuseria, 
 M. A. Robb, J. R. Cheeseman, G. Scalmani, V. Barone, B. Mennucci, 
 G. A. Petersson, H. Nakatsuji, M. Caricato, X. Li, H. P. Hratchian, 
 A. F. Izmaylov, J. Bloino, G. Zheng, J. L. Sonnenberg, M. Hada, 
 M. Ehara, K. Toyota, R. Fukuda, J. Hasegawa, M. Ishida, T. Nakajima, 
 Y. Honda, O. Kitao, H. Nakai, T. Vreven, J. A. Montgomery, Jr., 
 J. E. Peralta, F. Ogliaro, M. Bearpark, J. J. Heyd, E. Brothers, 
 K. N. Kudin, V. N. Staroverov, T. Keith, R. Kobayashi, J. Normand, 
 K. Raghavachari, A. Rendell, J. C. Burant, S. S. Iyengar, J. Tomasi, 
 M. Cossi, N. Rega, J. M. Millam, M. Klene, J. E. Knox, J. B. Cross, 
 V. Bakken, C. Adamo, J. Jaramillo, R. Gomperts, R. E. Stratmann, 
 O. Yazyev, A. J. Austin, R. Cammi, C. Pomelli, J. W. Ochterski, 
 R. L. Martin, K. Morokuma, V. G. Zakrzewski, G. A. Voth, 
 P. Salvador, J. J. Dannenberg, S. Dapprich, A. D. Daniels, 
 O. Farkas, J. B. Foresman, J. V. Ortiz, J. Cioslowski, 
 and D. J. Fox, Gaussian, Inc., Wallingford CT, 2013.
 
 ******************************************
 Gaussian 09:  EM64L-G09RevE.01 30-Nov-2015
                 1-Mar-2019 
 ******************************************
 %NProcShared=4
 Will use up to    4 processors via shared memory.
 ------------------------------------------------------
 #p b3lyp/6-311++G(3df,2p) freq IOp(2/17=3) IOp(2/18=3)
 ------------------------------------------------------
 1/10=4,30=1,38=1/1,3;
 2/12=2,17=3,18=3,40=1/2;
 3/5=4,6=6,7=1216,11=2,16=1,25=1,30=1,71=2,74=-5,140=1/1,2,3;
 4//1;
 5/5=2,38=5,98=1/2;
 8/6=4,10=90,11=11/1;
 11/6=1,8=1,9=11,15=111,16=1/1,2,10;
 10/6=1/2;
 6/7=2,8=2,9=2,10=2,18=1,28=1/1;
 7/8=1,10=1,25=1/1,2,3,16;
 1/10=4,30=1/3;
 99//99;
 Leave Link    1 at Fri Mar  1 08:38:47 2019, MaxMem=           0 cpu:         0.2
 (Enter /home/proyectos/fulerenos/M3C-v2.0/M3C-deps_CCC/g09-AM64L-G09RevC.01/l101.exe)
 ---------
 b3lyp opt
 ---------
 Symbolic Z-matrix:
 Charge =  0 Multiplicity = 1
 C                     1.09221  -0.62253  -0.03553 
 C                    -1.55452   0.03748  -0.57456 
 C                    -1.22734   0.56629   0.67446 
 C                    -0.26766  -0.09851   0.03996 
 H                    -1.5159    1.11954   1.55328 
 H                     1.19456  -1.67479   0.2921 
 O                     2.02805   0.02538  -0.43006 
 
 NAtoms=      7 NQM=        7 NQMF=       0 NMMI=      0 NMMIF=      0
                NMic=       0 NMicF=      0.
                    Isotopes and Nuclear Properties:
 (Nuclear quadrupole moments (NQMom) in fm**2, nuclear magnetic moments (NMagM)
  in nuclear magnetons)

  Atom         1           2           3           4           5           6           7
 IAtWgt=          12          12          12          12           1           1          16
 AtmWgt=  12.0000000  12.0000000  12.0000000  12.0000000   1.0078250   1.0078250  15.9949146
 NucSpn=           0           0           0           0           1           1           0
 AtZEff=   0.0000000   0.0000000   0.0000000   0.0000000   0.0000000   0.0000000   0.0000000
 NQMom=    0.0000000   0.0000000   0.0000000   0.0000000   0.0000000   0.0000000   0.0000000
 NMagM=    0.0000000   0.0000000   0.0000000   0.0000000   2.7928460   2.7928460   0.0000000
 AtZNuc=   6.0000000   6.0000000   6.0000000   6.0000000   1.0000000   1.0000000   8.0000000
 Leave Link  101 at Fri Mar  1 08:38:47 2019, MaxMem=    33554432 cpu:         0.3
 (Enter /home/proyectos/fulerenos/M3C-v2.0/M3C-deps_CCC/g09-AM64L-G09RevC.01/l103.exe)

 GradGradGradGradGradGradGradGradGradGradGradGradGradGradGradGradGradGrad
 Berny optimization.
 Initialization pass.
 Trust Radius=3.00D-01 FncErr=1.00D-07 GrdErr=1.00D-07
 Number of steps in this run=      2 maximum allowed number of steps=      2.
 GradGradGradGradGradGradGradGradGradGradGradGradGradGradGradGradGradGrad

 Leave Link  103 at Fri Mar  1 08:38:47 2019, MaxMem=    33554432 cpu:         0.1
 (Enter /home/proyectos/fulerenos/M3C-v2.0/M3C-deps_CCC/g09-AM64L-G09RevC.01/l202.exe)
                          Input orientation:                          
 ---------------------------------------------------------------------
 Center     Atomic      Atomic             Coordinates (Angstroms)
 Number     Number       Type             X           Y           Z
 ---------------------------------------------------------------------
      1          6           0        1.092207   -0.622531   -0.035532
      2          6           0       -1.554516    0.037475   -0.574564
      3          6           0       -1.227335    0.566291    0.674458
      4          6           0       -0.267664   -0.098506    0.039958
      5          1           0       -1.515901    1.119539    1.553280
      6          1           0        1.194562   -1.674787    0.292098
      7          8           0        2.028046    0.025382   -0.430063
 ---------------------------------------------------------------------
                    Distance matrix (angstroms):
                    1          2          3          4          5
     1  C    0.000000
     2  C    2.780523   0.000000
     3  C    2.701418   1.395260   0.000000
     4  C    1.459298   1.432521   1.328726   0.000000
     5  H    3.515872   2.387483   1.077813   2.309085   0.000000
     6  H    1.106825   3.352667   3.321779   2.164796   4.092120
     7  O    1.204674   3.585495   3.479950   2.346604   4.205994
                    6          7
     6  H    0.000000
     7  O    2.026521   0.000000
 Stoichiometry    C4H2O
 Framework group  C1[X(C4H2O)]
 Deg. of freedom    15
 Full point group                 C1      NOp   1
 Largest Abelian subgroup         C1      NOp   1
 Largest concise Abelian subgroup C1      NOp   1
                         Standard orientation:                         
 ---------------------------------------------------------------------
 Center     Atomic      Atomic             Coordinates (Angstroms)
 Number     Number       Type             X           Y           Z
 ---------------------------------------------------------------------
      1          6           0        1.054151   -0.108590    0.409307
      2          6           0       -1.560673   -0.784603   -0.251756
      3          6           0       -1.526560    0.584814    0.013354
      4          6           0       -0.376071   -0.071011    0.121901
      5          1           0       -2.040398    1.529240    0.088934
      6          1           0        1.303386   -0.398921    1.447888
      7          8           0        1.898991    0.143252   -0.411706
 ---------------------------------------------------------------------
 Rotational constants (GHZ):     22.8281865      3.5186199      3.3607159
 Leave Link  202 at Fri Mar  1 08:38:47 2019, MaxMem=    33554432 cpu:         0.0
 (Enter /home/proyectos/fulerenos/M3C-v2.0/M3C-deps_CCC/g09-AM64L-G09RevC.01/l301.exe)
 Standard basis: 6-311++G(3df,2p) (5D, 7F)
 Ernie: Thresh=  0.10000D-02 Tol=  0.10000D-05 Strict=F.
 There are   245 symmetry adapted cartesian basis functions of A   symmetry.
 There are   215 symmetry adapted basis functions of A   symmetry.
   215 basis functions,   314 primitive gaussians,   245 cartesian basis functions
    17 alpha electrons       17 beta electrons
       nuclear repulsion energy       130.5567890749 Hartrees.
 IExCor=  402 DFT=T Ex+Corr=B3LYP ExCW=0 ScaHFX=  0.200000
 ScaDFX=  0.800000  0.720000  1.000000  0.810000 ScalE2=  1.000000  1.000000
 IRadAn=      0 IRanWt=     -1 IRanGd=            0 ICorTp=0 IEmpDi=  4
 NAtoms=    7 NActive=    7 NUniq=    7 SFac= 1.00D+00 NAtFMM=   60 NAOKFM=F Big=F
 Integral buffers will be    131072 words long.
 Raffenetti 2 integral format.
 Two-electron integral symmetry is turned on.
 Leave Link  301 at Fri Mar  1 08:38:47 2019, MaxMem=    33554432 cpu:         0.3
 (Enter /home/proyectos/fulerenos/M3C-v2.0/M3C-deps_CCC/g09-AM64L-G09RevC.01/l302.exe)
 NPDir=0 NMtPBC=     1 NCelOv=     1 NCel=       1 NClECP=     1 NCelD=      1
         NCelK=      1 NCelE2=     1 NClLst=     1 CellRange=     0.0.
 One-electron integrals computed using PRISM.
 NBasis=   215 RedAO= T EigKep=  9.20D-06  NBF=   215
 NBsUse=   215 1.00D-06 EigRej= -1.00D+00 NBFU=   215
 Precomputing XC quadrature grid using
 IXCGrd= 4 IRadAn=           0 IRanWt=          -1 IRanGd=           0 AccXCQ= 0.00D+00.
 Generated NRdTot=       0 NPtTot=           0 NUsed=           0 NTot=          32
 NSgBfM=   245   245   245   245   245 MxSgAt=     7 MxSgA2=     7.
 Leave Link  302 at Fri Mar  1 08:38:48 2019, MaxMem=    33554432 cpu:         1.5
 (Enter /home/proyectos/fulerenos/M3C-v2.0/M3C-deps_CCC/g09-AM64L-G09RevC.01/l303.exe)
 DipDrv:  MaxL=1.
 Leave Link  303 at Fri Mar  1 08:38:48 2019, MaxMem=    33554432 cpu:         0.1
 (Enter /home/proyectos/fulerenos/M3C-v2.0/M3C-deps_CCC/g09-AM64L-G09RevC.01/l401.exe)
 ExpMin= 3.60D-02 ExpMax= 8.59D+03 ExpMxC= 1.30D+03 IAcc=3 IRadAn=         5 AccDes= 0.00D+00
 Harris functional with IExCor=  402 and IRadAn=       5 diagonalized for initial guess.
 HarFok:  IExCor=  402 AccDes= 0.00D+00 IRadAn=         5 IDoV= 1 UseB2=F ITyADJ=14
 ICtDFT=  3500011 ScaDFX=  1.000000  1.000000  1.000000  1.000000
 FoFCou: FMM=F IPFlag=           0 FMFlag=      100000 FMFlg1=           0
         NFxFlg=           0 DoJE=T BraDBF=F KetDBF=T FulRan=T
         wScrn=  0.000000 ICntrl=     500 IOpCl=  0 I1Cent=   200000004 NGrid=           0
         NMat0=    1 NMatS0=      1 NMatT0=    0 NMatD0=    1 NMtDS0=    0 NMtDT0=    0
 Petite list used in FoFCou.
 Harris En= -228.773867591259    
 JPrj=0 DoOrth=F DoCkMO=F.
 Leave Link  401 at Fri Mar  1 08:38:50 2019, MaxMem=    33554432 cpu:         9.1
 (Enter /home/proyectos/fulerenos/M3C-v2.0/M3C-deps_CCC/g09-AM64L-G09RevC.01/l502.exe)
 Closed shell SCF:
 Using DIIS extrapolation, IDIIS=  1040.
 Integral symmetry usage will be decided dynamically.
 IVT=      201851 IEndB=      201851 NGot=    33554432 MDV=    33429492
 LenX=    33429492 LenY=    33369026
 Requested convergence on RMS density matrix=1.00D-08 within 128 cycles.
 Requested convergence on MAX density matrix=1.00D-06.
 Requested convergence on             energy=1.00D-06.
 No special actions if energy rises.
 Fock matrices will be formed incrementally for  20 cycles.

 Cycle   1  Pass 1  IDiag  1:
 FoFJK:  IHMeth= 1 ICntrl=       0 DoSepK=F KAlg= 0 I1Cent=   0 FoldK=F
 IRaf= 980000000 NMat=   1 IRICut=       1 DoRegI=T DoRafI=F ISym2E= 0.
 FoFCou: FMM=F IPFlag=           0 FMFlag=      100000 FMFlg1=           0
         NFxFlg=           0 DoJE=F BraDBF=F KetDBF=F FulRan=T
         wScrn=  0.000000 ICntrl=       0 IOpCl=  0 I1Cent=           0 NGrid=           0
         NMat0=    1 NMatS0=      1 NMatT0=    0 NMatD0=    1 NMtDS0=    0 NMtDT0=    0
 Symmetry not used in FoFCou.
 E= -228.648534334312    
 DIIS: error= 1.76D-02 at cycle   1 NSaved=   1.
 NSaved= 1 IEnMin= 1 EnMin= -228.648534334312     IErMin= 1 ErrMin= 1.76D-02
 ErrMax= 1.76D-02  0.00D+00 EMaxC= 1.00D-01 BMatC= 1.37D-01 BMatP= 1.37D-01
 IDIUse=3 WtCom= 8.24D-01 WtEn= 1.76D-01
 Coeff-Com:  0.100D+01
 Coeff-En:   0.100D+01
 Coeff:      0.100D+01
 Gap=     0.151 Goal=   None    Shift=    0.000
 GapD=    0.151 DampG=1.000 DampE=0.500 DampFc=0.5000 IDamp=-1.
 Damping current iteration by 5.00D-01
 RMSDP=6.83D-03 MaxDP=3.42D-01              OVMax= 2.29D-01

 Cycle   2  Pass 1  IDiag  1:
 RMSU=  3.32D-03    CP:  9.49D-01
 E= -228.663068906586     Delta-E=       -0.014534572274 Rises=F Damp=T
 DIIS: error= 8.11D-03 at cycle   2 NSaved=   2.
 NSaved= 2 IEnMin= 2 EnMin= -228.663068906586     IErMin= 2 ErrMin= 8.11D-03
 ErrMax= 8.11D-03  0.00D+00 EMaxC= 1.00D-01 BMatC= 3.37D-02 BMatP= 1.37D-01
 IDIUse=3 WtCom= 9.19D-01 WtEn= 8.11D-02
 Coeff-Com:  0.277D+00 0.723D+00
 Coeff-En:   0.436D+00 0.564D+00
 Coeff:      0.289D+00 0.711D+00
 Gap=     0.232 Goal=   None    Shift=    0.000
 RMSDP=1.96D-03 MaxDP=9.83D-02 DE=-1.45D-02 OVMax= 2.17D-01

 Cycle   3  Pass 1  IDiag  1:
 RMSU=  1.78D-03    CP:  9.02D-01  8.96D-01
 E= -228.737365940621     Delta-E=       -0.074297034035 Rises=F Damp=F
 DIIS: error= 7.46D-03 at cycle   3 NSaved=   3.
 NSaved= 3 IEnMin= 3 EnMin= -228.737365940621     IErMin= 3 ErrMin= 7.46D-03
 ErrMax= 7.46D-03  0.00D+00 EMaxC= 1.00D-01 BMatC= 2.06D-02 BMatP= 3.37D-02
 IDIUse=3 WtCom= 9.25D-01 WtEn= 7.46D-02
 Coeff-Com:  0.456D-01 0.436D+00 0.518D+00
 Coeff-En:   0.000D+00 0.000D+00 0.100D+01
 Coeff:      0.422D-01 0.404D+00 0.554D+00
 Gap=     0.197 Goal=   None    Shift=    0.000
 RMSDP=1.12D-03 MaxDP=6.76D-02 DE=-7.43D-02 OVMax= 5.02D-02

 Cycle   4  Pass 1  IDiag  1:
 RMSU=  7.35D-04    CP:  9.17D-01  7.30D-01  6.64D-01
 E= -228.753378784697     Delta-E=       -0.016012844075 Rises=F Damp=F
 DIIS: error= 2.49D-03 at cycle   4 NSaved=   4.
 NSaved= 4 IEnMin= 4 EnMin= -228.753378784697     IErMin= 4 ErrMin= 2.49D-03
 ErrMax= 2.49D-03  0.00D+00 EMaxC= 1.00D-01 BMatC= 2.03D-03 BMatP= 2.06D-02
 IDIUse=3 WtCom= 9.75D-01 WtEn= 2.49D-02
 Coeff-Com: -0.193D-02 0.999D-01 0.286D+00 0.616D+00
 Coeff-En:   0.000D+00 0.000D+00 0.861D-01 0.914D+00
 Coeff:     -0.188D-02 0.974D-01 0.281D+00 0.624D+00
 Gap=     0.186 Goal=   None    Shift=    0.000
 RMSDP=4.03D-04 MaxDP=2.51D-02 DE=-1.60D-02 OVMax= 1.79D-02

 Cycle   5  Pass 1  IDiag  1:
 RMSU=  1.71D-04    CP:  9.10D-01  7.87D-01  7.83D-01  7.21D-01
 E= -228.755098652880     Delta-E=       -0.001719868183 Rises=F Damp=F
 DIIS: error= 8.61D-04 at cycle   5 NSaved=   5.
 NSaved= 5 IEnMin= 5 EnMin= -228.755098652880     IErMin= 5 ErrMin= 8.61D-04
 ErrMax= 8.61D-04  0.00D+00 EMaxC= 1.00D-01 BMatC= 1.87D-04 BMatP= 2.03D-03
 IDIUse=3 WtCom= 9.91D-01 WtEn= 8.61D-03
 Coeff-Com: -0.598D-02 0.201D-01 0.124D+00 0.361D+00 0.501D+00
 Coeff-En:   0.000D+00 0.000D+00 0.000D+00 0.000D+00 0.100D+01
 Coeff:     -0.593D-02 0.199D-01 0.122D+00 0.358D+00 0.506D+00
 Gap=     0.189 Goal=   None    Shift=    0.000
 RMSDP=1.22D-04 MaxDP=6.81D-03 DE=-1.72D-03 OVMax= 5.67D-03

 Cycle   6  Pass 1  IDiag  1:
 RMSU=  6.59D-05    CP:  9.10D-01  7.71D-01  7.60D-01  7.57D-01  5.84D-01
 E= -228.755282616147     Delta-E=       -0.000183963267 Rises=F Damp=F
 DIIS: error= 2.12D-04 at cycle   6 NSaved=   6.
 NSaved= 6 IEnMin= 6 EnMin= -228.755282616147     IErMin= 6 ErrMin= 2.12D-04
 ErrMax= 2.12D-04  0.00D+00 EMaxC= 1.00D-01 BMatC= 1.07D-05 BMatP= 1.87D-04
 IDIUse=3 WtCom= 9.98D-01 WtEn= 2.12D-03
 Coeff-Com: -0.202D-02 0.179D-02 0.364D-01 0.116D+00 0.257D+00 0.591D+00
 Coeff-En:   0.000D+00 0.000D+00 0.000D+00 0.000D+00 0.000D+00 0.100D+01
 Coeff:     -0.202D-02 0.179D-02 0.364D-01 0.116D+00 0.256D+00 0.592D+00
 Gap=     0.188 Goal=   None    Shift=    0.000
 RMSDP=3.05D-05 MaxDP=1.41D-03 DE=-1.84D-04 OVMax= 1.36D-03

 Cycle   7  Pass 1  IDiag  1:
 RMSU=  1.72D-05    CP:  9.10D-01  7.74D-01  7.68D-01  7.58D-01  6.61D-01
                    CP:  8.01D-01
 E= -228.755292522030     Delta-E=       -0.000009905883 Rises=F Damp=F
 DIIS: error= 6.35D-05 at cycle   7 NSaved=   7.
 NSaved= 7 IEnMin= 7 EnMin= -228.755292522030     IErMin= 7 ErrMin= 6.35D-05
 ErrMax= 6.35D-05  0.00D+00 EMaxC= 1.00D-01 BMatC= 1.02D-06 BMatP= 1.07D-05
 IDIUse=1 WtCom= 1.00D+00 WtEn= 0.00D+00
 Coeff-Com: -0.424D-03-0.125D-02 0.816D-02 0.282D-01 0.952D-01 0.305D+00
 Coeff-Com:  0.565D+00
 Coeff:     -0.424D-03-0.125D-02 0.816D-02 0.282D-01 0.952D-01 0.305D+00
 Coeff:      0.565D+00
 Gap=     0.188 Goal=   None    Shift=    0.000
 RMSDP=5.07D-06 MaxDP=2.15D-04 DE=-9.91D-06 OVMax= 3.49D-04

 Cycle   8  Pass 1  IDiag  1:
 RMSU=  4.22D-06    CP:  9.10D-01  7.73D-01  7.69D-01  7.57D-01  6.62D-01
                    CP:  8.08D-01  8.68D-01
 E= -228.755293373481     Delta-E=       -0.000000851452 Rises=F Damp=F
 DIIS: error= 1.21D-05 at cycle   8 NSaved=   8.
 NSaved= 8 IEnMin= 8 EnMin= -228.755293373481     IErMin= 8 ErrMin= 1.21D-05
 ErrMax= 1.21D-05  0.00D+00 EMaxC= 1.00D-01 BMatC= 4.94D-08 BMatP= 1.02D-06
 IDIUse=1 WtCom= 1.00D+00 WtEn= 0.00D+00
 Coeff-Com:  0.235D-05-0.689D-03 0.109D-02 0.397D-02 0.231D-01 0.827D-01
 Coeff-Com:  0.224D+00 0.666D+00
 Coeff:      0.235D-05-0.689D-03 0.109D-02 0.397D-02 0.231D-01 0.827D-01
 Coeff:      0.224D+00 0.666D+00
 Gap=     0.188 Goal=   None    Shift=    0.000
 RMSDP=2.22D-06 MaxDP=8.76D-05 DE=-8.51D-07 OVMax= 1.44D-04

 Cycle   9  Pass 1  IDiag  1:
 RMSU=  1.57D-06    CP:  9.10D-01  7.73D-01  7.69D-01  7.58D-01  6.65D-01
                    CP:  8.08D-01  9.15D-01  9.07D-01
 E= -228.755293402743     Delta-E=       -0.000000029262 Rises=F Damp=F
 DIIS: error= 8.12D-06 at cycle   9 NSaved=   9.
 NSaved= 9 IEnMin= 9 EnMin= -228.755293402743     IErMin= 9 ErrMin= 8.12D-06
 ErrMax= 8.12D-06  0.00D+00 EMaxC= 1.00D-01 BMatC= 1.88D-08 BMatP= 4.94D-08
 IDIUse=1 WtCom= 1.00D+00 WtEn= 0.00D+00
 Coeff-Com:  0.719D-04-0.254D-03-0.438D-03-0.154D-02 0.231D-03 0.441D-02
 Coeff-Com:  0.442D-01 0.412D+00 0.541D+00
 Coeff:      0.719D-04-0.254D-03-0.438D-03-0.154D-02 0.231D-03 0.441D-02
 Coeff:      0.442D-01 0.412D+00 0.541D+00
 Gap=     0.188 Goal=   None    Shift=    0.000
 RMSDP=8.30D-07 MaxDP=2.84D-05 DE=-2.93D-08 OVMax= 5.78D-05

 Cycle  10  Pass 1  IDiag  1:
 RMSU=  4.32D-07    CP:  9.10D-01  7.73D-01  7.69D-01  7.58D-01  6.65D-01
                    CP:  8.10D-01  9.21D-01  9.88D-01  6.43D-01
 E= -228.755293421476     Delta-E=       -0.000000018733 Rises=F Damp=F
 DIIS: error= 1.21D-06 at cycle  10 NSaved=  10.
 NSaved=10 IEnMin=10 EnMin= -228.755293421476     IErMin=10 ErrMin= 1.21D-06
 ErrMax= 1.21D-06  0.00D+00 EMaxC= 1.00D-01 BMatC= 3.42D-10 BMatP= 1.88D-08
 IDIUse=1 WtCom= 1.00D+00 WtEn= 0.00D+00
 Coeff-Com:  0.201D-04-0.346D-04-0.134D-03-0.627D-03-0.133D-02-0.308D-02
 Coeff-Com: -0.231D-02 0.737D-01 0.161D+00 0.773D+00
 Coeff:      0.201D-04-0.346D-04-0.134D-03-0.627D-03-0.133D-02-0.308D-02
 Coeff:     -0.231D-02 0.737D-01 0.161D+00 0.773D+00
 Gap=     0.188 Goal=   None    Shift=    0.000
 RMSDP=1.64D-07 MaxDP=4.87D-06 DE=-1.87D-08 OVMax= 8.45D-06

 Cycle  11  Pass 1  IDiag  1:
 RMSU=  1.03D-07    CP:  9.10D-01  7.73D-01  7.69D-01  7.58D-01  6.65D-01
                    CP:  8.10D-01  9.22D-01  9.92D-01  6.82D-01  9.09D-01
 E= -228.755293421811     Delta-E=       -0.000000000335 Rises=F Damp=F
 DIIS: error= 3.51D-07 at cycle  11 NSaved=  11.
 NSaved=11 IEnMin=11 EnMin= -228.755293421811     IErMin=11 ErrMin= 3.51D-07
 ErrMax= 3.51D-07  0.00D+00 EMaxC= 1.00D-01 BMatC= 1.94D-11 BMatP= 3.42D-10
 IDIUse=1 WtCom= 1.00D+00 WtEn= 0.00D+00
 Coeff-Com:  0.163D-05 0.258D-05-0.151D-04-0.123D-03-0.463D-03-0.110D-02
 Coeff-Com: -0.332D-02-0.348D-02 0.168D-01 0.242D+00 0.750D+00
 Coeff:      0.163D-05 0.258D-05-0.151D-04-0.123D-03-0.463D-03-0.110D-02
 Coeff:     -0.332D-02-0.348D-02 0.168D-01 0.242D+00 0.750D+00
 Gap=     0.188 Goal=   None    Shift=    0.000
 RMSDP=3.95D-08 MaxDP=1.14D-06 DE=-3.35D-10 OVMax= 2.11D-06

 Cycle  12  Pass 1  IDiag  1:
 RMSU=  2.97D-08    CP:  9.10D-01  7.73D-01  7.69D-01  7.58D-01  6.65D-01
                    CP:  8.10D-01  9.23D-01  9.95D-01  6.86D-01  9.42D-01
                    CP:  9.34D-01
 E= -228.755293421832     Delta-E=       -0.000000000022 Rises=F Damp=F
 DIIS: error= 9.24D-08 at cycle  12 NSaved=  12.
 NSaved=12 IEnMin=12 EnMin= -228.755293421832     IErMin=12 ErrMin= 9.24D-08
 ErrMax= 9.24D-08  0.00D+00 EMaxC= 1.00D-01 BMatC= 1.19D-12 BMatP= 1.94D-11
 IDIUse=1 WtCom= 1.00D+00 WtEn= 0.00D+00
 Coeff-Com: -0.103D-05 0.314D-05 0.579D-05 0.518D-05-0.516D-04-0.110D-03
 Coeff-Com: -0.886D-03-0.716D-02-0.733D-02 0.216D-01 0.244D+00 0.750D+00
 Coeff:     -0.103D-05 0.314D-05 0.579D-05 0.518D-05-0.516D-04-0.110D-03
 Coeff:     -0.886D-03-0.716D-02-0.733D-02 0.216D-01 0.244D+00 0.750D+00
 Gap=     0.188 Goal=   None    Shift=    0.000
 RMSDP=1.06D-08 MaxDP=3.98D-07 DE=-2.17D-11 OVMax= 6.77D-07

 Cycle  13  Pass 1  IDiag  1:
 RMSU=  6.80D-09    CP:  9.10D-01  7.73D-01  7.69D-01  7.58D-01  6.65D-01
                    CP:  8.10D-01  9.23D-01  9.94D-01  6.86D-01  9.45D-01
                    CP:  9.93D-01  9.45D-01
 E= -228.755293421836     Delta-E=       -0.000000000004 Rises=F Damp=F
 DIIS: error= 6.10D-09 at cycle  13 NSaved=  13.
 NSaved=13 IEnMin=13 EnMin= -228.755293421836     IErMin=13 ErrMin= 6.10D-09
 ErrMax= 6.10D-09  0.00D+00 EMaxC= 1.00D-01 BMatC= 1.85D-14 BMatP= 1.19D-12
 IDIUse=1 WtCom= 1.00D+00 WtEn= 0.00D+00
 Coeff-Com: -0.171D-06 0.315D-06 0.156D-05 0.530D-05 0.111D-04 0.304D-04
 Coeff-Com: -0.285D-04-0.103D-02-0.196D-02-0.423D-02 0.936D-02 0.107D+00
 Coeff-Com:  0.891D+00
 Coeff:     -0.171D-06 0.315D-06 0.156D-05 0.530D-05 0.111D-04 0.304D-04
 Coeff:     -0.285D-04-0.103D-02-0.196D-02-0.423D-02 0.936D-02 0.107D+00
 Coeff:      0.891D+00
 Gap=     0.188 Goal=   None    Shift=    0.000
 RMSDP=2.56D-09 MaxDP=1.55D-07 DE=-3.98D-12 OVMax= 1.09D-07

 SCF Done:  E(RB3LYP) =  -228.755293422     A.U. after   13 cycles
            NFock= 13  Conv=0.26D-08     -V/T= 2.0041
 KE= 2.278164563112D+02 PE=-7.946218729230D+02 EE= 2.074933341151D+02
 Leave Link  502 at Fri Mar  1 08:40:21 2019, MaxMem=    33554432 cpu:       363.1
 (Enter /home/proyectos/fulerenos/M3C-v2.0/M3C-deps_CCC/g09-AM64L-G09RevC.01/l801.exe)
 DoSCS=F DFT=T ScalE2(SS,OS)=  1.000000  1.000000
 Range of M.O.s used for correlation:     1   215
 NBasis=   215 NAE=    17 NBE=    17 NFC=     0 NFV=     0
 NROrb=    215 NOA=    17 NOB=    17 NVA=   198 NVB=   198

 **** Warning!!: The largest alpha MO coefficient is  0.89459874D+02

 Leave Link  801 at Fri Mar  1 08:40:21 2019, MaxMem=    33554432 cpu:         0.1
 (Enter /home/proyectos/fulerenos/M3C-v2.0/M3C-deps_CCC/g09-AM64L-G09RevC.01/l1101.exe)
 Using compressed storage, NAtomX=     7.
 Will process      8 centers per pass.
 Leave Link 1101 at Fri Mar  1 08:40:22 2019, MaxMem=    33554432 cpu:         1.4
 (Enter /home/proyectos/fulerenos/M3C-v2.0/M3C-deps_CCC/g09-AM64L-G09RevC.01/l1102.exe)
 Symmetrizing basis deriv contribution to polar:
 IMax=3 JMax=2 DiffMx= 0.00D+00
 Leave Link 1102 at Fri Mar  1 08:40:22 2019, MaxMem=    33554432 cpu:         0.1
 (Enter /home/proyectos/fulerenos/M3C-v2.0/M3C-deps_CCC/g09-AM64L-G09RevC.01/l1110.exe)
 Forming Gx(P) for the SCF density, NAtomX=     7.
 Integral derivatives from FoFJK, PRISM(SPDF).
 Do as many integral derivatives as possible in FoFJK.
 G2DrvN: MDV=      33554272.
 G2DrvN: will do     8 centers at a time, making    1 passes.
 Calling FoFCou, ICntrl=  3107 FMM=F I1Cent=   0 AccDes= 0.00D+00.
 FoFJK:  IHMeth= 1 ICntrl=    3107 DoSepK=F KAlg= 0 I1Cent=   0 FoldK=F
 IRaf=         0 NMat=   1 IRICut=       1 DoRegI=T DoRafI=F ISym2E= 0.
 FoFCou: FMM=F IPFlag=           0 FMFlag=      100000 FMFlg1=           0
         NFxFlg=           0 DoJE=F BraDBF=F KetDBF=F FulRan=T
         wScrn=  0.000000 ICntrl=    3107 IOpCl=  0 I1Cent=           0 NGrid=           0
         NMat0=    1 NMatS0=      1 NMatT0=    0 NMatD0=    1 NMtDS0=    0 NMtDT0=    0
 Symmetry not used in FoFCou.
 End of G2Drv F.D. properties file   721 does not exist.
 End of G2Drv F.D. properties file   722 does not exist.
 End of G2Drv F.D. properties file   788 does not exist.
 Leave Link 1110 at Fri Mar  1 08:41:15 2019, MaxMem=    33554432 cpu:       213.0
 (Enter /home/proyectos/fulerenos/M3C-v2.0/M3C-deps_CCC/g09-AM64L-G09RevC.01/l1002.exe)
 Minotr:  Closed shell wavefunction.
          IDoAtm=1111111
          Direct CPHF calculation.
          Differentiating once with respect to electric field.
                with respect to dipole field.
          Differentiating once with respect to nuclear coordinates.
          Requested convergence is 1.0D-08 RMS, and 1.0D-07 maximum.
          Secondary convergence is 1.0D-12 RMS, and 1.0D-12 maximum.
          NewPWx=T KeepS1=F KeepF1=F KeepIn=T MapXYZ=F SortEE=F KeepMc=T.
          MDV=      33554143 using IRadAn=       2.
 Generate precomputed XC quadrature information.
          Solving linear equations simultaneously, MaxMat=       0.
 FoFJK:  IHMeth= 1 ICntrl=       0 DoSepK=F KAlg= 0 I1Cent=   0 FoldK=F
 IRaf= 980000000 NMat=  24 IRICut=      60 DoRegI=T DoRafI=T ISym2E= 2.
 FoFCou: FMM=F IPFlag=           0 FMFlag=      100000 FMFlg1=           0
         NFxFlg=           0 DoJE=F BraDBF=F KetDBF=F FulRan=T
         wScrn=  0.000000 ICntrl=       0 IOpCl=  0 I1Cent=           0 NGrid=           0
         NMat0=   24 NMatS0=     24 NMatT0=    0 NMatD0=   24 NMtDS0=    0 NMtDT0=    0
 Integrals replicated using symmetry in FoFCou.
          There are    24 degrees of freedom in the 1st order CPHF.  IDoFFX=6 NUNeed=     3.
     21 vectors produced by pass  0 Test12= 1.40D-14 4.17D-09 XBig12= 7.85D+01 5.33D+00.
 AX will form    21 AO Fock derivatives at one time.
     21 vectors produced by pass  1 Test12= 1.40D-14 4.17D-09 XBig12= 2.33D+01 9.74D-01.
     21 vectors produced by pass  2 Test12= 1.40D-14 4.17D-09 XBig12= 2.75D-01 9.53D-02.
     21 vectors produced by pass  3 Test12= 1.40D-14 4.17D-09 XBig12= 1.77D-03 6.17D-03.
     21 vectors produced by pass  4 Test12= 1.40D-14 4.17D-09 XBig12= 6.38D-06 4.00D-04.
     21 vectors produced by pass  5 Test12= 1.40D-14 4.17D-09 XBig12= 1.83D-08 2.43D-05.
     10 vectors produced by pass  6 Test12= 1.40D-14 4.17D-09 XBig12= 3.81D-11 8.42D-07.
      3 vectors produced by pass  7 Test12= 1.40D-14 4.17D-09 XBig12= 9.60D-14 6.49D-08.
      3 vectors produced by pass  8 Test12= 1.40D-14 4.17D-09 XBig12= 9.82D-15 1.78D-08.
 InvSVY:  IOpt=1 It=  1 EMax= 1.78D-15
 Solved reduced A of dimension   142 with    24 vectors.
 FullF1:  Do perturbations    1 to     3.
 Isotropic polarizability for W=    0.000000       47.97 Bohr**3.
 End of Minotr F.D. properties file   721 does not exist.
 End of Minotr F.D. properties file   722 does not exist.
 End of Minotr F.D. properties file   788 does not exist.
 Leave Link 1002 at Fri Mar  1 08:43:16 2019, MaxMem=    33554432 cpu:       480.8
 (Enter /home/proyectos/fulerenos/M3C-v2.0/M3C-deps_CCC/g09-AM64L-G09RevC.01/l601.exe)
 Copying SCF densities to generalized density rwf, IOpCl= 0 IROHF=0.

 **********************************************************************

            Population analysis using the SCF density.

 **********************************************************************

 Orbital symmetries:
       Occupied  (A) (A) (A) (A) (A) (A) (A) (A) (A) (A) (A) (A)
                 (A) (A) (A) (A) (A)
       Virtual   (A) (A) (A) (A) (A) (A) (A) (A) (A) (A) (A) (A)
                 (A) (A) (A) (A) (A) (A) (A) (A) (A) (A) (A) (A)
                 (A) (A) (A) (A) (A) (A) (A) (A) (A) (A) (A) (A)
                 (A) (A) (A) (A) (A) (A) (A) (A) (A) (A) (A) (A)
                 (A) (A) (A) (A) (A) (A) (A) (A) (A) (A) (A) (A)
                 (A) (A) (A) (A) (A) (A) (A) (A) (A) (A) (A) (A)
                 (A) (A) (A) (A) (A) (A) (A) (A) (A) (A) (A) (A)
                 (A) (A) (A) (A) (A) (A) (A) (A) (A) (A) (A) (A)
                 (A) (A) (A) (A) (A) (A) (A) (A) (A) (A) (A) (A)
                 (A) (A) (A) (A) (A) (A) (A) (A) (A) (A) (A) (A)
                 (A) (A) (A) (A) (A) (A) (A) (A) (A) (A) (A) (A)
                 (A) (A) (A) (A) (A) (A) (A) (A) (A) (A) (A) (A)
                 (A) (A) (A) (A) (A) (A) (A) (A) (A) (A) (A) (A)
                 (A) (A) (A) (A) (A) (A) (A) (A) (A) (A) (A) (A)
                 (A) (A) (A) (A) (A) (A) (A) (A) (A) (A) (A) (A)
                 (A) (A) (A) (A) (A) (A) (A) (A) (A) (A) (A) (A)
                 (A) (A) (A) (A) (A) (A)
 The electronic state is 1-A.
 Alpha  occ. eigenvalues --  -19.15733 -10.30392 -10.26068 -10.25623 -10.22535
 Alpha  occ. eigenvalues --   -1.08734  -0.95894  -0.72548  -0.61778  -0.56576
 Alpha  occ. eigenvalues --   -0.49822  -0.48326  -0.42907  -0.40677  -0.37226
 Alpha  occ. eigenvalues --   -0.29920  -0.26485
 Alpha virt. eigenvalues --   -0.07660  -0.06493  -0.04292  -0.00924   0.00297
 Alpha virt. eigenvalues --    0.03193   0.03959   0.05285   0.06350   0.07339
 Alpha virt. eigenvalues --    0.08358   0.09669   0.10548   0.11265   0.11289
 Alpha virt. eigenvalues --    0.12746   0.13292   0.13927   0.16051   0.18164
 Alpha virt. eigenvalues --    0.18387   0.19668   0.20593   0.21676   0.22310
 Alpha virt. eigenvalues --    0.23900   0.26176   0.26718   0.30621   0.31774
 Alpha virt. eigenvalues --    0.33884   0.36165   0.36461   0.37982   0.38972
 Alpha virt. eigenvalues --    0.40963   0.42489   0.43283   0.44843   0.47212
 Alpha virt. eigenvalues --    0.49494   0.49762   0.51958   0.52461   0.54486
 Alpha virt. eigenvalues --    0.54784   0.55357   0.58540   0.60266   0.61246
 Alpha virt. eigenvalues --    0.61320   0.64129   0.66624   0.67234   0.70826
 Alpha virt. eigenvalues --    0.73667   0.74395   0.76051   0.80915   0.81684
 Alpha virt. eigenvalues --    0.83166   0.86435   0.96208   0.97360   0.99611
 Alpha virt. eigenvalues --    1.00818   1.02016   1.05492   1.07336   1.08561
 Alpha virt. eigenvalues --    1.09672   1.11101   1.11800   1.13914   1.16354
 Alpha virt. eigenvalues --    1.20772   1.27647   1.28703   1.29988   1.33521
 Alpha virt. eigenvalues --    1.34925   1.37610   1.42157   1.48719   1.50075
 Alpha virt. eigenvalues --    1.53520   1.54264   1.59679   1.64706   1.71106
 Alpha virt. eigenvalues --    1.75271   1.79341   1.81048   1.91718   1.91904
 Alpha virt. eigenvalues --    1.94923   2.02115   2.05064   2.08534   2.14323
 Alpha virt. eigenvalues --    2.18124   2.34810   2.37716   2.41053   2.47653
 Alpha virt. eigenvalues --    2.57717   2.60653   2.67997   2.70993   2.72860
 Alpha virt. eigenvalues --    2.74295   2.78666   2.80085   2.83355   2.84221
 Alpha virt. eigenvalues --    2.89082   2.90991   2.95814   2.96953   2.99460
 Alpha virt. eigenvalues --    3.04203   3.08641   3.14183   3.17023   3.20410
 Alpha virt. eigenvalues --    3.27271   3.30370   3.30789   3.40246   3.48022
 Alpha virt. eigenvalues --    3.49486   3.53022   3.54329   3.59469   3.60760
 Alpha virt. eigenvalues --    3.67555   3.76039   3.80296   3.82536   3.96153
 Alpha virt. eigenvalues --    4.02115   4.05142   4.10580   4.19458   4.21322
 Alpha virt. eigenvalues --    4.33508   4.38035   4.41259   4.43619   4.47770
 Alpha virt. eigenvalues --    4.66570   4.68445   4.73669   4.95626   5.07097
 Alpha virt. eigenvalues --    5.10419   5.13795   5.16838   5.44482   5.49204
 Alpha virt. eigenvalues --    5.50772   5.66176   5.76344   6.05487   6.24763
 Alpha virt. eigenvalues --    6.26961   6.56474   6.70484   6.99882   7.00941
 Alpha virt. eigenvalues --    7.04170   7.05668   7.09382   7.18552   7.18976
 Alpha virt. eigenvalues --    7.31153   7.33734   7.38024   7.45758   7.51272
 Alpha virt. eigenvalues --    7.55443   7.58196   7.97311   8.04527   8.09706
 Alpha virt. eigenvalues --    8.21095   8.40054   8.72314  14.31517  14.33747
 Alpha virt. eigenvalues --   14.63526  14.74960  14.96486  24.03366  25.04759
 Alpha virt. eigenvalues --   25.23285  25.73904  50.40197
          Condensed to atoms (all electrons):
               1          2          3          4          5          6
     1  C    5.693381  -0.216988  -0.123598  -0.136588  -0.011363   0.527776
     2  C   -0.216988   8.318471  -1.031630  -0.610157  -0.053102   0.011773
     3  C   -0.123598  -1.031630   7.195563  -0.644522   0.295431  -0.009205
     4  C   -0.136588  -0.610157  -0.644522   7.496755   0.032989  -0.247546
     5  H   -0.011363  -0.053102   0.295431   0.032989   0.476545  -0.000989
     6  H    0.527776   0.011773  -0.009205  -0.247546  -0.000989   0.641462
     7  O    0.091046   0.015285   0.014098  -0.025980   0.000728  -0.063582
               7
     1  C    0.091046
     2  C    0.015285
     3  C    0.014098
     4  C   -0.025980
     5  H    0.000728
     6  H   -0.063582
     7  O    8.550071
 Mulliken charges:
               1
     1  C    0.176334
     2  C   -0.433652
     3  C    0.303863
     4  C    0.135050
     5  H    0.259762
     6  H    0.140311
     7  O   -0.581667
 Sum of Mulliken charges =  -0.00000
 Mulliken charges with hydrogens summed into heavy atoms:
               1
     1  C    0.316644
     2  C   -0.433652
     3  C    0.563625
     4  C    0.135050
     7  O   -0.581667
 APT charges:
               1
     1  C    0.920711
     2  C   -0.056786
     3  C    0.056306
     4  C   -0.315165
     5  H    0.102947
     6  H   -0.032292
     7  O   -0.675720
 Sum of APT charges =   0.00000
 APT charges with hydrogens summed into heavy atoms:
               1
     1  C    0.888419
     2  C   -0.056786
     3  C    0.159253
     4  C   -0.315165
     7  O   -0.675720
 Electronic spatial extent (au):  <R**2>=            368.6205
 Charge=             -0.0000 electrons
 Dipole moment (field-independent basis, Debye):
    X=             -0.8945    Y=              2.3679    Z=              2.3608  Tot=              3.4613
 Quadrupole moment (field-independent basis, Debye-Ang):
   XX=            -34.0829   YY=            -29.2440   ZZ=            -27.7217
   XY=             -7.2376   XZ=              1.5142   YZ=             -0.9952
 Traceless Quadrupole moment (field-independent basis, Debye-Ang):
   XX=             -3.7334   YY=              1.1055   ZZ=              2.6278
   XY=             -7.2376   XZ=              1.5142   YZ=             -0.9952
 Octapole moment (field-independent basis, Debye-Ang**2):
  XXX=              4.2446  YYY=             12.1417  ZZZ=              2.0837  XYY=              5.9291
  XXY=             12.7496  XXZ=              7.2446  XZZ=              5.1591  YZZ=              1.2903
  YYZ=              1.5328  XYZ=              1.5262
 Hexadecapole moment (field-independent basis, Debye-Ang**3):
 XXXX=           -410.9083 YYYY=            -80.2301 ZZZZ=            -52.1308 XXXY=            -36.0605
 XXXZ=             -2.8656 YYYX=            -22.7304 YYYZ=             -3.2600 ZZZX=             -1.4645
 ZZZY=             -2.5234 XXYY=            -76.1285 XXZZ=            -71.4710 YYZZ=            -22.6685
 XXYZ=             -3.2958 YYXZ=             -3.7741 ZZXY=             -4.2363
 N-N= 1.305567890749D+02 E-N=-7.946218732581D+02  KE= 2.278164563112D+02
  Exact polarizability:  65.143   1.536  40.925   1.597   0.067  37.830
 Approx polarizability: 100.326   2.695  61.572  -1.491  -0.718  58.245
 No NMR shielding tensors so no spin-rotation constants.
 Leave Link  601 at Fri Mar  1 08:43:16 2019, MaxMem=    33554432 cpu:         1.0
 (Enter /home/proyectos/fulerenos/M3C-v2.0/M3C-deps_CCC/g09-AM64L-G09RevC.01/l701.exe)
 Compute integral second derivatives.
 ... and contract with generalized density number  0.
 Leave Link  701 at Fri Mar  1 08:43:16 2019, MaxMem=    33554432 cpu:         1.3
 (Enter /home/proyectos/fulerenos/M3C-v2.0/M3C-deps_CCC/g09-AM64L-G09RevC.01/l702.exe)
 L702 exits ... SP integral derivatives will be done elsewhere.
 Leave Link  702 at Fri Mar  1 08:43:16 2019, MaxMem=    33554432 cpu:         0.1
 (Enter /home/proyectos/fulerenos/M3C-v2.0/M3C-deps_CCC/g09-AM64L-G09RevC.01/l703.exe)
 Compute integral second derivatives, UseDBF=F ICtDFT=           0.
 Integral derivatives from FoFJK, PRISM(SPDF).
 Calling FoFJK, ICntrl=    100127 FMM=F ISym2X=0 I1Cent= 0 IOpClX= 0 NMat=1 NMatS=1 NMatT=0.
 FoFJK:  IHMeth= 1 ICntrl=  100127 DoSepK=F KAlg= 0 I1Cent=   0 FoldK=F
 IRaf=         0 NMat=   1 IRICut=       1 DoRegI=T DoRafI=F ISym2E= 0.
 FoFCou: FMM=F IPFlag=           0 FMFlag=      100000 FMFlg1=         800
         NFxFlg=           0 DoJE=F BraDBF=F KetDBF=F FulRan=T
         wScrn=  0.000000 ICntrl=  100127 IOpCl=  0 I1Cent=           0 NGrid=           0
         NMat0=    1 NMatS0=      1 NMatT0=    0 NMatD0=    1 NMtDS0=    0 NMtDT0=    0
 Symmetry not used in FoFCou.
 Leave Link  703 at Fri Mar  1 08:44:28 2019, MaxMem=    33554432 cpu:       287.1
 (Enter /home/proyectos/fulerenos/M3C-v2.0/M3C-deps_CCC/g09-AM64L-G09RevC.01/l716.exe)
 Dipole        =-3.51934929D-01 9.31613902D-01 9.28805718D-01
 Polarizability= 6.51431587D+01 1.53572668D+00 4.09245826D+01
                 1.59673001D+00 6.65675903D-02 3.78299382D+01
 Full mass-weighted force constant matrix:
 Low frequencies ---   -7.7453   -0.0010   -0.0008   -0.0001    4.1332   10.3527
 Low frequencies ---  119.7436  214.9587  265.2438
 Diagonal vibrational polarizability:
       18.9359134      12.1116939      25.4771720
 Harmonic frequencies (cm**-1), IR intensities (KM/Mole), Raman scattering
 activities (A**4/AMU), depolarization ratios for plane and unpolarized
 incident light, reduced masses (AMU), force constants (mDyne/A),
 and normal coordinates:
                      1                      2                      3
                      A                      A                      A
 Frequencies --    119.7426               214.9585               265.2436
 Red. masses --      3.5670                 6.8803                 3.0863
 Frc consts  --      0.0301                 0.1873                 0.1279
 IR Inten    --     20.9251                14.0224                 4.8708
  Atom  AN      X      Y      Z        X      Y      Z        X      Y      Z
     1   6     0.01  -0.21  -0.05     0.05  -0.04   0.21     0.00  -0.12  -0.02
     2   6    -0.12  -0.01   0.22     0.14   0.05  -0.21     0.22  -0.04   0.04
     3   6     0.11   0.06  -0.17     0.17   0.04  -0.13    -0.16  -0.01  -0.05
     4   6     0.00  -0.09  -0.01     0.03  -0.10   0.40    -0.01   0.29   0.08
     5   1     0.25   0.16  -0.38     0.26   0.11  -0.43    -0.43  -0.15  -0.14
     6   1     0.04  -0.71  -0.20     0.49   0.04   0.12     0.02  -0.74  -0.20
     7   8    -0.01   0.22   0.05    -0.34   0.03  -0.18    -0.01  -0.04  -0.01
                      4                      5                      6
                      A                      A                      A
 Frequencies --    586.2427               801.0978               924.1837
 Red. masses --      6.1661                 2.5379                 1.4538
 Frc consts  --      1.2486                 0.9596                 0.7316
 IR Inten    --      0.4047                37.4476                 7.2378
  Atom  AN      X      Y      Z        X      Y      Z        X      Y      Z
     1   6     0.22   0.03  -0.09     0.20  -0.03   0.20    -0.03   0.07  -0.03
     2   6    -0.26   0.04  -0.13    -0.15   0.04   0.02    -0.01  -0.07   0.00
     3   6    -0.20  -0.04  -0.03    -0.04  -0.02  -0.10     0.01   0.01  -0.13
     4   6    -0.17  -0.06   0.36     0.06   0.04  -0.11    -0.04   0.02   0.09
     5   1    -0.22   0.00  -0.60    -0.54  -0.34   0.54     0.39   0.14   0.86
     6   1     0.36  -0.01  -0.14     0.38  -0.07   0.13    -0.01  -0.19  -0.11
     7   8     0.30   0.02  -0.04    -0.04   0.00  -0.04     0.03  -0.02  -0.00
                      7                      8                      9
                      A                      A                      A
 Frequencies --    947.7600               989.6491              1103.4495
 Red. masses --      1.8182                 1.8690                 4.8209
 Frc consts  --      0.9623                 1.0785                 3.4585
 IR Inten    --      7.5313                33.9581                40.3970
  Atom  AN      X      Y      Z        X      Y      Z        X      Y      Z
     1   6     0.05   0.12   0.10    -0.09   0.17  -0.03     0.10   0.15   0.10
     2   6    -0.10  -0.06  -0.04    -0.05   0.05  -0.00     0.20  -0.11   0.02
     3   6    -0.03  -0.09   0.08     0.15  -0.03  -0.00    -0.07   0.30   0.06
     4   6     0.05   0.09  -0.07     0.06  -0.05   0.05    -0.26  -0.25  -0.14
     5   1     0.62   0.30  -0.34    -0.57  -0.43  -0.06    -0.28   0.22  -0.08
     6   1     0.07  -0.57  -0.10    -0.17  -0.58  -0.22     0.37  -0.59  -0.18
     7   8    -0.02  -0.03  -0.02     0.00  -0.04   0.00     0.02  -0.04  -0.02
                     10                     11                     12
                      A                      A                      A
 Frequencies --   1273.2778              1405.7438              1728.2049
 Red. masses --      7.3384                 1.2240                 7.8880
 Frc consts  --      7.0097                 1.4251                13.8806
 IR Inten    --     14.8786                 6.3308                49.2498
  Atom  AN      X      Y      Z        X      Y      Z        X      Y      Z
     1   6    -0.01   0.08   0.04    -0.07   0.01  -0.05    -0.06   0.03  -0.09
     2   6     0.21   0.48   0.13     0.00   0.03   0.01    -0.09  -0.19  -0.06
     3   6    -0.33  -0.24  -0.12     0.00  -0.04  -0.00    -0.32   0.31  -0.01
     4   6     0.10  -0.29  -0.03     0.01   0.01  -0.02     0.57  -0.16   0.09
     5   1     0.45   0.14   0.13     0.04  -0.02  -0.02    -0.35   0.49   0.02
     6   1    -0.22  -0.37  -0.03     0.94   0.11  -0.30     0.03  -0.00  -0.12
     7   8     0.01  -0.01  -0.03    -0.02  -0.02   0.07    -0.05  -0.02   0.05
                     13                     14                     15
                      A                      A                      A
 Frequencies --   1766.9481              2909.5943              3242.4224
 Red. masses --     10.3992                 1.0822                 1.1133
 Frc consts  --     19.1292                 5.3980                 6.8961
 IR Inten    --    274.5253                59.6688                 2.6209
  Atom  AN      X      Y      Z        X      Y      Z        X      Y      Z
     1   6     0.54   0.14  -0.44    -0.02   0.02  -0.08     0.00   0.00   0.00
     2   6     0.00   0.03   0.00    -0.00   0.00  -0.00     0.00   0.01   0.00
     3   6     0.02  -0.04  -0.01    -0.00   0.00  -0.00     0.05  -0.08  -0.01
     4   6    -0.06   0.01   0.02    -0.00   0.00  -0.00    -0.01   0.00  -0.00
     5   1     0.08  -0.03   0.04     0.00  -0.00  -0.00    -0.47   0.87   0.07
     6   1    -0.44   0.04  -0.19     0.25  -0.26   0.93     0.00  -0.00   0.00
     7   8    -0.36  -0.10   0.33     0.00   0.00  -0.00     0.00  -0.00  -0.00

 -------------------
 - Thermochemistry -
 -------------------
 Temperature   298.150 Kelvin.  Pressure   1.00000 Atm.
 Atom     1 has atomic number  6 and mass  12.00000
 Atom     2 has atomic number  6 and mass  12.00000
 Atom     3 has atomic number  6 and mass  12.00000
 Atom     4 has atomic number  6 and mass  12.00000
 Atom     5 has atomic number  1 and mass   1.00783
 Atom     6 has atomic number  1 and mass   1.00783
 Atom     7 has atomic number  8 and mass  15.99491
 Molecular mass:    66.01056 amu.
 Principal axes and moments of inertia in atomic units:
                           1         2         3
     Eigenvalues --    79.05758 512.91167 537.01095
           X            0.99947  -0.02882   0.01495
           Y            0.02978   0.99722  -0.06823
           Z           -0.01294   0.06864   0.99756
 This molecule is an asymmetric top.
 Rotational symmetry number  1.
 Rotational temperatures (Kelvin)      1.09558     0.16887     0.16129
 Rotational constants (GHZ):          22.82819     3.51862     3.36072
 Zero-point vibrational energy     109329.8 (Joules/Mol)
                                   26.13045 (Kcal/Mol)
 Warning -- explicit consideration of   4 degrees of freedom as
           vibrations may cause significant error
 Vibrational temperatures:    172.28   309.28   381.63   843.47  1152.60
          (Kelvin)           1329.69  1363.61  1423.88  1587.62  1831.96
                             2022.55  2486.50  2542.24  4186.25  4665.12
 
 Zero-point correction=                           0.041642 (Hartree/Particle)
 Thermal correction to Energy=                    0.046601
 Thermal correction to Enthalpy=                  0.047545
 Thermal correction to Gibbs Free Energy=         0.013838
 Sum of electronic and zero-point Energies=           -228.713652
 Sum of electronic and thermal Energies=              -228.708692
 Sum of electronic and thermal Enthalpies=            -228.707748
 Sum of electronic and thermal Free Energies=         -228.741455
 
                     E (Thermal)             CV                S
                      KCal/Mol        Cal/Mol-Kelvin    Cal/Mol-Kelvin
 Total                   29.243             15.059             70.942
 Electronic               0.000              0.000              0.000
 Translational            0.889              2.981             38.480
 Rotational               0.889              2.981             24.591
 Vibrational             27.465              9.097              7.871
 Vibration     1          0.609              1.933              3.105
 Vibration     2          0.645              1.818              2.001
 Vibration     3          0.671              1.737              1.627
 Vibration     4          0.943              1.061              0.474
                       Q            Log10(Q)             Ln(Q)
 Total Bot       0.431271D-06         -6.365250        -14.656530
 Total V=0       0.614445D+13         12.788483         29.446571
 Vib (Bot)       0.387296D-18        -18.411956        -42.395096
 Vib (Bot)    1  0.170674D+01          0.232168          0.534586
 Vib (Bot)    2  0.922120D+00         -0.035213         -0.081080
 Vib (Bot)    3  0.730373D+00         -0.136455         -0.314200
 Vib (Bot)    4  0.258303D+00         -0.587870         -1.353621
 Vib (V=0)       0.551794D+01          0.741777          1.708004
 Vib (V=0)    1  0.227847D+01          0.357644          0.823506
 Vib (V=0)    2  0.154895D+01          0.190039          0.437580
 Vib (V=0)    3  0.138512D+01          0.141489          0.325790
 Vib (V=0)    4  0.106278D+01          0.026443          0.060887
 Electronic      0.100000D+01          0.000000          0.000000
 Translational   0.210802D+08          7.323875         16.863846
 Rotational      0.528240D+05          4.722831         10.874720
 
                                                              b3lyp opt
                                                             IR Spectrum
 
     3             2                                           1 1           1     1     1                                           
     2             9                                           7 7           4     2     1    999    8        5           2 2   1    
     4             1                                           6 2           0     7     0    942    0        8           6 1   2    
     2             0                                           7 8           6     3     3    084    1        6           5 5   0    
 
     X             X                                           X X           X     X     X    XXX    X        X           X X   X    
                   X                                           X X                       X    X      X                          X    
                   X                                           X X                       X           X                               
                   X                                           X X                                                                   
                                                               X                                                                     
                                                               X                                                                     
                                                               X                                                                     
                                                               X                                                                     
                                                               X                                                                     
                                                               X                                                                     
                                                               X                                                                     
                                                               X                                                                     
                                                               X                                                                     
                                                               X                                                                     
                                                               X                                                                     
                                                               X                                                                     
                                                               X                                                                     
                                                               X                                                                     
                                                               X                                                                     
                                                               X                                                                     
 
 ***** Axes restored to original set *****
 -------------------------------------------------------------------
 Center     Atomic                   Forces (Hartrees/Bohr)
 Number     Number              X              Y              Z
 -------------------------------------------------------------------
      1        6          -0.000013308    0.000007157    0.000037246
      2        6          -0.000003713    0.000016291    0.000002595
      3        6           0.000018662   -0.000005483   -0.000008868
      4        6           0.000015375   -0.000019615   -0.000006112
      5        1          -0.000021667    0.000001708   -0.000008114
      6        1           0.000002178    0.000002974    0.000001641
      7        8           0.000002474   -0.000003033   -0.000018388
 -------------------------------------------------------------------
 Cartesian Forces:  Max     0.000037246 RMS     0.000013671
 Z-matrix is all fixed cartesians, so copy forces.
 Force constants in Cartesian coordinates: 
                1             2             3             4             5 
      1  0.716439D+00
      2  0.161596D+00  0.634785D+00
      3 -0.152453D+00 -0.178093D+00  0.274460D+00
      4 -0.124732D-01  0.606291D-02 -0.530445D-03  0.269201D+00
      5  0.131546D-01  0.100277D-01  0.159833D-02  0.321348D-02  0.640971D-01
      6  0.112034D-01 -0.190906D-02  0.103459D-01  0.184212D+00  0.110871D+00
      7 -0.187190D-01  0.130850D-01  0.555823D-02 -0.487564D-01 -0.256880D-01
      8  0.981001D-03  0.161499D-01 -0.960874D-02 -0.252586D-01 -0.631035D-01
      9 -0.187683D-01 -0.528895D-02  0.441342D-02 -0.739185D-01 -0.116485D+00
     10 -0.151791D+00  0.665721D-01 -0.156609D-01 -0.218062D+00  0.103200D-01
     11  0.460478D-01 -0.128513D+00  0.851665D-02  0.123553D-01 -0.110932D-01
     12  0.473816D-02  0.144535D-02 -0.811582D-01 -0.112874D+00  0.124953D-01
     13  0.555793D-02 -0.117586D-02  0.165476D-02  0.973973D-02 -0.180034D-02
     14 -0.184973D-02 -0.189183D-02  0.463423D-03  0.270908D-02  0.518330D-02
     15  0.221176D-02  0.225114D-02  0.184589D-02  0.668422D-02 -0.708705D-02
     16 -0.685357D-01  0.426537D-01 -0.126282D-01 -0.231240D-02  0.209099D-03
     17  0.388827D-01 -0.241415D+00  0.528394D-01  0.586982D-03 -0.611979D-03
     18 -0.108244D-01  0.508191D-01 -0.736820D-01 -0.102818D-02 -0.976207D-03
     19 -0.470477D+00 -0.288794D+00  0.174060D+00  0.266300D-02  0.591161D-03
     20 -0.258812D+00 -0.289142D+00  0.124284D+00  0.330878D-03 -0.449938D-02
     21  0.163893D+00  0.130775D+00 -0.136225D+00 -0.254552D-02 -0.416052D-03
                6             7             8             9            10 
      6  0.351106D+00
      7 -0.768622D-01  0.400620D+00
      8 -0.114894D+00 -0.203293D+00  0.354553D+00
      9 -0.289361D+00 -0.180918D+00  0.373456D+00  0.692107D+00
     10 -0.115919D+00 -0.271061D+00  0.186421D+00  0.211269D+00  0.724213D+00
     11  0.141621D-01  0.166897D+00 -0.179173D+00 -0.126797D+00 -0.252207D+00
     12 -0.676769D-01  0.181390D+00 -0.117067D+00 -0.152068D+00 -0.104124D+00
     13 -0.209155D-02 -0.627525D-01  0.395042D-01  0.631793D-01 -0.413234D-02
     14 -0.387218D-02  0.437541D-01 -0.125545D+00 -0.130091D+00  0.396038D-02
     15 -0.966893D-03  0.718266D-01 -0.132939D+00 -0.253478D+00 -0.716892D-02
     16  0.273769D-02 -0.521152D-02 -0.220813D-02 -0.121971D-02  0.185345D-02
     17 -0.121226D-02  0.155939D-02  0.704139D-04  0.342877D-03  0.858393D-02
     18 -0.355796D-02  0.180966D-02  0.113850D-02 -0.265281D-03  0.111877D-02
     19 -0.328042D-02  0.587999D-02  0.385285D-02  0.376912D-03 -0.810197D-01
     20 -0.314544D-02  0.368524D-02 -0.295193D-02  0.486316D-02 -0.236508D-01
     21  0.111632D-03 -0.280417D-02 -0.851940D-04 -0.134702D-02  0.304852D-01
               11            12            13            14            15 
     11  0.287317D+00
     12  0.103702D+00  0.262337D+00
     13  0.131414D-01  0.105066D-01  0.534408D-01
     14  0.869006D-02 -0.102009D-01 -0.486020D-01  0.113276D+00
     15 -0.463627D-02  0.191240D-02 -0.730458D-01  0.143311D+00  0.251640D+00
     16  0.269732D-01 -0.475775D-02  0.197068D-03  0.247834D-03 -0.231700D-03
     17 -0.895324D-02  0.815505D-02 -0.244304D-03 -0.400367D-03 -0.750609D-04
     18  0.551430D-02  0.207486D-01 -0.724702D-03 -0.539005D-03 -0.169380D-03
     19 -0.132074D-01  0.251201D-01 -0.205075D-02 -0.219653D-03 -0.276159D-03
     20  0.317248D-01  0.147061D-02 -0.823043D-03  0.688553D-03 -0.824870D-03
     21 -0.461694D-03  0.159056D-01  0.521388D-03  0.928246D-03 -0.783712D-03
               16            17            18            19            20 
     16  0.674406D-01
     17 -0.278193D-01  0.273859D+00
     18  0.268620D-03 -0.781175D-01  0.460282D-01
     19  0.656845D-02 -0.215494D-01  0.938020D-02  0.538436D+00
     20 -0.400563D-01 -0.225489D-01  0.221607D-01  0.319326D+00  0.286729D+00
     21  0.158310D-01  0.180675D-01  0.108979D-01 -0.205381D+00 -0.148808D+00
               21 
     21  0.111441D+00
 Leave Link  716 at Fri Mar  1 08:44:28 2019, MaxMem=    33554432 cpu:         0.1
 (Enter /home/proyectos/fulerenos/M3C-v2.0/M3C-deps_CCC/g09-AM64L-G09RevC.01/l103.exe)

 GradGradGradGradGradGradGradGradGradGradGradGradGradGradGradGradGradGrad
 Berny optimization.
 Search for a local minimum.
 Step number   1 out of a maximum of    2
 All quantities printed in internal units (Hartrees-Bohrs-Radians)
 Second derivative matrix not updated -- analytic derivatives used.
 ITU=  0
     Eigenvalues ---    0.00223   0.01117   0.01477   0.07099   0.08410
     Eigenvalues ---    0.11342   0.21412   0.22677   0.25121   0.32155
     Eigenvalues ---    0.61535   0.70584   0.80159   1.60160   1.63283
 Angle between quadratic step and forces=  71.47 degrees.
 Linear search not attempted -- first point.
 B after Tr=     0.000080    0.000102   -0.000494
         Rot=    1.000000   -0.000035   -0.000055    0.000085 Ang=  -0.01 deg.
 Variable       Old X    -DE/DX   Delta X   Delta X   Delta X     New X
                                 (Linear)    (Quad)   (Total)
    X1        2.06397  -0.00001   0.00000   0.00017   0.00005   2.06402
    Y1       -1.17641   0.00001   0.00000   0.00020  -0.00005  -1.17646
    Z1       -0.06715   0.00004   0.00000   0.00089   0.00008  -0.06706
    X2       -2.93761  -0.00000   0.00000   0.00107   0.00105  -2.93656
    Y2        0.07082   0.00002   0.00000   0.00213   0.00281   0.07363
    Z2       -1.08577   0.00000   0.00000  -0.00115  -0.00131  -1.08708
    X3       -2.31933   0.00002   0.00000  -0.00049  -0.00009  -2.31941
    Y3        1.07013  -0.00001   0.00000  -0.00096  -0.00055   1.06959
    Z3        1.27454  -0.00001   0.00000   0.00049   0.00033   1.27487
    X4       -0.50581   0.00002   0.00000   0.00021   0.00026  -0.50555
    Y4       -0.18615  -0.00002   0.00000   0.00018   0.00037  -0.18578
    Z4        0.07551  -0.00001   0.00000   0.00031  -0.00014   0.07537
    X5       -2.86464  -0.00002   0.00000  -0.00203  -0.00127  -2.86591
    Y5        2.11562   0.00000   0.00000  -0.00257  -0.00218   2.11344
    Z5        2.93527  -0.00001   0.00000   0.00100   0.00097   2.93625
    X6        2.25740   0.00000   0.00000   0.00080   0.00041   2.25780
    Y6       -3.16489   0.00000   0.00000   0.00132   0.00100  -3.16389
    Z6        0.55199   0.00000   0.00000   0.00429   0.00332   0.55531
    X7        3.83245   0.00000   0.00000  -0.00040  -0.00041   3.83205
    Y7        0.04797  -0.00000   0.00000  -0.00091  -0.00140   0.04656
    Z7       -0.81270  -0.00002   0.00000  -0.00234  -0.00325  -0.81595
         Item               Value     Threshold  Converged?
 Maximum Force            0.000037     0.000450     YES
 RMS     Force            0.000014     0.000300     YES
 Maximum Displacement     0.003323     0.001800     NO 
 RMS     Displacement     0.001441     0.001200     NO 
 Predicted change in Energy=-5.600939D-08
 GradGradGradGradGradGradGradGradGradGradGradGradGradGradGradGradGradGrad

 Leave Link  103 at Fri Mar  1 08:44:28 2019, MaxMem=    33554432 cpu:         0.1
 (Enter /home/proyectos/fulerenos/M3C-v2.0/M3C-deps_CCC/g09-AM64L-G09RevC.01/l9999.exe)

 Test job not archived.
 1\1\GINC-BOHRIO\Freq\RB3LYP\6-311++G(3df,2p)\C4H2O1\ROOT\01-Mar-2019\0
 \\#p b3lyp/6-311++G(3df,2p) freq IOp(2/17=3) IOp(2/18=3)\\b3lyp opt\\0
 ,1\C,1.092207,-0.622531,-0.035532\C,-1.554516,0.037475,-0.574564\C,-1.
 227335,0.566291,0.674458\C,-0.267664,-0.098506,0.039958\H,-1.515901,1.
 119539,1.55328\H,1.194562,-1.674787,0.292098\O,2.028046,0.025382,-0.43
 0063\\Version=EM64L-G09RevE.01\State=1-A\HF=-228.7552934\RMSD=2.556e-0
 9\RMSF=1.367e-05\ZeroPoint=0.0416415\Thermal=0.0466009\Dipole=-0.19453
 51,-0.1793319,1.3358289\DipoleDeriv=1.6295549,-0.0606393,-0.2095631,-0
 .039345,0.8152695,-0.1792519,-0.3033349,-0.1567727,0.3173079,0.0666544
 ,0.0343479,0.3541231,-0.0803786,-0.3327242,0.1164974,0.2122138,0.14495
 79,0.0957111,0.1495268,-0.0969707,-0.2412945,-0.007569,0.1151986,-0.00
 95089,0.0168262,-0.064495,-0.0958078,-0.8450869,0.1607375,-0.0663875,0
 .4094596,-0.0340774,-0.0776566,-0.2065848,-0.0291334,-0.0663311,0.1050
 903,0.0060943,0.0133168,0.0267346,0.1228316,-0.0344148,0.0073098,-0.03
 62324,0.0809185,0.0161423,0.0239933,0.0106177,0.0023956,-0.1596856,0.0
 80936,0.003889,0.0764997,0.0466678,-1.1218818,-0.0675631,0.1391875,-0.
 3112973,-0.5268126,0.1033988,0.2696808,0.0651759,-0.3784665\Polar=64.2
 036065,-5.1104198,39.8424715,-1.2770089,1.7623328,39.8516016\PG=C01 [X
 (C4H2O1)]\NImag=0\\0.71643866,0.16159580,0.63478463,-0.15245331,-0.178
 09305,0.27445995,-0.01247317,0.00606291,-0.00053044,0.26920115,0.01315
 457,0.01002768,0.00159833,0.00321348,0.06409707,0.01120343,-0.00190906
 ,0.01034594,0.18421199,0.11087101,0.35110569,-0.01871897,0.01308503,0.
 00555823,-0.04875637,-0.02568796,-0.07686224,0.40062017,0.00098100,0.0
 1614991,-0.00960874,-0.02525862,-0.06310354,-0.11489415,-0.20329263,0.
 35455313,-0.01876831,-0.00528895,0.00441342,-0.07391854,-0.11648536,-0
 .28936146,-0.18091840,0.37345563,0.69210700,-0.15179142,0.06657213,-0.
 01566095,-0.21806193,0.01032000,-0.11591890,-0.27106083,0.18642136,0.2
 1126876,0.72421272,0.04604776,-0.12851262,0.00851665,0.01235528,-0.011
 09316,0.01416208,0.16689681,-0.17917260,-0.12679671,-0.25220698,0.2873
 1671,0.00473816,0.00144535,-0.08115824,-0.11287354,0.01249533,-0.06767
 694,0.18139035,-0.11706706,-0.15206847,-0.10412393,0.10370165,0.262337
 09,0.00555793,-0.00117586,0.00165476,0.00973973,-0.00180034,-0.0020915
 5,-0.06275248,0.03950417,0.06317929,-0.00413234,0.01314141,0.01050659,
 0.05344084,-0.00184973,-0.00189183,0.00046342,0.00270908,0.00518330,-0
 .00387218,0.04375411,-0.12554538,-0.13009065,0.00396038,0.00869006,-0.
 01020093,-0.04860202,0.11327567,0.00221176,0.00225114,0.00184589,0.006
 68422,-0.00708705,-0.00096689,0.07182657,-0.13293899,-0.25347819,-0.00
 716892,-0.00463627,0.00191240,-0.07304577,0.14331110,0.25163988,-0.068
 53568,0.04265365,-0.01262816,-0.00231240,0.00020910,0.00273769,-0.0052
 1152,-0.00220813,-0.00121971,0.00185345,0.02697315,-0.00475775,0.00019
 707,0.00024783,-0.00023170,0.06744063,0.03888271,-0.24141537,0.0528394
 0,0.00058698,-0.00061198,-0.00121226,0.00155939,0.00007041,0.00034288,
 0.00858393,-0.00895324,0.00815505,-0.00024430,-0.00040037,-0.00007506,
 -0.02781934,0.27385945,-0.01082437,0.05081914,-0.07368204,-0.00102818,
 -0.00097621,-0.00355796,0.00180966,0.00113850,-0.00026528,0.00111877,0
 .00551430,0.02074858,-0.00072470,-0.00053900,-0.00016938,0.00026862,-0
 .07811747,0.04602819,-0.47047735,-0.28879367,0.17405987,0.00266300,0.0
 0059116,-0.00328042,0.00587999,0.00385285,0.00037691,-0.08101966,-0.01
 320744,0.02512012,-0.00205075,-0.00021965,-0.00027616,0.00656845,-0.02
 154937,0.00938020,0.53843633,-0.25881211,-0.28914240,0.12428400,0.0003
 3088,-0.00449938,-0.00314544,0.00368524,-0.00295193,0.00486316,-0.0236
 5082,0.03172484,0.00147061,-0.00082304,0.00068855,-0.00082487,-0.04005
 626,-0.02254891,0.02216074,0.31932611,0.28672923,0.16389265,0.13077543
 ,-0.13622492,-0.00254552,-0.00041605,0.00011163,-0.00280417,-0.0000851
 9,-0.00134702,0.03048517,-0.00046169,0.01590557,0.00052139,0.00092825,
 -0.00078371,0.01583101,0.01806747,0.01089790,-0.20538053,-0.14880820,0
 .11144056\\0.00001331,-0.00000716,-0.00003725,0.00000371,-0.00001629,-
 0.00000259,-0.00001866,0.00000548,0.00000887,-0.00001538,0.00001962,0.
 00000611,0.00002167,-0.00000171,0.00000811,-0.00000218,-0.00000297,-0.
 00000164,-0.00000247,0.00000303,0.00001839\\\@


 CHARLIE BROWN.."I CAN'T GET THAT STUPID KITE IN THE
 AIR... I CAN'T... I C A N N O T..."
 LUCY.."OH COME NOW CHARLIE BROWN...THAT'S NO WAY TO TALK...
 THE TROUBLE WITH YOU IS YOU DON'T BELIEVE IN YOURSELF... YOU
 DON'T BELIEVE IN YOUR OWN ABILITIES...  YOU'VE GOT TO SAY TO
 YOURSELF...'I BELIEVE I CAN FLY THIS KITE.'... GO AHEAD SAY
 IT...."
 CHARLIE BROWN.."I BELIEVE THAT I CAN FLY THIS STUPID
 KITE.....I BELIEVE THAT I CAN FLY THIS KITE........
 I  A C T U A L L Y  B E L I E V E  T H A T  I  C A N ******"
 LUCY.."I'LL BET YOU TEN-TO-ONE YOU'RE WRONG......."    SCHULZ
 Job cpu time:       0 days  0 hours 22 minutes 40.3 seconds.
 File lengths (MBytes):  RWF=     36 Int=      0 D2E=      0 Chk=      4 Scr=      1
 Normal termination of Gaussian 09 at Fri Mar  1 08:44:28 2019.
