 Entering Gaussian System, Link 0=/home/proyectos/fulerenos/M3C-v2.0/M3C-deps_CCC/g09-AM64L-G09RevC.01/g09
 Initial command:
 /home/proyectos/fulerenos/M3C-v2.0/M3C-deps_CCC/g09-AM64L-G09RevC.01/l1.exe "/scratch/naguirre/gaussian/Gau-25985.inp" -scrdir="/scratch/naguirre/gaussian/"
 Entering Link 1 = /home/proyectos/fulerenos/M3C-v2.0/M3C-deps_CCC/g09-AM64L-G09RevC.01/l1.exe PID=     25988.
  
 Copyright (c) 1988,1990,1992,1993,1995,1998,2003,2009,2015,
            Gaussian, Inc.  All Rights Reserved.
  
 This is part of the Gaussian(R) 09 program.  It is based on
 the Gaussian(R) 03 system (copyright 2003, Gaussian, Inc.),
 the Gaussian(R) 98 system (copyright 1998, Gaussian, Inc.),
 the Gaussian(R) 94 system (copyright 1995, Gaussian, Inc.),
 the Gaussian 92(TM) system (copyright 1992, Gaussian, Inc.),
 the Gaussian 90(TM) system (copyright 1990, Gaussian, Inc.),
 the Gaussian 88(TM) system (copyright 1988, Gaussian, Inc.),
 the Gaussian 86(TM) system (copyright 1986, Carnegie Mellon
 University), and the Gaussian 82(TM) system (copyright 1983,
 Carnegie Mellon University). Gaussian is a federally registered
 trademark of Gaussian, Inc.
  
 This software contains proprietary and confidential information,
 including trade secrets, belonging to Gaussian, Inc.
  
 This software is provided under written license and may be
 used, copied, transmitted, or stored only in accord with that
 written license.
  
 The following legend is applicable only to US Government
 contracts under FAR:
  
                    RESTRICTED RIGHTS LEGEND
  
 Use, reproduction and disclosure by the US Government is
 subject to restrictions as set forth in subparagraphs (a)
 and (c) of the Commercial Computer Software - Restricted
 Rights clause in FAR 52.227-19.
  
 Gaussian, Inc.
 340 Quinnipiac St., Bldg. 40, Wallingford CT 06492
  
  
 ---------------------------------------------------------------
 Warning -- This program may not be used in any manner that
 competes with the business of Gaussian, Inc. or will provide
 assistance to any competitor of Gaussian, Inc.  The licensee
 of this program is prohibited from giving any competitor of
 Gaussian, Inc. access to this program.  By using this program,
 the user acknowledges that Gaussian, Inc. is engaged in the
 business of creating and licensing software in the field of
 computational chemistry and represents and warrants to the
 licensee that it is not a competitor of Gaussian, Inc. and that
 it will not use this program in any manner prohibited above.
 ---------------------------------------------------------------
  

 Cite this work as:
 Gaussian 09, Revision E.01,
 M. J. Frisch, G. W. Trucks, H. B. Schlegel, G. E. Scuseria, 
 M. A. Robb, J. R. Cheeseman, G. Scalmani, V. Barone, B. Mennucci, 
 G. A. Petersson, H. Nakatsuji, M. Caricato, X. Li, H. P. Hratchian, 
 A. F. Izmaylov, J. Bloino, G. Zheng, J. L. Sonnenberg, M. Hada, 
 M. Ehara, K. Toyota, R. Fukuda, J. Hasegawa, M. Ishida, T. Nakajima, 
 Y. Honda, O. Kitao, H. Nakai, T. Vreven, J. A. Montgomery, Jr., 
 J. E. Peralta, F. Ogliaro, M. Bearpark, J. J. Heyd, E. Brothers, 
 K. N. Kudin, V. N. Staroverov, T. Keith, R. Kobayashi, J. Normand, 
 K. Raghavachari, A. Rendell, J. C. Burant, S. S. Iyengar, J. Tomasi, 
 M. Cossi, N. Rega, J. M. Millam, M. Klene, J. E. Knox, J. B. Cross, 
 V. Bakken, C. Adamo, J. Jaramillo, R. Gomperts, R. E. Stratmann, 
 O. Yazyev, A. J. Austin, R. Cammi, C. Pomelli, J. W. Ochterski, 
 R. L. Martin, K. Morokuma, V. G. Zakrzewski, G. A. Voth, 
 P. Salvador, J. J. Dannenberg, S. Dapprich, A. D. Daniels, 
 O. Farkas, J. B. Foresman, J. V. Ortiz, J. Cioslowski, 
 and D. J. Fox, Gaussian, Inc., Wallingford CT, 2013.
 
 ******************************************
 Gaussian 09:  EM64L-G09RevE.01 30-Nov-2015
                 1-Mar-2019 
 ******************************************
 %NProcShared=4
 Will use up to    4 processors via shared memory.
 ------------------------------------------------------
 #p b3lyp/6-311++G(3df,2p) freq IOp(2/17=3) IOp(2/18=3)
 ------------------------------------------------------
 1/10=4,30=1,38=1/1,3;
 2/12=2,17=3,18=3,40=1/2;
 3/5=4,6=6,7=1216,11=2,16=1,25=1,30=1,71=2,74=-5,140=1/1,2,3;
 4//1;
 5/5=2,38=5,98=1/2;
 8/6=4,10=90,11=11/1;
 11/6=1,8=1,9=11,15=111,16=1/1,2,10;
 10/6=1/2;
 6/7=2,8=2,9=2,10=2,18=1,28=1/1;
 7/8=1,10=1,25=1/1,2,3,16;
 1/10=4,30=1/3;
 99//99;
 Leave Link    1 at Fri Mar  1 08:55:09 2019, MaxMem=           0 cpu:         0.2
 (Enter /home/proyectos/fulerenos/M3C-v2.0/M3C-deps_CCC/g09-AM64L-G09RevC.01/l101.exe)
 ---------
 b3lyp opt
 ---------
 Symbolic Z-matrix:
 Charge =  1 Multiplicity = 4
 C                     0.81917   0.128     0.07079 
 H                     1.01511   1.00594   0.70117 
 H                    -0.85025  -0.95491   0.71982 
 O                    -0.62689  -0.24332   0.04958 
 
 NAtoms=      4 NQM=        4 NQMF=       0 NMMI=      0 NMMIF=      0
                NMic=       0 NMicF=      0.
                    Isotopes and Nuclear Properties:
 (Nuclear quadrupole moments (NQMom) in fm**2, nuclear magnetic moments (NMagM)
  in nuclear magnetons)

  Atom         1           2           3           4
 IAtWgt=          12           1           1          16
 AtmWgt=  12.0000000   1.0078250   1.0078250  15.9949146
 NucSpn=           0           1           1           0
 AtZEff=   0.0000000   0.0000000   0.0000000   0.0000000
 NQMom=    0.0000000   0.0000000   0.0000000   0.0000000
 NMagM=    0.0000000   2.7928460   2.7928460   0.0000000
 AtZNuc=   6.0000000   1.0000000   1.0000000   8.0000000
 Leave Link  101 at Fri Mar  1 08:55:09 2019, MaxMem=    33554432 cpu:         0.3
 (Enter /home/proyectos/fulerenos/M3C-v2.0/M3C-deps_CCC/g09-AM64L-G09RevC.01/l103.exe)

 GradGradGradGradGradGradGradGradGradGradGradGradGradGradGradGradGradGrad
 Berny optimization.
 Initialization pass.
 Trust Radius=3.00D-01 FncErr=1.00D-07 GrdErr=1.00D-07
 Number of steps in this run=      2 maximum allowed number of steps=      2.
 GradGradGradGradGradGradGradGradGradGradGradGradGradGradGradGradGradGrad

 Leave Link  103 at Fri Mar  1 08:55:09 2019, MaxMem=    33554432 cpu:         0.1
 (Enter /home/proyectos/fulerenos/M3C-v2.0/M3C-deps_CCC/g09-AM64L-G09RevC.01/l202.exe)
                          Input orientation:                          
 ---------------------------------------------------------------------
 Center     Atomic      Atomic             Coordinates (Angstroms)
 Number     Number       Type             X           Y           Z
 ---------------------------------------------------------------------
      1          6           0        0.819166    0.128001    0.070790
      2          1           0        1.015109    1.005943    0.701173
      3          1           0       -0.850250   -0.954911    0.719821
      4          8           0       -0.626888   -0.243323    0.049581
 ---------------------------------------------------------------------
                    Distance matrix (angstroms):
                    1          2          3          4
     1  C    0.000000
     2  H    1.098435   0.000000
     3  H    2.093057   2.706448   0.000000
     4  O    1.493119   2.163652   1.002731   0.000000
 Stoichiometry    CH2O(1+,4)
 Framework group  C1[X(CH2O)]
 Deg. of freedom     6
 Full point group                 C1      NOp   1
 Largest Abelian subgroup         C1      NOp   1
 Largest concise Abelian subgroup C1      NOp   1
                         Standard orientation:                         
 ---------------------------------------------------------------------
 Center     Atomic      Atomic             Coordinates (Angstroms)
 Number     Number       Type             X           Y           Z
 ---------------------------------------------------------------------
      1          6           0        0.822767   -0.174626    0.034377
      2          1           0        1.377009    0.773715    0.029555
      3          1           0       -1.128778    0.053564    0.755690
      4          8           0       -0.648104    0.027560   -0.123939
 ---------------------------------------------------------------------
 Rotational constants (GHZ):    300.4785844     26.7402499     26.5370127
 Leave Link  202 at Fri Mar  1 08:55:09 2019, MaxMem=    33554432 cpu:         0.0
 (Enter /home/proyectos/fulerenos/M3C-v2.0/M3C-deps_CCC/g09-AM64L-G09RevC.01/l301.exe)
 Standard basis: 6-311++G(3df,2p) (5D, 7F)
 Ernie: Thresh=  0.10000D-02 Tol=  0.10000D-05 Strict=F.
 There are   110 symmetry adapted cartesian basis functions of A   symmetry.
 There are    98 symmetry adapted basis functions of A   symmetry.
    98 basis functions,   140 primitive gaussians,   110 cartesian basis functions
     9 alpha electrons        6 beta electrons
       nuclear repulsion energy        27.7932156775 Hartrees.
 IExCor=  402 DFT=T Ex+Corr=B3LYP ExCW=0 ScaHFX=  0.200000
 ScaDFX=  0.800000  0.720000  1.000000  0.810000 ScalE2=  1.000000  1.000000
 IRadAn=      0 IRanWt=     -1 IRanGd=            0 ICorTp=0 IEmpDi=  4
 NAtoms=    4 NActive=    4 NUniq=    4 SFac= 1.00D+00 NAtFMM=   60 NAOKFM=F Big=F
 Integral buffers will be    131072 words long.
 Raffenetti 2 integral format.
 Two-electron integral symmetry is turned on.
 Leave Link  301 at Fri Mar  1 08:55:09 2019, MaxMem=    33554432 cpu:         0.3
 (Enter /home/proyectos/fulerenos/M3C-v2.0/M3C-deps_CCC/g09-AM64L-G09RevC.01/l302.exe)
 NPDir=0 NMtPBC=     1 NCelOv=     1 NCel=       1 NClECP=     1 NCelD=      1
         NCelK=      1 NCelE2=     1 NClLst=     1 CellRange=     0.0.
 One-electron integrals computed using PRISM.
 NBasis=    98 RedAO= T EigKep=  1.07D-03  NBF=    98
 NBsUse=    98 1.00D-06 EigRej= -1.00D+00 NBFU=    98
 Precomputing XC quadrature grid using
 IXCGrd= 4 IRadAn=           0 IRanWt=          -1 IRanGd=           0 AccXCQ= 0.00D+00.
 Generated NRdTot=       0 NPtTot=           0 NUsed=           0 NTot=          32
 NSgBfM=   110   110   110   110   110 MxSgAt=     4 MxSgA2=     4.
 Leave Link  302 at Fri Mar  1 08:55:09 2019, MaxMem=    33554432 cpu:         1.2
 (Enter /home/proyectos/fulerenos/M3C-v2.0/M3C-deps_CCC/g09-AM64L-G09RevC.01/l303.exe)
 DipDrv:  MaxL=1.
 Leave Link  303 at Fri Mar  1 08:55:09 2019, MaxMem=    33554432 cpu:         0.2
 (Enter /home/proyectos/fulerenos/M3C-v2.0/M3C-deps_CCC/g09-AM64L-G09RevC.01/l401.exe)
 ExpMin= 3.60D-02 ExpMax= 8.59D+03 ExpMxC= 1.30D+03 IAcc=3 IRadAn=         5 AccDes= 0.00D+00
 Harris functional with IExCor=  402 and IRadAn=       5 diagonalized for initial guess.
 HarFok:  IExCor=  402 AccDes= 0.00D+00 IRadAn=         5 IDoV= 1 UseB2=F ITyADJ=14
 ICtDFT=  3500011 ScaDFX=  1.000000  1.000000  1.000000  1.000000
 FoFCou: FMM=F IPFlag=           0 FMFlag=      100000 FMFlg1=           0
         NFxFlg=           0 DoJE=T BraDBF=F KetDBF=T FulRan=T
         wScrn=  0.000000 ICntrl=     500 IOpCl=  0 I1Cent=   200000004 NGrid=           0
         NMat0=    1 NMatS0=      1 NMatT0=    0 NMatD0=    1 NMtDS0=    0 NMtDT0=    0
 Petite list used in FoFCou.
 Harris En= -113.962523044272    
 JPrj=0 DoOrth=F DoCkMO=F.
 Initial guess <Sx>= 0.0000 <Sy>= 0.0000 <Sz>= 1.5000 <S**2>= 3.7500 S= 1.5000
 Leave Link  401 at Fri Mar  1 08:55:10 2019, MaxMem=    33554432 cpu:         2.5
 (Enter /home/proyectos/fulerenos/M3C-v2.0/M3C-deps_CCC/g09-AM64L-G09RevC.01/l502.exe)
 UHF open shell SCF:
 Using DIIS extrapolation, IDIIS=  1040.
 Integral symmetry usage will be decided dynamically.
 Keep R1 and R2 ints in memory in canonical form, NReq=25562743.
 IVT=       56306 IEndB=       56306 NGot=    33554432 MDV=     9961075
 LenX=     9961075 LenY=     9948534
 Requested convergence on RMS density matrix=1.00D-08 within 128 cycles.
 Requested convergence on MAX density matrix=1.00D-06.
 Requested convergence on             energy=1.00D-06.
 No special actions if energy rises.
 FoFCou: FMM=F IPFlag=           0 FMFlag=           0 FMFlg1=           0
         NFxFlg=           0 DoJE=F BraDBF=F KetDBF=F FulRan=T
         wScrn=  0.000000 ICntrl=     600 IOpCl=  0 I1Cent=           0 NGrid=           0
         NMat0=    1 NMatS0=   4851 NMatT0=    0 NMatD0=    1 NMtDS0=    0 NMtDT0=    0
 Symmetry not used in FoFCou.

 Cycle   1  Pass 1  IDiag  1:
 E= -113.892353175325    
 DIIS: error= 2.17D-02 at cycle   1 NSaved=   1.
 NSaved= 1 IEnMin= 1 EnMin= -113.892353175325     IErMin= 1 ErrMin= 2.17D-02
 ErrMax= 2.17D-02  0.00D+00 EMaxC= 1.00D-01 BMatC= 1.67D-01 BMatP= 1.67D-01
 IDIUse=3 WtCom= 7.83D-01 WtEn= 2.17D-01
 Coeff-Com:  0.100D+01
 Coeff-En:   0.100D+01
 Coeff:      0.100D+01
 Gap=     0.270 Goal=   None    Shift=    0.000
 Gap=     0.172 Goal=   None    Shift=    0.000
 GapD=    0.172 DampG=1.000 DampE=0.500 DampFc=0.5000 IDamp=-1.
 Damping current iteration by 5.00D-01
 RMSDP=3.19D-03 MaxDP=7.11D-02              OVMax= 2.64D-01

 Cycle   2  Pass 1  IDiag  1:
 E= -113.910498233206     Delta-E=       -0.018145057881 Rises=F Damp=T
 DIIS: error= 7.09D-03 at cycle   2 NSaved=   2.
 NSaved= 2 IEnMin= 2 EnMin= -113.910498233206     IErMin= 2 ErrMin= 7.09D-03
 ErrMax= 7.09D-03  0.00D+00 EMaxC= 1.00D-01 BMatC= 3.98D-02 BMatP= 1.67D-01
 IDIUse=3 WtCom= 9.29D-01 WtEn= 7.09D-02
 Coeff-Com:  0.167D+00 0.833D+00
 Coeff-En:   0.122D+00 0.878D+00
 Coeff:      0.164D+00 0.836D+00
 Gap=     0.277 Goal=   None    Shift=    0.000
 Gap=     0.184 Goal=   None    Shift=    0.000
 RMSDP=1.28D-03 MaxDP=3.44D-02 DE=-1.81D-02 OVMax= 1.45D-01

 Cycle   3  Pass 1  IDiag  1:
 E= -113.940500070543     Delta-E=       -0.030001837336 Rises=F Damp=F
 DIIS: error= 5.20D-03 at cycle   3 NSaved=   3.
 NSaved= 3 IEnMin= 3 EnMin= -113.940500070543     IErMin= 3 ErrMin= 5.20D-03
 ErrMax= 5.20D-03  0.00D+00 EMaxC= 1.00D-01 BMatC= 1.02D-02 BMatP= 3.98D-02
 IDIUse=3 WtCom= 9.48D-01 WtEn= 5.20D-02
 Coeff-Com: -0.712D-01 0.306D+00 0.765D+00
 Coeff-En:   0.000D+00 0.000D+00 0.100D+01
 Coeff:     -0.675D-01 0.290D+00 0.778D+00
 Gap=     0.267 Goal=   None    Shift=    0.000
 Gap=     0.174 Goal=   None    Shift=    0.000
 RMSDP=3.99D-04 MaxDP=1.94D-02 DE=-3.00D-02 OVMax= 2.16D-02

 Cycle   4  Pass 1  IDiag  1:
 E= -113.942482136663     Delta-E=       -0.001982066121 Rises=F Damp=F
 DIIS: error= 1.35D-03 at cycle   4 NSaved=   4.
 NSaved= 4 IEnMin= 4 EnMin= -113.942482136663     IErMin= 4 ErrMin= 1.35D-03
 ErrMax= 1.35D-03  0.00D+00 EMaxC= 1.00D-01 BMatC= 1.06D-03 BMatP= 1.02D-02
 IDIUse=3 WtCom= 9.86D-01 WtEn= 1.35D-02
 Coeff-Com: -0.371D-01 0.207D-01 0.265D+00 0.752D+00
 Coeff-En:   0.000D+00 0.000D+00 0.000D+00 0.100D+01
 Coeff:     -0.366D-01 0.204D-01 0.261D+00 0.755D+00
 Gap=     0.273 Goal=   None    Shift=    0.000
 Gap=     0.178 Goal=   None    Shift=    0.000
 RMSDP=1.49D-04 MaxDP=6.67D-03 DE=-1.98D-03 OVMax= 1.06D-02

 Cycle   5  Pass 1  IDiag  1:
 E= -113.942773073116     Delta-E=       -0.000290936453 Rises=F Damp=F
 DIIS: error= 3.53D-04 at cycle   5 NSaved=   5.
 NSaved= 5 IEnMin= 5 EnMin= -113.942773073116     IErMin= 5 ErrMin= 3.53D-04
 ErrMax= 3.53D-04  0.00D+00 EMaxC= 1.00D-01 BMatC= 6.33D-05 BMatP= 1.06D-03
 IDIUse=3 WtCom= 9.96D-01 WtEn= 3.53D-03
 Coeff-Com: -0.105D-01 0.164D-02-0.848D-02 0.106D+00 0.911D+00
 Coeff-En:   0.000D+00 0.000D+00 0.000D+00 0.000D+00 0.100D+01
 Coeff:     -0.105D-01 0.163D-02-0.845D-02 0.106D+00 0.912D+00
 Gap=     0.271 Goal=   None    Shift=    0.000
 Gap=     0.178 Goal=   None    Shift=    0.000
 RMSDP=4.81D-05 MaxDP=1.47D-03 DE=-2.91D-04 OVMax= 5.85D-03

 Cycle   6  Pass 1  IDiag  1:
 E= -113.942803410651     Delta-E=       -0.000030337535 Rises=F Damp=F
 DIIS: error= 1.50D-04 at cycle   6 NSaved=   6.
 NSaved= 6 IEnMin= 6 EnMin= -113.942803410651     IErMin= 6 ErrMin= 1.50D-04
 ErrMax= 1.50D-04  0.00D+00 EMaxC= 1.00D-01 BMatC= 7.83D-06 BMatP= 6.33D-05
 IDIUse=3 WtCom= 9.98D-01 WtEn= 1.50D-03
 Coeff-Com: -0.355D-03 0.376D-02-0.224D-01-0.645D-01 0.761D-01 0.101D+01
 Coeff-En:   0.000D+00 0.000D+00 0.000D+00 0.000D+00 0.000D+00 0.100D+01
 Coeff:     -0.355D-03 0.375D-02-0.223D-01-0.644D-01 0.760D-01 0.101D+01
 Gap=     0.271 Goal=   None    Shift=    0.000
 Gap=     0.178 Goal=   None    Shift=    0.000
 RMSDP=2.73D-05 MaxDP=6.56D-04 DE=-3.03D-05 OVMax= 5.00D-03

 Cycle   7  Pass 1  IDiag  1:
 E= -113.942812512120     Delta-E=       -0.000009101469 Rises=F Damp=F
 DIIS: error= 8.05D-05 at cycle   7 NSaved=   7.
 NSaved= 7 IEnMin= 7 EnMin= -113.942812512120     IErMin= 7 ErrMin= 8.05D-05
 ErrMax= 8.05D-05  0.00D+00 EMaxC= 1.00D-01 BMatC= 2.30D-06 BMatP= 7.83D-06
 IDIUse=1 WtCom= 1.00D+00 WtEn= 0.00D+00
 Coeff-Com:  0.646D-03-0.158D-03 0.135D-01 0.875D-02-0.246D+00-0.252D+00
 Coeff-Com:  0.148D+01
 Coeff:      0.646D-03-0.158D-03 0.135D-01 0.875D-02-0.246D+00-0.252D+00
 Coeff:      0.148D+01
 Gap=     0.271 Goal=   None    Shift=    0.000
 Gap=     0.178 Goal=   None    Shift=    0.000
 RMSDP=2.71D-05 MaxDP=6.78D-04 DE=-9.10D-06 OVMax= 5.06D-03

 Cycle   8  Pass 1  IDiag  1:
 E= -113.942817421926     Delta-E=       -0.000004909806 Rises=F Damp=F
 DIIS: error= 3.82D-05 at cycle   8 NSaved=   8.
 NSaved= 8 IEnMin= 8 EnMin= -113.942817421926     IErMin= 8 ErrMin= 3.82D-05
 ErrMax= 3.82D-05  0.00D+00 EMaxC= 1.00D-01 BMatC= 5.15D-07 BMatP= 2.30D-06
 IDIUse=1 WtCom= 1.00D+00 WtEn= 0.00D+00
 Coeff-Com: -0.892D-03 0.964D-03 0.254D-02 0.106D-01 0.517D-01-0.520D-01
 Coeff-Com: -0.625D+00 0.161D+01
 Coeff:     -0.892D-03 0.964D-03 0.254D-02 0.106D-01 0.517D-01-0.520D-01
 Coeff:     -0.625D+00 0.161D+01
 Gap=     0.271 Goal=   None    Shift=    0.000
 Gap=     0.178 Goal=   None    Shift=    0.000
 RMSDP=1.68D-05 MaxDP=4.04D-04 DE=-4.91D-06 OVMax= 3.05D-03

 Cycle   9  Pass 1  IDiag  1:
 E= -113.942818791877     Delta-E=       -0.000001369951 Rises=F Damp=F
 DIIS: error= 1.61D-05 at cycle   9 NSaved=   9.
 NSaved= 9 IEnMin= 9 EnMin= -113.942818791877     IErMin= 9 ErrMin= 1.61D-05
 ErrMax= 1.61D-05  0.00D+00 EMaxC= 1.00D-01 BMatC= 9.26D-08 BMatP= 5.15D-07
 IDIUse=1 WtCom= 1.00D+00 WtEn= 0.00D+00
 Coeff-Com: -0.218D-03 0.155D-03-0.309D-02-0.466D-02 0.450D-01 0.858D-01
 Coeff-Com: -0.322D+00-0.111D+00 0.131D+01
 Coeff:     -0.218D-03 0.155D-03-0.309D-02-0.466D-02 0.450D-01 0.858D-01
 Coeff:     -0.322D+00-0.111D+00 0.131D+01
 Gap=     0.271 Goal=   None    Shift=    0.000
 Gap=     0.178 Goal=   None    Shift=    0.000
 RMSDP=7.74D-06 MaxDP=1.91D-04 DE=-1.37D-06 OVMax= 1.29D-03

 Cycle  10  Pass 1  IDiag  1:
 E= -113.942819008419     Delta-E=       -0.000000216542 Rises=F Damp=F
 DIIS: error= 5.21D-06 at cycle  10 NSaved=  10.
 NSaved=10 IEnMin=10 EnMin= -113.942819008419     IErMin=10 ErrMin= 5.21D-06
 ErrMax= 5.21D-06  0.00D+00 EMaxC= 1.00D-01 BMatC= 9.51D-09 BMatP= 9.26D-08
 IDIUse=1 WtCom= 1.00D+00 WtEn= 0.00D+00
 Coeff-Com:  0.167D-03-0.154D-03 0.535D-04-0.137D-02-0.980D-02 0.355D-02
 Coeff-Com:  0.114D+00-0.188D+00-0.276D+00 0.136D+01
 Coeff:      0.167D-03-0.154D-03 0.535D-04-0.137D-02-0.980D-02 0.355D-02
 Coeff:      0.114D+00-0.188D+00-0.276D+00 0.136D+01
 Gap=     0.271 Goal=   None    Shift=    0.000
 Gap=     0.178 Goal=   None    Shift=    0.000
 RMSDP=2.15D-06 MaxDP=6.09D-05 DE=-2.17D-07 OVMax= 3.05D-04

 Cycle  11  Pass 1  IDiag  1:
 E= -113.942819024296     Delta-E=       -0.000000015876 Rises=F Damp=F
 DIIS: error= 1.06D-06 at cycle  11 NSaved=  11.
 NSaved=11 IEnMin=11 EnMin= -113.942819024296     IErMin=11 ErrMin= 1.06D-06
 ErrMax= 1.06D-06  0.00D+00 EMaxC= 1.00D-01 BMatC= 5.38D-10 BMatP= 9.51D-09
 IDIUse=1 WtCom= 1.00D+00 WtEn= 0.00D+00
 Coeff-Com:  0.394D-04-0.464D-04 0.285D-03 0.302D-03-0.503D-02-0.724D-02
 Coeff-Com:  0.321D-01 0.588D-02-0.112D+00 0.914D-01 0.994D+00
 Coeff:      0.394D-04-0.464D-04 0.285D-03 0.302D-03-0.503D-02-0.724D-02
 Coeff:      0.321D-01 0.588D-02-0.112D+00 0.914D-01 0.994D+00
 Gap=     0.271 Goal=   None    Shift=    0.000
 Gap=     0.178 Goal=   None    Shift=    0.000
 RMSDP=1.85D-07 MaxDP=4.60D-06 DE=-1.59D-08 OVMax= 2.53D-05

 Cycle  12  Pass 1  IDiag  1:
 E= -113.942819024655     Delta-E=       -0.000000000359 Rises=F Damp=F
 DIIS: error= 5.18D-07 at cycle  12 NSaved=  12.
 NSaved=12 IEnMin=12 EnMin= -113.942819024655     IErMin=12 ErrMin= 5.18D-07
 ErrMax= 5.18D-07  0.00D+00 EMaxC= 1.00D-01 BMatC= 9.04D-11 BMatP= 5.38D-10
 IDIUse=1 WtCom= 1.00D+00 WtEn= 0.00D+00
 Coeff-Com: -0.115D-04 0.166D-04 0.410D-04 0.175D-03 0.366D-03-0.793D-03
 Coeff-Com: -0.755D-02 0.169D-01 0.109D-01-0.143D+00 0.173D+00 0.951D+00
 Coeff:     -0.115D-04 0.166D-04 0.410D-04 0.175D-03 0.366D-03-0.793D-03
 Coeff:     -0.755D-02 0.169D-01 0.109D-01-0.143D+00 0.173D+00 0.951D+00
 Gap=     0.271 Goal=   None    Shift=    0.000
 Gap=     0.178 Goal=   None    Shift=    0.000
 RMSDP=1.21D-07 MaxDP=3.56D-06 DE=-3.59D-10 OVMax= 1.59D-05

 Cycle  13  Pass 1  IDiag  1:
 E= -113.942819024714     Delta-E=       -0.000000000059 Rises=F Damp=F
 DIIS: error= 7.31D-08 at cycle  13 NSaved=  13.
 NSaved=13 IEnMin=13 EnMin= -113.942819024714     IErMin=13 ErrMin= 7.31D-08
 ErrMax= 7.31D-08  0.00D+00 EMaxC= 1.00D-01 BMatC= 1.60D-12 BMatP= 9.04D-11
 IDIUse=1 WtCom= 1.00D+00 WtEn= 0.00D+00
 Coeff-Com: -0.336D-06 0.144D-06-0.152D-04-0.317D-04 0.126D-03 0.314D-03
 Coeff-Com: -0.393D-03-0.173D-02 0.534D-02 0.673D-02-0.562D-01-0.115D+00
 Coeff-Com:  0.116D+01
 Coeff:     -0.336D-06 0.144D-06-0.152D-04-0.317D-04 0.126D-03 0.314D-03
 Coeff:     -0.393D-03-0.173D-02 0.534D-02 0.673D-02-0.562D-01-0.115D+00
 Coeff:      0.116D+01
 Gap=     0.271 Goal=   None    Shift=    0.000
 Gap=     0.178 Goal=   None    Shift=    0.000
 RMSDP=1.64D-08 MaxDP=3.08D-07 DE=-5.86D-11 OVMax= 2.20D-06

 Cycle  14  Pass 1  IDiag  1:
 E= -113.942819024715     Delta-E=       -0.000000000002 Rises=F Damp=F
 DIIS: error= 1.38D-08 at cycle  14 NSaved=  14.
 NSaved=14 IEnMin=14 EnMin= -113.942819024715     IErMin=14 ErrMin= 1.38D-08
 ErrMax= 1.38D-08  0.00D+00 EMaxC= 1.00D-01 BMatC= 1.06D-13 BMatP= 1.60D-12
 IDIUse=1 WtCom= 1.00D+00 WtEn= 0.00D+00
 Coeff-Com:  0.711D-06-0.130D-05-0.190D-05-0.706D-05-0.153D-04 0.507D-04
 Coeff-Com:  0.344D-03-0.822D-03-0.983D-04 0.616D-02-0.950D-02-0.484D-01
 Coeff-Com:  0.436D-01 0.101D+01
 Coeff:      0.711D-06-0.130D-05-0.190D-05-0.706D-05-0.153D-04 0.507D-04
 Coeff:      0.344D-03-0.822D-03-0.983D-04 0.616D-02-0.950D-02-0.484D-01
 Coeff:      0.436D-01 0.101D+01
 Gap=     0.271 Goal=   None    Shift=    0.000
 Gap=     0.178 Goal=   None    Shift=    0.000
 RMSDP=3.77D-09 MaxDP=7.00D-08 DE=-1.85D-12 OVMax= 5.50D-07

 SCF Done:  E(UB3LYP) =  -113.942819025     A.U. after   14 cycles
            NFock= 14  Conv=0.38D-08     -V/T= 2.0030
 <Sx>= 0.0000 <Sy>= 0.0000 <Sz>= 1.5000 <S**2>= 3.7540 S= 1.5010
 <L.S>= 0.000000000000E+00
 KE= 1.136015686407D+02 PE=-3.182002421313D+02 EE= 6.286263878837D+01
 Annihilation of the first spin contaminant:
 S**2 before annihilation     3.7540,   after     3.7500
 Leave Link  502 at Fri Mar  1 08:55:16 2019, MaxMem=    33554432 cpu:        22.5
 (Enter /home/proyectos/fulerenos/M3C-v2.0/M3C-deps_CCC/g09-AM64L-G09RevC.01/l801.exe)
 DoSCS=F DFT=T ScalE2(SS,OS)=  1.000000  1.000000
 Range of M.O.s used for correlation:     1    98
 NBasis=    98 NAE=     9 NBE=     6 NFC=     0 NFV=     0
 NROrb=     98 NOA=     9 NOB=     6 NVA=    89 NVB=    92

 **** Warning!!: The largest beta MO coefficient is  0.10323046D+02

 Leave Link  801 at Fri Mar  1 08:55:16 2019, MaxMem=    33554432 cpu:         0.1
 (Enter /home/proyectos/fulerenos/M3C-v2.0/M3C-deps_CCC/g09-AM64L-G09RevC.01/l1101.exe)
 Using compressed storage, NAtomX=     4.
 Will process      5 centers per pass.
 Leave Link 1101 at Fri Mar  1 08:55:17 2019, MaxMem=    33554432 cpu:         1.0
 (Enter /home/proyectos/fulerenos/M3C-v2.0/M3C-deps_CCC/g09-AM64L-G09RevC.01/l1102.exe)
 Symmetrizing basis deriv contribution to polar:
 IMax=3 JMax=2 DiffMx= 0.00D+00
 Leave Link 1102 at Fri Mar  1 08:55:17 2019, MaxMem=    33554432 cpu:         0.1
 (Enter /home/proyectos/fulerenos/M3C-v2.0/M3C-deps_CCC/g09-AM64L-G09RevC.01/l1110.exe)
 Forming Gx(P) for the SCF density, NAtomX=     4.
 Integral derivatives from FoFJK, PRISM(SPDF).
 Do as many integral derivatives as possible in FoFJK.
 G2DrvN: MDV=      33554296.
 G2DrvN: will do     5 centers at a time, making    1 passes.
 Calling FoFCou, ICntrl=  3107 FMM=F I1Cent=   0 AccDes= 0.00D+00.
 FoFJK:  IHMeth= 1 ICntrl=    3107 DoSepK=F KAlg= 0 I1Cent=   0 FoldK=F
 IRaf=         0 NMat=   1 IRICut=       1 DoRegI=T DoRafI=F ISym2E= 0.
 FoFCou: FMM=F IPFlag=           0 FMFlag=      100000 FMFlg1=           0
         NFxFlg=           0 DoJE=F BraDBF=F KetDBF=F FulRan=T
         wScrn=  0.000000 ICntrl=    3107 IOpCl=  1 I1Cent=           0 NGrid=           0
         NMat0=    1 NMatS0=      1 NMatT0=    0 NMatD0=    1 NMtDS0=    0 NMtDT0=    0
 Symmetry not used in FoFCou.
 End of G2Drv F.D. properties file   721 does not exist.
 End of G2Drv F.D. properties file   722 does not exist.
 End of G2Drv F.D. properties file   788 does not exist.
 Leave Link 1110 at Fri Mar  1 08:55:23 2019, MaxMem=    33554432 cpu:        23.7
 (Enter /home/proyectos/fulerenos/M3C-v2.0/M3C-deps_CCC/g09-AM64L-G09RevC.01/l1002.exe)
 Minotr:  UHF open shell wavefunction.
          IDoAtm=1111
          Direct CPHF calculation.
          Differentiating once with respect to electric field.
                with respect to dipole field.
          Differentiating once with respect to nuclear coordinates.
          Requested convergence is 1.0D-08 RMS, and 1.0D-07 maximum.
          Secondary convergence is 1.0D-12 RMS, and 1.0D-12 maximum.
          NewPWx=T KeepS1=F KeepF1=F KeepIn=T MapXYZ=F SortEE=F KeepMc=T.
          MDV=      33554192 using IRadAn=       2.
 Generate precomputed XC quadrature information.
 Keep R1 and R2 ints in memory in canonical form, NReq=25520705.
 FoFCou: FMM=F IPFlag=           0 FMFlag=           0 FMFlg1=           0
         NFxFlg=           0 DoJE=F BraDBF=F KetDBF=F FulRan=T
         wScrn=  0.000000 ICntrl=     600 IOpCl=  0 I1Cent=           0 NGrid=           0
         NMat0=    1 NMatS0=   4851 NMatT0=    0 NMatD0=    1 NMtDS0=    0 NMtDT0=    0
 Symmetry not used in FoFCou.
          Solving linear equations simultaneously, MaxMat=       0.
          There are    15 degrees of freedom in the 1st order CPHF.  IDoFFX=6 NUNeed=     3.
     12 vectors produced by pass  0 Test12= 9.02D-15 6.67D-09 XBig12= 2.78D+01 2.25D+00.
 AX will form    12 AO Fock derivatives at one time.
     12 vectors produced by pass  1 Test12= 9.02D-15 6.67D-09 XBig12= 2.96D+00 3.78D-01.
     12 vectors produced by pass  2 Test12= 9.02D-15 6.67D-09 XBig12= 1.60D-01 9.84D-02.
     12 vectors produced by pass  3 Test12= 9.02D-15 6.67D-09 XBig12= 2.45D-03 9.26D-03.
     12 vectors produced by pass  4 Test12= 9.02D-15 6.67D-09 XBig12= 2.65D-05 1.02D-03.
     12 vectors produced by pass  5 Test12= 9.02D-15 6.67D-09 XBig12= 1.22D-07 5.10D-05.
      9 vectors produced by pass  6 Test12= 9.02D-15 6.67D-09 XBig12= 3.46D-10 2.95D-06.
      3 vectors produced by pass  7 Test12= 9.02D-15 6.67D-09 XBig12= 1.39D-12 1.91D-07.
      1 vectors produced by pass  8 Test12= 9.02D-15 6.67D-09 XBig12= 4.46D-15 1.19D-08.
 InvSVY:  IOpt=1 It=  1 EMax= 1.11D-15
 Solved reduced A of dimension    85 with    12 vectors.
 FullF1:  Do perturbations    1 to     3.
 Isotropic polarizability for W=    0.000000       14.12 Bohr**3.
 End of Minotr F.D. properties file   721 does not exist.
 End of Minotr F.D. properties file   722 does not exist.
 End of Minotr F.D. properties file   788 does not exist.
 Leave Link 1002 at Fri Mar  1 08:55:31 2019, MaxMem=    33554432 cpu:        35.1
 (Enter /home/proyectos/fulerenos/M3C-v2.0/M3C-deps_CCC/g09-AM64L-G09RevC.01/l601.exe)
 Copying SCF densities to generalized density rwf, IOpCl= 1 IROHF=0.

 **********************************************************************

            Population analysis using the SCF density.

 **********************************************************************

 Orbital symmetries:
 Alpha Orbitals:
       Occupied  (A) (A) (A) (A) (A) (A) (A) (A) (A)
       Virtual   (A) (A) (A) (A) (A) (A) (A) (A) (A) (A) (A) (A)
                 (A) (A) (A) (A) (A) (A) (A) (A) (A) (A) (A) (A)
                 (A) (A) (A) (A) (A) (A) (A) (A) (A) (A) (A) (A)
                 (A) (A) (A) (A) (A) (A) (A) (A) (A) (A) (A) (A)
                 (A) (A) (A) (A) (A) (A) (A) (A) (A) (A) (A) (A)
                 (A) (A) (A) (A) (A) (A) (A) (A) (A) (A) (A) (A)
                 (A) (A) (A) (A) (A) (A) (A) (A) (A) (A) (A) (A)
                 (A) (A) (A) (A) (A)
 Beta  Orbitals:
       Occupied  (A) (A) (A) (A) (A) (A)
       Virtual   (A) (A) (A) (A) (A) (A) (A) (A) (A) (A) (A) (A)
                 (A) (A) (A) (A) (A) (A) (A) (A) (A) (A) (A) (A)
                 (A) (A) (A) (A) (A) (A) (A) (A) (A) (A) (A) (A)
                 (A) (A) (A) (A) (A) (A) (A) (A) (A) (A) (A) (A)
                 (A) (A) (A) (A) (A) (A) (A) (A) (A) (A) (A) (A)
                 (A) (A) (A) (A) (A) (A) (A) (A) (A) (A) (A) (A)
                 (A) (A) (A) (A) (A) (A) (A) (A) (A) (A) (A) (A)
                 (A) (A) (A) (A) (A) (A) (A) (A)
 The electronic state is 4-A.
 Alpha  occ. eigenvalues --  -19.64668 -10.59031  -1.47237  -1.02371  -0.88098
 Alpha  occ. eigenvalues --   -0.84481  -0.80273  -0.62399  -0.54971
 Alpha virt. eigenvalues --   -0.27852  -0.20679  -0.16314  -0.11615  -0.10389
 Alpha virt. eigenvalues --   -0.08234  -0.07303  -0.06860  -0.02402  -0.02017
 Alpha virt. eigenvalues --   -0.01088   0.03500   0.05228   0.08372   0.13852
 Alpha virt. eigenvalues --    0.15241   0.18385   0.22733   0.23797   0.27482
 Alpha virt. eigenvalues --    0.29314   0.35886   0.37291   0.47635   0.55830
 Alpha virt. eigenvalues --    0.59181   0.61672   0.66623   0.70546   0.72345
 Alpha virt. eigenvalues --    0.73426   0.78209   0.81374   0.82355   0.87235
 Alpha virt. eigenvalues --    1.00409   1.05512   1.22436   1.29677   1.38550
 Alpha virt. eigenvalues --    1.47088   1.52044   1.64526   1.74680   2.24612
 Alpha virt. eigenvalues --    2.28433   2.42426   2.50565   2.52024   2.54011
 Alpha virt. eigenvalues --    2.60626   2.65006   2.66150   2.72012   2.74429
 Alpha virt. eigenvalues --    2.77476   2.94198   3.01002   3.16989   3.28441
 Alpha virt. eigenvalues --    3.52640   3.53769   3.75061   3.87783   3.98039
 Alpha virt. eigenvalues --    4.14647   4.52622   4.61933   4.67455   4.79081
 Alpha virt. eigenvalues --    4.86694   4.98905   5.03225   5.19940   5.36129
 Alpha virt. eigenvalues --    5.67179   6.45737   6.59414   6.68564   6.86452
 Alpha virt. eigenvalues --    7.02337   7.46476  13.78446  13.85313  13.86727
 Alpha virt. eigenvalues --   14.13394  14.37636  23.47942  49.52050
  Beta  occ. eigenvalues --  -19.61721 -10.55563  -1.39455  -0.96576  -0.82322
  Beta  occ. eigenvalues --   -0.76624
  Beta virt. eigenvalues --   -0.58820  -0.39554  -0.34001  -0.25427  -0.17122
  Beta virt. eigenvalues --   -0.14862  -0.10010  -0.09042  -0.07177  -0.06118
  Beta virt. eigenvalues --   -0.04724  -0.01338  -0.01157  -0.00038   0.04693
  Beta virt. eigenvalues --    0.07666   0.08833   0.15989   0.17311   0.20596
  Beta virt. eigenvalues --    0.24085   0.25365   0.32952   0.34680   0.37933
  Beta virt. eigenvalues --    0.39435   0.49088   0.58185   0.61348   0.65427
  Beta virt. eigenvalues --    0.68420   0.72884   0.74196   0.75858   0.80646
  Beta virt. eigenvalues --    0.84238   0.86004   0.89603   1.04093   1.07531
  Beta virt. eigenvalues --    1.26294   1.40419   1.46905   1.53479   1.59074
  Beta virt. eigenvalues --    1.70230   1.77582   2.28607   2.31718   2.51316
  Beta virt. eigenvalues --    2.58315   2.58834   2.60805   2.68243   2.69889
  Beta virt. eigenvalues --    2.73668   2.80031   2.80921   2.83782   3.00527
  Beta virt. eigenvalues --    3.03344   3.24143   3.32992   3.56153   3.57381
  Beta virt. eigenvalues --    3.77587   3.91162   4.00984   4.16362   4.64272
  Beta virt. eigenvalues --    4.68282   4.74233   4.82968   4.93376   5.04819
  Beta virt. eigenvalues --    5.08403   5.25907   5.38385   5.70613   6.47771
  Beta virt. eigenvalues --    6.73029   6.81824   6.95569   7.10001   7.52084
  Beta virt. eigenvalues --   13.89633  13.94359  13.98081  14.21873  14.40571
  Beta virt. eigenvalues --   23.51813  49.55050
          Condensed to atoms (all electrons):
               1          2          3          4
     1  C    5.424505   0.365561  -0.025605  -0.050429
     2  H    0.365561   0.377889   0.000717  -0.017602
     3  H   -0.025605   0.000717   0.409112   0.237757
     4  O   -0.050429  -0.017602   0.237757   7.767695
          Atomic-Atomic Spin Densities.
               1          2          3          4
     1  C    2.092193  -0.000794  -0.009463  -0.173419
     2  H   -0.000794   0.076612  -0.000882   0.006318
     3  H   -0.009463  -0.000882  -0.001303  -0.000751
     4  O   -0.173419   0.006318  -0.000751   1.190480
 Mulliken charges and spin densities:
               1          2
     1  C    0.285968   1.908517
     2  H    0.273435   0.081254
     3  H    0.378019  -0.012399
     4  O    0.062579   1.022628
 Sum of Mulliken charges =   1.00000   3.00000
 Mulliken charges and spin densities with hydrogens summed into heavy atoms:
               1          2
     1  C    0.559402   1.989771
     4  O    0.440598   1.010229
 APT charges:
               1
     1  C    0.364482
     2  H    0.188957
     3  H    0.457871
     4  O   -0.011310
 Sum of APT charges =   1.00000
 APT charges with hydrogens summed into heavy atoms:
               1
     1  C    0.553439
     4  O    0.446561
 Electronic spatial extent (au):  <R**2>=             60.3751
 Charge=              1.0000 electrons
 Dipole moment (field-independent basis, Debye):
    X=             -0.5539    Y=              0.5553    Z=              1.5976  Tot=              1.7797
 Quadrupole moment (field-independent basis, Debye-Ang):
   XX=             -4.3580   YY=             -9.1813   ZZ=             -9.6218
   XY=              1.1400   XZ=             -2.1346   YZ=              0.2625
 Traceless Quadrupole moment (field-independent basis, Debye-Ang):
   XX=              3.3624   YY=             -1.4609   ZZ=             -1.9014
   XY=              1.1400   XZ=             -2.1346   YZ=              0.2625
 Octapole moment (field-independent basis, Debye-Ang**2):
  XXX=             -3.4943  YYY=              1.6158  ZZZ=              1.3648  XYY=             -0.3203
  XXY=              1.8689  XXZ=              2.8101  XZZ=             -3.6473  YZZ=              0.3515
  YYZ=              0.0560  XYZ=             -0.2247
 Hexadecapole moment (field-independent basis, Debye-Ang**3):
 XXXX=            -37.6784 YYYY=            -10.2363 ZZZZ=            -10.1177 XXXY=              3.5835
 XXXZ=             -3.6393 YYYX=              2.1704 YYYZ=              0.1846 ZZZX=             -2.5167
 ZZZY=              0.2540 XXYY=             -7.7564 XXZZ=             -8.5095 YYZZ=             -3.7453
 XXYZ=              0.2772 YYXZ=             -0.2610 ZZXY=              0.2255
 N-N= 2.779321567749D+01 E-N=-3.182002416352D+02  KE= 1.136015686407D+02
  Exact polarizability:  19.114   0.446  11.393  -0.646   0.036  11.850
 Approx polarizability:  24.569   0.749  14.075  -0.355   0.059  14.675
                          Isotropic Fermi Contact Couplings
        Atom                 a.u.       MegaHertz       Gauss      10(-4) cm-1
     1  C(13)              0.94969     355.87899     126.98647     118.70845
     2  H(1)               0.04246      63.26165      22.57333      21.10182
     3  H(1)               0.00068       1.00895       0.36002       0.33655
     4  O(17)              0.15008     -30.32552     -10.82090     -10.11550
 --------------------------------------------------------
       Center         ----  Spin Dipole Couplings  ----
                      3XX-RR        3YY-RR        3ZZ-RR
 --------------------------------------------------------
     1   Atom       -1.102826      0.134437      0.968389
     2   Atom       -0.011631      0.080193     -0.068563
     3   Atom       -0.008477     -0.078566      0.087043
     4   Atom       -1.479624      3.381197     -1.901572
 --------------------------------------------------------
                        XY            XZ            YZ
 --------------------------------------------------------
     1   Atom       -0.237055     -0.140975      0.028693
     2   Atom        0.132841     -0.001226      0.005987
     3   Atom        0.003893     -0.146530      0.021153
     4   Atom        1.466615      0.407410      0.763307
 --------------------------------------------------------


 ---------------------------------------------------------------------------------
              Anisotropic Spin Dipole Couplings in Principal Axis System
 ---------------------------------------------------------------------------------

       Atom             a.u.   MegaHertz   Gauss  10(-4) cm-1        Axes

              Baa    -1.1551  -155.001   -55.308   -51.703  0.9818  0.1791  0.0628
     1 C(13)  Bbb     0.1747    23.444     8.365     7.820 -0.1749  0.9823 -0.0666
              Bcc     0.9804   131.557    46.943    43.883 -0.0736  0.0544  0.9958
 
              Baa    -0.1068   -56.980   -20.332   -19.007  0.8079 -0.5777  0.1164
     2 H(1)   Bbb    -0.0681   -36.340   -12.967   -12.122 -0.1047  0.0537  0.9931
              Bcc     0.1749    93.320    33.299    31.128  0.5799  0.8145  0.0171
 
              Baa    -0.1207   -64.394   -22.978   -21.480  0.7476 -0.3519  0.5632
     3 H(1)   Bbb    -0.0735   -39.226   -13.997   -13.084  0.3156  0.9345  0.1649
              Bcc     0.1942   103.620    36.974    34.564 -0.5843  0.0545  0.8097
 
              Baa    -2.1541   155.868    55.617    51.992 -0.5826  0.0424  0.8117
     4 O(17)  Bbb    -1.7582   127.220    45.395    42.436  0.7667 -0.3029  0.5661
              Bcc     3.9122  -283.088  -101.013   -94.428  0.2698  0.9521  0.1439
 

 ---------------------------------------------------------------------------------

 No NMR shielding tensors so no spin-rotation constants.
 Leave Link  601 at Fri Mar  1 08:55:32 2019, MaxMem=    33554432 cpu:         1.5
 (Enter /home/proyectos/fulerenos/M3C-v2.0/M3C-deps_CCC/g09-AM64L-G09RevC.01/l701.exe)
 Compute integral second derivatives.
 ... and contract with generalized density number  0.
 Leave Link  701 at Fri Mar  1 08:55:32 2019, MaxMem=    33554432 cpu:         1.1
 (Enter /home/proyectos/fulerenos/M3C-v2.0/M3C-deps_CCC/g09-AM64L-G09RevC.01/l702.exe)
 L702 exits ... SP integral derivatives will be done elsewhere.
 Leave Link  702 at Fri Mar  1 08:55:32 2019, MaxMem=    33554432 cpu:         0.1
 (Enter /home/proyectos/fulerenos/M3C-v2.0/M3C-deps_CCC/g09-AM64L-G09RevC.01/l703.exe)
 Compute integral second derivatives, UseDBF=F ICtDFT=           0.
 Integral derivatives from FoFJK, PRISM(SPDF).
 Calling FoFJK, ICntrl=    100127 FMM=F ISym2X=0 I1Cent= 0 IOpClX= 1 NMat=1 NMatS=1 NMatT=0.
 FoFJK:  IHMeth= 1 ICntrl=  100127 DoSepK=F KAlg= 0 I1Cent=   0 FoldK=F
 IRaf=         0 NMat=   1 IRICut=       1 DoRegI=T DoRafI=F ISym2E= 0.
 FoFCou: FMM=F IPFlag=           0 FMFlag=      100000 FMFlg1=         800
         NFxFlg=           0 DoJE=F BraDBF=F KetDBF=F FulRan=T
         wScrn=  0.000000 ICntrl=  100127 IOpCl=  1 I1Cent=           0 NGrid=           0
         NMat0=    1 NMatS0=      1 NMatT0=    0 NMatD0=    1 NMtDS0=    0 NMtDT0=    0
 Symmetry not used in FoFCou.
 Leave Link  703 at Fri Mar  1 08:55:40 2019, MaxMem=    33554432 cpu:        31.2
 (Enter /home/proyectos/fulerenos/M3C-v2.0/M3C-deps_CCC/g09-AM64L-G09RevC.01/l716.exe)
 Dipole        =-2.17901621D-01 2.18465770D-01 6.28536117D-01
 Polarizability= 1.91143957D+01 4.46308650D-01 1.13934739D+01
                -6.45903621D-01 3.60396591D-02 1.18501130D+01
 Full mass-weighted force constant matrix:
 Low frequencies ---  -49.8827  -14.8751   -0.0016   -0.0013   -0.0013   13.4051
 Low frequencies ---  497.5201  721.0254 1002.1392
 Diagonal vibrational polarizability:
        4.9986942       9.0316476       3.4263748
 Harmonic frequencies (cm**-1), IR intensities (KM/Mole), Raman scattering
 activities (A**4/AMU), depolarization ratios for plane and unpolarized
 incident light, reduced masses (AMU), force constants (mDyne/A),
 and normal coordinates:
                      1                      2                      3
                      A                      A                      A
 Frequencies --    497.5196               721.0247              1002.1385
 Red. masses --      1.1669                 3.1007                 1.1427
 Frc consts  --      0.1702                 0.9498                 0.6761
 IR Inten    --     97.5327                41.4306               130.6774
  Atom  AN      X      Y      Z        X      Y      Z        X      Y      Z
     1   6    -0.05   0.00  -0.07    -0.30  -0.02   0.01    -0.00  -0.02   0.06
     2   1    -0.23   0.12   0.63    -0.68   0.22  -0.42    -0.18   0.09  -0.01
     3   1     0.14   0.71   0.05     0.02  -0.37  -0.09     0.87  -0.12   0.43
     4   8     0.04  -0.05   0.01     0.27   0.03   0.03    -0.04   0.02  -0.07
                      4                      5                      6
                      A                      A                      A
 Frequencies --   1037.5468              3011.9917              3352.1337
 Red. masses --      1.4664                 1.0813                 1.0666
 Frc consts  --      0.9301                 5.7799                 7.0614
 IR Inten    --      4.6553               135.7033               287.1203
  Atom  AN      X      Y      Z        X      Y      Z        X      Y      Z
     1   6    -0.15   0.11  -0.01    -0.04  -0.07   0.00     0.00  -0.00   0.00
     2   1     0.81  -0.48   0.10     0.52   0.85  -0.01     0.01   0.02  -0.00
     3   1     0.23  -0.04   0.10     0.01  -0.00  -0.02    -0.48   0.03   0.88
     4   8     0.05  -0.05  -0.01    -0.00  -0.00   0.00     0.03  -0.00  -0.06

 -------------------
 - Thermochemistry -
 -------------------
 Temperature   298.150 Kelvin.  Pressure   1.00000 Atm.
 Atom     1 has atomic number  6 and mass  12.00000
 Atom     2 has atomic number  1 and mass   1.00783
 Atom     3 has atomic number  1 and mass   1.00783
 Atom     4 has atomic number  8 and mass  15.99491
 Molecular mass:    30.01056 amu.
 Principal axes and moments of inertia in atomic units:
                           1         2         3
     Eigenvalues --     6.00622  67.49156  68.00845
           X            0.99721   0.06879  -0.02894
           Y           -0.05852   0.96141   0.26882
           Z            0.04631  -0.26638   0.96276
 This molecule is an asymmetric top.
 Rotational symmetry number  1.
 Rotational temperatures (Kelvin)     14.42068     1.28333     1.27357
 Rotational constants (GHZ):         300.47858    26.74025    26.53701
 Zero-point vibrational energy      57554.5 (Joules/Mol)
                                   13.75585 (Kcal/Mol)
 Warning -- explicit consideration of   1 degrees of freedom as
           vibrations may cause significant error
 Vibrational temperatures:    715.82  1037.39  1441.85  1492.80  4333.58
          (Kelvin)           4822.97
 
 Zero-point correction=                           0.021921 (Hartree/Particle)
 Thermal correction to Energy=                    0.025153
 Thermal correction to Enthalpy=                  0.026097
 Thermal correction to Gibbs Free Energy=        -0.001445
 Sum of electronic and zero-point Energies=           -113.920898
 Sum of electronic and thermal Energies=              -113.917666
 Sum of electronic and thermal Enthalpies=            -113.916722
 Sum of electronic and thermal Free Energies=         -113.944264
 
                     E (Thermal)             CV                S
                      KCal/Mol        Cal/Mol-Kelvin    Cal/Mol-Kelvin
 Total                   15.784              8.720             57.967
 Electronic               0.000              0.000              2.755
 Translational            0.889              2.981             36.130
 Rotational               0.889              2.981             17.962
 Vibrational             14.006              2.758              1.120
 Vibration     1          0.853              1.256              0.664
                       Q            Log10(Q)             Ln(Q)
 Total Bot       0.461982D+01          0.664625          1.530356
 Total V=0       0.559396D+11         10.747719         24.747538
 Vib (Bot)       0.950923D-10        -10.021855        -23.076173
 Vib (Bot)    1  0.331072D+00         -0.480078         -1.105421
 Vib (V=0)       0.115143D+01          0.061239          0.141009
 Vib (V=0)    1  0.109967D+01          0.041264          0.095013
 Electronic      0.400000D+01          0.602060          1.386294
 Translational   0.646199D+07          6.810366         15.681448
 Rotational      0.187955D+04          3.274053          7.538786
 
                                                              b3lyp opt
                                                             IR Spectrum
 
     3            3                                                                          1 1                                     
     3            0                                                                          0 0         7        4                  
     5            1                                                                          3 0         2        9                  
     2            2                                                                          8 2         1        8                  
 
     X            X                                                                          X X         X        X                  
     X            X                                                                            X         X        X                  
     X            X                                                                            X         X        X                  
     X            X                                                                            X                  X                  
     X            X                                                                            X                  X                  
     X            X                                                                            X                  X                  
     X            X                                                                            X                  X                  
     X            X                                                                            X                                     
     X            X                                                                            X                                     
     X                                                                                                                               
     X                                                                                                                               
     X                                                                                                                               
     X                                                                                                                               
     X                                                                                                                               
     X                                                                                                                               
     X                                                                                                                               
     X                                                                                                                               
     X                                                                                                                               
     X                                                                                                                               
     X                                                                                                                               
 
 ***** Axes restored to original set *****
 -------------------------------------------------------------------
 Center     Atomic                   Forces (Hartrees/Bohr)
 Number     Number              X              Y              Z
 -------------------------------------------------------------------
      1        6          -0.000218300   -0.000126329   -0.000122731
      2        1           0.000000318    0.000104975    0.000080082
      3        1          -0.000093316   -0.000075106    0.000055498
      4        8           0.000311297    0.000096461   -0.000012849
 -------------------------------------------------------------------
 Cartesian Forces:  Max     0.000311297 RMS     0.000135374
 Z-matrix is all fixed cartesians, so copy forces.
 Force constants in Cartesian coordinates: 
                1             2             3             4             5 
      1  0.204157D+00
      2  0.630832D-01  0.227695D+00
      3 -0.166913D-02  0.137546D+00  0.122829D+00
      4 -0.505140D-01 -0.324425D-01 -0.169220D-01  0.421687D-01
      5 -0.435352D-01 -0.202744D+00 -0.141968D+00  0.494886D-01  0.206359D+00
      6 -0.197320D-01 -0.140335D+00 -0.107631D+00  0.309466D-01  0.143460D+00
      7 -0.114784D-01 -0.172908D-01  0.174353D-01 -0.269559D-05 -0.112624D-02
      8 -0.479464D-02  0.507063D-02 -0.131077D-03  0.166812D-02 -0.379818D-02
      9  0.694797D-02 -0.491731D-03  0.103764D-02 -0.443383D-03 -0.163528D-02
     10 -0.142165D+00 -0.133499D-01  0.115588D-02  0.834800D-02 -0.482715D-02
     11 -0.147534D-01 -0.300209D-01  0.455358D-02 -0.187142D-01  0.183160D-03
     12  0.144532D-01  0.328096D-02 -0.162359D-01 -0.135812D-01  0.143623D-03
                6             7             8             9            10 
      6  0.106680D+00
      7 -0.143535D-02  0.514932D-01
      8  0.944124D-03  0.634580D-01  0.205580D+00
      9  0.314572D-02 -0.516928D-01 -0.188813D+00  0.185274D+00
     10 -0.977923D-02 -0.400121D-01 -0.603315D-01  0.451882D-01  0.173829D+00
     11 -0.406906D-02 -0.450409D-01 -0.206853D+00  0.190940D+00  0.785085D-01
     12 -0.219494D-02  0.356929D-01  0.188000D+00 -0.189458D+00 -0.365649D-01
               11            12 
     11  0.236690D+00
     12 -0.191424D+00  0.207888D+00
 Leave Link  716 at Fri Mar  1 08:55:40 2019, MaxMem=    33554432 cpu:         0.1
 (Enter /home/proyectos/fulerenos/M3C-v2.0/M3C-deps_CCC/g09-AM64L-G09RevC.01/l103.exe)

 GradGradGradGradGradGradGradGradGradGradGradGradGradGradGradGradGradGrad
 Berny optimization.
 Search for a local minimum.
 Step number   1 out of a maximum of    2
 All quantities printed in internal units (Hartrees-Bohrs-Radians)
 Second derivative matrix not updated -- analytic derivatives used.
 The second derivative matrix:
                          X1        Y1        Z1        X2        Y2
           X1           0.20416
           Y1           0.06308   0.22769
           Z1          -0.00167   0.13755   0.12283
           X2          -0.05051  -0.03244  -0.01692   0.04217
           Y2          -0.04354  -0.20274  -0.14197   0.04949   0.20636
           Z2          -0.01973  -0.14033  -0.10763   0.03095   0.14346
           X3          -0.01148  -0.01729   0.01744  -0.00000  -0.00113
           Y3          -0.00479   0.00507  -0.00013   0.00167  -0.00380
           Z3           0.00695  -0.00049   0.00104  -0.00044  -0.00164
           X4          -0.14216  -0.01335   0.00116   0.00835  -0.00483
           Y4          -0.01475  -0.03002   0.00455  -0.01871   0.00018
           Z4           0.01445   0.00328  -0.01624  -0.01358   0.00014
                          Z2        X3        Y3        Z3        X4
           Z2           0.10668
           X3          -0.00144   0.05149
           Y3           0.00094   0.06346   0.20558
           Z3           0.00315  -0.05169  -0.18881   0.18527
           X4          -0.00978  -0.04001  -0.06033   0.04519   0.17383
           Y4          -0.00407  -0.04504  -0.20685   0.19094   0.07851
           Z4          -0.00219   0.03569   0.18800  -0.18946  -0.03656
                          Y4        Z4
           Y4           0.23669
           Z4          -0.19142   0.20789
 ITU=  0
     Eigenvalues ---    0.01475   0.06115   0.08081   0.30755   0.56085
     Eigenvalues ---    0.69528
 Angle between quadratic step and forces=  55.85 degrees.
 Linear search not attempted -- first point.
 B after Tr=     0.000274    0.000022   -0.000209
         Rot=    1.000000   -0.000033   -0.000072   -0.000037 Ang=  -0.01 deg.
 Variable       Old X    -DE/DX   Delta X   Delta X   Delta X     New X
                                 (Linear)    (Quad)   (Total)
    X1        1.54800  -0.00022   0.00000  -0.00058  -0.00030   1.54770
    Y1        0.24189  -0.00013   0.00000  -0.00001   0.00012   0.24200
    Z1        0.13377  -0.00012   0.00000  -0.00086  -0.00128   0.13249
    X2        1.91828   0.00000   0.00000  -0.00118  -0.00085   1.91742
    Y2        1.90096   0.00010   0.00000  -0.00063  -0.00055   1.90041
    Z2        1.32502   0.00008   0.00000   0.00103   0.00067   1.32569
    X3       -1.60674  -0.00009   0.00000  -0.00106  -0.00046  -1.60720
    Y3       -1.80452  -0.00008   0.00000   0.00071   0.00053  -1.80400
    Z3        1.36026   0.00006   0.00000   0.00061   0.00051   1.36078
    X4       -1.18465   0.00031   0.00000   0.00129   0.00161  -1.18304
    Y4       -0.45981   0.00010   0.00000  -0.00002  -0.00009  -0.45990
    Z4        0.09369  -0.00001   0.00000   0.00017   0.00010   0.09379
         Item               Value     Threshold  Converged?
 Maximum Force            0.000311     0.000450     YES
 RMS     Force            0.000135     0.000300     YES
 Maximum Displacement     0.001611     0.001800     YES
 RMS     Displacement     0.000741     0.001200     YES
 Predicted change in Energy=-3.635248D-07
 Optimization completed.
    -- Stationary point found.
 GradGradGradGradGradGradGradGradGradGradGradGradGradGradGradGradGradGrad

 Leave Link  103 at Fri Mar  1 08:55:40 2019, MaxMem=    33554432 cpu:         0.1
 (Enter /home/proyectos/fulerenos/M3C-v2.0/M3C-deps_CCC/g09-AM64L-G09RevC.01/l9999.exe)

 Test job not archived.
 1\1\GINC-BOHRIO\Freq\UB3LYP\6-311++G(3df,2p)\C1H2O1(1+,4)\ROOT\01-Mar-
 2019\0\\#p b3lyp/6-311++G(3df,2p) freq IOp(2/17=3) IOp(2/18=3)\\b3lyp 
 opt\\1,4\C,0.819166,0.128001,0.07079\H,1.015109,1.005943,0.701173\H,-0
 .85025,-0.954911,0.719821\O,-0.626888,-0.243323,0.049581\\Version=EM64
 L-G09RevE.01\State=4-A\HF=-113.942819\S2=3.753972\S2-1=0.\S2A=3.750006
 \RMSD=3.772e-09\RMSF=1.354e-04\ZeroPoint=0.0219213\Thermal=0.0251527\D
 ipole=-0.1100783,-0.3204349,0.6127563\DipoleDeriv=0.6987289,0.0928668,
 -0.054408,-0.1062976,0.1492954,0.0488752,-0.2462035,-0.0578091,0.24542
 32,0.0499197,0.0377749,0.0816421,0.120267,0.3121369,0.0295156,0.155853
 4,0.0790822,0.204813,0.4250154,0.0495051,-0.0536419,0.1235654,0.489921
 5,-0.0041709,-0.0783504,-0.0603391,0.4586764,-0.1736639,-0.1801467,0.0
 264078,-0.1375348,0.0486462,-0.0742199,0.1687006,0.039066,0.0910874\Po
 lar=17.2650255,3.3431635,13.4082675,0.0623296,-0.1948645,11.6846897\PG
 =C01 [X(C1H2O1)]\NImag=0\\0.20415733,0.06308319,0.22769471,-0.00166913
 ,0.13754569,0.12282938,-0.05051402,-0.03244250,-0.01692201,0.04216872,
 -0.04353520,-0.20274440,-0.14196820,0.04948859,0.20635942,-0.01973204,
 -0.14033493,-0.10763112,0.03094662,0.14345986,0.10668034,-0.01147841,-
 0.01729081,0.01743527,-0.00000270,-0.00112624,-0.00143535,0.05149316,-
 0.00479464,0.00507063,-0.00013108,0.00166812,-0.00379818,0.00094412,0.
 06345797,0.20558015,0.00694797,-0.00049173,0.00103764,-0.00044338,-0.0
 0163528,0.00314572,-0.05169279,-0.18881284,0.18527416,-0.14216490,-0.0
 1334989,0.00115588,0.00834800,-0.00482715,-0.00977923,-0.04001206,-0.0
 6033145,0.04518821,0.17382897,-0.01475336,-0.03002094,0.00455358,-0.01
 871422,0.00018316,-0.00406906,-0.04504092,-0.20685260,0.19093985,0.078
 50850,0.23669038,0.01445321,0.00328096,-0.01623591,-0.01358123,0.00014
 362,-0.00219494,0.03569287,0.18799980,-0.18945752,-0.03656485,-0.19142
 438,0.20788837\\0.00021830,0.00012633,0.00012273,-0.00000032,-0.000104
 97,-0.00008008,0.00009332,0.00007511,-0.00005550,-0.00031130,-0.000096
 46,0.00001285\\\@


 I LOVE THOSE WHO LONG FOR THE IMPOSSIBLE.

                                 -- GOETHE
 Job cpu time:       0 days  0 hours  2 minutes  1.8 seconds.
 File lengths (MBytes):  RWF=     13 Int=      0 D2E=      0 Chk=      2 Scr=      1
 Normal termination of Gaussian 09 at Fri Mar  1 08:55:40 2019.
