 Entering Gaussian System, Link 0=/home/proyectos/fulerenos/M3C-v2.0/M3C-deps_CCC/g09-AM64L-G09RevC.01/g09
 Initial command:
 /home/proyectos/fulerenos/M3C-v2.0/M3C-deps_CCC/g09-AM64L-G09RevC.01/l1.exe "/scratch/naguirre/gaussian/Gau-26831.inp" -scrdir="/scratch/naguirre/gaussian/"
 Entering Link 1 = /home/proyectos/fulerenos/M3C-v2.0/M3C-deps_CCC/g09-AM64L-G09RevC.01/l1.exe PID=     26832.
  
 Copyright (c) 1988,1990,1992,1993,1995,1998,2003,2009,2015,
            Gaussian, Inc.  All Rights Reserved.
  
 This is part of the Gaussian(R) 09 program.  It is based on
 the Gaussian(R) 03 system (copyright 2003, Gaussian, Inc.),
 the Gaussian(R) 98 system (copyright 1998, Gaussian, Inc.),
 the Gaussian(R) 94 system (copyright 1995, Gaussian, Inc.),
 the Gaussian 92(TM) system (copyright 1992, Gaussian, Inc.),
 the Gaussian 90(TM) system (copyright 1990, Gaussian, Inc.),
 the Gaussian 88(TM) system (copyright 1988, Gaussian, Inc.),
 the Gaussian 86(TM) system (copyright 1986, Carnegie Mellon
 University), and the Gaussian 82(TM) system (copyright 1983,
 Carnegie Mellon University). Gaussian is a federally registered
 trademark of Gaussian, Inc.
  
 This software contains proprietary and confidential information,
 including trade secrets, belonging to Gaussian, Inc.
  
 This software is provided under written license and may be
 used, copied, transmitted, or stored only in accord with that
 written license.
  
 The following legend is applicable only to US Government
 contracts under FAR:
  
                    RESTRICTED RIGHTS LEGEND
  
 Use, reproduction and disclosure by the US Government is
 subject to restrictions as set forth in subparagraphs (a)
 and (c) of the Commercial Computer Software - Restricted
 Rights clause in FAR 52.227-19.
  
 Gaussian, Inc.
 340 Quinnipiac St., Bldg. 40, Wallingford CT 06492
  
  
 ---------------------------------------------------------------
 Warning -- This program may not be used in any manner that
 competes with the business of Gaussian, Inc. or will provide
 assistance to any competitor of Gaussian, Inc.  The licensee
 of this program is prohibited from giving any competitor of
 Gaussian, Inc. access to this program.  By using this program,
 the user acknowledges that Gaussian, Inc. is engaged in the
 business of creating and licensing software in the field of
 computational chemistry and represents and warrants to the
 licensee that it is not a competitor of Gaussian, Inc. and that
 it will not use this program in any manner prohibited above.
 ---------------------------------------------------------------
  

 Cite this work as:
 Gaussian 09, Revision E.01,
 M. J. Frisch, G. W. Trucks, H. B. Schlegel, G. E. Scuseria, 
 M. A. Robb, J. R. Cheeseman, G. Scalmani, V. Barone, B. Mennucci, 
 G. A. Petersson, H. Nakatsuji, M. Caricato, X. Li, H. P. Hratchian, 
 A. F. Izmaylov, J. Bloino, G. Zheng, J. L. Sonnenberg, M. Hada, 
 M. Ehara, K. Toyota, R. Fukuda, J. Hasegawa, M. Ishida, T. Nakajima, 
 Y. Honda, O. Kitao, H. Nakai, T. Vreven, J. A. Montgomery, Jr., 
 J. E. Peralta, F. Ogliaro, M. Bearpark, J. J. Heyd, E. Brothers, 
 K. N. Kudin, V. N. Staroverov, T. Keith, R. Kobayashi, J. Normand, 
 K. Raghavachari, A. Rendell, J. C. Burant, S. S. Iyengar, J. Tomasi, 
 M. Cossi, N. Rega, J. M. Millam, M. Klene, J. E. Knox, J. B. Cross, 
 V. Bakken, C. Adamo, J. Jaramillo, R. Gomperts, R. E. Stratmann, 
 O. Yazyev, A. J. Austin, R. Cammi, C. Pomelli, J. W. Ochterski, 
 R. L. Martin, K. Morokuma, V. G. Zakrzewski, G. A. Voth, 
 P. Salvador, J. J. Dannenberg, S. Dapprich, A. D. Daniels, 
 O. Farkas, J. B. Foresman, J. V. Ortiz, J. Cioslowski, 
 and D. J. Fox, Gaussian, Inc., Wallingford CT, 2013.
 
 ******************************************
 Gaussian 09:  EM64L-G09RevE.01 30-Nov-2015
                 1-Mar-2019 
 ******************************************
 %NProcShared=4
 Will use up to    4 processors via shared memory.
 ------------------------------------------------------
 #p b3lyp/6-311++G(3df,2p) freq IOp(2/17=3) IOp(2/18=3)
 ------------------------------------------------------
 1/10=4,30=1,38=1/1,3;
 2/12=2,17=3,18=3,40=1/2;
 3/5=4,6=6,7=1216,11=2,16=1,25=1,30=1,71=2,74=-5,140=1/1,2,3;
 4//1;
 5/5=2,38=5,98=1/2;
 8/6=4,10=90,11=11/1;
 11/6=1,8=1,9=11,15=111,16=1/1,2,10;
 10/6=1/2;
 6/7=2,8=2,9=2,10=2,18=1,28=1/1;
 7/8=1,10=1,25=1/1,2,3,16;
 1/10=4,30=1/3;
 99//99;
 Leave Link    1 at Fri Mar  1 08:55:41 2019, MaxMem=           0 cpu:         0.2
 (Enter /home/proyectos/fulerenos/M3C-v2.0/M3C-deps_CCC/g09-AM64L-G09RevC.01/l101.exe)
 ---------
 b3lyp opt
 ---------
 Symbolic Z-matrix:
 Charge =  1 Multiplicity = 1
 C                     0.79905  -0.72073  -0.05742 
 C                    -0.50361  -0.24605   0.26991 
 H                     1.52913  -0.17732   0.55327 
 H                     0.84081  -1.79437   0.15892 
 H                     0.97695  -0.5366   -1.12312 
 O                    -1.52047   0.12448   0.52544 
 
 NAtoms=      6 NQM=        6 NQMF=       0 NMMI=      0 NMMIF=      0
                NMic=       0 NMicF=      0.
                    Isotopes and Nuclear Properties:
 (Nuclear quadrupole moments (NQMom) in fm**2, nuclear magnetic moments (NMagM)
  in nuclear magnetons)

  Atom         1           2           3           4           5           6
 IAtWgt=          12          12           1           1           1          16
 AtmWgt=  12.0000000  12.0000000   1.0078250   1.0078250   1.0078250  15.9949146
 NucSpn=           0           0           1           1           1           0
 AtZEff=   0.0000000   0.0000000   0.0000000   0.0000000   0.0000000   0.0000000
 NQMom=    0.0000000   0.0000000   0.0000000   0.0000000   0.0000000   0.0000000
 NMagM=    0.0000000   0.0000000   2.7928460   2.7928460   2.7928460   0.0000000
 AtZNuc=   6.0000000   6.0000000   1.0000000   1.0000000   1.0000000   8.0000000
 Leave Link  101 at Fri Mar  1 08:55:41 2019, MaxMem=    33554432 cpu:         0.3
 (Enter /home/proyectos/fulerenos/M3C-v2.0/M3C-deps_CCC/g09-AM64L-G09RevC.01/l103.exe)

 GradGradGradGradGradGradGradGradGradGradGradGradGradGradGradGradGradGrad
 Berny optimization.
 Initialization pass.
 Trust Radius=3.00D-01 FncErr=1.00D-07 GrdErr=1.00D-07
 Number of steps in this run=      2 maximum allowed number of steps=      2.
 GradGradGradGradGradGradGradGradGradGradGradGradGradGradGradGradGradGrad

 Leave Link  103 at Fri Mar  1 08:55:41 2019, MaxMem=    33554432 cpu:         0.1
 (Enter /home/proyectos/fulerenos/M3C-v2.0/M3C-deps_CCC/g09-AM64L-G09RevC.01/l202.exe)
                          Input orientation:                          
 ---------------------------------------------------------------------
 Center     Atomic      Atomic             Coordinates (Angstroms)
 Number     Number       Type             X           Y           Z
 ---------------------------------------------------------------------
      1          6           0        0.799048   -0.720725   -0.057424
      2          6           0       -0.503608   -0.246045    0.269912
      3          1           0        1.529134   -0.177324    0.553265
      4          1           0        0.840808   -1.794368    0.158923
      5          1           0        0.976950   -0.536597   -1.123122
      6          8           0       -1.520471    0.124481    0.525438
 ---------------------------------------------------------------------
                    Distance matrix (angstroms):
                    1          2          3          4          5
     1  C    0.000000
     2  C    1.424564   0.000000
     3  H    1.096016   2.053546   0.000000
     4  H    1.096020   2.053552   1.801147   0.000000
     5  H    1.096022   2.053537   1.801182   1.801156   0.000000
     6  O    2.536586   1.112022   3.064629   3.064629   3.064618
                    6
     6  O    0.000000
 Stoichiometry    C2H3O(1+)
 Framework group  C3V[C3(CCO),3SGV(H)]
 Deg. of freedom     4
 Full point group                 C3V     NOp   6
 Largest Abelian subgroup         CS      NOp   2
 Largest concise Abelian subgroup CS      NOp   2
                         Standard orientation:                         
 ---------------------------------------------------------------------
 Center     Atomic      Atomic             Coordinates (Angstroms)
 Number     Number       Type             X           Y           Z
 ---------------------------------------------------------------------
      1          6           0       -0.000000    0.000000   -1.208758
      2          6           0        0.000000   -0.000000    0.215806
      3          1           0       -0.000000    1.039898   -1.554976
      4          1           0        0.900578   -0.519949   -1.554976
      5          1           0       -0.900578   -0.519949   -1.554976
      6          8           0        0.000000   -0.000000    1.327828
 ---------------------------------------------------------------------
 Rotational constants (GHZ):    154.5713983      9.2320221      9.2320221
 Leave Link  202 at Fri Mar  1 08:55:41 2019, MaxMem=    33554432 cpu:         0.1
 (Enter /home/proyectos/fulerenos/M3C-v2.0/M3C-deps_CCC/g09-AM64L-G09RevC.01/l301.exe)
 Standard basis: 6-311++G(3df,2p) (5D, 7F)
 Ernie: Thresh=  0.10000D-02 Tol=  0.10000D-05 Strict=F.
 There are   111 symmetry adapted cartesian basis functions of A'  symmetry.
 There are    54 symmetry adapted cartesian basis functions of A"  symmetry.
 There are    96 symmetry adapted basis functions of A'  symmetry.
 There are    51 symmetry adapted basis functions of A"  symmetry.
   147 basis functions,   210 primitive gaussians,   165 cartesian basis functions
    11 alpha electrons       11 beta electrons
       nuclear repulsion energy        64.5828303532 Hartrees.
 IExCor=  402 DFT=T Ex+Corr=B3LYP ExCW=0 ScaHFX=  0.200000
 ScaDFX=  0.800000  0.720000  1.000000  0.810000 ScalE2=  1.000000  1.000000
 IRadAn=      0 IRanWt=     -1 IRanGd=            0 ICorTp=0 IEmpDi=  4
 NAtoms=    6 NActive=    6 NUniq=    4 SFac= 2.25D+00 NAtFMM=   60 NAOKFM=F Big=F
 Integral buffers will be    131072 words long.
 Raffenetti 2 integral format.
 Two-electron integral symmetry is turned on.
 Leave Link  301 at Fri Mar  1 08:55:41 2019, MaxMem=    33554432 cpu:         0.3
 (Enter /home/proyectos/fulerenos/M3C-v2.0/M3C-deps_CCC/g09-AM64L-G09RevC.01/l302.exe)
 NPDir=0 NMtPBC=     1 NCelOv=     1 NCel=       1 NClECP=     1 NCelD=      1
         NCelK=      1 NCelE2=     1 NClLst=     1 CellRange=     0.0.
 One-electron integrals computed using PRISM.
 One-electron integral symmetry used in STVInt
 NBasis=   147 RedAO= T EigKep=  7.53D-05  NBF=    96    51
 NBsUse=   147 1.00D-06 EigRej= -1.00D+00 NBFU=    96    51
 Precomputing XC quadrature grid using
 IXCGrd= 4 IRadAn=           0 IRanWt=          -1 IRanGd=           0 AccXCQ= 0.00D+00.
 Generated NRdTot=       0 NPtTot=           0 NUsed=           0 NTot=          32
 NSgBfM=   165   165   165   165   165 MxSgAt=     6 MxSgA2=     6.
 Leave Link  302 at Fri Mar  1 08:55:41 2019, MaxMem=    33554432 cpu:         1.2
 (Enter /home/proyectos/fulerenos/M3C-v2.0/M3C-deps_CCC/g09-AM64L-G09RevC.01/l303.exe)
 DipDrv:  MaxL=1.
 Leave Link  303 at Fri Mar  1 08:55:41 2019, MaxMem=    33554432 cpu:         0.1
 (Enter /home/proyectos/fulerenos/M3C-v2.0/M3C-deps_CCC/g09-AM64L-G09RevC.01/l401.exe)
 ExpMin= 3.60D-02 ExpMax= 8.59D+03 ExpMxC= 1.30D+03 IAcc=3 IRadAn=         5 AccDes= 0.00D+00
 Harris functional with IExCor=  402 and IRadAn=       5 diagonalized for initial guess.
 HarFok:  IExCor=  402 AccDes= 0.00D+00 IRadAn=         5 IDoV= 1 UseB2=F ITyADJ=14
 ICtDFT=  3500011 ScaDFX=  1.000000  1.000000  1.000000  1.000000
 FoFCou: FMM=F IPFlag=           0 FMFlag=      100000 FMFlg1=           0
         NFxFlg=           0 DoJE=T BraDBF=F KetDBF=T FulRan=T
         wScrn=  0.000000 ICntrl=     500 IOpCl=  0 I1Cent=   200000004 NGrid=           0
         NMat0=    1 NMatS0=      1 NMatT0=    0 NMatD0=    1 NMtDS0=    0 NMtDT0=    0
 Petite list used in FoFCou.
 Harris En= -153.084545200256    
 JPrj=0 DoOrth=F DoCkMO=F.
 Initial guess orbital symmetries:
       Occupied  (A1) (A1) (A1) (A1) (A1) (A1) (A1) (E) (E) (E)
                 (E)
       Virtual   (E) (E) (A1) (E) (E) (A1) (A1) (A1) (E) (E) (E)
                 (E) (A1) (E) (E) (A1) (A1) (E) (E) (A1) (A1) (E)
                 (E) (A1) (E) (E) (E) (E) (A1) (E) (E) (E) (E)
                 (A1) (A1) (A1) (E) (E) (A1) (A2) (E) (E) (A1)
                 (E) (E) (E) (E) (E) (E) (A1) (E) (E) (A1) (E)
                 (E) (A1) (E) (E) (A1) (E) (E) (A1) (E) (E) (A1)
                 (E) (E) (A1) (E) (E) (A1) (E) (E) (A1) (A2) (A1)
                 (E) (E) (A2) (E) (E) (A1) (E) (E) (E) (E) (A1)
                 (E) (E) (E) (E) (A1) (E) (E) (A1) (A1) (E) (E)
                 (A1) (A2) (E) (E) (E) (E) (A1) (A2) (A1) (E) (E)
                 (A1) (E) (E) (E) (E) (A1) (E) (E) (A1) (E) (E)
                 (E) (E) (E) (E) (A1) (E) (E) (A1) (E) (E) (E)
                 (E) (A1) (A1) (A1) (A1)
 The electronic state of the initial guess is 1-A1.
 Leave Link  401 at Fri Mar  1 08:55:42 2019, MaxMem=    33554432 cpu:         2.9
 (Enter /home/proyectos/fulerenos/M3C-v2.0/M3C-deps_CCC/g09-AM64L-G09RevC.01/l502.exe)
 Closed shell SCF:
 Using DIIS extrapolation, IDIIS=  1040.
 Integral symmetry usage will be decided dynamically.
 IVT=      102785 IEndB=      102785 NGot=    33554432 MDV=    33495678
 LenX=    33495678 LenY=    33468012
 Requested convergence on RMS density matrix=1.00D-08 within 128 cycles.
 Requested convergence on MAX density matrix=1.00D-06.
 Requested convergence on             energy=1.00D-06.
 No special actions if energy rises.
 Fock matrices will be formed incrementally for  20 cycles.

 Cycle   1  Pass 1  IDiag  1:
 FoFJK:  IHMeth= 1 ICntrl=       0 DoSepK=F KAlg= 0 I1Cent=   0 FoldK=F
 IRaf= 990000000 NMat=   1 IRICut=       1 DoRegI=T DoRafI=F ISym2E= 1.
 FoFCou: FMM=F IPFlag=           0 FMFlag=      100000 FMFlg1=           0
         NFxFlg=           0 DoJE=F BraDBF=F KetDBF=F FulRan=T
         wScrn=  0.000000 ICntrl=       0 IOpCl=  0 I1Cent=           0 NGrid=           0
         NMat0=    1 NMatS0=      1 NMatT0=    0 NMatD0=    1 NMtDS0=    0 NMtDT0=    0
 Petite list used in FoFCou.
 E= -152.907915130047    
 DIIS: error= 3.10D-02 at cycle   1 NSaved=   1.
 NSaved= 1 IEnMin= 1 EnMin= -152.907915130047     IErMin= 1 ErrMin= 3.10D-02
 ErrMax= 3.10D-02  0.00D+00 EMaxC= 1.00D-01 BMatC= 9.46D-02 BMatP= 9.46D-02
 IDIUse=3 WtCom= 6.90D-01 WtEn= 3.10D-01
 Coeff-Com:  0.100D+01
 Coeff-En:   0.100D+01
 Coeff:      0.100D+01
 Gap=     0.325 Goal=   None    Shift=    0.000
 GapD=    0.325 DampG=1.000 DampE=0.500 DampFc=0.5000 IDamp=-1.
 Damping current iteration by 5.00D-01
 RMSDP=3.46D-03 MaxDP=1.53D-01              OVMax= 1.94D-01

 Cycle   2  Pass 1  IDiag  1:
 RMSU=  1.68D-03    CP:  1.03D+00
 E= -152.923913326310     Delta-E=       -0.015998196264 Rises=F Damp=T
 DIIS: error= 1.49D-02 at cycle   2 NSaved=   2.
 NSaved= 2 IEnMin= 2 EnMin= -152.923913326310     IErMin= 2 ErrMin= 1.49D-02
 ErrMax= 1.49D-02  0.00D+00 EMaxC= 1.00D-01 BMatC= 1.96D-02 BMatP= 9.46D-02
 IDIUse=3 WtCom= 8.51D-01 WtEn= 1.49D-01
 Coeff-Com:  0.253D+00 0.747D+00
 Coeff-En:   0.389D+00 0.611D+00
 Coeff:      0.274D+00 0.726D+00
 Gap=     0.352 Goal=   None    Shift=    0.000
 RMSDP=1.03D-03 MaxDP=3.22D-02 DE=-1.60D-02 OVMax= 1.55D-01

 Cycle   3  Pass 1  IDiag  1:
 RMSU=  1.02D-03    CP:  1.04D+00  9.63D-01
 E= -152.968377920439     Delta-E=       -0.044464594129 Rises=F Damp=F
 DIIS: error= 1.84D-02 at cycle   3 NSaved=   3.
 NSaved= 3 IEnMin= 3 EnMin= -152.968377920439     IErMin= 2 ErrMin= 1.49D-02
 ErrMax= 1.84D-02  0.00D+00 EMaxC= 1.00D-01 BMatC= 1.63D-02 BMatP= 1.96D-02
 IDIUse=3 WtCom= 8.16D-01 WtEn= 1.84D-01
 Coeff-Com:  0.762D-01 0.470D+00 0.454D+00
 Coeff-En:   0.000D+00 0.000D+00 0.100D+01
 Coeff:      0.621D-01 0.383D+00 0.555D+00
 Gap=     0.392 Goal=   None    Shift=    0.000
 RMSDP=6.71D-04 MaxDP=2.13D-02 DE=-4.45D-02 OVMax= 5.39D-02

 Cycle   4  Pass 1  IDiag  1:
 RMSU=  4.21D-04    CP:  1.04D+00  9.51D-01  4.89D-01
 E= -152.977397521775     Delta-E=       -0.009019601335 Rises=F Damp=F
 DIIS: error= 1.00D-02 at cycle   4 NSaved=   4.
 NSaved= 4 IEnMin= 4 EnMin= -152.977397521775     IErMin= 4 ErrMin= 1.00D-02
 ErrMax= 1.00D-02  0.00D+00 EMaxC= 1.00D-01 BMatC= 5.40D-03 BMatP= 1.63D-02
 IDIUse=3 WtCom= 9.00D-01 WtEn= 1.00D-01
 Coeff-Com:  0.116D-01 0.210D-01 0.360D+00 0.608D+00
 Coeff-En:   0.000D+00 0.000D+00 0.289D+00 0.711D+00
 Coeff:      0.104D-01 0.189D-01 0.353D+00 0.618D+00
 Gap=     0.381 Goal=   None    Shift=    0.000
 RMSDP=2.48D-04 MaxDP=7.82D-03 DE=-9.02D-03 OVMax= 1.77D-02

 Cycle   5  Pass 1  IDiag  1:
 RMSU=  5.65D-05    CP:  1.04D+00  9.45D-01  6.59D-01  6.02D-01
 E= -152.981495897449     Delta-E=       -0.004098375674 Rises=F Damp=F
 DIIS: error= 3.61D-04 at cycle   5 NSaved=   5.
 NSaved= 5 IEnMin= 5 EnMin= -152.981495897449     IErMin= 5 ErrMin= 3.61D-04
 ErrMax= 3.61D-04  0.00D+00 EMaxC= 1.00D-01 BMatC= 1.92D-05 BMatP= 5.40D-03
 IDIUse=3 WtCom= 9.96D-01 WtEn= 3.61D-03
 Coeff-Com: -0.195D-02-0.177D-02 0.919D-01 0.189D+00 0.723D+00
 Coeff-En:   0.000D+00 0.000D+00 0.000D+00 0.000D+00 0.100D+01
 Coeff:     -0.194D-02-0.177D-02 0.916D-01 0.188D+00 0.724D+00
 Gap=     0.380 Goal=   None    Shift=    0.000
 RMSDP=2.03D-05 MaxDP=8.22D-04 DE=-4.10D-03 OVMax= 1.23D-03

 Cycle   6  Pass 1  IDiag  1:
 RMSU=  1.31D-05    CP:  1.04D+00  9.45D-01  6.55D-01  6.18D-01  7.86D-01
 E= -152.981508379152     Delta-E=       -0.000012481704 Rises=F Damp=F
 DIIS: error= 8.52D-05 at cycle   6 NSaved=   6.
 NSaved= 6 IEnMin= 6 EnMin= -152.981508379152     IErMin= 6 ErrMin= 8.52D-05
 ErrMax= 8.52D-05  0.00D+00 EMaxC= 1.00D-01 BMatC= 6.12D-07 BMatP= 1.92D-05
 IDIUse=1 WtCom= 1.00D+00 WtEn= 0.00D+00
 Coeff-Com: -0.127D-02 0.366D-03 0.108D-01 0.262D-01 0.242D+00 0.722D+00
 Coeff:     -0.127D-02 0.366D-03 0.108D-01 0.262D-01 0.242D+00 0.722D+00
 Gap=     0.380 Goal=   None    Shift=    0.000
 RMSDP=5.30D-06 MaxDP=1.92D-04 DE=-1.25D-05 OVMax= 2.91D-04

 Cycle   7  Pass 1  IDiag  1:
 RMSU=  2.05D-06    CP:  1.04D+00  9.47D-01  6.57D-01  6.17D-01  8.27D-01
                    CP:  7.94D-01
 E= -152.981509016185     Delta-E=       -0.000000637032 Rises=F Damp=F
 DIIS: error= 1.32D-05 at cycle   7 NSaved=   7.
 NSaved= 7 IEnMin= 7 EnMin= -152.981509016185     IErMin= 7 ErrMin= 1.32D-05
 ErrMax= 1.32D-05  0.00D+00 EMaxC= 1.00D-01 BMatC= 1.19D-08 BMatP= 6.12D-07
 IDIUse=1 WtCom= 1.00D+00 WtEn= 0.00D+00
 Coeff-Com: -0.248D-03 0.277D-03-0.126D-02-0.136D-02 0.294D-01 0.169D+00
 Coeff-Com:  0.804D+00
 Coeff:     -0.248D-03 0.277D-03-0.126D-02-0.136D-02 0.294D-01 0.169D+00
 Coeff:      0.804D+00
 Gap=     0.380 Goal=   None    Shift=    0.000
 RMSDP=5.66D-07 MaxDP=2.37D-05 DE=-6.37D-07 OVMax= 5.11D-05

 Cycle   8  Pass 1  IDiag  1:
 RMSU=  4.56D-07    CP:  1.04D+00  9.47D-01  6.57D-01  6.17D-01  8.29D-01
                    CP:  7.96D-01  8.94D-01
 E= -152.981509028543     Delta-E=       -0.000000012358 Rises=F Damp=F
 DIIS: error= 7.66D-07 at cycle   8 NSaved=   8.
 NSaved= 8 IEnMin= 8 EnMin= -152.981509028543     IErMin= 8 ErrMin= 7.66D-07
 ErrMax= 7.66D-07  0.00D+00 EMaxC= 1.00D-01 BMatC= 1.09D-10 BMatP= 1.19D-08
 IDIUse=1 WtCom= 1.00D+00 WtEn= 0.00D+00
 Coeff-Com: -0.617D-05 0.175D-04-0.250D-03-0.461D-03-0.717D-03 0.145D-02
 Coeff-Com:  0.906D-01 0.909D+00
 Coeff:     -0.617D-05 0.175D-04-0.250D-03-0.461D-03-0.717D-03 0.145D-02
 Coeff:      0.906D-01 0.909D+00
 Gap=     0.380 Goal=   None    Shift=    0.000
 RMSDP=1.02D-07 MaxDP=4.54D-06 DE=-1.24D-08 OVMax= 3.59D-06

 Cycle   9  Pass 1  IDiag  1:
 RMSU=  5.33D-08    CP:  1.04D+00  9.47D-01  6.57D-01  6.17D-01  8.29D-01
                    CP:  7.94D-01  9.12D-01  1.03D+00
 E= -152.981509028632     Delta-E=       -0.000000000089 Rises=F Damp=F
 DIIS: error= 1.85D-07 at cycle   9 NSaved=   9.
 NSaved= 9 IEnMin= 9 EnMin= -152.981509028632     IErMin= 9 ErrMin= 1.85D-07
 ErrMax= 1.85D-07  0.00D+00 EMaxC= 1.00D-01 BMatC= 3.51D-12 BMatP= 1.09D-10
 IDIUse=1 WtCom= 1.00D+00 WtEn= 0.00D+00
 Coeff-Com:  0.191D-05-0.296D-05-0.253D-04-0.798D-04-0.693D-03-0.331D-02
 Coeff-Com: -0.703D-03 0.823D-01 0.923D+00
 Coeff:      0.191D-05-0.296D-05-0.253D-04-0.798D-04-0.693D-03-0.331D-02
 Coeff:     -0.703D-03 0.823D-01 0.923D+00
 Gap=     0.380 Goal=   None    Shift=    0.000
 RMSDP=2.55D-08 MaxDP=1.59D-06 DE=-8.88D-11 OVMax= 8.25D-07

 Cycle  10  Pass 1  IDiag  1:
 RMSU=  7.04D-09    CP:  1.04D+00  9.47D-01  6.57D-01  6.17D-01  8.29D-01
                    CP:  7.94D-01  9.14D-01  1.05D+00  1.01D+00
 E= -152.981509028636     Delta-E=       -0.000000000003 Rises=F Damp=F
 DIIS: error= 3.12D-08 at cycle  10 NSaved=  10.
 NSaved=10 IEnMin=10 EnMin= -152.981509028636     IErMin=10 ErrMin= 3.12D-08
 ErrMax= 3.12D-08  0.00D+00 EMaxC= 1.00D-01 BMatC= 6.29D-14 BMatP= 3.51D-12
 IDIUse=1 WtCom= 1.00D+00 WtEn= 0.00D+00
 Coeff-Com: -0.835D-07 0.105D-06 0.263D-05 0.514D-05-0.152D-04-0.194D-03
 Coeff-Com: -0.136D-02-0.102D-01 0.500D-01 0.962D+00
 Coeff:     -0.835D-07 0.105D-06 0.263D-05 0.514D-05-0.152D-04-0.194D-03
 Coeff:     -0.136D-02-0.102D-01 0.500D-01 0.962D+00
 Gap=     0.380 Goal=   None    Shift=    0.000
 RMSDP=3.04D-09 MaxDP=1.60D-07 DE=-3.47D-12 OVMax= 5.69D-08

 SCF Done:  E(RB3LYP) =  -152.981509029     A.U. after   10 cycles
            NFock= 10  Conv=0.30D-08     -V/T= 2.0040
 KE= 1.523727223936D+02 PE=-4.801878829685D+02 EE= 1.102508211931D+02
 Leave Link  502 at Fri Mar  1 08:55:56 2019, MaxMem=    33554432 cpu:        54.5
 (Enter /home/proyectos/fulerenos/M3C-v2.0/M3C-deps_CCC/g09-AM64L-G09RevC.01/l801.exe)
 DoSCS=F DFT=T ScalE2(SS,OS)=  1.000000  1.000000
 Range of M.O.s used for correlation:     1   147
 NBasis=   147 NAE=    11 NBE=    11 NFC=     0 NFV=     0
 NROrb=    147 NOA=    11 NOB=    11 NVA=   136 NVB=   136

 **** Warning!!: The largest alpha MO coefficient is  0.53929455D+02

 Leave Link  801 at Fri Mar  1 08:55:56 2019, MaxMem=    33554432 cpu:         0.1
 (Enter /home/proyectos/fulerenos/M3C-v2.0/M3C-deps_CCC/g09-AM64L-G09RevC.01/l1101.exe)
 Using compressed storage, NAtomX=     6.
 Will process      7 centers per pass.
 Leave Link 1101 at Fri Mar  1 08:55:56 2019, MaxMem=    33554432 cpu:         1.2
 (Enter /home/proyectos/fulerenos/M3C-v2.0/M3C-deps_CCC/g09-AM64L-G09RevC.01/l1102.exe)
 Symmetrizing basis deriv contribution to polar:
 IMax=3 JMax=2 DiffMx= 0.00D+00
 Leave Link 1102 at Fri Mar  1 08:55:56 2019, MaxMem=    33554432 cpu:         0.1
 (Enter /home/proyectos/fulerenos/M3C-v2.0/M3C-deps_CCC/g09-AM64L-G09RevC.01/l1110.exe)
 Forming Gx(P) for the SCF density, NAtomX=     6.
 Integral derivatives from FoFJK, PRISM(SPDF).
 Do as many integral derivatives as possible in FoFJK.
 G2DrvN: MDV=      33554280.
 G2DrvN: will do     7 centers at a time, making    1 passes.
 Calling FoFCou, ICntrl=  3107 FMM=F I1Cent=   0 AccDes= 0.00D+00.
 FoFJK:  IHMeth= 1 ICntrl=    3107 DoSepK=F KAlg= 0 I1Cent=   0 FoldK=F
 IRaf=         0 NMat=   1 IRICut=       1 DoRegI=T DoRafI=F ISym2E= 1.
 FoFCou: FMM=F IPFlag=           0 FMFlag=      100000 FMFlg1=           0
         NFxFlg=           0 DoJE=F BraDBF=F KetDBF=F FulRan=T
         wScrn=  0.000000 ICntrl=    3107 IOpCl=  0 I1Cent=           0 NGrid=           0
         NMat0=    1 NMatS0=      1 NMatT0=    0 NMatD0=    1 NMtDS0=    0 NMtDT0=    0
 Petite list used in FoFCou.
 End of G2Drv F.D. properties file   721 does not exist.
 End of G2Drv F.D. properties file   722 does not exist.
 End of G2Drv F.D. properties file   788 does not exist.
 Leave Link 1110 at Fri Mar  1 08:56:05 2019, MaxMem=    33554432 cpu:        36.9
 (Enter /home/proyectos/fulerenos/M3C-v2.0/M3C-deps_CCC/g09-AM64L-G09RevC.01/l1002.exe)
 Minotr:  Closed shell wavefunction.
          IDoAtm=111111
          Direct CPHF calculation.
          Differentiating once with respect to electric field.
                with respect to dipole field.
          Differentiating once with respect to nuclear coordinates.
          Using symmetry in CPHF.
          Requested convergence is 1.0D-08 RMS, and 1.0D-07 maximum.
          Secondary convergence is 1.0D-12 RMS, and 1.0D-12 maximum.
          NewPWx=T KeepS1=F KeepF1=F KeepIn=T MapXYZ=F SortEE=F KeepMc=T.
          MDV=      33554221 using IRadAn=       2.
 Generate precomputed XC quadrature information.
          Solving linear equations simultaneously, MaxMat=       0.
 FoFJK:  IHMeth= 1 ICntrl=       0 DoSepK=F KAlg= 0 I1Cent=   0 FoldK=F
 IRaf= 990000000 NMat=  15 IRICut=      37 DoRegI=T DoRafI=T ISym2E= 2.
 FoFCou: FMM=F IPFlag=           0 FMFlag=      100000 FMFlg1=           0
         NFxFlg=           0 DoJE=F BraDBF=F KetDBF=F FulRan=T
         wScrn=  0.000000 ICntrl=       0 IOpCl=  0 I1Cent=           0 NGrid=           0
         NMat0=   15 NMatS0=     15 NMatT0=    0 NMatD0=   15 NMtDS0=    0 NMtDT0=    0
 Integrals replicated using symmetry in FoFCou.
          There are    15 degrees of freedom in the 1st order CPHF.  IDoFFX=4 NUNeed=    15.
     15 vectors produced by pass  0 Test12= 9.97D-15 6.67D-09 XBig12= 2.83D+01 3.32D+00.
 AX will form    15 AO Fock derivatives at one time.
     15 vectors produced by pass  1 Test12= 9.97D-15 6.67D-09 XBig12= 1.01D+01 9.43D-01.
     15 vectors produced by pass  2 Test12= 9.97D-15 6.67D-09 XBig12= 1.20D-01 7.54D-02.
     15 vectors produced by pass  3 Test12= 9.97D-15 6.67D-09 XBig12= 2.83D-04 3.48D-03.
     15 vectors produced by pass  4 Test12= 9.97D-15 6.67D-09 XBig12= 5.06D-07 1.77D-04.
     14 vectors produced by pass  5 Test12= 9.97D-15 6.67D-09 XBig12= 6.61D-10 6.44D-06.
      4 vectors produced by pass  6 Test12= 9.97D-15 6.67D-09 XBig12= 4.89D-13 1.33D-07.
      1 vectors produced by pass  7 Test12= 9.97D-15 6.67D-09 XBig12= 3.82D-15 2.75D-08.
 InvSVY:  IOpt=1 It=  1 EMax= 8.88D-16
 Solved reduced A of dimension    94 with    15 vectors.
 FullF1:  Do perturbations    1 to    15.
 Isotropic polarizability for W=    0.000000       21.99 Bohr**3.
 End of Minotr F.D. properties file   721 does not exist.
 End of Minotr F.D. properties file   722 does not exist.
 End of Minotr F.D. properties file   788 does not exist.
 Leave Link 1002 at Fri Mar  1 08:56:45 2019, MaxMem=    33554432 cpu:       155.9
 (Enter /home/proyectos/fulerenos/M3C-v2.0/M3C-deps_CCC/g09-AM64L-G09RevC.01/l601.exe)
 Copying SCF densities to generalized density rwf, IOpCl= 0 IROHF=0.

 **********************************************************************

            Population analysis using the SCF density.

 **********************************************************************

 Orbital symmetries:
       Occupied  (A1) (A1) (A1) (A1) (A1) (A1) (E) (E) (A1) (E)
                 (E)
       Virtual   (E) (E) (A1) (E) (E) (A1) (A1) (E) (E) (E) (E)
                 (A1) (A1) (E) (E) (A1) (A1) (E) (E) (A1) (E) (E)
                 (A1) (E) (E) (A1) (E) (E) (E) (E) (A1) (E) (E)
                 (A1) (A1) (E) (E) (A1) (A1) (E) (E) (A2) (A1)
                 (E) (E) (E) (E) (E) (E) (A1) (E) (E) (A1) (E)
                 (E) (A1) (E) (E) (A1) (E) (E) (A1) (E) (E) (A1)
                 (A1) (E) (E) (E) (E) (A1) (E) (E) (A2) (A1) (A1)
                 (E) (E) (A2) (E) (E) (A1) (E) (E) (E) (E) (A1)
                 (E) (E) (E) (E) (A1) (E) (E) (A1) (A1) (E) (E)
                 (A1) (A2) (E) (E) (E) (E) (A1) (A2) (A1) (E) (E)
                 (A1) (E) (E) (E) (E) (A1) (E) (E) (A1) (E) (E)
                 (E) (E) (E) (E) (A1) (E) (E) (A1) (E) (E) (E)
                 (E) (A1) (A1) (A1) (A1)
 The electronic state is 1-A1.
 Alpha  occ. eigenvalues --  -19.52619 -10.62777 -10.48620  -1.46539  -1.08410
 Alpha  occ. eigenvalues --   -0.84369  -0.78672  -0.78672  -0.78181  -0.69574
 Alpha  occ. eigenvalues --   -0.69574
 Alpha virt. eigenvalues --   -0.31606  -0.31606  -0.21027  -0.13153  -0.13153
 Alpha virt. eigenvalues --   -0.13126  -0.11823  -0.09572  -0.09572  -0.06707
 Alpha virt. eigenvalues --   -0.06707  -0.06580  -0.02397  -0.00456  -0.00456
 Alpha virt. eigenvalues --    0.01031   0.07167   0.07593   0.07593   0.09929
 Alpha virt. eigenvalues --    0.11429   0.11429   0.13686   0.15251   0.15251
 Alpha virt. eigenvalues --    0.17161   0.18855   0.18855   0.31311   0.31311
 Alpha virt. eigenvalues --    0.31507   0.38638   0.38638   0.39092   0.45283
 Alpha virt. eigenvalues --    0.49511   0.49511   0.52004   0.53535   0.58026
 Alpha virt. eigenvalues --    0.58026   0.59228   0.71460   0.73181   0.73181
 Alpha virt. eigenvalues --    0.80919   0.80919   0.87579   0.87579   0.90094
 Alpha virt. eigenvalues --    0.93463   0.93463   1.01943   1.04389   1.04389
 Alpha virt. eigenvalues --    1.08942   1.17286   1.17286   1.24356   1.25112
 Alpha virt. eigenvalues --    1.25112   1.34699   1.38344   1.38344   1.69514
 Alpha virt. eigenvalues --    1.73174   1.75582   1.75582   1.93055   1.93055
 Alpha virt. eigenvalues --    2.29312   2.31615   2.31615   2.42548   2.43972
 Alpha virt. eigenvalues --    2.51360   2.57190   2.57190   2.64522   2.68970
 Alpha virt. eigenvalues --    2.68970   2.75921   2.77571   2.77571   2.98203
 Alpha virt. eigenvalues --    2.98203   3.05932   3.16646   3.16646   3.38268
 Alpha virt. eigenvalues --    3.38268   3.48746   3.59345   3.59345   3.66951
 Alpha virt. eigenvalues --    3.92334   3.97190   3.97190   4.02738   4.16579
 Alpha virt. eigenvalues --    4.20784   4.20784   4.45773   4.45773   4.57246
 Alpha virt. eigenvalues --    4.71061   4.71340   5.12608   5.12608   5.20393
 Alpha virt. eigenvalues --    5.26436   5.26436   5.40303   5.40303   5.68139
 Alpha virt. eigenvalues --    6.19469   6.19469   6.31698   6.58747   6.58747
 Alpha virt. eigenvalues --    6.86698   6.86698   7.24075   7.24075   7.74798
 Alpha virt. eigenvalues --    7.83879   7.83879   8.41485  13.96237  13.96237
 Alpha virt. eigenvalues --   14.56300  14.56300  14.80579  24.49374  24.89297
 Alpha virt. eigenvalues --   50.43741
          Condensed to atoms (all electrons):
               1          2          3          4          5          6
     1  C    5.463467  -0.705152   0.427395   0.427395   0.427395   0.120201
     2  C   -0.705152   6.087662  -0.055309  -0.055309  -0.055309   0.021432
     3  H    0.427395  -0.055309   0.393619  -0.007304  -0.007304  -0.000299
     4  H    0.427395  -0.055309  -0.007304   0.393619  -0.007304  -0.000299
     5  H    0.427395  -0.055309  -0.007304  -0.007304   0.393619  -0.000299
     6  O    0.120201   0.021432  -0.000299  -0.000299  -0.000299   8.208157
 Mulliken charges:
               1
     1  C   -0.160702
     2  C    0.761985
     3  H    0.249203
     4  H    0.249203
     5  H    0.249203
     6  O   -0.348892
 Sum of Mulliken charges =   1.00000
 Mulliken charges with hydrogens summed into heavy atoms:
               1
     1  C    0.586907
     2  C    0.761985
     6  O   -0.348892
 APT charges:
               1
     1  C   -0.226183
     2  C    0.903980
     3  H    0.183927
     4  H    0.183926
     5  H    0.183926
     6  O   -0.229575
 Sum of APT charges =   1.00000
 APT charges with hydrogens summed into heavy atoms:
               1
     1  C    0.325596
     2  C    0.903980
     6  O   -0.229575
 Electronic spatial extent (au):  <R**2>=            147.7072
 Charge=              1.0000 electrons
 Dipole moment (field-independent basis, Debye):
    X=             -0.0000    Y=             -0.0000    Z=             -2.8695  Tot=              2.8695
 Quadrupole moment (field-independent basis, Debye-Ang):
   XX=            -13.8181   YY=            -13.8181   ZZ=             -9.4118
   XY=             -0.0000   XZ=              0.0000   YZ=              0.0000
 Traceless Quadrupole moment (field-independent basis, Debye-Ang):
   XX=             -1.4688   YY=             -1.4688   ZZ=              2.9375
   XY=             -0.0000   XZ=              0.0000   YZ=              0.0000
 Octapole moment (field-independent basis, Debye-Ang**2):
  XXX=             -0.0000  YYY=              1.2797  ZZZ=             -4.8220  XYY=              0.0000
  XXY=             -1.2797  XXZ=             -0.9385  XZZ=             -0.0000  YZZ=             -0.0000
  YYZ=             -0.9385  XYZ=              0.0000
 Hexadecapole moment (field-independent basis, Debye-Ang**3):
 XXXX=            -16.4849 YYYY=            -16.4849 ZZZZ=           -115.8797 XXXY=              0.0000
 XXXZ=              0.0000 YYYX=             -0.0000 YYYZ=             -2.1954 ZZZX=             -0.0000
 ZZZY=              0.0000 XXYY=             -5.4950 XXZZ=            -20.5644 YYZZ=            -20.5644
 XXYZ=              2.1954 YYXZ=             -0.0000 ZZXY=             -0.0000
 N-N= 6.458283035316D+01 E-N=-4.801878828602D+02  KE= 1.523727223936D+02
 Symmetry A'   KE= 1.460472676755D+02
 Symmetry A"   KE= 6.325454718078D+00
  Exact polarizability:  17.476  -0.000  17.476   0.000   0.000  31.019
 Approx polarizability:  24.137  -0.000  24.137   0.000   0.000  50.466
 No NMR shielding tensors so no spin-rotation constants.
 Leave Link  601 at Fri Mar  1 08:56:45 2019, MaxMem=    33554432 cpu:         1.1
 (Enter /home/proyectos/fulerenos/M3C-v2.0/M3C-deps_CCC/g09-AM64L-G09RevC.01/l701.exe)
 Compute integral second derivatives.
 ... and contract with generalized density number  0.
 Leave Link  701 at Fri Mar  1 08:56:45 2019, MaxMem=    33554432 cpu:         1.6
 (Enter /home/proyectos/fulerenos/M3C-v2.0/M3C-deps_CCC/g09-AM64L-G09RevC.01/l702.exe)
 L702 exits ... SP integral derivatives will be done elsewhere.
 Leave Link  702 at Fri Mar  1 08:56:45 2019, MaxMem=    33554432 cpu:         0.1
 (Enter /home/proyectos/fulerenos/M3C-v2.0/M3C-deps_CCC/g09-AM64L-G09RevC.01/l703.exe)
 Compute integral second derivatives, UseDBF=F ICtDFT=           0.
 Integral derivatives from FoFJK, PRISM(SPDF).
 Calling FoFJK, ICntrl=    100127 FMM=F ISym2X=1 I1Cent= 0 IOpClX= 0 NMat=1 NMatS=1 NMatT=0.
 FoFJK:  IHMeth= 1 ICntrl=  100127 DoSepK=F KAlg= 0 I1Cent=   0 FoldK=F
 IRaf=         0 NMat=   1 IRICut=       1 DoRegI=T DoRafI=F ISym2E= 1.
 FoFCou: FMM=F IPFlag=           0 FMFlag=      100000 FMFlg1=         800
         NFxFlg=           0 DoJE=F BraDBF=F KetDBF=F FulRan=T
         wScrn=  0.000000 ICntrl=  100127 IOpCl=  0 I1Cent=           0 NGrid=           0
         NMat0=    1 NMatS0=      1 NMatT0=    0 NMatD0=    1 NMtDS0=    0 NMtDT0=    0
 Petite list used in FoFCou.
 Leave Link  703 at Fri Mar  1 08:57:06 2019, MaxMem=    33554432 cpu:        81.3
 (Enter /home/proyectos/fulerenos/M3C-v2.0/M3C-deps_CCC/g09-AM64L-G09RevC.01/l716.exe)
 Dipole        =-5.11485196D-16-1.89453819D-15-1.12896566D+00
 Polarizability= 1.74755545D+01-2.72657241D-09 1.74755675D+01
                 3.70388582D-10 1.48271785D-05 3.10189279D+01
 Full mass-weighted force constant matrix:
 Low frequencies ---   -0.1373   -0.1279   -0.0030    2.7981    2.8185   11.8221
 Low frequencies ---  423.1381  423.1406  905.5324
 Diagonal vibrational polarizability:
        1.4716712       1.4715863       2.0484653
 Harmonic frequencies (cm**-1), IR intensities (KM/Mole), Raman scattering
 activities (A**4/AMU), depolarization ratios for plane and unpolarized
 incident light, reduced masses (AMU), force constants (mDyne/A),
 and normal coordinates:
                      1                      2                      3
                      E                      E                     A1
 Frequencies --    423.1381               423.1406               905.5324
 Red. masses --      2.9495                 2.9495                 4.9471
 Frc consts  --      0.3111                 0.3111                 2.3901
 IR Inten    --      2.8156                 2.8161                 2.5152
  Atom  AN      X      Y      Z        X      Y      Z        X      Y      Z
     1   6    -0.00  -0.04  -0.00    -0.04   0.00  -0.00    -0.00  -0.00   0.46
     2   6     0.00   0.36   0.00     0.36  -0.00   0.00     0.00   0.00  -0.20
     3   1    -0.00  -0.27  -0.63    -0.29   0.00   0.00     0.00   0.01   0.47
     4   1    -0.01  -0.28   0.32    -0.28  -0.01  -0.55     0.01  -0.01   0.47
     5   1     0.01  -0.28   0.32    -0.28   0.01   0.55    -0.01  -0.01   0.47
     6   8    -0.00  -0.18   0.00    -0.18   0.00   0.00    -0.00  -0.00  -0.28
                      4                      5                      6
                      E                      E                     A1
 Frequencies --   1030.1688              1030.1693              1367.8998
 Red. masses --      1.6178                 1.6178                 1.2127
 Frc consts  --      1.0116                 1.0116                 1.3370
 IR Inten    --     23.6781                23.6792                44.0422
  Atom  AN      X      Y      Z        X      Y      Z        X      Y      Z
     1   6    -0.00  -0.17  -0.00     0.17  -0.00   0.00     0.00  -0.00  -0.14
     2   6     0.00   0.15   0.00    -0.15   0.00  -0.00     0.00  -0.00   0.00
     3   1     0.00   0.08   0.66    -0.44   0.00   0.00    -0.00   0.22   0.53
     4   1     0.16   0.35  -0.33    -0.17  -0.16  -0.57     0.19  -0.11   0.53
     5   1    -0.16   0.35  -0.33    -0.17   0.16   0.57    -0.19  -0.11   0.53
     6   8    -0.00  -0.03   0.00     0.03  -0.00  -0.00    -0.00   0.00   0.00
                      7                      8                      9
                      E                      E                     A1
 Frequencies --   1399.7378              1399.7380              2380.6943
 Red. masses --      1.0392                 1.0392                12.7333
 Frc consts  --      1.1997                 1.1997                42.5203
 IR Inten    --     20.0566                20.0561               226.1642
  Atom  AN      X      Y      Z        X      Y      Z        X      Y      Z
     1   6    -0.00  -0.03   0.00    -0.03   0.00  -0.00    -0.00   0.00  -0.08
     2   6    -0.00  -0.04  -0.00    -0.04   0.00   0.00    -0.00  -0.00   0.81
     3   1     0.00  -0.17  -0.42     0.68   0.00   0.00    -0.00  -0.11  -0.04
     4   1     0.37   0.47   0.21     0.05   0.37  -0.37    -0.09   0.05  -0.04
     5   1    -0.37   0.47   0.21     0.05  -0.37   0.37     0.09   0.05  -0.04
     6   8     0.00   0.01   0.00     0.01  -0.00   0.00     0.00   0.00  -0.54
                     10                     11                     12
                     A1                      E                      E
 Frequencies --   2995.6804              3076.0275              3076.0282
 Red. masses --      1.0321                 1.1027                 1.1027
 Frc consts  --      5.4570                 6.1474                 6.1474
 IR Inten    --     86.2460                60.6376                60.6424
  Atom  AN      X      Y      Z        X      Y      Z        X      Y      Z
     1   6    -0.00   0.00   0.04    -0.09  -0.00  -0.00     0.00  -0.09   0.00
     2   6    -0.00   0.00   0.01    -0.00  -0.00  -0.00     0.00  -0.00   0.00
     3   1    -0.00   0.55  -0.19    -0.02   0.00  -0.00     0.00   0.77  -0.27
     4   1     0.47  -0.27  -0.19     0.57  -0.34  -0.23    -0.34   0.18   0.14
     5   1    -0.47  -0.27  -0.19     0.57   0.34   0.23     0.34   0.18   0.14
     6   8     0.00  -0.00  -0.01    -0.00  -0.00   0.00     0.00  -0.00  -0.00

 -------------------
 - Thermochemistry -
 -------------------
 Temperature   298.150 Kelvin.  Pressure   1.00000 Atm.
 Atom     1 has atomic number  6 and mass  12.00000
 Atom     2 has atomic number  6 and mass  12.00000
 Atom     3 has atomic number  1 and mass   1.00783
 Atom     4 has atomic number  1 and mass   1.00783
 Atom     5 has atomic number  1 and mass   1.00783
 Atom     6 has atomic number  8 and mass  15.99491
 Molecular mass:    43.01839 amu.
 Principal axes and moments of inertia in atomic units:
                           1         2         3
     Eigenvalues --    11.67578 195.48710 195.48710
           X            0.00000   0.19230   0.98134
           Y            0.00000   0.98134  -0.19230
           Z            1.00000  -0.00000  -0.00000
 This molecule is a prolate symmetric top.
 Rotational symmetry number  3.
 Rotational temperatures (Kelvin)      7.41825     0.44307     0.44307
 Rotational constants (GHZ):         154.57140     9.23202     9.23202
 Zero-point vibrational energy     116683.5 (Joules/Mol)
                                   27.88802 (Kcal/Mol)
 Warning -- explicit consideration of   2 degrees of freedom as
           vibrations may cause significant error
 Vibrational temperatures:    608.80   608.80  1302.86  1482.18  1482.18
          (Kelvin)           1968.10  2013.91  2013.91  3425.28  4310.11
                             4425.71  4425.71
 
 Zero-point correction=                           0.044442 (Hartree/Particle)
 Thermal correction to Energy=                    0.047992
 Thermal correction to Enthalpy=                  0.048936
 Thermal correction to Gibbs Free Energy=         0.021440
 Sum of electronic and zero-point Energies=           -152.937067
 Sum of electronic and thermal Energies=              -152.933517
 Sum of electronic and thermal Enthalpies=            -152.932573
 Sum of electronic and thermal Free Energies=         -152.960069
 
                     E (Thermal)             CV                S
                      KCal/Mol        Cal/Mol-Kelvin    Cal/Mol-Kelvin
 Total                   30.115             10.318             57.870
 Electronic               0.000              0.000              0.000
 Translational            0.889              2.981             37.204
 Rotational               0.889              2.981             18.545
 Vibrational             28.338              4.356              2.122
 Vibration     1          0.785              1.420              0.881
 Vibration     2          0.785              1.420              0.881
                       Q            Log10(Q)             Ln(Q)
 Total Bot       0.137502D-09         -9.861693        -22.707386
 Total V=0       0.380492D+11         10.580345         24.362145
 Vib (Bot)       0.491909D-20        -20.308115        -46.761163
 Vib (Bot)    1  0.413972D+00         -0.383029         -0.881956
 Vib (Bot)    2  0.413969D+00         -0.383032         -0.881964
 Vib (V=0)       0.136120D+01          0.133923          0.308368
 Vib (V=0)    1  0.114913D+01          0.060370          0.139007
 Vib (V=0)    2  0.114913D+01          0.060369          0.139006
 Electronic      0.100000D+01          0.000000          0.000000
 Translational   0.110901D+08          7.044936         16.221566
 Rotational      0.252050D+04          3.401486          7.832211
 
                                                              b3lyp opt
                                                             IR Spectrum
 
      3  2                        2                                        11             1                                          
      0  9                        3                                        43             0    9                   4                 
      7  9                        8                                        06             3    0                   2                 
      6  6                        1                                        08             0    6                   3                 
 
      X  X                        X                                        XX             X    X                   X                 
      X  X                        X                                        XX             X                                          
      X  X                        X                                        XX             X                                          
      X  X                        X                                        XX             X                                          
      X  X                        X                                                                                                  
      X  X                        X                                                                                                  
      X  X                        X                                                                                                  
      X  X                        X                                                                                                  
      X                           X                                                                                                  
      X                           X                                                                                                  
      X                           X                                                                                                  
                                  X                                                                                                  
                                  X                                                                                                  
                                  X                                                                                                  
                                  X                                                                                                  
                                  X                                                                                                  
                                  X                                                                                                  
                                  X                                                                                                  
                                  X                                                                                                  
                                  X                                                                                                  
 
 ***** Axes restored to original set *****
 -------------------------------------------------------------------
 Center     Atomic                   Forces (Hartrees/Bohr)
 Number     Number              X              Y              Z
 -------------------------------------------------------------------
      1        6           0.000078639   -0.000028656   -0.000019761
      2        6          -0.000096164    0.000035041    0.000024165
      3        1          -0.000003827    0.000007643    0.000007092
      4        1          -0.000009141   -0.000004840    0.000004048
      5        1          -0.000008089    0.000004870   -0.000005849
      6        8           0.000038582   -0.000014059   -0.000009695
 -------------------------------------------------------------------
 Cartesian Forces:  Max     0.000096164 RMS     0.000033834
 Z-matrix is all fixed cartesians, so copy forces.
 Force constants in Cartesian coordinates: 
                1             2             3             4             5 
      1  0.466053D+00
      2  0.214436D-01  0.517088D+00
      3  0.147875D-01 -0.538749D-02  0.521186D+00
      4 -0.198154D+00  0.415041D-01  0.286222D-01  0.140267D+01
      5  0.415013D-01 -0.993850D-01 -0.104291D-01 -0.458708D+00  0.310982D+00
      6  0.286195D-01 -0.104288D-01 -0.914537D-01 -0.316326D+00  0.115266D+00
      7 -0.155470D+00 -0.864009D-01 -0.974996D-01 -0.369948D-01 -0.135613D-01
      8 -0.859128D-01 -0.104045D+00 -0.762786D-01  0.650559D-02  0.689684D-02
      9 -0.970207D-01 -0.763305D-01 -0.120790D+00  0.313493D-02  0.116235D-01
     10 -0.410616D-01  0.845741D-02 -0.129105D-04 -0.721196D-02  0.400235D-01
     11  0.782037D-02 -0.292406D+00  0.524615D-01  0.137828D-01 -0.144904D-01
     12  0.123791D-03  0.522511D-01 -0.468363D-01 -0.269277D-02 -0.114527D-01
     13 -0.468080D-01 -0.505079D-02  0.402790D-01 -0.138709D-01 -0.628559D-02
     14 -0.490070D-02 -0.444052D-01  0.446719D-01 -0.113066D-03 -0.246523D-02
     15  0.396646D-01  0.449340D-01 -0.289090D+00  0.134705D-01 -0.524045D-02
     16 -0.245597D-01  0.200470D-01  0.138243D-01 -0.114644D+01  0.397030D+00
     17  0.200476D-01  0.231516D-01 -0.503781D-02  0.397030D+00 -0.201539D+00
     18  0.138249D-01 -0.503787D-02  0.269828D-01  0.273793D+00 -0.997673D-01
                6             7             8             9            10 
      6  0.223322D+00
      7 -0.165525D-01  0.177238D+00
      8  0.137549D-01  0.929572D-01  0.110032D+00
      9  0.531784D-02  0.105949D+00  0.801744D-01  0.128288D+00
     10 -0.831630D-02  0.339124D-02 -0.202653D-01  0.523572D-02  0.472231D-01
     11 -0.281016D-02  0.890382D-03 -0.114355D-01  0.274581D-02 -0.154298D-01
     12 -0.307734D-02  0.253430D-02 -0.157204D-01  0.267960D-02  0.392932D-03
     13  0.387827D-01  0.621422D-02  0.426430D-02 -0.200856D-01  0.355903D-03
     14 -0.160146D-01  0.384679D-02  0.159535D-02 -0.134830D-01 -0.663552D-02
     15 -0.844362D-02  0.296182D-02  0.278049D-02 -0.131742D-01 -0.172220D-03
     16  0.273793D+00  0.562080D-02  0.245087D-02  0.278664D-02 -0.269648D-02
     17 -0.997673D-01  0.226776D-02 -0.304343D-02 -0.473004D-02 -0.615040D-02
     18 -0.125665D+00  0.260699D-02 -0.471059D-02 -0.232134D-02  0.287271D-02
               11            12            13            14            15 
     11  0.318320D+00
     12 -0.549131D-01  0.500156D-01
     13 -0.674143D-03 -0.328230D-02  0.548308D-01
     14 -0.230015D-02  0.278712D-01  0.504303D-02  0.474501D-01
     15  0.473185D-03 -0.342040D-02 -0.494010D-01 -0.460101D-01  0.313278D+00
     16 -0.638970D-02  0.292402D-02 -0.721813D-03  0.275949D-02 -0.652387D-02
     17  0.231288D-02  0.196373D-02  0.270317D-02  0.125753D-03  0.306277D-02
     18  0.204263D-02  0.639345D-03 -0.629304D-02  0.296443D-02  0.851802D-03
               16            17            18 
     16  0.116879D+01
     17 -0.415898D+00  0.178993D+00
     18 -0.286804D+00  0.104509D+00  0.995128D-01
 Leave Link  716 at Fri Mar  1 08:57:06 2019, MaxMem=    33554432 cpu:         0.2
 (Enter /home/proyectos/fulerenos/M3C-v2.0/M3C-deps_CCC/g09-AM64L-G09RevC.01/l103.exe)

 GradGradGradGradGradGradGradGradGradGradGradGradGradGradGradGradGradGrad
 Berny optimization.
 Search for a local minimum.
 Step number   1 out of a maximum of    2
 All quantities printed in internal units (Hartrees-Bohrs-Radians)
 Second derivative matrix not updated -- analytic derivatives used.
 The second derivative matrix:
                          X1        Y1        Z1        X2        Y2
           X1           0.46605
           Y1           0.02144   0.51709
           Z1           0.01479  -0.00539   0.52119
           X2          -0.19815   0.04150   0.02862   1.40267
           Y2           0.04150  -0.09939  -0.01043  -0.45871   0.31098
           Z2           0.02862  -0.01043  -0.09145  -0.31633   0.11527
           X3          -0.15547  -0.08640  -0.09750  -0.03699  -0.01356
           Y3          -0.08591  -0.10405  -0.07628   0.00651   0.00690
           Z3          -0.09702  -0.07633  -0.12079   0.00313   0.01162
           X4          -0.04106   0.00846  -0.00001  -0.00721   0.04002
           Y4           0.00782  -0.29241   0.05246   0.01378  -0.01449
           Z4           0.00012   0.05225  -0.04684  -0.00269  -0.01145
           X5          -0.04681  -0.00505   0.04028  -0.01387  -0.00629
           Y5          -0.00490  -0.04441   0.04467  -0.00011  -0.00247
           Z5           0.03966   0.04493  -0.28909   0.01347  -0.00524
           X6          -0.02456   0.02005   0.01382  -1.14644   0.39703
           Y6           0.02005   0.02315  -0.00504   0.39703  -0.20154
           Z6           0.01382  -0.00504   0.02698   0.27379  -0.09977
                          Z2        X3        Y3        Z3        X4
           Z2           0.22332
           X3          -0.01655   0.17724
           Y3           0.01375   0.09296   0.11003
           Z3           0.00532   0.10595   0.08017   0.12829
           X4          -0.00832   0.00339  -0.02027   0.00524   0.04722
           Y4          -0.00281   0.00089  -0.01144   0.00275  -0.01543
           Z4          -0.00308   0.00253  -0.01572   0.00268   0.00039
           X5           0.03878   0.00621   0.00426  -0.02009   0.00036
           Y5          -0.01601   0.00385   0.00160  -0.01348  -0.00664
           Z5          -0.00844   0.00296   0.00278  -0.01317  -0.00017
           X6           0.27379   0.00562   0.00245   0.00279  -0.00270
           Y6          -0.09977   0.00227  -0.00304  -0.00473  -0.00615
           Z6          -0.12567   0.00261  -0.00471  -0.00232   0.00287
                          Y4        Z4        X5        Y5        Z5
           Y4           0.31832
           Z4          -0.05491   0.05002
           X5          -0.00067  -0.00328   0.05483
           Y5          -0.00230   0.02787   0.00504   0.04745
           Z5           0.00047  -0.00342  -0.04940  -0.04601   0.31328
           X6          -0.00639   0.00292  -0.00072   0.00276  -0.00652
           Y6           0.00231   0.00196   0.00270   0.00013   0.00306
           Z6           0.00204   0.00064  -0.00629   0.00296   0.00085
                          X6        Y6        Z6
           X6           1.16879
           Y6          -0.41590   0.17899
           Z6          -0.28680   0.10451   0.09951
 ITU=  0
     Eigenvalues ---    0.02451   0.02451   0.08693   0.08693   0.09004
     Eigenvalues ---    0.20200   0.20200   0.27688   0.60479   0.71625
     Eigenvalues ---    0.71626   2.88843
 Angle between quadratic step and forces=  48.37 degrees.
 ClnCor:  largest displacement from symmetrization is 7.63D-09 for atom     5.
 Linear search not attempted -- first point.
 ClnCor:  largest displacement from symmetrization is 3.14D-15 for atom     3.
 B after Tr=     0.000012   -0.000005   -0.000003
         Rot=    1.000000   -0.000000    0.000000    0.000000 Ang=   0.00 deg.
 Variable       Old X    -DE/DX   Delta X   Delta X   Delta X     New X
                                 (Linear)    (Quad)   (Total)
    X1        1.50998   0.00008   0.00000   0.00016   0.00017   1.51015
    Y1       -1.36198  -0.00003   0.00000  -0.00006  -0.00006  -1.36204
    Z1       -0.10852  -0.00002   0.00000  -0.00004  -0.00004  -0.10856
    X2       -0.95168  -0.00010   0.00000  -0.00006  -0.00005  -0.95174
    Y2       -0.46497   0.00004   0.00000   0.00002   0.00002  -0.46495
    Z2        0.51006   0.00002   0.00000   0.00002   0.00001   0.51008
    X3        2.88965  -0.00000   0.00000  -0.00001  -0.00000   2.88965
    Y3       -0.33508   0.00001   0.00000   0.00007   0.00006  -0.33502
    Z3        1.04551   0.00001   0.00000   0.00006   0.00006   1.04557
    X4        1.58889  -0.00001   0.00000  -0.00007  -0.00005   1.58883
    Y4       -3.39087  -0.00000   0.00000  -0.00006  -0.00006  -3.39093
    Z4        0.30031   0.00000   0.00000   0.00003   0.00003   0.30034
    X5        1.84621  -0.00001   0.00000  -0.00006  -0.00004   1.84617
    Y5       -1.01400   0.00000   0.00000   0.00004   0.00003  -1.01396
    Z5       -2.12237  -0.00001   0.00000  -0.00006  -0.00007  -2.12244
    X6       -2.87327   0.00004   0.00000  -0.00003  -0.00002  -2.87329
    Y6        0.23524  -0.00001   0.00000   0.00001   0.00001   0.23525
    Z6        0.99293  -0.00001   0.00000   0.00001   0.00000   0.99294
         Item               Value     Threshold  Converged?
 Maximum Force            0.000096     0.000450     YES
 RMS     Force            0.000034     0.000300     YES
 Maximum Displacement     0.000169     0.001800     YES
 RMS     Displacement     0.000058     0.001200     YES
 Predicted change in Energy=-1.183147D-08
 Optimization completed.
    -- Stationary point found.
 GradGradGradGradGradGradGradGradGradGradGradGradGradGradGradGradGradGrad

 Leave Link  103 at Fri Mar  1 08:57:06 2019, MaxMem=    33554432 cpu:         0.1
 (Enter /home/proyectos/fulerenos/M3C-v2.0/M3C-deps_CCC/g09-AM64L-G09RevC.01/l9999.exe)

 Test job not archived.
 1\1\GINC-BOHRIO\Freq\RB3LYP\6-311++G(3df,2p)\C2H3O1(1+)\ROOT\01-Mar-20
 19\0\\#p b3lyp/6-311++G(3df,2p) freq IOp(2/17=3) IOp(2/18=3)\\b3lyp op
 t\\1,1\C,0.799047123,-0.7207273114,-0.0574241381\C,-0.503609556,-0.246
 0508074,0.2699142293\H,1.5291347404,-0.1773171614,0.5532580296\H,0.840
 8030212,-1.7943698307,0.1589168331\H,0.9769747435,-0.5365830939,-1.123
 1107239\O,-1.5204702667,0.1244841886,0.5254362945\\Version=EM64L-G09Re
 vE.01\State=1-A1\HF=-152.981509\RMSD=3.036e-09\RMSF=3.383e-05\ZeroPoin
 t=0.0444424\Thermal=0.0479919\Dipole=1.0323542,-0.3761807,-0.2594154\D
 ipoleDeriv=-0.397029,0.1035308,0.0713959,0.1035444,-0.1506536,-0.02602
 6,0.0714093,-0.0260274,-0.1308665,1.4343074,-0.3213497,-0.2216045,-0.3
 213607,0.6695225,0.0807412,-0.2216153,0.0807423,0.6081104,0.2374042,0.
 0225252,0.0280282,0.0815801,0.1508738,-0.0214649,0.0859665,-0.0277375,
 0.1635025,0.1248675,-0.0191085,0.0227746,-0.0963359,0.256206,0.0157432
 ,0.0393263,-0.009697,0.1707052,0.1454516,0.0232775,-0.032394,0.0414454
 ,0.1641772,-0.0009792,-0.1068885,0.030734,0.2421499,-0.5450044,0.19112
 85,0.1318021,0.191135,-0.0901235,-0.0480222,0.1318085,-0.0480229,-0.05
 35977\Polar=28.8001454,-4.1265867,18.9792562,-2.8457087,1.0369603,18.1
 906482\PG=C03V [C3(C1C1O1),3SGV(H1)]\NImag=0\\0.46605253,0.02144362,0.
 51708804,0.01478752,-0.00538749,0.52118595,-0.19815386,0.04150415,0.02
 862224,1.40266892,0.04150131,-0.09938504,-0.01042908,-0.45870792,0.310
 98246,0.02861946,-0.01042878,-0.09145366,-0.31632631,0.11526567,0.2233
 2155,-0.15546992,-0.08640094,-0.09749957,-0.03699481,-0.01356129,-0.01
 655253,0.17723830,-0.08591285,-0.10404545,-0.07627862,0.00650559,0.006
 89684,0.01375492,0.09295724,0.11003227,-0.09702070,-0.07633047,-0.1207
 9025,0.00313493,0.01162350,0.00531784,0.10594892,0.08017441,0.12828843
 ,-0.04106158,0.00845741,-0.00001291,-0.00721196,0.04002350,-0.00831630
 ,0.00339124,-0.02026529,0.00523572,0.04722307,0.00782037,-0.29240571,0
 .05246148,0.01378282,-0.01449042,-0.00281016,0.00089038,-0.01143547,0.
 00274581,-0.01542984,0.31832030,0.00012379,0.05225107,-0.04683629,-0.0
 0269277,-0.01145272,-0.00307734,0.00253430,-0.01572043,0.00267960,0.00
 039293,-0.05491305,0.05001561,-0.04680802,-0.00505079,0.04027902,-0.01
 387088,-0.00628559,0.03878271,0.00621422,0.00426430,-0.02008565,0.0003
 5590,-0.00067414,-0.00328230,0.05483082,-0.00490070,-0.04440525,0.0446
 7189,-0.00011307,-0.00246523,-0.01601457,0.00384679,0.00159535,-0.0134
 8303,-0.00663552,-0.00230015,0.02787120,0.00504303,0.04745005,0.039664
 58,0.04493402,-0.28909030,0.01347046,-0.00524045,-0.00844362,0.0029618
 2,0.00278049,-0.01317421,-0.00017222,0.00047319,-0.00342040,-0.0494010
 3,-0.04601009,0.31327812,-0.02455969,0.02004703,0.01382434,-1.14643729
 ,0.39702983,0.27379285,0.00562080,0.00245087,0.00278664,-0.00269648,-0
 .00638970,0.00292402,-0.00072181,0.00275949,-0.00652387,1.16879464,0.0
 2004758,0.02315163,-0.00503781,0.39702954,-0.20153913,-0.09976732,0.00
 226776,-0.00304343,-0.00473004,-0.00615040,0.00231288,0.00196373,0.002
 70317,0.00012575,0.00306277,-0.41589773,0.17899252,0.01382487,-0.00503
 787,0.02698275,0.27379256,-0.09976729,-0.12566518,0.00260699,-0.004710
 59,-0.00232134,0.00287271,0.00204263,0.00063934,-0.00629304,0.00296443
 ,0.00085180,-0.28680420,0.10450862,0.09951281\\-0.00007864,0.00002866,
 0.00001976,0.00009616,-0.00003504,-0.00002416,0.00000383,-0.00000764,-
 0.00000709,0.00000914,0.00000484,-0.00000405,0.00000809,-0.00000487,0.
 00000585,-0.00003858,0.00001406,0.00000970\\\@


 "WOULD YOU TELL ME PLEASE, WHICH WAY I OUGHT TO WALK FROM HERE?"
 "THAT DEPENDS A GREAT DEAL ON WHERE YOU WANT TO GO," SAID THE CAT.
 "I DON'T MUCH CARE WHERE -- ", SAID ALICE.
 "THEN IT DOESN'T MATTER WHICH WAY YOU WALK," SAID THE CAT.

                                      -- LEWIS CARROLL
 Job cpu time:       0 days  0 hours  5 minutes 38.9 seconds.
 File lengths (MBytes):  RWF=     14 Int=      0 D2E=      0 Chk=      2 Scr=      1
 Normal termination of Gaussian 09 at Fri Mar  1 08:57:06 2019.
