 Entering Gaussian System, Link 0=/home/proyectos/fulerenos/M3C-v2.0/M3C-deps_CCC/g09-AM64L-G09RevC.01/g09
 Initial command:
 /home/proyectos/fulerenos/M3C-v2.0/M3C-deps_CCC/g09-AM64L-G09RevC.01/l1.exe "/scratch/naguirre/gaussian/Gau-29286.inp" -scrdir="/scratch/naguirre/gaussian/"
 Entering Link 1 = /home/proyectos/fulerenos/M3C-v2.0/M3C-deps_CCC/g09-AM64L-G09RevC.01/l1.exe PID=     29294.
  
 Copyright (c) 1988,1990,1992,1993,1995,1998,2003,2009,2015,
            Gaussian, Inc.  All Rights Reserved.
  
 This is part of the Gaussian(R) 09 program.  It is based on
 the Gaussian(R) 03 system (copyright 2003, Gaussian, Inc.),
 the Gaussian(R) 98 system (copyright 1998, Gaussian, Inc.),
 the Gaussian(R) 94 system (copyright 1995, Gaussian, Inc.),
 the Gaussian 92(TM) system (copyright 1992, Gaussian, Inc.),
 the Gaussian 90(TM) system (copyright 1990, Gaussian, Inc.),
 the Gaussian 88(TM) system (copyright 1988, Gaussian, Inc.),
 the Gaussian 86(TM) system (copyright 1986, Carnegie Mellon
 University), and the Gaussian 82(TM) system (copyright 1983,
 Carnegie Mellon University). Gaussian is a federally registered
 trademark of Gaussian, Inc.
  
 This software contains proprietary and confidential information,
 including trade secrets, belonging to Gaussian, Inc.
  
 This software is provided under written license and may be
 used, copied, transmitted, or stored only in accord with that
 written license.
  
 The following legend is applicable only to US Government
 contracts under FAR:
  
                    RESTRICTED RIGHTS LEGEND
  
 Use, reproduction and disclosure by the US Government is
 subject to restrictions as set forth in subparagraphs (a)
 and (c) of the Commercial Computer Software - Restricted
 Rights clause in FAR 52.227-19.
  
 Gaussian, Inc.
 340 Quinnipiac St., Bldg. 40, Wallingford CT 06492
  
  
 ---------------------------------------------------------------
 Warning -- This program may not be used in any manner that
 competes with the business of Gaussian, Inc. or will provide
 assistance to any competitor of Gaussian, Inc.  The licensee
 of this program is prohibited from giving any competitor of
 Gaussian, Inc. access to this program.  By using this program,
 the user acknowledges that Gaussian, Inc. is engaged in the
 business of creating and licensing software in the field of
 computational chemistry and represents and warrants to the
 licensee that it is not a competitor of Gaussian, Inc. and that
 it will not use this program in any manner prohibited above.
 ---------------------------------------------------------------
  

 Cite this work as:
 Gaussian 09, Revision E.01,
 M. J. Frisch, G. W. Trucks, H. B. Schlegel, G. E. Scuseria, 
 M. A. Robb, J. R. Cheeseman, G. Scalmani, V. Barone, B. Mennucci, 
 G. A. Petersson, H. Nakatsuji, M. Caricato, X. Li, H. P. Hratchian, 
 A. F. Izmaylov, J. Bloino, G. Zheng, J. L. Sonnenberg, M. Hada, 
 M. Ehara, K. Toyota, R. Fukuda, J. Hasegawa, M. Ishida, T. Nakajima, 
 Y. Honda, O. Kitao, H. Nakai, T. Vreven, J. A. Montgomery, Jr., 
 J. E. Peralta, F. Ogliaro, M. Bearpark, J. J. Heyd, E. Brothers, 
 K. N. Kudin, V. N. Staroverov, T. Keith, R. Kobayashi, J. Normand, 
 K. Raghavachari, A. Rendell, J. C. Burant, S. S. Iyengar, J. Tomasi, 
 M. Cossi, N. Rega, J. M. Millam, M. Klene, J. E. Knox, J. B. Cross, 
 V. Bakken, C. Adamo, J. Jaramillo, R. Gomperts, R. E. Stratmann, 
 O. Yazyev, A. J. Austin, R. Cammi, C. Pomelli, J. W. Ochterski, 
 R. L. Martin, K. Morokuma, V. G. Zakrzewski, G. A. Voth, 
 P. Salvador, J. J. Dannenberg, S. Dapprich, A. D. Daniels, 
 O. Farkas, J. B. Foresman, J. V. Ortiz, J. Cioslowski, 
 and D. J. Fox, Gaussian, Inc., Wallingford CT, 2013.
 
 ******************************************
 Gaussian 09:  EM64L-G09RevE.01 30-Nov-2015
                 1-Mar-2019 
 ******************************************
 %NProcShared=4
 Will use up to    4 processors via shared memory.
 ------------------------------------------------------
 #p b3lyp/6-311++G(3df,2p) freq IOp(2/17=3) IOp(2/18=3)
 ------------------------------------------------------
 1/10=4,30=1,38=1/1,3;
 2/12=2,17=3,18=3,40=1/2;
 3/5=4,6=6,7=1216,11=2,16=1,25=1,30=1,71=2,74=-5,140=1/1,2,3;
 4//1;
 5/5=2,38=5,98=1/2;
 8/6=4,10=90,11=11/1;
 11/6=1,8=1,9=11,15=111,16=1/1,2,10;
 10/6=1/2;
 6/7=2,8=2,9=2,10=2,18=1,28=1/1;
 7/8=1,10=1,25=1/1,2,3,16;
 1/10=4,30=1/3;
 99//99;
 Leave Link    1 at Fri Mar  1 09:13:38 2019, MaxMem=           0 cpu:         0.2
 (Enter /home/proyectos/fulerenos/M3C-v2.0/M3C-deps_CCC/g09-AM64L-G09RevC.01/l101.exe)
 ---------
 b3lyp opt
 ---------
 Symbolic Z-matrix:
 Charge =  1 Multiplicity = 3
 C                     0.10034  -0.27906   0.68038 
 H                     0.32283   0.56356  -1.07926 
 H                     0.44192  -1.32372   0.93141 
 H                     0.08502   0.28478   1.65651 
 O                     0.81053   0.30102  -0.25689 
 
 NAtoms=      5 NQM=        5 NQMF=       0 NMMI=      0 NMMIF=      0
                NMic=       0 NMicF=      0.
                    Isotopes and Nuclear Properties:
 (Nuclear quadrupole moments (NQMom) in fm**2, nuclear magnetic moments (NMagM)
  in nuclear magnetons)

  Atom         1           2           3           4           5
 IAtWgt=          12           1           1           1          16
 AtmWgt=  12.0000000   1.0078250   1.0078250   1.0078250  15.9949146
 NucSpn=           0           1           1           1           0
 AtZEff=   0.0000000   0.0000000   0.0000000   0.0000000   0.0000000
 NQMom=    0.0000000   0.0000000   0.0000000   0.0000000   0.0000000
 NMagM=    0.0000000   2.7928460   2.7928460   2.7928460   0.0000000
 AtZNuc=   6.0000000   1.0000000   1.0000000   1.0000000   8.0000000
 Leave Link  101 at Fri Mar  1 09:13:38 2019, MaxMem=    33554432 cpu:         0.3
 (Enter /home/proyectos/fulerenos/M3C-v2.0/M3C-deps_CCC/g09-AM64L-G09RevC.01/l103.exe)

 GradGradGradGradGradGradGradGradGradGradGradGradGradGradGradGradGradGrad
 Berny optimization.
 Initialization pass.
 Trust Radius=3.00D-01 FncErr=1.00D-07 GrdErr=1.00D-07
 Number of steps in this run=      2 maximum allowed number of steps=      2.
 GradGradGradGradGradGradGradGradGradGradGradGradGradGradGradGradGradGrad

 Leave Link  103 at Fri Mar  1 09:13:38 2019, MaxMem=    33554432 cpu:         0.1
 (Enter /home/proyectos/fulerenos/M3C-v2.0/M3C-deps_CCC/g09-AM64L-G09RevC.01/l202.exe)
                          Input orientation:                          
 ---------------------------------------------------------------------
 Center     Atomic      Atomic             Coordinates (Angstroms)
 Number     Number       Type             X           Y           Z
 ---------------------------------------------------------------------
      1          6           0        0.100341   -0.279063    0.680377
      2          1           0        0.322825    0.563561   -1.079256
      3          1           0        0.441922   -1.323715    0.931405
      4          1           0        0.085016    0.284780    1.656514
      5          8           0        0.810531    0.301019   -0.256891
 ---------------------------------------------------------------------
                    Distance matrix (angstroms):
                    1          2          3          4          5
     1  C    0.000000
     2  H    1.963625   0.000000
     3  H    1.127382   2.760209   0.000000
     4  H    1.127385   2.760201   1.800117   0.000000
     5  O    1.311235   0.991499   2.046382   2.046400   0.000000
 Stoichiometry    CH3O(1+,3)
 Framework group  CS[SG(CHO),X(H2)]
 Deg. of freedom     6
 Full point group                 CS      NOp   2
 Largest Abelian subgroup         CS      NOp   2
 Largest concise Abelian subgroup CS      NOp   2
                         Standard orientation:                         
 ---------------------------------------------------------------------
 Center     Atomic      Atomic             Coordinates (Angstroms)
 Number     Number       Type             X           Y           Z
 ---------------------------------------------------------------------
      1          6           0       -0.006836   -0.666339   -0.000000
      2          1           0       -0.895446    1.084717    0.000000
      3          1           0        0.495542   -1.122925   -0.900068
      4          1           0        0.495542   -1.122925    0.900068
      5          8           0       -0.006836    0.644896    0.000000
 ---------------------------------------------------------------------
 Rotational constants (GHZ):    191.9692626     29.7820735     28.7106720
 Leave Link  202 at Fri Mar  1 09:13:38 2019, MaxMem=    33554432 cpu:         0.0
 (Enter /home/proyectos/fulerenos/M3C-v2.0/M3C-deps_CCC/g09-AM64L-G09RevC.01/l301.exe)
 Standard basis: 6-311++G(3df,2p) (5D, 7F)
 Ernie: Thresh=  0.10000D-02 Tol=  0.10000D-05 Strict=F.
 There are    80 symmetry adapted cartesian basis functions of A'  symmetry.
 There are    40 symmetry adapted cartesian basis functions of A"  symmetry.
 There are    70 symmetry adapted basis functions of A'  symmetry.
 There are    38 symmetry adapted basis functions of A"  symmetry.
   108 basis functions,   152 primitive gaussians,   120 cartesian basis functions
     9 alpha electrons        7 beta electrons
       nuclear repulsion energy        35.7056135071 Hartrees.
 IExCor=  402 DFT=T Ex+Corr=B3LYP ExCW=0 ScaHFX=  0.200000
 ScaDFX=  0.800000  0.720000  1.000000  0.810000 ScalE2=  1.000000  1.000000
 IRadAn=      0 IRanWt=     -1 IRanGd=            0 ICorTp=0 IEmpDi=  4
 NAtoms=    5 NActive=    5 NUniq=    4 SFac= 1.56D+00 NAtFMM=   60 NAOKFM=F Big=F
 Integral buffers will be    131072 words long.
 Raffenetti 2 integral format.
 Two-electron integral symmetry is turned on.
 Leave Link  301 at Fri Mar  1 09:13:38 2019, MaxMem=    33554432 cpu:         0.3
 (Enter /home/proyectos/fulerenos/M3C-v2.0/M3C-deps_CCC/g09-AM64L-G09RevC.01/l302.exe)
 NPDir=0 NMtPBC=     1 NCelOv=     1 NCel=       1 NClECP=     1 NCelD=      1
         NCelK=      1 NCelE2=     1 NClLst=     1 CellRange=     0.0.
 One-electron integrals computed using PRISM.
 One-electron integral symmetry used in STVInt
 NBasis=   108 RedAO= T EigKep=  8.15D-04  NBF=    70    38
 NBsUse=   108 1.00D-06 EigRej= -1.00D+00 NBFU=    70    38
 Precomputing XC quadrature grid using
 IXCGrd= 4 IRadAn=           0 IRanWt=          -1 IRanGd=           0 AccXCQ= 0.00D+00.
 Generated NRdTot=       0 NPtTot=           0 NUsed=           0 NTot=          32
 NSgBfM=   120   120   120   120   120 MxSgAt=     5 MxSgA2=     5.
 Leave Link  302 at Fri Mar  1 09:13:39 2019, MaxMem=    33554432 cpu:         1.3
 (Enter /home/proyectos/fulerenos/M3C-v2.0/M3C-deps_CCC/g09-AM64L-G09RevC.01/l303.exe)
 DipDrv:  MaxL=1.
 Leave Link  303 at Fri Mar  1 09:13:39 2019, MaxMem=    33554432 cpu:         0.1
 (Enter /home/proyectos/fulerenos/M3C-v2.0/M3C-deps_CCC/g09-AM64L-G09RevC.01/l401.exe)
 ExpMin= 3.60D-02 ExpMax= 8.59D+03 ExpMxC= 1.30D+03 IAcc=3 IRadAn=         5 AccDes= 0.00D+00
 Harris functional with IExCor=  402 and IRadAn=       5 diagonalized for initial guess.
 HarFok:  IExCor=  402 AccDes= 0.00D+00 IRadAn=         5 IDoV= 1 UseB2=F ITyADJ=14
 ICtDFT=  3500011 ScaDFX=  1.000000  1.000000  1.000000  1.000000
 FoFCou: FMM=F IPFlag=           0 FMFlag=      100000 FMFlg1=           0
         NFxFlg=           0 DoJE=T BraDBF=F KetDBF=T FulRan=T
         wScrn=  0.000000 ICntrl=     500 IOpCl=  0 I1Cent=   200000004 NGrid=           0
         NMat0=    1 NMatS0=      1 NMatT0=    0 NMatD0=    1 NMtDS0=    0 NMtDT0=    0
 Petite list used in FoFCou.
 Harris En= -114.734059974530    
 JPrj=0 DoOrth=F DoCkMO=F.
 Initial guess orbital symmetries:
 Alpha Orbitals:
       Occupied  (A') (A') (A') (A') (A') (A") (A') (A") (A')
       Virtual   (A') (A') (A") (A') (A') (A") (A') (A') (A') (A")
                 (A') (A') (A") (A') (A') (A") (A') (A") (A') (A')
                 (A') (A') (A") (A') (A") (A') (A') (A') (A") (A")
                 (A") (A') (A') (A") (A') (A') (A') (A") (A") (A')
                 (A") (A') (A') (A') (A') (A") (A') (A') (A") (A')
                 (A') (A") (A') (A") (A') (A") (A') (A') (A") (A')
                 (A') (A") (A') (A") (A') (A') (A") (A") (A') (A')
                 (A') (A") (A") (A') (A') (A') (A") (A") (A') (A')
                 (A") (A') (A") (A") (A') (A') (A') (A') (A") (A')
                 (A') (A") (A") (A') (A") (A') (A') (A') (A')
 Beta  Orbitals:
       Occupied  (A') (A') (A') (A') (A') (A") (A')
       Virtual   (A") (A') (A') (A') (A") (A') (A') (A") (A') (A')
                 (A') (A") (A') (A') (A") (A') (A') (A") (A') (A")
                 (A') (A') (A') (A') (A") (A') (A") (A') (A') (A')
                 (A") (A") (A") (A') (A') (A") (A') (A') (A') (A")
                 (A") (A') (A") (A') (A') (A') (A') (A") (A') (A')
                 (A") (A') (A') (A") (A') (A") (A') (A") (A') (A')
                 (A") (A') (A') (A") (A') (A") (A') (A') (A") (A")
                 (A') (A') (A') (A") (A") (A') (A') (A') (A") (A")
                 (A') (A') (A") (A') (A") (A") (A') (A') (A') (A')
                 (A") (A') (A') (A") (A") (A') (A") (A') (A') (A')
                 (A')
 The electronic state of the initial guess is 3-A".
 Initial guess <Sx>= 0.0000 <Sy>= 0.0000 <Sz>= 1.0000 <S**2>= 2.0000 S= 1.0000
 Leave Link  401 at Fri Mar  1 09:13:39 2019, MaxMem=    33554432 cpu:         2.1
 (Enter /home/proyectos/fulerenos/M3C-v2.0/M3C-deps_CCC/g09-AM64L-G09RevC.01/l502.exe)
 UHF open shell SCF:
 Using DIIS extrapolation, IDIIS=  1040.
 Integral symmetry usage will be decided dynamically.
 Keep R1 and R2 ints in memory in symmetry-blocked form, NReq=26309499.
 IVT=       63492 IEndB=       63492 NGot=    33554432 MDV=    15989323
 LenX=    15989323 LenY=    15974482
 Requested convergence on RMS density matrix=1.00D-08 within 128 cycles.
 Requested convergence on MAX density matrix=1.00D-06.
 Requested convergence on             energy=1.00D-06.
 No special actions if energy rises.
 FoFCou: FMM=F IPFlag=           0 FMFlag=           0 FMFlg1=           0
         NFxFlg=           0 DoJE=F BraDBF=F KetDBF=F FulRan=T
         wScrn=  0.000000 ICntrl=     600 IOpCl=  0 I1Cent=           0 NGrid=           0
         NMat0=    1 NMatS0=   5886 NMatT0=    0 NMatD0=    1 NMtDS0=    0 NMtDT0=    0
 Petite list used in FoFCou.

 Cycle   1  Pass 1  IDiag  1:
 E= -114.672177673691    
 DIIS: error= 1.48D-02 at cycle   1 NSaved=   1.
 NSaved= 1 IEnMin= 1 EnMin= -114.672177673691     IErMin= 1 ErrMin= 1.48D-02
 ErrMax= 1.48D-02  0.00D+00 EMaxC= 1.00D-01 BMatC= 7.20D-02 BMatP= 7.20D-02
 IDIUse=3 WtCom= 8.52D-01 WtEn= 1.48D-01
 Coeff-Com:  0.100D+01
 Coeff-En:   0.100D+01
 Coeff:      0.100D+01
 Gap=     0.291 Goal=   None    Shift=    0.000
 Gap=     0.216 Goal=   None    Shift=    0.000
 GapD=    0.216 DampG=1.000 DampE=0.500 DampFc=0.5000 IDamp=-1.
 Damping current iteration by 5.00D-01
 RMSDP=1.61D-03 MaxDP=4.32D-02              OVMax= 1.56D-01

 Cycle   2  Pass 1  IDiag  1:
 E= -114.678725567183     Delta-E=       -0.006547893492 Rises=F Damp=T
 DIIS: error= 8.45D-03 at cycle   2 NSaved=   2.
 NSaved= 2 IEnMin= 2 EnMin= -114.678725567183     IErMin= 2 ErrMin= 8.45D-03
 ErrMax= 8.45D-03  0.00D+00 EMaxC= 1.00D-01 BMatC= 2.21D-02 BMatP= 7.20D-02
 IDIUse=3 WtCom= 9.15D-01 WtEn= 8.45D-02
 Coeff-Com:  0.141D-01 0.986D+00
 Coeff-En:   0.000D+00 0.100D+01
 Coeff:      0.129D-01 0.987D+00
 Gap=     0.313 Goal=   None    Shift=    0.000
 Gap=     0.225 Goal=   None    Shift=    0.000
 RMSDP=8.69D-04 MaxDP=2.39D-02 DE=-6.55D-03 OVMax= 1.45D-01

 Cycle   3  Pass 1  IDiag  1:
 E= -114.684673838458     Delta-E=       -0.005948271276 Rises=F Damp=F
 DIIS: error= 8.01D-03 at cycle   3 NSaved=   3.
 NSaved= 3 IEnMin= 3 EnMin= -114.684673838458     IErMin= 3 ErrMin= 8.01D-03
 ErrMax= 8.01D-03  0.00D+00 EMaxC= 1.00D-01 BMatC= 2.73D-02 BMatP= 2.21D-02
 IDIUse=3 WtCom= 1.01D-01 WtEn= 8.99D-01
 Coeff-Com: -0.276D+00 0.717D+00 0.560D+00
 Coeff-En:   0.000D+00 0.618D-01 0.938D+00
 Coeff:     -0.278D-01 0.128D+00 0.900D+00
 Gap=     0.295 Goal=   None    Shift=    0.000
 Gap=     0.219 Goal=   None    Shift=    0.000
 RMSDP=8.55D-04 MaxDP=2.78D-02 DE=-5.95D-03 OVMax= 1.18D-01

 Cycle   4  Pass 1  IDiag  1:
 E= -114.675286236869     Delta-E=        0.009387601589 Rises=F Damp=F
 DIIS: error= 1.60D-02 at cycle   4 NSaved=   4.
 NSaved= 4 IEnMin= 3 EnMin= -114.684673838458     IErMin= 3 ErrMin= 8.01D-03
 ErrMax= 1.60D-02  0.00D+00 EMaxC= 1.00D-01 BMatC= 7.74D-02 BMatP= 2.21D-02
 IDIUse=2 WtCom= 0.00D+00 WtEn= 1.00D+00
 Coeff-En:   0.000D+00 0.000D+00 0.696D+00 0.304D+00
 Coeff:      0.000D+00 0.000D+00 0.696D+00 0.304D+00
 Gap=     0.305 Goal=   None    Shift=    0.000
 Gap=     0.226 Goal=   None    Shift=    0.000
 RMSDP=4.31D-04 MaxDP=1.56D-02 DE= 9.39D-03 OVMax= 6.84D-02

 Cycle   5  Pass 1  IDiag  1:
 E= -114.688973307011     Delta-E=       -0.013687070142 Rises=F Damp=F
 DIIS: error= 3.12D-03 at cycle   5 NSaved=   5.
 NSaved= 5 IEnMin= 5 EnMin= -114.688973307011     IErMin= 5 ErrMin= 3.12D-03
 ErrMax= 3.12D-03  0.00D+00 EMaxC= 1.00D-01 BMatC= 3.09D-03 BMatP= 2.21D-02
 IDIUse=3 WtCom= 9.69D-01 WtEn= 3.12D-02
 Coeff-Com: -0.149D-01 0.701D-02 0.692D-01-0.189D+00 0.113D+01
 Coeff-En:   0.000D+00 0.000D+00 0.125D+00 0.000D+00 0.875D+00
 Coeff:     -0.144D-01 0.679D-02 0.710D-01-0.183D+00 0.112D+01
 Gap=     0.307 Goal=   None    Shift=    0.000
 Gap=     0.231 Goal=   None    Shift=    0.000
 RMSDP=1.20D-04 MaxDP=4.47D-03 DE=-1.37D-02 OVMax= 1.99D-02

 Cycle   6  Pass 1  IDiag  1:
 E= -114.689549015140     Delta-E=       -0.000575708128 Rises=F Damp=F
 DIIS: error= 2.44D-04 at cycle   6 NSaved=   6.
 NSaved= 6 IEnMin= 6 EnMin= -114.689549015140     IErMin= 6 ErrMin= 2.44D-04
 ErrMax= 2.44D-04  0.00D+00 EMaxC= 1.00D-01 BMatC= 2.23D-05 BMatP= 3.09D-03
 IDIUse=3 WtCom= 9.98D-01 WtEn= 2.44D-03
 Coeff-Com: -0.127D-01 0.242D-01-0.522D-01-0.519D-01 0.125D+00 0.968D+00
 Coeff-En:   0.000D+00 0.000D+00 0.000D+00 0.000D+00 0.000D+00 0.100D+01
 Coeff:     -0.127D-01 0.242D-01-0.521D-01-0.518D-01 0.125D+00 0.968D+00
 Gap=     0.307 Goal=   None    Shift=    0.000
 Gap=     0.231 Goal=   None    Shift=    0.000
 RMSDP=1.41D-05 MaxDP=5.03D-04 DE=-5.76D-04 OVMax= 1.33D-03

 Cycle   7  Pass 1  IDiag  1:
 E= -114.689554239558     Delta-E=       -0.000005224418 Rises=F Damp=F
 DIIS: error= 6.99D-05 at cycle   7 NSaved=   7.
 NSaved= 7 IEnMin= 7 EnMin= -114.689554239558     IErMin= 7 ErrMin= 6.99D-05
 ErrMax= 6.99D-05  0.00D+00 EMaxC= 1.00D-01 BMatC= 1.12D-06 BMatP= 2.23D-05
 IDIUse=1 WtCom= 1.00D+00 WtEn= 0.00D+00
 Coeff-Com: -0.586D-03 0.250D-02-0.148D-01 0.194D-01-0.121D+00 0.167D+00
 Coeff-Com:  0.947D+00
 Coeff:     -0.586D-03 0.250D-02-0.148D-01 0.194D-01-0.121D+00 0.167D+00
 Coeff:      0.947D+00
 Gap=     0.307 Goal=   None    Shift=    0.000
 Gap=     0.231 Goal=   None    Shift=    0.000
 RMSDP=5.27D-06 MaxDP=1.12D-04 DE=-5.22D-06 OVMax= 5.22D-04

 Cycle   8  Pass 1  IDiag  1:
 E= -114.689554620065     Delta-E=       -0.000000380508 Rises=F Damp=F
 DIIS: error= 1.66D-05 at cycle   8 NSaved=   8.
 NSaved= 8 IEnMin= 8 EnMin= -114.689554620065     IErMin= 8 ErrMin= 1.66D-05
 ErrMax= 1.66D-05  0.00D+00 EMaxC= 1.00D-01 BMatC= 1.05D-07 BMatP= 1.12D-06
 IDIUse=1 WtCom= 1.00D+00 WtEn= 0.00D+00
 Coeff-Com: -0.113D-02 0.245D-02 0.255D-02-0.181D-02 0.596D-02-0.121D+00
 Coeff-Com: -0.906D-02 0.112D+01
 Coeff:     -0.113D-02 0.245D-02 0.255D-02-0.181D-02 0.596D-02-0.121D+00
 Coeff:     -0.906D-02 0.112D+01
 Gap=     0.307 Goal=   None    Shift=    0.000
 Gap=     0.231 Goal=   None    Shift=    0.000
 RMSDP=1.93D-06 MaxDP=6.69D-05 DE=-3.81D-07 OVMax= 1.99D-04

 Cycle   9  Pass 1  IDiag  1:
 E= -114.689554657328     Delta-E=       -0.000000037262 Rises=F Damp=F
 DIIS: error= 5.07D-06 at cycle   9 NSaved=   9.
 NSaved= 9 IEnMin= 9 EnMin= -114.689554657328     IErMin= 9 ErrMin= 5.07D-06
 ErrMax= 5.07D-06  0.00D+00 EMaxC= 1.00D-01 BMatC= 6.44D-09 BMatP= 1.05D-07
 IDIUse=1 WtCom= 1.00D+00 WtEn= 0.00D+00
 Coeff-Com: -0.180D-04-0.367D-04 0.112D-02-0.192D-03 0.380D-02-0.213D-01
 Coeff-Com: -0.447D-01 0.143D+00 0.918D+00
 Coeff:     -0.180D-04-0.367D-04 0.112D-02-0.192D-03 0.380D-02-0.213D-01
 Coeff:     -0.447D-01 0.143D+00 0.918D+00
 Gap=     0.307 Goal=   None    Shift=    0.000
 Gap=     0.231 Goal=   None    Shift=    0.000
 RMSDP=3.08D-07 MaxDP=6.97D-06 DE=-3.73D-08 OVMax= 1.83D-05

 Cycle  10  Pass 1  IDiag  1:
 E= -114.689554658921     Delta-E=       -0.000000001593 Rises=F Damp=F
 DIIS: error= 5.52D-07 at cycle  10 NSaved=  10.
 NSaved=10 IEnMin=10 EnMin= -114.689554658921     IErMin=10 ErrMin= 5.52D-07
 ErrMax= 5.52D-07  0.00D+00 EMaxC= 1.00D-01 BMatC= 9.96D-11 BMatP= 6.44D-09
 IDIUse=1 WtCom= 1.00D+00 WtEn= 0.00D+00
 Coeff-Com:  0.186D-04-0.438D-04-0.207D-03-0.128D-03 0.481D-03 0.678D-02
 Coeff-Com: -0.346D-02-0.649D-01 0.611D-01 0.100D+01
 Coeff:      0.186D-04-0.438D-04-0.207D-03-0.128D-03 0.481D-03 0.678D-02
 Coeff:     -0.346D-02-0.649D-01 0.611D-01 0.100D+01
 Gap=     0.307 Goal=   None    Shift=    0.000
 Gap=     0.231 Goal=   None    Shift=    0.000
 RMSDP=5.75D-08 MaxDP=1.42D-06 DE=-1.59D-09 OVMax= 4.41D-06

 Cycle  11  Pass 1  IDiag  1:
 E= -114.689554658964     Delta-E=       -0.000000000043 Rises=F Damp=F
 DIIS: error= 1.33D-07 at cycle  11 NSaved=  11.
 NSaved=11 IEnMin=11 EnMin= -114.689554658964     IErMin=11 ErrMin= 1.33D-07
 ErrMax= 1.33D-07  0.00D+00 EMaxC= 1.00D-01 BMatC= 3.94D-12 BMatP= 9.96D-11
 IDIUse=1 WtCom= 1.00D+00 WtEn= 0.00D+00
 Coeff-Com:  0.742D-05-0.155D-04-0.437D-04 0.301D-04-0.222D-03 0.961D-03
 Coeff-Com:  0.309D-02-0.897D-02-0.456D-01-0.849D-02 0.106D+01
 Coeff:      0.742D-05-0.155D-04-0.437D-04 0.301D-04-0.222D-03 0.961D-03
 Coeff:      0.309D-02-0.897D-02-0.456D-01-0.849D-02 0.106D+01
 Gap=     0.307 Goal=   None    Shift=    0.000
 Gap=     0.231 Goal=   None    Shift=    0.000
 RMSDP=1.45D-08 MaxDP=5.06D-07 DE=-4.35D-11 OVMax= 9.07D-07

 Cycle  12  Pass 1  IDiag  1:
 E= -114.689554658966     Delta-E=       -0.000000000001 Rises=F Damp=F
 DIIS: error= 2.17D-08 at cycle  12 NSaved=  12.
 NSaved=12 IEnMin=12 EnMin= -114.689554658966     IErMin=12 ErrMin= 2.17D-08
 ErrMax= 2.17D-08  0.00D+00 EMaxC= 1.00D-01 BMatC= 1.59D-13 BMatP= 3.94D-12
 IDIUse=1 WtCom= 1.00D+00 WtEn= 0.00D+00
 Coeff-Com: -0.894D-06 0.220D-05-0.238D-06 0.723D-06-0.163D-04-0.101D-03
 Coeff-Com:  0.331D-03 0.894D-03-0.638D-02-0.344D-01 0.115D+00 0.924D+00
 Coeff:     -0.894D-06 0.220D-05-0.238D-06 0.723D-06-0.163D-04-0.101D-03
 Coeff:      0.331D-03 0.894D-03-0.638D-02-0.344D-01 0.115D+00 0.924D+00
 Gap=     0.307 Goal=   None    Shift=    0.000
 Gap=     0.231 Goal=   None    Shift=    0.000
 RMSDP=2.20D-09 MaxDP=6.47D-08 DE=-1.48D-12 OVMax= 1.31D-07

 SCF Done:  E(UB3LYP) =  -114.689554659     A.U. after   12 cycles
            NFock= 12  Conv=0.22D-08     -V/T= 2.0035
 <Sx>= 0.0000 <Sy>= 0.0000 <Sz>= 1.0000 <S**2>= 2.0048 S= 1.0016
 <L.S>= 0.000000000000E+00
 KE= 1.142904445399D+02 PE=-3.353165405774D+02 EE= 7.063092787142D+01
 Annihilation of the first spin contaminant:
 S**2 before annihilation     2.0048,   after     2.0000
 Leave Link  502 at Fri Mar  1 09:13:44 2019, MaxMem=    33554432 cpu:        18.8
 (Enter /home/proyectos/fulerenos/M3C-v2.0/M3C-deps_CCC/g09-AM64L-G09RevC.01/l801.exe)
 DoSCS=F DFT=T ScalE2(SS,OS)=  1.000000  1.000000
 Range of M.O.s used for correlation:     1   108
 NBasis=   108 NAE=     9 NBE=     7 NFC=     0 NFV=     0
 NROrb=    108 NOA=     9 NOB=     7 NVA=    99 NVB=   101

 **** Warning!!: The largest alpha MO coefficient is  0.12420858D+02


 **** Warning!!: The largest beta MO coefficient is  0.11921327D+02

 Leave Link  801 at Fri Mar  1 09:13:44 2019, MaxMem=    33554432 cpu:         0.1
 (Enter /home/proyectos/fulerenos/M3C-v2.0/M3C-deps_CCC/g09-AM64L-G09RevC.01/l1101.exe)
 Using compressed storage, NAtomX=     5.
 Will process      6 centers per pass.
 Leave Link 1101 at Fri Mar  1 09:13:44 2019, MaxMem=    33554432 cpu:         1.0
 (Enter /home/proyectos/fulerenos/M3C-v2.0/M3C-deps_CCC/g09-AM64L-G09RevC.01/l1102.exe)
 Symmetrizing basis deriv contribution to polar:
 IMax=3 JMax=2 DiffMx= 0.00D+00
 Leave Link 1102 at Fri Mar  1 09:13:45 2019, MaxMem=    33554432 cpu:         0.1
 (Enter /home/proyectos/fulerenos/M3C-v2.0/M3C-deps_CCC/g09-AM64L-G09RevC.01/l1110.exe)
 Forming Gx(P) for the SCF density, NAtomX=     5.
 Integral derivatives from FoFJK, PRISM(SPDF).
 Do as many integral derivatives as possible in FoFJK.
 G2DrvN: MDV=      33554288.
 G2DrvN: will do     6 centers at a time, making    1 passes.
 Calling FoFCou, ICntrl=  3107 FMM=F I1Cent=   0 AccDes= 0.00D+00.
 FoFJK:  IHMeth= 1 ICntrl=    3107 DoSepK=F KAlg= 0 I1Cent=   0 FoldK=F
 IRaf=         0 NMat=   1 IRICut=       1 DoRegI=T DoRafI=F ISym2E= 1.
 FoFCou: FMM=F IPFlag=           0 FMFlag=      100000 FMFlg1=           0
         NFxFlg=           0 DoJE=F BraDBF=F KetDBF=F FulRan=T
         wScrn=  0.000000 ICntrl=    3107 IOpCl=  1 I1Cent=           0 NGrid=           0
         NMat0=    1 NMatS0=      1 NMatT0=    0 NMatD0=    1 NMtDS0=    0 NMtDT0=    0
 Petite list used in FoFCou.
 End of G2Drv F.D. properties file   721 does not exist.
 End of G2Drv F.D. properties file   722 does not exist.
 End of G2Drv F.D. properties file   788 does not exist.
 Leave Link 1110 at Fri Mar  1 09:13:52 2019, MaxMem=    33554432 cpu:        29.5
 (Enter /home/proyectos/fulerenos/M3C-v2.0/M3C-deps_CCC/g09-AM64L-G09RevC.01/l1002.exe)
 Minotr:  UHF open shell wavefunction.
          IDoAtm=11111
          Direct CPHF calculation.
          Differentiating once with respect to electric field.
                with respect to dipole field.
          Differentiating once with respect to nuclear coordinates.
          Using symmetry in CPHF.
          Requested convergence is 1.0D-08 RMS, and 1.0D-07 maximum.
          Secondary convergence is 1.0D-12 RMS, and 1.0D-12 maximum.
          NewPWx=T KeepS1=F KeepF1=F KeepIn=T MapXYZ=F SortEE=F KeepMc=T.
          MDV=      33554162 using IRadAn=       2.
 Generate precomputed XC quadrature information.
 Keep R1 and R2 ints in memory in symmetry-blocked form, NReq=26248491.
 FoFCou: FMM=F IPFlag=           0 FMFlag=           0 FMFlg1=           0
         NFxFlg=           0 DoJE=F BraDBF=F KetDBF=F FulRan=T
         wScrn=  0.000000 ICntrl=     600 IOpCl=  0 I1Cent=           0 NGrid=           0
         NMat0=    1 NMatS0=   5886 NMatT0=    0 NMatD0=    1 NMtDS0=    0 NMtDT0=    0
 Petite list used in FoFCou.
          Solving linear equations simultaneously, MaxMat=       0.
          There are    15 degrees of freedom in the 1st order CPHF.  IDoFFX=4 NUNeed=    15.
     15 vectors produced by pass  0 Test12= 1.07D-14 6.67D-09 XBig12= 4.65D+01 5.37D+00.
 AX will form    15 AO Fock derivatives at one time.
     15 vectors produced by pass  1 Test12= 1.07D-14 6.67D-09 XBig12= 9.56D+00 7.97D-01.
     15 vectors produced by pass  2 Test12= 1.07D-14 6.67D-09 XBig12= 2.83D-01 1.62D-01.
     15 vectors produced by pass  3 Test12= 1.07D-14 6.67D-09 XBig12= 2.19D-03 8.79D-03.
     15 vectors produced by pass  4 Test12= 1.07D-14 6.67D-09 XBig12= 8.77D-06 4.25D-04.
     15 vectors produced by pass  5 Test12= 1.07D-14 6.67D-09 XBig12= 3.87D-08 2.61D-05.
      7 vectors produced by pass  6 Test12= 1.07D-14 6.67D-09 XBig12= 1.31D-10 1.65D-06.
      3 vectors produced by pass  7 Test12= 1.07D-14 6.67D-09 XBig12= 3.23D-13 9.40D-08.
      1 vectors produced by pass  8 Test12= 1.07D-14 6.67D-09 XBig12= 1.09D-15 8.14D-09.
 InvSVY:  IOpt=1 It=  1 EMax= 1.60D-15
 Solved reduced A of dimension   101 with    15 vectors.
 FullF1:  Do perturbations    1 to    15.
 Isotropic polarizability for W=    0.000000       17.06 Bohr**3.
 End of Minotr F.D. properties file   721 does not exist.
 End of Minotr F.D. properties file   722 does not exist.
 End of Minotr F.D. properties file   788 does not exist.
 Leave Link 1002 at Fri Mar  1 09:14:11 2019, MaxMem=    33554432 cpu:        75.9
 (Enter /home/proyectos/fulerenos/M3C-v2.0/M3C-deps_CCC/g09-AM64L-G09RevC.01/l601.exe)
 Copying SCF densities to generalized density rwf, IOpCl= 1 IROHF=0.

 **********************************************************************

            Population analysis using the SCF density.

 **********************************************************************

 Orbital symmetries:
 Alpha Orbitals:
       Occupied  (A') (A') (A') (A') (A') (A") (A') (A") (A')
       Virtual   (A') (A') (A") (A') (A") (A') (A') (A') (A') (A")
                 (A') (A") (A') (A') (A') (A") (A') (A") (A') (A')
                 (A') (A") (A') (A') (A") (A') (A') (A') (A") (A")
                 (A") (A') (A") (A') (A') (A') (A') (A") (A") (A')
                 (A") (A') (A') (A') (A') (A") (A') (A') (A") (A')
                 (A') (A") (A') (A") (A') (A") (A') (A') (A') (A")
                 (A") (A') (A') (A") (A') (A') (A") (A") (A') (A')
                 (A') (A") (A") (A') (A') (A') (A") (A") (A') (A')
                 (A") (A') (A") (A") (A') (A') (A') (A') (A") (A')
                 (A') (A") (A") (A') (A") (A') (A') (A') (A')
 Beta  Orbitals:
       Occupied  (A') (A') (A') (A') (A') (A') (A")
       Virtual   (A") (A') (A') (A') (A") (A') (A') (A") (A') (A')
                 (A') (A") (A') (A") (A') (A') (A') (A") (A') (A")
                 (A') (A') (A') (A") (A') (A') (A") (A') (A') (A')
                 (A") (A") (A") (A') (A') (A") (A') (A') (A') (A")
                 (A") (A') (A") (A') (A') (A') (A') (A") (A') (A')
                 (A") (A') (A') (A") (A') (A") (A') (A") (A') (A')
                 (A') (A") (A') (A") (A') (A") (A') (A') (A") (A")
                 (A') (A') (A') (A") (A") (A') (A') (A') (A") (A")
                 (A') (A') (A") (A') (A") (A") (A') (A') (A') (A')
                 (A") (A') (A') (A") (A") (A') (A") (A') (A') (A')
                 (A')
 The electronic state is 3-A".
 Alpha  occ. eigenvalues --  -19.57550 -10.56109  -1.45782  -1.03556  -0.86347
 Alpha  occ. eigenvalues --   -0.83319  -0.80809  -0.67246  -0.54503
 Alpha virt. eigenvalues --   -0.23811  -0.18493  -0.14570  -0.13356  -0.10225
 Alpha virt. eigenvalues --   -0.09831  -0.07212  -0.05057  -0.03439  -0.02605
 Alpha virt. eigenvalues --   -0.01893   0.00023   0.00190   0.05751   0.09161
 Alpha virt. eigenvalues --    0.11563   0.12027   0.13838   0.19026   0.24105
 Alpha virt. eigenvalues --    0.25761   0.30587   0.30654   0.34578   0.35547
 Alpha virt. eigenvalues --    0.45226   0.53459   0.59266   0.59440   0.62663
 Alpha virt. eigenvalues --    0.66656   0.69645   0.74354   0.74382   0.79509
 Alpha virt. eigenvalues --    0.81253   0.83262   0.87828   0.90563   0.98583
 Alpha virt. eigenvalues --    1.00134   1.11975   1.13452   1.29234   1.50994
 Alpha virt. eigenvalues --    1.52003   1.60096   1.72125   1.75066   1.80284
 Alpha virt. eigenvalues --    2.23062   2.29889   2.39118   2.49897   2.57275
 Alpha virt. eigenvalues --    2.61525   2.66080   2.69109   2.83791   2.86662
 Alpha virt. eigenvalues --    2.90892   2.91624   3.00953   3.06606   3.20327
 Alpha virt. eigenvalues --    3.34598   3.37503   3.62934   3.73133   3.82623
 Alpha virt. eigenvalues --    3.85830   3.86890   4.03644   4.07920   4.30470
 Alpha virt. eigenvalues --    4.66078   4.67317   4.80696   4.83681   5.01252
 Alpha virt. eigenvalues --    5.05583   5.07643   5.30201   5.67267   5.76931
 Alpha virt. eigenvalues --    6.13670   6.51822   6.78471   6.82436   7.06780
 Alpha virt. eigenvalues --    7.49821   7.60008  13.89654  13.96133  14.11649
 Alpha virt. eigenvalues --   14.38038  14.54181  24.05726  49.76553
  Beta  occ. eigenvalues --  -19.55539 -10.54372  -1.41223  -0.99635  -0.81895
  Beta  occ. eigenvalues --   -0.76576  -0.74953
  Beta virt. eigenvalues --   -0.51883  -0.36561  -0.22827  -0.17294  -0.13279
  Beta virt. eigenvalues --   -0.12464  -0.08947  -0.08560  -0.06473  -0.03716
  Beta virt. eigenvalues --   -0.02658  -0.01446  -0.01215   0.01222   0.01900
  Beta virt. eigenvalues --    0.06432   0.09851   0.12861   0.13034   0.15198
  Beta virt. eigenvalues --    0.20935   0.25339   0.27767   0.32314   0.34090
  Beta virt. eigenvalues --    0.36179   0.36992   0.46498   0.54671   0.60996
  Beta virt. eigenvalues --    0.61134   0.64778   0.68826   0.71015   0.75710
  Beta virt. eigenvalues --    0.76447   0.81156   0.82806   0.84738   0.89886
  Beta virt. eigenvalues --    0.93425   1.01526   1.03138   1.13734   1.15039
  Beta virt. eigenvalues --    1.31221   1.55915   1.57031   1.62510   1.75586
  Beta virt. eigenvalues --    1.77475   1.83174   2.26988   2.33927   2.40962
  Beta virt. eigenvalues --    2.52873   2.63180   2.67502   2.69950   2.73470
  Beta virt. eigenvalues --    2.88028   2.90084   2.94463   2.94918   3.06024
  Beta virt. eigenvalues --    3.10870   3.22051   3.38526   3.41823   3.66136
  Beta virt. eigenvalues --    3.75542   3.86685   3.89180   3.91412   4.07799
  Beta virt. eigenvalues --    4.10455   4.32431   4.70539   4.74699   4.85107
  Beta virt. eigenvalues --    4.87327   5.05391   5.09820   5.11273   5.34014
  Beta virt. eigenvalues --    5.70884   5.78808   6.16440   6.53710   6.86337
  Beta virt. eigenvalues --    6.89483   7.12063   7.53319   7.63001  13.97458
  Beta virt. eigenvalues --   14.03479  14.18723  14.42318  14.56159  24.07647
  Beta virt. eigenvalues --   49.78553
          Condensed to atoms (all electrons):
               1          2          3          4          5
     1  C    5.074988  -0.059505   0.355862   0.355862   0.071691
     2  H   -0.059505   0.418262   0.002404   0.002404   0.283944
     3  H    0.355862   0.002404   0.398558  -0.012193  -0.025946
     4  H    0.355862   0.002404  -0.012193   0.398558  -0.025946
     5  O    0.071691   0.283944  -0.025946  -0.025946   7.812477
          Atomic-Atomic Spin Densities.
               1          2          3          4          5
     1  C    1.103042  -0.034095   0.054309   0.054309  -0.157115
     2  H   -0.034095   0.018384   0.000473   0.000473   0.015496
     3  H    0.054309   0.000473   0.145162  -0.021658  -0.015194
     4  H    0.054309   0.000473  -0.021658   0.145162  -0.015194
     5  O   -0.157115   0.015496  -0.015194  -0.015194   0.824643
 Mulliken charges and spin densities:
               1          2
     1  C    0.201101   1.020450
     2  H    0.352491   0.000731
     3  H    0.281315   0.163092
     4  H    0.281315   0.163092
     5  O   -0.116221   0.652636
 Sum of Mulliken charges =   1.00000   2.00000
 Mulliken charges and spin densities with hydrogens summed into heavy atoms:
               1          2
     1  C    0.763730   1.346633
     5  O    0.236270   0.653367
 APT charges:
               1
     1  C   -0.146918
     2  H    0.491348
     3  H    0.351031
     4  H    0.351031
     5  O   -0.046493
 Sum of APT charges =   1.00000
 APT charges with hydrogens summed into heavy atoms:
               1
     1  C    0.555144
     5  O    0.444856
 Electronic spatial extent (au):  <R**2>=             62.1943
 Charge=              1.0000 electrons
 Dipole moment (field-independent basis, Debye):
    X=             -0.6761    Y=             -0.6152    Z=             -0.0000  Tot=              0.9142
 Quadrupole moment (field-independent basis, Debye-Ang):
   XX=             -8.8747   YY=             -5.5618   ZZ=             -8.6796
   XY=             -4.1970   XZ=             -0.0000   YZ=              0.0000
 Traceless Quadrupole moment (field-independent basis, Debye-Ang):
   XX=             -1.1693   YY=              2.1435   ZZ=             -0.9742
   XY=             -4.1970   XZ=             -0.0000   YZ=              0.0000
 Octapole moment (field-independent basis, Debye-Ang**2):
  XXX=             -1.8702  YYY=              2.6017  ZZZ=             -0.0000  XYY=             -0.8772
  XXY=              2.8826  XXZ=             -0.0000  XZZ=              1.3804  YZZ=             -1.7683
  YYZ=             -0.0000  XYZ=              0.0000
 Hexadecapole moment (field-independent basis, Debye-Ang**3):
 XXXX=            -10.8362 YYYY=            -37.0542 ZZZZ=            -11.4036 XXXY=             -0.3275
 XXXZ=             -0.0000 YYYX=             -3.3244 YYYZ=              0.0000 ZZZX=             -0.0000
 ZZZY=              0.0000 XXYY=             -6.4754 XXZZ=             -3.6882 YYZZ=             -6.2301
 XXYZ=              0.0000 YYXZ=             -0.0000 ZZXY=             -1.0391
 N-N= 3.570561350713D+01 E-N=-3.353165408857D+02  KE= 1.142904445399D+02
 Symmetry A'   KE= 1.091170585776D+02
 Symmetry A"   KE= 5.173385962254D+00
  Exact polarizability:  13.521  -3.351  23.334   0.000  -0.000  14.314
 Approx polarizability:  17.263  -4.621  35.343  -0.000   0.000  19.201
                          Isotropic Fermi Contact Couplings
        Atom                 a.u.       MegaHertz       Gauss      10(-4) cm-1
     1  C(13)              0.21538     121.06583      43.19930      40.38321
     2  H(1)               0.01210      27.05232       9.65294       9.02368
     3  H(1)               0.08962     200.30448      71.47362      66.81438
     4  H(1)               0.08962     200.30448      71.47362      66.81438
     5  O(17)              0.07351     -22.28062      -7.95028      -7.43201
 --------------------------------------------------------
       Center         ----  Spin Dipole Couplings  ----
                      3XX-RR        3YY-RR        3ZZ-RR
 --------------------------------------------------------
     1   Atom        0.913756     -0.584710     -0.329046
     2   Atom        0.069716     -0.016193     -0.053524
     3   Atom        0.001008     -0.034146      0.033138
     4   Atom        0.001008     -0.034146      0.033138
     5   Atom       -1.144537     -1.393369      2.537906
 --------------------------------------------------------
                        XY            XZ            YZ
 --------------------------------------------------------
     1   Atom        0.478903     -0.000000      0.000000
     2   Atom       -0.107673     -0.000000      0.000000
     3   Atom       -0.030387     -0.063155      0.079205
     4   Atom       -0.030387      0.063155     -0.079205
     5   Atom        0.331813     -0.000000      0.000000
 --------------------------------------------------------


 ---------------------------------------------------------------------------------
              Anisotropic Spin Dipole Couplings in Principal Axis System
 ---------------------------------------------------------------------------------

       Atom             a.u.   MegaHertz   Gauss  10(-4) cm-1        Axes

              Baa    -0.7247   -97.246   -34.700   -32.438 -0.2806  0.9598 -0.0000
     1 C(13)  Bbb    -0.3290   -44.155   -15.756   -14.728 -0.0000  0.0000  1.0000
              Bcc     1.0537   141.401    50.455    47.166  0.9598  0.2806  0.0000
 
              Baa    -0.0892   -47.573   -16.975   -15.869  0.5610  0.8278 -0.0000
     2 H(1)   Bbb    -0.0535   -28.558   -10.190    -9.526  0.0000  0.0000  1.0000
              Bcc     0.1427    76.131    27.165    25.394  0.8278 -0.5610  0.0000
 
              Baa    -0.0880   -46.970   -16.760   -15.668 -0.1531  0.7887 -0.5954
     3 H(1)   Bbb    -0.0366   -19.549    -6.976    -6.521  0.8577  0.4053  0.3163
              Bcc     0.1247    66.520    23.736    22.189 -0.4908  0.4622  0.7386
 
              Baa    -0.0880   -46.970   -16.760   -15.668 -0.1531  0.7887  0.5954
     4 H(1)   Bbb    -0.0366   -19.549    -6.976    -6.521  0.8577  0.4053 -0.3163
              Bcc     0.1247    66.520    23.736    22.189  0.4908 -0.4622  0.7386
 
              Baa    -1.6233   117.463    41.914    39.181 -0.5696  0.8219 -0.0000
     5 O(17)  Bbb    -0.9146    66.178    23.614    22.075  0.8219  0.5696 -0.0000
              Bcc     2.5379  -183.641   -65.528   -61.256 -0.0000  0.0000  1.0000
 

 ---------------------------------------------------------------------------------

 No NMR shielding tensors so no spin-rotation constants.
 Leave Link  601 at Fri Mar  1 09:14:11 2019, MaxMem=    33554432 cpu:         1.7
 (Enter /home/proyectos/fulerenos/M3C-v2.0/M3C-deps_CCC/g09-AM64L-G09RevC.01/l701.exe)
 Compute integral second derivatives.
 ... and contract with generalized density number  0.
 Leave Link  701 at Fri Mar  1 09:14:12 2019, MaxMem=    33554432 cpu:         1.5
 (Enter /home/proyectos/fulerenos/M3C-v2.0/M3C-deps_CCC/g09-AM64L-G09RevC.01/l702.exe)
 L702 exits ... SP integral derivatives will be done elsewhere.
 Leave Link  702 at Fri Mar  1 09:14:12 2019, MaxMem=    33554432 cpu:         0.1
 (Enter /home/proyectos/fulerenos/M3C-v2.0/M3C-deps_CCC/g09-AM64L-G09RevC.01/l703.exe)
 Compute integral second derivatives, UseDBF=F ICtDFT=           0.
 Integral derivatives from FoFJK, PRISM(SPDF).
 Calling FoFJK, ICntrl=    100127 FMM=F ISym2X=1 I1Cent= 0 IOpClX= 1 NMat=1 NMatS=1 NMatT=0.
 FoFJK:  IHMeth= 1 ICntrl=  100127 DoSepK=F KAlg= 0 I1Cent=   0 FoldK=F
 IRaf=         0 NMat=   1 IRICut=       1 DoRegI=T DoRafI=F ISym2E= 1.
 FoFCou: FMM=F IPFlag=           0 FMFlag=      100000 FMFlg1=         800
         NFxFlg=           0 DoJE=F BraDBF=F KetDBF=F FulRan=T
         wScrn=  0.000000 ICntrl=  100127 IOpCl=  1 I1Cent=           0 NGrid=           0
         NMat0=    1 NMatS0=      1 NMatT0=    0 NMatD0=    1 NMtDS0=    0 NMtDT0=    0
 Petite list used in FoFCou.
 Leave Link  703 at Fri Mar  1 09:14:24 2019, MaxMem=    33554432 cpu:        47.6
 (Enter /home/proyectos/fulerenos/M3C-v2.0/M3C-deps_CCC/g09-AM64L-G09RevC.01/l716.exe)
 Dipole        =-2.66008521D-01-2.42057152D-01-7.10031960D-16
 Polarizability= 1.35209324D+01-3.35116193D+00 2.33341135D+01
                 7.54249864D-10-7.71073497D-09 1.43136085D+01
 Full mass-weighted force constant matrix:
 Low frequencies ---  -38.9073  -19.2125    0.0005    0.0012    0.0017   11.4147
 Low frequencies ---  629.0518  724.5084  981.4641
 Diagonal vibrational polarizability:
        5.5256594      10.4897949      12.3222026
 Harmonic frequencies (cm**-1), IR intensities (KM/Mole), Raman scattering
 activities (A**4/AMU), depolarization ratios for plane and unpolarized
 incident light, reduced masses (AMU), force constants (mDyne/A),
 and normal coordinates:
                      1                      2                      3
                     A"                     A'                     A"
 Frequencies --    629.0518               724.5083               981.4640
 Red. masses --      1.0976                 1.2373                 1.2077
 Frc consts  --      0.2559                 0.3827                 0.6854
 IR Inten    --    148.0733                88.5567                54.5265
  Atom  AN      X      Y      Z        X      Y      Z        X      Y      Z
     1   6    -0.00   0.00  -0.09    -0.13   0.02   0.00     0.00   0.00   0.08
     2   1     0.00   0.00   0.68     0.16   0.22  -0.00    -0.00  -0.00   0.56
     3   1     0.18  -0.40   0.28     0.60   0.18   0.25     0.30   0.49  -0.04
     4   1    -0.18   0.40   0.28     0.60   0.18  -0.25    -0.30  -0.49  -0.04
     5   8     0.00  -0.00  -0.01     0.01  -0.05  -0.00    -0.00  -0.00  -0.09
                      4                      5                      6
                     A'                     A'                     A'
 Frequencies --   1033.9520              1111.2901              1275.3238
 Red. masses --      1.2532                 1.4919                 2.4386
 Frc consts  --      0.7894                 1.0856                 2.3368
 IR Inten    --    314.4126                62.4057                 7.6309
  Atom  AN      X      Y      Z        X      Y      Z        X      Y      Z
     1   6     0.00  -0.15   0.00     0.10   0.10  -0.00     0.02  -0.25   0.00
     2   1     0.16   0.36   0.00     0.40   0.85  -0.00     0.09   0.49   0.00
     3   1    -0.06   0.55  -0.33    -0.12  -0.17   0.01     0.18  -0.49   0.22
     4   1    -0.06   0.55   0.33    -0.12  -0.17  -0.01     0.18  -0.49  -0.22
     5   8    -0.00   0.02  -0.00    -0.08  -0.11   0.00    -0.04   0.22  -0.00
                      7                      8                      9
                     A"                     A'                     A'
 Frequencies --   2666.7317              2702.6938              3460.9362
 Red. masses --      1.0870                 1.0449                 1.0677
 Frc consts  --      4.5543                 4.4972                 7.5350
 IR Inten    --    192.5644               340.3770               365.2092
  Atom  AN      X      Y      Z        X      Y      Z        X      Y      Z
     1   6     0.00  -0.00  -0.08     0.04  -0.04   0.00     0.00  -0.00  -0.00
     2   1    -0.00   0.00  -0.02    -0.02   0.01   0.00     0.89  -0.45  -0.00
     3   1    -0.31   0.33   0.54    -0.27   0.27   0.59    -0.01   0.01   0.01
     4   1     0.31  -0.33   0.54    -0.27   0.27  -0.59    -0.01   0.01  -0.01
     5   8     0.00  -0.00  -0.00     0.00  -0.01  -0.00    -0.06   0.03   0.00

 -------------------
 - Thermochemistry -
 -------------------
 Temperature   298.150 Kelvin.  Pressure   1.00000 Atm.
 Atom     1 has atomic number  6 and mass  12.00000
 Atom     2 has atomic number  1 and mass   1.00783
 Atom     3 has atomic number  1 and mass   1.00783
 Atom     4 has atomic number  1 and mass   1.00783
 Atom     5 has atomic number  8 and mass  15.99491
 Molecular mass:    31.01839 amu.
 Principal axes and moments of inertia in atomic units:
                           1         2         3
     Eigenvalues --     9.40120  60.59824  62.85959
           X           -0.14260  -0.00000   0.98978
           Y            0.98978  -0.00000   0.14260
           Z            0.00000   1.00000   0.00000
 This molecule is an asymmetric top.
 Rotational symmetry number  1.
 Rotational temperatures (Kelvin)      9.21306     1.42931     1.37789
 Rotational constants (GHZ):         191.96926    29.78207    28.71067
 Zero-point vibrational energy      87243.4 (Joules/Mol)
                                   20.85166 (Kcal/Mol)
 Vibrational temperatures:    905.06  1042.40  1412.11  1487.62  1598.90
          (Kelvin)           1834.90  3836.83  3888.57  4979.51
 
 Zero-point correction=                           0.033229 (Hartree/Particle)
 Thermal correction to Energy=                    0.036418
 Thermal correction to Enthalpy=                  0.037362
 Thermal correction to Gibbs Free Energy=         0.010001
 Sum of electronic and zero-point Energies=           -114.656325
 Sum of electronic and thermal Energies=              -114.653137
 Sum of electronic and thermal Enthalpies=            -114.652193
 Sum of electronic and thermal Free Energies=         -114.679554
 
                     E (Thermal)             CV                S
                      KCal/Mol        Cal/Mol-Kelvin    Cal/Mol-Kelvin
 Total                   22.853              8.888             57.587
 Electronic               0.000              0.000              2.183
 Translational            0.889              2.981             36.229
 Rotational               0.889              2.981             18.222
 Vibrational             21.075              2.926              0.953
                       Q            Log10(Q)             Ln(Q)
 Total Bot       0.251196D-04         -4.599987        -10.591862
 Total V=0       0.483471D+11         10.684371         24.601673
 Vib (Bot)       0.575643D-15        -15.239847        -35.091044
 Vib (V=0)       0.110793D+01          0.044511          0.102492
 Electronic      0.300000D+01          0.477121          1.098612
 Translational   0.679022D+07          6.831884         15.730994
 Rotational      0.214217D+04          3.330854          7.669574
 
                                                              b3lyp opt
                                                             IR Spectrum
 
     3                           2 2                                                  1     1  1                                     
     4                           7 6                                                  2     1  09         7  6                       
     6                           0 6                                                  7     1  38         2  2                       
     1                           3 7                                                  5     1  41         5  9                       
 
     X                           X X                                                  X     X  XX         X  X                       
     X                           X X                                                        X  XX         X  X                       
     X                           X X                                                        X  XX         X  X                       
     X                           X X                                                           X          X  X                       
     X                           X X                                                           X          X  X                       
     X                           X X                                                           X             X                       
     X                           X X                                                           X             X                       
     X                           X X                                                           X             X                       
     X                           X X                                                           X                                     
     X                           X X                                                           X                                     
     X                           X X                                                           X                                     
     X                           X                                                             X                                     
     X                           X                                                             X                                     
     X                           X                                                             X                                     
     X                           X                                                             X                                     
     X                           X                                                             X                                     
     X                           X                                                             X                                     
     X                           X                                                                                                   
     X                           X                                                                                                   
     X                                                                                                                               
 
 ***** Axes restored to original set *****
 -------------------------------------------------------------------
 Center     Atomic                   Forces (Hartrees/Bohr)
 Number     Number              X              Y              Z
 -------------------------------------------------------------------
      1        6           0.000093348    0.000175484   -0.000343338
      2        1          -0.000037311    0.000022908   -0.000069188
      3        1           0.000033178   -0.000092220    0.000091283
      4        1           0.000012470    0.000001093    0.000133346
      5        8          -0.000101686   -0.000107265    0.000187896
 -------------------------------------------------------------------
 Cartesian Forces:  Max     0.000343338 RMS     0.000130925
 Z-matrix is all fixed cartesians, so copy forces.
 Force constants in Cartesian coordinates: 
                1             2             3             4             5 
      1  0.200485D+00
      2  0.234160D-01  0.327839D+00
      3 -0.101658D+00 -0.469874D-01  0.355652D+00
      4  0.127494D-01 -0.137986D-01  0.304830D-01  0.128561D+00
      5  0.194684D-02  0.616378D-02  0.161445D-01 -0.462172D-01  0.493950D-01
      6 -0.444685D-02  0.839291D-02 -0.779885D-02  0.157882D+00 -0.965612D-01
      7 -0.457437D-01  0.664951D-01 -0.106035D-01 -0.362671D-02  0.788899D-02
      8  0.619382D-01 -0.183710D+00  0.375258D-01  0.450216D-03 -0.197205D-02
      9 -0.186832D-01  0.374113D-01 -0.112229D-02 -0.963109D-03  0.452869D-02
     10 -0.200650D-01 -0.119028D-01 -0.298031D-02 -0.153403D-04 -0.766924D-02
     11 -0.299028D-02 -0.592735D-01 -0.999781D-01 -0.148090D-03 -0.249813D-02
     12 -0.456328D-02 -0.102008D+00 -0.151237D+00 -0.112690D-03 -0.755858D-03
     13 -0.147426D+00 -0.642097D-01  0.847587D-01 -0.137668D+00  0.440506D-01
     14 -0.843108D-01 -0.910195D-01  0.932952D-01  0.597137D-01 -0.510886D-01
     15  0.129351D+00  0.103191D+00 -0.195494D+00 -0.187289D+00  0.766438D-01
                6             7             8             9            10 
      6  0.308063D+00
      7  0.288700D-02  0.367679D-01
      8  0.280520D-02 -0.604253D-01  0.229286D+00
      9 -0.431614D-02  0.529402D-02 -0.506875D-01  0.370501D-01
     10 -0.378007D-02 -0.843013D-04  0.301323D-02  0.205708D-02  0.173131D-01
     11  0.100819D-02  0.744848D-02 -0.212220D-01 -0.165967D-01 -0.560801D-03
     12 -0.740142D-02  0.671568D-03 -0.134436D-02 -0.585449D-02 -0.153004D-01
     13 -0.152542D+00  0.126868D-01 -0.497643D-02  0.122952D-01  0.285157D-02
     14  0.843549D-01 -0.214073D-01 -0.223823D-01  0.253442D-01  0.171197D-01
     15 -0.288547D+00  0.175088D-02  0.117009D-01 -0.257572D-01  0.200037D-01
               11            12            13            14            15 
     11  0.848065D-01
     12  0.985853D-01  0.200984D+00
     13 -0.374931D-02  0.193048D-01  0.269555D+00
     14 -0.181284D-02  0.552294D-02  0.288848D-01  0.166303D+00
     15  0.169814D-01 -0.364914D-01  0.361835D-01 -0.208517D+00  0.546289D+00
 Leave Link  716 at Fri Mar  1 09:14:24 2019, MaxMem=    33554432 cpu:         0.2
 (Enter /home/proyectos/fulerenos/M3C-v2.0/M3C-deps_CCC/g09-AM64L-G09RevC.01/l103.exe)

 GradGradGradGradGradGradGradGradGradGradGradGradGradGradGradGradGradGrad
 Berny optimization.
 Search for a local minimum.
 Step number   1 out of a maximum of    2
 All quantities printed in internal units (Hartrees-Bohrs-Radians)
 Second derivative matrix not updated -- analytic derivatives used.
 The second derivative matrix:
                          X1        Y1        Z1        X2        Y2
           X1           0.20048
           Y1           0.02342   0.32784
           Z1          -0.10166  -0.04699   0.35565
           X2           0.01275  -0.01380   0.03048   0.12856
           Y2           0.00195   0.00616   0.01614  -0.04622   0.04940
           Z2          -0.00445   0.00839  -0.00780   0.15788  -0.09656
           X3          -0.04574   0.06650  -0.01060  -0.00363   0.00789
           Y3           0.06194  -0.18371   0.03753   0.00045  -0.00197
           Z3          -0.01868   0.03741  -0.00112  -0.00096   0.00453
           X4          -0.02006  -0.01190  -0.00298  -0.00002  -0.00767
           Y4          -0.00299  -0.05927  -0.09998  -0.00015  -0.00250
           Z4          -0.00456  -0.10201  -0.15124  -0.00011  -0.00076
           X5          -0.14743  -0.06421   0.08476  -0.13767   0.04405
           Y5          -0.08431  -0.09102   0.09330   0.05971  -0.05109
           Z5           0.12935   0.10319  -0.19549  -0.18729   0.07664
                          Z2        X3        Y3        Z3        X4
           Z2           0.30806
           X3           0.00289   0.03677
           Y3           0.00281  -0.06043   0.22929
           Z3          -0.00432   0.00529  -0.05069   0.03705
           X4          -0.00378  -0.00008   0.00301   0.00206   0.01731
           Y4           0.00101   0.00745  -0.02122  -0.01660  -0.00056
           Z4          -0.00740   0.00067  -0.00134  -0.00585  -0.01530
           X5          -0.15254   0.01269  -0.00498   0.01230   0.00285
           Y5           0.08435  -0.02141  -0.02238   0.02534   0.01712
           Z5          -0.28855   0.00175   0.01170  -0.02576   0.02000
                          Y4        Z4        X5        Y5        Z5
           Y4           0.08481
           Z4           0.09859   0.20098
           X5          -0.00375   0.01930   0.26956
           Y5          -0.00181   0.00552   0.02888   0.16630
           Z5           0.01698  -0.03649   0.03618  -0.20852   0.54629
 ITU=  0
     Eigenvalues ---    0.02092   0.03598   0.06528   0.08941   0.11041
     Eigenvalues ---    0.36448   0.46443   0.57840   0.93893
 Angle between quadratic step and forces=  63.23 degrees.
 ClnCor:  largest displacement from symmetrization is 4.78D-12 for atom     4.
 Linear search not attempted -- first point.
 ClnCor:  largest displacement from symmetrization is 1.51D-15 for atom     2.
 B after Tr=    -0.000198    0.000092   -0.000303
         Rot=    1.000000   -0.000002    0.000008    0.000003 Ang=  -0.00 deg.
 Variable       Old X    -DE/DX   Delta X   Delta X   Delta X     New X
                                 (Linear)    (Quad)   (Total)
    X1        0.18962   0.00009   0.00000  -0.00032  -0.00054   0.18908
    Y1       -0.52736   0.00018   0.00000   0.00040   0.00049  -0.52688
    Z1        1.28572  -0.00034   0.00000  -0.00105  -0.00135   1.28437
    X2        0.61007  -0.00004   0.00000   0.00062   0.00046   0.61053
    Y2        1.06488   0.00002   0.00000   0.00037   0.00047   1.06535
    Z2       -2.03954  -0.00007   0.00000  -0.00052  -0.00081  -2.04035
    X3        0.83511   0.00003   0.00000   0.00030   0.00006   0.83517
    Y3       -2.50146  -0.00009   0.00000   0.00053   0.00061  -2.50085
    Z3        1.76010   0.00009   0.00000   0.00199   0.00169   1.76179
    X4        0.16055   0.00001   0.00000   0.00078   0.00054   0.16109
    Y4        0.53820   0.00000   0.00000  -0.00164  -0.00156   0.53664
    Z4        3.13030   0.00013   0.00000   0.00101   0.00071   3.13101
    X5        1.53168  -0.00010   0.00000  -0.00032  -0.00051   1.53117
    Y5        0.56886  -0.00011   0.00000  -0.00008  -0.00000   0.56886
    Z5       -0.48545   0.00019   0.00000   0.00003  -0.00025  -0.48569
         Item               Value     Threshold  Converged?
 Maximum Force            0.000343     0.000450     YES
 RMS     Force            0.000131     0.000300     YES
 Maximum Displacement     0.001691     0.001800     YES
 RMS     Displacement     0.000825     0.001200     YES
 Predicted change in Energy=-3.758029D-07
 Optimization completed.
    -- Stationary point found.
 GradGradGradGradGradGradGradGradGradGradGradGradGradGradGradGradGradGrad

 Leave Link  103 at Fri Mar  1 09:14:24 2019, MaxMem=    33554432 cpu:         0.1
 (Enter /home/proyectos/fulerenos/M3C-v2.0/M3C-deps_CCC/g09-AM64L-G09RevC.01/l9999.exe)

 Test job not archived.
 1\1\GINC-BOHRIO\Freq\UB3LYP\6-311++G(3df,2p)\C1H3O1(1+,3)\ROOT\01-Mar-
 2019\0\\#p b3lyp/6-311++G(3df,2p) freq IOp(2/17=3) IOp(2/18=3)\\b3lyp 
 opt\\1,3\C,0.1003424317,-0.2790694514,0.6803740919\H,0.3228359828,0.56
 35115101,-1.0792783087\H,0.441922,-1.323715,0.931405\H,0.0849597524,0.
 2848032491,1.6564828929\O,0.8105290342,0.3010278581,-0.256887007\\Vers
 ion=EM64L-G09RevE.01\State=3-A"\HF=-114.6895547\S2=2.004832\S2-1=0.\S2
 A=2.000011\RMSD=2.200e-09\RMSF=1.309e-04\ZeroPoint=0.0332292\Thermal=0
 .0364178\Dipole=-0.3484052,-0.0867599,0.0209459\DipoleDeriv=0.1903328,
 0.0808597,-0.0408694,-0.0001287,-0.1634782,0.1606883,0.1387957,0.20055
 96,-0.4676081,0.3659713,-0.042757,0.0620437,-0.0020946,0.4680812,-0.07
 97119,-0.0281621,-0.0997304,0.6399921,0.1925065,-0.0596016,0.0555844,0
 .0233233,0.4652345,-0.14332,-0.0566093,-0.1362681,0.3953525,0.2041096,
 -0.0358231,0.0076785,-0.0122066,0.2825847,0.0385163,-0.1164799,-0.0209
 869,0.5663992,0.0470798,0.057322,-0.0844372,-0.0088934,-0.0524222,0.02
 38273,0.0624555,0.0564257,-0.1341356\Polar=13.4653558,1.1385063,16.301
 0821,-2.9432733,-3.8485298,21.4022164\PG=CS [SG(C1H1O1),X(H2)]\NImag=0
 \\0.20048487,0.02341598,0.32783875,-0.10165793,-0.04698741,0.35565171,
 0.01274936,-0.01379862,0.03048300,0.12856081,0.00194684,0.00616378,0.0
 1614454,-0.04621717,0.04939503,-0.00444685,0.00839291,-0.00779885,0.15
 788202,-0.09656121,0.30806311,-0.04574372,0.06649513,-0.01060346,-0.00
 362671,0.00788899,0.00288700,0.03676792,0.06193825,-0.18370956,0.03752
 579,0.00045022,-0.00197205,0.00280520,-0.06042526,0.22928592,-0.018683
 16,0.03741130,-0.00112229,-0.00096311,0.00452869,-0.00431614,0.0052940
 2,-0.05068751,0.03705009,-0.02006500,-0.01190284,-0.00298031,-0.000015
 34,-0.00766924,-0.00378007,-0.00008430,0.00301323,0.00205708,0.0173130
 7,-0.00299028,-0.05927352,-0.09997814,-0.00014809,-0.00249813,0.001008
 19,0.00744848,-0.02122197,-0.01659673,-0.00056080,0.08480645,-0.004563
 28,-0.10200799,-0.15123706,-0.00011269,-0.00075586,-0.00740142,0.00067
 157,-0.00134436,-0.00585449,-0.01530036,0.09858527,0.20098440,-0.14742
 550,-0.06420965,0.08475870,-0.13766812,0.04405057,-0.15254210,0.012686
 81,-0.00497643,0.01229518,0.00285157,-0.00374931,0.01930476,0.26955524
 ,-0.08431079,-0.09101945,0.09329521,0.05971367,-0.05108863,0.08435492,
 -0.02140734,-0.02238235,0.02534424,0.01711965,-0.00181284,0.00552294,0
 .02888481,0.16630327,0.12935121,0.10319118,-0.19549352,-0.18728922,0.0
 7664384,-0.28854671,0.00175088,0.01170088,-0.02575717,0.02000367,0.016
 98141,-0.03649144,0.03618347,-0.20851732,0.54628883\\-0.00009335,-0.00
 017548,0.00034334,0.00003731,-0.00002291,0.00006919,-0.00003318,0.0000
 9222,-0.00009128,-0.00001247,-0.00000109,-0.00013335,0.00010169,0.0001
 0726,-0.00018790\\\@


 O WAD SOME POWER THE GIFTIE GIE US       
 TO SEE OURSELS AS OTHERS SEE US.....     
 IT WOULD FRAE MONIE A BLUNDER FREE US,   
                     AND FOOLISH NOTION...
 WHAT AIRS IN DRESS AND GAIT WAD LEA'E US,
                     AND EV'N DEVOTION....
                                          
              (ROBERT BURNS 'TO A LOUSE') 
 Job cpu time:       0 days  0 hours  3 minutes  1.4 seconds.
 File lengths (MBytes):  RWF=     13 Int=      0 D2E=      0 Chk=      2 Scr=      1
 Normal termination of Gaussian 09 at Fri Mar  1 09:14:24 2019.
