 Entering Gaussian System, Link 0=/home/proyectos/fulerenos/M3C-v2.0/M3C-deps_CCC/g09-AM64L-G09RevC.01/g09
 Initial command:
 /home/proyectos/fulerenos/M3C-v2.0/M3C-deps_CCC/g09-AM64L-G09RevC.01/l1.exe "/scratch/naguirre/gaussian/Gau-22036.inp" -scrdir="/scratch/naguirre/gaussian/"
 Entering Link 1 = /home/proyectos/fulerenos/M3C-v2.0/M3C-deps_CCC/g09-AM64L-G09RevC.01/l1.exe PID=     22044.
  
 Copyright (c) 1988,1990,1992,1993,1995,1998,2003,2009,2015,
            Gaussian, Inc.  All Rights Reserved.
  
 This is part of the Gaussian(R) 09 program.  It is based on
 the Gaussian(R) 03 system (copyright 2003, Gaussian, Inc.),
 the Gaussian(R) 98 system (copyright 1998, Gaussian, Inc.),
 the Gaussian(R) 94 system (copyright 1995, Gaussian, Inc.),
 the Gaussian 92(TM) system (copyright 1992, Gaussian, Inc.),
 the Gaussian 90(TM) system (copyright 1990, Gaussian, Inc.),
 the Gaussian 88(TM) system (copyright 1988, Gaussian, Inc.),
 the Gaussian 86(TM) system (copyright 1986, Carnegie Mellon
 University), and the Gaussian 82(TM) system (copyright 1983,
 Carnegie Mellon University). Gaussian is a federally registered
 trademark of Gaussian, Inc.
  
 This software contains proprietary and confidential information,
 including trade secrets, belonging to Gaussian, Inc.
  
 This software is provided under written license and may be
 used, copied, transmitted, or stored only in accord with that
 written license.
  
 The following legend is applicable only to US Government
 contracts under FAR:
  
                    RESTRICTED RIGHTS LEGEND
  
 Use, reproduction and disclosure by the US Government is
 subject to restrictions as set forth in subparagraphs (a)
 and (c) of the Commercial Computer Software - Restricted
 Rights clause in FAR 52.227-19.
  
 Gaussian, Inc.
 340 Quinnipiac St., Bldg. 40, Wallingford CT 06492
  
  
 ---------------------------------------------------------------
 Warning -- This program may not be used in any manner that
 competes with the business of Gaussian, Inc. or will provide
 assistance to any competitor of Gaussian, Inc.  The licensee
 of this program is prohibited from giving any competitor of
 Gaussian, Inc. access to this program.  By using this program,
 the user acknowledges that Gaussian, Inc. is engaged in the
 business of creating and licensing software in the field of
 computational chemistry and represents and warrants to the
 licensee that it is not a competitor of Gaussian, Inc. and that
 it will not use this program in any manner prohibited above.
 ---------------------------------------------------------------
  

 Cite this work as:
 Gaussian 09, Revision E.01,
 M. J. Frisch, G. W. Trucks, H. B. Schlegel, G. E. Scuseria, 
 M. A. Robb, J. R. Cheeseman, G. Scalmani, V. Barone, B. Mennucci, 
 G. A. Petersson, H. Nakatsuji, M. Caricato, X. Li, H. P. Hratchian, 
 A. F. Izmaylov, J. Bloino, G. Zheng, J. L. Sonnenberg, M. Hada, 
 M. Ehara, K. Toyota, R. Fukuda, J. Hasegawa, M. Ishida, T. Nakajima, 
 Y. Honda, O. Kitao, H. Nakai, T. Vreven, J. A. Montgomery, Jr., 
 J. E. Peralta, F. Ogliaro, M. Bearpark, J. J. Heyd, E. Brothers, 
 K. N. Kudin, V. N. Staroverov, T. Keith, R. Kobayashi, J. Normand, 
 K. Raghavachari, A. Rendell, J. C. Burant, S. S. Iyengar, J. Tomasi, 
 M. Cossi, N. Rega, J. M. Millam, M. Klene, J. E. Knox, J. B. Cross, 
 V. Bakken, C. Adamo, J. Jaramillo, R. Gomperts, R. E. Stratmann, 
 O. Yazyev, A. J. Austin, R. Cammi, C. Pomelli, J. W. Ochterski, 
 R. L. Martin, K. Morokuma, V. G. Zakrzewski, G. A. Voth, 
 P. Salvador, J. J. Dannenberg, S. Dapprich, A. D. Daniels, 
 O. Farkas, J. B. Foresman, J. V. Ortiz, J. Cioslowski, 
 and D. J. Fox, Gaussian, Inc., Wallingford CT, 2013.
 
 ******************************************
 Gaussian 09:  EM64L-G09RevE.01 30-Nov-2015
                 1-Mar-2019 
 ******************************************
 %NProcShared=4
 Will use up to    4 processors via shared memory.
 ------------------------------------------------------
 #p b3lyp/6-311++G(3df,2p) freq IOp(2/17=3) IOp(2/18=3)
 ------------------------------------------------------
 1/10=4,30=1,38=1/1,3;
 2/12=2,17=3,18=3,40=1/2;
 3/5=4,6=6,7=1216,11=2,16=1,25=1,30=1,71=2,74=-5,140=1/1,2,3;
 4//1;
 5/5=2,38=5,98=1/2;
 8/6=4,10=90,11=11/1;
 11/6=1,8=1,9=11,15=111,16=1/1,2,10;
 10/6=1/2;
 6/7=2,8=2,9=2,10=2,18=1,28=1/1;
 7/8=1,10=1,25=1/1,2,3,16;
 1/10=4,30=1/3;
 99//99;
 Leave Link    1 at Fri Mar  1 08:20:39 2019, MaxMem=           0 cpu:         0.2
 (Enter /home/proyectos/fulerenos/M3C-v2.0/M3C-deps_CCC/g09-AM64L-G09RevC.01/l101.exe)
 ---------
 b3lyp opt
 ---------
 Symbolic Z-matrix:
 Charge =  1 Multiplicity = 2
 O                    -3.40621  -0.73698   0. 
 C                     1.17233   0.75061   0. 
 C                     0.34327  -0.47935   0. 
 C                    -0.96893  -0.53897   0. 
 C                    -2.26836  -0.65025   0. 
 H                     1.83282   0.7136    0.87335 
 H                     1.83282   0.7136   -0.87335 
 H                     0.59032   1.66567   0. 
 H                     0.87213  -1.43804   0. 
 
 NAtoms=      9 NQM=        9 NQMF=       0 NMMI=      0 NMMIF=      0
                NMic=       0 NMicF=      0.
                    Isotopes and Nuclear Properties:
 (Nuclear quadrupole moments (NQMom) in fm**2, nuclear magnetic moments (NMagM)
  in nuclear magnetons)

  Atom         1           2           3           4           5           6           7           8           9
 IAtWgt=          16          12          12          12          12           1           1           1           1
 AtmWgt=  15.9949146  12.0000000  12.0000000  12.0000000  12.0000000   1.0078250   1.0078250   1.0078250   1.0078250
 NucSpn=           0           0           0           0           0           1           1           1           1
 AtZEff=   0.0000000   0.0000000   0.0000000   0.0000000   0.0000000   0.0000000   0.0000000   0.0000000   0.0000000
 NQMom=    0.0000000   0.0000000   0.0000000   0.0000000   0.0000000   0.0000000   0.0000000   0.0000000   0.0000000
 NMagM=    0.0000000   0.0000000   0.0000000   0.0000000   0.0000000   2.7928460   2.7928460   2.7928460   2.7928460
 AtZNuc=   8.0000000   6.0000000   6.0000000   6.0000000   6.0000000   1.0000000   1.0000000   1.0000000   1.0000000
 Leave Link  101 at Fri Mar  1 08:20:39 2019, MaxMem=    33554432 cpu:         0.3
 (Enter /home/proyectos/fulerenos/M3C-v2.0/M3C-deps_CCC/g09-AM64L-G09RevC.01/l103.exe)

 GradGradGradGradGradGradGradGradGradGradGradGradGradGradGradGradGradGrad
 Berny optimization.
 Initialization pass.
 Trust Radius=3.00D-01 FncErr=1.00D-07 GrdErr=1.00D-07
 Number of steps in this run=      2 maximum allowed number of steps=      2.
 GradGradGradGradGradGradGradGradGradGradGradGradGradGradGradGradGradGrad

 Leave Link  103 at Fri Mar  1 08:20:39 2019, MaxMem=    33554432 cpu:         0.1
 (Enter /home/proyectos/fulerenos/M3C-v2.0/M3C-deps_CCC/g09-AM64L-G09RevC.01/l202.exe)
                          Input orientation:                          
 ---------------------------------------------------------------------
 Center     Atomic      Atomic             Coordinates (Angstroms)
 Number     Number       Type             X           Y           Z
 ---------------------------------------------------------------------
      1          8           0       -3.406207   -0.736977    0.000000
      2          6           0        1.172329    0.750612    0.000000
      3          6           0        0.343269   -0.479346    0.000000
      4          6           0       -0.968928   -0.538970    0.000000
      5          6           0       -2.268356   -0.650248    0.000000
      6          1           0        1.832821    0.713602    0.873347
      7          1           0        1.832821    0.713602   -0.873347
      8          1           0        0.590323    1.665666    0.000000
      9          1           0        0.872127   -1.438042    0.000000
 ---------------------------------------------------------------------
                    Distance matrix (angstroms):
                    1          2          3          4          5
     1  O    0.000000
     2  C    4.814137   0.000000
     3  C    3.758317   1.483286   0.000000
     4  C    2.445309   2.499601   1.313551   0.000000
     5  C    1.141152   3.714932   2.617211   1.304184   0.000000
     6  H    5.505845   1.095607   2.098720   3.190841   4.409362
     7  H    5.505845   1.095607   2.098720   3.190841   4.409362
     8  H    4.663148   1.084461   2.159192   2.700312   3.679063
     9  H    4.335393   2.209146   1.094892   2.048857   3.237785
                    6          7          8          9
     6  H    0.000000
     7  H    1.746694   0.000000
     8  H    1.792474   1.792474   0.000000
     9  H    2.513014   2.513014   3.116475   0.000000
 Stoichiometry    C4H4O(1+,2)
 Framework group  CS[SG(C4H2O),X(H2)]
 Deg. of freedom    14
 Full point group                 CS      NOp   2
 Largest Abelian subgroup         CS      NOp   2
 Largest concise Abelian subgroup CS      NOp   2
                         Standard orientation:                         
 ---------------------------------------------------------------------
 Center     Atomic      Atomic             Coordinates (Angstroms)
 Number     Number       Type             X           Y           Z
 ---------------------------------------------------------------------
      1          8           0        2.315247    1.063407    0.000000
      2          6           0       -1.761762   -1.496653    0.000000
      3          6           0       -1.257963   -0.101546    0.000000
      4          6           0        0.000000    0.276535    0.000000
      5          6           0        1.232973    0.701592    0.000000
      6          1           0       -2.411313   -1.621965    0.873347
      7          1           0       -2.411313   -1.621965   -0.873347
      8          1           0       -0.974025   -2.241988    0.000000
      9          1           0       -2.004811    0.699083    0.000000
 ---------------------------------------------------------------------
 Rotational constants (GHZ):     37.5502463      2.2153401      2.1188920
 Leave Link  202 at Fri Mar  1 08:20:39 2019, MaxMem=    33554432 cpu:         0.0
 (Enter /home/proyectos/fulerenos/M3C-v2.0/M3C-deps_CCC/g09-AM64L-G09RevC.01/l301.exe)
 Standard basis: 6-311++G(3df,2p) (5D, 7F)
 Ernie: Thresh=  0.10000D-02 Tol=  0.10000D-05 Strict=F.
 There are   181 symmetry adapted cartesian basis functions of A'  symmetry.
 There are    84 symmetry adapted cartesian basis functions of A"  symmetry.
 There are   156 symmetry adapted basis functions of A'  symmetry.
 There are    79 symmetry adapted basis functions of A"  symmetry.
   235 basis functions,   338 primitive gaussians,   265 cartesian basis functions
    18 alpha electrons       17 beta electrons
       nuclear repulsion energy       137.1255214267 Hartrees.
 IExCor=  402 DFT=T Ex+Corr=B3LYP ExCW=0 ScaHFX=  0.200000
 ScaDFX=  0.800000  0.720000  1.000000  0.810000 ScalE2=  1.000000  1.000000
 IRadAn=      0 IRanWt=     -1 IRanGd=            0 ICorTp=0 IEmpDi=  4
 NAtoms=    9 NActive=    9 NUniq=    8 SFac= 1.27D+00 NAtFMM=   60 NAOKFM=F Big=F
 Integral buffers will be    131072 words long.
 Raffenetti 2 integral format.
 Two-electron integral symmetry is turned on.
 Leave Link  301 at Fri Mar  1 08:20:39 2019, MaxMem=    33554432 cpu:         0.3
 (Enter /home/proyectos/fulerenos/M3C-v2.0/M3C-deps_CCC/g09-AM64L-G09RevC.01/l302.exe)
 NPDir=0 NMtPBC=     1 NCelOv=     1 NCel=       1 NClECP=     1 NCelD=      1
         NCelK=      1 NCelE2=     1 NClLst=     1 CellRange=     0.0.
 One-electron integrals computed using PRISM.
 One-electron integral symmetry used in STVInt
 NBasis=   235 RedAO= T EigKep=  1.37D-06  NBF=   156    79
 NBsUse=   235 1.00D-06 EigRej= -1.00D+00 NBFU=   156    79
 Precomputing XC quadrature grid using
 IXCGrd= 4 IRadAn=           0 IRanWt=          -1 IRanGd=           0 AccXCQ= 0.00D+00.
 Generated NRdTot=       0 NPtTot=           0 NUsed=           0 NTot=          32
 NSgBfM=   265   265   265   265   265 MxSgAt=     9 MxSgA2=     9.
 Leave Link  302 at Fri Mar  1 08:20:39 2019, MaxMem=    33554432 cpu:         1.6
 (Enter /home/proyectos/fulerenos/M3C-v2.0/M3C-deps_CCC/g09-AM64L-G09RevC.01/l303.exe)
 DipDrv:  MaxL=1.
 Leave Link  303 at Fri Mar  1 08:20:39 2019, MaxMem=    33554432 cpu:         0.2
 (Enter /home/proyectos/fulerenos/M3C-v2.0/M3C-deps_CCC/g09-AM64L-G09RevC.01/l401.exe)
 ExpMin= 3.60D-02 ExpMax= 8.59D+03 ExpMxC= 1.30D+03 IAcc=3 IRadAn=         5 AccDes= 0.00D+00
 Harris functional with IExCor=  402 and IRadAn=       5 diagonalized for initial guess.
 HarFok:  IExCor=  402 AccDes= 0.00D+00 IRadAn=         5 IDoV= 1 UseB2=F ITyADJ=14
 ICtDFT=  3500011 ScaDFX=  1.000000  1.000000  1.000000  1.000000
 FoFCou: FMM=F IPFlag=           0 FMFlag=      100000 FMFlg1=           0
         NFxFlg=           0 DoJE=T BraDBF=F KetDBF=T FulRan=T
         wScrn=  0.000000 ICntrl=     500 IOpCl=  0 I1Cent=   200000004 NGrid=           0
         NMat0=    1 NMatS0=      1 NMatT0=    0 NMatD0=    1 NMtDS0=    0 NMtDT0=    0
 Petite list used in FoFCou.
 Harris En= -229.819562691638    
 JPrj=0 DoOrth=F DoCkMO=F.
 Initial guess orbital symmetries:
 Alpha Orbitals:
       Occupied  (A') (A') (A') (A') (A') (A') (A') (A') (A') (A')
                 (A') (A') (A") (A") (A') (A') (A") (A')
       Virtual   (A") (A') (A') (A') (A') (A") (A") (A') (A') (A")
                 (A') (A") (A') (A') (A') (A') (A") (A') (A') (A")
                 (A') (A') (A') (A') (A") (A') (A') (A') (A') (A")
                 (A') (A") (A') (A') (A") (A') (A') (A") (A') (A')
                 (A") (A') (A') (A') (A") (A') (A') (A") (A') (A")
                 (A') (A') (A") (A') (A") (A") (A') (A') (A') (A')
                 (A') (A") (A') (A') (A') (A") (A') (A") (A') (A")
                 (A') (A") (A') (A') (A") (A") (A') (A") (A') (A')
                 (A') (A') (A') (A") (A') (A") (A') (A') (A') (A")
                 (A") (A') (A') (A') (A') (A') (A") (A") (A') (A')
                 (A") (A') (A") (A') (A') (A') (A") (A") (A') (A')
                 (A') (A') (A") (A') (A') (A') (A") (A") (A') (A")
                 (A') (A') (A") (A") (A') (A") (A') (A") (A') (A')
                 (A') (A") (A") (A") (A') (A') (A") (A') (A') (A')
                 (A") (A') (A') (A') (A") (A') (A") (A') (A') (A")
                 (A') (A") (A') (A') (A') (A') (A') (A") (A") (A')
                 (A') (A") (A") (A') (A") (A') (A') (A") (A') (A')
                 (A") (A') (A') (A") (A') (A') (A") (A') (A') (A")
                 (A") (A') (A') (A') (A") (A') (A") (A') (A") (A')
                 (A') (A") (A') (A") (A') (A") (A') (A") (A') (A")
                 (A') (A') (A") (A') (A') (A') (A') (A") (A') (A")
                 (A') (A') (A') (A') (A') (A') (A')
 Beta  Orbitals:
       Occupied  (A') (A') (A') (A') (A') (A') (A') (A') (A') (A')
                 (A') (A') (A") (A") (A') (A') (A")
       Virtual   (A') (A") (A') (A') (A') (A') (A") (A") (A') (A')
                 (A") (A') (A") (A') (A') (A') (A') (A") (A') (A')
                 (A") (A') (A') (A') (A') (A") (A') (A') (A') (A')
                 (A") (A') (A") (A') (A') (A") (A') (A') (A") (A')
                 (A') (A") (A') (A') (A') (A") (A') (A') (A") (A')
                 (A") (A') (A') (A") (A') (A") (A") (A') (A') (A')
                 (A') (A') (A") (A') (A') (A') (A") (A') (A") (A')
                 (A") (A') (A") (A') (A') (A") (A") (A') (A") (A')
                 (A') (A') (A') (A') (A") (A') (A") (A') (A') (A')
                 (A") (A") (A') (A') (A') (A') (A') (A") (A") (A')
                 (A') (A") (A') (A") (A') (A') (A') (A") (A") (A')
                 (A') (A') (A') (A") (A') (A') (A') (A") (A") (A')
                 (A") (A') (A') (A") (A") (A') (A") (A') (A") (A')
                 (A') (A') (A") (A") (A") (A') (A') (A") (A') (A')
                 (A') (A") (A') (A') (A') (A") (A') (A") (A') (A')
                 (A") (A') (A") (A') (A') (A') (A') (A') (A") (A")
                 (A') (A') (A") (A") (A') (A") (A') (A') (A") (A')
                 (A') (A") (A') (A') (A") (A') (A') (A") (A') (A')
                 (A") (A") (A') (A') (A') (A") (A') (A") (A') (A")
                 (A') (A') (A") (A') (A") (A') (A") (A') (A") (A')
                 (A") (A') (A') (A") (A') (A') (A') (A') (A") (A')
                 (A") (A') (A') (A') (A') (A') (A') (A')
 The electronic state of the initial guess is 2-A'.
 Initial guess <Sx>= 0.0000 <Sy>= 0.0000 <Sz>= 0.5000 <S**2>= 0.7500 S= 0.5000
 Leave Link  401 at Fri Mar  1 08:20:41 2019, MaxMem=    33554432 cpu:         7.0
 (Enter /home/proyectos/fulerenos/M3C-v2.0/M3C-deps_CCC/g09-AM64L-G09RevC.01/l502.exe)
 UHF open shell SCF:
 Using DIIS extrapolation, IDIIS=  1040.
 Integral symmetry usage will be decided dynamically.
 IVT=      233035 IEndB=      233035 NGot=    33554432 MDV=    33408528
 LenX=    33408528 LenY=    33337862
 Requested convergence on RMS density matrix=1.00D-08 within 128 cycles.
 Requested convergence on MAX density matrix=1.00D-06.
 Requested convergence on             energy=1.00D-06.
 No special actions if energy rises.
 Fock matrices will be formed incrementally for  20 cycles.

 Cycle   1  Pass 1  IDiag  1:
 FoFJK:  IHMeth= 1 ICntrl=       0 DoSepK=F KAlg= 0 I1Cent=   0 FoldK=F
 IRaf= 960000000 NMat=   1 IRICut=       1 DoRegI=T DoRafI=F ISym2E= 1.
 FoFCou: FMM=F IPFlag=           0 FMFlag=      100000 FMFlg1=           0
         NFxFlg=           0 DoJE=F BraDBF=F KetDBF=F FulRan=T
         wScrn=  0.000000 ICntrl=       0 IOpCl=  1 I1Cent=           0 NGrid=           0
         NMat0=    1 NMatS0=      1 NMatT0=    0 NMatD0=    1 NMtDS0=    0 NMtDT0=    0
 Petite list used in FoFCou.
 E= -229.646497975484    
 DIIS: error= 2.08D-02 at cycle   1 NSaved=   1.
 NSaved= 1 IEnMin= 1 EnMin= -229.646497975484     IErMin= 1 ErrMin= 2.08D-02
 ErrMax= 2.08D-02  0.00D+00 EMaxC= 1.00D-01 BMatC= 4.76D-01 BMatP= 4.76D-01
 IDIUse=3 WtCom= 7.92D-01 WtEn= 2.08D-01
 Coeff-Com:  0.100D+01
 Coeff-En:   0.100D+01
 Coeff:      0.100D+01
 Gap=     0.200 Goal=   None    Shift=    0.000
 Gap=     0.113 Goal=   None    Shift=    0.000
 GapD=    0.113 DampG=1.000 DampE=0.500 DampFc=0.5000 IDamp=-1.
 Damping current iteration by 5.00D-01
 RMSDP=7.18D-03 MaxDP=7.43D-01              OVMax= 2.41D-01

 Cycle   2  Pass 1  IDiag  1:
 RMSU=  3.09D-03    CP:  1.05D+00
 E= -229.670123011505     Delta-E=       -0.023625036021 Rises=F Damp=T
 DIIS: error= 9.24D-03 at cycle   2 NSaved=   2.
 NSaved= 2 IEnMin= 2 EnMin= -229.670123011505     IErMin= 2 ErrMin= 9.24D-03
 ErrMax= 9.24D-03  0.00D+00 EMaxC= 1.00D-01 BMatC= 8.93D-02 BMatP= 4.76D-01
 IDIUse=3 WtCom= 9.08D-01 WtEn= 9.24D-02
 Coeff-Com:  0.216D+00 0.784D+00
 Coeff-En:   0.378D+00 0.622D+00
 Coeff:      0.231D+00 0.769D+00
 Gap=     0.206 Goal=   None    Shift=    0.000
 Gap=     0.161 Goal=   None    Shift=    0.000
 RMSDP=3.72D-03 MaxDP=3.63D-01 DE=-2.36D-02 OVMax= 1.85D-01

 Cycle   3  Pass 1  IDiag  1:
 RMSU=  2.94D-03    CP:  9.87D-01  1.10D+00
 E= -229.736548299817     Delta-E=       -0.066425288312 Rises=F Damp=F
 DIIS: error= 8.48D-03 at cycle   3 NSaved=   3.
 NSaved= 3 IEnMin= 3 EnMin= -229.736548299817     IErMin= 3 ErrMin= 8.48D-03
 ErrMax= 8.48D-03  0.00D+00 EMaxC= 1.00D-01 BMatC= 6.00D-02 BMatP= 8.93D-02
 IDIUse=3 WtCom= 9.15D-01 WtEn= 8.48D-02
 Coeff-Com:  0.146D-01 0.444D+00 0.542D+00
 Coeff-En:   0.000D+00 0.000D+00 0.100D+01
 Coeff:      0.133D-01 0.406D+00 0.580D+00
 Gap=     0.183 Goal=   None    Shift=    0.000
 Gap=     0.141 Goal=   None    Shift=    0.000
 RMSDP=2.37D-03 MaxDP=3.05D-01 DE=-6.64D-02 OVMax= 6.10D-02

 Cycle   4  Pass 1  IDiag  1:
 RMSU=  1.14D-03    CP:  1.04D+00  1.27D+00  7.17D-01
 E= -229.745484025207     Delta-E=       -0.008935725389 Rises=F Damp=F
 DIIS: error= 6.41D-03 at cycle   4 NSaved=   4.
 NSaved= 4 IEnMin= 4 EnMin= -229.745484025207     IErMin= 4 ErrMin= 6.41D-03
 ErrMax= 6.41D-03  0.00D+00 EMaxC= 1.00D-01 BMatC= 2.06D-02 BMatP= 6.00D-02
 IDIUse=3 WtCom= 9.36D-01 WtEn= 6.41D-02
 Coeff-Com: -0.109D-01 0.139D+00 0.396D+00 0.476D+00
 Coeff-En:   0.000D+00 0.000D+00 0.275D+00 0.725D+00
 Coeff:     -0.102D-01 0.130D+00 0.389D+00 0.492D+00
 Gap=     0.183 Goal=   None    Shift=    0.000
 Gap=     0.139 Goal=   None    Shift=    0.000
 RMSDP=6.33D-04 MaxDP=5.71D-02 DE=-8.94D-03 OVMax= 2.66D-02

 Cycle   5  Pass 1  IDiag  1:
 RMSU=  4.27D-04    CP:  1.03D+00  1.24D+00  7.35D-01  7.67D-01
 E= -229.749073325503     Delta-E=       -0.003589300296 Rises=F Damp=F
 DIIS: error= 2.28D-03 at cycle   5 NSaved=   5.
 NSaved= 5 IEnMin= 5 EnMin= -229.749073325503     IErMin= 5 ErrMin= 2.28D-03
 ErrMax= 2.28D-03  0.00D+00 EMaxC= 1.00D-01 BMatC= 2.71D-03 BMatP= 2.06D-02
 IDIUse=3 WtCom= 9.77D-01 WtEn= 2.28D-02
 Coeff-Com: -0.120D-01 0.364D-01 0.207D+00 0.339D+00 0.430D+00
 Coeff-En:   0.000D+00 0.000D+00 0.000D+00 0.943D-01 0.906D+00
 Coeff:     -0.117D-01 0.356D-01 0.202D+00 0.333D+00 0.441D+00
 Gap=     0.180 Goal=   None    Shift=    0.000
 Gap=     0.142 Goal=   None    Shift=    0.000
 RMSDP=2.29D-04 MaxDP=1.97D-02 DE=-3.59D-03 OVMax= 1.88D-02

 Cycle   6  Pass 1  IDiag  1:
 RMSU=  1.26D-04    CP:  1.03D+00  1.23D+00  7.69D-01  7.84D-01  7.25D-01
 E= -229.749715866378     Delta-E=       -0.000642540876 Rises=F Damp=F
 DIIS: error= 6.20D-04 at cycle   6 NSaved=   6.
 NSaved= 6 IEnMin= 6 EnMin= -229.749715866378     IErMin= 6 ErrMin= 6.20D-04
 ErrMax= 6.20D-04  0.00D+00 EMaxC= 1.00D-01 BMatC= 2.30D-04 BMatP= 2.71D-03
 IDIUse=3 WtCom= 9.94D-01 WtEn= 6.20D-03
 Coeff-Com: -0.429D-02-0.598D-02 0.361D-01 0.846D-01 0.254D+00 0.636D+00
 Coeff-En:   0.000D+00 0.000D+00 0.000D+00 0.000D+00 0.515D-01 0.948D+00
 Coeff:     -0.426D-02-0.595D-02 0.359D-01 0.840D-01 0.252D+00 0.638D+00
 Gap=     0.182 Goal=   None    Shift=    0.000
 Gap=     0.142 Goal=   None    Shift=    0.000
 RMSDP=7.18D-05 MaxDP=4.68D-03 DE=-6.43D-04 OVMax= 6.02D-03

 Cycle   7  Pass 1  IDiag  1:
 RMSU=  5.86D-05    CP:  1.03D+00  1.23D+00  7.74D-01  7.96D-01  7.47D-01
                    CP:  7.47D-01
 E= -229.749785578435     Delta-E=       -0.000069712057 Rises=F Damp=F
 DIIS: error= 1.49D-04 at cycle   7 NSaved=   7.
 NSaved= 7 IEnMin= 7 EnMin= -229.749785578435     IErMin= 7 ErrMin= 1.49D-04
 ErrMax= 1.49D-04  0.00D+00 EMaxC= 1.00D-01 BMatC= 1.20D-05 BMatP= 2.30D-04
 IDIUse=3 WtCom= 9.99D-01 WtEn= 1.49D-03
 Coeff-Com:  0.170D-02-0.544D-02-0.281D-01-0.456D-01-0.413D-01 0.670D-01
 Coeff-Com:  0.105D+01
 Coeff-En:   0.000D+00 0.000D+00 0.000D+00 0.000D+00 0.000D+00 0.000D+00
 Coeff-En:   0.100D+01
 Coeff:      0.170D-02-0.543D-02-0.281D-01-0.456D-01-0.413D-01 0.669D-01
 Coeff:      0.105D+01
 Gap=     0.182 Goal=   None    Shift=    0.000
 Gap=     0.142 Goal=   None    Shift=    0.000
 RMSDP=4.87D-05 MaxDP=5.44D-03 DE=-6.97D-05 OVMax= 3.22D-03

 Cycle   8  Pass 1  IDiag  1:
 RMSU=  2.14D-05    CP:  1.03D+00  1.23D+00  7.74D-01  8.18D-01  7.95D-01
                    CP:  8.53D-01  1.17D+00
 E= -229.749797523340     Delta-E=       -0.000011944905 Rises=F Damp=F
 DIIS: error= 1.06D-04 at cycle   8 NSaved=   8.
 NSaved= 8 IEnMin= 8 EnMin= -229.749797523340     IErMin= 8 ErrMin= 1.06D-04
 ErrMax= 1.06D-04  0.00D+00 EMaxC= 1.00D-01 BMatC= 3.50D-06 BMatP= 1.20D-05
 IDIUse=3 WtCom= 9.99D-01 WtEn= 1.06D-03
 Coeff-Com:  0.147D-02-0.857D-03-0.129D-01-0.292D-01-0.585D-01-0.124D+00
 Coeff-Com:  0.260D+00 0.964D+00
 Coeff-En:   0.000D+00 0.000D+00 0.000D+00 0.000D+00 0.000D+00 0.000D+00
 Coeff-En:   0.000D+00 0.100D+01
 Coeff:      0.147D-02-0.856D-03-0.128D-01-0.291D-01-0.584D-01-0.124D+00
 Coeff:      0.260D+00 0.964D+00
 Gap=     0.183 Goal=   None    Shift=    0.000
 Gap=     0.142 Goal=   None    Shift=    0.000
 RMSDP=2.29D-05 MaxDP=2.16D-03 DE=-1.19D-05 OVMax= 1.84D-03

 Cycle   9  Pass 1  IDiag  1:
 RMSU=  1.01D-05    CP:  1.03D+00  1.23D+00  7.76D-01  8.17D-01  7.85D-01
                    CP:  8.89D-01  1.32D+00  1.21D+00
 E= -229.749801095962     Delta-E=       -0.000003572621 Rises=F Damp=F
 DIIS: error= 4.60D-05 at cycle   9 NSaved=   9.
 NSaved= 9 IEnMin= 9 EnMin= -229.749801095962     IErMin= 9 ErrMin= 4.60D-05
 ErrMax= 4.60D-05  0.00D+00 EMaxC= 1.00D-01 BMatC= 6.35D-07 BMatP= 3.50D-06
 IDIUse=1 WtCom= 1.00D+00 WtEn= 0.00D+00
 Coeff-Com: -0.390D-04 0.844D-03 0.380D-02 0.374D-02 0.128D-03-0.444D-01
 Coeff-Com: -0.157D+00 0.150D+00 0.104D+01
 Coeff:     -0.390D-04 0.844D-03 0.380D-02 0.374D-02 0.128D-03-0.444D-01
 Coeff:     -0.157D+00 0.150D+00 0.104D+01
 Gap=     0.183 Goal=   None    Shift=    0.000
 Gap=     0.142 Goal=   None    Shift=    0.000
 RMSDP=1.06D-05 MaxDP=1.07D-03 DE=-3.57D-06 OVMax= 1.13D-03

 Cycle  10  Pass 1  IDiag  1:
 RMSU=  4.70D-06    CP:  1.03D+00  1.23D+00  7.76D-01  8.15D-01  7.87D-01
                    CP:  8.96D-01  1.40D+00  1.36D+00  1.32D+00
 E= -229.749801881919     Delta-E=       -0.000000785957 Rises=F Damp=F
 DIIS: error= 1.86D-05 at cycle  10 NSaved=  10.
 NSaved=10 IEnMin=10 EnMin= -229.749801881919     IErMin=10 ErrMin= 1.86D-05
 ErrMax= 1.86D-05  0.00D+00 EMaxC= 1.00D-01 BMatC= 2.47D-07 BMatP= 6.35D-07
 IDIUse=1 WtCom= 1.00D+00 WtEn= 0.00D+00
 Coeff-Com: -0.285D-03 0.660D-03 0.403D-02 0.723D-02 0.997D-02-0.527D-03
 Coeff-Com: -0.123D+00-0.114D+00 0.532D+00 0.684D+00
 Coeff:     -0.285D-03 0.660D-03 0.403D-02 0.723D-02 0.997D-02-0.527D-03
 Coeff:     -0.123D+00-0.114D+00 0.532D+00 0.684D+00
 Gap=     0.183 Goal=   None    Shift=    0.000
 Gap=     0.142 Goal=   None    Shift=    0.000
 RMSDP=3.68D-06 MaxDP=3.09D-04 DE=-7.86D-07 OVMax= 4.32D-04

 Cycle  11  Pass 1  IDiag  1:
 RMSU=  2.09D-06    CP:  1.03D+00  1.23D+00  7.76D-01  8.15D-01  7.82D-01
                    CP:  8.97D-01  1.40D+00  1.41D+00  1.52D+00  1.00D+00
 E= -229.749802038777     Delta-E=       -0.000000156858 Rises=F Damp=F
 DIIS: error= 1.03D-05 at cycle  11 NSaved=  11.
 NSaved=11 IEnMin=11 EnMin= -229.749802038777     IErMin=11 ErrMin= 1.03D-05
 ErrMax= 1.03D-05  0.00D+00 EMaxC= 1.00D-01 BMatC= 3.62D-08 BMatP= 2.47D-07
 IDIUse=1 WtCom= 1.00D+00 WtEn= 0.00D+00
 Coeff-Com: -0.122D-03 0.684D-04 0.632D-03 0.223D-02 0.404D-02 0.119D-01
 Coeff-Com: -0.870D-02-0.773D-01-0.840D-01 0.231D+00 0.920D+00
 Coeff:     -0.122D-03 0.684D-04 0.632D-03 0.223D-02 0.404D-02 0.119D-01
 Coeff:     -0.870D-02-0.773D-01-0.840D-01 0.231D+00 0.920D+00
 Gap=     0.183 Goal=   None    Shift=    0.000
 Gap=     0.142 Goal=   None    Shift=    0.000
 RMSDP=1.93D-06 MaxDP=1.94D-04 DE=-1.57D-07 OVMax= 2.77D-04

 Cycle  12  Pass 1  IDiag  1:
 RMSU=  9.85D-07    CP:  1.03D+00  1.23D+00  7.76D-01  8.14D-01  7.82D-01
                    CP:  8.98D-01  1.40D+00  1.43D+00  1.58D+00  1.17D+00
                    CP:  1.21D+00
 E= -229.749802072824     Delta-E=       -0.000000034047 Rises=F Damp=F
 DIIS: error= 3.52D-06 at cycle  12 NSaved=  12.
 NSaved=12 IEnMin=12 EnMin= -229.749802072824     IErMin=12 ErrMin= 3.52D-06
 ErrMax= 3.52D-06  0.00D+00 EMaxC= 1.00D-01 BMatC= 3.88D-09 BMatP= 3.62D-08
 IDIUse=1 WtCom= 1.00D+00 WtEn= 0.00D+00
 Coeff-Com:  0.204D-04-0.698D-04-0.535D-03-0.714D-03-0.790D-03 0.210D-02
 Coeff-Com:  0.169D-01 0.720D-02-0.100D+00-0.773D-01 0.147D+00 0.101D+01
 Coeff:      0.204D-04-0.698D-04-0.535D-03-0.714D-03-0.790D-03 0.210D-02
 Coeff:      0.169D-01 0.720D-02-0.100D+00-0.773D-01 0.147D+00 0.101D+01
 Gap=     0.183 Goal=   None    Shift=    0.000
 Gap=     0.142 Goal=   None    Shift=    0.000
 RMSDP=1.13D-06 MaxDP=1.07D-04 DE=-3.40D-08 OVMax= 9.39D-05

 Cycle  13  Pass 1  IDiag  1:
 RMSU=  4.16D-07    CP:  1.03D+00  1.23D+00  7.76D-01  8.14D-01  7.83D-01
                    CP:  8.97D-01  1.41D+00  1.43D+00  1.58D+00  1.21D+00
                    CP:  1.42D+00  1.19D+00
 E= -229.749802077425     Delta-E=       -0.000000004601 Rises=F Damp=F
 DIIS: error= 1.14D-06 at cycle  13 NSaved=  13.
 NSaved=13 IEnMin=13 EnMin= -229.749802077425     IErMin=13 ErrMin= 1.14D-06
 ErrMax= 1.14D-06  0.00D+00 EMaxC= 1.00D-01 BMatC= 3.74D-10 BMatP= 3.88D-09
 IDIUse=1 WtCom= 1.00D+00 WtEn= 0.00D+00
 Coeff-Com:  0.113D-04-0.923D-05-0.110D-03-0.304D-03-0.466D-03-0.952D-03
 Coeff-Com:  0.255D-02 0.882D-02 0.488D-03-0.351D-01-0.105D+00 0.865D-01
 Coeff-Com:  0.104D+01
 Coeff:      0.113D-04-0.923D-05-0.110D-03-0.304D-03-0.466D-03-0.952D-03
 Coeff:      0.255D-02 0.882D-02 0.488D-03-0.351D-01-0.105D+00 0.865D-01
 Coeff:      0.104D+01
 Gap=     0.183 Goal=   None    Shift=    0.000
 Gap=     0.142 Goal=   None    Shift=    0.000
 RMSDP=3.79D-07 MaxDP=3.77D-05 DE=-4.60D-09 OVMax= 2.95D-05

 Cycle  14  Pass 1  IDiag  1:
 RMSU=  1.09D-07    CP:  1.03D+00  1.23D+00  7.76D-01  8.14D-01  7.83D-01
                    CP:  8.98D-01  1.41D+00  1.43D+00  1.58D+00  1.22D+00
                    CP:  1.47D+00  1.34D+00  1.21D+00
 E= -229.749802077916     Delta-E=       -0.000000000492 Rises=F Damp=F
 DIIS: error= 3.46D-07 at cycle  14 NSaved=  14.
 NSaved=14 IEnMin=14 EnMin= -229.749802077916     IErMin=14 ErrMin= 3.46D-07
 ErrMax= 3.46D-07  0.00D+00 EMaxC= 1.00D-01 BMatC= 5.43D-11 BMatP= 3.74D-10
 IDIUse=1 WtCom= 1.00D+00 WtEn= 0.00D+00
 Coeff-Com: -0.466D-05 0.111D-04 0.494D-04 0.891D-04 0.721D-04-0.156D-03
 Coeff-Com: -0.170D-02-0.135D-02 0.994D-02 0.964D-02-0.129D-01-0.107D+00
 Coeff-Com:  0.264D-02 0.110D+01
 Coeff:     -0.466D-05 0.111D-04 0.494D-04 0.891D-04 0.721D-04-0.156D-03
 Coeff:     -0.170D-02-0.135D-02 0.994D-02 0.964D-02-0.129D-01-0.107D+00
 Coeff:      0.264D-02 0.110D+01
 Gap=     0.183 Goal=   None    Shift=    0.000
 Gap=     0.142 Goal=   None    Shift=    0.000
 RMSDP=1.27D-07 MaxDP=1.41D-05 DE=-4.92D-10 OVMax= 7.03D-06

 Cycle  15  Pass 1  IDiag  1:
 RMSU=  3.63D-08    CP:  1.03D+00  1.23D+00  7.76D-01  8.14D-01  7.83D-01
                    CP:  8.98D-01  1.41D+00  1.43D+00  1.58D+00  1.22D+00
                    CP:  1.47D+00  1.35D+00  1.34D+00  1.32D+00
 E= -229.749802077965     Delta-E=       -0.000000000049 Rises=F Damp=F
 DIIS: error= 1.14D-07 at cycle  15 NSaved=  15.
 NSaved=15 IEnMin=15 EnMin= -229.749802077965     IErMin=15 ErrMin= 1.14D-07
 ErrMax= 1.14D-07  0.00D+00 EMaxC= 1.00D-01 BMatC= 4.58D-12 BMatP= 5.43D-11
 IDIUse=1 WtCom= 1.00D+00 WtEn= 0.00D+00
 Coeff-Com: -0.187D-05 0.215D-05 0.142D-04 0.414D-04 0.691D-04 0.165D-03
 Coeff-Com: -0.378D-03-0.948D-03-0.516D-03 0.462D-02 0.123D-01-0.872D-02
 Coeff-Com: -0.122D+00-0.533D-01 0.117D+01
 Coeff:     -0.187D-05 0.215D-05 0.142D-04 0.414D-04 0.691D-04 0.165D-03
 Coeff:     -0.378D-03-0.948D-03-0.516D-03 0.462D-02 0.123D-01-0.872D-02
 Coeff:     -0.122D+00-0.533D-01 0.117D+01
 Gap=     0.183 Goal=   None    Shift=    0.000
 Gap=     0.142 Goal=   None    Shift=    0.000
 RMSDP=3.34D-08 MaxDP=2.30D-06 DE=-4.90D-11 OVMax= 2.11D-06

 Cycle  16  Pass 1  IDiag  1:
 RMSU=  1.04D-08    CP:  1.03D+00  1.23D+00  7.76D-01  8.14D-01  7.83D-01
                    CP:  8.98D-01  1.41D+00  1.43D+00  1.58D+00  1.22D+00
                    CP:  1.47D+00  1.35D+00  1.36D+00  1.46D+00  1.39D+00
 E= -229.749802077972     Delta-E=       -0.000000000007 Rises=F Damp=F
 DIIS: error= 4.90D-08 at cycle  16 NSaved=  16.
 NSaved=16 IEnMin=16 EnMin= -229.749802077972     IErMin=16 ErrMin= 4.90D-08
 ErrMax= 4.90D-08  0.00D+00 EMaxC= 1.00D-01 BMatC= 4.36D-13 BMatP= 4.58D-12
 IDIUse=1 WtCom= 1.00D+00 WtEn= 0.00D+00
 Coeff-Com:  0.565D-06-0.110D-05-0.355D-05-0.990D-05-0.562D-05 0.389D-05
 Coeff-Com:  0.115D-03 0.178D-03-0.754D-03-0.703D-03-0.973D-04 0.879D-02
 Coeff-Com:  0.561D-02-0.719D-01-0.402D-01 0.110D+01
 Coeff:      0.565D-06-0.110D-05-0.355D-05-0.990D-05-0.562D-05 0.389D-05
 Coeff:      0.115D-03 0.178D-03-0.754D-03-0.703D-03-0.973D-04 0.879D-02
 Coeff:      0.561D-02-0.719D-01-0.402D-01 0.110D+01
 Gap=     0.183 Goal=   None    Shift=    0.000
 Gap=     0.142 Goal=   None    Shift=    0.000
 RMSDP=1.22D-08 MaxDP=1.53D-06 DE=-6.71D-12 OVMax= 3.60D-07

 Cycle  17  Pass 1  IDiag  1:
 RMSU=  2.14D-09    CP:  1.03D+00  1.23D+00  7.76D-01  8.14D-01  7.83D-01
                    CP:  8.98D-01  1.41D+00  1.43D+00  1.58D+00  1.21D+00
                    CP:  1.47D+00  1.35D+00  1.35D+00  1.48D+00  1.48D+00
                    CP:  1.23D+00
 E= -229.749802077968     Delta-E=        0.000000000004 Rises=F Damp=F
 DIIS: error= 6.22D-09 at cycle  17 NSaved=  17.
 NSaved=17 IEnMin=16 EnMin= -229.749802077972     IErMin=17 ErrMin= 6.22D-09
 ErrMax= 6.22D-09  0.00D+00 EMaxC= 1.00D-01 BMatC= 9.75D-15 BMatP= 4.36D-13
 IDIUse=1 WtCom= 1.00D+00 WtEn= 0.00D+00
 Coeff-Com:  0.119D-08 0.445D-07-0.342D-06-0.728D-06-0.312D-05-0.772D-05
 Coeff-Com:  0.101D-04 0.145D-04 0.888D-04-0.109D-03-0.475D-03-0.523D-03
 Coeff-Com:  0.439D-02 0.103D-01-0.522D-01-0.123D+00 0.116D+01
 Coeff:      0.119D-08 0.445D-07-0.342D-06-0.728D-06-0.312D-05-0.772D-05
 Coeff:      0.101D-04 0.145D-04 0.888D-04-0.109D-03-0.475D-03-0.523D-03
 Coeff:      0.439D-02 0.103D-01-0.522D-01-0.123D+00 0.116D+01
 Gap=     0.183 Goal=   None    Shift=    0.000
 Gap=     0.142 Goal=   None    Shift=    0.000
 RMSDP=1.79D-09 MaxDP=1.98D-07 DE= 4.04D-12 OVMax= 6.82D-08

 SCF Done:  E(UB3LYP) =  -229.749802078     A.U. after   17 cycles
            NFock= 17  Conv=0.18D-08     -V/T= 2.0042
 <Sx>= 0.0000 <Sy>= 0.0000 <Sz>= 0.5000 <S**2>= 0.7595 S= 0.5047
 <L.S>= 0.000000000000E+00
 KE= 2.287793974551D+02 PE=-8.014133199014D+02 EE= 2.057585989417D+02
 Annihilation of the first spin contaminant:
 S**2 before annihilation     0.7595,   after     0.7501
 Leave Link  502 at Fri Mar  1 08:23:23 2019, MaxMem=    33554432 cpu:       645.9
 (Enter /home/proyectos/fulerenos/M3C-v2.0/M3C-deps_CCC/g09-AM64L-G09RevC.01/l801.exe)
 DoSCS=F DFT=T ScalE2(SS,OS)=  1.000000  1.000000
 Range of M.O.s used for correlation:     1   235
 NBasis=   235 NAE=    18 NBE=    17 NFC=     0 NFV=     0
 NROrb=    235 NOA=    18 NOB=    17 NVA=   217 NVB=   218

 **** Warning!!: The largest alpha MO coefficient is  0.22585478D+03


 **** Warning!!: The largest beta MO coefficient is  0.23961053D+03

 Leave Link  801 at Fri Mar  1 08:23:23 2019, MaxMem=    33554432 cpu:         0.1
 (Enter /home/proyectos/fulerenos/M3C-v2.0/M3C-deps_CCC/g09-AM64L-G09RevC.01/l1101.exe)
 Using compressed storage, NAtomX=     9.
 Will process     10 centers per pass.
 Leave Link 1101 at Fri Mar  1 08:23:23 2019, MaxMem=    33554432 cpu:         1.5
 (Enter /home/proyectos/fulerenos/M3C-v2.0/M3C-deps_CCC/g09-AM64L-G09RevC.01/l1102.exe)
 Symmetrizing basis deriv contribution to polar:
 IMax=3 JMax=2 DiffMx= 0.00D+00
 Leave Link 1102 at Fri Mar  1 08:23:23 2019, MaxMem=    33554432 cpu:         0.2
 (Enter /home/proyectos/fulerenos/M3C-v2.0/M3C-deps_CCC/g09-AM64L-G09RevC.01/l1110.exe)
 Forming Gx(P) for the SCF density, NAtomX=     9.
 Integral derivatives from FoFJK, PRISM(SPDF).
 Do as many integral derivatives as possible in FoFJK.
 G2DrvN: MDV=      33554256.
 G2DrvN: will do    10 centers at a time, making    1 passes.
 Calling FoFCou, ICntrl=  3107 FMM=F I1Cent=   0 AccDes= 0.00D+00.
 FoFJK:  IHMeth= 1 ICntrl=    3107 DoSepK=F KAlg= 0 I1Cent=   0 FoldK=F
 IRaf=         0 NMat=   1 IRICut=       1 DoRegI=T DoRafI=F ISym2E= 1.
 FoFCou: FMM=F IPFlag=           0 FMFlag=      100000 FMFlg1=           0
         NFxFlg=           0 DoJE=F BraDBF=F KetDBF=F FulRan=T
         wScrn=  0.000000 ICntrl=    3107 IOpCl=  1 I1Cent=           0 NGrid=           0
         NMat0=    1 NMatS0=      1 NMatT0=    0 NMatD0=    1 NMtDS0=    0 NMtDT0=    0
 Petite list used in FoFCou.
 End of G2Drv F.D. properties file   721 does not exist.
 End of G2Drv F.D. properties file   722 does not exist.
 End of G2Drv F.D. properties file   788 does not exist.
 Leave Link 1110 at Fri Mar  1 08:24:47 2019, MaxMem=    33554432 cpu:       333.7
 (Enter /home/proyectos/fulerenos/M3C-v2.0/M3C-deps_CCC/g09-AM64L-G09RevC.01/l1002.exe)
 Minotr:  UHF open shell wavefunction.
          IDoAtm=111111111
          Direct CPHF calculation.
          Differentiating once with respect to electric field.
                with respect to dipole field.
          Differentiating once with respect to nuclear coordinates.
          Using symmetry in CPHF.
          Requested convergence is 1.0D-08 RMS, and 1.0D-07 maximum.
          Secondary convergence is 1.0D-12 RMS, and 1.0D-12 maximum.
          NewPWx=T KeepS1=F KeepF1=F KeepIn=T MapXYZ=F SortEE=F KeepMc=T.
          MDV=      33553868 using IRadAn=       2.
 Generate precomputed XC quadrature information.
          Solving linear equations simultaneously, MaxMat=       0.
 FoFJK:  IHMeth= 1 ICntrl=       0 DoSepK=F KAlg= 0 I1Cent=   0 FoldK=F
 IRaf= 960000000 NMat=  27 IRICut=      67 DoRegI=T DoRafI=T ISym2E= 2.
 FoFCou: FMM=F IPFlag=           0 FMFlag=      100000 FMFlg1=           0
         NFxFlg=           0 DoJE=F BraDBF=F KetDBF=F FulRan=T
         wScrn=  0.000000 ICntrl=       0 IOpCl=  1 I1Cent=           0 NGrid=           0
         NMat0=   27 NMatS0=     27 NMatT0=    0 NMatD0=   27 NMtDS0=    0 NMtDT0=    0
 Integrals replicated using symmetry in FoFCou.
          There are    27 degrees of freedom in the 1st order CPHF.  IDoFFX=4 NUNeed=    27.
     27 vectors produced by pass  0 Test12= 2.82D-14 3.70D-09 XBig12= 2.63D+02 9.58D+00.
 AX will form    27 AO Fock derivatives at one time.
     27 vectors produced by pass  1 Test12= 2.82D-14 3.70D-09 XBig12= 6.69D+01 1.49D+00.
     27 vectors produced by pass  2 Test12= 2.82D-14 3.70D-09 XBig12= 2.02D+00 3.54D-01.
     27 vectors produced by pass  3 Test12= 2.82D-14 3.70D-09 XBig12= 4.10D-02 3.62D-02.
     27 vectors produced by pass  4 Test12= 2.82D-14 3.70D-09 XBig12= 4.89D-04 9.66D-03.
     27 vectors produced by pass  5 Test12= 2.82D-14 3.70D-09 XBig12= 6.56D-06 5.79D-04.
     20 vectors produced by pass  6 Test12= 2.82D-14 3.70D-09 XBig12= 3.10D-08 3.95D-05.
      9 vectors produced by pass  7 Test12= 2.82D-14 3.70D-09 XBig12= 1.57D-10 1.34D-06.
      6 vectors produced by pass  8 Test12= 2.82D-14 3.70D-09 XBig12= 4.53D-12 4.70D-07.
      3 vectors produced by pass  9 Test12= 2.82D-14 3.70D-09 XBig12= 2.78D-13 1.02D-07.
      3 vectors produced by pass 10 Test12= 2.82D-14 3.70D-09 XBig12= 7.22D-15 1.45D-08.
      2 vectors produced by pass 11 Test12= 2.82D-14 3.70D-09 XBig12= 1.22D-15 5.04D-09.
 InvSVY:  IOpt=1 It=  1 EMax= 3.55D-15
 Solved reduced A of dimension   205 with    27 vectors.
 FullF1:  Do perturbations    1 to    27.
 Isotropic polarizability for W=    0.000000       50.70 Bohr**3.
 End of Minotr F.D. properties file   721 does not exist.
 End of Minotr F.D. properties file   722 does not exist.
 End of Minotr F.D. properties file   788 does not exist.
 Leave Link 1002 at Fri Mar  1 08:30:19 2019, MaxMem=    33554432 cpu:      1323.2
 (Enter /home/proyectos/fulerenos/M3C-v2.0/M3C-deps_CCC/g09-AM64L-G09RevC.01/l601.exe)
 Copying SCF densities to generalized density rwf, IOpCl= 1 IROHF=0.

 **********************************************************************

            Population analysis using the SCF density.

 **********************************************************************

 Orbital symmetries:
 Alpha Orbitals:
       Occupied  (A') (A') (A') (A') (A') (A') (A') (A') (A') (A')
                 (A') (A') (A") (A') (A") (A') (A") (A')
       Virtual   (A") (A') (A') (A') (A") (A') (A") (A') (A") (A')
                 (A') (A") (A') (A') (A') (A') (A") (A') (A') (A')
                 (A') (A") (A') (A") (A') (A') (A") (A') (A') (A')
                 (A') (A") (A') (A') (A') (A") (A") (A') (A') (A')
                 (A") (A') (A') (A') (A") (A') (A') (A") (A") (A')
                 (A') (A') (A") (A') (A") (A") (A') (A') (A') (A')
                 (A') (A") (A') (A') (A') (A") (A') (A") (A') (A")
                 (A') (A") (A') (A") (A') (A") (A') (A") (A') (A')
                 (A') (A') (A') (A") (A') (A") (A') (A') (A") (A')
                 (A") (A') (A') (A') (A') (A') (A") (A") (A') (A")
                 (A') (A') (A") (A') (A') (A') (A") (A') (A") (A')
                 (A') (A') (A") (A') (A") (A') (A") (A') (A') (A')
                 (A") (A') (A") (A') (A") (A") (A') (A') (A") (A')
                 (A') (A") (A") (A") (A') (A') (A") (A') (A') (A')
                 (A') (A") (A') (A") (A') (A') (A") (A') (A') (A")
                 (A') (A") (A') (A') (A') (A') (A') (A") (A") (A')
                 (A") (A') (A') (A") (A") (A') (A') (A") (A') (A")
                 (A') (A') (A') (A") (A') (A") (A') (A') (A") (A')
                 (A") (A') (A') (A') (A") (A') (A") (A') (A") (A')
                 (A') (A") (A") (A') (A') (A") (A') (A") (A') (A")
                 (A') (A') (A") (A') (A') (A') (A') (A") (A') (A')
                 (A") (A') (A') (A') (A') (A') (A')
 Beta  Orbitals:
       Occupied  (A') (A') (A') (A') (A') (A') (A') (A') (A') (A')
                 (A') (A") (A') (A') (A") (A') (A")
       Virtual   (A') (A") (A') (A') (A') (A') (A") (A") (A') (A")
                 (A') (A') (A") (A') (A') (A') (A') (A") (A') (A')
                 (A') (A") (A') (A') (A") (A') (A') (A") (A') (A')
                 (A') (A') (A") (A') (A') (A") (A') (A") (A') (A')
                 (A') (A") (A') (A') (A') (A") (A') (A") (A') (A")
                 (A') (A') (A') (A") (A") (A') (A") (A') (A') (A')
                 (A') (A') (A") (A') (A') (A') (A") (A") (A') (A')
                 (A") (A') (A") (A') (A") (A') (A") (A') (A") (A')
                 (A') (A') (A') (A') (A") (A') (A") (A') (A') (A")
                 (A') (A") (A') (A') (A') (A') (A') (A") (A") (A')
                 (A') (A") (A') (A") (A') (A') (A') (A") (A') (A")
                 (A') (A') (A') (A") (A') (A") (A') (A") (A') (A')
                 (A') (A") (A') (A") (A") (A') (A") (A') (A') (A")
                 (A') (A") (A') (A") (A") (A') (A') (A") (A') (A')
                 (A') (A") (A') (A') (A") (A') (A') (A") (A') (A')
                 (A") (A') (A") (A') (A') (A') (A') (A') (A") (A")
                 (A') (A") (A') (A') (A") (A") (A') (A') (A") (A')
                 (A") (A') (A') (A') (A") (A') (A") (A') (A') (A")
                 (A') (A") (A') (A') (A') (A") (A') (A") (A') (A')
                 (A") (A') (A") (A") (A') (A') (A") (A') (A") (A')
                 (A") (A') (A') (A") (A') (A') (A') (A') (A") (A')
                 (A") (A') (A') (A') (A') (A') (A') (A')
 The electronic state is 2-A'.
 Alpha  occ. eigenvalues --  -19.46636 -10.56358 -10.48827 -10.48598 -10.39175
 Alpha  occ. eigenvalues --   -1.39548  -1.09212  -1.00474  -0.89995  -0.77396
 Alpha  occ. eigenvalues --   -0.75674  -0.73136  -0.71948  -0.66930  -0.64135
 Alpha  occ. eigenvalues --   -0.60655  -0.55174  -0.51902
 Alpha virt. eigenvalues --   -0.33628  -0.21064  -0.16575  -0.13847  -0.13147
 Alpha virt. eigenvalues --   -0.12882  -0.10826  -0.10601  -0.08487  -0.08346
 Alpha virt. eigenvalues --   -0.07627  -0.06027  -0.05273  -0.04289  -0.03664
 Alpha virt. eigenvalues --   -0.02916  -0.02383  -0.00762   0.00483   0.01500
 Alpha virt. eigenvalues --    0.02319   0.02450   0.03061   0.04032   0.06304
 Alpha virt. eigenvalues --    0.07798   0.08187   0.08597   0.09886   0.12259
 Alpha virt. eigenvalues --    0.13080   0.13664   0.14428   0.15784   0.16286
 Alpha virt. eigenvalues --    0.16290   0.19318   0.19812   0.22275   0.24262
 Alpha virt. eigenvalues --    0.25802   0.26080   0.27555   0.31383   0.31697
 Alpha virt. eigenvalues --    0.33995   0.35095   0.35181   0.36632   0.37013
 Alpha virt. eigenvalues --    0.41619   0.43926   0.44236   0.44771   0.45143
 Alpha virt. eigenvalues --    0.46201   0.47094   0.49640   0.53273   0.54908
 Alpha virt. eigenvalues --    0.56525   0.58362   0.61798   0.65915   0.69021
 Alpha virt. eigenvalues --    0.70504   0.73072   0.73647   0.75466   0.77021
 Alpha virt. eigenvalues --    0.82650   0.84657   0.84783   0.87235   0.87570
 Alpha virt. eigenvalues --    0.91229   0.91341   0.93571   0.97020   0.98047
 Alpha virt. eigenvalues --    0.98371   0.99647   1.02737   1.03445   1.06844
 Alpha virt. eigenvalues --    1.10206   1.15593   1.17088   1.19655   1.20766
 Alpha virt. eigenvalues --    1.21316   1.23175   1.24352   1.26289   1.31986
 Alpha virt. eigenvalues --    1.33656   1.34592   1.42686   1.43626   1.50720
 Alpha virt. eigenvalues --    1.50851   1.55493   1.59777   1.64393   1.70141
 Alpha virt. eigenvalues --    1.77368   1.81465   1.85543   1.86309   1.89223
 Alpha virt. eigenvalues --    1.97964   2.05172   2.17511   2.32084   2.34966
 Alpha virt. eigenvalues --    2.35541   2.38310   2.39356   2.42512   2.44148
 Alpha virt. eigenvalues --    2.48536   2.51046   2.52503   2.58330   2.58561
 Alpha virt. eigenvalues --    2.64276   2.64780   2.66619   2.68701   2.71331
 Alpha virt. eigenvalues --    2.74708   2.75689   2.79808   2.82581   2.86528
 Alpha virt. eigenvalues --    2.92692   2.94253   2.96152   2.96408   2.99731
 Alpha virt. eigenvalues --    3.09228   3.09386   3.10938   3.18661   3.20552
 Alpha virt. eigenvalues --    3.37846   3.39515   3.42663   3.50054   3.54355
 Alpha virt. eigenvalues --    3.60057   3.60856   3.64616   3.75883   3.78826
 Alpha virt. eigenvalues --    3.89345   3.96647   3.97271   4.04783   4.11623
 Alpha virt. eigenvalues --    4.12151   4.14077   4.21576   4.24634   4.26294
 Alpha virt. eigenvalues --    4.35915   4.38650   4.46698   4.75076   4.75370
 Alpha virt. eigenvalues --    4.75487   4.78304   5.01327   5.04058   5.10690
 Alpha virt. eigenvalues --    5.31774   5.31939   5.36338   5.48876   5.52569
 Alpha virt. eigenvalues --    5.54096   5.62131   5.63445   5.76098   6.57192
 Alpha virt. eigenvalues --    6.59306   6.62970   6.63830   6.75439   6.76504
 Alpha virt. eigenvalues --    6.79490   6.86512   7.00007   7.02645   7.12191
 Alpha virt. eigenvalues --    7.14380   7.20386   7.27100   7.36998   7.42076
 Alpha virt. eigenvalues --    7.45599   7.77275   7.83693   7.84674   8.08530
 Alpha virt. eigenvalues --    8.14918   8.69961  14.00086  14.00381  14.63311
 Alpha virt. eigenvalues --   14.63465  14.86669  24.20124  24.49181  25.67265
 Alpha virt. eigenvalues --   25.81100  50.51932
  Beta  occ. eigenvalues --  -19.45775 -10.56369 -10.48738 -10.47807 -10.39066
  Beta  occ. eigenvalues --   -1.38128  -1.07304  -0.99084  -0.89555  -0.76245
  Beta  occ. eigenvalues --   -0.74501  -0.71248  -0.69531  -0.65656  -0.64118
  Beta  occ. eigenvalues --   -0.60398  -0.54336
  Beta virt. eigenvalues --   -0.40122  -0.33577  -0.17935  -0.15823  -0.13237
  Beta virt. eigenvalues --   -0.12695  -0.12504  -0.10833  -0.10067  -0.08416
  Beta virt. eigenvalues --   -0.08132  -0.07513  -0.05999  -0.05019  -0.04147
  Beta virt. eigenvalues --   -0.03153  -0.02795  -0.02431  -0.00616   0.00566
  Beta virt. eigenvalues --    0.01642   0.02484   0.02745   0.03310   0.04145
  Beta virt. eigenvalues --    0.06467   0.07935   0.08774   0.09101   0.10259
  Beta virt. eigenvalues --    0.12528   0.13239   0.13740   0.14695   0.16285
  Beta virt. eigenvalues --    0.16287   0.16521   0.19325   0.19882   0.22464
  Beta virt. eigenvalues --    0.24681   0.25788   0.26264   0.28117   0.31932
  Beta virt. eigenvalues --    0.32027   0.34186   0.35216   0.35840   0.36848
  Beta virt. eigenvalues --    0.37677   0.41788   0.44132   0.44525   0.45264
  Beta virt. eigenvalues --    0.45320   0.46194   0.48252   0.50028   0.53484
  Beta virt. eigenvalues --    0.55193   0.56719   0.58530   0.62396   0.66335
  Beta virt. eigenvalues --    0.69928   0.70875   0.73812   0.73866   0.75982
  Beta virt. eigenvalues --    0.77157   0.83320   0.84800   0.85095   0.87680
  Beta virt. eigenvalues --    0.88152   0.91294   0.91739   0.93662   0.97526
  Beta virt. eigenvalues --    0.98382   0.98659   0.99710   1.03099   1.03613
  Beta virt. eigenvalues --    1.07597   1.10317   1.15970   1.17479   1.21128
  Beta virt. eigenvalues --    1.21574   1.21751   1.24347   1.25169   1.27364
  Beta virt. eigenvalues --    1.32379   1.33816   1.34842   1.42804   1.45441
  Beta virt. eigenvalues --    1.51628   1.52233   1.56236   1.60169   1.65544
  Beta virt. eigenvalues --    1.70637   1.78068   1.81634   1.86052   1.86508
  Beta virt. eigenvalues --    1.89971   1.98406   2.05552   2.17726   2.33374
  Beta virt. eigenvalues --    2.36949   2.37194   2.39463   2.40319   2.43232
  Beta virt. eigenvalues --    2.44994   2.48897   2.52236   2.52959   2.58590
  Beta virt. eigenvalues --    2.62055   2.65232   2.65500   2.68166   2.68801
  Beta virt. eigenvalues --    2.72151   2.75985   2.76046   2.80400   2.83513
  Beta virt. eigenvalues --    2.87353   2.93021   2.94486   2.96885   2.97231
  Beta virt. eigenvalues --    3.00789   3.09502   3.09763   3.11680   3.20694
  Beta virt. eigenvalues --    3.21986   3.38503   3.39594   3.43837   3.51095
  Beta virt. eigenvalues --    3.54690   3.61180   3.62337   3.65685   3.76110
  Beta virt. eigenvalues --    3.79398   3.89806   3.97838   3.97942   4.04823
  Beta virt. eigenvalues --    4.11670   4.12486   4.14166   4.23200   4.24847
  Beta virt. eigenvalues --    4.26488   4.36381   4.39074   4.46936   4.76740
  Beta virt. eigenvalues --    4.77477   4.77491   4.79129   5.02138   5.04810
  Beta virt. eigenvalues --    5.13170   5.33102   5.33412   5.36972   5.49282
  Beta virt. eigenvalues --    5.52808   5.54163   5.63533   5.64101   5.76833
  Beta virt. eigenvalues --    6.57271   6.60602   6.63976   6.64621   6.77490
  Beta virt. eigenvalues --    6.78169   6.84008   6.87675   6.99911   7.03333
  Beta virt. eigenvalues --    7.12476   7.14772   7.23018   7.26974   7.39054
  Beta virt. eigenvalues --    7.42210   7.45831   7.77624   7.83882   7.85064
  Beta virt. eigenvalues --    8.08720   8.15163   8.70623  14.03517  14.03836
  Beta virt. eigenvalues --   14.64105  14.66352  14.88194  24.20273  24.49475
  Beta virt. eigenvalues --   25.67535  25.81674  50.52771
          Condensed to atoms (all electrons):
               1          2          3          4          5          6
     1  O    8.459676  -0.000080  -0.241613  -0.339997   0.562964  -0.000102
     2  C   -0.000080   5.326354   0.035281  -0.165885   0.016711   0.412245
     3  C   -0.241613   0.035281  13.631167  -4.372526  -3.615682  -0.058624
     4  C   -0.339997  -0.165885  -4.372526  10.040677  -0.093964   0.007333
     5  C    0.562964   0.016711  -3.615682  -0.093964   9.359081   0.014169
     6  H   -0.000102   0.412245  -0.058624   0.007333   0.014169   0.443882
     7  H   -0.000102   0.412245  -0.058624   0.007333   0.014169  -0.023923
     8  H   -0.000317   0.459281  -0.058171   0.004364  -0.021220  -0.007016
     9  H    0.001264  -0.049436   0.535303  -0.108013  -0.048959  -0.002335
               7          8          9
     1  O   -0.000102  -0.000317   0.001264
     2  C    0.412245   0.459281  -0.049436
     3  C   -0.058624  -0.058171   0.535303
     4  C    0.007333   0.004364  -0.108013
     5  C    0.014169  -0.021220  -0.048959
     6  H   -0.023923  -0.007016  -0.002335
     7  H    0.443882  -0.007016  -0.002335
     8  H   -0.007016   0.434878  -0.001704
     9  H   -0.002335  -0.001704   0.450366
          Atomic-Atomic Spin Densities.
               1          2          3          4          5          6
     1  O    0.396238  -0.000470   0.011711  -0.037717  -0.073336  -0.000118
     2  C   -0.000470   0.042497  -0.033695   0.021306   0.016811   0.001032
     3  C    0.011711  -0.033695   2.477041  -0.947733  -1.445290  -0.057522
     4  C   -0.037717   0.021306  -0.947733   1.527170   0.103998   0.036768
     5  C   -0.073336   0.016811  -1.445290   0.103998   1.276604   0.016438
     6  H   -0.000118   0.001032  -0.057522   0.036768   0.016438   0.001291
     7  H   -0.000118   0.001032  -0.057522   0.036768   0.016438   0.003842
     8  H    0.000116   0.001061  -0.002220   0.001999  -0.001159   0.000120
     9  H   -0.000029   0.000512   0.004778   0.015787  -0.010252  -0.000535
               7          8          9
     1  O   -0.000118   0.000116  -0.000029
     2  C    0.001032   0.001061   0.000512
     3  C   -0.057522  -0.002220   0.004778
     4  C    0.036768   0.001999   0.015787
     5  C    0.016438  -0.001159  -0.010252
     6  H    0.003842   0.000120  -0.000535
     7  H    0.001291   0.000120  -0.000535
     8  H    0.000120  -0.000643  -0.000219
     9  H   -0.000535  -0.000219   0.034178
 Mulliken charges and spin densities:
               1          2
     1  O   -0.441693   0.296277
     2  C   -0.446718   0.050085
     3  C    0.203490  -0.050452
     4  C    1.020677   0.758346
     5  C   -0.187269  -0.099748
     6  H    0.214371   0.001316
     7  H    0.214371   0.001316
     8  H    0.196921  -0.000825
     9  H    0.225849   0.043685
 Sum of Mulliken charges =   1.00000   1.00000
 Mulliken charges and spin densities with hydrogens summed into heavy atoms:
               1          2
     1  O   -0.441693   0.296277
     2  C    0.178945   0.051891
     3  C    0.429339  -0.006766
     4  C    1.020677   0.758346
     5  C   -0.187269  -0.099748
 APT charges:
               1
     1  O   -0.482738
     2  C   -0.151378
     3  C    0.442234
     4  C   -0.465569
     5  C    1.196334
     6  H    0.126147
     7  H    0.126147
     8  H    0.058377
     9  H    0.150447
 Sum of APT charges =   1.00000
 APT charges with hydrogens summed into heavy atoms:
               1
     1  O   -0.482738
     2  C    0.159293
     3  C    0.592680
     4  C   -0.465569
     5  C    1.196334
 Electronic spatial extent (au):  <R**2>=            526.7378
 Charge=              1.0000 electrons
 Dipole moment (field-independent basis, Debye):
    X=             -2.7733    Y=             -0.5570    Z=             -0.0000  Tot=              2.8286
 Quadrupole moment (field-independent basis, Debye-Ang):
   XX=            -13.5844   YY=            -20.4129   ZZ=            -26.1387
   XY=              4.9486   XZ=              0.0000   YZ=              0.0000
 Traceless Quadrupole moment (field-independent basis, Debye-Ang):
   XX=              6.4609   YY=             -0.3675   ZZ=             -6.0934
   XY=              4.9486   XZ=              0.0000   YZ=              0.0000
 Octapole moment (field-independent basis, Debye-Ang**2):
  XXX=            -12.2511  YYY=             -3.2088  ZZZ=             -0.0000  XYY=             -5.0401
  XXY=             -5.4440  XXZ=             -0.0000  XZZ=              1.0225  YZZ=              0.1180
  YYZ=             -0.0000  XYZ=             -0.0000
 Hexadecapole moment (field-independent basis, Debye-Ang**3):
 XXXX=           -371.1304 YYYY=           -162.2843 ZZZZ=            -30.4558 XXXY=            -86.5884
 XXXZ=              0.0000 YYYX=            -91.6716 YYYZ=              0.0000 ZZZX=              0.0000
 ZZZY=              0.0000 XXYY=            -79.9410 XXZZ=            -67.6767 YYZZ=            -33.3765
 XXYZ=              0.0000 YYXZ=              0.0000 ZZXY=            -30.3315
 N-N= 1.371255214267D+02 E-N=-8.014133197498D+02  KE= 2.287793974551D+02
 Symmetry A'   KE= 2.201363396345D+02
 Symmetry A"   KE= 8.643057820630D+00
  Exact polarizability:  78.388  21.748  44.304  -0.000  -0.000  29.414
 Approx polarizability: 143.581  39.379  63.081   0.000   0.000  41.898
                          Isotropic Fermi Contact Couplings
        Atom                 a.u.       MegaHertz       Gauss      10(-4) cm-1
     1  O(17)              0.02273     -13.78113      -4.91745      -4.59689
     2  C(13)              0.03096      34.80797      12.42035      11.61069
     3  C(13)             -0.03376     -37.95547     -13.54345     -12.66058
     4  C(13)              0.02931      32.94718      11.75637      10.99000
     5  C(13)             -0.04875     -54.79929     -19.55375     -18.27907
     6  H(1)              -0.00134      -6.00418      -2.14244      -2.00278
     7  H(1)              -0.00134      -6.00418      -2.14244      -2.00278
     8  H(1)              -0.00076      -3.38813      -1.20897      -1.13016
     9  H(1)               0.02823     126.18426      45.02568      42.09054
 --------------------------------------------------------
       Center         ----  Spin Dipole Couplings  ----
                      3XX-RR        3YY-RR        3ZZ-RR
 --------------------------------------------------------
     1   Atom       -0.499590      1.037659     -0.538069
     2   Atom       -0.000352      0.044878     -0.044526
     3   Atom        0.034350      0.056137     -0.090487
     4   Atom       -0.303476      0.677228     -0.373753
     5   Atom        0.041780      0.065484     -0.107264
     6   Atom        0.001469     -0.001212     -0.000257
     7   Atom        0.001469     -0.001212     -0.000257
     8   Atom       -0.000585      0.009363     -0.008778
     9   Atom        0.013955     -0.004393     -0.009562
 --------------------------------------------------------
                        XY            XZ            YZ
 --------------------------------------------------------
     1   Atom       -0.586205      0.000000     -0.000000
     2   Atom        0.055022      0.000000      0.000000
     3   Atom       -0.002254     -0.000000     -0.000000
     4   Atom       -0.370737      0.000000      0.000000
     5   Atom       -0.018300      0.000000      0.000000
     6   Atom        0.004392     -0.004457     -0.001325
     7   Atom        0.004392      0.004457      0.001325
     8   Atom        0.003246     -0.000000      0.000000
     9   Atom       -0.002558      0.000000      0.000000
 --------------------------------------------------------


 ---------------------------------------------------------------------------------
              Anisotropic Spin Dipole Couplings in Principal Axis System
 ---------------------------------------------------------------------------------

       Atom             a.u.   MegaHertz   Gauss  10(-4) cm-1        Axes

              Baa    -0.6976    50.479    18.012    16.838  0.9474  0.3200  0.0000
     1 O(17)  Bbb    -0.5381    38.934    13.893    12.987  0.0000  0.0000  1.0000
              Bcc     1.2357   -89.414   -31.905   -29.825 -0.3200  0.9474 -0.0000
 
              Baa    -0.0445    -5.975    -2.132    -1.993  0.0000 -0.0000  1.0000
     2 C(13)  Bbb    -0.0372    -4.995    -1.782    -1.666  0.8307 -0.5567 -0.0000
              Bcc     0.0818    10.970     3.914     3.659  0.5567  0.8307  0.0000
 
              Baa    -0.0905   -12.143    -4.333    -4.050  0.0000  0.0000  1.0000
     3 C(13)  Bbb     0.0341     4.578     1.634     1.527  0.9948  0.1018 -0.0000
              Bcc     0.0564     7.564     2.699     2.523 -0.1018  0.9948 -0.0000
 
              Baa    -0.4279   -57.414   -20.487   -19.151  0.9481  0.3181  0.0000
     4 C(13)  Bbb    -0.3738   -50.154   -17.896   -16.730  0.0000  0.0000  1.0000
              Bcc     0.8016   107.568    38.383    35.881 -0.3181  0.9481 -0.0000
 
              Baa    -0.1073   -14.394    -5.136    -4.801  0.0000  0.0000  1.0000
     5 C(13)  Bbb     0.0318     4.271     1.524     1.425  0.8785  0.4777 -0.0000
              Bcc     0.0754    10.123     3.612     3.377 -0.4777  0.8785  0.0000
 
              Baa    -0.0053    -2.814    -1.004    -0.939  0.6765 -0.5859  0.4462
     6 H(1)   Bbb    -0.0020    -1.090    -0.389    -0.363  0.0953  0.6704  0.7358
              Bcc     0.0073     3.904     1.393     1.302  0.7303  0.4553 -0.5094
 
              Baa    -0.0053    -2.814    -1.004    -0.939  0.6765 -0.5859 -0.4462
     7 H(1)   Bbb    -0.0020    -1.090    -0.389    -0.363 -0.0953 -0.6704  0.7358
              Bcc     0.0073     3.904     1.393     1.302  0.7303  0.4553  0.5094
 
              Baa    -0.0088    -4.683    -1.671    -1.562  0.0000 -0.0000  1.0000
     8 H(1)   Bbb    -0.0016    -0.828    -0.295    -0.276  0.9585 -0.2851 -0.0000
              Bcc     0.0103     5.511     1.966     1.838  0.2851  0.9585 -0.0000
 
              Baa    -0.0096    -5.102    -1.820    -1.702 -0.0000 -0.0000  1.0000
     9 H(1)   Bbb    -0.0047    -2.530    -0.903    -0.844  0.1356  0.9908  0.0000
              Bcc     0.0143     7.632     2.723     2.546  0.9908 -0.1356 -0.0000
 

 ---------------------------------------------------------------------------------

 No NMR shielding tensors so no spin-rotation constants.
 Leave Link  601 at Fri Mar  1 08:30:20 2019, MaxMem=    33554432 cpu:         3.3
 (Enter /home/proyectos/fulerenos/M3C-v2.0/M3C-deps_CCC/g09-AM64L-G09RevC.01/l701.exe)
 Compute integral second derivatives.
 ... and contract with generalized density number  0.
 Leave Link  701 at Fri Mar  1 08:30:20 2019, MaxMem=    33554432 cpu:         2.1
 (Enter /home/proyectos/fulerenos/M3C-v2.0/M3C-deps_CCC/g09-AM64L-G09RevC.01/l702.exe)
 L702 exits ... SP integral derivatives will be done elsewhere.
 Leave Link  702 at Fri Mar  1 08:30:20 2019, MaxMem=    33554432 cpu:         0.1
 (Enter /home/proyectos/fulerenos/M3C-v2.0/M3C-deps_CCC/g09-AM64L-G09RevC.01/l703.exe)
 Compute integral second derivatives, UseDBF=F ICtDFT=           0.
 Integral derivatives from FoFJK, PRISM(SPDF).
 Calling FoFJK, ICntrl=    100127 FMM=F ISym2X=1 I1Cent= 0 IOpClX= 1 NMat=1 NMatS=1 NMatT=0.
 FoFJK:  IHMeth= 1 ICntrl=  100127 DoSepK=F KAlg= 0 I1Cent=   0 FoldK=F
 IRaf=         0 NMat=   1 IRICut=       1 DoRegI=T DoRafI=F ISym2E= 1.
 FoFCou: FMM=F IPFlag=           0 FMFlag=      100000 FMFlg1=         800
         NFxFlg=           0 DoJE=F BraDBF=F KetDBF=F FulRan=T
         wScrn=  0.000000 ICntrl=  100127 IOpCl=  1 I1Cent=           0 NGrid=           0
         NMat0=    1 NMatS0=      1 NMatT0=    0 NMatD0=    1 NMtDS0=    0 NMtDT0=    0
 Petite list used in FoFCou.
 Leave Link  703 at Fri Mar  1 08:31:40 2019, MaxMem=    33554432 cpu:       316.8
 (Enter /home/proyectos/fulerenos/M3C-v2.0/M3C-deps_CCC/g09-AM64L-G09RevC.01/l716.exe)
 Dipole        =-1.09108790D+00-2.19130169D-01-1.37661150D-15
 Polarizability= 7.83879638D+01 2.17481494D+01 4.43037906D+01
                -4.99756309D-07-2.55279488D-07 2.94143932D+01
 Full mass-weighted force constant matrix:
 Low frequencies ---   -6.5964   -4.3013   -0.0009   -0.0008   -0.0006   15.4920
 Low frequencies ---   90.7757  133.5392  205.4119
 Diagonal vibrational polarizability:
        6.5161684       3.1671243       4.6087356
 Harmonic frequencies (cm**-1), IR intensities (KM/Mole), Raman scattering
 activities (A**4/AMU), depolarization ratios for plane and unpolarized
 incident light, reduced masses (AMU), force constants (mDyne/A),
 and normal coordinates:
                      1                      2                      3
                     A'                     A"                     A"
 Frequencies --     90.7756               133.5350               205.4115
 Red. masses --      4.7236                 1.5927                 2.0931
 Frc consts  --      0.0229                 0.0167                 0.0520
 IR Inten    --      0.1109                 1.1824                 0.0808
  Atom  AN      X      Y      Z        X      Y      Z        X      Y      Z
     1   8     0.01  -0.24  -0.00     0.00   0.00  -0.11     0.00   0.00  -0.09
     2   6     0.28  -0.06  -0.00    -0.00   0.00  -0.05    -0.00  -0.00  -0.03
     3   6    -0.11   0.09  -0.00     0.00  -0.00   0.01     0.00  -0.00  -0.16
     4   6    -0.19   0.34   0.00     0.00  -0.00   0.18     0.00  -0.00   0.23
     5   6    -0.07  -0.01   0.00     0.00   0.00   0.04     0.00   0.00   0.09
     6   1     0.32  -0.24   0.00    -0.47   0.09  -0.39     0.42   0.01   0.31
     7   1     0.32  -0.24  -0.00     0.47  -0.09  -0.39    -0.42  -0.01   0.31
     8   1     0.49   0.16  -0.00    -0.00  -0.00   0.42    -0.00  -0.00  -0.32
     9   1    -0.31  -0.11  -0.00     0.00   0.00  -0.14     0.00  -0.00  -0.50
                      4                      5                      6
                     A'                     A'                     A"
 Frequencies --    411.9679               465.7735               578.6574
 Red. masses --      5.1174                 8.3356                11.5685
 Frc consts  --      0.5117                 1.0655                 2.2823
 IR Inten    --      2.1096                11.8861                24.7718
  Atom  AN      X      Y      Z        X      Y      Z        X      Y      Z
     1   8     0.15  -0.12   0.00    -0.01  -0.25   0.00    -0.00  -0.00  -0.30
     2   6    -0.21  -0.16   0.00     0.15   0.09  -0.00    -0.00   0.00   0.01
     3   6     0.12  -0.23   0.00    -0.05   0.13  -0.00     0.00  -0.00  -0.01
     4   6    -0.01   0.24  -0.00     0.10  -0.44   0.00    -0.00   0.00  -0.43
     5   6    -0.02   0.36  -0.00    -0.25   0.52  -0.00    -0.00   0.00   0.81
     6   1    -0.28   0.08  -0.01     0.20  -0.09   0.01    -0.00   0.07   0.01
     7   1    -0.28   0.08   0.01     0.20  -0.09  -0.01     0.00  -0.07   0.01
     8   1    -0.46  -0.42   0.00     0.33   0.28  -0.00    -0.00  -0.00   0.04
     9   1     0.03  -0.29  -0.00     0.10   0.25   0.00     0.00  -0.00   0.25
                      7                      8                      9
                     A"                     A'                     A'
 Frequencies --    773.5012               776.4525              1008.2268
 Red. masses --      1.1417                 3.4513                 1.6704
 Frc consts  --      0.4025                 1.2259                 1.0004
 IR Inten    --     11.9202                 7.0766                40.1684
  Atom  AN      X      Y      Z        X      Y      Z        X      Y      Z
     1   8     0.00   0.00   0.00    -0.20  -0.07   0.00    -0.09  -0.03   0.00
     2   6    -0.00  -0.00  -0.05     0.15   0.18  -0.00    -0.11  -0.05  -0.00
     3   6    -0.00   0.00  -0.09     0.24  -0.15  -0.00     0.15   0.04  -0.00
     4   6    -0.00  -0.00   0.04     0.01   0.05   0.00     0.04   0.07   0.00
     5   6     0.00   0.00  -0.00    -0.15  -0.05  -0.00    -0.05  -0.02  -0.00
     6   1     0.11   0.41   0.10    -0.01   0.55  -0.06     0.10  -0.36   0.10
     7   1    -0.11  -0.41   0.10    -0.01   0.55   0.06     0.10  -0.36  -0.10
     8   1     0.00   0.00   0.26    -0.23  -0.22   0.00     0.22   0.29   0.00
     9   1    -0.00   0.00   0.73     0.21  -0.18   0.00     0.56   0.45   0.00
                     10                     11                     12
                     A"                     A'                     A'
 Frequencies --   1033.9765              1100.4758              1286.6140
 Red. masses --      1.6957                 2.7114                 1.3108
 Frc consts  --      1.0681                 1.9346                 1.2784
 IR Inten    --      0.6814                 4.6611                10.0911
  Atom  AN      X      Y      Z        X      Y      Z        X      Y      Z
     1   8     0.00   0.00   0.00    -0.06  -0.02  -0.00     0.04   0.01   0.00
     2   6    -0.00   0.00  -0.15     0.04  -0.24  -0.00     0.10  -0.00   0.00
     3   6    -0.00  -0.00   0.19     0.06   0.28   0.00    -0.10  -0.06  -0.00
     4   6    -0.00  -0.00  -0.04     0.06  -0.00  -0.00    -0.06   0.01  -0.00
     5   6     0.00  -0.00  -0.01    -0.03  -0.01   0.00     0.00   0.00   0.00
     6   1     0.24   0.43   0.12    -0.07   0.26  -0.02    -0.21   0.04  -0.21
     7   1    -0.24  -0.43   0.12    -0.07   0.26   0.02    -0.21   0.04   0.21
     8   1     0.00   0.00   0.37    -0.40  -0.72   0.00    -0.11  -0.22  -0.00
     9   1     0.00   0.00  -0.54    -0.09   0.14  -0.00     0.60   0.61   0.00
                     13                     14                     15
                     A'                     A"                     A'
 Frequencies --   1363.6245              1444.8447              1467.7814
 Red. masses --      1.1603                 1.0456                 1.1078
 Frc consts  --      1.2712                 1.2860                 1.4061
 IR Inten    --     26.8394                15.3315                36.9848
  Atom  AN      X      Y      Z        X      Y      Z        X      Y      Z
     1   8     0.03   0.01  -0.00    -0.00  -0.00  -0.00    -0.01  -0.00  -0.00
     2   6    -0.04  -0.08  -0.00     0.00  -0.00  -0.05     0.00  -0.09   0.00
     3   6    -0.04  -0.03   0.00     0.00  -0.00  -0.03     0.02   0.01   0.00
     4   6    -0.05  -0.01   0.00     0.00   0.00   0.00     0.03   0.01  -0.00
     5   6     0.00   0.00  -0.00    -0.00  -0.00   0.00    -0.00  -0.00   0.00
     6   1     0.33   0.46   0.33     0.21  -0.44   0.06    -0.39   0.25  -0.23
     7   1     0.33   0.46  -0.33    -0.21   0.44   0.06    -0.39   0.25   0.23
     8   1     0.18   0.15   0.00     0.00   0.00   0.72     0.49   0.46  -0.00
     9   1     0.18   0.18  -0.00    -0.00  -0.00   0.08    -0.06  -0.07  -0.00
                     16                     17                     18
                     A'                     A'                     A'
 Frequencies --   1775.7546              2238.9487              3006.9934
 Red. masses --     10.1980                12.5618                 1.0396
 Frc consts  --     18.9465                37.1014                 5.5384
 IR Inten    --     50.4496               800.6108                47.8512
  Atom  AN      X      Y      Z        X      Y      Z        X      Y      Z
     1   8    -0.27  -0.09  -0.00    -0.40  -0.13   0.00    -0.00  -0.00  -0.00
     2   6     0.00   0.00  -0.00     0.01   0.01   0.00     0.04   0.03  -0.00
     3   6    -0.44  -0.17  -0.00     0.06   0.01  -0.00    -0.00   0.01   0.00
     4   6     0.66   0.21  -0.00    -0.33  -0.11   0.00    -0.00  -0.00   0.00
     5   6     0.12   0.04   0.00     0.79   0.26  -0.00     0.00   0.00  -0.00
     6   1     0.15   0.12   0.17    -0.00   0.02  -0.07    -0.39  -0.08   0.54
     7   1     0.15   0.12  -0.17    -0.00   0.02   0.07    -0.39  -0.08  -0.54
     8   1    -0.05  -0.06   0.00     0.00   0.00   0.00     0.23  -0.21  -0.00
     9   1    -0.05   0.22   0.00     0.06   0.00  -0.00     0.06  -0.06  -0.00
                     19                     20                     21
                     A'                     A"                     A'
 Frequencies --   3049.7241              3050.5509              3165.0723
 Red. masses --      1.0826                 1.0956                 1.1016
 Frc consts  --      5.9326                 6.0070                 6.5017
 IR Inten    --     41.7926                10.6708                 8.5068
  Atom  AN      X      Y      Z        X      Y      Z        X      Y      Z
     1   8     0.00   0.00  -0.00    -0.00  -0.00   0.00     0.00   0.00  -0.00
     2   6     0.00   0.01  -0.00    -0.00  -0.00  -0.09    -0.08   0.05   0.00
     3   6     0.06  -0.06  -0.00    -0.00   0.00  -0.00    -0.00   0.00   0.00
     4   6    -0.00  -0.00  -0.00    -0.00   0.00  -0.00     0.00   0.00   0.00
     5   6     0.00  -0.00   0.00     0.00   0.00  -0.00    -0.00  -0.00   0.00
     6   1    -0.03  -0.00   0.04    -0.43  -0.09   0.55     0.11   0.03  -0.17
     7   1    -0.03  -0.00  -0.04     0.43   0.09   0.55     0.11   0.03   0.17
     8   1     0.06  -0.06  -0.00    -0.00   0.00  -0.02     0.69  -0.65  -0.00
     9   1    -0.69   0.71   0.00     0.00  -0.00   0.01     0.04  -0.05  -0.00

 -------------------
 - Thermochemistry -
 -------------------
 Temperature   298.150 Kelvin.  Pressure   1.00000 Atm.
 Atom     1 has atomic number  8 and mass  15.99491
 Atom     2 has atomic number  6 and mass  12.00000
 Atom     3 has atomic number  6 and mass  12.00000
 Atom     4 has atomic number  6 and mass  12.00000
 Atom     5 has atomic number  6 and mass  12.00000
 Atom     6 has atomic number  1 and mass   1.00783
 Atom     7 has atomic number  1 and mass   1.00783
 Atom     8 has atomic number  1 and mass   1.00783
 Atom     9 has atomic number  1 and mass   1.00783
 Molecular mass:    68.02621 amu.
 Principal axes and moments of inertia in atomic units:
                           1         2         3
     Eigenvalues --    48.06203 814.65649 851.73817
           X            0.87444  -0.48514   0.00000
           Y            0.48514   0.87444   0.00000
           Z            0.00000  -0.00000   1.00000
 This molecule is an asymmetric top.
 Rotational symmetry number  1.
 Rotational temperatures (Kelvin)      1.80213     0.10632     0.10169
 Rotational constants (GHZ):          37.55025     2.21534     2.11889
 Zero-point vibrational energy     170041.2 (Joules/Mol)
                                   40.64081 (Kcal/Mol)
 Warning -- explicit consideration of   6 degrees of freedom as
           vibrations may cause significant error
 Vibrational temperatures:    130.61   192.13   295.54   592.73   670.14
          (Kelvin)            832.56  1112.89  1117.14  1450.61  1487.66
                             1583.34  1851.15  1961.95  2078.81  2111.81
                             2554.91  3221.34  4326.39  4387.87  4389.06
                             4553.83
 
 Zero-point correction=                           0.064765 (Hartree/Particle)
 Thermal correction to Energy=                    0.070594
 Thermal correction to Enthalpy=                  0.071539
 Thermal correction to Gibbs Free Energy=         0.035184
 Sum of electronic and zero-point Energies=           -229.685037
 Sum of electronic and thermal Energies=              -229.679208
 Sum of electronic and thermal Enthalpies=            -229.678263
 Sum of electronic and thermal Free Energies=         -229.714618
 
                     E (Thermal)             CV                S
                      KCal/Mol        Cal/Mol-Kelvin    Cal/Mol-Kelvin
 Total                   44.299             18.374             76.514
 Electronic               0.000              0.000              1.377
 Translational            0.889              2.981             38.570
 Rotational               0.889              2.981             25.015
 Vibrational             42.521             12.413             11.553
 Vibration     1          0.602              1.956              3.643
 Vibration     2          0.613              1.920              2.894
 Vibration     3          0.640              1.832              2.084
 Vibration     4          0.776              1.444              0.920
 Vibration     5          0.823              1.326              0.749
 Vibration     6          0.935              1.077              0.488
                       Q            Log10(Q)             Ln(Q)
 Total Bot       0.655348D-16        -16.183528        -37.263950
 Total V=0       0.403979D+14         13.606359         31.329800
 Vib (Bot)       0.227292D-28        -28.643415        -65.953901
 Vib (Bot)    1  0.226468D+01          0.355006          0.817432
 Vib (Bot)    2  0.152531D+01          0.183358          0.422198
 Vib (Bot)    3  0.968680D+00         -0.013820         -0.031821
 Vib (Bot)    4  0.428823D+00         -0.367722         -0.846711
 Vib (Bot)    5  0.363425D+00         -0.439586         -1.012184
 Vib (Bot)    6  0.263691D+00         -0.578904         -1.332976
 Vib (V=0)       0.140111D+02          1.146472          2.639849
 Vib (V=0)    1  0.281921D+01          0.450128          1.036458
 Vib (V=0)    2  0.210517D+01          0.323287          0.744397
 Vib (V=0)    3  0.159011D+01          0.201427          0.463803
 Vib (V=0)    4  0.115870D+01          0.063972          0.147301
 Vib (V=0)    5  0.111812D+01          0.048490          0.111652
 Vib (V=0)    6  0.106527D+01          0.027461          0.063231
 Electronic      0.200000D+01          0.301030          0.693147
 Translational   0.220531D+08          7.343470         16.908964
 Rotational      0.653714D+05          4.815388         11.087840
 
                                                              b3lyp opt
                                                             IR Spectrum
 
     3   33 3                              2                 1            11  1  1      1  11                                        
     1   00 0                              2                 7            44  3  2      1  00       77       5    4 4       2  1     
     6   55 0                              3                 7            64  6  8      0  30       77       7    6 1       0  3 9   
     5   10 7                              9                 6            85  4  7      0  48       64       9    6 2       5  4 1   
 
     X   XX X                              X                 X            XX  X  X      X  XX       XX       X    X X       X  X X   
                                           X                                                                                         
                                           X                                                                                         
                                           X                                                                                         
                                           X                                                                                         
                                           X                                                                                         
                                           X                                                                                         
                                           X                                                                                         
                                           X                                                                                         
                                           X                                                                                         
                                           X                                                                                         
                                           X                                                                                         
                                           X                                                                                         
                                           X                                                                                         
                                           X                                                                                         
                                           X                                                                                         
                                           X                                                                                         
                                           X                                                                                         
                                           X                                                                                         
                                           X                                                                                         
 
 ***** Axes restored to original set *****
 -------------------------------------------------------------------
 Center     Atomic                   Forces (Hartrees/Bohr)
 Number     Number              X              Y              Z
 -------------------------------------------------------------------
      1        8          -0.000275661   -0.000051001   -0.000000000
      2        6           0.000012863   -0.000017645    0.000000000
      3        6           0.000073121    0.000012148   -0.000000000
      4        6          -0.000081633    0.000031553    0.000000000
      5        6           0.000319363    0.000058778   -0.000000000
      6        1          -0.000006524   -0.000020455    0.000051864
      7        1          -0.000006524   -0.000020455   -0.000051864
      8        1          -0.000038859    0.000028485   -0.000000000
      9        1           0.000003855   -0.000021409    0.000000000
 -------------------------------------------------------------------
 Cartesian Forces:  Max     0.000319363 RMS     0.000087510
 Z-matrix is all fixed cartesians, so copy forces.
 Force constants in Cartesian coordinates: 
                1             2             3             4             5 
      1  0.111522D+01
      2  0.836492D-01  0.297204D-01
      3  0.000000D+00  0.000000D+00  0.288683D-01
      4 -0.864109D-02  0.122240D-03  0.000000D+00  0.501732D+00
      5 -0.897380D-03 -0.224779D-03  0.000000D+00 -0.853010D-01  0.529833D+00
      6  0.000000D+00  0.000000D+00 -0.224978D-02  0.000000D+00  0.000000D+00
      7  0.253205D-01  0.183389D-02  0.000000D+00 -0.683310D-01 -0.365253D-01
      8  0.625607D-02  0.734946D-02  0.000000D+00 -0.465044D-01 -0.168645D+00
      9  0.000000D+00  0.000000D+00  0.456014D-02  0.000000D+00  0.000000D+00
     10 -0.111752D+00 -0.108320D-01  0.000000D+00 -0.627222D-01 -0.253814D-01
     11 -0.115616D-01  0.765086D-02  0.000000D+00 -0.218428D-01  0.159879D-03
     12  0.000000D+00  0.000000D+00  0.224510D-01  0.000000D+00  0.000000D+00
     13 -0.102100D+01 -0.740783D-01  0.000000D+00  0.188842D-01  0.652427D-02
     14 -0.736064D-01 -0.442265D-01  0.000000D+00 -0.333809D-04 -0.901185D-03
     15  0.000000D+00  0.000000D+00 -0.533364D-01  0.000000D+00  0.000000D+00
     16  0.151723D-02  0.205852D-03 -0.920694D-04 -0.128033D+00  0.135855D-01
     17 -0.138805D-02 -0.223574D-04 -0.409005D-03  0.636131D-02 -0.474416D-01
     18  0.890834D-03  0.663590D-04  0.253917D-03 -0.127884D+00  0.674051D-02
     19  0.151722D-02  0.205852D-03  0.920693D-04 -0.128033D+00  0.135855D-01
     20 -0.138806D-02 -0.223574D-04  0.409005D-03  0.636131D-02 -0.474416D-01
     21 -0.890831D-03 -0.663591D-04  0.253918D-03  0.127884D+00 -0.674051D-02
     22 -0.217283D-03  0.130130D-04  0.000000D+00 -0.135003D+00  0.132456D+00
     23  0.491015D-05 -0.313521D-04  0.000000D+00  0.127467D+00 -0.244034D+00
     24  0.000000D+00  0.000000D+00  0.119206D-03  0.000000D+00  0.000000D+00
     25 -0.196207D-02 -0.111974D-02  0.000000D+00  0.101457D-01 -0.180458D-01
     26 -0.106872D-02 -0.193360D-03  0.000000D+00  0.133698D-01 -0.213048D-01
     27  0.000000D+00  0.000000D+00 -0.920309D-03  0.000000D+00  0.000000D+00
                6             7             8             9            10 
      6  0.487643D+00
      7  0.000000D+00  0.719704D+00
      8  0.000000D+00 -0.210656D-01  0.475718D+00
      9 -0.684629D-01  0.000000D+00  0.000000D+00  0.161438D+00
     10  0.000000D+00 -0.479020D+00  0.130492D-02  0.000000D+00  0.114515D+01
     11  0.000000D+00 -0.236902D-01 -0.419042D-01  0.000000D+00  0.731179D-01
     12  0.155865D-01  0.000000D+00  0.000000D+00 -0.402230D-01  0.000000D+00
     13  0.000000D+00 -0.566085D-01 -0.163786D-01  0.000000D+00 -0.481616D+00
     14  0.000000D+00 -0.337065D-02 -0.567490D-02  0.000000D+00 -0.367324D-01
     15  0.635185D-02  0.000000D+00  0.000000D+00 -0.857003D-02  0.000000D+00
     16 -0.130318D+00 -0.233545D-01 -0.969806D-02 -0.138110D-01  0.638206D-02
     17  0.480238D-02 -0.160543D-01 -0.217912D-02 -0.230507D-01 -0.407498D-02
     18 -0.200238D+00  0.468394D-03  0.112866D-02 -0.990292D-04  0.233313D-02
     19  0.130318D+00 -0.233544D-01 -0.969806D-02  0.138110D-01  0.638205D-02
     20 -0.480238D-02 -0.160543D-01 -0.217912D-02  0.230507D-01 -0.407499D-02
     21 -0.200238D+00 -0.468397D-03 -0.112866D-02 -0.990285D-04 -0.233313D-02
     22  0.000000D+00  0.985133D-02 -0.212471D-01  0.000000D+00  0.245771D-02
     23  0.000000D+00  0.947055D-02 -0.211001D-01  0.000000D+00  0.224850D-02
     24 -0.480089D-01  0.000000D+00  0.000000D+00 -0.161996D-02  0.000000D+00
     25  0.000000D+00 -0.104207D+00  0.117031D+00  0.000000D+00 -0.252630D-01
     26  0.000000D+00  0.105456D+00 -0.241384D+00  0.000000D+00  0.442444D-02
     27  0.961720D-02  0.000000D+00  0.000000D+00 -0.469242D-01  0.000000D+00
               11            12            13            14            15 
     11  0.606727D-01
     12  0.000000D+00  0.469635D-01
     13 -0.348767D-01  0.000000D+00  0.154656D+01
     14 -0.247819D-01  0.000000D+00  0.113048D+00  0.759909D-01
     15  0.000000D+00 -0.507958D-01  0.000000D+00  0.000000D+00  0.104088D+00
     16 -0.832648D-03  0.252336D-03 -0.391808D-02 -0.198707D-03  0.311896D-03
     17 -0.188043D-02  0.116748D-02  0.263515D-02  0.242526D-03  0.141163D-02
     18 -0.268774D-03 -0.152064D-02 -0.145458D-02 -0.257296D-03 -0.477306D-03
     19 -0.832649D-03 -0.252336D-03 -0.391807D-02 -0.198707D-03 -0.311896D-03
     20 -0.188043D-02 -0.116748D-02  0.263516D-02  0.242526D-03 -0.141163D-02
     21  0.268775D-03 -0.152064D-02  0.145458D-02  0.257296D-03 -0.477306D-03
     22 -0.131876D-02  0.000000D+00  0.669911D-03 -0.200339D-03  0.000000D+00
     23  0.781189D-04  0.000000D+00 -0.779657D-04 -0.215597D-03  0.000000D+00
     24  0.000000D+00 -0.159219D-02  0.000000D+00  0.000000D+00 -0.441353D-04
     25  0.218373D-01  0.000000D+00  0.946246D-03  0.129300D-02  0.000000D+00
     26  0.188542D-02  0.000000D+00  0.569376D-03 -0.675868D-03  0.000000D+00
     27  0.000000D+00  0.106513D-01  0.000000D+00  0.000000D+00  0.326100D-02
               16            17            18            19            20 
     16  0.145420D+00
     17 -0.344267D-02  0.472780D-01
     18  0.138495D+00 -0.694206D-02  0.221783D+00
     19  0.101936D-01  0.889738D-03 -0.152338D-01  0.145420D+00
     20  0.889738D-03  0.687190D-03 -0.490931D-04 -0.344267D-02  0.472780D-01
     21  0.152338D-01  0.490931D-04 -0.223998D-01 -0.138495D+00  0.694206D-02
     22 -0.890883D-02  0.144136D-01  0.267252D-02 -0.890883D-02  0.144136D-01
     23 -0.757494D-03  0.191059D-02  0.262391D-03 -0.757494D-03  0.191059D-02
     24 -0.117584D-01  0.210141D-01  0.157396D-02  0.117584D-01 -0.210141D-01
     25  0.700884D-03  0.660192D-03 -0.287540D-03  0.700884D-03  0.660192D-03
     26  0.248451D-03  0.140524D-02 -0.680691D-03  0.248451D-03  0.140524D-02
     27  0.168596D-02  0.195707D-02  0.112424D-02 -0.168596D-02 -0.195707D-02
               21            22            23            24            25 
     21  0.221783D+00
     22 -0.267252D-02  0.142236D+00
     23 -0.262391D-03 -0.134961D+00  0.263569D+00
     24  0.157396D-02  0.000000D+00  0.000000D+00  0.444581D-01
     25  0.287540D-03 -0.217745D-02 -0.263745D-02  0.000000D+00  0.121116D+00
     26  0.680691D-03 -0.356890D-02 -0.208705D-02  0.000000D+00 -0.119679D+00
     27  0.112424D-02  0.000000D+00  0.000000D+00  0.353990D-02  0.000000D+00
               26            27 
     26  0.260950D+00
     27  0.000000D+00  0.185266D-01
 Leave Link  716 at Fri Mar  1 08:31:40 2019, MaxMem=    33554432 cpu:         0.1
 (Enter /home/proyectos/fulerenos/M3C-v2.0/M3C-deps_CCC/g09-AM64L-G09RevC.01/l103.exe)

 GradGradGradGradGradGradGradGradGradGradGradGradGradGradGradGradGradGrad
 Berny optimization.
 Search for a local minimum.
 Step number   1 out of a maximum of    2
 All quantities printed in internal units (Hartrees-Bohrs-Radians)
 Second derivative matrix not updated -- analytic derivatives used.
 ITU=  0
     Eigenvalues ---    0.00117   0.00191   0.00928   0.02985   0.03502
     Eigenvalues ---    0.05879   0.07763   0.09716   0.09754   0.10608
     Eigenvalues ---    0.13001   0.15739   0.19628   0.22521   0.44715
     Eigenvalues ---    0.63047   0.67625   0.69332   0.86025   1.49294
     Eigenvalues ---    2.46240
 Angle between quadratic step and forces=  84.56 degrees.
 ClnCor:  largest displacement from symmetrization is 1.65D-08 for atom     7.
 Linear search not attempted -- first point.
 ClnCor:  largest displacement from symmetrization is 2.99D-15 for atom     8.
 B after Tr=    -0.000171    0.000120   -0.000000
         Rot=    1.000000    0.000000    0.000000   -0.000087 Ang=  -0.01 deg.
 Variable       Old X    -DE/DX   Delta X   Delta X   Delta X     New X
                                 (Linear)    (Quad)   (Total)
    X1       -6.43680  -0.00028   0.00000  -0.00046  -0.00039  -6.43719
    Y1       -1.39268  -0.00005   0.00000  -0.00334  -0.00433  -1.39702
    Z1        0.00000  -0.00000   0.00000   0.00000  -0.00000  -0.00000
    X2        2.21538   0.00001   0.00000   0.00156   0.00114   2.21652
    Y2        1.41845  -0.00002   0.00000  -0.00032   0.00019   1.41864
    Z2        0.00000   0.00000   0.00000   0.00000   0.00000   0.00000
    X3        0.64868   0.00007   0.00000  -0.00067  -0.00069   0.64800
    Y3       -0.90583   0.00001   0.00000   0.00135   0.00159  -0.90425
    Z3        0.00000  -0.00000   0.00000   0.00000   0.00000   0.00000
    X4       -1.83101  -0.00008   0.00000  -0.00089  -0.00089  -1.83190
    Y4       -1.01851   0.00003   0.00000   0.00388   0.00369  -1.01482
    Z4        0.00000   0.00000   0.00000   0.00000  -0.00000  -0.00000
    X5       -4.28657   0.00032   0.00000  -0.00047  -0.00043  -4.28700
    Y5       -1.22879   0.00006   0.00000   0.00004  -0.00058  -1.22937
    Z5        0.00000  -0.00000   0.00000   0.00000  -0.00000  -0.00000
    X6        3.46353  -0.00001   0.00000   0.00116   0.00076   3.46429
    Y6        1.34851  -0.00002   0.00000  -0.00176  -0.00104   1.34747
    Z6        1.65039   0.00005   0.00000   0.00037   0.00037   1.65076
    X7        3.46353  -0.00001   0.00000   0.00116   0.00076   3.46429
    Y7        1.34851  -0.00002   0.00000  -0.00176  -0.00104   1.34747
    Z7       -1.65039  -0.00005   0.00000  -0.00037  -0.00037  -1.65076
    X8        1.11555  -0.00004   0.00000   0.00291   0.00219   1.11774
    Y8        3.14765   0.00003   0.00000   0.00070   0.00101   3.14866
    Z8        0.00000  -0.00000   0.00000   0.00000   0.00000   0.00000
    X9        1.64808   0.00000   0.00000  -0.00276  -0.00246   1.64562
    Y9       -2.71751  -0.00002   0.00000   0.00012   0.00053  -2.71698
    Z9        0.00000   0.00000   0.00000   0.00000   0.00000   0.00000
         Item               Value     Threshold  Converged?
 Maximum Force            0.000319     0.000450     YES
 RMS     Force            0.000088     0.000300     YES
 Maximum Displacement     0.004333     0.001800     NO 
 RMS     Displacement     0.001413     0.001200     NO 
 Predicted change in Energy=-1.584166D-07
 GradGradGradGradGradGradGradGradGradGradGradGradGradGradGradGradGradGrad

 Leave Link  103 at Fri Mar  1 08:31:40 2019, MaxMem=    33554432 cpu:         0.1
 (Enter /home/proyectos/fulerenos/M3C-v2.0/M3C-deps_CCC/g09-AM64L-G09RevC.01/l9999.exe)

 Test job not archived.
 1\1\GINC-BOHRIO\Freq\UB3LYP\6-311++G(3df,2p)\C4H4O1(1+,2)\ROOT\01-Mar-
 2019\0\\#p b3lyp/6-311++G(3df,2p) freq IOp(2/17=3) IOp(2/18=3)\\b3lyp 
 opt\\1,2\O,-3.406207,-0.736977,0.\C,1.172329,0.750612,0.\C,0.343269,-0
 .479346,0.\C,-0.968928,-0.53897,0.\C,-2.268356,-0.650248,0.\H,1.832821
 ,0.713602,0.873347\H,1.832821,0.713602,-0.873347\H,0.590323,1.665666,0
 .\H,0.872127,-1.438042,0.\\Version=EM64L-G09RevE.01\State=2-A'\HF=-229
 .7498021\S2=0.759467\S2-1=0.\S2A=0.750067\RMSD=1.785e-09\RMSF=8.751e-0
 5\ZeroPoint=0.0647653\Thermal=0.0705944\Dipole=1.1115742,-0.0537922,0.
 \DipoleDeriv=-1.2485281,-0.1895152,0.,-0.0866529,-0.0909903,0.,-0.0000
 002,0.,-0.1086961,-0.4144301,-0.2315394,0.,-0.0400235,0.0327669,0.,0.0
 000002,0.,-0.0724697,0.8889332,0.2827337,0.,0.388699,0.2581692,0.,0.,0
 .,0.1795984,-1.3864797,-0.3301278,0.,-0.1344677,0.0191637,0.,-0.000000
 5,0.,-0.0293922,2.5311769,0.3444563,0.,0.1771627,0.4857396,0.,0.000000
 7,0.0000001,0.5720865,0.2214283,0.0568438,-0.017107,-0.0985267,0.04741
 32,0.0232704,0.0280181,0.0508812,0.1095994,0.2214285,0.0568438,0.01710
 7,-0.0985266,0.0474132,-0.0232704,-0.0280182,-0.0508812,0.1095994,0.00
 829,0.0361205,0.,-0.0078187,0.0552829,0.,0.,0.,0.1115567,0.178181,-0.0
 258158,0.,-0.0998456,0.1450416,0.,0.,0.,0.1281176\Polar=86.6525184,11.
 0900237,36.0392359,0.0000005,0.0000001,29.4143932\PG=CS [SG(C4H2O1),X(
 H2)]\NImag=0\\1.11521764,0.08364917,0.02972040,0.00000001,0.,0.0288683
 3,-0.00864109,0.00012224,0.,0.50173244,-0.00089738,-0.00022478,0.,-0.0
 8530104,0.52983349,-0.00000001,0.,-0.00224978,0.,0.,0.48764263,0.02532
 045,0.00183389,-0.00000001,-0.06833102,-0.03652526,0.,0.71970362,0.006
 25607,0.00734946,0.,-0.04650443,-0.16864512,-0.00000002,-0.02106559,0.
 47571757,0.,0.,0.00456014,0.,0.,-0.06846286,0.,0.,0.16143797,-0.111751
 75,-0.01083199,0.00000002,-0.06272217,-0.02538141,0.,-0.47902012,0.001
 30492,0.,1.14515135,-0.01156156,0.00765086,0.,-0.02184277,0.00015988,0
 .00000002,-0.02369020,-0.04190423,0.,0.07311795,0.06067270,0.00000003,
 0.,0.02245095,0.,0.,0.01558651,-0.00000002,0.,-0.04022300,0.00000004,0
 .,0.04696351,-1.02100037,-0.07407829,-0.00000002,0.01888423,0.00652427
 ,0.,-0.05660845,-0.01637864,0.,-0.48161613,-0.03487666,-0.00000004,1.5
 4656071,-0.07360638,-0.04422652,0.,-0.00003338,-0.00090118,0.00000001,
 -0.00337065,-0.00567490,0.,-0.03673243,-0.02478189,0.,0.11304760,0.075
 99092,-0.00000003,0.,-0.05333638,0.00000001,0.,0.00635185,0.00000003,0
 .,-0.00857003,-0.00000005,0.,-0.05079580,0.00000005,0.,0.10408812,0.00
 151723,0.00020585,-0.00009207,-0.12803268,0.01358553,-0.13031779,-0.02
 335445,-0.00969806,-0.01381098,0.00638206,-0.00083265,0.00025234,-0.00
 391808,-0.00019871,0.00031190,0.14542024,-0.00138805,-0.00002236,-0.00
 040901,0.00636131,-0.04744165,0.00480238,-0.01605427,-0.00217912,-0.02
 305069,-0.00407498,-0.00188043,0.00116748,0.00263515,0.00024253,0.0014
 1163,-0.00344267,0.04727800,0.00089083,0.00006636,0.00025392,-0.127884
 27,0.00674051,-0.20023833,0.00046839,0.00112866,-0.00009903,0.00233313
 ,-0.00026877,-0.00152064,-0.00145458,-0.00025730,-0.00047731,0.1384952
 7,-0.00694206,0.22178303,0.00151722,0.00020585,0.00009207,-0.12803267,
 0.01358553,0.13031779,-0.02335445,-0.00969806,0.01381098,0.00638205,-0
 .00083265,-0.00025234,-0.00391807,-0.00019871,-0.00031190,0.01019361,0
 .00088974,-0.01523376,0.14542024,-0.00138806,-0.00002236,0.00040901,0.
 00636131,-0.04744165,-0.00480238,-0.01605427,-0.00217912,0.02305069,-0
 .00407499,-0.00188043,-0.00116748,0.00263516,0.00024253,-0.00141163,0.
 00088974,0.00068719,-0.00004909,-0.00344267,0.04727800,-0.00089083,-0.
 00006636,0.00025392,0.12788427,-0.00674051,-0.20023834,-0.00046840,-0.
 00112866,-0.00009903,-0.00233313,0.00026877,-0.00152064,0.00145458,0.0
 0025730,-0.00047731,0.01523376,0.00004909,-0.02239984,-0.13849527,0.00
 694206,0.22178303,-0.00021728,0.00001301,0.,-0.13500270,0.13245552,0.,
 0.00985133,-0.02124714,0.,0.00245771,-0.00131876,0.,0.00066991,-0.0002
 0034,0.,-0.00890883,0.01441358,0.00267252,-0.00890883,0.01441358,-0.00
 267252,0.14223613,0.00000491,-0.00003135,0.,0.12746699,-0.24403420,0.,
 0.00947055,-0.02110012,0.,0.00224850,0.00007812,0.,-0.00007797,-0.0002
 1560,0.,-0.00075749,0.00191059,0.00026239,-0.00075749,0.00191059,-0.00
 026239,-0.13496055,0.26356902,0.,0.,0.00011921,0.,0.,-0.04800887,0.,0.
 ,-0.00161996,0.,0.,-0.00159219,0.,0.,-0.00004414,-0.01175838,0.0210141
 1,0.00157396,0.01175838,-0.02101411,0.00157396,0.,0.,0.04445813,-0.001
 96207,-0.00111974,0.,0.01014567,-0.01804578,0.,-0.10420691,0.11703092,
 0.,-0.02526299,0.02183731,0.,0.00094625,0.00129300,0.,0.00070088,0.000
 66019,-0.00028754,0.00070088,0.00066019,0.00028754,-0.00217745,-0.0026
 3745,0.,0.12111574,-0.00106872,-0.00019336,0.,0.01336976,-0.02130480,0
 .,0.10545579,-0.24138443,0.,0.00442444,0.00188542,0.,0.00056938,-0.000
 67587,0.,0.00024845,0.00140524,-0.00068069,0.00024845,0.00140524,0.000
 68069,-0.00356890,-0.00208705,0.,-0.11967865,0.26094961,0.,0.,-0.00092
 031,0.,0.,0.00961720,0.,0.00000002,-0.04692420,0.,-0.00000002,0.010651
 30,0.,-0.00000001,0.00326100,0.00168596,0.00195707,0.00112424,-0.00168
 596,-0.00195707,0.00112424,0.,0.,0.00353990,0.,0.,0.01852663\\0.000275
 66,0.00005100,0.,-0.00001286,0.00001764,0.,-0.00007312,-0.00001215,0.,
 0.00008163,-0.00003155,0.,-0.00031936,-0.00005878,0.,0.00000652,0.0000
 2045,-0.00005186,0.00000652,0.00002045,0.00005186,0.00003886,-0.000028
 49,0.,-0.00000385,0.00002141,0.\\\@


 MISERY NO LONGER LOVES COMPANY.  NOWADAYS IT INSISTS ON IT.

                                              -- BAKER'S LAW
 Job cpu time:       0 days  0 hours 43 minutes 57.3 seconds.
 File lengths (MBytes):  RWF=     80 Int=      0 D2E=      0 Chk=      5 Scr=      1
 Normal termination of Gaussian 09 at Fri Mar  1 08:31:40 2019.
