 Entering Gaussian System, Link 0=/home/proyectos/fulerenos/M3C-v2.0/M3C-deps_CCC/g09-AM64L-G09RevC.01/g09
 Initial command:
 /home/proyectos/fulerenos/M3C-v2.0/M3C-deps_CCC/g09-AM64L-G09RevC.01/l1.exe "/scratch/naguirre/gaussian/Gau-19503.inp" -scrdir="/scratch/naguirre/gaussian/"
 Entering Link 1 = /home/proyectos/fulerenos/M3C-v2.0/M3C-deps_CCC/g09-AM64L-G09RevC.01/l1.exe PID=     19511.
  
 Copyright (c) 1988,1990,1992,1993,1995,1998,2003,2009,2015,
            Gaussian, Inc.  All Rights Reserved.
  
 This is part of the Gaussian(R) 09 program.  It is based on
 the Gaussian(R) 03 system (copyright 2003, Gaussian, Inc.),
 the Gaussian(R) 98 system (copyright 1998, Gaussian, Inc.),
 the Gaussian(R) 94 system (copyright 1995, Gaussian, Inc.),
 the Gaussian 92(TM) system (copyright 1992, Gaussian, Inc.),
 the Gaussian 90(TM) system (copyright 1990, Gaussian, Inc.),
 the Gaussian 88(TM) system (copyright 1988, Gaussian, Inc.),
 the Gaussian 86(TM) system (copyright 1986, Carnegie Mellon
 University), and the Gaussian 82(TM) system (copyright 1983,
 Carnegie Mellon University). Gaussian is a federally registered
 trademark of Gaussian, Inc.
  
 This software contains proprietary and confidential information,
 including trade secrets, belonging to Gaussian, Inc.
  
 This software is provided under written license and may be
 used, copied, transmitted, or stored only in accord with that
 written license.
  
 The following legend is applicable only to US Government
 contracts under FAR:
  
                    RESTRICTED RIGHTS LEGEND
  
 Use, reproduction and disclosure by the US Government is
 subject to restrictions as set forth in subparagraphs (a)
 and (c) of the Commercial Computer Software - Restricted
 Rights clause in FAR 52.227-19.
  
 Gaussian, Inc.
 340 Quinnipiac St., Bldg. 40, Wallingford CT 06492
  
  
 ---------------------------------------------------------------
 Warning -- This program may not be used in any manner that
 competes with the business of Gaussian, Inc. or will provide
 assistance to any competitor of Gaussian, Inc.  The licensee
 of this program is prohibited from giving any competitor of
 Gaussian, Inc. access to this program.  By using this program,
 the user acknowledges that Gaussian, Inc. is engaged in the
 business of creating and licensing software in the field of
 computational chemistry and represents and warrants to the
 licensee that it is not a competitor of Gaussian, Inc. and that
 it will not use this program in any manner prohibited above.
 ---------------------------------------------------------------
  

 Cite this work as:
 Gaussian 09, Revision E.01,
 M. J. Frisch, G. W. Trucks, H. B. Schlegel, G. E. Scuseria, 
 M. A. Robb, J. R. Cheeseman, G. Scalmani, V. Barone, B. Mennucci, 
 G. A. Petersson, H. Nakatsuji, M. Caricato, X. Li, H. P. Hratchian, 
 A. F. Izmaylov, J. Bloino, G. Zheng, J. L. Sonnenberg, M. Hada, 
 M. Ehara, K. Toyota, R. Fukuda, J. Hasegawa, M. Ishida, T. Nakajima, 
 Y. Honda, O. Kitao, H. Nakai, T. Vreven, J. A. Montgomery, Jr., 
 J. E. Peralta, F. Ogliaro, M. Bearpark, J. J. Heyd, E. Brothers, 
 K. N. Kudin, V. N. Staroverov, T. Keith, R. Kobayashi, J. Normand, 
 K. Raghavachari, A. Rendell, J. C. Burant, S. S. Iyengar, J. Tomasi, 
 M. Cossi, N. Rega, J. M. Millam, M. Klene, J. E. Knox, J. B. Cross, 
 V. Bakken, C. Adamo, J. Jaramillo, R. Gomperts, R. E. Stratmann, 
 O. Yazyev, A. J. Austin, R. Cammi, C. Pomelli, J. W. Ochterski, 
 R. L. Martin, K. Morokuma, V. G. Zakrzewski, G. A. Voth, 
 P. Salvador, J. J. Dannenberg, S. Dapprich, A. D. Daniels, 
 O. Farkas, J. B. Foresman, J. V. Ortiz, J. Cioslowski, 
 and D. J. Fox, Gaussian, Inc., Wallingford CT, 2013.
 
 ******************************************
 Gaussian 09:  EM64L-G09RevE.01 30-Nov-2015
                 1-Mar-2019 
 ******************************************
 %NProcShared=4
 Will use up to    4 processors via shared memory.
 ------------------------------------------------------
 #p b3lyp/6-311++G(3df,2p) freq IOp(2/17=3) IOp(2/18=3)
 ------------------------------------------------------
 1/10=4,30=1,38=1/1,3;
 2/12=2,17=3,18=3,40=1/2;
 3/5=4,6=6,7=1216,11=2,16=1,25=1,30=1,71=2,74=-5,140=1/1,2,3;
 4//1;
 5/5=2,38=5,98=1/2;
 8/6=4,10=90,11=11/1;
 11/6=1,8=1,9=11,15=111,16=1/1,2,10;
 10/6=1/2;
 6/7=2,8=2,9=2,10=2,18=1,28=1/1;
 7/8=1,10=1,25=1/1,2,3,16;
 1/10=4,30=1/3;
 99//99;
 Leave Link    1 at Fri Mar  1 07:40:07 2019, MaxMem=           0 cpu:         0.2
 (Enter /home/proyectos/fulerenos/M3C-v2.0/M3C-deps_CCC/g09-AM64L-G09RevC.01/l101.exe)
 ---------
 b3lyp opt
 ---------
 Symbolic Z-matrix:
 Charge =  0 Multiplicity = 1
 O                     2.7291    0.85759   0. 
 C                     0.7532   -0.44566   0. 
 C                     1.52288   0.81216   0. 
 C                    -0.5565   -0.43938   0. 
 C                    -1.85166  -0.39302   0. 
 H                     1.31808  -1.3713    0. 
 H                     0.91137   1.73432   0. 
 H                    -2.41329  -0.37736   0.92638 
 H                    -2.41329  -0.37736  -0.92638 
 
 NAtoms=      9 NQM=        9 NQMF=       0 NMMI=      0 NMMIF=      0
                NMic=       0 NMicF=      0.
                    Isotopes and Nuclear Properties:
 (Nuclear quadrupole moments (NQMom) in fm**2, nuclear magnetic moments (NMagM)
  in nuclear magnetons)

  Atom         1           2           3           4           5           6           7           8           9
 IAtWgt=          16          12          12          12          12           1           1           1           1
 AtmWgt=  15.9949146  12.0000000  12.0000000  12.0000000  12.0000000   1.0078250   1.0078250   1.0078250   1.0078250
 NucSpn=           0           0           0           0           0           1           1           1           1
 AtZEff=   0.0000000   0.0000000   0.0000000   0.0000000   0.0000000   0.0000000   0.0000000   0.0000000   0.0000000
 NQMom=    0.0000000   0.0000000   0.0000000   0.0000000   0.0000000   0.0000000   0.0000000   0.0000000   0.0000000
 NMagM=    0.0000000   0.0000000   0.0000000   0.0000000   0.0000000   2.7928460   2.7928460   2.7928460   2.7928460
 AtZNuc=   8.0000000   6.0000000   6.0000000   6.0000000   6.0000000   1.0000000   1.0000000   1.0000000   1.0000000
 Leave Link  101 at Fri Mar  1 07:40:07 2019, MaxMem=    33554432 cpu:         0.3
 (Enter /home/proyectos/fulerenos/M3C-v2.0/M3C-deps_CCC/g09-AM64L-G09RevC.01/l103.exe)

 GradGradGradGradGradGradGradGradGradGradGradGradGradGradGradGradGradGrad
 Berny optimization.
 Initialization pass.
 Trust Radius=3.00D-01 FncErr=1.00D-07 GrdErr=1.00D-07
 Number of steps in this run=      2 maximum allowed number of steps=      2.
 GradGradGradGradGradGradGradGradGradGradGradGradGradGradGradGradGradGrad

 Leave Link  103 at Fri Mar  1 07:40:07 2019, MaxMem=    33554432 cpu:         0.1
 (Enter /home/proyectos/fulerenos/M3C-v2.0/M3C-deps_CCC/g09-AM64L-G09RevC.01/l202.exe)
                          Input orientation:                          
 ---------------------------------------------------------------------
 Center     Atomic      Atomic             Coordinates (Angstroms)
 Number     Number       Type             X           Y           Z
 ---------------------------------------------------------------------
      1          8           0        2.729096    0.857591    0.000000
      2          6           0        0.753204   -0.445656    0.000000
      3          6           0        1.522878    0.812158    0.000000
      4          6           0       -0.556495   -0.439384    0.000000
      5          6           0       -1.851663   -0.393015    0.000000
      6          1           0        1.318080   -1.371301    0.000000
      7          1           0        0.911372    1.734320    0.000000
      8          1           0       -2.413286   -0.377357    0.926377
      9          1           0       -2.413285   -0.377357   -0.926377
 ---------------------------------------------------------------------
                    Distance matrix (angstroms):
                    1          2          3          4          5
     1  O    0.000000
     2  C    2.366982   0.000000
     3  C    1.207073   1.474617   0.000000
     4  C    3.532315   1.309714   2.426963   0.000000
     5  C    4.748407   2.605399   3.583290   1.295998   0.000000
     6  H    2.637978   1.084391   2.193043   2.093442   3.317275
     7  H    2.018112   2.185706   1.106491   2.622903   3.487107
     8  H    5.369112   3.299924   4.215033   2.075980   1.083439
     9  H    5.369111   3.299923   4.215033   2.075979   1.083438
                    6          7          8          9
     6  H    0.000000
     7  H    3.132139   0.000000
     8  H    3.971044   4.046073   0.000000
     9  H    3.971043   4.046072   1.852754   0.000000
 Stoichiometry    C4H4O
 Framework group  CS[SG(C4H2O),X(H2)]
 Deg. of freedom    14
 Full point group                 CS      NOp   2
 Largest Abelian subgroup         CS      NOp   2
 Largest concise Abelian subgroup CS      NOp   2
                         Standard orientation:                         
 ---------------------------------------------------------------------
 Center     Atomic      Atomic             Coordinates (Angstroms)
 Number     Number       Type             X           Y           Z
 ---------------------------------------------------------------------
      1          8           0       -2.333373    0.200881    0.000000
      2          6           0        0.000000    0.598337    0.000000
      3          6           0       -1.210941   -0.243159    0.000000
      4          6           0        1.196339    0.065305    0.000000
      5          6           0        2.363234   -0.498581    0.000000
      6          1           0       -0.144404    1.673070    0.000000
      7          1           0       -1.022451   -1.333478    0.000000
      8          1           0        2.871025   -0.739026    0.926377
      9          1           0        2.871025   -0.739026   -0.926377
 ---------------------------------------------------------------------
 Rotational constants (GHZ):     36.1002963      2.4053664      2.2904669
 Leave Link  202 at Fri Mar  1 07:40:07 2019, MaxMem=    33554432 cpu:         0.0
 (Enter /home/proyectos/fulerenos/M3C-v2.0/M3C-deps_CCC/g09-AM64L-G09RevC.01/l301.exe)
 Standard basis: 6-311++G(3df,2p) (5D, 7F)
 Ernie: Thresh=  0.10000D-02 Tol=  0.10000D-05 Strict=F.
 There are   181 symmetry adapted cartesian basis functions of A'  symmetry.
 There are    84 symmetry adapted cartesian basis functions of A"  symmetry.
 There are   156 symmetry adapted basis functions of A'  symmetry.
 There are    79 symmetry adapted basis functions of A"  symmetry.
   235 basis functions,   338 primitive gaussians,   265 cartesian basis functions
    18 alpha electrons       18 beta electrons
       nuclear repulsion energy       138.8615705520 Hartrees.
 IExCor=  402 DFT=T Ex+Corr=B3LYP ExCW=0 ScaHFX=  0.200000
 ScaDFX=  0.800000  0.720000  1.000000  0.810000 ScalE2=  1.000000  1.000000
 IRadAn=      0 IRanWt=     -1 IRanGd=            0 ICorTp=0 IEmpDi=  4
 NAtoms=    9 NActive=    9 NUniq=    8 SFac= 1.27D+00 NAtFMM=   60 NAOKFM=F Big=F
 Integral buffers will be    131072 words long.
 Raffenetti 2 integral format.
 Two-electron integral symmetry is turned on.
 Leave Link  301 at Fri Mar  1 07:40:07 2019, MaxMem=    33554432 cpu:         0.3
 (Enter /home/proyectos/fulerenos/M3C-v2.0/M3C-deps_CCC/g09-AM64L-G09RevC.01/l302.exe)
 NPDir=0 NMtPBC=     1 NCelOv=     1 NCel=       1 NClECP=     1 NCelD=      1
         NCelK=      1 NCelE2=     1 NClLst=     1 CellRange=     0.0.
 One-electron integrals computed using PRISM.
 One-electron integral symmetry used in STVInt
 NBasis=   235 RedAO= T EigKep=  2.39D-06  NBF=   156    79
 NBsUse=   235 1.00D-06 EigRej= -1.00D+00 NBFU=   156    79
 Precomputing XC quadrature grid using
 IXCGrd= 4 IRadAn=           0 IRanWt=          -1 IRanGd=           0 AccXCQ= 0.00D+00.
 Generated NRdTot=       0 NPtTot=           0 NUsed=           0 NTot=          32
 NSgBfM=   265   265   265   265   265 MxSgAt=     9 MxSgA2=     9.
 Leave Link  302 at Fri Mar  1 07:40:07 2019, MaxMem=    33554432 cpu:         1.6
 (Enter /home/proyectos/fulerenos/M3C-v2.0/M3C-deps_CCC/g09-AM64L-G09RevC.01/l303.exe)
 DipDrv:  MaxL=1.
 Leave Link  303 at Fri Mar  1 07:40:08 2019, MaxMem=    33554432 cpu:         0.1
 (Enter /home/proyectos/fulerenos/M3C-v2.0/M3C-deps_CCC/g09-AM64L-G09RevC.01/l401.exe)
 ExpMin= 3.60D-02 ExpMax= 8.59D+03 ExpMxC= 1.30D+03 IAcc=3 IRadAn=         5 AccDes= 0.00D+00
 Harris functional with IExCor=  402 and IRadAn=       5 diagonalized for initial guess.
 HarFok:  IExCor=  402 AccDes= 0.00D+00 IRadAn=         5 IDoV= 1 UseB2=F ITyADJ=14
 ICtDFT=  3500011 ScaDFX=  1.000000  1.000000  1.000000  1.000000
 FoFCou: FMM=F IPFlag=           0 FMFlag=      100000 FMFlg1=           0
         NFxFlg=           0 DoJE=T BraDBF=F KetDBF=T FulRan=T
         wScrn=  0.000000 ICntrl=     500 IOpCl=  0 I1Cent=   200000004 NGrid=           0
         NMat0=    1 NMatS0=      1 NMatT0=    0 NMatD0=    1 NMtDS0=    0 NMtDT0=    0
 Petite list used in FoFCou.
 Harris En= -230.110659991475    
 JPrj=0 DoOrth=F DoCkMO=F.
 Initial guess orbital symmetries:
       Occupied  (A') (A') (A') (A') (A') (A') (A') (A') (A') (A')
                 (A') (A') (A") (A') (A") (A') (A") (A')
       Virtual   (A") (A') (A") (A') (A') (A') (A") (A') (A') (A")
                 (A') (A") (A') (A') (A') (A') (A') (A") (A') (A")
                 (A') (A') (A') (A') (A') (A') (A") (A') (A") (A')
                 (A") (A') (A') (A') (A') (A') (A") (A") (A') (A')
                 (A') (A') (A") (A") (A') (A') (A') (A") (A') (A')
                 (A") (A') (A") (A') (A') (A") (A') (A") (A") (A')
                 (A') (A') (A') (A") (A') (A') (A") (A') (A') (A")
                 (A') (A") (A') (A') (A") (A') (A') (A") (A') (A")
                 (A') (A') (A') (A") (A') (A') (A') (A") (A') (A")
                 (A') (A") (A') (A') (A') (A") (A') (A") (A') (A')
                 (A") (A") (A') (A') (A") (A') (A") (A') (A') (A')
                 (A') (A') (A") (A') (A') (A") (A') (A") (A') (A")
                 (A') (A") (A") (A") (A') (A') (A') (A") (A') (A')
                 (A") (A") (A') (A') (A') (A") (A') (A") (A') (A')
                 (A") (A') (A') (A") (A') (A') (A") (A') (A') (A")
                 (A') (A') (A') (A") (A') (A") (A') (A') (A') (A")
                 (A') (A") (A') (A") (A') (A") (A') (A') (A") (A')
                 (A') (A") (A') (A") (A') (A") (A') (A') (A') (A")
                 (A') (A") (A') (A') (A") (A') (A') (A") (A") (A')
                 (A') (A") (A") (A") (A') (A") (A') (A') (A') (A")
                 (A') (A') (A') (A") (A') (A') (A') (A") (A') (A")
                 (A') (A') (A') (A') (A') (A') (A')
 The electronic state of the initial guess is 1-A'.
 Leave Link  401 at Fri Mar  1 07:40:09 2019, MaxMem=    33554432 cpu:         7.1
 (Enter /home/proyectos/fulerenos/M3C-v2.0/M3C-deps_CCC/g09-AM64L-G09RevC.01/l502.exe)
 Closed shell SCF:
 Using DIIS extrapolation, IDIIS=  1040.
 Integral symmetry usage will be decided dynamically.
 IVT=      233035 IEndB=      233035 NGot=    33554432 MDV=    33408528
 LenX=    33408528 LenY=    33337862
 Requested convergence on RMS density matrix=1.00D-08 within 128 cycles.
 Requested convergence on MAX density matrix=1.00D-06.
 Requested convergence on             energy=1.00D-06.
 No special actions if energy rises.
 Fock matrices will be formed incrementally for  20 cycles.

 Cycle   1  Pass 1  IDiag  1:
 FoFJK:  IHMeth= 1 ICntrl=       0 DoSepK=F KAlg= 0 I1Cent=   0 FoldK=F
 IRaf= 970000000 NMat=   1 IRICut=       1 DoRegI=T DoRafI=F ISym2E= 1.
 FoFCou: FMM=F IPFlag=           0 FMFlag=      100000 FMFlg1=           0
         NFxFlg=           0 DoJE=F BraDBF=F KetDBF=F FulRan=T
         wScrn=  0.000000 ICntrl=       0 IOpCl=  0 I1Cent=           0 NGrid=           0
         NMat0=    1 NMatS0=      1 NMatT0=    0 NMatD0=    1 NMtDS0=    0 NMtDT0=    0
 Petite list used in FoFCou.
 E= -229.924265025616    
 DIIS: error= 3.28D-02 at cycle   1 NSaved=   1.
 NSaved= 1 IEnMin= 1 EnMin= -229.924265025616     IErMin= 1 ErrMin= 3.28D-02
 ErrMax= 3.28D-02  0.00D+00 EMaxC= 1.00D-01 BMatC= 1.78D-01 BMatP= 1.78D-01
 IDIUse=3 WtCom= 6.72D-01 WtEn= 3.28D-01
 Coeff-Com:  0.100D+01
 Coeff-En:   0.100D+01
 Coeff:      0.100D+01
 Gap=     0.145 Goal=   None    Shift=    0.000
 GapD=    0.145 DampG=1.000 DampE=0.500 DampFc=0.5000 IDamp=-1.
 Damping current iteration by 5.00D-01
 RMSDP=1.74D-02 MaxDP=1.71D+00              OVMax= 2.42D-01

 Cycle   2  Pass 1  IDiag  1:
 RMSU=  8.67D-03    CP:  1.04D+00
 E= -229.965344023320     Delta-E=       -0.041078997704 Rises=F Damp=T
 DIIS: error= 1.15D-02 at cycle   2 NSaved=   2.
 NSaved= 2 IEnMin= 2 EnMin= -229.965344023320     IErMin= 2 ErrMin= 1.15D-02
 ErrMax= 1.15D-02  0.00D+00 EMaxC= 1.00D-01 BMatC= 2.88D-02 BMatP= 1.78D-01
 IDIUse=3 WtCom= 8.85D-01 WtEn= 1.15D-01
 Coeff-Com:  0.206D+00 0.794D+00
 Coeff-En:   0.331D+00 0.669D+00
 Coeff:      0.221D+00 0.779D+00
 Gap=     0.227 Goal=   None    Shift=    0.000
 RMSDP=8.20D-03 MaxDP=1.20D+00 DE=-4.11D-02 OVMax= 2.33D-01

 Cycle   3  Pass 1  IDiag  1:
 RMSU=  3.79D-03    CP:  8.39D-01  3.09D-01
 E= -230.040124391865     Delta-E=       -0.074780368546 Rises=F Damp=F
 DIIS: error= 1.49D-02 at cycle   3 NSaved=   3.
 NSaved= 3 IEnMin= 3 EnMin= -230.040124391865     IErMin= 2 ErrMin= 1.15D-02
 ErrMax= 1.49D-02  0.00D+00 EMaxC= 1.00D-01 BMatC= 3.59D-02 BMatP= 2.88D-02
 IDIUse=2 WtCom= 0.00D+00 WtEn= 1.00D+00
 Coeff-En:   0.000D+00 0.000D+00 0.100D+01
 Coeff:      0.000D+00 0.000D+00 0.100D+01
 Gap=     0.211 Goal=   None    Shift=    0.000
 RMSDP=3.83D-03 MaxDP=4.19D-01 DE=-7.48D-02 OVMax= 2.58D-01

 Cycle   4  Pass 1  IDiag  1:
 RMSU=  2.01D-03    CP:  9.33D-01  5.61D-01  6.05D-01
 E= -229.892234440243     Delta-E=        0.147889951622 Rises=F Damp=F
 DIIS: error= 3.83D-02 at cycle   4 NSaved=   4.
 NSaved= 4 IEnMin= 3 EnMin= -230.040124391865     IErMin= 2 ErrMin= 1.15D-02
 ErrMax= 3.83D-02  0.00D+00 EMaxC= 1.00D-01 BMatC= 2.20D-01 BMatP= 2.88D-02
 IDIUse=2 WtCom= 0.00D+00 WtEn= 1.00D+00
 Coeff-En:   0.000D+00 0.000D+00 0.799D+00 0.201D+00
 Coeff:      0.000D+00 0.000D+00 0.799D+00 0.201D+00
 Gap=     0.180 Goal=   None    Shift=    0.000
 RMSDP=2.73D-03 MaxDP=2.92D-01 DE= 1.48D-01 OVMax= 1.09D-01

 Cycle   5  Pass 1  IDiag  1:
 RMSU=  2.72D-04    CP:  8.83D-01  3.09D-01  7.59D-01  4.54D-01
 E= -230.057255177418     Delta-E=       -0.165020737174 Rises=F Damp=F
 DIIS: error= 9.80D-03 at cycle   5 NSaved=   5.
 NSaved= 5 IEnMin= 5 EnMin= -230.057255177418     IErMin= 5 ErrMin= 9.80D-03
 ErrMax= 9.80D-03  0.00D+00 EMaxC= 1.00D-01 BMatC= 1.62D-02 BMatP= 2.88D-02
 IDIUse=3 WtCom= 9.02D-01 WtEn= 9.80D-02
 Coeff-Com: -0.731D-02 0.358D-01 0.311D+00-0.943D-01 0.755D+00
 Coeff-En:   0.000D+00 0.000D+00 0.349D+00 0.000D+00 0.651D+00
 Coeff:     -0.659D-02 0.323D-01 0.315D+00-0.850D-01 0.745D+00
 Gap=     0.199 Goal=   None    Shift=    0.000
 RMSDP=7.18D-04 MaxDP=7.24D-02 DE=-1.65D-01 OVMax= 3.76D-02

 Cycle   6  Pass 1  IDiag  1:
 RMSU=  9.05D-05    CP:  8.62D-01  2.82D-01  8.50D-01  2.58D-01  9.83D-01
 E= -230.070511214327     Delta-E=       -0.013256036910 Rises=F Damp=F
 DIIS: error= 2.21D-04 at cycle   6 NSaved=   6.
 NSaved= 6 IEnMin= 6 EnMin= -230.070511214327     IErMin= 6 ErrMin= 2.21D-04
 ErrMax= 2.21D-04  0.00D+00 EMaxC= 1.00D-01 BMatC= 1.20D-05 BMatP= 1.62D-02
 IDIUse=3 WtCom= 9.98D-01 WtEn= 2.21D-03
 Coeff-Com: -0.442D-02 0.111D-01 0.102D+00-0.417D-01 0.292D+00 0.641D+00
 Coeff-En:   0.000D+00 0.000D+00 0.000D+00 0.000D+00 0.000D+00 0.100D+01
 Coeff:     -0.441D-02 0.111D-01 0.102D+00-0.416D-01 0.292D+00 0.642D+00
 Gap=     0.197 Goal=   None    Shift=    0.000
 RMSDP=3.64D-05 MaxDP=2.25D-03 DE=-1.33D-02 OVMax= 1.96D-03

 Cycle   7  Pass 1  IDiag  1:
 RMSU=  2.44D-05    CP:  8.61D-01  2.84D-01  8.54D-01  2.59D-01  9.89D-01
                    CP:  9.26D-01
 E= -230.070517311538     Delta-E=       -0.000006097210 Rises=F Damp=F
 DIIS: error= 2.02D-04 at cycle   7 NSaved=   7.
 NSaved= 7 IEnMin= 7 EnMin= -230.070517311538     IErMin= 7 ErrMin= 2.02D-04
 ErrMax= 2.02D-04  0.00D+00 EMaxC= 1.00D-01 BMatC= 4.39D-06 BMatP= 1.20D-05
 IDIUse=3 WtCom= 9.98D-01 WtEn= 2.02D-03
 Coeff-Com: -0.914D-03 0.286D-03 0.253D-01-0.109D-01 0.755D-01 0.383D+00
 Coeff-Com:  0.527D+00
 Coeff-En:   0.000D+00 0.000D+00 0.000D+00 0.000D+00 0.000D+00 0.296D+00
 Coeff-En:   0.704D+00
 Coeff:     -0.912D-03 0.285D-03 0.252D-01-0.109D-01 0.754D-01 0.383D+00
 Coeff:      0.528D+00
 Gap=     0.197 Goal=   None    Shift=    0.000
 RMSDP=2.44D-05 MaxDP=1.14D-03 DE=-6.10D-06 OVMax= 8.18D-04

 Cycle   8  Pass 1  IDiag  1:
 RMSU=  9.44D-06    CP:  8.61D-01  2.81D-01  8.53D-01  2.58D-01  9.89D-01
                    CP:  9.26D-01  6.14D-01
 E= -230.070521010736     Delta-E=       -0.000003699198 Rises=F Damp=F
 DIIS: error= 3.37D-05 at cycle   8 NSaved=   8.
 NSaved= 8 IEnMin= 8 EnMin= -230.070521010736     IErMin= 8 ErrMin= 3.37D-05
 ErrMax= 3.37D-05  0.00D+00 EMaxC= 1.00D-01 BMatC= 2.11D-07 BMatP= 4.39D-06
 IDIUse=1 WtCom= 1.00D+00 WtEn= 0.00D+00
 Coeff-Com: -0.107D-03-0.385D-03 0.580D-02-0.312D-02 0.188D-01 0.155D+00
 Coeff-Com:  0.274D+00 0.550D+00
 Coeff:     -0.107D-03-0.385D-03 0.580D-02-0.312D-02 0.188D-01 0.155D+00
 Coeff:      0.274D+00 0.550D+00
 Gap=     0.197 Goal=   None    Shift=    0.000
 RMSDP=7.62D-06 MaxDP=7.83D-04 DE=-3.70D-06 OVMax= 2.32D-04

 Cycle   9  Pass 1  IDiag  1:
 RMSU=  2.81D-06    CP:  8.61D-01  2.81D-01  8.53D-01  2.58D-01  9.92D-01
                    CP:  9.32D-01  6.24D-01  1.12D+00
 E= -230.070521212185     Delta-E=       -0.000000201449 Rises=F Damp=F
 DIIS: error= 7.35D-06 at cycle   9 NSaved=   9.
 NSaved= 9 IEnMin= 9 EnMin= -230.070521212185     IErMin= 9 ErrMin= 7.35D-06
 ErrMax= 7.35D-06  0.00D+00 EMaxC= 1.00D-01 BMatC= 1.04D-08 BMatP= 2.11D-07
 IDIUse=1 WtCom= 1.00D+00 WtEn= 0.00D+00
 Coeff-Com:  0.910D-04-0.229D-03-0.498D-03-0.203D-04-0.101D-02 0.111D-01
 Coeff-Com:  0.359D-01 0.215D+00 0.739D+00
 Coeff:      0.910D-04-0.229D-03-0.498D-03-0.203D-04-0.101D-02 0.111D-01
 Coeff:      0.359D-01 0.215D+00 0.739D+00
 Gap=     0.197 Goal=   None    Shift=    0.000
 RMSDP=1.09D-06 MaxDP=5.52D-05 DE=-2.01D-07 OVMax= 5.44D-05

 Cycle  10  Pass 1  IDiag  1:
 RMSU=  5.63D-07    CP:  8.61D-01  2.81D-01  8.53D-01  2.58D-01  9.92D-01
                    CP:  9.36D-01  6.19D-01  1.14D+00  9.36D-01
 E= -230.070521222284     Delta-E=       -0.000000010099 Rises=F Damp=F
 DIIS: error= 1.92D-06 at cycle  10 NSaved=  10.
 NSaved=10 IEnMin=10 EnMin= -230.070521222284     IErMin=10 ErrMin= 1.92D-06
 ErrMax= 1.92D-06  0.00D+00 EMaxC= 1.00D-01 BMatC= 6.69D-10 BMatP= 1.04D-08
 IDIUse=1 WtCom= 1.00D+00 WtEn= 0.00D+00
 Coeff-Com:  0.467D-04-0.110D-03-0.357D-03 0.767D-04-0.932D-03 0.178D-02
 Coeff-Com:  0.117D-01 0.828D-01 0.345D+00 0.560D+00
 Coeff:      0.467D-04-0.110D-03-0.357D-03 0.767D-04-0.932D-03 0.178D-02
 Coeff:      0.117D-01 0.828D-01 0.345D+00 0.560D+00
 Gap=     0.197 Goal=   None    Shift=    0.000
 RMSDP=2.63D-07 MaxDP=1.59D-05 DE=-1.01D-08 OVMax= 1.84D-05

 Cycle  11  Pass 1  IDiag  1:
 RMSU=  1.75D-07    CP:  8.61D-01  2.81D-01  8.53D-01  2.58D-01  9.92D-01
                    CP:  9.35D-01  6.21D-01  1.14D+00  9.60D-01  8.16D-01
 E= -230.070521222888     Delta-E=       -0.000000000603 Rises=F Damp=F
 DIIS: error= 1.14D-06 at cycle  11 NSaved=  11.
 NSaved=11 IEnMin=11 EnMin= -230.070521222888     IErMin=11 ErrMin= 1.14D-06
 ErrMax= 1.14D-06  0.00D+00 EMaxC= 1.00D-01 BMatC= 2.08D-10 BMatP= 6.69D-10
 IDIUse=1 WtCom= 1.00D+00 WtEn= 0.00D+00
 Coeff-Com:  0.913D-05-0.160D-04-0.134D-03 0.383D-04-0.362D-03-0.167D-02
 Coeff-Com: -0.258D-03 0.861D-02 0.815D-01 0.365D+00 0.547D+00
 Coeff:      0.913D-05-0.160D-04-0.134D-03 0.383D-04-0.362D-03-0.167D-02
 Coeff:     -0.258D-03 0.861D-02 0.815D-01 0.365D+00 0.547D+00
 Gap=     0.197 Goal=   None    Shift=    0.000
 RMSDP=1.59D-07 MaxDP=1.71D-05 DE=-6.03D-10 OVMax= 6.49D-06

 Cycle  12  Pass 1  IDiag  1:
 RMSU=  6.00D-08    CP:  8.61D-01  2.81D-01  8.53D-01  2.58D-01  9.92D-01
                    CP:  9.35D-01  6.22D-01  1.15D+00  9.60D-01  8.29D-01
                    CP:  6.53D-01
 E= -230.070521223094     Delta-E=       -0.000000000206 Rises=F Damp=F
 DIIS: error= 9.81D-08 at cycle  12 NSaved=  12.
 NSaved=12 IEnMin=12 EnMin= -230.070521223094     IErMin=12 ErrMin= 9.81D-08
 ErrMax= 9.81D-08  0.00D+00 EMaxC= 1.00D-01 BMatC= 1.52D-12 BMatP= 2.08D-10
 IDIUse=1 WtCom= 1.00D+00 WtEn= 0.00D+00
 Coeff-Com: -0.205D-05 0.516D-05 0.262D-06 0.734D-07 0.130D-05-0.505D-03
 Coeff-Com: -0.768D-03-0.475D-02-0.848D-02 0.402D-01 0.101D+00 0.873D+00
 Coeff:     -0.205D-05 0.516D-05 0.262D-06 0.734D-07 0.130D-05-0.505D-03
 Coeff:     -0.768D-03-0.475D-02-0.848D-02 0.402D-01 0.101D+00 0.873D+00
 Gap=     0.197 Goal=   None    Shift=    0.000
 RMSDP=3.77D-08 MaxDP=4.46D-06 DE=-2.06D-10 OVMax= 7.23D-07

 Cycle  13  Pass 1  IDiag  1:
 RMSU=  9.55D-09    CP:  8.61D-01  2.81D-01  8.53D-01  2.58D-01  9.92D-01
                    CP:  9.35D-01  6.22D-01  1.15D+00  9.64D-01  8.42D-01
                    CP:  6.68D-01  1.02D+00
 E= -230.070521223090     Delta-E=        0.000000000004 Rises=F Damp=F
 DIIS: error= 1.78D-08 at cycle  13 NSaved=  13.
 NSaved=13 IEnMin=12 EnMin= -230.070521223094     IErMin=13 ErrMin= 1.78D-08
 ErrMax= 1.78D-08  0.00D+00 EMaxC= 1.00D-01 BMatC= 7.22D-14 BMatP= 1.52D-12
 IDIUse=1 WtCom= 1.00D+00 WtEn= 0.00D+00
 Coeff-Com: -0.307D-06 0.531D-06 0.317D-05-0.689D-06 0.706D-05-0.430D-04
 Coeff-Com: -0.706D-04-0.899D-03-0.270D-02-0.191D-02 0.312D-02 0.126D+00
 Coeff-Com:  0.876D+00
 Coeff:     -0.307D-06 0.531D-06 0.317D-05-0.689D-06 0.706D-05-0.430D-04
 Coeff:     -0.706D-04-0.899D-03-0.270D-02-0.191D-02 0.312D-02 0.126D+00
 Coeff:      0.876D+00
 Gap=     0.197 Goal=   None    Shift=    0.000
 RMSDP=4.45D-09 MaxDP=1.95D-07 DE= 4.43D-12 OVMax= 1.09D-07

 SCF Done:  E(RB3LYP) =  -230.070521223     A.U. after   13 cycles
            NFock= 13  Conv=0.45D-08     -V/T= 2.0043
 KE= 2.290836147255D+02 PE=-8.143836266219D+02 EE= 2.163679201213D+02
 Leave Link  502 at Fri Mar  1 07:41:43 2019, MaxMem=    33554432 cpu:       372.8
 (Enter /home/proyectos/fulerenos/M3C-v2.0/M3C-deps_CCC/g09-AM64L-G09RevC.01/l801.exe)
 DoSCS=F DFT=T ScalE2(SS,OS)=  1.000000  1.000000
 Range of M.O.s used for correlation:     1   235
 NBasis=   235 NAE=    18 NBE=    18 NFC=     0 NFV=     0
 NROrb=    235 NOA=    18 NOB=    18 NVA=   217 NVB=   217

 **** Warning!!: The largest alpha MO coefficient is  0.27114315D+03

 Leave Link  801 at Fri Mar  1 07:41:43 2019, MaxMem=    33554432 cpu:         0.1
 (Enter /home/proyectos/fulerenos/M3C-v2.0/M3C-deps_CCC/g09-AM64L-G09RevC.01/l1101.exe)
 Using compressed storage, NAtomX=     9.
 Will process     10 centers per pass.
 Leave Link 1101 at Fri Mar  1 07:41:43 2019, MaxMem=    33554432 cpu:         1.5
 (Enter /home/proyectos/fulerenos/M3C-v2.0/M3C-deps_CCC/g09-AM64L-G09RevC.01/l1102.exe)
 Symmetrizing basis deriv contribution to polar:
 IMax=3 JMax=2 DiffMx= 0.00D+00
 Leave Link 1102 at Fri Mar  1 07:41:43 2019, MaxMem=    33554432 cpu:         0.2
 (Enter /home/proyectos/fulerenos/M3C-v2.0/M3C-deps_CCC/g09-AM64L-G09RevC.01/l1110.exe)
 Forming Gx(P) for the SCF density, NAtomX=     9.
 Integral derivatives from FoFJK, PRISM(SPDF).
 Do as many integral derivatives as possible in FoFJK.
 G2DrvN: MDV=      33554256.
 G2DrvN: will do    10 centers at a time, making    1 passes.
 Calling FoFCou, ICntrl=  3107 FMM=F I1Cent=   0 AccDes= 0.00D+00.
 FoFJK:  IHMeth= 1 ICntrl=    3107 DoSepK=F KAlg= 0 I1Cent=   0 FoldK=F
 IRaf=         0 NMat=   1 IRICut=       1 DoRegI=T DoRafI=F ISym2E= 1.
 FoFCou: FMM=F IPFlag=           0 FMFlag=      100000 FMFlg1=           0
         NFxFlg=           0 DoJE=F BraDBF=F KetDBF=F FulRan=T
         wScrn=  0.000000 ICntrl=    3107 IOpCl=  0 I1Cent=           0 NGrid=           0
         NMat0=    1 NMatS0=      1 NMatT0=    0 NMatD0=    1 NMtDS0=    0 NMtDT0=    0
 Petite list used in FoFCou.
 End of G2Drv F.D. properties file   721 does not exist.
 End of G2Drv F.D. properties file   722 does not exist.
 End of G2Drv F.D. properties file   788 does not exist.
 Leave Link 1110 at Fri Mar  1 07:42:47 2019, MaxMem=    33554432 cpu:       251.8
 (Enter /home/proyectos/fulerenos/M3C-v2.0/M3C-deps_CCC/g09-AM64L-G09RevC.01/l1002.exe)
 Minotr:  Closed shell wavefunction.
          IDoAtm=111111111
          Direct CPHF calculation.
          Differentiating once with respect to electric field.
                with respect to dipole field.
          Differentiating once with respect to nuclear coordinates.
          Using symmetry in CPHF.
          Requested convergence is 1.0D-08 RMS, and 1.0D-07 maximum.
          Secondary convergence is 1.0D-12 RMS, and 1.0D-12 maximum.
          NewPWx=T KeepS1=F KeepF1=F KeepIn=T MapXYZ=F SortEE=F KeepMc=T.
          MDV=      33554103 using IRadAn=       2.
 Generate precomputed XC quadrature information.
          Solving linear equations simultaneously, MaxMat=       0.
 FoFJK:  IHMeth= 1 ICntrl=       0 DoSepK=F KAlg= 0 I1Cent=   0 FoldK=F
 IRaf= 970000000 NMat=  27 IRICut=      67 DoRegI=T DoRafI=T ISym2E= 2.
 FoFCou: FMM=F IPFlag=           0 FMFlag=      100000 FMFlg1=           0
         NFxFlg=           0 DoJE=F BraDBF=F KetDBF=F FulRan=T
         wScrn=  0.000000 ICntrl=       0 IOpCl=  0 I1Cent=           0 NGrid=           0
         NMat0=   27 NMatS0=     27 NMatT0=    0 NMatD0=   27 NMtDS0=    0 NMtDT0=    0
 Integrals replicated using symmetry in FoFCou.
          There are    27 degrees of freedom in the 1st order CPHF.  IDoFFX=4 NUNeed=    27.
     27 vectors produced by pass  0 Test12= 1.45D-14 3.70D-09 XBig12= 1.25D+02 8.69D+00.
 AX will form    27 AO Fock derivatives at one time.
     27 vectors produced by pass  1 Test12= 1.45D-14 3.70D-09 XBig12= 2.56D+01 1.16D+00.
     27 vectors produced by pass  2 Test12= 1.45D-14 3.70D-09 XBig12= 4.03D-01 1.08D-01.
     27 vectors produced by pass  3 Test12= 1.45D-14 3.70D-09 XBig12= 3.69D-03 1.05D-02.
     27 vectors produced by pass  4 Test12= 1.45D-14 3.70D-09 XBig12= 1.03D-05 5.14D-04.
     26 vectors produced by pass  5 Test12= 1.45D-14 3.70D-09 XBig12= 1.69D-08 2.63D-05.
      8 vectors produced by pass  6 Test12= 1.45D-14 3.70D-09 XBig12= 2.74D-11 9.02D-07.
      6 vectors produced by pass  7 Test12= 1.45D-14 3.70D-09 XBig12= 1.14D-12 3.82D-07.
      6 vectors produced by pass  8 Test12= 1.45D-14 3.70D-09 XBig12= 3.81D-14 4.99D-08.
      2 vectors produced by pass  9 Test12= 1.45D-14 3.70D-09 XBig12= 2.77D-16 4.93D-09.
      1 vectors produced by pass 10 Test12= 1.45D-14 3.70D-09 XBig12= 3.13D-16 4.80D-09.
 InvSVY:  IOpt=1 It=  1 EMax= 3.55D-15
 Solved reduced A of dimension   184 with    27 vectors.
 FullF1:  Do perturbations    1 to    27.
 Isotropic polarizability for W=    0.000000       57.82 Bohr**3.
 End of Minotr F.D. properties file   721 does not exist.
 End of Minotr F.D. properties file   722 does not exist.
 End of Minotr F.D. properties file   788 does not exist.
 Leave Link 1002 at Fri Mar  1 07:46:53 2019, MaxMem=    33554432 cpu:       983.0
 (Enter /home/proyectos/fulerenos/M3C-v2.0/M3C-deps_CCC/g09-AM64L-G09RevC.01/l601.exe)
 Copying SCF densities to generalized density rwf, IOpCl= 0 IROHF=0.

 **********************************************************************

            Population analysis using the SCF density.

 **********************************************************************

 Orbital symmetries:
       Occupied  (A') (A') (A') (A') (A') (A') (A') (A') (A') (A')
                 (A') (A") (A') (A') (A") (A') (A") (A')
       Virtual   (A") (A') (A') (A') (A") (A') (A") (A') (A') (A')
                 (A") (A') (A") (A') (A') (A') (A') (A") (A') (A")
                 (A') (A') (A') (A') (A') (A") (A') (A") (A') (A")
                 (A') (A') (A') (A') (A') (A") (A') (A") (A') (A')
                 (A') (A") (A') (A") (A') (A') (A') (A') (A") (A')
                 (A") (A") (A') (A') (A") (A') (A") (A') (A") (A')
                 (A') (A') (A") (A') (A') (A') (A") (A') (A') (A")
                 (A') (A') (A") (A") (A') (A') (A") (A') (A') (A")
                 (A') (A') (A') (A") (A') (A') (A') (A") (A') (A")
                 (A') (A') (A") (A') (A') (A") (A') (A") (A') (A')
                 (A") (A") (A') (A') (A") (A') (A") (A') (A') (A')
                 (A') (A') (A") (A') (A') (A") (A') (A') (A") (A")
                 (A') (A") (A") (A") (A') (A') (A") (A') (A') (A")
                 (A') (A") (A') (A') (A') (A") (A') (A") (A') (A')
                 (A") (A') (A') (A') (A") (A') (A") (A') (A') (A")
                 (A') (A') (A') (A") (A') (A") (A') (A') (A') (A")
                 (A') (A") (A') (A") (A") (A') (A') (A') (A") (A')
                 (A') (A") (A') (A") (A') (A") (A') (A") (A') (A')
                 (A') (A") (A') (A') (A") (A') (A') (A") (A') (A")
                 (A") (A') (A") (A") (A') (A") (A') (A') (A') (A")
                 (A') (A') (A') (A") (A') (A') (A') (A") (A') (A")
                 (A') (A') (A') (A') (A') (A') (A')
 The electronic state is 1-A'.
 Alpha  occ. eigenvalues --  -19.12779 -10.26919 -10.22994 -10.20705 -10.20515
 Alpha  occ. eigenvalues --   -1.05689  -0.83623  -0.75622  -0.61841  -0.55927
 Alpha  occ. eigenvalues --   -0.50458  -0.47893  -0.46762  -0.43913  -0.41132
 Alpha  occ. eigenvalues --   -0.31413  -0.29946  -0.26961
 Alpha virt. eigenvalues --   -0.07243  -0.02790  -0.01241   0.01571   0.01713
 Alpha virt. eigenvalues --    0.01748   0.02780   0.05173   0.06260   0.07130
 Alpha virt. eigenvalues --    0.07200   0.10000   0.10396   0.10725   0.11783
 Alpha virt. eigenvalues --    0.12318   0.13174   0.13324   0.14007   0.15633
 Alpha virt. eigenvalues --    0.15681   0.17035   0.18183   0.20681   0.22752
 Alpha virt. eigenvalues --    0.24630   0.25348   0.26027   0.27227   0.28861
 Alpha virt. eigenvalues --    0.29943   0.30599   0.32767   0.33609   0.36062
 Alpha virt. eigenvalues --    0.37875   0.38401   0.38402   0.39345   0.41064
 Alpha virt. eigenvalues --    0.43474   0.44809   0.45306   0.47666   0.49045
 Alpha virt. eigenvalues --    0.49644   0.51711   0.51925   0.52300   0.53072
 Alpha virt. eigenvalues --    0.54013   0.59121   0.59460   0.63353   0.64357
 Alpha virt. eigenvalues --    0.66339   0.69669   0.70099   0.72866   0.75230
 Alpha virt. eigenvalues --    0.76146   0.78989   0.79237   0.80507   0.86627
 Alpha virt. eigenvalues --    0.89031   0.89941   0.93556   0.96197   0.97453
 Alpha virt. eigenvalues --    0.98418   1.00774   1.03351   1.05255   1.06433
 Alpha virt. eigenvalues --    1.10175   1.11645   1.13430   1.14959   1.16113
 Alpha virt. eigenvalues --    1.17333   1.19570   1.22698   1.22727   1.28107
 Alpha virt. eigenvalues --    1.32354   1.32940   1.34259   1.34345   1.35526
 Alpha virt. eigenvalues --    1.39536   1.42184   1.42930   1.44643   1.55673
 Alpha virt. eigenvalues --    1.56236   1.58519   1.58714   1.65061   1.68785
 Alpha virt. eigenvalues --    1.75118   1.76767   1.81436   1.89758   1.95800
 Alpha virt. eigenvalues --    1.98498   2.01136   2.08088   2.13655   2.16381
 Alpha virt. eigenvalues --    2.20377   2.29537   2.37325   2.41524   2.50066
 Alpha virt. eigenvalues --    2.62016   2.62943   2.67228   2.67578   2.69138
 Alpha virt. eigenvalues --    2.73069   2.77402   2.79090   2.80924   2.84894
 Alpha virt. eigenvalues --    2.85534   2.90086   2.90868   2.92417   2.97227
 Alpha virt. eigenvalues --    2.98290   3.00030   3.03081   3.05638   3.10430
 Alpha virt. eigenvalues --    3.12095   3.13436   3.21251   3.21503   3.26633
 Alpha virt. eigenvalues --    3.30790   3.38111   3.47184   3.50406   3.51849
 Alpha virt. eigenvalues --    3.52554   3.57380   3.60058   3.70799   3.77512
 Alpha virt. eigenvalues --    3.84200   3.91994   4.00005   4.04538   4.08873
 Alpha virt. eigenvalues --    4.09658   4.11238   4.15748   4.15995   4.18895
 Alpha virt. eigenvalues --    4.21176   4.24898   4.31587   4.36726   4.51201
 Alpha virt. eigenvalues --    4.53419   4.58316   4.76302   4.78049   4.88352
 Alpha virt. eigenvalues --    5.06482   5.08613   5.12173   5.20197   5.45543
 Alpha virt. eigenvalues --    5.50245   5.50346   5.58686   5.59351   5.61372
 Alpha virt. eigenvalues --    5.71050   5.78193   5.91471   6.27587   6.28951
 Alpha virt. eigenvalues --    6.57428   6.61251   6.95662   7.04177   7.04779
 Alpha virt. eigenvalues --    7.08117   7.10937   7.13294   7.25782   7.31056
 Alpha virt. eigenvalues --    7.47015   7.50029   7.53559   7.54897   7.59150
 Alpha virt. eigenvalues --    7.71007   7.85272   7.92070   7.97535   8.18303
 Alpha virt. eigenvalues --    8.30210   8.61411  14.34304  14.37403  14.66295
 Alpha virt. eigenvalues --   14.78094  14.99738  24.05801  25.03497  25.96062
 Alpha virt. eigenvalues --   26.05398  50.43100
          Condensed to atoms (all electrons):
               1          2          3          4          5          6
     1  O    8.629954  -0.137699   0.161827   0.022561  -0.011755   0.001415
     2  C   -0.137699  10.988593   0.057777  -2.044929  -2.525052   0.424447
     3  C    0.161827   0.057777   5.294852  -0.048172  -0.076433  -0.121928
     4  C    0.022561  -2.044929  -0.048172   7.647520  -0.170511  -0.020788
     5  C   -0.011755  -2.525052  -0.076433  -0.170511   8.366273   0.035554
     6  H    0.001415   0.424447  -0.121928  -0.020788   0.035554   0.508941
     7  H   -0.067454  -0.281672   0.493530   0.107198  -0.043500   0.003181
     8  H   -0.000296   0.038901   0.001265  -0.075351   0.412535  -0.000429
     9  H   -0.000296   0.038901   0.001265  -0.075351   0.412535  -0.000429
               7          8          9
     1  O   -0.067454  -0.000296  -0.000296
     2  C   -0.281672   0.038901   0.038901
     3  C    0.493530   0.001265   0.001265
     4  C    0.107198  -0.075351  -0.075351
     5  C   -0.043500   0.412535   0.412535
     6  H    0.003181  -0.000429  -0.000429
     7  H    0.655823  -0.000757  -0.000757
     8  H   -0.000757   0.466755  -0.022066
     9  H   -0.000757  -0.022066   0.466755
 Mulliken charges:
               1
     1  O   -0.598258
     2  C   -0.559268
     3  C    0.236018
     4  C    0.657822
     5  C   -0.399647
     6  H    0.170037
     7  H    0.134410
     8  H    0.179443
     9  H    0.179443
 Sum of Mulliken charges =  -0.00000
 Mulliken charges with hydrogens summed into heavy atoms:
               1
     1  O   -0.598258
     2  C   -0.389231
     3  C    0.370427
     4  C    0.657822
     5  C   -0.040761
 APT charges:
               1
     1  O   -0.762359
     2  C   -0.387671
     3  C    0.921070
     4  C    0.283125
     5  C   -0.227219
     6  H    0.059378
     7  H   -0.035500
     8  H    0.074588
     9  H    0.074588
 Sum of APT charges =   0.00000
 APT charges with hydrogens summed into heavy atoms:
               1
     1  O   -0.762359
     2  C   -0.328294
     3  C    0.885570
     4  C    0.283125
     5  C   -0.078043
 Electronic spatial extent (au):  <R**2>=            509.8384
 Charge=             -0.0000 electrons
 Dipole moment (field-independent basis, Debye):
    X=              3.7364    Y=             -0.7605    Z=              0.0000  Tot=              3.8131
 Quadrupole moment (field-independent basis, Debye-Ang):
   XX=            -34.0582   YY=            -28.4417   ZZ=            -28.9378
   XY=             -0.2570   XZ=              0.0000   YZ=             -0.0000
 Traceless Quadrupole moment (field-independent basis, Debye-Ang):
   XX=             -3.5790   YY=              2.0375   ZZ=              1.5415
   XY=             -0.2570   XZ=              0.0000   YZ=             -0.0000
 Octapole moment (field-independent basis, Debye-Ang**2):
  XXX=             29.1697  YYY=              3.5740  ZZZ=              0.0000  XYY=             -4.0366
  XXY=             -9.2769  XXZ=              0.0000  XZZ=             -0.4711  YZZ=             -1.1991
  YYZ=              0.0000  XYZ=             -0.0000
 Hexadecapole moment (field-independent basis, Debye-Ang**3):
 XXXX=           -584.1532 YYYY=            -75.6209 ZZZZ=            -37.5080 XXXY=             12.9790
 XXXZ=              0.0000 YYYX=             30.4656 YYYZ=             -0.0000 ZZZX=              0.0000
 ZZZY=             -0.0000 XXYY=           -108.3170 XXZZ=            -88.6215 YYZZ=            -20.0531
 XXYZ=             -0.0000 YYXZ=              0.0000 ZZXY=              6.0157
 N-N= 1.388615705520D+02 E-N=-8.143836273062D+02  KE= 2.290836147255D+02
 Symmetry A'   KE= 2.210751737021D+02
 Symmetry A"   KE= 8.008441023438D+00
  Exact polarizability:  91.551 -12.360  46.825   0.000  -0.000  35.076
 Approx polarizability: 143.514 -26.413  68.444  -0.000  -0.000  50.266
 No NMR shielding tensors so no spin-rotation constants.
 Leave Link  601 at Fri Mar  1 07:46:53 2019, MaxMem=    33554432 cpu:         1.4
 (Enter /home/proyectos/fulerenos/M3C-v2.0/M3C-deps_CCC/g09-AM64L-G09RevC.01/l701.exe)
 Compute integral second derivatives.
 ... and contract with generalized density number  0.
 Leave Link  701 at Fri Mar  1 07:46:54 2019, MaxMem=    33554432 cpu:         1.7
 (Enter /home/proyectos/fulerenos/M3C-v2.0/M3C-deps_CCC/g09-AM64L-G09RevC.01/l702.exe)
 L702 exits ... SP integral derivatives will be done elsewhere.
 Leave Link  702 at Fri Mar  1 07:46:54 2019, MaxMem=    33554432 cpu:         0.1
 (Enter /home/proyectos/fulerenos/M3C-v2.0/M3C-deps_CCC/g09-AM64L-G09RevC.01/l703.exe)
 Compute integral second derivatives, UseDBF=F ICtDFT=           0.
 Integral derivatives from FoFJK, PRISM(SPDF).
 Calling FoFJK, ICntrl=    100127 FMM=F ISym2X=1 I1Cent= 0 IOpClX= 0 NMat=1 NMatS=1 NMatT=0.
 FoFJK:  IHMeth= 1 ICntrl=  100127 DoSepK=F KAlg= 0 I1Cent=   0 FoldK=F
 IRaf=         0 NMat=   1 IRICut=       1 DoRegI=T DoRafI=F ISym2E= 1.
 FoFCou: FMM=F IPFlag=           0 FMFlag=      100000 FMFlg1=         800
         NFxFlg=           0 DoJE=F BraDBF=F KetDBF=F FulRan=T
         wScrn=  0.000000 ICntrl=  100127 IOpCl=  0 I1Cent=           0 NGrid=           0
         NMat0=    1 NMatS0=      1 NMatT0=    0 NMatD0=    1 NMtDS0=    0 NMtDT0=    0
 Petite list used in FoFCou.
 Leave Link  703 at Fri Mar  1 07:48:44 2019, MaxMem=    33554432 cpu:       439.4
 (Enter /home/proyectos/fulerenos/M3C-v2.0/M3C-deps_CCC/g09-AM64L-G09RevC.01/l716.exe)
 Dipole        = 1.47002869D+00-2.99210484D-01-3.01272679D-15
 Polarizability= 9.15505704D+01-1.23596757D+01 4.68250754D+01
                 3.03438460D-08-3.85737924D-08 3.50755236D+01
 Full mass-weighted force constant matrix:
 Low frequencies ---   -6.0104   -0.0009   -0.0002    0.0004    3.9427    9.0382
 Low frequencies ---  130.5526  165.6024  388.1846
 Diagonal vibrational polarizability:
        9.5189247       5.1780331      11.1528908
 Harmonic frequencies (cm**-1), IR intensities (KM/Mole), Raman scattering
 activities (A**4/AMU), depolarization ratios for plane and unpolarized
 incident light, reduced masses (AMU), force constants (mDyne/A),
 and normal coordinates:
                      1                      2                      3
                     A"                     A'                     A"
 Frequencies --    130.5489               165.6021               388.1846
 Red. masses --      3.3960                 4.3106                 2.3116
 Frc consts  --      0.0341                 0.0697                 0.2052
 IR Inten    --      5.2884                 0.8329                 9.0005
  Atom  AN      X      Y      Z        X      Y      Z        X      Y      Z
     1   8     0.00  -0.00   0.26     0.06  -0.20  -0.00    -0.00  -0.00   0.04
     2   6     0.00   0.00  -0.18     0.02   0.27   0.00     0.00   0.00  -0.12
     3   6     0.00   0.00  -0.25     0.15   0.06   0.00    -0.00   0.00  -0.08
     4   6     0.00   0.00  -0.07    -0.01   0.21   0.00     0.00  -0.00   0.31
     5   6    -0.00  -0.00   0.16    -0.22  -0.22  -0.00     0.00  -0.00  -0.05
     6   1    -0.00   0.00  -0.01    -0.05   0.25   0.00     0.00   0.00  -0.42
     7   1     0.00   0.00  -0.74     0.40   0.10   0.00     0.00   0.00  -0.15
     8   1    -0.24  -0.08   0.27    -0.30  -0.39   0.00     0.48   0.00  -0.33
     9   1     0.24   0.08   0.27    -0.30  -0.39  -0.00    -0.48  -0.00  -0.33
                      4                      5                      6
                     A'                     A"                     A'
 Frequencies --    477.0948               544.3041               559.9504
 Red. masses --      4.5621                 1.2245                 7.5163
 Frc consts  --      0.6118                 0.2137                 1.3885
 IR Inten    --     35.4984                 4.2238                 7.9952
  Atom  AN      X      Y      Z        X      Y      Z        X      Y      Z
     1   8     0.21   0.19  -0.00    -0.00  -0.00   0.00    -0.33  -0.05  -0.00
     2   6    -0.12  -0.17  -0.00     0.00  -0.00   0.13     0.11  -0.07  -0.00
     3   6     0.02  -0.27   0.00    -0.00   0.00  -0.04    -0.27   0.02   0.00
     4   6     0.05   0.29   0.00     0.00   0.00  -0.05     0.39   0.36   0.00
     5   6    -0.12  -0.03  -0.00     0.00  -0.00  -0.00     0.21  -0.17   0.00
     6   1    -0.63  -0.24  -0.00     0.00  -0.00  -0.22    -0.04  -0.07   0.00
     7   1    -0.26  -0.32  -0.00    -0.00   0.00  -0.39    -0.35   0.01   0.00
     8   1    -0.17  -0.12   0.00     0.20   0.59   0.04     0.14  -0.37  -0.01
     9   1    -0.17  -0.12  -0.00    -0.20  -0.59   0.04     0.14  -0.37   0.01
                      7                      8                      9
                     A'                     A"                     A"
 Frequencies --    885.0054               911.9140               999.5031
 Red. masses --      1.3133                 1.1325                 1.5819
 Frc consts  --      0.6060                 0.5549                 0.9311
 IR Inten    --     51.2758                24.8713                 0.0929
  Atom  AN      X      Y      Z        X      Y      Z        X      Y      Z
     1   8    -0.00  -0.00   0.00    -0.00   0.00  -0.00    -0.00  -0.00  -0.00
     2   6     0.00   0.00  -0.00     0.00   0.00  -0.10     0.00  -0.00   0.03
     3   6    -0.00   0.00  -0.00    -0.00  -0.00  -0.00     0.00   0.00   0.01
     4   6     0.02   0.04   0.00    -0.00  -0.00   0.02     0.00   0.00  -0.15
     5   6    -0.07  -0.15   0.00     0.00   0.00   0.01    -0.00   0.00   0.17
     6   1    -0.01   0.00   0.00     0.00  -0.00   0.87     0.00  -0.00  -0.01
     7   1     0.00   0.00   0.00    -0.00  -0.00   0.11    -0.00   0.00  -0.04
     8   1     0.30   0.63  -0.00     0.18   0.28  -0.01     0.57  -0.29  -0.24
     9   1     0.30   0.63   0.00    -0.18  -0.28  -0.01    -0.57   0.29  -0.24
                     10                     11                     12
                     A"                     A'                     A'
 Frequencies --   1022.9236              1075.0911              1123.4138
 Red. masses --      1.7524                 3.7660                 1.8702
 Frc consts  --      1.0803                 2.5646                 1.3907
 IR Inten    --      0.1154                44.7624                69.2567
  Atom  AN      X      Y      Z        X      Y      Z        X      Y      Z
     1   8     0.00   0.00   0.06     0.01   0.05  -0.00     0.00   0.02   0.00
     2   6    -0.00   0.00   0.09    -0.02   0.36  -0.00     0.17   0.06   0.00
     3   6    -0.00  -0.00  -0.23    -0.11  -0.24   0.00    -0.09  -0.16  -0.00
     4   6    -0.00  -0.00  -0.01    -0.04  -0.11  -0.00     0.00   0.02   0.00
     5   6     0.00  -0.00   0.00     0.17  -0.07   0.00    -0.11   0.05  -0.00
     6   1    -0.00   0.00  -0.06    -0.59   0.30   0.00     0.85   0.15  -0.00
     7   1    -0.00  -0.00   0.96    -0.19  -0.25  -0.00    -0.21  -0.19   0.00
     8   1     0.05   0.07  -0.01     0.30  -0.09  -0.07    -0.19   0.10   0.05
     9   1    -0.05  -0.07  -0.01     0.30  -0.09   0.07    -0.19   0.10  -0.05
                     13                     14                     15
                     A'                     A'                     A'
 Frequencies --   1303.9609              1415.7732              1464.3460
 Red. masses --      1.5415                 1.1650                 1.5223
 Frc consts  --      1.5442                 1.3758                 1.9232
 IR Inten    --      2.2240                 0.4965                 2.2611
  Atom  AN      X      Y      Z        X      Y      Z        X      Y      Z
     1   8     0.02   0.02  -0.00    -0.05   0.05   0.00     0.04  -0.03  -0.00
     2   6    -0.19  -0.01  -0.00     0.02  -0.00  -0.00    -0.14   0.03   0.00
     3   6    -0.02  -0.04   0.00    -0.03  -0.06  -0.00     0.02   0.03  -0.00
     4   6    -0.03   0.06  -0.00     0.03  -0.02  -0.00     0.02   0.00  -0.00
     5   6     0.06  -0.03   0.00     0.03  -0.01   0.00     0.14  -0.07  -0.00
     6   1     0.72   0.12   0.00    -0.14  -0.02   0.00     0.22   0.09   0.00
     7   1     0.42   0.03  -0.00     0.84   0.07   0.00    -0.41  -0.03   0.00
     8   1     0.29  -0.15  -0.14    -0.27   0.13   0.19    -0.43   0.20   0.38
     9   1     0.29  -0.15   0.14    -0.27   0.13  -0.19    -0.43   0.20  -0.38
                     16                     17                     18
                     A'                     A'                     A'
 Frequencies --   1764.9053              2021.7718              2908.5548
 Red. masses --      9.6726                 9.9584                 1.0845
 Frc consts  --     17.7515                23.9829                 5.4053
 IR Inten    --    404.5606               142.8506                65.0186
  Atom  AN      X      Y      Z        X      Y      Z        X      Y      Z
     1   8    -0.44   0.17  -0.00     0.05  -0.01   0.00     0.00   0.00   0.00
     2   6    -0.08   0.04   0.00    -0.32   0.13  -0.00     0.00   0.00  -0.00
     3   6     0.65  -0.22  -0.00    -0.06   0.01   0.00     0.01  -0.08  -0.00
     4   6     0.04  -0.02  -0.00     0.67  -0.31  -0.00     0.00  -0.00   0.00
     5   6    -0.02   0.01   0.00    -0.33   0.16   0.00    -0.00   0.00  -0.00
     6   1     0.22   0.06   0.00    -0.04   0.23   0.00     0.00  -0.01  -0.00
     7   1    -0.35  -0.34   0.00    -0.01   0.01  -0.00    -0.15   0.99  -0.00
     8   1     0.01  -0.00  -0.02    -0.09   0.05  -0.23    -0.00   0.00  -0.00
     9   1     0.01  -0.00   0.02    -0.09   0.05   0.23    -0.00   0.00   0.00
                     19                     20                     21
                     A'                     A'                     A"
 Frequencies --   3122.3381              3152.0991              3195.7073
 Red. masses --      1.0589                 1.0895                 1.1144
 Frc consts  --      6.0824                 6.3780                 6.7056
 IR Inten    --      0.9872                 0.0679                 0.3843
  Atom  AN      X      Y      Z        X      Y      Z        X      Y      Z
     1   8     0.00  -0.00  -0.00    -0.00   0.00   0.00    -0.00   0.00   0.00
     2   6     0.00   0.00   0.00     0.01  -0.08  -0.00     0.00   0.00  -0.00
     3   6    -0.00  -0.00  -0.00     0.00  -0.00   0.00     0.00  -0.00  -0.00
     4   6     0.01  -0.00  -0.00    -0.00   0.00   0.00    -0.00   0.00  -0.00
     5   6    -0.06   0.03  -0.00    -0.00   0.00  -0.00     0.00  -0.00  -0.10
     6   1     0.00  -0.04  -0.00    -0.13   0.99   0.00     0.00  -0.00  -0.00
     7   1    -0.00   0.00   0.00    -0.00   0.01  -0.00    -0.00   0.00  -0.00
     8   1     0.32  -0.15   0.61     0.01  -0.01   0.02     0.34  -0.16   0.59
     9   1     0.32  -0.15  -0.61     0.01  -0.01  -0.02    -0.34   0.16   0.59

 -------------------
 - Thermochemistry -
 -------------------
 Temperature   298.150 Kelvin.  Pressure   1.00000 Atm.
 Atom     1 has atomic number  8 and mass  15.99491
 Atom     2 has atomic number  6 and mass  12.00000
 Atom     3 has atomic number  6 and mass  12.00000
 Atom     4 has atomic number  6 and mass  12.00000
 Atom     5 has atomic number  6 and mass  12.00000
 Atom     6 has atomic number  1 and mass   1.00783
 Atom     7 has atomic number  1 and mass   1.00783
 Atom     8 has atomic number  1 and mass   1.00783
 Atom     9 has atomic number  1 and mass   1.00783
 Molecular mass:    68.02621 amu.
 Principal axes and moments of inertia in atomic units:
                           1         2         3
     Eigenvalues --    49.99242 750.29783 787.93594
           X            0.99460   0.10375   0.00000
           Y           -0.10375   0.99460   0.00000
           Z            0.00000  -0.00000   1.00000
 This molecule is an asymmetric top.
 Rotational symmetry number  1.
 Rotational temperatures (Kelvin)      1.73254     0.11544     0.10992
 Rotational constants (GHZ):          36.10030     2.40537     2.29047
 Zero-point vibrational energy     171263.3 (Joules/Mol)
                                   40.93292 (Kcal/Mol)
 Warning -- explicit consideration of   6 degrees of freedom as
           vibrations may cause significant error
 Vibrational temperatures:    187.83   238.26   558.51   686.43   783.13
          (Kelvin)            805.64  1273.32  1312.04  1438.06  1471.76
                             1546.81  1616.34  1876.11  2036.98  2106.86
                             2539.30  2908.88  4184.76  4492.34  4535.16
                             4597.90
 
 Zero-point correction=                           0.065231 (Hartree/Particle)
 Thermal correction to Energy=                    0.070553
 Thermal correction to Enthalpy=                  0.071497
 Thermal correction to Gibbs Free Energy=         0.037125
 Sum of electronic and zero-point Energies=           -230.005290
 Sum of electronic and thermal Energies=              -229.999969
 Sum of electronic and thermal Enthalpies=            -229.999024
 Sum of electronic and thermal Free Energies=         -230.033396
 
                     E (Thermal)             CV                S
                      KCal/Mol        Cal/Mol-Kelvin    Cal/Mol-Kelvin
 Total                   44.272             17.505             72.341
 Electronic               0.000              0.000              0.000
 Translational            0.889              2.981             38.570
 Rotational               0.889              2.981             24.895
 Vibrational             42.495             11.543              8.876
 Vibration     1          0.612              1.923              2.938
 Vibration     2          0.624              1.885              2.485
 Vibration     3          0.756              1.495              1.007
 Vibration     4          0.834              1.301              0.718
 Vibration     5          0.899              1.152              0.556
 Vibration     6          0.916              1.118              0.524
                       Q            Log10(Q)             Ln(Q)
 Total Bot       0.838550D-17        -17.076471        -39.320027
 Total V=0       0.846312D+13         12.927530         29.766739
 Vib (Bot)       0.617872D-29        -29.209101        -67.256441
 Vib (Bot)    1  0.156139D+01          0.193511          0.445574
 Vib (Bot)    2  0.121865D+01          0.085881          0.197747
 Vib (Bot)    3  0.463089D+00         -0.334336         -0.769836
 Vib (Bot)    4  0.351424D+00         -0.454168         -1.045761
 Vib (Bot)    5  0.289892D+00         -0.537764         -1.238248
 Vib (Bot)    6  0.277578D+00         -0.556615         -1.281653
 Vib (V=0)       0.623591D+01          0.794900          1.830324
 Vib (V=0)    1  0.213949D+01          0.330310          0.760568
 Vib (V=0)    2  0.181724D+01          0.259412          0.597318
 Vib (V=0)    3  0.118151D+01          0.072436          0.166791
 Vib (V=0)    4  0.111115D+01          0.045771          0.105392
 Vib (V=0)    5  0.107796D+01          0.032602          0.075070
 Vib (V=0)    6  0.107188D+01          0.030147          0.069416
 Electronic      0.100000D+01          0.000000          0.000000
 Translational   0.220531D+08          7.343470         16.908964
 Rotational      0.615405D+05          4.789161         11.027450
 
                                                              b3lyp opt
                                                             IR Spectrum
 
     3 33        2                                  2         1           1 1    1      1 1 11                                       
     1 11        9                                  0         7           4 4    3      1 0 00  98            55  4  3        11     
     9 52        0                                  2         6           6 1    0      2 7 20  18            64  7  8        63     
     6 22        9                                  2         5           4 6    4      3 5 30  25            04  7  8        61     
 
     X XX        X                                  X         X           X X    X      X X XX  XX            XX  X  X        XX     
                 X                                  X         X                         X X      X                X                  
                 X                                  X         X                         X        X                                   
                                                    X         X                                                                      
                                                    X         X                                                                      
                                                    X         X                                                                      
                                                    X         X                                                                      
                                                              X                                                                      
                                                              X                                                                      
                                                              X                                                                      
                                                              X                                                                      
                                                              X                                                                      
                                                              X                                                                      
                                                              X                                                                      
                                                              X                                                                      
                                                              X                                                                      
                                                              X                                                                      
                                                              X                                                                      
                                                              X                                                                      
                                                              X                                                                      
 
 ***** Axes restored to original set *****
 -------------------------------------------------------------------
 Center     Atomic                   Forces (Hartrees/Bohr)
 Number     Number              X              Y              Z
 -------------------------------------------------------------------
      1        8          -0.000116331   -0.000016801    0.000000000
      2        6          -0.000043451   -0.000026804   -0.000000000
      3        6           0.000148462    0.000023292   -0.000000000
      4        6          -0.000001640   -0.000013825    0.000000000
      5        6           0.000068232    0.000006839   -0.000000000
      6        1          -0.000002338    0.000011383   -0.000000000
      7        1          -0.000011819    0.000004554   -0.000000000
      8        1          -0.000020557    0.000005681   -0.000018643
      9        1          -0.000020557    0.000005681    0.000018643
 -------------------------------------------------------------------
 Cartesian Forces:  Max     0.000148462 RMS     0.000041187
 Z-matrix is all fixed cartesians, so copy forces.
 Force constants in Cartesian coordinates: 
                1             2             3             4             5 
      1  0.831656D+00
      2  0.309078D-01  0.835280D-01
      3  0.000000D+00  0.000000D+00  0.235419D-01
      4 -0.703922D-01 -0.484838D-01  0.000000D+00  0.831379D+00
      5 -0.382532D-01  0.896541D-02  0.000000D+00 -0.747824D-01  0.544781D+00
      6  0.000000D+00  0.000000D+00  0.202993D-01  0.000000D+00  0.000000D+00
      7 -0.729073D+00 -0.123437D-01  0.000000D+00 -0.696026D-01 -0.179187D-01
      8 -0.252480D-03 -0.107980D+00  0.000000D+00 -0.184678D-01 -0.203162D+00
      9  0.000000D+00  0.000000D+00 -0.622405D-01  0.000000D+00  0.000000D+00
     10  0.175285D-01 -0.133943D-02  0.000000D+00 -0.550694D+00  0.243248D-01
     11 -0.856561D-02 -0.592196D-02  0.000000D+00  0.526113D-02 -0.930567D-01
     12  0.000000D+00  0.000000D+00  0.398973D-02  0.000000D+00  0.000000D+00
     13 -0.597971D-02 -0.292031D-02  0.000000D+00 -0.304611D-01 -0.489979D-02
     14  0.146233D-02  0.859211D-03  0.000000D+00  0.245900D-02  0.105036D-01
     15  0.000000D+00  0.000000D+00 -0.221272D-02  0.000000D+00  0.000000D+00
     16  0.816238D-03  0.269513D-02  0.000000D+00 -0.121743D+00  0.124980D+00
     17 -0.685723D-03  0.523261D-02  0.000000D+00  0.121846D+00 -0.253948D+00
     18  0.000000D+00  0.000000D+00 -0.258385D-02  0.000000D+00  0.000000D+00
     19 -0.444798D-01  0.321715D-01  0.000000D+00  0.905129D-02 -0.135312D-01
     20  0.149507D-01  0.151461D-01  0.000000D+00  0.123823D-01 -0.224516D-01
     21  0.000000D+00  0.000000D+00  0.190949D-01  0.000000D+00  0.000000D+00
     22 -0.378862D-04 -0.343574D-03  0.202761D-03  0.123077D-02  0.401368D-04
     23  0.218105D-03  0.854960D-04 -0.199404D-02 -0.107370D-03  0.418416D-02
     24 -0.439896D-03 -0.882983D-04  0.555866D-04 -0.278100D-02 -0.378731D-03
     25 -0.378862D-04 -0.343574D-03 -0.202760D-03  0.123077D-02  0.401368D-04
     26  0.218105D-03  0.854960D-04  0.199404D-02 -0.107370D-03  0.418416D-02
     27  0.439896D-03  0.882983D-04  0.555865D-04  0.278100D-02  0.378731D-03
                6             7             8             9            10 
      6  0.102287D+00
      7  0.000000D+00  0.936334D+00
      8  0.000000D+00 -0.417883D-01  0.548935D+00
      9 -0.706040D-01  0.000000D+00  0.000000D+00  0.182770D+00
     10  0.000000D+00 -0.594271D-01 -0.297677D-01  0.000000D+00  0.127198D+01
     11  0.000000D+00 -0.239189D-01  0.110277D-01  0.000000D+00 -0.168609D-01
     12 -0.461961D-01  0.000000D+00  0.000000D+00 -0.203405D-02  0.000000D+00
     13  0.000000D+00  0.105302D-01  0.148051D-01  0.000000D+00 -0.613158D+00
     14  0.000000D+00 -0.192091D-02 -0.349155D-02  0.000000D+00  0.181413D-01
     15  0.137506D-01  0.000000D+00  0.000000D+00  0.585804D-02  0.000000D+00
     16  0.000000D+00  0.110459D-01 -0.153900D-01  0.000000D+00 -0.221455D-01
     17  0.000000D+00  0.171940D-01 -0.224805D-01  0.000000D+00  0.209235D-03
     18 -0.336597D-01  0.000000D+00  0.000000D+00  0.518261D-02  0.000000D+00
     19  0.000000D+00 -0.999012D-01  0.892103D-01  0.000000D+00  0.845765D-03
     20  0.000000D+00  0.799503D-01 -0.222687D+00  0.000000D+00  0.318057D-02
     21  0.154034D-01  0.000000D+00  0.000000D+00 -0.587877D-01  0.000000D+00
     22 -0.113359D-02  0.470655D-04  0.825471D-03 -0.457813D-03 -0.224643D-01
     23  0.143820D-02  0.373096D-03 -0.804696D-04  0.870950D-02  0.105608D-02
     24 -0.640286D-03  0.531039D-03  0.576807D-03 -0.723004D-04  0.200698D-02
     25  0.113359D-02  0.470655D-04  0.825471D-03  0.457813D-03 -0.224643D-01
     26 -0.143820D-02  0.373096D-03 -0.804696D-04 -0.870950D-02  0.105608D-02
     27 -0.640286D-03 -0.531039D-03 -0.576807D-03 -0.723004D-04 -0.200698D-02
               11            12            13            14            15 
     11  0.116291D+00
     12  0.000000D+00  0.120155D+00
     13  0.174689D-01  0.000000D+00  0.876532D+00
     14 -0.401164D-01  0.000000D+00 -0.251372D-01  0.916355D-01
     15  0.000000D+00 -0.875923D-01  0.000000D+00  0.000000D+00  0.580577D+00
     16  0.257176D-01  0.000000D+00  0.128374D-02 -0.768729D-03  0.000000D+00
     17  0.660340D-02  0.000000D+00 -0.225194D-02 -0.764706D-03  0.000000D+00
     18  0.000000D+00  0.232509D-02  0.000000D+00  0.000000D+00  0.425028D-02
     19 -0.165360D-03  0.000000D+00  0.542332D-03  0.454485D-03  0.000000D+00
     20 -0.240516D-03  0.000000D+00 -0.193093D-02  0.665981D-03  0.000000D+00
     21  0.000000D+00 -0.195889D-03  0.000000D+00  0.000000D+00 -0.873942D-03
     22  0.531624D-03  0.259828D-01 -0.119645D+00  0.265484D-02  0.124997D+00
     23  0.270697D-02 -0.170631D-02  0.243308D-02 -0.296458D-01 -0.348903D-02
     24 -0.246939D-04  0.477420D-02  0.123594D+00 -0.347347D-02 -0.256878D+00
     25  0.531624D-03 -0.259828D-01 -0.119645D+00  0.265484D-02 -0.124997D+00
     26  0.270697D-02  0.170631D-02  0.243308D-02 -0.296458D-01  0.348903D-02
     27  0.246939D-04  0.477420D-02 -0.123594D+00  0.347347D-02 -0.256878D+00
               16            17            18            19            20 
     16  0.132283D+00
     17 -0.133612D+00  0.268951D+00
     18  0.000000D+00  0.000000D+00  0.223319D-01
     19 -0.155599D-02 -0.260876D-02  0.000000D+00  0.135453D+00
     20 -0.262607D-02 -0.332377D-02  0.000000D+00 -0.105506D+00  0.232991D+00
     21  0.000000D+00  0.000000D+00  0.243395D-02  0.000000D+00  0.000000D+00
     22  0.792330D-05 -0.454603D-04 -0.726966D-03  0.220291D-04 -0.200527D-03
     23 -0.497904D-03 -0.135331D-03 -0.644243D-02 -0.125741D-04 -0.500934D-04
     24 -0.504274D-04 -0.463004D-04 -0.140131D-03  0.465260D-04 -0.246246D-04
     25  0.792330D-05 -0.454603D-04  0.726966D-03  0.220291D-04 -0.200527D-03
     26 -0.497904D-03 -0.135331D-03  0.644243D-02 -0.125741D-04 -0.500934D-04
     27  0.504274D-04  0.463004D-04 -0.140131D-03 -0.465260D-04  0.246247D-04
               21            22            23            24            25 
     21  0.229550D-01
     22  0.841034D-04  0.130694D+00
     23 -0.696561D-03 -0.330372D-02  0.184176D-01
     24 -0.148880D-04 -0.135928D+00  0.381999D-02  0.269273D+00
     25 -0.841034D-04  0.101449D-01 -0.158796D-03  0.130208D-01  0.130694D+00
     26  0.696561D-03 -0.158796D-03  0.451751D-02 -0.360683D-03 -0.330372D-02
     27 -0.148880D-04 -0.130208D-01  0.360683D-03 -0.163573D-01  0.135928D+00
               26            27 
     26  0.184176D-01
     27 -0.381999D-02  0.269273D+00
 Leave Link  716 at Fri Mar  1 07:48:44 2019, MaxMem=    33554432 cpu:         0.2
 (Enter /home/proyectos/fulerenos/M3C-v2.0/M3C-deps_CCC/g09-AM64L-G09RevC.01/l103.exe)

 GradGradGradGradGradGradGradGradGradGradGradGradGradGradGradGradGradGrad
 Berny optimization.
 Search for a local minimum.
 Step number   1 out of a maximum of    2
 All quantities printed in internal units (Hartrees-Bohrs-Radians)
 Second derivative matrix not updated -- analytic derivatives used.
 ITU=  0
     Eigenvalues ---    0.00307   0.00478   0.01205   0.01921   0.03375
     Eigenvalues ---    0.06903   0.06990   0.07205   0.11656   0.15333
     Eigenvalues ---    0.17640   0.18609   0.24704   0.24884   0.41593
     Eigenvalues ---    0.58999   0.80133   0.84393   0.99501   1.61205
     Eigenvalues ---    1.92233
 Angle between quadratic step and forces=  78.06 degrees.
 ClnCor:  largest displacement from symmetrization is 2.25D-12 for atom     9.
 Linear search not attempted -- first point.
 ClnCor:  largest displacement from symmetrization is 2.67D-15 for atom     9.
 B after Tr=     0.000014   -0.000049    0.000000
         Rot=    1.000000    0.000000    0.000000   -0.000009 Ang=  -0.00 deg.
 Variable       Old X    -DE/DX   Delta X   Delta X   Delta X     New X
                                 (Linear)    (Quad)   (Total)
    X1        5.15724  -0.00012   0.00000  -0.00028  -0.00029   5.15695
    Y1        1.62061  -0.00002   0.00000   0.00024   0.00029   1.62090
    Z1        0.00000   0.00000   0.00000   0.00000   0.00000   0.00000
    X2        1.42335  -0.00004   0.00000   0.00011   0.00014   1.42349
    Y2       -0.84217  -0.00003   0.00000  -0.00036  -0.00038  -0.84255
    Z2        0.00000  -0.00000   0.00000   0.00000   0.00000   0.00000
    X3        2.87782   0.00015   0.00000  -0.00010  -0.00011   2.87771
    Y3        1.53476   0.00002   0.00000  -0.00004  -0.00003   1.53472
    Z3        0.00000  -0.00000   0.00000   0.00000   0.00000   0.00000
    X4       -1.05162  -0.00000   0.00000   0.00017   0.00020  -1.05143
    Y4       -0.83032  -0.00001   0.00000  -0.00048  -0.00055  -0.83087
    Z4        0.00000   0.00000   0.00000   0.00000  -0.00000  -0.00000
    X5       -3.49914   0.00007   0.00000   0.00025   0.00028  -3.49886
    Y5       -0.74269   0.00001   0.00000   0.00027   0.00015  -0.74254
    Z5        0.00000  -0.00000   0.00000   0.00000  -0.00000  -0.00000
    X6        2.49081  -0.00000   0.00000   0.00041   0.00047   2.49128
    Y6       -2.59138   0.00001   0.00000  -0.00013  -0.00013  -2.59152
    Z6        0.00000  -0.00000   0.00000   0.00000   0.00000   0.00000
    X7        1.72224  -0.00001   0.00000  -0.00054  -0.00059   1.72166
    Y7        3.27739   0.00000   0.00000  -0.00026  -0.00028   3.27711
    Z7        0.00000  -0.00000   0.00000   0.00000  -0.00000  -0.00000
    X8       -4.56045  -0.00002   0.00000  -0.00008  -0.00005  -4.56050
    Y8       -0.71310   0.00001   0.00000   0.00060   0.00047  -0.71263
    Z8        1.75060  -0.00002   0.00000  -0.00021  -0.00021   1.75039
    X9       -4.56045  -0.00002   0.00000  -0.00008  -0.00005  -4.56050
    Y9       -0.71310   0.00001   0.00000   0.00060   0.00047  -0.71263
    Z9       -1.75060   0.00002   0.00000   0.00021   0.00021  -1.75039
         Item               Value     Threshold  Converged?
 Maximum Force            0.000148     0.000450     YES
 RMS     Force            0.000041     0.000300     YES
 Maximum Displacement     0.000588     0.001800     YES
 RMS     Displacement     0.000271     0.001200     YES
 Predicted change in Energy=-2.976246D-08
 Optimization completed.
    -- Stationary point found.
 GradGradGradGradGradGradGradGradGradGradGradGradGradGradGradGradGradGrad

 Leave Link  103 at Fri Mar  1 07:48:44 2019, MaxMem=    33554432 cpu:         0.1
 (Enter /home/proyectos/fulerenos/M3C-v2.0/M3C-deps_CCC/g09-AM64L-G09RevC.01/l9999.exe)

 Test job not archived.
 1\1\GINC-BOHRIO\Freq\RB3LYP\6-311++G(3df,2p)\C4H4O1\ROOT\01-Mar-2019\0
 \\#p b3lyp/6-311++G(3df,2p) freq IOp(2/17=3) IOp(2/18=3)\\b3lyp opt\\0
 ,1\O,2.729096,0.857591,0.\C,0.753204,-0.445656,0.\C,1.522878,0.812158,
 0.\C,-0.556495,-0.439384,0.\C,-1.851663,-0.393015,0.\H,1.31808,-1.3713
 01,0.\H,0.911372,1.73432,0.\H,-2.413286,-0.377357,0.926377\H,-2.413286
 ,-0.377357,-0.926377\\Version=EM64L-G09RevE.01\State=1-A'\HF=-230.0705
 212\RMSD=4.451e-09\RMSF=4.119e-05\ZeroPoint=0.0652308\Thermal=0.070552
 6\Dipole=-1.4660896,-0.3179508,0.\DipoleDeriv=-1.4260408,-0.2225748,0.
 ,-0.2165214,-0.5085269,0.,0.,0.,-0.3525089,-0.8294867,-0.2874922,0.,-0
 .5702935,-0.1872553,0.,0.,0.,-0.1462725,1.6069981,0.2859646,0.,0.79677
 23,0.9574875,0.,0.,0.,0.1987238,1.1722893,0.1791478,0.,-0.1167476,-0.2
 156347,0.,0.,0.,-0.1072786,-0.5501034,-0.0888772,0.,0.0330154,-0.24338
 57,0.,0.,0.,0.111833,0.0006392,0.0103179,0.,0.0057826,0.015229,0.,0.,0
 .,0.1622657,-0.0332251,0.1394564,0.,0.0601659,-0.1493864,0.,0.,0.,0.07
 61107,0.0294647,-0.0079712,0.0025281,0.0039131,0.1657363,-0.0089649,0.
 0260586,-0.0037909,0.0285634,0.0294647,-0.0079712,-0.0025281,0.0039131
 ,0.1657363,0.0089649,-0.0260586,0.0037909,0.0285634\Polar=93.4109109,8
 .1299489,44.9647349,0.,0.,35.0755236\PG=CS [SG(C4H2O1),X(H2)]\NImag=0\
 \0.83165563,0.03090776,0.08352803,0.,0.,0.02354191,-0.07039222,-0.0484
 8380,0.,0.83137946,-0.03825320,0.00896541,0.,-0.07478242,0.54478090,0.
 ,0.,0.02029926,0.,0.,0.10228721,-0.72907291,-0.01234366,0.,-0.06960257
 ,-0.01791874,0.,0.93633356,-0.00025248,-0.10798040,0.,-0.01846784,-0.2
 0316225,0.,-0.04178831,0.54893481,0.,0.,-0.06224046,0.,0.,-0.07060398,
 0.,0.,0.18277013,0.01752851,-0.00133943,0.,-0.55069355,0.02432480,0.,-
 0.05942712,-0.02976769,0.,1.27197849,-0.00856561,-0.00592196,0.,0.0052
 6113,-0.09305672,0.,-0.02391890,0.01102770,0.,-0.01686093,0.11629057,0
 .,0.,0.00398973,0.,0.,-0.04619615,0.,0.,-0.00203405,0.,0.,0.12015512,-
 0.00597971,-0.00292031,0.,-0.03046107,-0.00489979,0.,0.01053015,0.0148
 0510,0.,-0.61315797,0.01746887,0.,0.87653199,0.00146233,0.00085921,0.,
 0.00245900,0.01050357,0.,-0.00192091,-0.00349155,0.,0.01814129,-0.0401
 1643,0.,-0.02513715,0.09163550,0.,0.,-0.00221272,0.,0.,0.01375059,0.,0
 .,0.00585804,0.,0.,-0.08759225,0.,0.,0.58057666,0.00081624,0.00269513,
 0.,-0.12174290,0.12498024,0.,0.01104595,-0.01539001,0.,-0.02214550,0.0
 2571755,0.,0.00128374,-0.00076873,0.,0.13228262,-0.00068572,0.00523261
 ,0.,0.12184638,-0.25394761,0.,0.01719403,-0.02248051,0.,0.00020923,0.0
 0660340,0.,-0.00225194,-0.00076471,0.,-0.13361230,0.26895126,0.,0.,-0.
 00258385,0.,0.,-0.03365974,0.,0.,0.00518261,0.,0.,0.00232509,0.,0.,0.0
 0425028,0.,0.,0.02233193,-0.04447976,0.03217147,0.,0.00905129,-0.01353
 117,0.,-0.09990120,0.08921029,0.,0.00084577,-0.00016536,0.,0.00054233,
 0.00045448,0.,-0.00155599,-0.00260876,0.,0.13545350,0.01495071,0.01514
 611,0.,0.01238228,-0.02245162,0.,0.07995029,-0.22268686,0.,0.00318057,
 -0.00024052,0.,-0.00193093,0.00066598,0.,-0.00262607,-0.00332377,0.,-0
 .10550580,0.23299087,0.,0.,0.01909494,0.,0.,0.01540338,0.,0.,-0.058787
 69,0.,0.,-0.00019589,0.,0.,-0.00087394,0.,0.,0.00243395,0.,0.,0.022955
 03,-0.00003789,-0.00034357,0.00020276,0.00123077,0.00004014,-0.0011335
 9,0.00004707,0.00082547,-0.00045781,-0.02246432,0.00053162,0.02598281,
 -0.11964473,0.00265484,0.12499712,0.00000792,-0.00004546,-0.00072697,0
 .00002203,-0.00020053,0.00008410,0.13069423,0.00021811,0.00008550,-0.0
 0199404,-0.00010737,0.00418416,0.00143820,0.00037310,-0.00008047,0.008
 70950,0.00105608,0.00270697,-0.00170631,0.00243308,-0.02964579,-0.0034
 8903,-0.00049790,-0.00013533,-0.00644243,-0.00001257,-0.00005009,-0.00
 069656,-0.00330372,0.01841755,-0.00043990,-0.00008830,0.00005559,-0.00
 278100,-0.00037873,-0.00064029,0.00053104,0.00057681,-0.00007230,0.002
 00698,-0.00002469,0.00477420,0.12359355,-0.00347347,-0.25687833,-0.000
 05043,-0.00004630,-0.00014013,0.00004653,-0.00002462,-0.00001489,-0.13
 592759,0.00381999,0.26927341,-0.00003789,-0.00034357,-0.00020276,0.001
 23077,0.00004014,0.00113359,0.00004707,0.00082547,0.00045781,-0.022464
 32,0.00053162,-0.02598281,-0.11964473,0.00265484,-0.12499712,0.0000079
 2,-0.00004546,0.00072697,0.00002203,-0.00020053,-0.00008410,0.01014492
 ,-0.00015880,0.01302083,0.13069423,0.00021811,0.00008550,0.00199404,-0
 .00010737,0.00418416,-0.00143820,0.00037310,-0.00008047,-0.00870950,0.
 00105608,0.00270697,0.00170631,0.00243308,-0.02964579,0.00348903,-0.00
 049790,-0.00013533,0.00644243,-0.00001257,-0.00005009,0.00069656,-0.00
 015880,0.00451751,-0.00036068,-0.00330372,0.01841755,0.00043990,0.0000
 8830,0.00005559,0.00278100,0.00037873,-0.00064029,-0.00053104,-0.00057
 681,-0.00007230,-0.00200698,0.00002469,0.00477420,-0.12359355,0.003473
 47,-0.25687833,0.00005043,0.00004630,-0.00014013,-0.00004653,0.0000246
 2,-0.00001489,-0.01302083,0.00036068,-0.01635726,0.13592759,-0.0038199
 9,0.26927341\\0.00011633,0.00001680,0.,0.00004345,0.00002680,0.,-0.000
 14846,-0.00002329,0.,0.00000164,0.00001383,0.,-0.00006823,-0.00000684,
 0.,0.00000234,-0.00001138,0.,0.00001182,-0.00000455,0.,0.00002056,-0.0
 0000568,0.00001864,0.00002056,-0.00000568,-0.00001864\\\@


 I CLAIM NOT TO HAVE CONTROLLED EVENTS,
 BUT CONFESS PLAINLY THAT EVENTS HAVE CONTROLLED ME.

                                         A. LINCOLN
 Job cpu time:       0 days  0 hours 34 minutes 22.6 seconds.
 File lengths (MBytes):  RWF=     45 Int=      0 D2E=      0 Chk=      4 Scr=      1
 Normal termination of Gaussian 09 at Fri Mar  1 07:48:44 2019.
