 Entering Gaussian System, Link 0=/home/proyectos/fulerenos/M3C-v2.0/M3C-deps_CCC/g09-AM64L-G09RevC.01/g09
 Initial command:
 /home/proyectos/fulerenos/M3C-v2.0/M3C-deps_CCC/g09-AM64L-G09RevC.01/l1.exe "/scratch/naguirre/gaussian/Gau-32575.inp" -scrdir="/scratch/naguirre/gaussian/"
 Entering Link 1 = /home/proyectos/fulerenos/M3C-v2.0/M3C-deps_CCC/g09-AM64L-G09RevC.01/l1.exe PID=     32582.
  
 Copyright (c) 1988,1990,1992,1993,1995,1998,2003,2009,2015,
            Gaussian, Inc.  All Rights Reserved.
  
 This is part of the Gaussian(R) 09 program.  It is based on
 the Gaussian(R) 03 system (copyright 2003, Gaussian, Inc.),
 the Gaussian(R) 98 system (copyright 1998, Gaussian, Inc.),
 the Gaussian(R) 94 system (copyright 1995, Gaussian, Inc.),
 the Gaussian 92(TM) system (copyright 1992, Gaussian, Inc.),
 the Gaussian 90(TM) system (copyright 1990, Gaussian, Inc.),
 the Gaussian 88(TM) system (copyright 1988, Gaussian, Inc.),
 the Gaussian 86(TM) system (copyright 1986, Carnegie Mellon
 University), and the Gaussian 82(TM) system (copyright 1983,
 Carnegie Mellon University). Gaussian is a federally registered
 trademark of Gaussian, Inc.
  
 This software contains proprietary and confidential information,
 including trade secrets, belonging to Gaussian, Inc.
  
 This software is provided under written license and may be
 used, copied, transmitted, or stored only in accord with that
 written license.
  
 The following legend is applicable only to US Government
 contracts under FAR:
  
                    RESTRICTED RIGHTS LEGEND
  
 Use, reproduction and disclosure by the US Government is
 subject to restrictions as set forth in subparagraphs (a)
 and (c) of the Commercial Computer Software - Restricted
 Rights clause in FAR 52.227-19.
  
 Gaussian, Inc.
 340 Quinnipiac St., Bldg. 40, Wallingford CT 06492
  
  
 ---------------------------------------------------------------
 Warning -- This program may not be used in any manner that
 competes with the business of Gaussian, Inc. or will provide
 assistance to any competitor of Gaussian, Inc.  The licensee
 of this program is prohibited from giving any competitor of
 Gaussian, Inc. access to this program.  By using this program,
 the user acknowledges that Gaussian, Inc. is engaged in the
 business of creating and licensing software in the field of
 computational chemistry and represents and warrants to the
 licensee that it is not a competitor of Gaussian, Inc. and that
 it will not use this program in any manner prohibited above.
 ---------------------------------------------------------------
  

 Cite this work as:
 Gaussian 09, Revision E.01,
 M. J. Frisch, G. W. Trucks, H. B. Schlegel, G. E. Scuseria, 
 M. A. Robb, J. R. Cheeseman, G. Scalmani, V. Barone, B. Mennucci, 
 G. A. Petersson, H. Nakatsuji, M. Caricato, X. Li, H. P. Hratchian, 
 A. F. Izmaylov, J. Bloino, G. Zheng, J. L. Sonnenberg, M. Hada, 
 M. Ehara, K. Toyota, R. Fukuda, J. Hasegawa, M. Ishida, T. Nakajima, 
 Y. Honda, O. Kitao, H. Nakai, T. Vreven, J. A. Montgomery, Jr., 
 J. E. Peralta, F. Ogliaro, M. Bearpark, J. J. Heyd, E. Brothers, 
 K. N. Kudin, V. N. Staroverov, T. Keith, R. Kobayashi, J. Normand, 
 K. Raghavachari, A. Rendell, J. C. Burant, S. S. Iyengar, J. Tomasi, 
 M. Cossi, N. Rega, J. M. Millam, M. Klene, J. E. Knox, J. B. Cross, 
 V. Bakken, C. Adamo, J. Jaramillo, R. Gomperts, R. E. Stratmann, 
 O. Yazyev, A. J. Austin, R. Cammi, C. Pomelli, J. W. Ochterski, 
 R. L. Martin, K. Morokuma, V. G. Zakrzewski, G. A. Voth, 
 P. Salvador, J. J. Dannenberg, S. Dapprich, A. D. Daniels, 
 O. Farkas, J. B. Foresman, J. V. Ortiz, J. Cioslowski, 
 and D. J. Fox, Gaussian, Inc., Wallingford CT, 2013.
 
 ******************************************
 Gaussian 09:  EM64L-G09RevE.01 30-Nov-2015
                 1-Mar-2019 
 ******************************************
 %NProcShared=4
 Will use up to    4 processors via shared memory.
 ------------------------------------------------------
 #p b3lyp/6-311++G(3df,2p) freq IOp(2/17=3) IOp(2/18=3)
 ------------------------------------------------------
 1/10=4,30=1,38=1/1,3;
 2/12=2,17=3,18=3,40=1/2;
 3/5=4,6=6,7=1216,11=2,16=1,25=1,30=1,71=2,74=-5,140=1/1,2,3;
 4//1;
 5/5=2,38=5,98=1/2;
 8/6=4,10=90,11=11/1;
 11/6=1,8=1,9=11,15=111,16=1/1,2,10;
 10/6=1/2;
 6/7=2,8=2,9=2,10=2,18=1,28=1/1;
 7/8=1,10=1,25=1/1,2,3,16;
 1/10=4,30=1/3;
 99//99;
 Leave Link    1 at Fri Mar  1 09:29:04 2019, MaxMem=           0 cpu:         0.2
 (Enter /home/proyectos/fulerenos/M3C-v2.0/M3C-deps_CCC/g09-AM64L-G09RevC.01/l101.exe)
 ---------
 b3lyp opt
 ---------
 Symbolic Z-matrix:
 Charge =  0 Multiplicity = 2
 C                    -0.08391   0.23007  -0.05649 
 C                     0.89143  -0.14153   0.90183 
 C                    -0.85259   1.10926  -0.73926 
 C                     1.34675  -1.32607   1.22849 
 H                     1.37909   0.63964   1.4971 
 O                    -0.83567  -0.45478  -0.91388 
 
 NAtoms=      6 NQM=        6 NQMF=       0 NMMI=      0 NMMIF=      0
                NMic=       0 NMicF=      0.
                    Isotopes and Nuclear Properties:
 (Nuclear quadrupole moments (NQMom) in fm**2, nuclear magnetic moments (NMagM)
  in nuclear magnetons)

  Atom         1           2           3           4           5           6
 IAtWgt=          12          12          12          12           1          16
 AtmWgt=  12.0000000  12.0000000  12.0000000  12.0000000   1.0078250  15.9949146
 NucSpn=           0           0           0           0           1           0
 AtZEff=   0.0000000   0.0000000   0.0000000   0.0000000   0.0000000   0.0000000
 NQMom=    0.0000000   0.0000000   0.0000000   0.0000000   0.0000000   0.0000000
 NMagM=    0.0000000   0.0000000   0.0000000   0.0000000   2.7928460   0.0000000
 AtZNuc=   6.0000000   6.0000000   6.0000000   6.0000000   1.0000000   8.0000000
 Leave Link  101 at Fri Mar  1 09:29:04 2019, MaxMem=    33554432 cpu:         0.3
 (Enter /home/proyectos/fulerenos/M3C-v2.0/M3C-deps_CCC/g09-AM64L-G09RevC.01/l103.exe)

 GradGradGradGradGradGradGradGradGradGradGradGradGradGradGradGradGradGrad
 Berny optimization.
 Initialization pass.
 Trust Radius=3.00D-01 FncErr=1.00D-07 GrdErr=1.00D-07
 Number of steps in this run=      2 maximum allowed number of steps=      2.
 GradGradGradGradGradGradGradGradGradGradGradGradGradGradGradGradGradGrad

 Leave Link  103 at Fri Mar  1 09:29:04 2019, MaxMem=    33554432 cpu:         0.1
 (Enter /home/proyectos/fulerenos/M3C-v2.0/M3C-deps_CCC/g09-AM64L-G09RevC.01/l202.exe)
                          Input orientation:                          
 ---------------------------------------------------------------------
 Center     Atomic      Atomic             Coordinates (Angstroms)
 Number     Number       Type             X           Y           Z
 ---------------------------------------------------------------------
      1          6           0       -0.083905    0.230066   -0.056493
      2          6           0        0.891427   -0.141525    0.901826
      3          6           0       -0.852594    1.109264   -0.739262
      4          6           0        1.346753   -1.326069    1.228487
      5          1           0        1.379089    0.639644    1.497100
      6          8           0       -0.835670   -0.454780   -0.913880
 ---------------------------------------------------------------------
                    Distance matrix (angstroms):
                    1          2          3          4          5
     1  C    0.000000
     2  C    1.416943   0.000000
     3  C    1.352792   2.701713   0.000000
     4  C    2.473765   1.310410   3.826227   0.000000
     5  H    2.172960   1.096536   3.194099   1.984244   0.000000
     6  O    1.330142   2.525427   1.573852   3.179914   3.451919
                    6
     6  O    0.000000
 Stoichiometry    C4HO(2)
 Framework group  C1[X(C4HO)]
 Deg. of freedom    12
 Full point group                 C1      NOp   1
 Largest Abelian subgroup         C1      NOp   1
 Largest concise Abelian subgroup C1      NOp   1
                         Standard orientation:                         
 ---------------------------------------------------------------------
 Center     Atomic      Atomic             Coordinates (Angstroms)
 Number     Number       Type             X           Y           Z
 ---------------------------------------------------------------------
      1          6           0        0.318398    0.240377    0.000238
      2          6           0       -1.085837    0.429717    0.000555
      3          6           0        1.606600    0.653390   -0.000869
      4          6           0       -2.057089   -0.449966   -0.000816
      5          1           0       -1.486449    1.450452    0.001706
      6          8           0        1.099252   -0.836445    0.000455
 ---------------------------------------------------------------------
 Rotational constants (GHZ):     21.3318047      4.2579954      3.5494908
 Leave Link  202 at Fri Mar  1 09:29:04 2019, MaxMem=    33554432 cpu:         0.0
 (Enter /home/proyectos/fulerenos/M3C-v2.0/M3C-deps_CCC/g09-AM64L-G09RevC.01/l301.exe)
 Standard basis: 6-311++G(3df,2p) (5D, 7F)
 Ernie: Thresh=  0.10000D-02 Tol=  0.10000D-05 Strict=F.
 There are   235 symmetry adapted cartesian basis functions of A   symmetry.
 There are   205 symmetry adapted basis functions of A   symmetry.
   205 basis functions,   302 primitive gaussians,   235 cartesian basis functions
    17 alpha electrons       16 beta electrons
       nuclear repulsion energy       123.2539258726 Hartrees.
 IExCor=  402 DFT=T Ex+Corr=B3LYP ExCW=0 ScaHFX=  0.200000
 ScaDFX=  0.800000  0.720000  1.000000  0.810000 ScalE2=  1.000000  1.000000
 IRadAn=      0 IRanWt=     -1 IRanGd=            0 ICorTp=0 IEmpDi=  4
 NAtoms=    6 NActive=    6 NUniq=    6 SFac= 1.00D+00 NAtFMM=   60 NAOKFM=F Big=F
 Integral buffers will be    131072 words long.
 Raffenetti 2 integral format.
 Two-electron integral symmetry is turned on.
 Leave Link  301 at Fri Mar  1 09:29:04 2019, MaxMem=    33554432 cpu:         0.3
 (Enter /home/proyectos/fulerenos/M3C-v2.0/M3C-deps_CCC/g09-AM64L-G09RevC.01/l302.exe)
 NPDir=0 NMtPBC=     1 NCelOv=     1 NCel=       1 NClECP=     1 NCelD=      1
         NCelK=      1 NCelE2=     1 NClLst=     1 CellRange=     0.0.
 One-electron integrals computed using PRISM.
 NBasis=   205 RedAO= T EigKep=  1.37D-05  NBF=   205
 NBsUse=   205 1.00D-06 EigRej= -1.00D+00 NBFU=   205
 Precomputing XC quadrature grid using
 IXCGrd= 4 IRadAn=           0 IRanWt=          -1 IRanGd=           0 AccXCQ= 0.00D+00.
 Generated NRdTot=       0 NPtTot=           0 NUsed=           0 NTot=          32
 NSgBfM=   235   235   235   235   235 MxSgAt=     6 MxSgA2=     6.
 Leave Link  302 at Fri Mar  1 09:29:04 2019, MaxMem=    33554432 cpu:         1.5
 (Enter /home/proyectos/fulerenos/M3C-v2.0/M3C-deps_CCC/g09-AM64L-G09RevC.01/l303.exe)
 DipDrv:  MaxL=1.
 Leave Link  303 at Fri Mar  1 09:29:04 2019, MaxMem=    33554432 cpu:         0.1
 (Enter /home/proyectos/fulerenos/M3C-v2.0/M3C-deps_CCC/g09-AM64L-G09RevC.01/l401.exe)
 ExpMin= 3.60D-02 ExpMax= 8.59D+03 ExpMxC= 1.30D+03 IAcc=3 IRadAn=         5 AccDes= 0.00D+00
 Harris functional with IExCor=  402 and IRadAn=       5 diagonalized for initial guess.
 HarFok:  IExCor=  402 AccDes= 0.00D+00 IRadAn=         5 IDoV= 1 UseB2=F ITyADJ=14
 ICtDFT=  3500011 ScaDFX=  1.000000  1.000000  1.000000  1.000000
 FoFCou: FMM=F IPFlag=           0 FMFlag=      100000 FMFlg1=           0
         NFxFlg=           0 DoJE=T BraDBF=F KetDBF=T FulRan=T
         wScrn=  0.000000 ICntrl=     500 IOpCl=  0 I1Cent=   200000004 NGrid=           0
         NMat0=    1 NMatS0=      1 NMatT0=    0 NMatD0=    1 NMtDS0=    0 NMtDT0=    0
 Petite list used in FoFCou.
 Harris En= -227.979431740742    
 JPrj=0 DoOrth=F DoCkMO=F.
 Initial guess <Sx>= 0.0000 <Sy>= 0.0000 <Sz>= 0.5000 <S**2>= 0.7500 S= 0.5000
 Leave Link  401 at Fri Mar  1 09:29:06 2019, MaxMem=    33554432 cpu:         7.7
 (Enter /home/proyectos/fulerenos/M3C-v2.0/M3C-deps_CCC/g09-AM64L-G09RevC.01/l502.exe)
 UHF open shell SCF:
 Using DIIS extrapolation, IDIIS=  1040.
 Integral symmetry usage will be decided dynamically.
 IVT=      187313 IEndB=      187313 NGot=    33554432 MDV=    33439220
 LenX=    33439220 LenY=    33383554
 Requested convergence on RMS density matrix=1.00D-08 within 128 cycles.
 Requested convergence on MAX density matrix=1.00D-06.
 Requested convergence on             energy=1.00D-06.
 No special actions if energy rises.
 Fock matrices will be formed incrementally for  20 cycles.

 Cycle   1  Pass 1  IDiag  1:
 FoFJK:  IHMeth= 1 ICntrl=       0 DoSepK=F KAlg= 0 I1Cent=   0 FoldK=F
 IRaf= 990000000 NMat=   1 IRICut=       1 DoRegI=T DoRafI=F ISym2E= 0.
 FoFCou: FMM=F IPFlag=           0 FMFlag=      100000 FMFlg1=           0
         NFxFlg=           0 DoJE=F BraDBF=F KetDBF=F FulRan=T
         wScrn=  0.000000 ICntrl=       0 IOpCl=  1 I1Cent=           0 NGrid=           0
         NMat0=    1 NMatS0=      1 NMatT0=    0 NMatD0=    1 NMtDS0=    0 NMtDT0=    0
 Symmetry not used in FoFCou.
 E= -227.937470744561    
 DIIS: error= 2.06D-02 at cycle   1 NSaved=   1.
 NSaved= 1 IEnMin= 1 EnMin= -227.937470744561     IErMin= 1 ErrMin= 2.06D-02
 ErrMax= 2.06D-02  0.00D+00 EMaxC= 1.00D-01 BMatC= 2.93D-01 BMatP= 2.93D-01
 IDIUse=3 WtCom= 7.94D-01 WtEn= 2.06D-01
 Coeff-Com:  0.100D+01
 Coeff-En:   0.100D+01
 Coeff:      0.100D+01
 Gap=     0.061 Goal=   None    Shift=    0.000
 Gap=     0.159 Goal=   None    Shift=    0.000
 GapD=    0.061 DampG=0.500 DampE=0.500 DampFc=0.2500 IDamp=-1.
 Damping current iteration by 2.50D-01
 RMSDP=5.25D-03 MaxDP=2.58D-01              OVMax= 1.92D-01

 Cycle   2  Pass 1  IDiag  1:
 RMSU=  1.23D-03    CP:  9.77D-01
 E= -227.957038961128     Delta-E=       -0.019568216567 Rises=F Damp=T
 DIIS: error= 1.15D-02 at cycle   2 NSaved=   2.
 NSaved= 2 IEnMin= 2 EnMin= -227.957038961128     IErMin= 2 ErrMin= 1.15D-02
 ErrMax= 1.15D-02  0.00D+00 EMaxC= 1.00D-01 BMatC= 9.26D-02 BMatP= 2.93D-01
 IDIUse=3 WtCom= 8.85D-01 WtEn= 1.15D-01
 Coeff-Com: -0.951D+00 0.195D+01
 Coeff-En:   0.000D+00 0.100D+01
 Coeff:     -0.842D+00 0.184D+01
 Gap=     0.121 Goal=   None    Shift=    0.000
 Gap=     0.169 Goal=   None    Shift=    0.000
 RMSDP=3.12D-03 MaxDP=2.41D-01 DE=-1.96D-02 OVMax= 1.62D-01

 Cycle   3  Pass 1  IDiag  1:
 RMSU=  1.59D-03    CP:  8.93D-01  2.74D+00
 E= -227.987465489838     Delta-E=       -0.030426528709 Rises=F Damp=F
 DIIS: error= 8.14D-03 at cycle   3 NSaved=   3.
 NSaved= 3 IEnMin= 3 EnMin= -227.987465489838     IErMin= 3 ErrMin= 8.14D-03
 ErrMax= 8.14D-03  0.00D+00 EMaxC= 1.00D-01 BMatC= 2.66D-02 BMatP= 9.26D-02
 IDIUse=3 WtCom= 9.19D-01 WtEn= 8.14D-02
 Coeff-Com: -0.583D+00 0.103D+01 0.554D+00
 Coeff-En:   0.000D+00 0.000D+00 0.100D+01
 Coeff:     -0.536D+00 0.945D+00 0.590D+00
 Gap=     0.091 Goal=   None    Shift=    0.000
 Gap=     0.162 Goal=   None    Shift=    0.000
 RMSDP=9.76D-04 MaxDP=5.43D-02 DE=-3.04D-02 OVMax= 7.67D-02

 Cycle   4  Pass 1  IDiag  1:
 RMSU=  5.77D-04    CP:  9.05D-01  2.46D+00  5.76D-01
 E= -227.993018167920     Delta-E=       -0.005552678082 Rises=F Damp=F
 DIIS: error= 3.92D-03 at cycle   4 NSaved=   4.
 NSaved= 4 IEnMin= 4 EnMin= -227.993018167920     IErMin= 4 ErrMin= 3.92D-03
 ErrMax= 3.92D-03  0.00D+00 EMaxC= 1.00D-01 BMatC= 8.11D-03 BMatP= 2.66D-02
 IDIUse=3 WtCom= 9.61D-01 WtEn= 3.92D-02
 Coeff-Com: -0.167D+00 0.278D+00 0.378D+00 0.511D+00
 Coeff-En:   0.000D+00 0.000D+00 0.235D+00 0.765D+00
 Coeff:     -0.161D+00 0.267D+00 0.373D+00 0.521D+00
 Gap=     0.101 Goal=   None    Shift=    0.000
 Gap=     0.152 Goal=   None    Shift=    0.000
 RMSDP=2.75D-04 MaxDP=1.42D-02 DE=-5.55D-03 OVMax= 2.14D-02

 Cycle   5  Pass 1  IDiag  1:
 RMSU=  1.46D-04    CP:  9.01D-01  2.55D+00  6.47D-01  7.24D-01
 E= -227.994762937356     Delta-E=       -0.001744769436 Rises=F Damp=F
 DIIS: error= 1.53D-03 at cycle   5 NSaved=   5.
 NSaved= 5 IEnMin= 5 EnMin= -227.994762937356     IErMin= 5 ErrMin= 1.53D-03
 ErrMax= 1.53D-03  0.00D+00 EMaxC= 1.00D-01 BMatC= 9.45D-04 BMatP= 8.11D-03
 IDIUse=3 WtCom= 9.85D-01 WtEn= 1.53D-02
 Coeff-Com: -0.362D-01 0.527D-01 0.189D+00 0.336D+00 0.458D+00
 Coeff-En:   0.000D+00 0.000D+00 0.000D+00 0.000D+00 0.100D+01
 Coeff:     -0.356D-01 0.519D-01 0.186D+00 0.331D+00 0.466D+00
 Gap=     0.102 Goal=   None    Shift=    0.000
 Gap=     0.156 Goal=   None    Shift=    0.000
 RMSDP=1.26D-04 MaxDP=5.83D-03 DE=-1.74D-03 OVMax= 7.80D-03

 Cycle   6  Pass 1  IDiag  1:
 RMSU=  8.04D-05    CP:  8.99D-01  2.52D+00  6.87D-01  6.90D-01  7.31D-01
 E= -227.994949559634     Delta-E=       -0.000186622278 Rises=F Damp=F
 DIIS: error= 6.17D-04 at cycle   6 NSaved=   6.
 NSaved= 6 IEnMin= 6 EnMin= -227.994949559634     IErMin= 6 ErrMin= 6.17D-04
 ErrMax= 6.17D-04  0.00D+00 EMaxC= 1.00D-01 BMatC= 1.68D-04 BMatP= 9.45D-04
 IDIUse=3 WtCom= 9.94D-01 WtEn= 6.17D-03
 Coeff-Com:  0.169D-01-0.314D-01 0.414D-01 0.937D-01 0.313D+00 0.567D+00
 Coeff-En:   0.000D+00 0.000D+00 0.000D+00 0.000D+00 0.135D+00 0.865D+00
 Coeff:      0.168D-01-0.312D-01 0.411D-01 0.932D-01 0.312D+00 0.568D+00
 Gap=     0.102 Goal=   None    Shift=    0.000
 Gap=     0.155 Goal=   None    Shift=    0.000
 RMSDP=5.01D-05 MaxDP=2.98D-03 DE=-1.87D-04 OVMax= 3.01D-03

 Cycle   7  Pass 1  IDiag  1:
 RMSU=  2.99D-05    CP:  8.99D-01  2.54D+00  6.76D-01  6.97D-01  8.09D-01
                    CP:  7.36D-01
 E= -227.994988370151     Delta-E=       -0.000038810517 Rises=F Damp=F
 DIIS: error= 1.91D-04 at cycle   7 NSaved=   7.
 NSaved= 7 IEnMin= 7 EnMin= -227.994988370151     IErMin= 7 ErrMin= 1.91D-04
 ErrMax= 1.91D-04  0.00D+00 EMaxC= 1.00D-01 BMatC= 1.26D-05 BMatP= 1.68D-04
 IDIUse=3 WtCom= 9.98D-01 WtEn= 1.91D-03
 Coeff-Com:  0.140D-01-0.226D-01-0.186D-01-0.338D-01 0.368D-01 0.229D+00
 Coeff-Com:  0.795D+00
 Coeff-En:   0.000D+00 0.000D+00 0.000D+00 0.000D+00 0.000D+00 0.000D+00
 Coeff-En:   0.100D+01
 Coeff:      0.140D-01-0.226D-01-0.186D-01-0.338D-01 0.367D-01 0.229D+00
 Coeff:      0.795D+00
 Gap=     0.102 Goal=   None    Shift=    0.000
 Gap=     0.155 Goal=   None    Shift=    0.000
 RMSDP=1.99D-05 MaxDP=9.82D-04 DE=-3.88D-05 OVMax= 1.65D-03

 Cycle   8  Pass 1  IDiag  1:
 RMSU=  1.54D-05    CP:  8.99D-01  2.54D+00  6.83D-01  7.03D-01  8.43D-01
                    CP:  7.70D-01  9.34D-01
 E= -227.994993997219     Delta-E=       -0.000005627067 Rises=F Damp=F
 DIIS: error= 1.02D-04 at cycle   8 NSaved=   8.
 NSaved= 8 IEnMin= 8 EnMin= -227.994993997219     IErMin= 8 ErrMin= 1.02D-04
 ErrMax= 1.02D-04  0.00D+00 EMaxC= 1.00D-01 BMatC= 3.34D-06 BMatP= 1.26D-05
 IDIUse=3 WtCom= 9.99D-01 WtEn= 1.02D-03
 Coeff-Com:  0.374D-02-0.548D-02-0.146D-01-0.312D-01-0.363D-01-0.111D-01
 Coeff-Com:  0.367D+00 0.728D+00
 Coeff-En:   0.000D+00 0.000D+00 0.000D+00 0.000D+00 0.000D+00 0.000D+00
 Coeff-En:   0.000D+00 0.100D+01
 Coeff:      0.374D-02-0.547D-02-0.146D-01-0.311D-01-0.363D-01-0.111D-01
 Coeff:      0.367D+00 0.728D+00
 Gap=     0.102 Goal=   None    Shift=    0.000
 Gap=     0.155 Goal=   None    Shift=    0.000
 RMSDP=1.30D-05 MaxDP=7.58D-04 DE=-5.63D-06 OVMax= 8.07D-04

 Cycle   9  Pass 1  IDiag  1:
 RMSU=  6.91D-06    CP:  8.99D-01  2.53D+00  6.85D-01  7.03D-01  8.62D-01
                    CP:  8.55D-01  1.02D+00  1.07D+00
 E= -227.994995256181     Delta-E=       -0.000001258962 Rises=F Damp=F
 DIIS: error= 5.58D-05 at cycle   9 NSaved=   9.
 NSaved= 9 IEnMin= 9 EnMin= -227.994995256181     IErMin= 9 ErrMin= 5.58D-05
 ErrMax= 5.58D-05  0.00D+00 EMaxC= 1.00D-01 BMatC= 1.16D-06 BMatP= 3.34D-06
 IDIUse=1 WtCom= 1.00D+00 WtEn= 0.00D+00
 Coeff-Com: -0.877D-03 0.190D-02-0.619D-02-0.149D-01-0.349D-01-0.695D-01
 Coeff-Com:  0.632D-01 0.437D+00 0.625D+00
 Coeff:     -0.877D-03 0.190D-02-0.619D-02-0.149D-01-0.349D-01-0.695D-01
 Coeff:      0.632D-01 0.437D+00 0.625D+00
 Gap=     0.102 Goal=   None    Shift=    0.000
 Gap=     0.155 Goal=   None    Shift=    0.000
 RMSDP=7.04D-06 MaxDP=4.28D-04 DE=-1.26D-06 OVMax= 8.62D-04

 Cycle  10  Pass 1  IDiag  1:
 RMSU=  3.32D-06    CP:  8.99D-01  2.54D+00  6.85D-01  7.02D-01  8.67D-01
                    CP:  8.33D-01  1.11D+00  1.24D+00  7.73D-01
 E= -227.994995845114     Delta-E=       -0.000000588933 Rises=F Damp=F
 DIIS: error= 2.51D-05 at cycle  10 NSaved=  10.
 NSaved=10 IEnMin=10 EnMin= -227.994995845114     IErMin=10 ErrMin= 2.51D-05
 ErrMax= 2.51D-05  0.00D+00 EMaxC= 1.00D-01 BMatC= 2.09D-07 BMatP= 1.16D-06
 IDIUse=1 WtCom= 1.00D+00 WtEn= 0.00D+00
 Coeff-Com: -0.112D-02 0.177D-02 0.172D-02 0.362D-02-0.277D-02-0.178D-01
 Coeff-Com: -0.578D-01-0.862D-01 0.243D+00 0.915D+00
 Coeff:     -0.112D-02 0.177D-02 0.172D-02 0.362D-02-0.277D-02-0.178D-01
 Coeff:     -0.578D-01-0.862D-01 0.243D+00 0.915D+00
 Gap=     0.102 Goal=   None    Shift=    0.000
 Gap=     0.155 Goal=   None    Shift=    0.000
 RMSDP=3.91D-06 MaxDP=1.55D-04 DE=-5.89D-07 OVMax= 3.38D-04

 Cycle  11  Pass 1  IDiag  1:
 RMSU=  2.08D-06    CP:  8.99D-01  2.54D+00  6.85D-01  7.02D-01  8.71D-01
                    CP:  8.52D-01  1.14D+00  1.30D+00  1.08D+00  1.28D+00
 E= -227.994996025015     Delta-E=       -0.000000179901 Rises=F Damp=F
 DIIS: error= 9.81D-06 at cycle  11 NSaved=  11.
 NSaved=11 IEnMin=11 EnMin= -227.994996025015     IErMin=11 ErrMin= 9.81D-06
 ErrMax= 9.81D-06  0.00D+00 EMaxC= 1.00D-01 BMatC= 4.30D-08 BMatP= 2.09D-07
 IDIUse=1 WtCom= 1.00D+00 WtEn= 0.00D+00
 Coeff-Com:  0.776D-05-0.612D-04 0.152D-02 0.407D-02 0.468D-02 0.155D-01
 Coeff-Com: -0.255D-01-0.110D+00-0.833D-01 0.115D+00 0.108D+01
 Coeff:      0.776D-05-0.612D-04 0.152D-02 0.407D-02 0.468D-02 0.155D-01
 Coeff:     -0.255D-01-0.110D+00-0.833D-01 0.115D+00 0.108D+01
 Gap=     0.102 Goal=   None    Shift=    0.000
 Gap=     0.155 Goal=   None    Shift=    0.000
 RMSDP=2.40D-06 MaxDP=1.08D-04 DE=-1.80D-07 OVMax= 2.66D-04

 Cycle  12  Pass 1  IDiag  1:
 RMSU=  1.00D-06    CP:  8.99D-01  2.54D+00  6.85D-01  7.02D-01  8.72D-01
                    CP:  8.60D-01  1.15D+00  1.33D+00  1.20D+00  1.72D+00
                    CP:  1.41D+00
 E= -227.994996098242     Delta-E=       -0.000000073227 Rises=F Damp=F
 DIIS: error= 5.02D-06 at cycle  12 NSaved=  12.
 NSaved=12 IEnMin=12 EnMin= -227.994996098242     IErMin=12 ErrMin= 5.02D-06
 ErrMax= 5.02D-06  0.00D+00 EMaxC= 1.00D-01 BMatC= 1.29D-08 BMatP= 4.30D-08
 IDIUse=1 WtCom= 1.00D+00 WtEn= 0.00D+00
 Coeff-Com:  0.241D-03-0.377D-03-0.114D-03-0.341D-04 0.764D-03 0.627D-02
 Coeff-Com:  0.488D-02 0.764D-02-0.489D-01-0.204D+00 0.935D-01 0.114D+01
 Coeff:      0.241D-03-0.377D-03-0.114D-03-0.341D-04 0.764D-03 0.627D-02
 Coeff:      0.488D-02 0.764D-02-0.489D-01-0.204D+00 0.935D-01 0.114D+01
 Gap=     0.102 Goal=   None    Shift=    0.000
 Gap=     0.155 Goal=   None    Shift=    0.000
 RMSDP=1.92D-06 MaxDP=9.24D-05 DE=-7.32D-08 OVMax= 2.50D-04

 Cycle  13  Pass 1  IDiag  1:
 RMSU=  5.17D-07    CP:  8.99D-01  2.54D+00  6.85D-01  7.02D-01  8.72D-01
                    CP:  8.64D-01  1.16D+00  1.36D+00  1.28D+00  1.99D+00
                    CP:  1.90D+00  1.93D+00
 E= -227.994996137473     Delta-E=       -0.000000039231 Rises=F Damp=F
 DIIS: error= 3.38D-06 at cycle  13 NSaved=  13.
 NSaved=13 IEnMin=13 EnMin= -227.994996137473     IErMin=13 ErrMin= 3.38D-06
 ErrMax= 3.38D-06  0.00D+00 EMaxC= 1.00D-01 BMatC= 6.59D-09 BMatP= 1.29D-08
 IDIUse=1 WtCom= 1.00D+00 WtEn= 0.00D+00
 Coeff-Com: -0.466D-04 0.834D-04-0.531D-03-0.136D-02-0.172D-02-0.595D-02
 Coeff-Com:  0.884D-02 0.366D-01 0.388D-01-0.176D-01-0.408D+00-0.121D+00
 Coeff-Com:  0.147D+01
 Coeff:     -0.466D-04 0.834D-04-0.531D-03-0.136D-02-0.172D-02-0.595D-02
 Coeff:      0.884D-02 0.366D-01 0.388D-01-0.176D-01-0.408D+00-0.121D+00
 Coeff:      0.147D+01
 Gap=     0.102 Goal=   None    Shift=    0.000
 Gap=     0.155 Goal=   None    Shift=    0.000
 RMSDP=2.08D-06 MaxDP=1.10D-04 DE=-3.92D-08 OVMax= 2.80D-04

 Cycle  14  Pass 1  IDiag  1:
 RMSU=  4.28D-07    CP:  8.99D-01  2.54D+00  6.85D-01  7.02D-01  8.72D-01
                    CP:  8.66D-01  1.16D+00  1.38D+00  1.35D+00  2.26D+00
                    CP:  2.35D+00  3.00D+00  2.29D+00
 E= -227.994996171081     Delta-E=       -0.000000033608 Rises=F Damp=F
 DIIS: error= 2.66D-06 at cycle  14 NSaved=  14.
 NSaved=14 IEnMin=14 EnMin= -227.994996171081     IErMin=14 ErrMin= 2.66D-06
 ErrMax= 2.66D-06  0.00D+00 EMaxC= 1.00D-01 BMatC= 3.91D-09 BMatP= 6.59D-09
 IDIUse=1 WtCom= 1.00D+00 WtEn= 0.00D+00
 Coeff-Com: -0.143D-03 0.212D-03 0.261D-03 0.502D-03 0.320D-03-0.146D-02
 Coeff-Com: -0.586D-02-0.229D-01 0.819D-02 0.159D+00 0.125D+00-0.714D+00
 Coeff-Com: -0.697D+00 0.215D+01
 Coeff:     -0.143D-03 0.212D-03 0.261D-03 0.502D-03 0.320D-03-0.146D-02
 Coeff:     -0.586D-02-0.229D-01 0.819D-02 0.159D+00 0.125D+00-0.714D+00
 Coeff:     -0.697D+00 0.215D+01
 Gap=     0.102 Goal=   None    Shift=    0.000
 Gap=     0.155 Goal=   None    Shift=    0.000
 RMSDP=3.00D-06 MaxDP=1.58D-04 DE=-3.36D-08 OVMax= 4.13D-04

 Cycle  15  Pass 1  IDiag  1:
 RMSU=  1.71D-06    CP:  8.99D-01  2.54D+00  6.85D-01  7.02D-01  8.72D-01
                    CP:  8.67D-01  1.17D+00  1.41D+00  1.43D+00  2.62D+00
                    CP:  2.95D+00  3.00D+00  3.00D+00  3.00D+00
 E= -227.994996205075     Delta-E=       -0.000000033993 Rises=F Damp=F
 DIIS: error= 1.79D-06 at cycle  15 NSaved=  15.
 NSaved=15 IEnMin=15 EnMin= -227.994996205075     IErMin=15 ErrMin= 1.79D-06
 ErrMax= 1.79D-06  0.00D+00 EMaxC= 1.00D-01 BMatC= 1.88D-09 BMatP= 3.91D-09
 IDIUse=1 WtCom= 1.00D+00 WtEn= 0.00D+00
 Coeff-Com:  0.839D-04-0.130D-03 0.417D-03 0.852D-03 0.167D-02 0.385D-02
 Coeff-Com: -0.544D-02-0.217D-01-0.361D-01-0.522D-02 0.278D+00 0.224D+00
 Coeff-Com: -0.105D+01-0.278D+00 0.189D+01
 Coeff:      0.839D-04-0.130D-03 0.417D-03 0.852D-03 0.167D-02 0.385D-02
 Coeff:     -0.544D-02-0.217D-01-0.361D-01-0.522D-02 0.278D+00 0.224D+00
 Coeff:     -0.105D+01-0.278D+00 0.189D+01
 Gap=     0.102 Goal=   None    Shift=    0.000
 Gap=     0.155 Goal=   None    Shift=    0.000
 RMSDP=3.10D-06 MaxDP=1.65D-04 DE=-3.40D-08 OVMax= 4.23D-04

 Cycle  16  Pass 1  IDiag  1:
 RMSU=  1.48D-06    CP:  8.99D-01  2.54D+00  6.85D-01  7.02D-01  8.72D-01
                    CP:  8.67D-01  1.17D+00  1.43D+00  1.50D+00  2.98D+00
                    CP:  3.00D+00  3.00D+00  3.00D+00  3.00D+00  2.36D+00
 E= -227.994996222234     Delta-E=       -0.000000017160 Rises=F Damp=F
 DIIS: error= 5.69D-07 at cycle  16 NSaved=  16.
 NSaved=16 IEnMin=16 EnMin= -227.994996222234     IErMin=16 ErrMin= 5.69D-07
 ErrMax= 5.69D-07  0.00D+00 EMaxC= 1.00D-01 BMatC= 2.02D-10 BMatP= 1.88D-09
 IDIUse=1 WtCom= 1.00D+00 WtEn= 0.00D+00
 Coeff-Com:  0.320D-04-0.483D-04-0.108D-03-0.214D-03-0.191D-03-0.629D-04
 Coeff-Com:  0.212D-02 0.887D-02 0.568D-03-0.441D-01-0.734D-01 0.186D+00
 Coeff-Com:  0.289D+00-0.567D+00-0.164D+00 0.136D+01
 Coeff:      0.320D-04-0.483D-04-0.108D-03-0.214D-03-0.191D-03-0.629D-04
 Coeff:      0.212D-02 0.887D-02 0.568D-03-0.441D-01-0.734D-01 0.186D+00
 Coeff:      0.289D+00-0.567D+00-0.164D+00 0.136D+01
 Gap=     0.102 Goal=   None    Shift=    0.000
 Gap=     0.155 Goal=   None    Shift=    0.000
 RMSDP=1.07D-06 MaxDP=5.60D-05 DE=-1.72D-08 OVMax= 1.46D-04

 Cycle  17  Pass 1  IDiag  1:
 RMSU=  3.47D-07    CP:  8.99D-01  2.54D+00  6.85D-01  7.02D-01  8.72D-01
                    CP:  8.67D-01  1.17D+00  1.44D+00  1.53D+00  3.00D+00
                    CP:  3.00D+00  3.00D+00  3.00D+00  3.00D+00  2.82D+00
                    CP:  1.36D+00
 E= -227.994996223784     Delta-E=       -0.000000001550 Rises=F Damp=F
 DIIS: error= 1.33D-07 at cycle  17 NSaved=  17.
 NSaved=17 IEnMin=17 EnMin= -227.994996223784     IErMin=17 ErrMin= 1.33D-07
 ErrMax= 1.33D-07  0.00D+00 EMaxC= 1.00D-01 BMatC= 1.75D-11 BMatP= 2.02D-10
 IDIUse=1 WtCom= 1.00D+00 WtEn= 0.00D+00
 Coeff-Com: -0.128D-04 0.186D-04-0.479D-04-0.833D-04-0.175D-03-0.373D-03
 Coeff-Com:  0.583D-03 0.213D-02 0.369D-02 0.316D-02-0.294D-01-0.328D-01
 Coeff-Com:  0.106D+00 0.557D-01-0.213D+00-0.272D-01 0.113D+01
 Coeff:     -0.128D-04 0.186D-04-0.479D-04-0.833D-04-0.175D-03-0.373D-03
 Coeff:      0.583D-03 0.213D-02 0.369D-02 0.316D-02-0.294D-01-0.328D-01
 Coeff:      0.106D+00 0.557D-01-0.213D+00-0.272D-01 0.113D+01
 Gap=     0.102 Goal=   None    Shift=    0.000
 Gap=     0.155 Goal=   None    Shift=    0.000
 RMSDP=1.45D-07 MaxDP=7.46D-06 DE=-1.55D-09 OVMax= 1.91D-05

 Cycle  18  Pass 1  IDiag  1:
 RMSU=  2.69D-08    CP:  8.99D-01  2.54D+00  6.85D-01  7.02D-01  8.72D-01
                    CP:  8.67D-01  1.17D+00  1.44D+00  1.53D+00  3.00D+00
                    CP:  3.00D+00  3.00D+00  3.00D+00  3.00D+00  2.88D+00
                    CP:  1.41D+00  1.17D+00
 E= -227.994996223825     Delta-E=       -0.000000000041 Rises=F Damp=F
 DIIS: error= 3.94D-08 at cycle  18 NSaved=  18.
 NSaved=18 IEnMin=18 EnMin= -227.994996223825     IErMin=18 ErrMin= 3.94D-08
 ErrMax= 3.94D-08  0.00D+00 EMaxC= 1.00D-01 BMatC= 1.37D-12 BMatP= 1.75D-11
 IDIUse=1 WtCom= 1.00D+00 WtEn= 0.00D+00
 Coeff-Com: -0.302D-05 0.465D-05 0.906D-05 0.167D-04 0.131D-04 0.237D-05
 Coeff-Com: -0.206D-03-0.765D-03-0.120D-03 0.465D-02 0.677D-02-0.206D-01
 Coeff-Com: -0.255D-01 0.610D-01 0.801D-02-0.141D+00 0.171D-01 0.109D+01
 Coeff:     -0.302D-05 0.465D-05 0.906D-05 0.167D-04 0.131D-04 0.237D-05
 Coeff:     -0.206D-03-0.765D-03-0.120D-03 0.465D-02 0.677D-02-0.206D-01
 Coeff:     -0.255D-01 0.610D-01 0.801D-02-0.141D+00 0.171D-01 0.109D+01
 Gap=     0.102 Goal=   None    Shift=    0.000
 Gap=     0.155 Goal=   None    Shift=    0.000
 RMSDP=2.25D-08 MaxDP=1.01D-06 DE=-4.07D-11 OVMax= 2.52D-06

 Cycle  19  Pass 1  IDiag  1:
 RMSU=  6.51D-09    CP:  8.99D-01  2.54D+00  6.85D-01  7.02D-01  8.72D-01
                    CP:  8.67D-01  1.17D+00  1.44D+00  1.53D+00  3.00D+00
                    CP:  3.00D+00  3.00D+00  3.00D+00  3.00D+00  2.89D+00
                    CP:  1.41D+00  1.20D+00  1.37D+00
 E= -227.994996223824     Delta-E=        0.000000000001 Rises=F Damp=F
 DIIS: error= 1.14D-08 at cycle  19 NSaved=  19.
 NSaved=19 IEnMin=18 EnMin= -227.994996223825     IErMin=19 ErrMin= 1.14D-08
 ErrMax= 1.14D-08  0.00D+00 EMaxC= 1.00D-01 BMatC= 1.04D-13 BMatP= 1.37D-12
 IDIUse=1 WtCom= 1.00D+00 WtEn= 0.00D+00
 Coeff-Com:  0.105D-05-0.157D-05 0.307D-05 0.551D-05 0.130D-04 0.290D-04
 Coeff-Com: -0.394D-04-0.765D-04-0.312D-03-0.462D-03 0.166D-02 0.389D-02
 Coeff-Com: -0.474D-02-0.997D-02 0.147D-01 0.134D-01-0.882D-01-0.673D-01
 Coeff-Com:  0.114D+01
 Coeff:      0.105D-05-0.157D-05 0.307D-05 0.551D-05 0.130D-04 0.290D-04
 Coeff:     -0.394D-04-0.765D-04-0.312D-03-0.462D-03 0.166D-02 0.389D-02
 Coeff:     -0.474D-02-0.997D-02 0.147D-01 0.134D-01-0.882D-01-0.673D-01
 Coeff:      0.114D+01
 Gap=     0.102 Goal=   None    Shift=    0.000
 Gap=     0.155 Goal=   None    Shift=    0.000
 RMSDP=4.13D-09 MaxDP=2.27D-07 DE= 5.12D-13 OVMax= 3.11D-07

 SCF Done:  E(UB3LYP) =  -227.994996224     A.U. after   19 cycles
            NFock= 19  Conv=0.41D-08     -V/T= 2.0039
 <Sx>= 0.0000 <Sy>= 0.0000 <Sz>= 0.5000 <S**2>= 0.7569 S= 0.5034
 <L.S>= 0.000000000000E+00
 KE= 2.271011999311D+02 PE=-7.781880372437D+02 EE= 1.998379152162D+02
 Annihilation of the first spin contaminant:
 S**2 before annihilation     0.7569,   after     0.7500
 Leave Link  502 at Fri Mar  1 09:31:40 2019, MaxMem=    33554432 cpu:       613.4
 (Enter /home/proyectos/fulerenos/M3C-v2.0/M3C-deps_CCC/g09-AM64L-G09RevC.01/l801.exe)
 DoSCS=F DFT=T ScalE2(SS,OS)=  1.000000  1.000000
 Range of M.O.s used for correlation:     1   205
 NBasis=   205 NAE=    17 NBE=    16 NFC=     0 NFV=     0
 NROrb=    205 NOA=    17 NOB=    16 NVA=   188 NVB=   189

 **** Warning!!: The largest alpha MO coefficient is  0.80031506D+02


 **** Warning!!: The largest beta MO coefficient is  0.84904407D+02

 Leave Link  801 at Fri Mar  1 09:31:40 2019, MaxMem=    33554432 cpu:         0.1
 (Enter /home/proyectos/fulerenos/M3C-v2.0/M3C-deps_CCC/g09-AM64L-G09RevC.01/l1101.exe)
 Using compressed storage, NAtomX=     6.
 Will process      7 centers per pass.
 Leave Link 1101 at Fri Mar  1 09:31:41 2019, MaxMem=    33554432 cpu:         1.2
 (Enter /home/proyectos/fulerenos/M3C-v2.0/M3C-deps_CCC/g09-AM64L-G09RevC.01/l1102.exe)
 Symmetrizing basis deriv contribution to polar:
 IMax=3 JMax=2 DiffMx= 0.00D+00
 Leave Link 1102 at Fri Mar  1 09:31:41 2019, MaxMem=    33554432 cpu:         0.1
 (Enter /home/proyectos/fulerenos/M3C-v2.0/M3C-deps_CCC/g09-AM64L-G09RevC.01/l1110.exe)
 Forming Gx(P) for the SCF density, NAtomX=     6.
 Integral derivatives from FoFJK, PRISM(SPDF).
 Do as many integral derivatives as possible in FoFJK.
 G2DrvN: MDV=      33554280.
 G2DrvN: will do     7 centers at a time, making    1 passes.
 Calling FoFCou, ICntrl=  3107 FMM=F I1Cent=   0 AccDes= 0.00D+00.
 FoFJK:  IHMeth= 1 ICntrl=    3107 DoSepK=F KAlg= 0 I1Cent=   0 FoldK=F
 IRaf=         0 NMat=   1 IRICut=       1 DoRegI=T DoRafI=F ISym2E= 0.
 FoFCou: FMM=F IPFlag=           0 FMFlag=      100000 FMFlg1=           0
         NFxFlg=           0 DoJE=F BraDBF=F KetDBF=F FulRan=T
         wScrn=  0.000000 ICntrl=    3107 IOpCl=  1 I1Cent=           0 NGrid=           0
         NMat0=    1 NMatS0=      1 NMatT0=    0 NMatD0=    1 NMtDS0=    0 NMtDT0=    0
 Symmetry not used in FoFCou.
 End of G2Drv F.D. properties file   721 does not exist.
 End of G2Drv F.D. properties file   722 does not exist.
 End of G2Drv F.D. properties file   788 does not exist.
 Leave Link 1110 at Fri Mar  1 09:32:30 2019, MaxMem=    33554432 cpu:       196.9
 (Enter /home/proyectos/fulerenos/M3C-v2.0/M3C-deps_CCC/g09-AM64L-G09RevC.01/l1002.exe)
 Minotr:  UHF open shell wavefunction.
          IDoAtm=111111
          Direct CPHF calculation.
          Differentiating once with respect to electric field.
                with respect to dipole field.
          Differentiating once with respect to nuclear coordinates.
          Requested convergence is 1.0D-08 RMS, and 1.0D-07 maximum.
          Secondary convergence is 1.0D-12 RMS, and 1.0D-12 maximum.
          NewPWx=T KeepS1=F KeepF1=F KeepIn=T MapXYZ=F SortEE=F KeepMc=T.
          MDV=      33553958 using IRadAn=       2.
 Generate precomputed XC quadrature information.
          Solving linear equations simultaneously, MaxMat=       0.
 FoFJK:  IHMeth= 1 ICntrl=       0 DoSepK=F KAlg= 0 I1Cent=   0 FoldK=F
 IRaf= 990000000 NMat=  21 IRICut=      52 DoRegI=T DoRafI=T ISym2E= 2.
 FoFCou: FMM=F IPFlag=           0 FMFlag=      100000 FMFlg1=           0
         NFxFlg=           0 DoJE=F BraDBF=F KetDBF=F FulRan=T
         wScrn=  0.000000 ICntrl=       0 IOpCl=  1 I1Cent=           0 NGrid=           0
         NMat0=   21 NMatS0=     21 NMatT0=    0 NMatD0=   21 NMtDS0=    0 NMtDT0=    0
 Integrals replicated using symmetry in FoFCou.
          There are    21 degrees of freedom in the 1st order CPHF.  IDoFFX=6 NUNeed=     3.
     18 vectors produced by pass  0 Test12= 2.96D-14 4.76D-09 XBig12= 2.54D+02 1.15D+01.
 AX will form    18 AO Fock derivatives at one time.
     18 vectors produced by pass  1 Test12= 2.96D-14 4.76D-09 XBig12= 8.05D+01 2.12D+00.
     18 vectors produced by pass  2 Test12= 2.96D-14 4.76D-09 XBig12= 3.23D+00 4.15D-01.
     18 vectors produced by pass  3 Test12= 2.96D-14 4.76D-09 XBig12= 1.28D-01 7.62D-02.
     18 vectors produced by pass  4 Test12= 2.96D-14 4.76D-09 XBig12= 1.31D-03 1.23D-02.
     18 vectors produced by pass  5 Test12= 2.96D-14 4.76D-09 XBig12= 1.79D-05 8.85D-04.
     18 vectors produced by pass  6 Test12= 2.96D-14 4.76D-09 XBig12= 1.20D-07 5.71D-05.
     16 vectors produced by pass  7 Test12= 2.96D-14 4.76D-09 XBig12= 8.25D-10 4.01D-06.
      4 vectors produced by pass  8 Test12= 2.96D-14 4.76D-09 XBig12= 4.69D-12 3.12D-07.
      3 vectors produced by pass  9 Test12= 2.96D-14 4.76D-09 XBig12= 1.43D-13 9.84D-08.
      2 vectors produced by pass 10 Test12= 2.96D-14 4.76D-09 XBig12= 6.73D-15 1.47D-08.
 InvSVY:  IOpt=1 It=  1 EMax= 5.33D-15
 Solved reduced A of dimension   151 with    21 vectors.
 FullF1:  Do perturbations    1 to     3.
 Isotropic polarizability for W=    0.000000       52.62 Bohr**3.
 End of Minotr F.D. properties file   721 does not exist.
 End of Minotr F.D. properties file   722 does not exist.
 End of Minotr F.D. properties file   788 does not exist.
 Leave Link 1002 at Fri Mar  1 09:34:41 2019, MaxMem=    33554432 cpu:       524.0
 (Enter /home/proyectos/fulerenos/M3C-v2.0/M3C-deps_CCC/g09-AM64L-G09RevC.01/l601.exe)
 Copying SCF densities to generalized density rwf, IOpCl= 1 IROHF=0.

 **********************************************************************

            Population analysis using the SCF density.

 **********************************************************************

 Orbital symmetries:
 Alpha Orbitals:
       Occupied  (A) (A) (A) (A) (A) (A) (A) (A) (A) (A) (A) (A)
                 (A) (A) (A) (A) (A)
       Virtual   (A) (A) (A) (A) (A) (A) (A) (A) (A) (A) (A) (A)
                 (A) (A) (A) (A) (A) (A) (A) (A) (A) (A) (A) (A)
                 (A) (A) (A) (A) (A) (A) (A) (A) (A) (A) (A) (A)
                 (A) (A) (A) (A) (A) (A) (A) (A) (A) (A) (A) (A)
                 (A) (A) (A) (A) (A) (A) (A) (A) (A) (A) (A) (A)
                 (A) (A) (A) (A) (A) (A) (A) (A) (A) (A) (A) (A)
                 (A) (A) (A) (A) (A) (A) (A) (A) (A) (A) (A) (A)
                 (A) (A) (A) (A) (A) (A) (A) (A) (A) (A) (A) (A)
                 (A) (A) (A) (A) (A) (A) (A) (A) (A) (A) (A) (A)
                 (A) (A) (A) (A) (A) (A) (A) (A) (A) (A) (A) (A)
                 (A) (A) (A) (A) (A) (A) (A) (A) (A) (A) (A) (A)
                 (A) (A) (A) (A) (A) (A) (A) (A) (A) (A) (A) (A)
                 (A) (A) (A) (A) (A) (A) (A) (A) (A) (A) (A) (A)
                 (A) (A) (A) (A) (A) (A) (A) (A) (A) (A) (A) (A)
                 (A) (A) (A) (A) (A) (A) (A) (A) (A) (A) (A) (A)
                 (A) (A) (A) (A) (A) (A) (A) (A)
 Beta  Orbitals:
       Occupied  (A) (A) (A) (A) (A) (A) (A) (A) (A) (A) (A) (A)
                 (A) (A) (A) (A)
       Virtual   (A) (A) (A) (A) (A) (A) (A) (A) (A) (A) (A) (A)
                 (A) (A) (A) (A) (A) (A) (A) (A) (A) (A) (A) (A)
                 (A) (A) (A) (A) (A) (A) (A) (A) (A) (A) (A) (A)
                 (A) (A) (A) (A) (A) (A) (A) (A) (A) (A) (A) (A)
                 (A) (A) (A) (A) (A) (A) (A) (A) (A) (A) (A) (A)
                 (A) (A) (A) (A) (A) (A) (A) (A) (A) (A) (A) (A)
                 (A) (A) (A) (A) (A) (A) (A) (A) (A) (A) (A) (A)
                 (A) (A) (A) (A) (A) (A) (A) (A) (A) (A) (A) (A)
                 (A) (A) (A) (A) (A) (A) (A) (A) (A) (A) (A) (A)
                 (A) (A) (A) (A) (A) (A) (A) (A) (A) (A) (A) (A)
                 (A) (A) (A) (A) (A) (A) (A) (A) (A) (A) (A) (A)
                 (A) (A) (A) (A) (A) (A) (A) (A) (A) (A) (A) (A)
                 (A) (A) (A) (A) (A) (A) (A) (A) (A) (A) (A) (A)
                 (A) (A) (A) (A) (A) (A) (A) (A) (A) (A) (A) (A)
                 (A) (A) (A) (A) (A) (A) (A) (A) (A) (A) (A) (A)
                 (A) (A) (A) (A) (A) (A) (A) (A) (A)
 The electronic state is 2-A.
 Alpha  occ. eigenvalues --  -19.23520 -10.30828 -10.29615 -10.27450 -10.24133
 Alpha  occ. eigenvalues --   -1.16241  -0.86570  -0.74264  -0.66397  -0.56921
 Alpha  occ. eigenvalues --   -0.51256  -0.49778  -0.41017  -0.37061  -0.35204
 Alpha  occ. eigenvalues --   -0.31653  -0.25818
 Alpha virt. eigenvalues --   -0.15581  -0.09917  -0.01334  -0.00437   0.02121
 Alpha virt. eigenvalues --    0.03336   0.04582   0.04685   0.06849   0.07288
 Alpha virt. eigenvalues --    0.08389   0.08712   0.10162   0.10728   0.10928
 Alpha virt. eigenvalues --    0.11560   0.13112   0.13306   0.14531   0.17300
 Alpha virt. eigenvalues --    0.18104   0.21353   0.22297   0.22572   0.24522
 Alpha virt. eigenvalues --    0.26372   0.29367   0.30232   0.30867   0.34932
 Alpha virt. eigenvalues --    0.37100   0.37490   0.38571   0.41642   0.42300
 Alpha virt. eigenvalues --    0.42822   0.43994   0.45665   0.45906   0.48226
 Alpha virt. eigenvalues --    0.48336   0.49150   0.50560   0.51222   0.53195
 Alpha virt. eigenvalues --    0.54019   0.56484   0.58019   0.58738   0.60833
 Alpha virt. eigenvalues --    0.64964   0.68887   0.71301   0.72221   0.73102
 Alpha virt. eigenvalues --    0.76376   0.78483   0.80071   0.83943   0.88308
 Alpha virt. eigenvalues --    0.95856   0.96408   0.98958   1.00023   1.05620
 Alpha virt. eigenvalues --    1.06912   1.07096   1.09316   1.16257   1.18703
 Alpha virt. eigenvalues --    1.20678   1.23979   1.28906   1.33383   1.33936
 Alpha virt. eigenvalues --    1.36628   1.40575   1.41114   1.43875   1.49361
 Alpha virt. eigenvalues --    1.52304   1.55840   1.60351   1.62982   1.66941
 Alpha virt. eigenvalues --    1.68557   1.71399   1.72186   1.78113   1.87669
 Alpha virt. eigenvalues --    1.94110   2.00203   2.08417   2.13096   2.17299
 Alpha virt. eigenvalues --    2.21451   2.24253   2.48822   2.53181   2.55677
 Alpha virt. eigenvalues --    2.60616   2.66504   2.66790   2.68931   2.71440
 Alpha virt. eigenvalues --    2.75766   2.77001   2.81436   2.82976   2.84943
 Alpha virt. eigenvalues --    2.85579   2.87679   2.89419   2.93458   2.95386
 Alpha virt. eigenvalues --    2.98031   2.99749   3.09664   3.15267   3.19164
 Alpha virt. eigenvalues --    3.20707   3.21805   3.29353   3.31339   3.36591
 Alpha virt. eigenvalues --    3.41897   3.43158   3.49380   3.56449   3.60186
 Alpha virt. eigenvalues --    3.67377   3.78949   3.83371   3.85944   3.92496
 Alpha virt. eigenvalues --    3.98436   4.08329   4.12912   4.23808   4.24964
 Alpha virt. eigenvalues --    4.44385   4.51366   4.67332   4.74996   4.81142
 Alpha virt. eigenvalues --    5.05165   5.08667   5.20005   5.20065   5.38054
 Alpha virt. eigenvalues --    5.39475   5.44225   5.47594   5.67575   5.92904
 Alpha virt. eigenvalues --    5.95565   6.22787   6.85168   6.91211   6.94923
 Alpha virt. eigenvalues --    7.00414   7.04127   7.07088   7.11242   7.11587
 Alpha virt. eigenvalues --    7.13812   7.15927   7.25250   7.25782   7.41350
 Alpha virt. eigenvalues --    7.43169   7.59024   7.63624   7.74677   7.97885
 Alpha virt. eigenvalues --    8.07730   8.20756   8.39068  14.23493  14.38508
 Alpha virt. eigenvalues --   14.40810  14.62179  14.95765  23.92797  24.65610
 Alpha virt. eigenvalues --   25.50857  25.86042  50.18959
  Beta  occ. eigenvalues --  -19.22238 -10.30472 -10.29376 -10.27002 -10.24252
  Beta  occ. eigenvalues --   -1.14166  -0.86297  -0.72010  -0.65611  -0.56531
  Beta  occ. eigenvalues --   -0.49019  -0.46282  -0.39948  -0.35031  -0.34686
  Beta  occ. eigenvalues --   -0.30816
  Beta virt. eigenvalues --   -0.15275  -0.14934  -0.07015  -0.01285   0.00055
  Beta virt. eigenvalues --    0.03331   0.03477   0.04807   0.04857   0.06907
  Beta virt. eigenvalues --    0.07479   0.08427   0.08962   0.10188   0.11041
  Beta virt. eigenvalues --    0.11321   0.11587   0.13446   0.13521   0.14724
  Beta virt. eigenvalues --    0.17363   0.18141   0.21391   0.22785   0.23351
  Beta virt. eigenvalues --    0.24813   0.26384   0.29482   0.30582   0.31186
  Beta virt. eigenvalues --    0.35169   0.37629   0.37759   0.38790   0.41832
  Beta virt. eigenvalues --    0.42705   0.43210   0.44439   0.45783   0.46174
  Beta virt. eigenvalues --    0.48490   0.48720   0.49390   0.50641   0.52128
  Beta virt. eigenvalues --    0.54073   0.54149   0.56634   0.58682   0.58803
  Beta virt. eigenvalues --    0.61742   0.65153   0.69333   0.71505   0.72472
  Beta virt. eigenvalues --    0.73300   0.76444   0.78810   0.80216   0.84599
  Beta virt. eigenvalues --    0.88469   0.96435   0.98256   0.99269   1.00805
  Beta virt. eigenvalues --    1.06076   1.07324   1.07409   1.09797   1.16452
  Beta virt. eigenvalues --    1.20485   1.20907   1.24381   1.29211   1.33793
  Beta virt. eigenvalues --    1.34358   1.37378   1.41028   1.41763   1.44808
  Beta virt. eigenvalues --    1.49834   1.53598   1.56274   1.61099   1.63710
  Beta virt. eigenvalues --    1.68581   1.69366   1.71855   1.73312   1.78772
  Beta virt. eigenvalues --    1.88404   1.94760   2.01250   2.08933   2.13247
  Beta virt. eigenvalues --    2.18055   2.22026   2.24509   2.49220   2.53475
  Beta virt. eigenvalues --    2.56505   2.62711   2.66590   2.67456   2.69376
  Beta virt. eigenvalues --    2.72344   2.77457   2.77832   2.82080   2.83578
  Beta virt. eigenvalues --    2.86260   2.86311   2.88632   2.90051   2.94738
  Beta virt. eigenvalues --    2.97153   2.99067   3.00516   3.09996   3.16123
  Beta virt. eigenvalues --    3.19628   3.21544   3.22261   3.29760   3.32300
  Beta virt. eigenvalues --    3.38124   3.42769   3.44503   3.52272   3.56967
  Beta virt. eigenvalues --    3.60371   3.68203   3.80123   3.85737   3.87417
  Beta virt. eigenvalues --    3.92778   3.98924   4.09399   4.13279   4.24227
  Beta virt. eigenvalues --    4.25235   4.44486   4.51694   4.68142   4.75214
  Beta virt. eigenvalues --    4.82676   5.09587   5.11100   5.20671   5.22976
  Beta virt. eigenvalues --    5.39051   5.41536   5.45722   5.48637   5.67967
  Beta virt. eigenvalues --    5.93537   5.97821   6.23327   6.85715   6.92348
  Beta virt. eigenvalues --    6.95961   7.02491   7.05290   7.07543   7.13262
  Beta virt. eigenvalues --    7.13393   7.14388   7.16563   7.25433   7.27504
  Beta virt. eigenvalues --    7.42412   7.43839   7.58910   7.64456   7.74928
  Beta virt. eigenvalues --    7.98058   8.07811   8.21239   8.39341  14.28479
  Beta virt. eigenvalues --   14.43429  14.45664  14.63526  14.97254  23.93021
  Beta virt. eigenvalues --   24.65976  25.51345  25.86090  50.20231
          Condensed to atoms (all electrons):
               1          2          3          4          5          6
     1  C    7.515951  -0.150860  -1.915817  -0.226240  -0.100655  -0.006034
     2  C   -0.150860   7.501486  -0.608973  -1.444984   0.439133  -0.076219
     3  C   -1.915817  -0.608973   9.166444  -0.148373   0.053149   0.032069
     4  C   -0.226240  -1.444984  -0.148373   8.253210  -0.073321   0.014365
     5  H   -0.100655   0.439133   0.053149  -0.073321   0.512368  -0.000561
     6  O   -0.006034  -0.076219   0.032069   0.014365  -0.000561   8.477185
          Atomic-Atomic Spin Densities.
               1          2          3          4          5          6
     1  C    0.263722   0.046554   0.067404   0.001861  -0.003254  -0.125733
     2  C    0.046554  -0.078965  -0.036048  -0.013899   0.003724  -0.002180
     3  C    0.067404  -0.036048   0.352225  -0.018505  -0.000290  -0.085103
     4  C    0.001861  -0.013899  -0.018505   0.182326  -0.001408   0.003308
     5  H   -0.003254   0.003724  -0.000290  -0.001408   0.001378  -0.000180
     6  O   -0.125733  -0.002180  -0.085103   0.003308  -0.000180   0.606813
 Mulliken charges and spin densities:
               1          2
     1  C    0.883655   0.250553
     2  C    0.340417  -0.080814
     3  C   -0.578498   0.279683
     4  C   -0.374657   0.153683
     5  H    0.169887  -0.000030
     6  O   -0.440804   0.396925
 Sum of Mulliken charges =  -0.00000   1.00000
 Mulliken charges and spin densities with hydrogens summed into heavy atoms:
               1          2
     1  C    0.883655   0.250553
     2  C    0.510305  -0.080844
     3  C   -0.578498   0.279683
     4  C   -0.374657   0.153683
     6  O   -0.440804   0.396925
 APT charges:
               1
     1  C    0.218918
     2  C   -0.189729
     3  C    0.066196
     4  C    0.003627
     5  H    0.154029
     6  O   -0.253042
 Sum of APT charges =  -0.00000
 APT charges with hydrogens summed into heavy atoms:
               1
     1  C    0.218918
     2  C   -0.035700
     3  C    0.066196
     4  C    0.003627
     6  O   -0.253042
 Electronic spatial extent (au):  <R**2>=            331.4854
 Charge=             -0.0000 electrons
 Dipole moment (field-independent basis, Debye):
    X=             -1.9585    Y=              1.5871    Z=              0.0034  Tot=              2.5208
 Quadrupole moment (field-independent basis, Debye-Ang):
   XX=            -36.2979   YY=            -28.3232   ZZ=            -28.8393
   XY=             -5.3062   XZ=             -0.0027   YZ=              0.0049
 Traceless Quadrupole moment (field-independent basis, Debye-Ang):
   XX=             -5.1444   YY=              2.8303   ZZ=              2.3142
   XY=             -5.3062   XZ=             -0.0027   YZ=              0.0049
 Octapole moment (field-independent basis, Debye-Ang**2):
  XXX=              3.6248  YYY=             -0.2688  ZZZ=              0.0092  XYY=             -3.0804
  XXY=              3.9866  XXZ=              0.0250  XZZ=              3.5889  YZZ=             -1.5606
  YYZ=              0.0085  XYZ=              0.0018
 Hexadecapole moment (field-independent basis, Debye-Ang**3):
 XXXX=           -436.6763 YYYY=            -88.9811 ZZZZ=            -32.3826 XXXY=            -51.0986
 XXXZ=             -0.0172 YYYX=            -22.1666 YYYZ=              0.0100 ZZZX=             -0.0001
 ZZZY=              0.0022 XXYY=            -85.2682 XXZZ=            -70.7577 YYZZ=            -21.3976
 XXYZ=              0.0088 YYXZ=             -0.0061 ZZXY=             -5.0050
 N-N= 1.232539258726D+02 E-N=-7.781880374429D+02  KE= 2.271011999311D+02
  Exact polarizability:  78.736   8.181  45.479  -0.004   0.001  33.636
 Approx polarizability: 124.264  15.674  81.391  -0.001   0.003  48.611
                          Isotropic Fermi Contact Couplings
        Atom                 a.u.       MegaHertz       Gauss      10(-4) cm-1
     1  C(13)              0.00686       7.71412       2.75259       2.57315
     2  C(13)             -0.01419     -15.95020      -5.69143      -5.32041
     3  C(13)              0.01779      20.00016       7.13655       6.67133
     4  C(13)              0.00611       6.86495       2.44959       2.28990
     5  H(1)               0.00013       0.57284       0.20440       0.19108
     6  O(17)              0.04576     -27.73653      -9.89708      -9.25191
 --------------------------------------------------------
       Center         ----  Spin Dipole Couplings  ----
                      3XX-RR        3YY-RR        3ZZ-RR
 --------------------------------------------------------
     1   Atom       -0.143951     -0.174029      0.317979
     2   Atom        0.053966      0.029490     -0.083456
     3   Atom       -0.200321     -0.225946      0.426267
     4   Atom       -0.087334     -0.126450      0.213785
     5   Atom        0.007779     -0.001794     -0.005985
     6   Atom       -0.986459     -1.008451      1.994909
 --------------------------------------------------------
                        XY            XZ            YZ
 --------------------------------------------------------
     1   Atom       -0.006929      0.000252      0.000336
     2   Atom        0.004205      0.000009      0.000124
     3   Atom        0.013497      0.000385      0.000410
     4   Atom       -0.002389     -0.000315     -0.000547
     5   Atom       -0.000515     -0.000003      0.000007
     6   Atom        0.030821      0.001723      0.001980
 --------------------------------------------------------


 ---------------------------------------------------------------------------------
              Anisotropic Spin Dipole Couplings in Principal Axis System
 ---------------------------------------------------------------------------------

       Atom             a.u.   MegaHertz   Gauss  10(-4) cm-1        Axes

              Baa    -0.1755   -23.557    -8.406    -7.858  0.2142  0.9768 -0.0008
     1 C(13)  Bbb    -0.1424   -19.113    -6.820    -6.375  0.9768 -0.2142 -0.0004
              Bcc     0.3180    42.670    15.226    14.233  0.0005  0.0007  1.0000
 
              Baa    -0.0835   -11.199    -3.996    -3.736 -0.0000 -0.0011  1.0000
     2 C(13)  Bbb     0.0288     3.863     1.378     1.289 -0.1647  0.9863  0.0011
              Bcc     0.0547     7.336     2.618     2.447  0.9863  0.1647  0.0002
 
              Baa    -0.2317   -31.098   -11.096   -10.373 -0.3947  0.9188 -0.0003
     3 C(13)  Bbb    -0.1945   -26.103    -9.314    -8.707  0.9188  0.3947 -0.0008
              Bcc     0.4263    57.201    20.411    19.080  0.0006  0.0006  1.0000
 
              Baa    -0.1266   -16.988    -6.062    -5.667  0.0607  0.9982  0.0017
     4 C(13)  Bbb    -0.0872   -11.700    -4.175    -3.903  0.9982 -0.0608  0.0009
              Bcc     0.2138    28.688    10.237     9.569 -0.0010 -0.0016  1.0000
 
              Baa    -0.0060    -3.194    -1.140    -1.065  0.0001 -0.0016  1.0000
     5 H(1)   Bbb    -0.0018    -0.972    -0.347    -0.324  0.0536  0.9986  0.0016
              Bcc     0.0078     4.165     1.486     1.389  0.9986 -0.0536 -0.0002
 
              Baa    -1.0302    74.543    26.599    24.865 -0.5762  0.8173 -0.0002
     6 O(17)  Bbb    -0.9647    69.807    24.909    23.285  0.8173  0.5762 -0.0009
              Bcc     1.9949  -144.350   -51.508   -48.150  0.0006  0.0007  1.0000
 

 ---------------------------------------------------------------------------------

 No NMR shielding tensors so no spin-rotation constants.
 Leave Link  601 at Fri Mar  1 09:34:42 2019, MaxMem=    33554432 cpu:         1.9
 (Enter /home/proyectos/fulerenos/M3C-v2.0/M3C-deps_CCC/g09-AM64L-G09RevC.01/l701.exe)
 Compute integral second derivatives.
 ... and contract with generalized density number  0.
 Leave Link  701 at Fri Mar  1 09:34:42 2019, MaxMem=    33554432 cpu:         1.4
 (Enter /home/proyectos/fulerenos/M3C-v2.0/M3C-deps_CCC/g09-AM64L-G09RevC.01/l702.exe)
 L702 exits ... SP integral derivatives will be done elsewhere.
 Leave Link  702 at Fri Mar  1 09:34:42 2019, MaxMem=    33554432 cpu:         0.1
 (Enter /home/proyectos/fulerenos/M3C-v2.0/M3C-deps_CCC/g09-AM64L-G09RevC.01/l703.exe)
 Compute integral second derivatives, UseDBF=F ICtDFT=           0.
 Integral derivatives from FoFJK, PRISM(SPDF).
 Calling FoFJK, ICntrl=    100127 FMM=F ISym2X=0 I1Cent= 0 IOpClX= 1 NMat=1 NMatS=1 NMatT=0.
 FoFJK:  IHMeth= 1 ICntrl=  100127 DoSepK=F KAlg= 0 I1Cent=   0 FoldK=F
 IRaf=         0 NMat=   1 IRICut=       1 DoRegI=T DoRafI=F ISym2E= 0.
 FoFCou: FMM=F IPFlag=           0 FMFlag=      100000 FMFlg1=         800
         NFxFlg=           0 DoJE=F BraDBF=F KetDBF=F FulRan=T
         wScrn=  0.000000 ICntrl=  100127 IOpCl=  1 I1Cent=           0 NGrid=           0
         NMat0=    1 NMatS0=      1 NMatT0=    0 NMatD0=    1 NMtDS0=    0 NMtDT0=    0
 Symmetry not used in FoFCou.
 Leave Link  703 at Fri Mar  1 09:35:50 2019, MaxMem=    33554432 cpu:       270.1
 (Enter /home/proyectos/fulerenos/M3C-v2.0/M3C-deps_CCC/g09-AM64L-G09RevC.01/l716.exe)
 Dipole        =-7.70522300D-01 6.24420505D-01 1.34599112D-03
 Polarizability= 7.87363806D+01 8.18055157D+00 4.54789141D+01
                -4.20761544D-03 6.96686027D-04 3.36355694D+01
 Full mass-weighted force constant matrix:
 Low frequencies ---   -7.0728   -6.1829   -0.9292   -0.0003    0.0007    0.0009
 Low frequencies ---  156.3803  159.7542  285.1178
 Diagonal vibrational polarizability:
        9.0226672      14.9653037      21.1582035
 Harmonic frequencies (cm**-1), IR intensities (KM/Mole), Raman scattering
 activities (A**4/AMU), depolarization ratios for plane and unpolarized
 incident light, reduced masses (AMU), force constants (mDyne/A),
 and normal coordinates:
                      1                      2                      3
                      A                      A                      A
 Frequencies --    156.3803               159.7540               285.1176
 Red. masses --     11.2859                 5.6899                10.4141
 Frc consts  --      0.1626                 0.0856                 0.4988
 IR Inten    --     17.0536                18.7137                 9.8877
  Atom  AN      X      Y      Z        X      Y      Z        X      Y      Z
     1   6    -0.08   0.20  -0.00     0.00  -0.00  -0.14     0.18  -0.32  -0.00
     2   6    -0.07   0.38  -0.00     0.00  -0.00  -0.31     0.13   0.03  -0.00
     3   6     0.05  -0.19   0.01     0.00   0.00   0.37    -0.15   0.64   0.00
     4   6     0.60  -0.40   0.01    -0.00   0.00   0.36     0.16   0.06   0.00
     5   1    -0.07   0.33  -0.01     0.00  -0.00  -0.76     0.44   0.13  -0.00
     6   8    -0.37  -0.01  -0.00     0.00   0.00  -0.16    -0.27  -0.32   0.00
                      4                      5                      6
                      A                      A                      A
 Frequencies --    403.8693               432.3860               679.8877
 Red. masses --      3.1492                 6.1140                 1.8373
 Frc consts  --      0.3026                 0.6735                 0.5004
 IR Inten    --      0.0064                 1.4141                24.4716
  Atom  AN      X      Y      Z        X      Y      Z        X      Y      Z
     1   6    -0.00  -0.00   0.40    -0.19  -0.27  -0.00     0.00  -0.00   0.13
     2   6    -0.00   0.00  -0.07    -0.10   0.30   0.00    -0.00   0.00  -0.23
     3   6    -0.00   0.00  -0.11    -0.31  -0.06   0.00    -0.00   0.00  -0.04
     4   6     0.00   0.00  -0.01     0.13   0.02  -0.00    -0.00  -0.00   0.06
     5   1     0.00   0.00  -0.90     0.55   0.52   0.00    -0.00  -0.00   0.96
     6   8     0.00  -0.00  -0.10     0.32  -0.02   0.00     0.00  -0.00  -0.00
                      7                      8                      9
                      A                      A                      A
 Frequencies --    857.3019               967.6141              1239.5722
 Red. masses --      9.8481                 1.3074                 6.7702
 Frc consts  --      4.2645                 0.7212                 6.1291
 IR Inten    --      7.6614                 6.1086                16.2007
  Atom  AN      X      Y      Z        X      Y      Z        X      Y      Z
     1   6    -0.20   0.02  -0.00    -0.00  -0.02   0.00     0.01   0.53  -0.00
     2   6     0.52  -0.29  -0.00     0.02  -0.05  -0.00     0.06  -0.04   0.00
     3   6    -0.44  -0.16   0.00     0.04  -0.01  -0.00    -0.22   0.02   0.00
     4   6     0.28   0.23   0.00    -0.06  -0.06  -0.00    -0.08  -0.07  -0.00
     5   1     0.02  -0.46   0.00     0.95   0.28   0.00     0.69   0.20  -0.00
     6   8    -0.12   0.18   0.00    -0.06   0.09  -0.00     0.13  -0.34   0.00
                     10                     11                     12
                      A                      A                      A
 Frequencies --   1624.1735              1728.8318              3048.0132
 Red. masses --      9.2921                11.2269                 1.0812
 Frc consts  --     14.4420                19.7703                 5.9181
 IR Inten    --     74.1000                14.4720                40.7931
  Atom  AN      X      Y      Z        X      Y      Z        X      Y      Z
     1   6     0.40  -0.07  -0.00     0.64   0.03  -0.00    -0.00  -0.00   0.00
     2   6     0.36   0.34   0.00    -0.48  -0.20  -0.00     0.03  -0.08  -0.00
     3   6    -0.28  -0.11   0.00    -0.34  -0.17   0.00     0.00   0.00  -0.00
     4   6    -0.36  -0.31  -0.00     0.22   0.19   0.00     0.00  -0.00   0.00
     5   1    -0.50   0.06   0.00     0.27   0.06  -0.00    -0.33   0.94   0.00
     6   8    -0.06   0.11  -0.00    -0.04   0.11  -0.00    -0.00   0.00  -0.00

 -------------------
 - Thermochemistry -
 -------------------
 Temperature   298.150 Kelvin.  Pressure   1.00000 Atm.
 Atom     1 has atomic number  6 and mass  12.00000
 Atom     2 has atomic number  6 and mass  12.00000
 Atom     3 has atomic number  6 and mass  12.00000
 Atom     4 has atomic number  6 and mass  12.00000
 Atom     5 has atomic number  1 and mass   1.00783
 Atom     6 has atomic number  8 and mass  15.99491
 Molecular mass:    65.00274 amu.
 Principal axes and moments of inertia in atomic units:
                           1         2         3
     Eigenvalues --    84.60331 423.84762 508.45073
           X            0.99974  -0.02291  -0.00002
           Y            0.02291   0.99974   0.00011
           Z            0.00002  -0.00011   1.00000
 This molecule is an asymmetric top.
 Rotational symmetry number  1.
 Rotational temperatures (Kelvin)      1.02376     0.20435     0.17035
 Rotational constants (GHZ):          21.33180     4.25800     3.54949
 Zero-point vibrational energy      69281.1 (Joules/Mol)
                                   16.55859 (Kcal/Mol)
 Warning -- explicit consideration of   5 degrees of freedom as
           vibrations may cause significant error
 Vibrational temperatures:    225.00   229.85   410.22   581.08   622.11
          (Kelvin)            978.21  1233.46  1392.18  1783.47  2336.82
                             2487.40  4385.41
 
 Zero-point correction=                           0.026388 (Hartree/Particle)
 Thermal correction to Energy=                    0.031748
 Thermal correction to Enthalpy=                  0.032692
 Thermal correction to Gibbs Free Energy=        -0.002146
 Sum of electronic and zero-point Energies=           -227.968608
 Sum of electronic and thermal Energies=              -227.963248
 Sum of electronic and thermal Enthalpies=            -227.962304
 Sum of electronic and thermal Free Energies=         -227.997142
 
                     E (Thermal)             CV                S
                      KCal/Mol        Cal/Mol-Kelvin    Cal/Mol-Kelvin
 Total                   19.922             16.416             73.324
 Electronic               0.000              0.000              1.377
 Translational            0.889              2.981             38.434
 Rotational               0.889              2.981             24.415
 Vibrational             18.145             10.455              9.097
 Vibration     1          0.620              1.896              2.593
 Vibration     2          0.622              1.892              2.553
 Vibration     3          0.683              1.701              1.503
 Vibration     4          0.769              1.462              0.949
 Vibration     5          0.793              1.400              0.851
                       Q            Log10(Q)             Ln(Q)
 Total Bot       0.970585D+01          0.987033          2.272729
 Total V=0       0.133214D+14         13.124549         30.220391
 Vib (Bot)       0.487395D-11        -11.312119        -26.047116
 Vib (Bot)    1  0.129421D+01          0.112003          0.257897
 Vib (Bot)    2  0.126558D+01          0.102288          0.235528
 Vib (Bot)    3  0.672491D+00         -0.172314         -0.396767
 Vib (Bot)    4  0.440068D+00         -0.356480         -0.820825
 Vib (Bot)    5  0.402219D+00         -0.395537         -0.910758
 Vib (V=0)       0.668955D+01          0.825397          1.900547
 Vib (V=0)    1  0.188743D+01          0.275871          0.635217
 Vib (V=0)    2  0.186077D+01          0.269692          0.620988
 Vib (V=0)    3  0.133800D+01          0.126456          0.291176
 Vib (V=0)    4  0.116608D+01          0.066728          0.153646
 Vib (V=0)    5  0.114170D+01          0.057552          0.132519
 Electronic      0.200000D+01          0.301030          0.693147
 Translational   0.205993D+08          7.313853         16.840768
 Rotational      0.483359D+05          4.684269         10.785929
 
                                                              b3lyp opt
                                                             IR Spectrum
 
     3                                                      1    1               1                                                   
     0                                                      7    6               2          9    8      6         4 4    2   11      
     4                                                      2    2               4          6    5      8         3 0    8   65      
     8                                                      9    4               0          8    7      0         2 4    5   06      
 
     X                                                      X    X               X          X    X      X         X      X   XX      
     X                                                      X    X               X          X    X      X                X   XX      
     X                                                      X    X               X                      X                X   XX      
     X                                                      X    X               X                      X                    XX      
     X                                                           X                                      X                    XX      
     X                                                           X                                      X                            
     X                                                           X                                      X                            
     X                                                           X                                                                   
     X                                                           X                                                                   
     X                                                           X                                                                   
     X                                                           X                                                                   
                                                                 X                                                                   
                                                                 X                                                                   
                                                                 X                                                                   
                                                                 X                                                                   
                                                                 X                                                                   
                                                                 X                                                                   
                                                                 X                                                                   
                                                                 X                                                                   
                                                                 X                                                                   
 
 ***** Axes restored to original set *****
 -------------------------------------------------------------------
 Center     Atomic                   Forces (Hartrees/Bohr)
 Number     Number              X              Y              Z
 -------------------------------------------------------------------
      1        6          -0.000003573    0.000116081    0.000023567
      2        6          -0.000004615   -0.000074805   -0.000012456
      3        6          -0.000031188    0.000011138   -0.000057217
      4        6           0.000008621    0.000021121   -0.000008306
      5        1           0.000006177   -0.000014930    0.000018241
      6        8           0.000024578   -0.000058605    0.000036171
 -------------------------------------------------------------------
 Cartesian Forces:  Max     0.000116081 RMS     0.000041309
 Z-matrix is all fixed cartesians, so copy forces.
 Force constants in Cartesian coordinates: 
                1             2             3             4             5 
      1  0.438053D+00
      2 -0.145518D+00  0.440776D+00
      3  0.361066D+00 -0.104277D+00  0.428576D+00
      4 -0.147219D+00  0.611986D-01 -0.941589D-01  0.321016D+00
      5  0.207417D-01 -0.915065D-01  0.161431D-01 -0.141408D+00  0.704933D+00
      6 -0.990004D-01  0.576992D-01 -0.143389D+00  0.233337D+00 -0.703050D-01
      7 -0.162471D+00  0.174645D+00 -0.124430D+00 -0.476066D-02  0.144323D-01
      8  0.235411D+00 -0.178189D+00  0.222811D+00 -0.132434D-01  0.145022D-01
      9 -0.116929D+00  0.160293D+00 -0.121302D+00 -0.176760D-01  0.153264D-01
     10 -0.143105D-01  0.122938D-01 -0.214449D-01 -0.750416D-01  0.177580D+00
     11  0.359469D-01 -0.225158D-01  0.332734D-01  0.172083D+00 -0.436767D+00
     12 -0.185998D-01  0.898126D-02 -0.100606D-01 -0.354012D-01  0.132910D+00
     13 -0.500146D-02 -0.185367D-01 -0.136486D-01 -0.739108D-01 -0.696865D-01
     14  0.266441D-02  0.155740D-01  0.388435D-02 -0.906340D-01 -0.195858D+00
     15 -0.111190D-01 -0.179016D-01 -0.750384D-02 -0.624697D-01 -0.923545D-01
     16 -0.109051D+00 -0.840824D-01 -0.107383D+00 -0.200835D-01 -0.165937D-02
     17 -0.149246D+00 -0.164139D+00 -0.171835D+00  0.120042D-01  0.469585D-02
     18 -0.115418D+00 -0.104795D+00 -0.146321D+00 -0.236310D-01 -0.172050D-02
                6             7             8             9            10 
      6  0.309265D+00
      7 -0.142827D-01  0.165256D+00
      8 -0.131730D-01 -0.179263D+00  0.256527D+00
      9 -0.550530D-02  0.138944D+00 -0.154002D+00  0.132815D+00
     10 -0.347312D-01  0.207818D-02  0.319955D-02  0.171543D-02  0.821431D-01
     11  0.127251D+00 -0.720382D-02 -0.539529D-02 -0.817917D-02 -0.184515D+00
     12 -0.411526D-01  0.455930D-03  0.253175D-02  0.157397D-02  0.545499D-01
     13 -0.599767D-01 -0.851142D-03  0.519020D-03  0.137069D-02  0.249308D-02
     14 -0.113875D+00 -0.211585D-03 -0.213659D-03  0.156840D-04 -0.547346D-02
     15 -0.990413D-01  0.128900D-02  0.773586D-03 -0.707269D-03 -0.411653D-02
     16 -0.253458D-01  0.748370D-03 -0.466235D-01 -0.742492D-02  0.263779D-02
     17  0.124024D-01 -0.239888D-02 -0.872310D-01 -0.134544D-01 -0.308521D-02
     18 -0.201766D-01 -0.197586D-02 -0.589423D-01 -0.687482D-02  0.402728D-02
               11            12            13            14            15 
     11  0.464106D+00
     12 -0.135200D+00  0.475897D-01
     13 -0.600387D-02 -0.417386D-02  0.773056D-01
     14 -0.914303D-02 -0.742892D-02  0.911521D-01  0.191517D+00
     15 -0.795829D-02  0.664586D-03  0.794904D-01  0.115449D+00  0.106258D+00
     16 -0.103072D-01  0.316898D-02 -0.352104D-04  0.250252D-02 -0.307413D-02
     17  0.971469D-02 -0.179489D-02  0.255601D-02 -0.187654D-02  0.199223D-02
     18 -0.918766D-02  0.138499D-02 -0.306195D-02  0.195523D-02  0.330302D-03
               16            17            18 
     16  0.125783D+00
     17  0.140170D+00  0.238836D+00
     18  0.140059D+00  0.172690D+00  0.171657D+00
 Leave Link  716 at Fri Mar  1 09:35:50 2019, MaxMem=    33554432 cpu:         0.1
 (Enter /home/proyectos/fulerenos/M3C-v2.0/M3C-deps_CCC/g09-AM64L-G09RevC.01/l103.exe)

 GradGradGradGradGradGradGradGradGradGradGradGradGradGradGradGradGradGrad
 Berny optimization.
 Search for a local minimum.
 Step number   1 out of a maximum of    2
 All quantities printed in internal units (Hartrees-Bohrs-Radians)
 Second derivative matrix not updated -- analytic derivatives used.
 The second derivative matrix:
                          X1        Y1        Z1        X2        Y2
           X1           0.43805
           Y1          -0.14552   0.44078
           Z1           0.36107  -0.10428   0.42858
           X2          -0.14722   0.06120  -0.09416   0.32102
           Y2           0.02074  -0.09151   0.01614  -0.14141   0.70493
           Z2          -0.09900   0.05770  -0.14339   0.23334  -0.07030
           X3          -0.16247   0.17464  -0.12443  -0.00476   0.01443
           Y3           0.23541  -0.17819   0.22281  -0.01324   0.01450
           Z3          -0.11693   0.16029  -0.12130  -0.01768   0.01533
           X4          -0.01431   0.01229  -0.02144  -0.07504   0.17758
           Y4           0.03595  -0.02252   0.03327   0.17208  -0.43677
           Z4          -0.01860   0.00898  -0.01006  -0.03540   0.13291
           X5          -0.00500  -0.01854  -0.01365  -0.07391  -0.06969
           Y5           0.00266   0.01557   0.00388  -0.09063  -0.19586
           Z5          -0.01112  -0.01790  -0.00750  -0.06247  -0.09235
           X6          -0.10905  -0.08408  -0.10738  -0.02008  -0.00166
           Y6          -0.14925  -0.16414  -0.17184   0.01200   0.00470
           Z6          -0.11542  -0.10479  -0.14632  -0.02363  -0.00172
                          Z2        X3        Y3        Z3        X4
           Z2           0.30927
           X3          -0.01428   0.16526
           Y3          -0.01317  -0.17926   0.25653
           Z3          -0.00551   0.13894  -0.15400   0.13282
           X4          -0.03473   0.00208   0.00320   0.00172   0.08214
           Y4           0.12725  -0.00720  -0.00540  -0.00818  -0.18451
           Z4          -0.04115   0.00046   0.00253   0.00157   0.05455
           X5          -0.05998  -0.00085   0.00052   0.00137   0.00249
           Y5          -0.11387  -0.00021  -0.00021   0.00002  -0.00547
           Z5          -0.09904   0.00129   0.00077  -0.00071  -0.00412
           X6          -0.02535   0.00075  -0.04662  -0.00742   0.00264
           Y6           0.01240  -0.00240  -0.08723  -0.01345  -0.00309
           Z6          -0.02018  -0.00198  -0.05894  -0.00687   0.00403
                          Y4        Z4        X5        Y5        Z5
           Y4           0.46411
           Z4          -0.13520   0.04759
           X5          -0.00600  -0.00417   0.07731
           Y5          -0.00914  -0.00743   0.09115   0.19152
           Z5          -0.00796   0.00066   0.07949   0.11545   0.10626
           X6          -0.01031   0.00317  -0.00004   0.00250  -0.00307
           Y6           0.00971  -0.00179   0.00256  -0.00188   0.00199
           Z6          -0.00919   0.00138  -0.00306   0.00196   0.00033
                          X6        Y6        Z6
           X6           0.12578
           Y6           0.14017   0.23884
           Z6           0.14006   0.17269   0.17166
 ITU=  0
     Eigenvalues ---    0.00697   0.01048   0.02415   0.03505   0.05237
     Eigenvalues ---    0.12124   0.13342   0.26894   0.66393   0.75968
     Eigenvalues ---    1.21954   1.36395
 Angle between quadratic step and forces=  58.23 degrees.
 Linear search not attempted -- first point.
 B after Tr=    -0.000062    0.000072   -0.000127
         Rot=    1.000000    0.000114   -0.000081    0.000050 Ang=   0.02 deg.
 Variable       Old X    -DE/DX   Delta X   Delta X   Delta X     New X
                                 (Linear)    (Quad)   (Total)
    X1       -0.15856  -0.00000   0.00000  -0.00007  -0.00010  -0.15866
    Y1        0.43476   0.00012   0.00000   0.00144   0.00151   0.43627
    Z1       -0.10676   0.00002   0.00000   0.00055   0.00035  -0.10640
    X2        1.68455  -0.00000   0.00000  -0.00050  -0.00032   1.68424
    Y2       -0.26744  -0.00007   0.00000   0.00008   0.00037  -0.26707
    Z2        1.70420  -0.00001   0.00000   0.00046   0.00012   1.70432
    X3       -1.61117  -0.00003   0.00000   0.00029   0.00021  -1.61096
    Y3        2.09621   0.00001   0.00000  -0.00034  -0.00042   2.09578
    Z3       -1.39700  -0.00006   0.00000  -0.00238  -0.00273  -1.39973
    X4        2.54499   0.00001   0.00000   0.00055   0.00061   2.54561
    Y4       -2.50591   0.00002   0.00000  -0.00008   0.00027  -2.50564
    Z4        2.32150  -0.00001   0.00000  -0.00177  -0.00174   2.31977
    X5        2.60610   0.00001   0.00000  -0.00040   0.00012   2.60622
    Y5        1.20875  -0.00001   0.00000  -0.00163  -0.00118   1.20757
    Z5        2.82911   0.00002   0.00000   0.00274   0.00191   2.83102
    X6       -1.57919   0.00002   0.00000  -0.00009  -0.00052  -1.57971
    Y6       -0.85941  -0.00006   0.00000  -0.00038  -0.00054  -0.85995
    Z6       -1.72698   0.00004   0.00000   0.00175   0.00208  -1.72491
         Item               Value     Threshold  Converged?
 Maximum Force            0.000116     0.000450     YES
 RMS     Force            0.000041     0.000300     YES
 Maximum Displacement     0.002727     0.001800     NO 
 RMS     Displacement     0.001148     0.001200     YES
 Predicted change in Energy=-2.393385D-07
 GradGradGradGradGradGradGradGradGradGradGradGradGradGradGradGradGradGrad

 Leave Link  103 at Fri Mar  1 09:35:50 2019, MaxMem=    33554432 cpu:         0.1
 (Enter /home/proyectos/fulerenos/M3C-v2.0/M3C-deps_CCC/g09-AM64L-G09RevC.01/l9999.exe)

 Test job not archived.
 1\1\GINC-BOHRIO\Freq\UB3LYP\6-311++G(3df,2p)\C4H1O1(2)\ROOT\01-Mar-201
 9\0\\#p b3lyp/6-311++G(3df,2p) freq IOp(2/17=3) IOp(2/18=3)\\b3lyp opt
 \\0,2\C,-0.083905,0.230066,-0.056493\C,0.891427,-0.141525,0.901826\C,-
 0.852594,1.109264,-0.739262\C,1.346753,-1.326069,1.228487\H,1.379089,0
 .639644,1.4971\O,-0.83567,-0.45478,-0.91388\\Version=EM64L-G09RevE.01\
 State=2-A\HF=-227.9949962\S2=0.75689\S2-1=0.\S2A=0.750033\RMSD=4.127e-
 09\RMSF=4.131e-05\ZeroPoint=0.0263878\Thermal=0.0317483\Dipole=0.64836
 4,0.2738532,0.6987388\DipoleDeriv=0.2484023,0.2426796,-0.0437503,0.092
 0764,0.1237744,0.0709062,-0.0615894,0.225187,0.2845785,-0.0516866,0.22
 04359,-0.0456913,0.3296137,-0.5211748,0.2745388,-0.0331445,0.1627247,0
 .0036756,-0.0613599,-0.21801,0.1840674,0.090431,0.3168564,0.16487,0.22
 18687,-0.1525793,-0.0569075,-0.1710909,-0.240867,-0.0445759,-0.2251556
 ,0.4031297,-0.1648732,-0.0425539,-0.1810797,-0.2211564,0.1318775,0.042
 2777,-0.0480214,0.0274528,0.1924744,0.0292957,-0.0496392,0.0444431,0.1
 377343,-0.0961425,-0.0465163,-0.0020285,-0.3144182,-0.51506,-0.3747375
 ,-0.0349417,-0.0986958,-0.1479245\Polar=51.804856,-13.6165385,56.24138
 76,17.0428315,-11.2665482,49.8046204\PG=C01 [X(C4H1O1)]\NImag=0\\0.438
 05292,-0.14551816,0.44077624,0.36106605,-0.10427691,0.42857618,-0.1472
 1918,0.06119862,-0.09415888,0.32101583,0.02074171,-0.09150647,0.016143
 14,-0.14140804,0.70493311,-0.09900037,0.05769919,-0.14338949,0.2333367
 7,-0.07030499,0.30926533,-0.16247124,0.17464490,-0.12443050,-0.0047606
 6,0.01443229,-0.01428267,0.16525649,0.23541120,-0.17818912,0.22281149,
 -0.01324337,0.01450222,-0.01317296,-0.17926291,0.25652685,-0.11692928,
 0.16029297,-0.12130171,-0.01767602,0.01532645,-0.00550530,0.13894410,-
 0.15400156,0.13281513,-0.01431053,0.01229383,-0.02144491,-0.07504162,0
 .17757994,-0.03473121,0.00207818,0.00319955,0.00171543,0.08214310,0.03
 594694,-0.02251577,0.03327340,0.17208261,-0.43676652,0.12725131,-0.007
 20382,-0.00539529,-0.00817917,-0.18451465,0.46410592,-0.01859976,0.008
 98126,-0.01006063,-0.03540123,0.13291040,-0.04115263,0.00045593,0.0025
 3175,0.00157397,0.05454994,-0.13519959,0.04758972,-0.00500146,-0.01853
 675,-0.01364856,-0.07391083,-0.06968653,-0.05997669,-0.00085114,0.0005
 1902,0.00137069,0.00249308,-0.00600387,-0.00417386,0.07730556,0.002664
 41,0.01557405,0.00388435,-0.09063400,-0.19585819,-0.11387492,-0.000211
 59,-0.00021366,0.00001568,-0.00547346,-0.00914303,-0.00742892,0.091152
 11,0.19151737,-0.01111903,-0.01790161,-0.00750384,-0.06246968,-0.09235
 449,-0.09904134,0.00128900,0.00077359,-0.00070727,-0.00411653,-0.00795
 829,0.00066459,0.07949037,0.11544858,0.10625757,-0.10905051,-0.0840824
 4,-0.10738321,-0.02008355,-0.00165937,-0.02534583,0.00074837,-0.046623
 48,-0.00742492,0.00263779,-0.01030721,0.00316898,-0.00003521,0.0025025
 2,-0.00307413,0.12578311,-0.14924610,-0.16413893,-0.17183547,0.0120041
 9,0.00469585,0.01240238,-0.00239888,-0.08723101,-0.01345437,-0.0030852
 1,0.00971469,-0.00179489,0.00255601,-0.00187654,0.00199223,0.14016998,
 0.23883594,-0.11541760,-0.10479490,-0.14632051,-0.02363097,-0.00172050
 ,-0.02017657,-0.00197586,-0.05894230,-0.00687482,0.00402728,-0.0091876
 6,0.00138499,-0.00306195,0.00195523,0.00033030,0.14005911,0.17269013,0
 .17165661\\0.00000357,-0.00011608,-0.00002357,0.00000462,0.00007480,0.
 00001246,0.00003119,-0.00001114,0.00005722,-0.00000862,-0.00002112,0.0
 0000831,-0.00000618,0.00001493,-0.00001824,-0.00002458,0.00005861,-0.0
 0003617\\\@


 The best way to pay for a lovely moment is to enjoy it.
 -- Richard Bach
 Job cpu time:       0 days  0 hours 27 minutes  0.3 seconds.
 File lengths (MBytes):  RWF=     51 Int=      0 D2E=      0 Chk=      4 Scr=      1
 Normal termination of Gaussian 09 at Fri Mar  1 09:35:50 2019.
