 Entering Gaussian System, Link 0=/home/proyectos/fulerenos/M3C-v2.0/M3C-deps_CCC/g09-AM64L-G09RevC.01/g09
 Initial command:
 /home/proyectos/fulerenos/M3C-v2.0/M3C-deps_CCC/g09-AM64L-G09RevC.01/l1.exe "/scratch/naguirre/gaussian/Gau-29550.inp" -scrdir="/scratch/naguirre/gaussian/"
 Entering Link 1 = /home/proyectos/fulerenos/M3C-v2.0/M3C-deps_CCC/g09-AM64L-G09RevC.01/l1.exe PID=     29558.
  
 Copyright (c) 1988,1990,1992,1993,1995,1998,2003,2009,2015,
            Gaussian, Inc.  All Rights Reserved.
  
 This is part of the Gaussian(R) 09 program.  It is based on
 the Gaussian(R) 03 system (copyright 2003, Gaussian, Inc.),
 the Gaussian(R) 98 system (copyright 1998, Gaussian, Inc.),
 the Gaussian(R) 94 system (copyright 1995, Gaussian, Inc.),
 the Gaussian 92(TM) system (copyright 1992, Gaussian, Inc.),
 the Gaussian 90(TM) system (copyright 1990, Gaussian, Inc.),
 the Gaussian 88(TM) system (copyright 1988, Gaussian, Inc.),
 the Gaussian 86(TM) system (copyright 1986, Carnegie Mellon
 University), and the Gaussian 82(TM) system (copyright 1983,
 Carnegie Mellon University). Gaussian is a federally registered
 trademark of Gaussian, Inc.
  
 This software contains proprietary and confidential information,
 including trade secrets, belonging to Gaussian, Inc.
  
 This software is provided under written license and may be
 used, copied, transmitted, or stored only in accord with that
 written license.
  
 The following legend is applicable only to US Government
 contracts under FAR:
  
                    RESTRICTED RIGHTS LEGEND
  
 Use, reproduction and disclosure by the US Government is
 subject to restrictions as set forth in subparagraphs (a)
 and (c) of the Commercial Computer Software - Restricted
 Rights clause in FAR 52.227-19.
  
 Gaussian, Inc.
 340 Quinnipiac St., Bldg. 40, Wallingford CT 06492
  
  
 ---------------------------------------------------------------
 Warning -- This program may not be used in any manner that
 competes with the business of Gaussian, Inc. or will provide
 assistance to any competitor of Gaussian, Inc.  The licensee
 of this program is prohibited from giving any competitor of
 Gaussian, Inc. access to this program.  By using this program,
 the user acknowledges that Gaussian, Inc. is engaged in the
 business of creating and licensing software in the field of
 computational chemistry and represents and warrants to the
 licensee that it is not a competitor of Gaussian, Inc. and that
 it will not use this program in any manner prohibited above.
 ---------------------------------------------------------------
  

 Cite this work as:
 Gaussian 09, Revision E.01,
 M. J. Frisch, G. W. Trucks, H. B. Schlegel, G. E. Scuseria, 
 M. A. Robb, J. R. Cheeseman, G. Scalmani, V. Barone, B. Mennucci, 
 G. A. Petersson, H. Nakatsuji, M. Caricato, X. Li, H. P. Hratchian, 
 A. F. Izmaylov, J. Bloino, G. Zheng, J. L. Sonnenberg, M. Hada, 
 M. Ehara, K. Toyota, R. Fukuda, J. Hasegawa, M. Ishida, T. Nakajima, 
 Y. Honda, O. Kitao, H. Nakai, T. Vreven, J. A. Montgomery, Jr., 
 J. E. Peralta, F. Ogliaro, M. Bearpark, J. J. Heyd, E. Brothers, 
 K. N. Kudin, V. N. Staroverov, T. Keith, R. Kobayashi, J. Normand, 
 K. Raghavachari, A. Rendell, J. C. Burant, S. S. Iyengar, J. Tomasi, 
 M. Cossi, N. Rega, J. M. Millam, M. Klene, J. E. Knox, J. B. Cross, 
 V. Bakken, C. Adamo, J. Jaramillo, R. Gomperts, R. E. Stratmann, 
 O. Yazyev, A. J. Austin, R. Cammi, C. Pomelli, J. W. Ochterski, 
 R. L. Martin, K. Morokuma, V. G. Zakrzewski, G. A. Voth, 
 P. Salvador, J. J. Dannenberg, S. Dapprich, A. D. Daniels, 
 O. Farkas, J. B. Foresman, J. V. Ortiz, J. Cioslowski, 
 and D. J. Fox, Gaussian, Inc., Wallingford CT, 2013.
 
 ******************************************
 Gaussian 09:  EM64L-G09RevE.01 30-Nov-2015
                 3-Aug-2016 
 ******************************************
 %NProcShared=4
 Will use up to    4 processors via shared memory.
 ------------------------------
 #p b3lyp/6-311++G(3df,2p) freq
 ------------------------------
 1/10=4,30=1,38=1/1,3;
 2/12=2,17=6,18=5,40=1/2;
 3/5=4,6=6,7=1216,11=2,16=1,25=1,30=1,71=2,74=-5,140=1/1,2,3;
 4//1;
 5/5=2,38=5,98=1/2;
 8/6=4,10=90,11=11/1;
 11/6=1,8=1,9=11,15=111,16=1/1,2,10;
 10/6=1/2;
 6/7=2,8=2,9=2,10=2,18=1,28=1/1;
 7/8=1,10=1,25=1/1,2,3,16;
 1/10=4,30=1/3;
 99//99;
 Leave Link    1 at Wed Aug  3 20:32:11 2016, MaxMem=           0 cpu:         0.3
 (Enter /home/proyectos/fulerenos/M3C-v2.0/M3C-deps_CCC/g09-AM64L-G09RevC.01/l101.exe)
 ---------
 b3lyp opt
 ---------
 Symbolic Z-matrix:
 Charge =  2 Multiplicity = 1
 S                     1.38543  -0.22195   0.39559 
 S                    -1.35702   0.77033  -0.82626 
 C                     0.23315   0.96104  -0.1523 
 H                     0.75779   1.69459  -0.84901 
 H                    -1.48432  -0.59245  -0.82208 
 H                     0.12006   1.76938   0.64207 
 H                     2.33522   0.68841   0.76271 
 
 NAtoms=      7 NQM=        7 NQMF=       0 NMMI=      0 NMMIF=      0
                NMic=       0 NMicF=      0.
                    Isotopes and Nuclear Properties:
 (Nuclear quadrupole moments (NQMom) in fm**2, nuclear magnetic moments (NMagM)
  in nuclear magnetons)

  Atom         1           2           3           4           5           6           7
 IAtWgt=          32          32          12           1           1           1           1
 AtmWgt=  31.9720718  31.9720718  12.0000000   1.0078250   1.0078250   1.0078250   1.0078250
 NucSpn=           0           0           0           1           1           1           1
 AtZEff=   0.0000000   0.0000000   0.0000000   0.0000000   0.0000000   0.0000000   0.0000000
 NQMom=    0.0000000   0.0000000   0.0000000   0.0000000   0.0000000   0.0000000   0.0000000
 NMagM=    0.0000000   0.0000000   0.0000000   2.7928460   2.7928460   2.7928460   2.7928460
 AtZNuc=  16.0000000  16.0000000   6.0000000   1.0000000   1.0000000   1.0000000   1.0000000
 Leave Link  101 at Wed Aug  3 20:32:11 2016, MaxMem=    33554432 cpu:         0.3
 (Enter /home/proyectos/fulerenos/M3C-v2.0/M3C-deps_CCC/g09-AM64L-G09RevC.01/l103.exe)

 GradGradGradGradGradGradGradGradGradGradGradGradGradGradGradGradGradGrad
 Berny optimization.
 Initialization pass.
 Trust Radius=3.00D-01 FncErr=1.00D-07 GrdErr=1.00D-07
 Number of steps in this run=      2 maximum allowed number of steps=      2.
 GradGradGradGradGradGradGradGradGradGradGradGradGradGradGradGradGradGrad

 Leave Link  103 at Wed Aug  3 20:32:11 2016, MaxMem=    33554432 cpu:         0.1
 (Enter /home/proyectos/fulerenos/M3C-v2.0/M3C-deps_CCC/g09-AM64L-G09RevC.01/l202.exe)
                          Input orientation:                          
 ---------------------------------------------------------------------
 Center     Atomic      Atomic             Coordinates (Angstroms)
 Number     Number       Type             X           Y           Z
 ---------------------------------------------------------------------
      1         16           0        1.385428   -0.221952    0.395588
      2         16           0       -1.357024    0.770325   -0.826260
      3          6           0        0.233154    0.961038   -0.152297
      4          1           0        0.757793    1.694591   -0.849010
      5          1           0       -1.484317   -0.592446   -0.822075
      6          1           0        0.120060    1.769380    0.642071
      7          1           0        2.335218    0.688412    0.762708
 ---------------------------------------------------------------------
                    Distance matrix (angstroms):
                    1          2          3          4          5
     1  S    0.000000
     2  S    3.162051   0.000000
     3  C    1.739936   1.737603   0.000000
     4  H    2.369828   2.308081   1.139629   0.000000
     5  H    3.139332   1.368710   2.410731   3.202861   0.000000
     6  H    2.372196   2.309953   1.138959   1.623459   3.208734
     7  H    1.365885   4.020470   2.308730   2.469474   4.329086
                    6          7
     6  H    0.000000
     7  H    2.467786   0.000000
 Stoichiometry    CH4S2(2+)
 Framework group  C1[X(CH4S2)]
 Deg. of freedom    15
 Full point group                 C1      NOp   1
 Largest Abelian subgroup         C1      NOp   1
 Largest concise Abelian subgroup C1      NOp   1
                         Standard orientation:                         
 ---------------------------------------------------------------------
 Center     Atomic      Atomic             Coordinates (Angstroms)
 Number     Number       Type             X           Y           Z
 ---------------------------------------------------------------------
      1         16           0       -1.548413   -0.254004   -0.000129
      2         16           0        1.609278   -0.087994   -0.000315
      3          6           0       -0.006279    0.551726   -0.000365
      4          1           0       -0.003606    1.347336    0.815572
      5          1           0        1.360734   -1.433946    0.002325
      6          1           0       -0.003693    1.354942   -0.807870
      7          1           0       -2.289602    0.893288   -0.000737
 ---------------------------------------------------------------------
 Rotational constants (GHZ):     36.9235590      3.0077290      2.8224370
 Leave Link  202 at Wed Aug  3 20:32:12 2016, MaxMem=    33554432 cpu:         0.0
 (Enter /home/proyectos/fulerenos/M3C-v2.0/M3C-deps_CCC/g09-AM64L-G09RevC.01/l301.exe)
 Standard basis: 6-311++G(3df,2p) (5D, 7F)
 Ernie: Thresh=  0.10000D-02 Tol=  0.10000D-05 Strict=F.
 There are   191 symmetry adapted cartesian basis functions of A   symmetry.
 There are   173 symmetry adapted basis functions of A   symmetry.
   173 basis functions,   250 primitive gaussians,   191 cartesian basis functions
    20 alpha electrons       20 beta electrons
       nuclear repulsion energy       142.4120583822 Hartrees.
 IExCor=  402 DFT=T Ex+Corr=B3LYP ExCW=0 ScaHFX=  0.200000
 ScaDFX=  0.800000  0.720000  1.000000  0.810000 ScalE2=  1.000000  1.000000
 IRadAn=      0 IRanWt=     -1 IRanGd=            0 ICorTp=0 IEmpDi=  4
 NAtoms=    7 NActive=    7 NUniq=    7 SFac= 1.00D+00 NAtFMM=   60 NAOKFM=F Big=F
 Integral buffers will be    131072 words long.
 Raffenetti 2 integral format.
 Two-electron integral symmetry is turned on.
 Leave Link  301 at Wed Aug  3 20:32:12 2016, MaxMem=    33554432 cpu:         0.2
 (Enter /home/proyectos/fulerenos/M3C-v2.0/M3C-deps_CCC/g09-AM64L-G09RevC.01/l302.exe)
 NPDir=0 NMtPBC=     1 NCelOv=     1 NCel=       1 NClECP=     1 NCelD=      1
         NCelK=      1 NCelE2=     1 NClLst=     1 CellRange=     0.0.
 One-electron integrals computed using PRISM.
 NBasis=   173 RedAO= T EigKep=  1.18D-04  NBF=   173
 NBsUse=   173 1.00D-06 EigRej= -1.00D+00 NBFU=   173
 Precomputing XC quadrature grid using
 IXCGrd= 4 IRadAn=           0 IRanWt=          -1 IRanGd=           0 AccXCQ= 0.00D+00.
 Generated NRdTot=       0 NPtTot=           0 NUsed=           0 NTot=          32
 NSgBfM=   191   191   191   191   191 MxSgAt=     7 MxSgA2=     7.
 Leave Link  302 at Wed Aug  3 20:32:12 2016, MaxMem=    33554432 cpu:         1.0
 (Enter /home/proyectos/fulerenos/M3C-v2.0/M3C-deps_CCC/g09-AM64L-G09RevC.01/l303.exe)
 DipDrv:  MaxL=1.
 Leave Link  303 at Wed Aug  3 20:32:12 2016, MaxMem=    33554432 cpu:         0.1
 (Enter /home/proyectos/fulerenos/M3C-v2.0/M3C-deps_CCC/g09-AM64L-G09RevC.01/l401.exe)
 ExpMin= 3.60D-02 ExpMax= 9.34D+04 ExpMxC= 3.17D+03 IAcc=3 IRadAn=         5 AccDes= 0.00D+00
 Harris functional with IExCor=  402 and IRadAn=       5 diagonalized for initial guess.
 HarFok:  IExCor=  402 AccDes= 0.00D+00 IRadAn=         5 IDoV= 1 UseB2=F ITyADJ=14
 ICtDFT=  3500011 ScaDFX=  1.000000  1.000000  1.000000  1.000000
 FoFCou: FMM=F IPFlag=           0 FMFlag=      100000 FMFlg1=           0
         NFxFlg=           0 DoJE=T BraDBF=F KetDBF=T FulRan=T
         wScrn=  0.000000 ICntrl=     500 IOpCl=  0 I1Cent=   200000004 NGrid=           0
         NMat0=    1 NMatS0=      1 NMatT0=    0 NMatD0=    1 NMtDS0=    0 NMtDT0=    0
 Petite list used in FoFCou.
 Harris En= -836.356573285797    
 JPrj=0 DoOrth=F DoCkMO=F.
 Leave Link  401 at Wed Aug  3 20:32:13 2016, MaxMem=    33554432 cpu:         5.4
 (Enter /home/proyectos/fulerenos/M3C-v2.0/M3C-deps_CCC/g09-AM64L-G09RevC.01/l502.exe)
 Closed shell SCF:
 Using DIIS extrapolation, IDIIS=  1040.
 Integral symmetry usage will be decided dynamically.
 IVT=      130537 IEndB=      130537 NGot=    33554432 MDV=    33477208
 LenX=    33477208 LenY=    33440286
 Requested convergence on RMS density matrix=1.00D-08 within 128 cycles.
 Requested convergence on MAX density matrix=1.00D-06.
 Requested convergence on             energy=1.00D-06.
 No special actions if energy rises.
 Fock matrices will be formed incrementally for  20 cycles.

 Cycle   1  Pass 1  IDiag  1:
 FoFJK:  IHMeth= 1 ICntrl=       0 DoSepK=F KAlg= 0 I1Cent=   0 FoldK=F
 IRaf= 970000000 NMat=   1 IRICut=       1 DoRegI=T DoRafI=F ISym2E= 0.
 FoFCou: FMM=F IPFlag=           0 FMFlag=      100000 FMFlg1=           0
         NFxFlg=           0 DoJE=F BraDBF=F KetDBF=F FulRan=T
         wScrn=  0.000000 ICntrl=       0 IOpCl=  0 I1Cent=           0 NGrid=           0
         NMat0=    1 NMatS0=      1 NMatT0=    0 NMatD0=    1 NMtDS0=    0 NMtDT0=    0
 Symmetry not used in FoFCou.
 E= -835.969473910051    
 DIIS: error= 1.73D-02 at cycle   1 NSaved=   1.
 NSaved= 1 IEnMin= 1 EnMin= -835.969473910051     IErMin= 1 ErrMin= 1.73D-02
 ErrMax= 1.73D-02  0.00D+00 EMaxC= 1.00D-01 BMatC= 1.09D-01 BMatP= 1.09D-01
 IDIUse=3 WtCom= 8.27D-01 WtEn= 1.73D-01
 Coeff-Com:  0.100D+01
 Coeff-En:   0.100D+01
 Coeff:      0.100D+01
 Gap=     0.085 Goal=   None    Shift=    0.000
 GapD=    0.085 DampG=0.500 DampE=0.500 DampFc=0.2500 IDamp=-1.
 Damping current iteration by 2.50D-01
 RMSDP=3.09D-03 MaxDP=1.61D-01              OVMax= 3.00D-01

 Cycle   2  Pass 1  IDiag  1:
 RMSU=  7.67D-04    CP:  1.01D+00
 E= -835.997394364957     Delta-E=       -0.027920454906 Rises=F Damp=T
 DIIS: error= 9.43D-03 at cycle   2 NSaved=   2.
 NSaved= 2 IEnMin= 2 EnMin= -835.997394364957     IErMin= 2 ErrMin= 9.43D-03
 ErrMax= 9.43D-03  0.00D+00 EMaxC= 1.00D-01 BMatC= 3.13D-02 BMatP= 1.09D-01
 IDIUse=3 WtCom= 9.06D-01 WtEn= 9.43D-02
 Coeff-Com: -0.840D+00 0.184D+01
 Coeff-En:   0.000D+00 0.100D+01
 Coeff:     -0.761D+00 0.176D+01
 Gap=     0.056 Goal=   None    Shift=    0.000
 RMSDP=1.46D-03 MaxDP=6.14D-02 DE=-2.79D-02 OVMax= 2.28D-01

 Cycle   3  Pass 1  IDiag  1:
 RMSU=  1.30D-03    CP:  1.02D+00  1.84D+00
 E= -836.019157590782     Delta-E=       -0.021763225825 Rises=F Damp=F
 DIIS: error= 1.81D-02 at cycle   3 NSaved=   3.
 NSaved= 3 IEnMin= 3 EnMin= -836.019157590782     IErMin= 2 ErrMin= 9.43D-03
 ErrMax= 1.81D-02  0.00D+00 EMaxC= 1.00D-01 BMatC= 2.30D-02 BMatP= 3.13D-02
 IDIUse=3 WtCom= 8.19D-01 WtEn= 1.81D-01
 Coeff-Com: -0.648D+00 0.124D+01 0.406D+00
 Coeff-En:   0.000D+00 0.145D+00 0.855D+00
 Coeff:     -0.531D+00 0.104D+01 0.487D+00
 Gap=     0.057 Goal=   None    Shift=    0.000
 RMSDP=2.28D-03 MaxDP=1.61D-01 DE=-2.18D-02 OVMax= 4.12D-01

 Cycle   4  Pass 1  IDiag  1:
 RMSU=  1.53D-03    CP:  1.01D+00  2.35D+00 -2.63D-01
 E= -835.950978034277     Delta-E=        0.068179556505 Rises=F Damp=F
 DIIS: error= 3.49D-02 at cycle   4 NSaved=   4.
 NSaved= 4 IEnMin= 3 EnMin= -836.019157590782     IErMin= 2 ErrMin= 9.43D-03
 ErrMax= 3.49D-02  0.00D+00 EMaxC= 1.00D-01 BMatC= 6.07D-02 BMatP= 2.30D-02
 IDIUse=2 WtCom= 0.00D+00 WtEn= 1.00D+00
 Coeff-En:   0.000D+00 0.000D+00 0.678D+00 0.322D+00
 Coeff:      0.000D+00 0.000D+00 0.678D+00 0.322D+00
 Gap=     0.064 Goal=   None    Shift=    0.000
 RMSDP=1.62D-03 MaxDP=1.16D-01 DE= 6.82D-02 OVMax= 2.87D-01

 Cycle   5  Pass 1  IDiag  1:
 RMSU=  5.36D-04    CP:  1.01D+00  2.37D+00  3.27D-01  1.33D-01
 E= -836.035421663268     Delta-E=       -0.084443628991 Rises=F Damp=F
 DIIS: error= 1.21D-02 at cycle   5 NSaved=   5.
 NSaved= 5 IEnMin= 5 EnMin= -836.035421663268     IErMin= 2 ErrMin= 9.43D-03
 ErrMax= 1.21D-02  0.00D+00 EMaxC= 1.00D-01 BMatC= 1.48D-02 BMatP= 2.30D-02
 IDIUse=3 WtCom= 8.79D-01 WtEn= 1.21D-01
 EnCoef did     2 forward-backward iterations
 Coeff-Com:  0.749D-01-0.888D-01 0.414D+00 0.206D+00 0.394D+00
 Coeff-En:   0.000D+00 0.000D+00 0.406D+00 0.156D+00 0.438D+00
 Coeff:      0.659D-01-0.781D-01 0.413D+00 0.200D+00 0.399D+00
 Gap=     0.072 Goal=   None    Shift=    0.000
 RMSDP=4.78D-04 MaxDP=2.10D-02 DE=-8.44D-02 OVMax= 5.65D-02

 Cycle   6  Pass 1  IDiag  1:
 RMSU=  1.38D-04    CP:  1.02D+00  2.08D+00  4.87D-01  2.64D-01  4.82D-01
 E= -836.051487853898     Delta-E=       -0.016066190630 Rises=F Damp=F
 DIIS: error= 6.18D-04 at cycle   6 NSaved=   6.
 NSaved= 6 IEnMin= 6 EnMin= -836.051487853898     IErMin= 6 ErrMin= 6.18D-04
 ErrMax= 6.18D-04  0.00D+00 EMaxC= 1.00D-01 BMatC= 5.22D-05 BMatP= 1.48D-02
 IDIUse=3 WtCom= 9.94D-01 WtEn= 6.18D-03
 Coeff-Com:  0.428D-01-0.620D-01 0.842D-01 0.323D-01 0.120D+00 0.783D+00
 Coeff-En:   0.000D+00 0.000D+00 0.000D+00 0.000D+00 0.000D+00 0.100D+01
 Coeff:      0.425D-01-0.616D-01 0.836D-01 0.321D-01 0.119D+00 0.784D+00
 Gap=     0.074 Goal=   None    Shift=    0.000
 RMSDP=5.03D-05 MaxDP=2.66D-03 DE=-1.61D-02 OVMax= 6.66D-03

 Cycle   7  Pass 1  IDiag  1:
 RMSU=  2.79D-05    CP:  1.02D+00  2.07D+00  5.04D-01  2.50D-01  5.16D-01
                    CP:  8.54D-01
 E= -836.051538201638     Delta-E=       -0.000050347741 Rises=F Damp=F
 DIIS: error= 2.62D-04 at cycle   7 NSaved=   7.
 NSaved= 7 IEnMin= 7 EnMin= -836.051538201638     IErMin= 7 ErrMin= 2.62D-04
 ErrMax= 2.62D-04  0.00D+00 EMaxC= 1.00D-01 BMatC= 7.08D-06 BMatP= 5.22D-05
 IDIUse=3 WtCom= 9.97D-01 WtEn= 2.62D-03
 Coeff-Com:  0.466D-02-0.694D-02 0.325D-02 0.139D-02 0.141D-01 0.308D+00
 Coeff-Com:  0.675D+00
 Coeff-En:   0.000D+00 0.000D+00 0.000D+00 0.000D+00 0.000D+00 0.166D+00
 Coeff-En:   0.834D+00
 Coeff:      0.465D-02-0.692D-02 0.324D-02 0.139D-02 0.141D-01 0.308D+00
 Coeff:      0.675D+00
 Gap=     0.074 Goal=   None    Shift=    0.000
 RMSDP=1.75D-05 MaxDP=1.09D-03 DE=-5.03D-05 OVMax= 2.64D-03

 Cycle   8  Pass 1  IDiag  1:
 RMSU=  6.36D-06    CP:  1.02D+00  2.08D+00  4.96D-01  2.55D-01  5.11D-01
                    CP:  8.91D-01  7.10D-01
 E= -836.051547418831     Delta-E=       -0.000009217192 Rises=F Damp=F
 DIIS: error= 6.18D-05 at cycle   8 NSaved=   8.
 NSaved= 8 IEnMin= 8 EnMin= -836.051547418831     IErMin= 8 ErrMin= 6.18D-05
 ErrMax= 6.18D-05  0.00D+00 EMaxC= 1.00D-01 BMatC= 3.20D-07 BMatP= 7.08D-06
 IDIUse=1 WtCom= 1.00D+00 WtEn= 0.00D+00
 Coeff-Com:  0.878D-03-0.130D-02 0.775D-04-0.582D-03 0.315D-02 0.894D-01
 Coeff-Com:  0.263D+00 0.645D+00
 Coeff:      0.878D-03-0.130D-02 0.775D-04-0.582D-03 0.315D-02 0.894D-01
 Coeff:      0.263D+00 0.645D+00
 Gap=     0.074 Goal=   None    Shift=    0.000
 RMSDP=2.94D-06 MaxDP=1.59D-04 DE=-9.22D-06 OVMax= 3.93D-04

 Cycle   9  Pass 1  IDiag  1:
 RMSU=  1.23D-06    CP:  1.02D+00  2.08D+00  4.97D-01  2.54D-01  5.11D-01
                    CP:  8.88D-01  7.34D-01  7.38D-01
 E= -836.051547832195     Delta-E=       -0.000000413364 Rises=F Damp=F
 DIIS: error= 1.25D-05 at cycle   9 NSaved=   9.
 NSaved= 9 IEnMin= 9 EnMin= -836.051547832195     IErMin= 9 ErrMin= 1.25D-05
 ErrMax= 1.25D-05  0.00D+00 EMaxC= 1.00D-01 BMatC= 1.26D-08 BMatP= 3.20D-07
 IDIUse=1 WtCom= 1.00D+00 WtEn= 0.00D+00
 Coeff-Com:  0.316D-03-0.428D-03 0.115D-03-0.316D-03 0.362D-03 0.749D-02
 Coeff-Com:  0.359D-01 0.136D+00 0.820D+00
 Coeff:      0.316D-03-0.428D-03 0.115D-03-0.316D-03 0.362D-03 0.749D-02
 Coeff:      0.359D-01 0.136D+00 0.820D+00
 Gap=     0.074 Goal=   None    Shift=    0.000
 RMSDP=4.37D-07 MaxDP=1.45D-05 DE=-4.13D-07 OVMax= 2.57D-05

 Cycle  10  Pass 1  IDiag  1:
 RMSU=  3.29D-07    CP:  1.02D+00  2.08D+00  4.97D-01  2.54D-01  5.12D-01
                    CP:  8.87D-01  7.34D-01  7.58D-01  9.58D-01
 E= -836.051547842217     Delta-E=       -0.000000010021 Rises=F Damp=F
 DIIS: error= 8.79D-06 at cycle  10 NSaved=  10.
 NSaved=10 IEnMin=10 EnMin= -836.051547842217     IErMin=10 ErrMin= 8.79D-06
 ErrMax= 8.79D-06  0.00D+00 EMaxC= 1.00D-01 BMatC= 3.54D-09 BMatP= 1.26D-08
 IDIUse=1 WtCom= 1.00D+00 WtEn= 0.00D+00
 Coeff-Com:  0.129D-03-0.170D-03 0.206D-03-0.134D-03 0.552D-04-0.208D-02
 Coeff-Com:  0.558D-04 0.113D-01 0.276D+00 0.714D+00
 Coeff:      0.129D-03-0.170D-03 0.206D-03-0.134D-03 0.552D-04-0.208D-02
 Coeff:      0.558D-04 0.113D-01 0.276D+00 0.714D+00
 Gap=     0.074 Goal=   None    Shift=    0.000
 RMSDP=2.52D-07 MaxDP=1.73D-05 DE=-1.00D-08 OVMax= 4.23D-05

 Cycle  11  Pass 1  IDiag  1:
 RMSU=  5.90D-08    CP:  1.02D+00  2.08D+00  4.98D-01  2.54D-01  5.12D-01
                    CP:  8.87D-01  7.35D-01  7.59D-01  9.96D-01  8.17D-01
 E= -836.051547847051     Delta-E=       -0.000000004835 Rises=F Damp=F
 DIIS: error= 2.63D-06 at cycle  11 NSaved=  11.
 NSaved=11 IEnMin=11 EnMin= -836.051547847051     IErMin=11 ErrMin= 2.63D-06
 ErrMax= 2.63D-06  0.00D+00 EMaxC= 1.00D-01 BMatC= 3.14D-10 BMatP= 3.54D-09
 IDIUse=1 WtCom= 1.00D+00 WtEn= 0.00D+00
 Coeff-Com:  0.953D-05-0.132D-04 0.842D-04-0.196D-04 0.206D-04-0.616D-03
 Coeff-Com: -0.111D-02-0.499D-02-0.157D-01 0.402D-01 0.982D+00
 Coeff:      0.953D-05-0.132D-04 0.842D-04-0.196D-04 0.206D-04-0.616D-03
 Coeff:     -0.111D-02-0.499D-02-0.157D-01 0.402D-01 0.982D+00
 Gap=     0.074 Goal=   None    Shift=    0.000
 RMSDP=9.12D-08 MaxDP=6.35D-06 DE=-4.83D-09 OVMax= 1.61D-05

 Cycle  12  Pass 1  IDiag  1:
 RMSU=  8.70D-09    CP:  1.02D+00  2.08D+00  4.98D-01  2.54D-01  5.12D-01
                    CP:  8.87D-01  7.35D-01  7.59D-01  1.00D+00  8.43D-01
                    CP:  1.06D+00
 E= -836.051547847517     Delta-E=       -0.000000000466 Rises=F Damp=F
 DIIS: error= 3.26D-07 at cycle  12 NSaved=  12.
 NSaved=12 IEnMin=12 EnMin= -836.051547847517     IErMin=12 ErrMin= 3.26D-07
 ErrMax= 3.26D-07  0.00D+00 EMaxC= 1.00D-01 BMatC= 4.65D-12 BMatP= 3.14D-10
 IDIUse=1 WtCom= 1.00D+00 WtEn= 0.00D+00
 Coeff-Com:  0.274D-05-0.374D-05 0.134D-04-0.228D-05 0.103D-04-0.238D-04
 Coeff-Com: -0.605D-04-0.529D-03-0.565D-02-0.851D-02 0.832D-01 0.932D+00
 Coeff:      0.274D-05-0.374D-05 0.134D-04-0.228D-05 0.103D-04-0.238D-04
 Coeff:     -0.605D-04-0.529D-03-0.565D-02-0.851D-02 0.832D-01 0.932D+00
 Gap=     0.074 Goal=   None    Shift=    0.000
 RMSDP=1.07D-08 MaxDP=7.39D-07 DE=-4.66D-10 OVMax= 1.91D-06

 Cycle  13  Pass 1  IDiag  1:
 RMSU=  1.82D-09    CP:  1.02D+00  2.08D+00  4.98D-01  2.54D-01  5.12D-01
                    CP:  8.87D-01  7.35D-01  7.59D-01  1.00D+00  8.45D-01
                    CP:  1.07D+00  9.80D-01
 E= -836.051547847520     Delta-E=       -0.000000000003 Rises=F Damp=F
 DIIS: error= 4.86D-08 at cycle  13 NSaved=  13.
 NSaved=13 IEnMin=13 EnMin= -836.051547847520     IErMin=13 ErrMin= 4.86D-08
 ErrMax= 4.86D-08  0.00D+00 EMaxC= 1.00D-01 BMatC= 1.15D-13 BMatP= 4.65D-12
 IDIUse=1 WtCom= 1.00D+00 WtEn= 0.00D+00
 Coeff-Com:  0.888D-06-0.121D-05 0.289D-05-0.455D-06 0.378D-05 0.111D-04
 Coeff-Com:  0.149D-04-0.624D-04-0.127D-02-0.475D-02-0.270D-02 0.328D+00
 Coeff-Com:  0.681D+00
 Coeff:      0.888D-06-0.121D-05 0.289D-05-0.455D-06 0.378D-05 0.111D-04
 Coeff:      0.149D-04-0.624D-04-0.127D-02-0.475D-02-0.270D-02 0.328D+00
 Coeff:      0.681D+00
 Gap=     0.074 Goal=   None    Shift=    0.000
 RMSDP=1.73D-09 MaxDP=1.06D-07 DE=-2.73D-12 OVMax= 2.85D-07

 SCF Done:  E(RB3LYP) =  -836.051547848     A.U. after   13 cycles
            NFock= 13  Conv=0.17D-08     -V/T= 2.0016
 KE= 8.347378535500D+02 PE=-2.250714507338D+03 EE= 4.375130475580D+02
 Leave Link  502 at Wed Aug  3 20:32:51 2016, MaxMem=    33554432 cpu:       148.8
 (Enter /home/proyectos/fulerenos/M3C-v2.0/M3C-deps_CCC/g09-AM64L-G09RevC.01/l801.exe)
 DoSCS=F DFT=T ScalE2(SS,OS)=  1.000000  1.000000
 Range of M.O.s used for correlation:     1   173
 NBasis=   173 NAE=    20 NBE=    20 NFC=     0 NFV=     0
 NROrb=    173 NOA=    20 NOB=    20 NVA=   153 NVB=   153

 **** Warning!!: The largest alpha MO coefficient is  0.25856726D+02


 **** Warning!!: The smallest alpha delta epsilon is  0.74304818D-01

 Leave Link  801 at Wed Aug  3 20:32:51 2016, MaxMem=    33554432 cpu:         0.1
 (Enter /home/proyectos/fulerenos/M3C-v2.0/M3C-deps_CCC/g09-AM64L-G09RevC.01/l1101.exe)
 Using compressed storage, NAtomX=     7.
 Will process      8 centers per pass.
 Leave Link 1101 at Wed Aug  3 20:32:53 2016, MaxMem=    33554432 cpu:         4.5
 (Enter /home/proyectos/fulerenos/M3C-v2.0/M3C-deps_CCC/g09-AM64L-G09RevC.01/l1102.exe)
 Symmetrizing basis deriv contribution to polar:
 IMax=3 JMax=2 DiffMx= 0.00D+00
 Leave Link 1102 at Wed Aug  3 20:32:53 2016, MaxMem=    33554432 cpu:         0.2
 (Enter /home/proyectos/fulerenos/M3C-v2.0/M3C-deps_CCC/g09-AM64L-G09RevC.01/l1110.exe)
 Forming Gx(P) for the SCF density, NAtomX=     7.
 Integral derivatives from FoFJK, PRISM(SPDF).
 Do as many integral derivatives as possible in FoFJK.
 G2DrvN: MDV=      33554272.
 G2DrvN: will do     8 centers at a time, making    1 passes.
 Calling FoFCou, ICntrl=  3107 FMM=F I1Cent=   0 AccDes= 0.00D+00.
 FoFJK:  IHMeth= 1 ICntrl=    3107 DoSepK=F KAlg= 0 I1Cent=   0 FoldK=F
 IRaf=         0 NMat=   1 IRICut=       1 DoRegI=T DoRafI=F ISym2E= 0.
 FoFCou: FMM=F IPFlag=           0 FMFlag=      100000 FMFlg1=           0
         NFxFlg=           0 DoJE=F BraDBF=F KetDBF=F FulRan=T
         wScrn=  0.000000 ICntrl=    3107 IOpCl=  0 I1Cent=           0 NGrid=           0
         NMat0=    1 NMatS0=      1 NMatT0=    0 NMatD0=    1 NMtDS0=    0 NMtDT0=    0
 Symmetry not used in FoFCou.
 End of G2Drv F.D. properties file   721 does not exist.
 End of G2Drv F.D. properties file   722 does not exist.
 End of G2Drv F.D. properties file   788 does not exist.
 Leave Link 1110 at Wed Aug  3 20:33:24 2016, MaxMem=    33554432 cpu:       119.2
 (Enter /home/proyectos/fulerenos/M3C-v2.0/M3C-deps_CCC/g09-AM64L-G09RevC.01/l1002.exe)
 Minotr:  Closed shell wavefunction.
          IDoAtm=1111111
          Direct CPHF calculation.
          Differentiating once with respect to electric field.
                with respect to dipole field.
          Differentiating once with respect to nuclear coordinates.
          Requested convergence is 1.0D-08 RMS, and 1.0D-07 maximum.
          Secondary convergence is 1.0D-12 RMS, and 1.0D-12 maximum.
          NewPWx=T KeepS1=F KeepF1=F KeepIn=T MapXYZ=F SortEE=F KeepMc=T.
          MDV=      33554185 using IRadAn=       2.
 Generate precomputed XC quadrature information.
          Solving linear equations simultaneously, MaxMat=       0.
 FoFJK:  IHMeth= 1 ICntrl=       0 DoSepK=F KAlg= 0 I1Cent=   0 FoldK=F
 IRaf= 970000000 NMat=  24 IRICut=      60 DoRegI=T DoRafI=T ISym2E= 2.
 FoFCou: FMM=F IPFlag=           0 FMFlag=      100000 FMFlg1=           0
         NFxFlg=           0 DoJE=F BraDBF=F KetDBF=F FulRan=T
         wScrn=  0.000000 ICntrl=       0 IOpCl=  0 I1Cent=           0 NGrid=           0
         NMat0=   24 NMatS0=     24 NMatT0=    0 NMatD0=   24 NMtDS0=    0 NMtDT0=    0
 Integrals replicated using symmetry in FoFCou.
          There are    24 degrees of freedom in the 1st order CPHF.  IDoFFX=6 NUNeed=     3.
     24 vectors produced by pass  0 Test12= 1.27D-14 4.17D-09 XBig12= 1.26D+03 3.49D+01.
 AX will form    24 AO Fock derivatives at one time.
     21 vectors produced by pass  1 Test12= 1.27D-14 4.17D-09 XBig12= 4.29D+02 5.95D+00.
     21 vectors produced by pass  2 Test12= 1.27D-14 4.17D-09 XBig12= 6.46D+00 5.58D-01.
     21 vectors produced by pass  3 Test12= 1.27D-14 4.17D-09 XBig12= 3.08D-02 3.24D-02.
     21 vectors produced by pass  4 Test12= 1.27D-14 4.17D-09 XBig12= 1.95D-04 2.97D-03.
     18 vectors produced by pass  5 Test12= 1.27D-14 4.17D-09 XBig12= 3.28D-07 9.96D-05.
      5 vectors produced by pass  6 Test12= 1.27D-14 4.17D-09 XBig12= 3.29D-10 2.67D-06.
      2 vectors produced by pass  7 Test12= 1.27D-14 4.17D-09 XBig12= 2.14D-13 7.67D-08.
      1 vectors produced by pass  8 Test12= 1.27D-14 4.17D-09 XBig12= 9.49D-16 6.24D-09.
 InvSVY:  IOpt=1 It=  1 EMax= 3.55D-14
 Solved reduced A of dimension   134 with    24 vectors.
 FullF1:  Do perturbations    1 to     3.
 Isotropic polarizability for W=    0.000000       53.76 Bohr**3.
 End of Minotr F.D. properties file   721 does not exist.
 End of Minotr F.D. properties file   722 does not exist.
 End of Minotr F.D. properties file   788 does not exist.
 Leave Link 1002 at Wed Aug  3 20:34:24 2016, MaxMem=    33554432 cpu:       238.2
 (Enter /home/proyectos/fulerenos/M3C-v2.0/M3C-deps_CCC/g09-AM64L-G09RevC.01/l601.exe)
 Copying SCF densities to generalized density rwf, IOpCl= 0 IROHF=0.

 **********************************************************************

            Population analysis using the SCF density.

 **********************************************************************

 Orbital symmetries:
       Occupied  (A) (A) (A) (A) (A) (A) (A) (A) (A) (A) (A) (A)
                 (A) (A) (A) (A) (A) (A) (A) (A)
       Virtual   (A) (A) (A) (A) (A) (A) (A) (A) (A) (A) (A) (A)
                 (A) (A) (A) (A) (A) (A) (A) (A) (A) (A) (A) (A)
                 (A) (A) (A) (A) (A) (A) (A) (A) (A) (A) (A) (A)
                 (A) (A) (A) (A) (A) (A) (A) (A) (A) (A) (A) (A)
                 (A) (A) (A) (A) (A) (A) (A) (A) (A) (A) (A) (A)
                 (A) (A) (A) (A) (A) (A) (A) (A) (A) (A) (A) (A)
                 (A) (A) (A) (A) (A) (A) (A) (A) (A) (A) (A) (A)
                 (A) (A) (A) (A) (A) (A) (A) (A) (A) (A) (A) (A)
                 (A) (A) (A) (A) (A) (A) (A) (A) (A) (A) (A) (A)
                 (A) (A) (A) (A) (A) (A) (A) (A) (A) (A) (A) (A)
                 (A) (A) (A) (A) (A) (A) (A) (A) (A) (A) (A) (A)
                 (A) (A) (A) (A) (A) (A) (A) (A) (A) (A) (A) (A)
                 (A) (A) (A) (A) (A) (A) (A) (A) (A)
 The electronic state is 1-A.
 Alpha  occ. eigenvalues --  -89.39773 -89.39439 -10.72774  -8.47760  -8.47458
 Alpha  occ. eigenvalues --   -6.43894  -6.43818  -6.43605  -6.43507  -6.43454
 Alpha  occ. eigenvalues --   -6.43151  -1.33059  -1.23769  -1.10468  -0.95080
 Alpha  occ. eigenvalues --   -0.91964  -0.91757  -0.83164  -0.81876  -0.73743
 Alpha virt. eigenvalues --   -0.66312  -0.46071  -0.42662  -0.39186  -0.36841
 Alpha virt. eigenvalues --   -0.35615  -0.34341  -0.29479  -0.27036  -0.26640
 Alpha virt. eigenvalues --   -0.24629  -0.23868  -0.23325  -0.21905  -0.21092
 Alpha virt. eigenvalues --   -0.20563  -0.20504  -0.18266  -0.17807  -0.15820
 Alpha virt. eigenvalues --   -0.14324  -0.13811  -0.13452  -0.12977  -0.12394
 Alpha virt. eigenvalues --   -0.10762  -0.07521  -0.06989  -0.04923  -0.03391
 Alpha virt. eigenvalues --   -0.02879  -0.01548  -0.01335  -0.00562   0.00007
 Alpha virt. eigenvalues --    0.00268   0.04090   0.06702   0.07267   0.09496
 Alpha virt. eigenvalues --    0.10154   0.13538   0.16413   0.18584   0.18726
 Alpha virt. eigenvalues --    0.23322   0.24339   0.28620   0.30110   0.32070
 Alpha virt. eigenvalues --    0.34564   0.39853   0.40384   0.41565   0.43594
 Alpha virt. eigenvalues --    0.46154   0.49077   0.50013   0.51244   0.54262
 Alpha virt. eigenvalues --    0.54718   0.55614   0.56593   0.57218   0.59444
 Alpha virt. eigenvalues --    0.60818   0.64156   0.68648   0.71104   0.76139
 Alpha virt. eigenvalues --    0.76605   0.82010   0.92051   0.99115   0.99247
 Alpha virt. eigenvalues --    1.00739   1.03387   1.13339   1.16025   1.17277
 Alpha virt. eigenvalues --    1.17798   1.19956   1.20903   1.29275   1.33599
 Alpha virt. eigenvalues --    1.35921   1.36593   1.37476   1.38752   1.41947
 Alpha virt. eigenvalues --    1.51344   1.54213   1.55364   1.69783   1.70034
 Alpha virt. eigenvalues --    1.72823   1.79442   1.84815   1.85369   1.90487
 Alpha virt. eigenvalues --    1.99378   2.16645   2.18781   2.25089   2.42472
 Alpha virt. eigenvalues --    2.58227   2.59015   2.66713   2.71352   2.79369
 Alpha virt. eigenvalues --    2.79789   2.87276   3.07070   3.14469   3.17717
 Alpha virt. eigenvalues --    3.35525   3.37302   3.44941   3.49637   3.56248
 Alpha virt. eigenvalues --    3.59328   3.59441   3.81768   3.89962   3.94467
 Alpha virt. eigenvalues --    4.11873   4.12605   4.21518   4.26056   4.33338
 Alpha virt. eigenvalues --    4.33764   4.43212   4.52793   4.64994   5.02266
 Alpha virt. eigenvalues --    5.06401   5.14794   6.63108   6.69974   6.86655
 Alpha virt. eigenvalues --    7.04857   7.39184   7.78683   7.88868  16.80947
 Alpha virt. eigenvalues --   16.89260  16.92262  17.08479  17.32324  17.36900
 Alpha virt. eigenvalues --   23.35319 188.71169 188.73640
          Condensed to atoms (all electrons):
               1          2          3          4          5          6
     1  S   15.061997   0.069475   0.113380   0.020598  -0.014645   0.019923
     2  S    0.069475  15.087700   0.089531   0.024732   0.301650   0.024099
     3  C    0.113380   0.089531   5.111989   0.311328   0.026416   0.312444
     4  H    0.020598   0.024732   0.311328   0.352021   0.000975  -0.016577
     5  H   -0.014645   0.301650   0.026416   0.000975   0.426769   0.000950
     6  H    0.019923   0.024099   0.312444  -0.016577   0.000950   0.353137
     7  H    0.303102  -0.011034   0.030136  -0.006041  -0.000386  -0.006068
               7
     1  S    0.303102
     2  S   -0.011034
     3  C    0.030136
     4  H   -0.006041
     5  H   -0.000386
     6  H   -0.006068
     7  H    0.418409
 Mulliken charges:
               1
     1  S    0.426169
     2  S    0.413846
     3  C    0.004775
     4  H    0.312965
     5  H    0.258272
     6  H    0.312092
     7  H    0.271881
 Sum of Mulliken charges =   2.00000
 Mulliken charges with hydrogens summed into heavy atoms:
               1
     1  S    0.698050
     2  S    0.672118
     3  C    0.629832
 APT charges:
               1
     1  S    0.452322
     2  S    0.507398
     3  C   -0.138757
     4  H    0.358249
     5  H    0.206018
     6  H    0.356184
     7  H    0.258585
 Sum of APT charges =   2.00000
 APT charges with hydrogens summed into heavy atoms:
               1
     1  S    0.710908
     2  S    0.713416
     3  C    0.575676
 Electronic spatial extent (au):  <R**2>=            384.7471
 Charge=              2.0000 electrons
 Dipole moment (field-independent basis, Debye):
    X=             -0.7164    Y=              1.4298    Z=              0.0083  Tot=              1.5993
 Quadrupole moment (field-independent basis, Debye-Ang):
   XX=             -3.3673   YY=            -18.7910   ZZ=            -26.0782
   XY=             -4.3670   XZ=              0.0053   YZ=              0.0067
 Traceless Quadrupole moment (field-independent basis, Debye-Ang):
   XX=             12.7115   YY=             -2.7121   ZZ=             -9.9994
   XY=             -4.3670   XZ=              0.0053   YZ=              0.0067
 Octapole moment (field-independent basis, Debye-Ang**2):
  XXX=            -11.5922  YYY=              3.0599  ZZZ=              0.0264  XYY=              1.3653
  XXY=             -2.0886  XXZ=             -0.0208  XZZ=              0.1100  YZZ=              2.4320
  YYZ=              0.0048  XYZ=             -0.0060
 Hexadecapole moment (field-independent basis, Debye-Ang**3):
 XXXX=           -258.3978 YYYY=            -42.4597 ZZZZ=            -31.5410 XXXY=            -21.0612
 XXXZ=              0.0227 YYYX=            -10.3599 YYYZ=             -0.0358 ZZZX=              0.0017
 ZZZY=              0.0433 XXYY=            -57.1095 XXZZ=            -64.8165 YYZZ=            -11.2111
 XXYZ=             -0.0082 YYXZ=              0.0135 ZZXY=             -0.4153
 N-N= 1.424120583822D+02 E-N=-2.250714507250D+03  KE= 8.347378535500D+02
  Exact polarizability:  92.187  -2.884  39.215   0.002   0.003  29.891
 Approx polarizability: 431.647   5.898  69.371  -0.007   0.022  50.595
 No NMR shielding tensors so no spin-rotation constants.
 Leave Link  601 at Wed Aug  3 20:34:24 2016, MaxMem=    33554432 cpu:         1.0
 (Enter /home/proyectos/fulerenos/M3C-v2.0/M3C-deps_CCC/g09-AM64L-G09RevC.01/l701.exe)
 Compute integral second derivatives.
 ... and contract with generalized density number  0.
 Leave Link  701 at Wed Aug  3 20:34:25 2016, MaxMem=    33554432 cpu:         1.4
 (Enter /home/proyectos/fulerenos/M3C-v2.0/M3C-deps_CCC/g09-AM64L-G09RevC.01/l702.exe)
 L702 exits ... SP integral derivatives will be done elsewhere.
 Leave Link  702 at Wed Aug  3 20:34:25 2016, MaxMem=    33554432 cpu:         0.1
 (Enter /home/proyectos/fulerenos/M3C-v2.0/M3C-deps_CCC/g09-AM64L-G09RevC.01/l703.exe)
 Compute integral second derivatives, UseDBF=F ICtDFT=           0.
 Integral derivatives from FoFJK, PRISM(SPDF).
 Calling FoFJK, ICntrl=    100127 FMM=F ISym2X=0 I1Cent= 0 IOpClX= 0 NMat=1 NMatS=1 NMatT=0.
 FoFJK:  IHMeth= 1 ICntrl=  100127 DoSepK=F KAlg= 0 I1Cent=   0 FoldK=F
 IRaf=         0 NMat=   1 IRICut=       1 DoRegI=T DoRafI=F ISym2E= 0.
 FoFCou: FMM=F IPFlag=           0 FMFlag=      100000 FMFlg1=         800
         NFxFlg=           0 DoJE=F BraDBF=F KetDBF=F FulRan=T
         wScrn=  0.000000 ICntrl=  100127 IOpCl=  0 I1Cent=           0 NGrid=           0
         NMat0=    1 NMatS0=      1 NMatT0=    0 NMatD0=    1 NMtDS0=    0 NMtDT0=    0
 Symmetry not used in FoFCou.
 Leave Link  703 at Wed Aug  3 20:35:11 2016, MaxMem=    33554432 cpu:       186.5
 (Enter /home/proyectos/fulerenos/M3C-v2.0/M3C-deps_CCC/g09-AM64L-G09RevC.01/l716.exe)
 Dipole        =-2.81860313D-01 5.62543629D-01 3.28150748D-03
 Polarizability= 9.21874853D+01-2.88376187D+00 3.92152960D+01
                 2.19238621D-03 3.35414235D-03 2.98912028D+01
 Full mass-weighted force constant matrix:
 Low frequencies --- -194.2026   -0.0047   -0.0043   -0.0032    0.8634    5.5014
 Low frequencies ---   20.1606  292.1191  355.7311
 ******    1 imaginary frequencies (negative Signs) ****** 
 Diagonal vibrational polarizability:
        7.7983529       8.8785676      41.1118100
 Harmonic frequencies (cm**-1), IR intensities (KM/Mole), Raman scattering
 activities (A**4/AMU), depolarization ratios for plane and unpolarized
 incident light, reduced masses (AMU), force constants (mDyne/A),
 and normal coordinates:
                      1                      2                      3
                      A                      A                      A
 Frequencies --   -194.2020               292.1189               355.7269
 Red. masses --      1.1875                 5.6856                 1.0575
 Frc consts  --      0.0264                 0.2859                 0.0788
 IR Inten    --     40.0097                 8.9608                55.0828
  Atom  AN      X      Y      Z        X      Y      Z        X      Y      Z
     1  16    -0.00  -0.00  -0.02     0.25  -0.05  -0.00    -0.00  -0.00  -0.03
     2  16     0.00  -0.00   0.00    -0.21  -0.08  -0.00     0.00   0.00  -0.02
     3   6    -0.00  -0.00   0.12    -0.02   0.31   0.00    -0.00  -0.00   0.02
     4   1     0.01   0.45  -0.40    -0.01   0.30   0.02     0.07   0.04  -0.03
     5   1     0.00  -0.00  -0.44    -0.68   0.01   0.00     0.00   0.00   0.68
     6   1    -0.01  -0.44  -0.40    -0.01   0.30  -0.02    -0.07  -0.04  -0.03
     7   1     0.00   0.00   0.26    -0.18  -0.33   0.00     0.00   0.00   0.72
                      4                      5                      6
                      A                      A                      A
 Frequencies --    518.7770               600.9205               870.0045
 Red. masses --      1.6324                 5.3958                 1.0197
 Frc consts  --      0.2588                 1.1480                 0.4547
 IR Inten    --      1.6348                11.5830                 0.5650
  Atom  AN      X      Y      Z        X      Y      Z        X      Y      Z
     1  16    -0.00  -0.00  -0.02    -0.15  -0.08   0.00     0.00   0.00  -0.01
     2  16     0.00  -0.00  -0.06     0.20  -0.08   0.00    -0.00  -0.00   0.02
     3   6    -0.00   0.00   0.21    -0.02   0.43  -0.00    -0.01   0.00  -0.01
     4   1     0.05   0.18   0.03    -0.07   0.19   0.19     0.73  -0.02   0.02
     5   1     0.00   0.00   0.59    -0.38   0.03  -0.01     0.06  -0.01  -0.08
     6   1    -0.05  -0.18   0.03    -0.07   0.20  -0.19    -0.67   0.00  -0.00
     7   1    -0.00  -0.00  -0.73    -0.57  -0.33   0.01    -0.03  -0.02  -0.06
                      7                      8                      9
                      A                      A                      A
 Frequencies --    879.6765               910.9371               936.0390
 Red. masses --      1.2191                 1.9681                 1.0622
 Frc consts  --      0.5558                 0.9622                 0.5483
 IR Inten    --     47.7166               118.3102               121.0060
  Atom  AN      X      Y      Z        X      Y      Z        X      Y      Z
     1  16     0.03   0.03   0.00    -0.06  -0.06   0.00     0.01  -0.01  -0.00
     2  16    -0.01  -0.02  -0.00    -0.07   0.02  -0.00    -0.00  -0.00   0.00
     3   6    -0.11   0.04   0.00     0.21   0.09   0.00    -0.01   0.07   0.00
     4   1     0.07  -0.17   0.18     0.59  -0.02   0.10    -0.21  -0.40   0.39
     5   1     0.76  -0.18   0.01     0.29  -0.06   0.00    -0.04   0.00  -0.00
     6   1     0.21  -0.17  -0.19     0.64  -0.02  -0.10    -0.24  -0.40  -0.40
     7   1    -0.39  -0.23   0.01     0.23   0.12   0.00     0.44   0.26  -0.00
                     10                     11                     12
                      A                      A                      A
 Frequencies --   1046.5488              1130.4562              2515.2690
 Red. masses --      1.2432                 1.5027                 1.0396
 Frc consts  --      0.8023                 1.1314                 3.8751
 IR Inten    --     17.8284                39.0722               189.4724
  Atom  AN      X      Y      Z        X      Y      Z        X      Y      Z
     1  16     0.00  -0.03   0.00    -0.02   0.00  -0.00     0.00  -0.01   0.00
     2  16     0.01  -0.03  -0.00    -0.03  -0.01   0.00    -0.01  -0.03   0.00
     3   6    -0.11   0.07  -0.00     0.20   0.03  -0.00     0.00   0.00  -0.00
     4   1    -0.04   0.32  -0.21    -0.55   0.11  -0.08     0.00  -0.00  -0.00
     5   1     0.43  -0.11   0.00     0.48  -0.12  -0.00     0.20   0.95  -0.00
     6   1    -0.04   0.32   0.22    -0.58   0.11   0.08     0.00  -0.00   0.00
     7   1     0.61   0.34  -0.00    -0.16  -0.09  -0.00    -0.12   0.20  -0.00
                     13                     14                     15
                      A                      A                      A
 Frequencies --   2530.0147              2601.5389              2679.8279
 Red. masses --      1.0403                 1.0688                 1.0725
 Frc consts  --      3.9233                 4.2618                 4.5379
 IR Inten    --    125.4301               174.9564               306.8769
  Atom  AN      X      Y      Z        X      Y      Z        X      Y      Z
     1  16     0.02  -0.03   0.00     0.00  -0.00  -0.00    -0.00   0.00  -0.00
     2  16     0.00   0.01  -0.00     0.00   0.00  -0.00    -0.00  -0.00   0.00
     3   6    -0.00   0.01   0.00    -0.00  -0.00  -0.07    -0.00   0.08  -0.00
     4   1    -0.00  -0.03  -0.04    -0.01   0.54   0.49     0.01  -0.44  -0.52
     5   1    -0.05  -0.23   0.00    -0.00  -0.00  -0.02     0.01   0.01  -0.00
     6   1    -0.00  -0.03   0.04     0.01  -0.51   0.45     0.01  -0.48   0.55
     7   1    -0.50   0.83  -0.00    -0.00   0.00   0.02     0.04  -0.06   0.00

 -------------------
 - Thermochemistry -
 -------------------
 Temperature   298.150 Kelvin.  Pressure   1.00000 Atm.
 Atom     1 has atomic number 16 and mass  31.97207
 Atom     2 has atomic number 16 and mass  31.97207
 Atom     3 has atomic number  6 and mass  12.00000
 Atom     4 has atomic number  1 and mass   1.00783
 Atom     5 has atomic number  1 and mass   1.00783
 Atom     6 has atomic number  1 and mass   1.00783
 Atom     7 has atomic number  1 and mass   1.00783
 Molecular mass:    79.97544 amu.
 Principal axes and moments of inertia in atomic units:
                           1         2         3
     Eigenvalues --    48.87777 600.03450 639.42658
           X            0.99967  -0.02588   0.00003
           Y            0.02588   0.99967   0.00003
           Z           -0.00003  -0.00003   1.00000
 This molecule is an asymmetric top.
 Rotational symmetry number  1.
 Rotational temperatures (Kelvin)      1.77205     0.14435     0.13546
 Rotational constants (GHZ):          36.92356     3.00773     2.82244
    1 imaginary frequencies ignored.
 Zero-point vibrational energy     106873.5 (Joules/Mol)
                                   25.54338 (Kcal/Mol)
 Warning -- explicit consideration of   4 degrees of freedom as
           vibrations may cause significant error
 Vibrational temperatures:    420.29   511.81   746.40   864.59  1251.74
          (Kelvin)           1265.66  1310.63  1346.75  1505.75  1626.47
                             3618.91  3640.12  3743.03  3855.67
 
 Zero-point correction=                           0.040706 (Hartree/Particle)
 Thermal correction to Energy=                    0.044964
 Thermal correction to Enthalpy=                  0.045909
 Thermal correction to Gibbs Free Energy=         0.013669
 Sum of electronic and zero-point Energies=           -836.010842
 Sum of electronic and thermal Energies=              -836.006583
 Sum of electronic and thermal Enthalpies=            -836.005639
 Sum of electronic and thermal Free Energies=         -836.037879
 
                     E (Thermal)             CV                S
                      KCal/Mol        Cal/Mol-Kelvin    Cal/Mol-Kelvin
 Total                   28.216             14.049             67.854
 Electronic               0.000              0.000              0.000
 Translational            0.889              2.981             39.052
 Rotational               0.889              2.981             24.443
 Vibrational             26.438              8.088              4.360
 Vibration     1          0.687              1.688              1.462
 Vibration     2          0.731              1.563              1.141
 Vibration     3          0.874              1.208              0.613
 Vibration     4          0.959              1.030              0.448
                       Q            Log10(Q)             Ln(Q)
 Total Bot       0.516170D-06         -6.287207        -14.476829
 Total V=0       0.273024D+13         12.436200         28.635409
 Vib (Bot)       0.374557D-18        -18.426483        -42.428544
 Vib (Bot)    1  0.653884D+00         -0.184500         -0.424826
 Vib (Bot)    2  0.516717D+00         -0.286747         -0.660260
 Vib (Bot)    3  0.311492D+00         -0.506553         -1.166382
 Vib (Bot)    4  0.248250D+00         -0.605111         -1.393320
 Vib (V=0)       0.198118D+01          0.296924          0.683694
 Vib (V=0)    1  0.132314D+01          0.121607          0.280010
 Vib (V=0)    2  0.121902D+01          0.086012          0.198051
 Vib (V=0)    3  0.108909D+01          0.037064          0.085343
 Vib (V=0)    4  0.105824D+01          0.024583          0.056604
 Electronic      0.100000D+01          0.000000          0.000000
 Translational   0.281119D+08          7.448890         17.151704
 Rotational      0.490214D+05          4.690386         10.800012
 
                                                              b3lyp opt
                                                             IR Spectrum
 
     2   2  22                                                                 1   1                                                 
     6   6  55                                                                 1   0    9988            6   5       3  2             
     8   0  31                                                                 3   4    3187            0   1       5  9             
     0   2  05                                                                 0   7    6100            1   9       6  2             
 
     X   X  XX                                                                 X   X    XXXX            X   X       X  X             
     X   X  XX                                                                 X        XXX                         X                
     X   X  XX                                                                 X        XXX                         X                
     X   X  XX                                                                          XX                          X                
     X   X  XX                                                                          XX                                           
     X   X  XX                                                                          XX                                           
     X   X  XX                                                                          XX                                           
     X   X  XX                                                                          XX                                           
     X   X   X                                                                                                                       
     X   X   X                                                                                                                       
     X   X   X                                                                                                                       
     X       X                                                                                                                       
     X                                                                                                                               
     X                                                                                                                               
     X                                                                                                                               
     X                                                                                                                               
     X                                                                                                                               
     X                                                                                                                               
     X                                                                                                                               
     X                                                                                                                               
 
 ***** Axes restored to original set *****
 -------------------------------------------------------------------
 Center     Atomic                   Forces (Hartrees/Bohr)
 Number     Number              X              Y              Z
 -------------------------------------------------------------------
      1       16          -0.000024431   -0.000044439   -0.000030473
      2       16          -0.000006517   -0.000025639   -0.000016521
      3        6          -0.000012861    0.000008836    0.000090999
      4        1           0.000020712    0.000010028   -0.000031907
      5        1          -0.000010035    0.000022734   -0.000004137
      6        1           0.000004624   -0.000017044   -0.000021672
      7        1           0.000028509    0.000045524    0.000013712
 -------------------------------------------------------------------
 Cartesian Forces:  Max     0.000090999 RMS     0.000030106
 Z-matrix is all fixed cartesians, so copy forces.
 Force constants in Cartesian coordinates: 
                1             2             3             4             5 
      1  0.230407D+00
      2  0.225617D-01  0.284024D+00
      3  0.944061D-01 -0.263561D-02  0.489401D-01
      4 -0.217648D-01 -0.517410D-02 -0.117015D-01  0.229905D+00
      5  0.169943D-01  0.764174D-02  0.723165D-02  0.123525D-01  0.296440D+00
      6 -0.128491D-01 -0.222186D-02  0.836266D-03  0.841113D-01 -0.603899D-02
      7 -0.958236D-01  0.522173D-01 -0.450732D-01 -0.166771D+00 -0.158868D-01
      8  0.634488D-01 -0.119380D+00  0.328568D-01  0.205439D-01 -0.575877D-01
      9 -0.453461D-01  0.276305D-01 -0.172703D-01 -0.581486D-01 -0.598737D-02
     10 -0.283309D-02  0.106607D-01 -0.132658D-02 -0.131710D-01 -0.121314D-01
     11  0.370381D-02 -0.170553D-01  0.103128D-01 -0.874491D-02 -0.413949D-02
     12  0.152687D-02  0.208126D-02 -0.693473D-02 -0.464118D-02 -0.809680D-02
     13  0.162116D-02 -0.433929D-03  0.281280D-02 -0.233981D-01  0.113856D-01
     14  0.691686D-03  0.122130D-02  0.337933D-04 -0.143725D-01 -0.236455D+00
     15  0.276801D-02 -0.472788D-03 -0.367673D-02 -0.514643D-02  0.146504D-01
     16 -0.411135D-02  0.869362D-02  0.264244D-02 -0.589095D-02 -0.153461D-01
     17  0.966304D-02 -0.174376D-01 -0.370106D-02 -0.836834D-02 -0.387163D-02
     18 -0.834480D-05  0.746072D-02 -0.492989D-02 -0.204646D-02 -0.325688D-02
     19 -0.107495D+00 -0.885254D-01 -0.417600D-01  0.109094D-02  0.263185D-02
     20 -0.117063D+00 -0.139014D+00 -0.440984D-01  0.376350D-02 -0.202831D-02
     21 -0.404974D-01 -0.318422D-01 -0.169647D-01 -0.242712D-02  0.149802D-02
                6             7             8             9            10 
      6  0.689316D-01
      7 -0.562155D-01  0.357308D+00
      8  0.958948D-02 -0.111720D-01  0.366010D+00
      9 -0.585928D-01  0.551232D-01 -0.104692D-01  0.254546D+00
     10  0.483893D-02 -0.617413D-01 -0.625164D-01  0.497045D-01  0.802800D-01
     11 -0.293025D-02 -0.606850D-01 -0.909303D-01  0.903636D-01  0.665402D-01
     12  0.182987D-02  0.530051D-01  0.941274D-01 -0.748759D-01 -0.600681D-01
     13 -0.626093D-02  0.159520D-02 -0.237413D-01 -0.551305D-02 -0.342881D-02
     14  0.358862D-02 -0.179293D-02  0.391935D-02 -0.221281D-03 -0.257458D-03
     15 -0.128055D-01 -0.635652D-02 -0.946361D-02  0.142893D-01 -0.666316D-03
     16 -0.112328D-01 -0.164036D-01  0.226745D-01  0.480214D-02 -0.672116D-03
     17 -0.397750D-02  0.207285D-01 -0.111795D+00 -0.107319D+00 -0.314325D-02
     18 -0.545940D-02  0.132640D-02 -0.111452D+00 -0.101785D+00  0.974127D-02
     19 -0.239195D-02 -0.181638D-01 -0.923755D-02 -0.622084D-03  0.156639D-02
     20  0.199050D-02  0.165908D-01  0.976339D-02  0.600329D-02  0.847601D-03
     21  0.525992D-02 -0.180955D-02 -0.518903D-02 -0.163118D-01 -0.222377D-02
               11            12            13            14            15 
     11  0.112678D+00
     12 -0.908781D-01  0.105258D+00
     13 -0.258765D-02 -0.180846D-02  0.286503D-01
     14 -0.211470D-03 -0.526903D-03  0.163173D-01  0.232582D+00
     15  0.108769D-02 -0.405502D-02  0.970278D-02 -0.283965D-02  0.872083D-02
     16  0.109038D-02  0.131815D-01 -0.508064D-02 -0.417570D-03 -0.471232D-03
     17 -0.233490D-02  0.299298D-02 -0.698277D-03 -0.353430D-03 -0.287571D-02
     18 -0.654585D-02 -0.224400D-01  0.892094D-03  0.200347D-04 -0.221522D-02
     19  0.683228D-03 -0.119582D-02  0.409292D-04 -0.168454D-03  0.169704D-03
     20  0.199380D-02  0.300150D-03 -0.241739D-03 -0.703245D-03 -0.863092D-04
     21 -0.140994D-02  0.121746D-02  0.174769D-03 -0.546117D-04 -0.257675D-03
               16            17            18            19            20 
     16  0.324710D-01
     17 -0.176415D-01  0.133655D+00
     18 -0.956204D-02  0.113295D+00  0.133906D+00
     19 -0.312291D-03 -0.540233D-03 -0.342919D-03  0.123273D+00
     20  0.946695D-03  0.213770D-02  0.479250D-03  0.951565D-01  0.127850D+00
     21  0.639951D-03  0.158628D-02  0.292275D-02  0.461431D-01  0.354115D-01
               21 
     21  0.241340D-01
 Leave Link  716 at Wed Aug  3 20:35:11 2016, MaxMem=    33554432 cpu:         0.1
 (Enter /home/proyectos/fulerenos/M3C-v2.0/M3C-deps_CCC/g09-AM64L-G09RevC.01/l103.exe)

 GradGradGradGradGradGradGradGradGradGradGradGradGradGradGradGradGradGrad
 Berny optimization.
 Search for a local minimum.
 Step number   1 out of a maximum of    2
 All quantities printed in internal units (Hartrees-Bohrs-Radians)
 Second derivative matrix not updated -- analytic derivatives used.
 ITU=  0
     Eigenvalues ---   -0.00231   0.00701   0.01496   0.02846   0.03377
     Eigenvalues ---    0.04101   0.05099   0.06859   0.09982   0.25909
     Eigenvalues ---    0.36270   0.41435   0.42748   0.54830   0.58499
 Eigenvalue     1 is  -2.31D-03 should be greater than     0.000000 Eigenvector:
                          Z5        Y4        Y6        Z7        Z4
   1                    0.47703   0.43380  -0.40133  -0.29325   0.28873
                          Z3        X6        Z6        X5        X7
   1                   -0.24166  -0.23871   0.20792  -0.20590   0.12546
 Angle between quadratic step and forces=  75.72 degrees.
 Linear search not attempted -- first point.
 B after Tr=     0.000278   -0.000233    0.000034
         Rot=    1.000000   -0.000292   -0.000253   -0.000116 Ang=  -0.05 deg.
 Variable       Old X    -DE/DX   Delta X   Delta X   Delta X     New X
                                 (Linear)    (Quad)   (Total)
    X1        2.61808  -0.00002   0.00000   0.00081   0.00156   2.61964
    Y1       -0.41943  -0.00004   0.00000  -0.00007  -0.00014  -0.41956
    Z1        0.74755  -0.00003   0.00000  -0.00133  -0.00287   0.74468
    X2       -2.56440  -0.00001   0.00000  -0.00052  -0.00137  -2.56578
    Y2        1.45570  -0.00003   0.00000   0.00014   0.00022   1.45592
    Z2       -1.56141  -0.00002   0.00000   0.00106   0.00324  -1.55816
    X3        0.44060  -0.00001   0.00000  -0.00134  -0.00163   0.43897
    Y3        1.81610   0.00001   0.00000  -0.00000   0.00003   1.81613
    Z3       -0.28780   0.00009   0.00000   0.00327   0.00414  -0.28366
    X4        1.43202   0.00002   0.00000  -0.00011  -0.00139   1.43063
    Y4        3.20231   0.00001   0.00000  -0.00567  -0.00463   3.19768
    Z4       -1.60440  -0.00003   0.00000  -0.00347  -0.00230  -1.60670
    X5       -2.80495  -0.00001   0.00000   0.00142   0.00116  -2.80379
    Y5       -1.11956   0.00002   0.00000   0.00002   0.00005  -1.11951
    Z5       -1.55350  -0.00000   0.00000  -0.00508  -0.00428  -1.55777
    X6        0.22688   0.00000   0.00000   0.00260   0.00272   0.22960
    Y6        3.34364  -0.00002   0.00000   0.00463   0.00374   3.34739
    Z6        1.21334  -0.00002   0.00000  -0.00239  -0.00052   1.21282
    X7        4.41292   0.00003   0.00000  -0.00176  -0.00105   4.41187
    Y7        1.30091   0.00005   0.00000   0.00078   0.00072   1.30163
    Z7        1.44131   0.00001   0.00000   0.00402   0.00258   1.44389
         Item               Value     Threshold  Converged?
 Maximum Force            0.000091     0.000450     YES
 RMS     Force            0.000030     0.000300     YES
 Maximum Displacement     0.004631     0.001800     NO 
 RMS     Displacement     0.002402     0.001200     NO 
 Predicted change in Energy=-5.243149D-07
 GradGradGradGradGradGradGradGradGradGradGradGradGradGradGradGradGradGrad

 Leave Link  103 at Wed Aug  3 20:35:11 2016, MaxMem=    33554432 cpu:         0.1
 (Enter /home/proyectos/fulerenos/M3C-v2.0/M3C-deps_CCC/g09-AM64L-G09RevC.01/l9999.exe)
 1\1\GINC-DEPAZ29\Freq\RB3LYP\6-311++G(3df,2p)\C1H4S2(2+)\NAGUIRRE\03-A
 ug-2016\0\\#p b3lyp/6-311++G(3df,2p) freq\\b3lyp opt\\2,1\S,1.385428,-
 0.221952,0.395588\S,-1.357024,0.770325,-0.82626\C,0.233154,0.961038,-0
 .152297\H,0.757793,1.694591,-0.84901\H,-1.484317,-0.592446,-0.822075\H
 ,0.12006,1.76938,0.642071\H,2.335218,0.688412,0.762708\\Version=EM64L-
 G09RevE.01\State=1-A\HF=-836.0515478\RMSD=1.732e-09\RMSF=3.011e-05\Zer
 oPoint=0.040706\Thermal=0.0449644\Dipole=0.3951728,0.4677211,0.1448683
 \DipoleDeriv=0.1507833,-0.1380555,-0.1665261,0.057115,0.7247612,0.0164
 718,-0.176563,-0.0660949,0.4814222,0.4137194,0.086335,-0.074256,-0.364
 1466,0.5572681,-0.1553644,-0.0522974,0.037223,0.5512064,0.2345278,-0.2
 408334,0.1898508,-0.1707152,-0.5537188,-0.0549791,0.1863714,-0.0847963
 ,-0.0970789,0.3169075,0.0785079,-0.0325581,0.0887487,0.4473282,-0.0910
 111,-0.026606,-0.0617496,0.3105107,0.1773624,0.1209749,-0.0139207,0.23
 03993,0.2534502,0.0964597,-0.018614,0.0500513,0.1872418,0.2814745,0.01
 70084,0.006997,0.0023777,0.4628917,0.1168497,0.0010128,0.0885982,0.324
 1861,0.4252251,0.0760627,0.0904131,0.1562212,0.1080194,0.0715733,0.086
 6962,0.0367683,0.2425116\Polar=80.2932538,-9.9057724,41.4138107,22.083
 4069,-4.777614,39.5869195\PG=C01 [X(C1H4S2)]\NImag=1\\0.23040710,0.022
 56173,0.28402357,0.09440606,-0.00263561,0.04894009,-0.02176484,-0.0051
 7410,-0.01170154,0.22990452,0.01699429,0.00764174,0.00723165,0.0123524
 9,0.29644024,-0.01284911,-0.00222186,0.00083627,0.08411130,-0.00603899
 ,0.06893160,-0.09582356,0.05221732,-0.04507317,-0.16677055,-0.01588675
 ,-0.05621546,0.35730772,0.06344884,-0.11938009,0.03285680,0.02054391,-
 0.05758767,0.00958948,-0.01117197,0.36601044,-0.04534614,0.02763049,-0
 .01727035,-0.05814857,-0.00598737,-0.05859278,0.05512316,-0.01046925,0
 .25454616,-0.00283309,0.01066072,-0.00132658,-0.01317100,-0.01213138,0
 .00483893,-0.06174133,-0.06251640,0.04970454,0.08027995,0.00370381,-0.
 01705528,0.01031282,-0.00874491,-0.00413949,-0.00293025,-0.06068502,-0
 .09093027,0.09036361,0.06654017,0.11267761,0.00152687,0.00208126,-0.00
 693473,-0.00464118,-0.00809680,0.00182987,0.05300515,0.09412740,-0.074
 87589,-0.06006807,-0.09087808,0.10525830,0.00162116,-0.00043393,0.0028
 1280,-0.02339812,0.01138562,-0.00626093,0.00159520,-0.02374129,-0.0055
 1305,-0.00342881,-0.00258765,-0.00180846,0.02865029,0.00069169,0.00122
 130,0.00003379,-0.01437255,-0.23645489,0.00358862,-0.00179293,0.003919
 35,-0.00022128,-0.00025746,-0.00021147,-0.00052690,0.01631727,0.232582
 38,0.00276801,-0.00047279,-0.00367673,-0.00514643,0.01465037,-0.012805
 48,-0.00635652,-0.00946361,0.01428929,-0.00066632,0.00108769,-0.004055
 02,0.00970278,-0.00283965,0.00872083,-0.00411135,0.00869362,0.00264244
 ,-0.00589095,-0.01534612,-0.01123279,-0.01640364,0.02267447,0.00480214
 ,-0.00067212,0.00109038,0.01318152,-0.00508064,-0.00041757,-0.00047123
 ,0.03247099,0.00966304,-0.01743757,-0.00370106,-0.00836834,-0.00387163
 ,-0.00397750,0.02072853,-0.11179515,-0.10731949,-0.00314325,-0.0023349
 0,0.00299298,-0.00069828,-0.00035343,-0.00287571,-0.01764147,0.1336549
 9,-0.00000834,0.00746072,-0.00492989,-0.00204646,-0.00325688,-0.005459
 40,0.00132640,-0.11145178,-0.10178465,0.00974127,-0.00654585,-0.022439
 99,0.00089209,0.00002003,-0.00221522,-0.00956204,0.11329451,0.13390640
 ,-0.10749542,-0.08852536,-0.04176001,0.00109094,0.00263185,-0.00239195
 ,-0.01816384,-0.00923755,-0.00062208,0.00156639,0.00068323,-0.00119582
 ,0.00004093,-0.00016845,0.00016970,-0.00031229,-0.00054023,-0.00034292
 ,0.12327329,-0.11706340,-0.13901367,-0.04409838,0.00376350,-0.00202831
 ,0.00199050,0.01659082,0.00976339,0.00600329,0.00084760,0.00199380,0.0
 0030015,-0.00024174,-0.00070324,-0.00008631,0.00094670,0.00213770,0.00
 047925,0.09515652,0.12785033,-0.04049735,-0.03184222,-0.01696466,-0.00
 242712,0.00149802,0.00525992,-0.00180955,-0.00518903,-0.01631179,-0.00
 222377,-0.00140994,0.00121746,0.00017477,-0.00005461,-0.00025767,0.000
 63995,0.00158628,0.00292275,0.04614308,0.03541150,0.02413400\\0.000024
 43,0.00004444,0.00003047,0.00000652,0.00002564,0.00001652,0.00001286,-
 0.00000884,-0.00009100,-0.00002071,-0.00001003,0.00003191,0.00001004,-
 0.00002273,0.00000414,-0.00000462,0.00001704,0.00002167,-0.00002851,-0
 .00004552,-0.00001371\\\@


 RESEARCH IS WHAT I AM DOING WHEN I DON'T KNOW WHAT I AM DOING.
     -- WERNER VON BRAUN
 Job cpu time:       0 days  0 hours 11 minutes 48.7 seconds.
 File lengths (MBytes):  RWF=     26 Int=      0 D2E=      0 Chk=      3 Scr=      1
 Normal termination of Gaussian 09 at Wed Aug  3 20:35:11 2016.
