 Entering Gaussian System, Link 0=/home/proyectos/fulerenos/M3C-v2.0/M3C-deps_CCC/g09-AM64L-G09RevC.01/g09
 Initial command:
 /home/proyectos/fulerenos/M3C-v2.0/M3C-deps_CCC/g09-AM64L-G09RevC.01/l1.exe "/scratch/naguirre/gaussian/Gau-29551.inp" -scrdir="/scratch/naguirre/gaussian/"
 Entering Link 1 = /home/proyectos/fulerenos/M3C-v2.0/M3C-deps_CCC/g09-AM64L-G09RevC.01/l1.exe PID=     29559.
  
 Copyright (c) 1988,1990,1992,1993,1995,1998,2003,2009,2015,
            Gaussian, Inc.  All Rights Reserved.
  
 This is part of the Gaussian(R) 09 program.  It is based on
 the Gaussian(R) 03 system (copyright 2003, Gaussian, Inc.),
 the Gaussian(R) 98 system (copyright 1998, Gaussian, Inc.),
 the Gaussian(R) 94 system (copyright 1995, Gaussian, Inc.),
 the Gaussian 92(TM) system (copyright 1992, Gaussian, Inc.),
 the Gaussian 90(TM) system (copyright 1990, Gaussian, Inc.),
 the Gaussian 88(TM) system (copyright 1988, Gaussian, Inc.),
 the Gaussian 86(TM) system (copyright 1986, Carnegie Mellon
 University), and the Gaussian 82(TM) system (copyright 1983,
 Carnegie Mellon University). Gaussian is a federally registered
 trademark of Gaussian, Inc.
  
 This software contains proprietary and confidential information,
 including trade secrets, belonging to Gaussian, Inc.
  
 This software is provided under written license and may be
 used, copied, transmitted, or stored only in accord with that
 written license.
  
 The following legend is applicable only to US Government
 contracts under FAR:
  
                    RESTRICTED RIGHTS LEGEND
  
 Use, reproduction and disclosure by the US Government is
 subject to restrictions as set forth in subparagraphs (a)
 and (c) of the Commercial Computer Software - Restricted
 Rights clause in FAR 52.227-19.
  
 Gaussian, Inc.
 340 Quinnipiac St., Bldg. 40, Wallingford CT 06492
  
  
 ---------------------------------------------------------------
 Warning -- This program may not be used in any manner that
 competes with the business of Gaussian, Inc. or will provide
 assistance to any competitor of Gaussian, Inc.  The licensee
 of this program is prohibited from giving any competitor of
 Gaussian, Inc. access to this program.  By using this program,
 the user acknowledges that Gaussian, Inc. is engaged in the
 business of creating and licensing software in the field of
 computational chemistry and represents and warrants to the
 licensee that it is not a competitor of Gaussian, Inc. and that
 it will not use this program in any manner prohibited above.
 ---------------------------------------------------------------
  

 Cite this work as:
 Gaussian 09, Revision E.01,
 M. J. Frisch, G. W. Trucks, H. B. Schlegel, G. E. Scuseria, 
 M. A. Robb, J. R. Cheeseman, G. Scalmani, V. Barone, B. Mennucci, 
 G. A. Petersson, H. Nakatsuji, M. Caricato, X. Li, H. P. Hratchian, 
 A. F. Izmaylov, J. Bloino, G. Zheng, J. L. Sonnenberg, M. Hada, 
 M. Ehara, K. Toyota, R. Fukuda, J. Hasegawa, M. Ishida, T. Nakajima, 
 Y. Honda, O. Kitao, H. Nakai, T. Vreven, J. A. Montgomery, Jr., 
 J. E. Peralta, F. Ogliaro, M. Bearpark, J. J. Heyd, E. Brothers, 
 K. N. Kudin, V. N. Staroverov, T. Keith, R. Kobayashi, J. Normand, 
 K. Raghavachari, A. Rendell, J. C. Burant, S. S. Iyengar, J. Tomasi, 
 M. Cossi, N. Rega, J. M. Millam, M. Klene, J. E. Knox, J. B. Cross, 
 V. Bakken, C. Adamo, J. Jaramillo, R. Gomperts, R. E. Stratmann, 
 O. Yazyev, A. J. Austin, R. Cammi, C. Pomelli, J. W. Ochterski, 
 R. L. Martin, K. Morokuma, V. G. Zakrzewski, G. A. Voth, 
 P. Salvador, J. J. Dannenberg, S. Dapprich, A. D. Daniels, 
 O. Farkas, J. B. Foresman, J. V. Ortiz, J. Cioslowski, 
 and D. J. Fox, Gaussian, Inc., Wallingford CT, 2013.
 
 ******************************************
 Gaussian 09:  EM64L-G09RevE.01 30-Nov-2015
                 3-Aug-2016 
 ******************************************
 %NProcShared=4
 Will use up to    4 processors via shared memory.
 ------------------------------
 #p b3lyp/6-311++G(3df,2p) freq
 ------------------------------
 1/10=4,30=1,38=1/1,3;
 2/12=2,17=6,18=5,40=1/2;
 3/5=4,6=6,7=1216,11=2,16=1,25=1,30=1,71=2,74=-5,140=1/1,2,3;
 4//1;
 5/5=2,38=5,98=1/2;
 8/6=4,10=90,11=11/1;
 11/6=1,8=1,9=11,15=111,16=1/1,2,10;
 10/6=1/2;
 6/7=2,8=2,9=2,10=2,18=1,28=1/1;
 7/8=1,10=1,25=1/1,2,3,16;
 1/10=4,30=1/3;
 99//99;
 Leave Link    1 at Wed Aug  3 20:32:11 2016, MaxMem=           0 cpu:         0.3
 (Enter /home/proyectos/fulerenos/M3C-v2.0/M3C-deps_CCC/g09-AM64L-G09RevC.01/l101.exe)
 ---------
 b3lyp opt
 ---------
 Symbolic Z-matrix:
 Charge =  2 Multiplicity = 3
 S                     1.5175    0.46942  -0.39772 
 S                    -1.5224    0.06001  -1.00647 
 C                    -0.20672   0.95498  -0.27109 
 H                     2.03674   1.70373  -0.67114 
 H                    -1.92592  -0.67998   0.08486 
 H                    -0.46944   1.92956   0.15108 
 H                     1.82751   0.51479   0.93485 
 
 NAtoms=      7 NQM=        7 NQMF=       0 NMMI=      0 NMMIF=      0
                NMic=       0 NMicF=      0.
                    Isotopes and Nuclear Properties:
 (Nuclear quadrupole moments (NQMom) in fm**2, nuclear magnetic moments (NMagM)
  in nuclear magnetons)

  Atom         1           2           3           4           5           6           7
 IAtWgt=          32          32          12           1           1           1           1
 AtmWgt=  31.9720718  31.9720718  12.0000000   1.0078250   1.0078250   1.0078250   1.0078250
 NucSpn=           0           0           0           1           1           1           1
 AtZEff=   0.0000000   0.0000000   0.0000000   0.0000000   0.0000000   0.0000000   0.0000000
 NQMom=    0.0000000   0.0000000   0.0000000   0.0000000   0.0000000   0.0000000   0.0000000
 NMagM=    0.0000000   0.0000000   0.0000000   2.7928460   2.7928460   2.7928460   2.7928460
 AtZNuc=  16.0000000  16.0000000   6.0000000   1.0000000   1.0000000   1.0000000   1.0000000
 Leave Link  101 at Wed Aug  3 20:32:11 2016, MaxMem=    33554432 cpu:         0.3
 (Enter /home/proyectos/fulerenos/M3C-v2.0/M3C-deps_CCC/g09-AM64L-G09RevC.01/l103.exe)

 GradGradGradGradGradGradGradGradGradGradGradGradGradGradGradGradGradGrad
 Berny optimization.
 Initialization pass.
 Trust Radius=3.00D-01 FncErr=1.00D-07 GrdErr=1.00D-07
 Number of steps in this run=      2 maximum allowed number of steps=      2.
 GradGradGradGradGradGradGradGradGradGradGradGradGradGradGradGradGradGrad

 Leave Link  103 at Wed Aug  3 20:32:11 2016, MaxMem=    33554432 cpu:         0.1
 (Enter /home/proyectos/fulerenos/M3C-v2.0/M3C-deps_CCC/g09-AM64L-G09RevC.01/l202.exe)
                          Input orientation:                          
 ---------------------------------------------------------------------
 Center     Atomic      Atomic             Coordinates (Angstroms)
 Number     Number       Type             X           Y           Z
 ---------------------------------------------------------------------
      1         16           0        1.517504    0.469419   -0.397724
      2         16           0       -1.522395    0.060006   -1.006466
      3          6           0       -0.206720    0.954984   -0.271091
      4          1           0        2.036745    1.703728   -0.671141
      5          1           0       -1.925917   -0.679976    0.084863
      6          1           0       -0.469444    1.929557    0.151083
      7          1           0        1.827506    0.514794    0.934848
 ---------------------------------------------------------------------
                    Distance matrix (angstroms):
                    1          2          3          4          5
     1  S    0.000000
     2  S    3.127167   0.000000
     3  C    1.795761   1.752930   0.000000
     4  H    1.366707   3.934685   2.398706   0.000000
     5  H    3.662123   1.378913   2.399049   4.685753   0.000000
     6  H    2.526095   2.438000   1.094097   2.647269   2.989207
     7  H    1.368908   3.898380   2.405438   2.009116   4.029657
                    6          7
     6  H    0.000000
     7  H    2.809239   0.000000
 Stoichiometry    CH4S2(2+,3)
 Framework group  C1[X(CH4S2)]
 Deg. of freedom    15
 Full point group                 C1      NOp   1
 Largest Abelian subgroup         C1      NOp   1
 Largest concise Abelian subgroup C1      NOp   1
                         Standard orientation:                         
 ---------------------------------------------------------------------
 Center     Atomic      Atomic             Coordinates (Angstroms)
 Number     Number       Type             X           Y           Z
 ---------------------------------------------------------------------
      1         16           0        1.504159   -0.241383   -0.022212
      2         16           0       -1.620650   -0.144430   -0.095302
      3          6           0       -0.059386    0.638617    0.053203
      4          1           0        2.163948    0.625935   -0.847029
      5          1           0       -1.932858   -0.274332    1.241506
      6          1           0       -0.070818    1.732589    0.041323
      7          1           0        2.059908    0.257111    1.125201
 ---------------------------------------------------------------------
 Rotational constants (GHZ):     34.3120192      2.9225421      2.8071427
 Leave Link  202 at Wed Aug  3 20:32:12 2016, MaxMem=    33554432 cpu:         0.0
 (Enter /home/proyectos/fulerenos/M3C-v2.0/M3C-deps_CCC/g09-AM64L-G09RevC.01/l301.exe)
 Standard basis: 6-311++G(3df,2p) (5D, 7F)
 Ernie: Thresh=  0.10000D-02 Tol=  0.10000D-05 Strict=F.
 There are   191 symmetry adapted cartesian basis functions of A   symmetry.
 There are   173 symmetry adapted basis functions of A   symmetry.
   173 basis functions,   250 primitive gaussians,   191 cartesian basis functions
    21 alpha electrons       19 beta electrons
       nuclear repulsion energy       140.5129396382 Hartrees.
 IExCor=  402 DFT=T Ex+Corr=B3LYP ExCW=0 ScaHFX=  0.200000
 ScaDFX=  0.800000  0.720000  1.000000  0.810000 ScalE2=  1.000000  1.000000
 IRadAn=      0 IRanWt=     -1 IRanGd=            0 ICorTp=0 IEmpDi=  4
 NAtoms=    7 NActive=    7 NUniq=    7 SFac= 1.00D+00 NAtFMM=   60 NAOKFM=F Big=F
 Integral buffers will be    131072 words long.
 Raffenetti 2 integral format.
 Two-electron integral symmetry is turned on.
 Leave Link  301 at Wed Aug  3 20:32:12 2016, MaxMem=    33554432 cpu:         0.2
 (Enter /home/proyectos/fulerenos/M3C-v2.0/M3C-deps_CCC/g09-AM64L-G09RevC.01/l302.exe)
 NPDir=0 NMtPBC=     1 NCelOv=     1 NCel=       1 NClECP=     1 NCelD=      1
         NCelK=      1 NCelE2=     1 NClLst=     1 CellRange=     0.0.
 One-electron integrals computed using PRISM.
 NBasis=   173 RedAO= T EigKep=  1.88D-04  NBF=   173
 NBsUse=   173 1.00D-06 EigRej= -1.00D+00 NBFU=   173
 Precomputing XC quadrature grid using
 IXCGrd= 4 IRadAn=           0 IRanWt=          -1 IRanGd=           0 AccXCQ= 0.00D+00.
 Generated NRdTot=       0 NPtTot=           0 NUsed=           0 NTot=          32
 NSgBfM=   191   191   191   191   191 MxSgAt=     7 MxSgA2=     7.
 Leave Link  302 at Wed Aug  3 20:32:12 2016, MaxMem=    33554432 cpu:         1.1
 (Enter /home/proyectos/fulerenos/M3C-v2.0/M3C-deps_CCC/g09-AM64L-G09RevC.01/l303.exe)
 DipDrv:  MaxL=1.
 Leave Link  303 at Wed Aug  3 20:32:12 2016, MaxMem=    33554432 cpu:         0.1
 (Enter /home/proyectos/fulerenos/M3C-v2.0/M3C-deps_CCC/g09-AM64L-G09RevC.01/l401.exe)
 ExpMin= 3.60D-02 ExpMax= 9.34D+04 ExpMxC= 3.17D+03 IAcc=3 IRadAn=         5 AccDes= 0.00D+00
 Harris functional with IExCor=  402 and IRadAn=       5 diagonalized for initial guess.
 HarFok:  IExCor=  402 AccDes= 0.00D+00 IRadAn=         5 IDoV= 1 UseB2=F ITyADJ=14
 ICtDFT=  3500011 ScaDFX=  1.000000  1.000000  1.000000  1.000000
 FoFCou: FMM=F IPFlag=           0 FMFlag=      100000 FMFlg1=           0
         NFxFlg=           0 DoJE=T BraDBF=F KetDBF=T FulRan=T
         wScrn=  0.000000 ICntrl=     500 IOpCl=  0 I1Cent=   200000004 NGrid=           0
         NMat0=    1 NMatS0=      1 NMatT0=    0 NMatD0=    1 NMtDS0=    0 NMtDT0=    0
 Petite list used in FoFCou.
 Harris En= -836.304033023301    
 JPrj=0 DoOrth=F DoCkMO=F.
 Initial guess <Sx>= 0.0000 <Sy>= 0.0000 <Sz>= 1.0000 <S**2>= 2.0000 S= 1.0000
 Leave Link  401 at Wed Aug  3 20:32:13 2016, MaxMem=    33554432 cpu:         5.7
 (Enter /home/proyectos/fulerenos/M3C-v2.0/M3C-deps_CCC/g09-AM64L-G09RevC.01/l502.exe)
 UHF open shell SCF:
 Using DIIS extrapolation, IDIIS=  1040.
 Integral symmetry usage will be decided dynamically.
 IVT=      130537 IEndB=      130537 NGot=    33554432 MDV=    33477208
 LenX=    33477208 LenY=    33440286
 Requested convergence on RMS density matrix=1.00D-08 within 128 cycles.
 Requested convergence on MAX density matrix=1.00D-06.
 Requested convergence on             energy=1.00D-06.
 No special actions if energy rises.
 Fock matrices will be formed incrementally for  20 cycles.

 Cycle   1  Pass 1  IDiag  1:
 FoFJK:  IHMeth= 1 ICntrl=       0 DoSepK=F KAlg= 0 I1Cent=   0 FoldK=F
 IRaf= 960000000 NMat=   1 IRICut=       1 DoRegI=T DoRafI=F ISym2E= 0.
 FoFCou: FMM=F IPFlag=           0 FMFlag=      100000 FMFlg1=           0
         NFxFlg=           0 DoJE=F BraDBF=F KetDBF=F FulRan=T
         wScrn=  0.000000 ICntrl=       0 IOpCl=  1 I1Cent=           0 NGrid=           0
         NMat0=    1 NMatS0=      1 NMatT0=    0 NMatD0=    1 NMtDS0=    0 NMtDT0=    0
 Symmetry not used in FoFCou.
 E= -835.961579995619    
 DIIS: error= 1.51D-02 at cycle   1 NSaved=   1.
 NSaved= 1 IEnMin= 1 EnMin= -835.961579995619     IErMin= 1 ErrMin= 1.51D-02
 ErrMax= 1.51D-02  0.00D+00 EMaxC= 1.00D-01 BMatC= 4.50D-01 BMatP= 4.50D-01
 IDIUse=3 WtCom= 8.49D-01 WtEn= 1.51D-01
 Coeff-Com:  0.100D+01
 Coeff-En:   0.100D+01
 Coeff:      0.100D+01
 Gap=     0.235 Goal=   None    Shift=    0.000
 Gap=     0.116 Goal=   None    Shift=    0.000
 GapD=    0.116 DampG=1.000 DampE=0.500 DampFc=0.5000 IDamp=-1.
 Damping current iteration by 5.00D-01
 RMSDP=3.11D-03 MaxDP=1.83D-01              OVMax= 2.21D-01

 Cycle   2  Pass 1  IDiag  1:
 RMSU=  1.55D-03    CP:  1.01D+00
 E= -836.002049799992     Delta-E=       -0.040469804373 Rises=F Damp=T
 DIIS: error= 5.01D-03 at cycle   2 NSaved=   2.
 NSaved= 2 IEnMin= 2 EnMin= -836.002049799992     IErMin= 2 ErrMin= 5.01D-03
 ErrMax= 5.01D-03  0.00D+00 EMaxC= 1.00D-01 BMatC= 3.86D-02 BMatP= 4.50D-01
 IDIUse=3 WtCom= 9.50D-01 WtEn= 5.01D-02
 Coeff-Com: -0.158D-01 0.102D+01
 Coeff-En:   0.295D-01 0.971D+00
 Coeff:     -0.135D-01 0.101D+01
 Gap=     0.263 Goal=   None    Shift=    0.000
 Gap=     0.161 Goal=   None    Shift=    0.000
 RMSDP=9.42D-04 MaxDP=3.26D-02 DE=-4.05D-02 OVMax= 1.34D-01

 Cycle   3  Pass 1  IDiag  1:
 RMSU=  9.26D-04    CP:  1.02D+00  1.09D+00
 E= -836.046896692335     Delta-E=       -0.044846892343 Rises=F Damp=F
 DIIS: error= 5.07D-03 at cycle   3 NSaved=   3.
 NSaved= 3 IEnMin= 3 EnMin= -836.046896692335     IErMin= 2 ErrMin= 5.01D-03
 ErrMax= 5.07D-03  0.00D+00 EMaxC= 1.00D-01 BMatC= 2.38D-02 BMatP= 3.86D-02
 IDIUse=3 WtCom= 9.49D-01 WtEn= 5.07D-02
 Coeff-Com: -0.881D-01 0.452D+00 0.636D+00
 Coeff-En:   0.000D+00 0.000D+00 0.100D+01
 Coeff:     -0.836D-01 0.429D+00 0.655D+00
 Gap=     0.244 Goal=   None    Shift=    0.000
 Gap=     0.151 Goal=   None    Shift=    0.000
 RMSDP=4.62D-04 MaxDP=2.50D-02 DE=-4.48D-02 OVMax= 4.89D-02

 Cycle   4  Pass 1  IDiag  1:
 RMSU=  3.93D-04    CP:  1.01D+00  1.15D+00  7.61D-01
 E= -836.052051725176     Delta-E=       -0.005155032842 Rises=F Damp=F
 DIIS: error= 2.53D-03 at cycle   4 NSaved=   4.
 NSaved= 4 IEnMin= 4 EnMin= -836.052051725176     IErMin= 4 ErrMin= 2.53D-03
 ErrMax= 2.53D-03  0.00D+00 EMaxC= 1.00D-01 BMatC= 6.24D-03 BMatP= 2.38D-02
 IDIUse=3 WtCom= 9.75D-01 WtEn= 2.53D-02
 Coeff-Com: -0.397D-01 0.666D-01 0.370D+00 0.603D+00
 Coeff-En:   0.000D+00 0.000D+00 0.190D+00 0.810D+00
 Coeff:     -0.387D-01 0.649D-01 0.366D+00 0.608D+00
 Gap=     0.249 Goal=   None    Shift=    0.000
 Gap=     0.154 Goal=   None    Shift=    0.000
 RMSDP=1.82D-04 MaxDP=8.90D-03 DE=-5.16D-03 OVMax= 1.61D-02

 Cycle   5  Pass 1  IDiag  1:
 RMSU=  1.01D-04    CP:  1.01D+00  1.16D+00  8.69D-01  7.17D-01
 E= -836.053682133351     Delta-E=       -0.001630408174 Rises=F Damp=F
 DIIS: error= 4.01D-04 at cycle   5 NSaved=   5.
 NSaved= 5 IEnMin= 5 EnMin= -836.053682133351     IErMin= 5 ErrMin= 4.01D-04
 ErrMax= 4.01D-04  0.00D+00 EMaxC= 1.00D-01 BMatC= 1.73D-04 BMatP= 6.24D-03
 IDIUse=3 WtCom= 9.96D-01 WtEn= 4.01D-03
 Coeff-Com: -0.109D-01 0.380D-02 0.107D+00 0.215D+00 0.685D+00
 Coeff-En:   0.000D+00 0.000D+00 0.000D+00 0.000D+00 0.100D+01
 Coeff:     -0.109D-01 0.379D-02 0.106D+00 0.214D+00 0.687D+00
 Gap=     0.249 Goal=   None    Shift=    0.000
 Gap=     0.155 Goal=   None    Shift=    0.000
 RMSDP=4.03D-05 MaxDP=1.22D-03 DE=-1.63D-03 OVMax= 4.49D-03

 Cycle   6  Pass 1  IDiag  1:
 RMSU=  3.44D-05    CP:  1.01D+00  1.16D+00  8.80D-01  7.55D-01  8.92D-01
 E= -836.053735330864     Delta-E=       -0.000053197513 Rises=F Damp=F
 DIIS: error= 1.38D-04 at cycle   6 NSaved=   6.
 NSaved= 6 IEnMin= 6 EnMin= -836.053735330864     IErMin= 6 ErrMin= 1.38D-04
 ErrMax= 1.38D-04  0.00D+00 EMaxC= 1.00D-01 BMatC= 1.69D-05 BMatP= 1.73D-04
 IDIUse=3 WtCom= 9.99D-01 WtEn= 1.38D-03
 Coeff-Com:  0.362D-02-0.743D-02-0.424D-01-0.761D-01 0.112D+00 0.101D+01
 Coeff-En:   0.000D+00 0.000D+00 0.000D+00 0.000D+00 0.000D+00 0.100D+01
 Coeff:      0.361D-02-0.742D-02-0.424D-01-0.760D-01 0.112D+00 0.101D+01
 Gap=     0.249 Goal=   None    Shift=    0.000
 Gap=     0.155 Goal=   None    Shift=    0.000
 RMSDP=2.09D-05 MaxDP=6.15D-04 DE=-5.32D-05 OVMax= 2.31D-03

 Cycle   7  Pass 1  IDiag  1:
 RMSU=  9.30D-06    CP:  1.01D+00  1.16D+00  8.87D-01  7.64D-01  1.05D+00
                    CP:  1.19D+00
 E= -836.053744310979     Delta-E=       -0.000008980115 Rises=F Damp=F
 DIIS: error= 3.35D-05 at cycle   7 NSaved=   7.
 NSaved= 7 IEnMin= 7 EnMin= -836.053744310979     IErMin= 7 ErrMin= 3.35D-05
 ErrMax= 3.35D-05  0.00D+00 EMaxC= 1.00D-01 BMatC= 1.21D-06 BMatP= 1.69D-05
 IDIUse=1 WtCom= 1.00D+00 WtEn= 0.00D+00
 Coeff-Com:  0.135D-02-0.207D-02-0.150D-01-0.235D-01-0.447D-02 0.186D+00
 Coeff-Com:  0.858D+00
 Coeff:      0.135D-02-0.207D-02-0.150D-01-0.235D-01-0.447D-02 0.186D+00
 Coeff:      0.858D+00
 Gap=     0.249 Goal=   None    Shift=    0.000
 Gap=     0.155 Goal=   None    Shift=    0.000
 RMSDP=5.43D-06 MaxDP=2.05D-04 DE=-8.98D-06 OVMax= 6.43D-04

 Cycle   8  Pass 1  IDiag  1:
 RMSU=  3.69D-06    CP:  1.01D+00  1.16D+00  8.88D-01  7.68D-01  1.07D+00
                    CP:  1.28D+00  1.02D+00
 E= -836.053744867733     Delta-E=       -0.000000556754 Rises=F Damp=F
 DIIS: error= 1.72D-05 at cycle   8 NSaved=   8.
 NSaved= 8 IEnMin= 8 EnMin= -836.053744867733     IErMin= 8 ErrMin= 1.72D-05
 ErrMax= 1.72D-05  0.00D+00 EMaxC= 1.00D-01 BMatC= 3.09D-07 BMatP= 1.21D-06
 IDIUse=1 WtCom= 1.00D+00 WtEn= 0.00D+00
 Coeff-Com: -0.596D-04 0.395D-03 0.169D-02 0.490D-02-0.198D-01-0.110D+00
 Coeff-Com:  0.303D+00 0.819D+00
 Coeff:     -0.596D-04 0.395D-03 0.169D-02 0.490D-02-0.198D-01-0.110D+00
 Coeff:      0.303D+00 0.819D+00
 Gap=     0.249 Goal=   None    Shift=    0.000
 Gap=     0.155 Goal=   None    Shift=    0.000
 RMSDP=2.48D-06 MaxDP=8.79D-05 DE=-5.57D-07 OVMax= 2.43D-04

 Cycle   9  Pass 1  IDiag  1:
 RMSU=  1.16D-06    CP:  1.01D+00  1.16D+00  8.88D-01  7.70D-01  1.08D+00
                    CP:  1.30D+00  1.21D+00  9.27D-01
 E= -836.053744992810     Delta-E=       -0.000000125077 Rises=F Damp=F
 DIIS: error= 4.54D-06 at cycle   9 NSaved=   9.
 NSaved= 9 IEnMin= 9 EnMin= -836.053744992810     IErMin= 9 ErrMin= 4.54D-06
 ErrMax= 4.54D-06  0.00D+00 EMaxC= 1.00D-01 BMatC= 2.58D-08 BMatP= 3.09D-07
 IDIUse=1 WtCom= 1.00D+00 WtEn= 0.00D+00
 Coeff-Com: -0.191D-03 0.406D-03 0.206D-02 0.287D-02-0.420D-02-0.346D-01
 Coeff-Com: -0.373D-01 0.157D+00 0.914D+00
 Coeff:     -0.191D-03 0.406D-03 0.206D-02 0.287D-02-0.420D-02-0.346D-01
 Coeff:     -0.373D-01 0.157D+00 0.914D+00
 Gap=     0.249 Goal=   None    Shift=    0.000
 Gap=     0.155 Goal=   None    Shift=    0.000
 RMSDP=7.97D-07 MaxDP=3.15D-05 DE=-1.25D-07 OVMax= 7.14D-05

 Cycle  10  Pass 1  IDiag  1:
 RMSU=  4.34D-07    CP:  1.01D+00  1.16D+00  8.88D-01  7.69D-01  1.08D+00
                    CP:  1.31D+00  1.24D+00  1.07D+00  1.03D+00
 E= -836.053745004840     Delta-E=       -0.000000012030 Rises=F Damp=F
 DIIS: error= 2.40D-06 at cycle  10 NSaved=  10.
 NSaved=10 IEnMin=10 EnMin= -836.053745004840     IErMin=10 ErrMin= 2.40D-06
 ErrMax= 2.40D-06  0.00D+00 EMaxC= 1.00D-01 BMatC= 4.81D-09 BMatP= 2.58D-08
 IDIUse=1 WtCom= 1.00D+00 WtEn= 0.00D+00
 Coeff-Com: -0.742D-04 0.125D-03 0.660D-03 0.498D-03 0.611D-03 0.351D-03
 Coeff-Com: -0.514D-01-0.528D-01 0.340D+00 0.762D+00
 Coeff:     -0.742D-04 0.125D-03 0.660D-03 0.498D-03 0.611D-03 0.351D-03
 Coeff:     -0.514D-01-0.528D-01 0.340D+00 0.762D+00
 Gap=     0.249 Goal=   None    Shift=    0.000
 Gap=     0.155 Goal=   None    Shift=    0.000
 RMSDP=2.60D-07 MaxDP=1.23D-05 DE=-1.20D-08 OVMax= 2.29D-05

 Cycle  11  Pass 1  IDiag  1:
 RMSU=  1.23D-07    CP:  1.01D+00  1.16D+00  8.88D-01  7.69D-01  1.08D+00
                    CP:  1.31D+00  1.25D+00  1.08D+00  1.18D+00  9.00D-01
 E= -836.053745006603     Delta-E=       -0.000000001763 Rises=F Damp=F
 DIIS: error= 3.97D-07 at cycle  11 NSaved=  11.
 NSaved=11 IEnMin=11 EnMin= -836.053745006603     IErMin=11 ErrMin= 3.97D-07
 ErrMax= 3.97D-07  0.00D+00 EMaxC= 1.00D-01 BMatC= 1.69D-10 BMatP= 4.81D-09
 IDIUse=1 WtCom= 1.00D+00 WtEn= 0.00D+00
 Coeff-Com:  0.119D-04-0.298D-04-0.116D-03-0.187D-03 0.425D-03 0.296D-02
 Coeff-Com: -0.275D-02-0.190D-01-0.320D-01 0.641D-01 0.987D+00
 Coeff:      0.119D-04-0.298D-04-0.116D-03-0.187D-03 0.425D-03 0.296D-02
 Coeff:     -0.275D-02-0.190D-01-0.320D-01 0.641D-01 0.987D+00
 Gap=     0.249 Goal=   None    Shift=    0.000
 Gap=     0.155 Goal=   None    Shift=    0.000
 RMSDP=7.67D-08 MaxDP=3.31D-06 DE=-1.76D-09 OVMax= 8.37D-06

 Cycle  12  Pass 1  IDiag  1:
 RMSU=  3.34D-08    CP:  1.01D+00  1.16D+00  8.88D-01  7.69D-01  1.08D+00
                    CP:  1.31D+00  1.25D+00  1.09D+00  1.21D+00  1.00D+00
                    CP:  1.18D+00
 E= -836.053745006713     Delta-E=       -0.000000000110 Rises=F Damp=F
 DIIS: error= 1.83D-07 at cycle  12 NSaved=  12.
 NSaved=12 IEnMin=12 EnMin= -836.053745006713     IErMin=12 ErrMin= 1.83D-07
 ErrMax= 1.83D-07  0.00D+00 EMaxC= 1.00D-01 BMatC= 2.80D-11 BMatP= 1.69D-10
 IDIUse=1 WtCom= 1.00D+00 WtEn= 0.00D+00
 Coeff-Com:  0.108D-04-0.203D-04-0.972D-04-0.969D-04 0.323D-04 0.750D-03
 Coeff-Com:  0.404D-02 0.165D-02-0.428D-01-0.646D-01 0.240D+00 0.861D+00
 Coeff:      0.108D-04-0.203D-04-0.972D-04-0.969D-04 0.323D-04 0.750D-03
 Coeff:      0.404D-02 0.165D-02-0.428D-01-0.646D-01 0.240D+00 0.861D+00
 Gap=     0.249 Goal=   None    Shift=    0.000
 Gap=     0.155 Goal=   None    Shift=    0.000
 RMSDP=2.49D-08 MaxDP=1.18D-06 DE=-1.10D-10 OVMax= 3.00D-06

 Cycle  13  Pass 1  IDiag  1:
 RMSU=  1.23D-08    CP:  1.01D+00  1.16D+00  8.88D-01  7.69D-01  1.08D+00
                    CP:  1.31D+00  1.25D+00  1.09D+00  1.22D+00  1.02D+00
                    CP:  1.30D+00  1.00D+00
 E= -836.053745006729     Delta-E=       -0.000000000016 Rises=F Damp=F
 DIIS: error= 5.43D-08 at cycle  13 NSaved=  13.
 NSaved=13 IEnMin=13 EnMin= -836.053745006729     IErMin=13 ErrMin= 5.43D-08
 ErrMax= 5.43D-08  0.00D+00 EMaxC= 1.00D-01 BMatC= 3.58D-12 BMatP= 2.80D-11
 IDIUse=1 WtCom= 1.00D+00 WtEn= 0.00D+00
 Coeff-Com:  0.259D-06 0.200D-06-0.497D-05 0.456D-05-0.393D-04-0.129D-03
 Coeff-Com:  0.993D-03 0.262D-02-0.572D-02-0.245D-01-0.530D-01 0.231D+00
 Coeff-Com:  0.849D+00
 Coeff:      0.259D-06 0.200D-06-0.497D-05 0.456D-05-0.393D-04-0.129D-03
 Coeff:      0.993D-03 0.262D-02-0.572D-02-0.245D-01-0.530D-01 0.231D+00
 Coeff:      0.849D+00
 Gap=     0.249 Goal=   None    Shift=    0.000
 Gap=     0.155 Goal=   None    Shift=    0.000
 RMSDP=8.93D-09 MaxDP=4.03D-07 DE=-1.59D-11 OVMax= 7.03D-07

 SCF Done:  E(UB3LYP) =  -836.053745007     A.U. after   13 cycles
            NFock= 13  Conv=0.89D-08     -V/T= 2.0016
 <Sx>= 0.0000 <Sy>= 0.0000 <Sz>= 1.0000 <S**2>= 2.0077 S= 1.0026
 <L.S>= 0.000000000000E+00
 KE= 8.347542492246D+02 PE=-2.247079836768D+03 EE= 4.357589028989D+02
 Annihilation of the first spin contaminant:
 S**2 before annihilation     2.0077,   after     2.0000
 Leave Link  502 at Wed Aug  3 20:33:04 2016, MaxMem=    33554432 cpu:       199.3
 (Enter /home/proyectos/fulerenos/M3C-v2.0/M3C-deps_CCC/g09-AM64L-G09RevC.01/l801.exe)
 DoSCS=F DFT=T ScalE2(SS,OS)=  1.000000  1.000000
 Range of M.O.s used for correlation:     1   173
 NBasis=   173 NAE=    21 NBE=    19 NFC=     0 NFV=     0
 NROrb=    173 NOA=    21 NOB=    19 NVA=   152 NVB=   154

 **** Warning!!: The largest alpha MO coefficient is  0.27433673D+02


 **** Warning!!: The largest beta MO coefficient is  0.29104717D+02

 Leave Link  801 at Wed Aug  3 20:33:04 2016, MaxMem=    33554432 cpu:         0.1
 (Enter /home/proyectos/fulerenos/M3C-v2.0/M3C-deps_CCC/g09-AM64L-G09RevC.01/l1101.exe)
 Using compressed storage, NAtomX=     7.
 Will process      8 centers per pass.
 Leave Link 1101 at Wed Aug  3 20:33:04 2016, MaxMem=    33554432 cpu:         1.1
 (Enter /home/proyectos/fulerenos/M3C-v2.0/M3C-deps_CCC/g09-AM64L-G09RevC.01/l1102.exe)
 Symmetrizing basis deriv contribution to polar:
 IMax=3 JMax=2 DiffMx= 0.00D+00
 Leave Link 1102 at Wed Aug  3 20:33:04 2016, MaxMem=    33554432 cpu:         0.1
 (Enter /home/proyectos/fulerenos/M3C-v2.0/M3C-deps_CCC/g09-AM64L-G09RevC.01/l1110.exe)
 Forming Gx(P) for the SCF density, NAtomX=     7.
 Integral derivatives from FoFJK, PRISM(SPDF).
 Do as many integral derivatives as possible in FoFJK.
 G2DrvN: MDV=      33554272.
 G2DrvN: will do     8 centers at a time, making    1 passes.
 Calling FoFCou, ICntrl=  3107 FMM=F I1Cent=   0 AccDes= 0.00D+00.
 FoFJK:  IHMeth= 1 ICntrl=    3107 DoSepK=F KAlg= 0 I1Cent=   0 FoldK=F
 IRaf=         0 NMat=   1 IRICut=       1 DoRegI=T DoRafI=F ISym2E= 0.
 FoFCou: FMM=F IPFlag=           0 FMFlag=      100000 FMFlg1=           0
         NFxFlg=           0 DoJE=F BraDBF=F KetDBF=F FulRan=T
         wScrn=  0.000000 ICntrl=    3107 IOpCl=  1 I1Cent=           0 NGrid=           0
         NMat0=    1 NMatS0=      1 NMatT0=    0 NMatD0=    1 NMtDS0=    0 NMtDT0=    0
 Symmetry not used in FoFCou.
 End of G2Drv F.D. properties file   721 does not exist.
 End of G2Drv F.D. properties file   722 does not exist.
 End of G2Drv F.D. properties file   788 does not exist.
 Leave Link 1110 at Wed Aug  3 20:33:40 2016, MaxMem=    33554432 cpu:       144.4
 (Enter /home/proyectos/fulerenos/M3C-v2.0/M3C-deps_CCC/g09-AM64L-G09RevC.01/l1002.exe)
 Minotr:  UHF open shell wavefunction.
          IDoAtm=1111111
          Direct CPHF calculation.
          Differentiating once with respect to electric field.
                with respect to dipole field.
          Differentiating once with respect to nuclear coordinates.
          Requested convergence is 1.0D-08 RMS, and 1.0D-07 maximum.
          Secondary convergence is 1.0D-12 RMS, and 1.0D-12 maximum.
          NewPWx=T KeepS1=F KeepF1=F KeepIn=T MapXYZ=F SortEE=F KeepMc=T.
          MDV=      33554012 using IRadAn=       2.
 Generate precomputed XC quadrature information.
          Solving linear equations simultaneously, MaxMat=       0.
 FoFJK:  IHMeth= 1 ICntrl=       0 DoSepK=F KAlg= 0 I1Cent=   0 FoldK=F
 IRaf= 960000000 NMat=  24 IRICut=      60 DoRegI=T DoRafI=T ISym2E= 2.
 FoFCou: FMM=F IPFlag=           0 FMFlag=      100000 FMFlg1=           0
         NFxFlg=           0 DoJE=F BraDBF=F KetDBF=F FulRan=T
         wScrn=  0.000000 ICntrl=       0 IOpCl=  1 I1Cent=           0 NGrid=           0
         NMat0=   24 NMatS0=     24 NMatT0=    0 NMatD0=   24 NMtDS0=    0 NMtDT0=    0
 Integrals replicated using symmetry in FoFCou.
          There are    24 degrees of freedom in the 1st order CPHF.  IDoFFX=6 NUNeed=     3.
     22 vectors produced by pass  0 Test12= 2.55D-14 4.17D-09 XBig12= 1.13D+02 3.37D+00.
 AX will form    22 AO Fock derivatives at one time.
     21 vectors produced by pass  1 Test12= 2.55D-14 4.17D-09 XBig12= 6.93D+00 5.73D-01.
     21 vectors produced by pass  2 Test12= 2.55D-14 4.17D-09 XBig12= 3.65D-01 1.26D-01.
     21 vectors produced by pass  3 Test12= 2.55D-14 4.17D-09 XBig12= 4.92D-03 1.12D-02.
     21 vectors produced by pass  4 Test12= 2.55D-14 4.17D-09 XBig12= 6.32D-05 1.47D-03.
     21 vectors produced by pass  5 Test12= 2.55D-14 4.17D-09 XBig12= 5.96D-07 1.47D-04.
     20 vectors produced by pass  6 Test12= 2.55D-14 4.17D-09 XBig12= 2.50D-09 7.22D-06.
      7 vectors produced by pass  7 Test12= 2.55D-14 4.17D-09 XBig12= 9.74D-12 4.17D-07.
      3 vectors produced by pass  8 Test12= 2.55D-14 4.17D-09 XBig12= 3.74D-14 2.01D-08.
      1 vectors produced by pass  9 Test12= 2.55D-14 4.17D-09 XBig12= 4.68D-16 5.05D-09.
 InvSVY:  IOpt=1 It=  1 EMax= 8.88D-15
 Solved reduced A of dimension   158 with    24 vectors.
 FullF1:  Do perturbations    1 to     3.
 Isotropic polarizability for W=    0.000000       42.51 Bohr**3.
 End of Minotr F.D. properties file   721 does not exist.
 End of Minotr F.D. properties file   722 does not exist.
 End of Minotr F.D. properties file   788 does not exist.
 Leave Link 1002 at Wed Aug  3 20:35:18 2016, MaxMem=    33554432 cpu:       391.2
 (Enter /home/proyectos/fulerenos/M3C-v2.0/M3C-deps_CCC/g09-AM64L-G09RevC.01/l601.exe)
 Copying SCF densities to generalized density rwf, IOpCl= 1 IROHF=0.

 **********************************************************************

            Population analysis using the SCF density.

 **********************************************************************

 Orbital symmetries:
 Alpha Orbitals:
       Occupied  (A) (A) (A) (A) (A) (A) (A) (A) (A) (A) (A) (A)
                 (A) (A) (A) (A) (A) (A) (A) (A) (A)
       Virtual   (A) (A) (A) (A) (A) (A) (A) (A) (A) (A) (A) (A)
                 (A) (A) (A) (A) (A) (A) (A) (A) (A) (A) (A) (A)
                 (A) (A) (A) (A) (A) (A) (A) (A) (A) (A) (A) (A)
                 (A) (A) (A) (A) (A) (A) (A) (A) (A) (A) (A) (A)
                 (A) (A) (A) (A) (A) (A) (A) (A) (A) (A) (A) (A)
                 (A) (A) (A) (A) (A) (A) (A) (A) (A) (A) (A) (A)
                 (A) (A) (A) (A) (A) (A) (A) (A) (A) (A) (A) (A)
                 (A) (A) (A) (A) (A) (A) (A) (A) (A) (A) (A) (A)
                 (A) (A) (A) (A) (A) (A) (A) (A) (A) (A) (A) (A)
                 (A) (A) (A) (A) (A) (A) (A) (A) (A) (A) (A) (A)
                 (A) (A) (A) (A) (A) (A) (A) (A) (A) (A) (A) (A)
                 (A) (A) (A) (A) (A) (A) (A) (A) (A) (A) (A) (A)
                 (A) (A) (A) (A) (A) (A) (A) (A)
 Beta  Orbitals:
       Occupied  (A) (A) (A) (A) (A) (A) (A) (A) (A) (A) (A) (A)
                 (A) (A) (A) (A) (A) (A) (A)
       Virtual   (A) (A) (A) (A) (A) (A) (A) (A) (A) (A) (A) (A)
                 (A) (A) (A) (A) (A) (A) (A) (A) (A) (A) (A) (A)
                 (A) (A) (A) (A) (A) (A) (A) (A) (A) (A) (A) (A)
                 (A) (A) (A) (A) (A) (A) (A) (A) (A) (A) (A) (A)
                 (A) (A) (A) (A) (A) (A) (A) (A) (A) (A) (A) (A)
                 (A) (A) (A) (A) (A) (A) (A) (A) (A) (A) (A) (A)
                 (A) (A) (A) (A) (A) (A) (A) (A) (A) (A) (A) (A)
                 (A) (A) (A) (A) (A) (A) (A) (A) (A) (A) (A) (A)
                 (A) (A) (A) (A) (A) (A) (A) (A) (A) (A) (A) (A)
                 (A) (A) (A) (A) (A) (A) (A) (A) (A) (A) (A) (A)
                 (A) (A) (A) (A) (A) (A) (A) (A) (A) (A) (A) (A)
                 (A) (A) (A) (A) (A) (A) (A) (A) (A) (A) (A) (A)
                 (A) (A) (A) (A) (A) (A) (A) (A) (A) (A)
 The electronic state is 3-A.
 Alpha  occ. eigenvalues --  -89.41243 -89.38621 -10.71325  -8.49089  -8.46793
 Alpha  occ. eigenvalues --   -6.45950  -6.45023  -6.44671  -6.43052  -6.42815
 Alpha  occ. eigenvalues --   -6.42402  -1.32087  -1.25416  -1.08622  -0.94201
 Alpha  occ. eigenvalues --   -0.92918  -0.91630  -0.85715  -0.80782  -0.77810
 Alpha  occ. eigenvalues --   -0.71230
 Alpha virt. eigenvalues --   -0.46295  -0.42245  -0.41757  -0.41212  -0.36697
 Alpha virt. eigenvalues --   -0.31061  -0.28434  -0.27136  -0.26584  -0.25516
 Alpha virt. eigenvalues --   -0.25068  -0.23890  -0.23557  -0.21395  -0.20350
 Alpha virt. eigenvalues --   -0.19775  -0.18880  -0.18490  -0.16732  -0.14194
 Alpha virt. eigenvalues --   -0.13549  -0.12845  -0.12050  -0.11669  -0.10347
 Alpha virt. eigenvalues --   -0.08693  -0.06923  -0.06213  -0.05081  -0.03132
 Alpha virt. eigenvalues --   -0.02157  -0.01222   0.00043   0.01525   0.03735
 Alpha virt. eigenvalues --    0.04562   0.05264   0.07474   0.09117   0.11152
 Alpha virt. eigenvalues --    0.12896   0.15120   0.17455   0.20025   0.22491
 Alpha virt. eigenvalues --    0.24794   0.26108   0.29515   0.30749   0.33448
 Alpha virt. eigenvalues --    0.37709   0.39973   0.40437   0.42608   0.44805
 Alpha virt. eigenvalues --    0.46872   0.49255   0.51159   0.52687   0.53904
 Alpha virt. eigenvalues --    0.54816   0.56660   0.58512   0.60134   0.61759
 Alpha virt. eigenvalues --    0.62399   0.66368   0.66684   0.69146   0.76150
 Alpha virt. eigenvalues --    0.82791   0.88995   0.96244   0.96785   1.01118
 Alpha virt. eigenvalues --    1.08206   1.10437   1.12824   1.17274   1.19689
 Alpha virt. eigenvalues --    1.20453   1.23320   1.25748   1.31243   1.32059
 Alpha virt. eigenvalues --    1.35053   1.36697   1.41867   1.48590   1.51564
 Alpha virt. eigenvalues --    1.54425   1.55250   1.62148   1.67892   1.70884
 Alpha virt. eigenvalues --    1.71641   1.77372   1.86298   1.94709   2.00633
 Alpha virt. eigenvalues --    2.19567   2.28063   2.29102   2.36505   2.36524
 Alpha virt. eigenvalues --    2.54435   2.61460   2.65621   2.71008   2.81773
 Alpha virt. eigenvalues --    2.82878   2.95960   2.99909   3.22714   3.36252
 Alpha virt. eigenvalues --    3.40699   3.42485   3.44236   3.46954   3.54169
 Alpha virt. eigenvalues --    3.58164   3.60281   3.61540   3.79570   3.92266
 Alpha virt. eigenvalues --    4.10024   4.16746   4.23081   4.23791   4.26336
 Alpha virt. eigenvalues --    4.42650   4.50162   4.75247   5.04727   5.07361
 Alpha virt. eigenvalues --    5.08999   6.55122   6.65819   6.74409   6.91494
 Alpha virt. eigenvalues --    7.06475   7.72610   7.78924  16.83346  16.90973
 Alpha virt. eigenvalues --   16.98316  17.06333  17.25173  17.31398  23.32803
 Alpha virt. eigenvalues --  188.65087 188.78970
  Beta  occ. eigenvalues --  -89.40604 -89.38624 -10.69900  -8.48489  -8.46787
  Beta  occ. eigenvalues --   -6.44693  -6.44293  -6.43936  -6.43026  -6.42826
  Beta  occ. eigenvalues --   -6.42403  -1.29338  -1.23091  -1.05004  -0.92439
  Beta  occ. eigenvalues --   -0.91368  -0.90055  -0.83206  -0.79685
  Beta virt. eigenvalues --   -0.64147  -0.56773  -0.44276  -0.41453  -0.40694
  Beta virt. eigenvalues --   -0.39450  -0.34929  -0.30349  -0.27233  -0.26756
  Beta virt. eigenvalues --   -0.26014  -0.24856  -0.23437  -0.22977  -0.22453
  Beta virt. eigenvalues --   -0.20527  -0.19482  -0.19025  -0.18032  -0.17429
  Beta virt. eigenvalues --   -0.16208  -0.13969  -0.13178  -0.12292  -0.11585
  Beta virt. eigenvalues --   -0.10608  -0.10140  -0.08431  -0.06409  -0.05574
  Beta virt. eigenvalues --   -0.04710  -0.02313  -0.01497  -0.00555   0.00762
  Beta virt. eigenvalues --    0.02022   0.04309   0.05651   0.06685   0.08117
  Beta virt. eigenvalues --    0.09731   0.12666   0.13632   0.15700   0.18488
  Beta virt. eigenvalues --    0.20873   0.23182   0.25448   0.29076   0.30598
  Beta virt. eigenvalues --    0.31542   0.34572   0.38488   0.40902   0.41474
  Beta virt. eigenvalues --    0.42945   0.45579   0.47882   0.50561   0.53285
  Beta virt. eigenvalues --    0.53980   0.55008   0.55447   0.58534   0.60643
  Beta virt. eigenvalues --    0.61254   0.62276   0.62999   0.67199   0.67765
  Beta virt. eigenvalues --    0.69945   0.76853   0.83342   0.90505   0.96935
  Beta virt. eigenvalues --    0.98089   1.02799   1.11878   1.12342   1.15082
  Beta virt. eigenvalues --    1.20031   1.22772   1.23140   1.25403   1.28858
  Beta virt. eigenvalues --    1.32308   1.33581   1.36092   1.39249   1.45245
  Beta virt. eigenvalues --    1.50380   1.52176   1.55546   1.57406   1.64817
  Beta virt. eigenvalues --    1.69167   1.71556   1.72381   1.77832   1.88062
  Beta virt. eigenvalues --    1.95855   2.01698   2.22342   2.30141   2.30633
  Beta virt. eigenvalues --    2.37439   2.42836   2.58262   2.65832   2.70572
  Beta virt. eigenvalues --    2.74147   2.83372   2.86052   2.97009   3.00811
  Beta virt. eigenvalues --    3.23738   3.37781   3.41473   3.43370   3.44975
  Beta virt. eigenvalues --    3.47966   3.55179   3.59137   3.61124   3.62156
  Beta virt. eigenvalues --    3.80978   3.92692   4.11576   4.16833   4.24001
  Beta virt. eigenvalues --    4.24528   4.26942   4.43586   4.52303   4.76326
  Beta virt. eigenvalues --    5.05284   5.07661   5.09893   6.61893   6.72375
  Beta virt. eigenvalues --    6.82597   6.92815   7.07535   7.73646   7.79409
  Beta virt. eigenvalues --   16.85746  16.91497  16.98319  17.06569  17.25591
  Beta virt. eigenvalues --   17.31558  23.34385 188.65632 188.79017
          Condensed to atoms (all electrons):
               1          2          3          4          5          6
     1  S   15.003740  -0.037195   0.216250   0.306230   0.011494  -0.035798
     2  S   -0.037195  14.852166   0.324610   0.005140   0.319580  -0.022844
     3  C    0.216250   0.324610   4.958845   0.005059  -0.007414   0.392826
     4  H    0.306230   0.005140   0.005059   0.407109  -0.000495  -0.001770
     5  H    0.011494   0.319580  -0.007414  -0.000495   0.415609  -0.000557
     6  H   -0.035798  -0.022844   0.392826  -0.001770  -0.000557   0.397543
     7  H    0.292260   0.005306   0.007247  -0.002562  -0.001196  -0.000015
               7
     1  S    0.292260
     2  S    0.005306
     3  C    0.007247
     4  H   -0.002562
     5  H   -0.001196
     6  H   -0.000015
     7  H    0.412682
          Atomic-Atomic Spin Densities.
               1          2          3          4          5          6
     1  S    0.002916   0.007287   0.010322   0.010322  -0.003398   0.000064
     2  S    0.007287   0.954159  -0.008173   0.000079   0.011486  -0.000874
     3  C    0.010322  -0.008173   0.894091  -0.006593  -0.016479   0.014252
     4  H    0.010322   0.000079  -0.006593   0.024845  -0.000099  -0.000633
     5  H   -0.003398   0.011486  -0.016479  -0.000099   0.061264   0.001319
     6  H    0.000064  -0.000874   0.014252  -0.000633   0.001319  -0.007690
     7  H    0.002446  -0.000324  -0.008351  -0.003977   0.000449   0.001031
               7
     1  S    0.002446
     2  S   -0.000324
     3  C   -0.008351
     4  H   -0.003977
     5  H    0.000449
     6  H    0.001031
     7  H    0.050101
 Mulliken charges and spin densities:
               1          2
     1  S    0.243020   0.029960
     2  S    0.553238   0.963641
     3  C    0.102577   0.879069
     4  H    0.281289   0.023945
     5  H    0.262980   0.054542
     6  H    0.270616   0.007469
     7  H    0.286280   0.041375
 Sum of Mulliken charges =   2.00000   2.00000
 Mulliken charges and spin densities with hydrogens summed into heavy atoms:
               1          2
     1  S    0.810589   0.095280
     2  S    0.816218   1.018183
     3  C    0.373193   0.886538
 APT charges:
               1
     1  S    0.546024
     2  S    0.679973
     3  C   -0.025390
     4  H    0.207184
     5  H    0.224401
     6  H    0.167423
     7  H    0.200385
 Sum of APT charges =   2.00000
 APT charges with hydrogens summed into heavy atoms:
               1
     1  S    0.953593
     2  S    0.904375
     3  C    0.142033
 Electronic spatial extent (au):  <R**2>=            396.2578
 Charge=              2.0000 electrons
 Dipole moment (field-independent basis, Debye):
    X=              0.7758    Y=              1.3734    Z=              1.3441  Tot=              2.0724
 Quadrupole moment (field-independent basis, Debye-Ang):
   XX=              2.7497   YY=            -23.4933   ZZ=            -22.9976
   XY=              2.5981   XZ=             -2.1138   YZ=             -0.8645
 Traceless Quadrupole moment (field-independent basis, Debye-Ang):
   XX=             17.3301   YY=             -8.9129   ZZ=             -8.4172
   XY=              2.5981   XZ=             -2.1138   YZ=             -0.8645
 Octapole moment (field-independent basis, Debye-Ang**2):
  XXX=              8.2576  YYY=              5.8553  ZZZ=              4.2734  XYY=             -0.1951
  XXY=             -0.1507  XXZ=              6.2974  XZZ=              2.0794  YZZ=             -0.1926
  YYZ=             -0.0810  XYZ=              0.0090
 Hexadecapole moment (field-independent basis, Debye-Ang**3):
 XXXX=           -244.6334 YYYY=            -43.2236 ZZZZ=            -31.4311 XXXY=             14.2278
 XXXZ=            -11.2671 YYYX=              2.0345 YYYZ=             -0.7259 ZZZX=             -4.0045
 ZZZY=             -1.3985 XXYY=            -65.9801 XXZZ=            -45.4444 YYZZ=            -15.5233
 XXYZ=             -4.3194 YYXZ=             -1.3942 ZZXY=              4.4894
 N-N= 1.405129396382D+02 E-N=-2.247079840233D+03  KE= 8.347542492246D+02
  Exact polarizability:  59.360   2.785  33.870  -1.349  -0.705  34.293
 Approx polarizability:  85.560   5.422  54.155  -1.689  -1.364  56.474
                          Isotropic Fermi Contact Couplings
        Atom                 a.u.       MegaHertz       Gauss      10(-4) cm-1
     1  S(33)              0.00688       1.18110       0.42145       0.39397
     2  S(33)              0.17885      30.71433      10.95963      10.24520
     3  C(13)              0.07236      40.67253      14.51297      13.56689
     4  H(1)               0.01228      27.45226       9.79565       9.15709
     5  H(1)               0.02798      62.53702      22.31476      20.86011
     6  H(1)               0.00799      17.84828       6.36871       5.95355
     7  H(1)               0.02171      48.53084      17.31701      16.18815
 --------------------------------------------------------
       Center         ----  Spin Dipole Couplings  ----
                      3XX-RR        3YY-RR        3ZZ-RR
 --------------------------------------------------------
     1   Atom        0.091496      0.003486     -0.094982
     2   Atom       -1.318072      3.659078     -2.341005
     3   Atom       -0.596631     -0.567916      1.164547
     4   Atom        0.014426     -0.006626     -0.007800
     5   Atom       -0.024053     -0.011102      0.035155
     6   Atom       -0.067064      0.085357     -0.018293
     7   Atom        0.012783     -0.009986     -0.002796
 --------------------------------------------------------
                        XY            XZ            YZ
 --------------------------------------------------------
     1   Atom       -0.089750     -0.025726      0.008223
     2   Atom       -2.616890      0.082002      0.011670
     3   Atom        0.003372     -0.003513     -0.029941
     4   Atom        0.001773     -0.009062     -0.003520
     5   Atom       -0.006191     -0.027239     -0.011744
     6   Atom        0.006330      0.000223     -0.001001
     7   Atom       -0.002752      0.010674      0.002717
 --------------------------------------------------------


 ---------------------------------------------------------------------------------
              Anisotropic Spin Dipole Couplings in Principal Axis System
 ---------------------------------------------------------------------------------

       Atom             a.u.   MegaHertz   Gauss  10(-4) cm-1        Axes

              Baa    -0.0987    -4.047    -1.444    -1.350  0.1635  0.0644  0.9844
     1 S(33)  Bbb    -0.0515    -2.113    -0.754    -0.705  0.5081  0.8498 -0.1400
              Bcc     0.1502     6.160     2.198     2.055  0.8456 -0.5231 -0.1063
 
              Baa    -2.4851  -101.888   -36.356   -33.986  0.8041  0.3434 -0.4853
     2 S(33)  Bbb    -2.2967   -94.162   -33.599   -31.409  0.4449  0.1938  0.8743
              Bcc     4.7818   196.050    69.956    65.395 -0.3943  0.9190 -0.0030
 
              Baa    -0.5970   -80.115   -28.587   -26.723  0.9934 -0.1151  0.0000
     3 C(13)  Bbb    -0.5680   -76.227   -27.200   -25.427  0.1151  0.9932  0.0174
              Bcc     1.1651   156.341    55.787    52.150 -0.0020 -0.0173  0.9998
 
              Baa    -0.0124    -6.604    -2.356    -2.203  0.2604  0.4443  0.8572
     4 H(1)   Bbb    -0.0056    -2.993    -1.068    -0.998 -0.2522  0.8883 -0.3838
              Bcc     0.0180     9.597     3.424     3.201  0.9320  0.1163 -0.3434
 
              Baa    -0.0385   -20.532    -7.326    -6.849  0.8573  0.3541  0.3736
     5 H(1)   Bbb    -0.0086    -4.602    -1.642    -1.535 -0.3848  0.9230  0.0082
              Bcc     0.0471    25.133     8.968     8.384 -0.3419 -0.1508  0.9275
 
              Baa    -0.0673   -35.923   -12.818   -11.983  0.9991 -0.0415 -0.0054
     6 H(1)   Bbb    -0.0183    -9.764    -3.484    -3.257  0.0058  0.0093  0.9999
              Bcc     0.0856    45.688    16.302    15.240  0.0414  0.9991 -0.0095
 
              Baa    -0.0129    -6.886    -2.457    -2.297  0.3067  0.7870 -0.5353
     7 H(1)   Bbb    -0.0054    -2.857    -1.019    -0.953 -0.3284  0.6154  0.7166
              Bcc     0.0183     9.743     3.477     3.250  0.8934 -0.0440  0.4472
 

 ---------------------------------------------------------------------------------

 No NMR shielding tensors so no spin-rotation constants.
 Leave Link  601 at Wed Aug  3 20:35:18 2016, MaxMem=    33554432 cpu:         1.3
 (Enter /home/proyectos/fulerenos/M3C-v2.0/M3C-deps_CCC/g09-AM64L-G09RevC.01/l701.exe)
 Compute integral second derivatives.
 ... and contract with generalized density number  0.
 Leave Link  701 at Wed Aug  3 20:35:19 2016, MaxMem=    33554432 cpu:         1.0
 (Enter /home/proyectos/fulerenos/M3C-v2.0/M3C-deps_CCC/g09-AM64L-G09RevC.01/l702.exe)
 L702 exits ... SP integral derivatives will be done elsewhere.
 Leave Link  702 at Wed Aug  3 20:35:19 2016, MaxMem=    33554432 cpu:         0.1
 (Enter /home/proyectos/fulerenos/M3C-v2.0/M3C-deps_CCC/g09-AM64L-G09RevC.01/l703.exe)
 Compute integral second derivatives, UseDBF=F ICtDFT=           0.
 Integral derivatives from FoFJK, PRISM(SPDF).
 Calling FoFJK, ICntrl=    100127 FMM=F ISym2X=0 I1Cent= 0 IOpClX= 1 NMat=1 NMatS=1 NMatT=0.
 FoFJK:  IHMeth= 1 ICntrl=  100127 DoSepK=F KAlg= 0 I1Cent=   0 FoldK=F
 IRaf=         0 NMat=   1 IRICut=       1 DoRegI=T DoRafI=F ISym2E= 0.
 FoFCou: FMM=F IPFlag=           0 FMFlag=      100000 FMFlg1=         800
         NFxFlg=           0 DoJE=F BraDBF=F KetDBF=F FulRan=T
         wScrn=  0.000000 ICntrl=  100127 IOpCl=  1 I1Cent=           0 NGrid=           0
         NMat0=    1 NMatS0=      1 NMatT0=    0 NMatD0=    1 NMtDS0=    0 NMtDT0=    0
 Symmetry not used in FoFCou.
 Leave Link  703 at Wed Aug  3 20:35:59 2016, MaxMem=    33554432 cpu:       160.9
 (Enter /home/proyectos/fulerenos/M3C-v2.0/M3C-deps_CCC/g09-AM64L-G09RevC.01/l716.exe)
 Dipole        = 3.05234163D-01 5.40330756D-01 5.28815823D-01
 Polarizability= 5.93603551D+01 2.78452981D+00 3.38695641D+01
                -1.34891725D+00-7.05331202D-01 3.42927457D+01
 Full mass-weighted force constant matrix:
 Low frequencies ---  -31.7436  -10.9431   -6.8242   -0.0038   -0.0023   -0.0012
 Low frequencies ---   16.2340  242.2657  310.2341
 ******    1 imaginary frequencies (negative Signs) ****** 
 Diagonal vibrational polarizability:
       31.7840316      29.2713091   15241.1770438
 Harmonic frequencies (cm**-1), IR intensities (KM/Mole), Raman scattering
 activities (A**4/AMU), depolarization ratios for plane and unpolarized
 incident light, reduced masses (AMU), force constants (mDyne/A),
 and normal coordinates:
                      1                      2                      3
                      A                      A                      A
 Frequencies --     -5.7772               242.2644               310.2324
 Red. masses --      1.1041                10.9865                 1.4380
 Frc consts  --      0.0000                 0.3799                 0.0815
 IR Inten    --     18.9594                 0.4866                29.4549
  Atom  AN      X      Y      Z        X      Y      Z        X      Y      Z
     1  16     0.00   0.01  -0.02     0.35   0.05   0.01     0.00   0.00  -0.03
     2  16     0.00  -0.01   0.03    -0.34   0.10   0.00     0.01  -0.02  -0.02
     3   6     0.00   0.01  -0.07    -0.02  -0.44  -0.06    -0.00  -0.01   0.18
     4   1     0.21   0.35   0.52    -0.01   0.37   0.06    -0.11   0.03  -0.09
     5   1    -0.02   0.21   0.04    -0.27   0.19   0.03    -0.48   0.69  -0.07
     6   1     0.00   0.00  -0.27    -0.03  -0.43   0.08     0.00  -0.02  -0.45
     7   1    -0.26  -0.51   0.34     0.05   0.32   0.04     0.15  -0.02  -0.08
                      4                      5                      6
                      A                      A                      A
 Frequencies --    557.5877               586.4288               762.5988
 Red. masses --      1.3860                 2.6001                 3.0518
 Frc consts  --      0.2539                 0.5268                 1.0457
 IR Inten    --     31.4441                 4.6486                 2.6972
  Atom  AN      X      Y      Z        X      Y      Z        X      Y      Z
     1  16    -0.04   0.02   0.00     0.08  -0.04  -0.00    -0.09   0.09   0.01
     2  16     0.05   0.00   0.01    -0.10  -0.08  -0.01    -0.08  -0.03  -0.02
     3   6     0.01  -0.12  -0.08     0.02   0.28  -0.03     0.33  -0.09   0.03
     4   1    -0.12   0.09   0.01     0.25  -0.19  -0.03     0.30  -0.33  -0.12
     5   1    -0.15   0.60   0.02    -0.13   0.44   0.03     0.50   0.12   0.10
     6   1    -0.02  -0.11   0.74     0.02   0.29   0.64     0.21  -0.10  -0.11
     7   1    -0.05   0.05  -0.01     0.23  -0.21  -0.01     0.40  -0.39  -0.00
                      7                      8                      9
                      A                      A                      A
 Frequencies --    866.1835               867.8297               905.1223
 Red. masses --      1.1298                 1.0712                 1.4021
 Frc consts  --      0.4994                 0.4753                 0.6768
 IR Inten    --     17.6842                 3.5569                16.6468
  Atom  AN      X      Y      Z        X      Y      Z        X      Y      Z
     1  16    -0.00   0.02   0.02    -0.01   0.02  -0.02    -0.02  -0.02   0.00
     2  16     0.01   0.01   0.02     0.00   0.00   0.02    -0.02  -0.02   0.01
     3   6    -0.02  -0.02  -0.08     0.05  -0.02   0.01     0.17   0.05  -0.03
     4   1    -0.08  -0.06  -0.11     0.55  -0.38  -0.01    -0.50   0.46   0.13
     5   1    -0.55  -0.29  -0.13    -0.53  -0.17  -0.11    -0.42  -0.21  -0.10
     6   1    -0.12  -0.02  -0.01    -0.01  -0.02   0.06     0.39   0.05   0.01
     7   1     0.57  -0.46  -0.04    -0.42   0.19   0.09    -0.15   0.29  -0.06
                     10                     11                     12
                      A                      A                      A
 Frequencies --   1149.8448              1176.8074              2422.5891
 Red. masses --      1.0761                 1.1049                 1.0394
 Frc consts  --      0.8382                 0.9015                 3.5942
 IR Inten    --      4.5040                 4.0381               125.5751
  Atom  AN      X      Y      Z        X      Y      Z        X      Y      Z
     1  16     0.02   0.02   0.00    -0.02   0.00  -0.00     0.00   0.00   0.00
     2  16     0.00  -0.01  -0.00     0.00  -0.00   0.00     0.01   0.00  -0.03
     3   6    -0.06  -0.01  -0.00    -0.09  -0.02  -0.00     0.00   0.00   0.00
     4   1    -0.25  -0.22  -0.43     0.37   0.06   0.35    -0.01  -0.01   0.01
     5   1     0.01   0.00   0.01     0.00  -0.00   0.01    -0.21  -0.09   0.97
     6   1     0.64  -0.01   0.02     0.70  -0.02   0.01    -0.00  -0.00  -0.00
     7   1    -0.30  -0.34   0.29     0.37   0.19  -0.26    -0.02  -0.01  -0.03
                     13                     14                     15
                      A                      A                      A
 Frequencies --   2491.7887              2513.0131              3056.3379
 Red. masses --      1.0381                 1.0385                 1.0845
 Frc consts  --      3.7976                 3.8640                 5.9686
 IR Inten    --    145.7424               148.2814               125.3494
  Atom  AN      X      Y      Z        X      Y      Z        X      Y      Z
     1  16    -0.01  -0.01  -0.03    -0.01  -0.02   0.02    -0.00   0.00   0.00
     2  16     0.00   0.00  -0.00     0.00   0.00  -0.00    -0.00  -0.00  -0.00
     3   6    -0.00   0.00   0.00    -0.00   0.00  -0.00     0.00  -0.08   0.00
     4   1     0.01   0.00  -0.03     0.47   0.64  -0.61     0.00   0.00  -0.00
     5   1    -0.01  -0.00   0.04    -0.00  -0.00   0.02    -0.00  -0.00   0.00
     6   1     0.00  -0.00   0.00     0.00  -0.01  -0.01     0.01   1.00  -0.01
     7   1     0.39   0.36   0.84    -0.01  -0.02  -0.01     0.00   0.00   0.00

 -------------------
 - Thermochemistry -
 -------------------
 Temperature   298.150 Kelvin.  Pressure   1.00000 Atm.
 Atom     1 has atomic number 16 and mass  31.97207
 Atom     2 has atomic number 16 and mass  31.97207
 Atom     3 has atomic number  6 and mass  12.00000
 Atom     4 has atomic number  1 and mass   1.00783
 Atom     5 has atomic number  1 and mass   1.00783
 Atom     6 has atomic number  1 and mass   1.00783
 Atom     7 has atomic number  1 and mass   1.00783
 Molecular mass:    79.97544 amu.
 Principal axes and moments of inertia in atomic units:
                           1         2         3
     Eigenvalues --    52.59793 617.52446 642.91038
           X            0.99983   0.01391  -0.01218
           Y           -0.01472   0.99753  -0.06864
           Z            0.01119   0.06880   0.99757
 This molecule is an asymmetric top.
 Rotational symmetry number  1.
 Rotational temperatures (Kelvin)      1.64672     0.14026     0.13472
 Rotational constants (GHZ):          34.31202     2.92254     2.80714
    1 imaginary frequencies ignored.
 Zero-point vibrational energy     107117.4 (Joules/Mol)
                                   25.60167 (Kcal/Mol)
 Warning -- explicit consideration of   4 degrees of freedom as
           vibrations may cause significant error
 Vibrational temperatures:    348.56   446.35   802.24   843.74  1097.21
          (Kelvin)           1246.24  1248.61  1302.27  1654.37  1693.16
                             3485.56  3585.12  3615.66  4397.38
 
 Zero-point correction=                           0.040799 (Hartree/Particle)
 Thermal correction to Energy=                    0.045193
 Thermal correction to Enthalpy=                  0.046137
 Thermal correction to Gibbs Free Energy=         0.012533
 Sum of electronic and zero-point Energies=           -836.012946
 Sum of electronic and thermal Energies=              -836.008552
 Sum of electronic and thermal Enthalpies=            -836.007608
 Sum of electronic and thermal Free Energies=         -836.041212
 
                     E (Thermal)             CV                S
                      KCal/Mol        Cal/Mol-Kelvin    Cal/Mol-Kelvin
 Total                   28.359             14.342             70.726
 Electronic               0.000              0.000              2.183
 Translational            0.889              2.981             39.052
 Rotational               0.889              2.981             24.549
 Vibrational             26.582              8.381              4.942
 Vibration     1          0.658              1.776              1.786
 Vibration     2          0.699              1.654              1.361
 Vibration     3          0.913              1.123              0.529
 Vibration     4          0.944              1.061              0.474
                       Q            Log10(Q)             Ln(Q)
 Total Bot       0.171900D-05         -5.764724        -13.273766
 Total V=0       0.100325D+14         13.001408         29.936849
 Vib (Bot)       0.394032D-18        -18.404468        -42.377854
 Vib (Bot)    1  0.808529D+00         -0.092304         -0.212539
 Vib (Bot)    2  0.609438D+00         -0.215070         -0.495218
 Vib (Bot)    3  0.279395D+00         -0.553781         -1.275128
 Vib (Bot)    4  0.258173D+00         -0.588090         -1.354126
 Vib (V=0)       0.229966D+01          0.361664          0.832762
 Vib (V=0)    1  0.145064D+01          0.161560          0.372006
 Vib (V=0)    2  0.128830D+01          0.110017          0.253322
 Vib (V=0)    3  0.107277D+01          0.030505          0.070241
 Vib (V=0)    4  0.106272D+01          0.026419          0.060831
 Electronic      0.300000D+01          0.477121          1.098612
 Translational   0.281119D+08          7.448890         17.151704
 Rotational      0.517289D+05          4.713733         10.853771
 
                                                              b3lyp opt
                                                             IR Spectrum
 
      3                     22  2                                                   11                                               
      0                     54  4                                                   11         988   7      55          3 2          
      5                     19  2                                                   75         066   6      85          1 4          
      6                     32  3                                                   70         586   3      68          0 2          
 
      X                     XX  X                                                   XX         XXX   X      XX          X X          
      X                     XX  X                                                              X X           X          X            
      X                     XX  X                                                                            X          X            
      X                     XX  X                                                                            X          X            
      X                     XX  X                                                                                                    
      X                     XX  X                                                                                                    
      X                     XX  X                                                                                                    
      X                     XX  X                                                                                                    
      X                     XX  X                                                                                                    
      X                     XX  X                                                                                                    
      X                     XX  X                                                                                                    
      X                     XX  X                                                                                                    
      X                     XX  X                                                                                                    
      X                     XX  X                                                                                                    
      X                     XX  X                                                                                                    
      X                     XX  X                                                                                                    
      X                     XX  X                                                                                                    
                            XX                                                                                                       
                            XX                                                                                                       
                            XX                                                                                                       
 
 ***** Axes restored to original set *****
 -------------------------------------------------------------------
 Center     Atomic                   Forces (Hartrees/Bohr)
 Number     Number              X              Y              Z
 -------------------------------------------------------------------
      1       16           0.000019082    0.000009043    0.000010224
      2       16          -0.000002922   -0.000036554    0.000052098
      3        6          -0.000052250   -0.000005362   -0.000021887
      4        1           0.000005181   -0.000015648    0.000006831
      5        1           0.000012894    0.000033002   -0.000041428
      6        1           0.000014500    0.000001918    0.000003563
      7        1           0.000003514    0.000013600   -0.000009400
 -------------------------------------------------------------------
 Cartesian Forces:  Max     0.000052250 RMS     0.000023553
 Z-matrix is all fixed cartesians, so copy forces.
 Force constants in Cartesian coordinates: 
                1             2             3             4             5 
      1  0.224313D+00
      2  0.340584D-01  0.273846D+00
      3  0.165337D-01 -0.612392D-02  0.276505D+00
      4 -0.177430D-01 -0.731944D-02 -0.105906D-01  0.134531D+00
      5 -0.279737D-02 -0.114486D-03  0.305855D-02  0.874451D-01  0.119272D+00
      6 -0.359813D-02  0.116956D-02  0.172321D-02  0.131078D-01 -0.554522D-01
      7 -0.117291D+00  0.164003D-01  0.442256D-02 -0.879873D-01 -0.453564D-01
      8  0.551510D-01 -0.502081D-01 -0.976825D-02 -0.469853D-01 -0.508981D-01
      9  0.225731D-01 -0.133647D-01 -0.297719D-01 -0.440705D-01 -0.262165D-01
     10 -0.444744D-01 -0.556350D-01  0.958548D-02 -0.134972D-02 -0.117246D-02
     11 -0.735129D-01 -0.203848D+00  0.450919D-01  0.120173D-03  0.247312D-03
     12  0.372098D-02  0.195458D-01 -0.266565D-01 -0.432094D-03 -0.476454D-03
     13 -0.118566D-02 -0.246568D-02  0.233976D-02 -0.223296D-01 -0.249993D-01
     14  0.690088D-03  0.454793D-03 -0.214304D-02 -0.277704D-01 -0.609292D-01
     15  0.860388D-03 -0.893174D-03 -0.132826D-02  0.418811D-01  0.913132D-01
     16 -0.150736D-01  0.196754D-01  0.857975D-02 -0.256751D-02 -0.145545D-01
     17 -0.206600D-02 -0.140846D-03  0.980457D-03 -0.580570D-02 -0.677312D-02
     18 -0.103497D-02  0.323533D-02 -0.328279D-03  0.453455D-04 -0.121455D-01
     19 -0.285449D-01 -0.471405D-02 -0.308706D-01 -0.255423D-02  0.143494D-02
     20 -0.115233D-01 -0.199891D-01 -0.310957D-01  0.315505D-03 -0.803820D-03
     21 -0.390551D-01 -0.356893D-02 -0.220144D+00  0.590130D-04 -0.811342D-04
                6             7             8             9            10 
      6  0.208932D+00
      7 -0.359768D-01  0.289459D+00
      8 -0.225052D-01 -0.347687D-01  0.357876D+00
      9 -0.488608D-01  0.105564D-01  0.143174D+00  0.118303D+00
     10  0.165800D-02 -0.151985D-01 -0.155367D-01  0.345429D-03  0.569956D-01
     11 -0.536268D-03  0.323575D-02  0.691980D-02 -0.181917D-02  0.685155D-01
     12 -0.246053D-04  0.972989D-03  0.934233D-03  0.491964D-03 -0.121608D-01
     13  0.322601D-01 -0.988996D-02 -0.105062D-01  0.717994D-02 -0.111069D-02
     14  0.831740D-01 -0.915649D-02 -0.604354D-02  0.125689D-02  0.146425D-03
     15 -0.157821D+00 -0.167816D-02 -0.508445D-02  0.112380D-01 -0.264531D-03
     16 -0.653242D-02 -0.466916D-01  0.542649D-01  0.198521D-01  0.194664D-02
     17 -0.594297D-02  0.662828D-01 -0.257828D+00 -0.107927D+00 -0.555731D-03
     18 -0.285013D-02  0.246347D-01 -0.106474D+00 -0.567817D-01  0.481321D-03
     19 -0.918558D-03 -0.123999D-01 -0.161907D-02 -0.164364D-01  0.319104D-02
     20  0.930571D-04  0.336272D-02  0.182290D-03  0.489708D-02  0.423791D-02
     21 -0.109883D-02 -0.293180D-02 -0.276025D-03  0.538112D-02  0.355080D-03
               11            12            13            14            15 
     11  0.196241D+00
     12 -0.415540D-01  0.326483D-01
     13  0.234423D-03  0.130804D-03  0.337881D-01
     14 -0.252448D-03 -0.267517D-04  0.372758D-01  0.687521D-01
     15  0.294227D-03 -0.114420D-03 -0.392342D-01 -0.851842D-01  0.146655D+00
     16  0.279726D-03 -0.313017D-03  0.405733D-04 -0.617928D-03 -0.104216D-02
     17  0.170894D-02 -0.120283D-03  0.824574D-03 -0.225270D-02 -0.361115D-03
     18 -0.725961D-03  0.106365D-03 -0.263951D-02  0.288523D-02  0.707334D-03
     19  0.112727D-02  0.808112D-02  0.687314D-03 -0.567554D-03 -0.522410D-03
     20 -0.101684D-02  0.216974D-01 -0.363652D-03  0.271057D-03 -0.845758D-04
     21 -0.750744D-03 -0.645114D-02 -0.368558D-04  0.378033D-04  0.663359D-03
               16            17            18            19            20 
     16  0.610289D-01
     17 -0.588939D-01  0.265177D+00
     18 -0.207584D-01  0.113223D+00  0.579948D-01
     19  0.131660D-02  0.213964D-03 -0.728539D-03  0.383041D-01
     20 -0.153657D-03  0.108823D-03  0.234397D-05  0.412450D-02  0.212476D-01
     21  0.214153D-03  0.148645D-03  0.115158D-02  0.413955D-01  0.449039D-02
               21 
     21  0.220497D+00
 Leave Link  716 at Wed Aug  3 20:35:59 2016, MaxMem=    33554432 cpu:         0.1
 (Enter /home/proyectos/fulerenos/M3C-v2.0/M3C-deps_CCC/g09-AM64L-G09RevC.01/l103.exe)

 GradGradGradGradGradGradGradGradGradGradGradGradGradGradGradGradGradGrad
 Berny optimization.
 Search for a local minimum.
 Step number   1 out of a maximum of    2
 All quantities printed in internal units (Hartrees-Bohrs-Radians)
 Second derivative matrix not updated -- analytic derivatives used.
 ITU=  0
     Eigenvalues ---    0.00001   0.00758   0.01672   0.02540   0.03546
     Eigenvalues ---    0.04296   0.06369   0.07074   0.09142   0.21339
     Eigenvalues ---    0.33599   0.36969   0.38467   0.40499   0.71201
 Quadratic step=3.090D-01 exceeds max=3.000D-01 adjusted using Lamda=-3.129D-07.
 Angle between NR and scaled steps=   0.00 degrees.
 Angle between quadratic step and forces=  88.07 degrees.
 Linear search not attempted -- first point.
 B after Tr=    -0.012917    0.000669    0.005527
         Rot=    0.999991   -0.001207    0.002629    0.003128 Ang=  -0.49 deg.
 Variable       Old X    -DE/DX   Delta X   Delta X   Delta X     New X
                                 (Linear)    (Quad)   (Total)
    X1        2.86767   0.00002   0.00000  -0.00364  -0.00746   2.86021
    Y1        0.88707   0.00001   0.00000  -0.02466  -0.04021   0.84686
    Z1       -0.75159   0.00001   0.00000   0.02934   0.05202  -0.69957
    X2       -2.87691  -0.00000   0.00000  -0.00176  -0.00355  -2.88046
    Y2        0.11339  -0.00004   0.00000   0.03074   0.05404   0.16743
    Z2       -1.90195   0.00005   0.00000  -0.02198  -0.03119  -1.93313
    X3       -0.39064  -0.00005   0.00000  -0.00256  -0.00178  -0.39243
    Y3        1.80466  -0.00001   0.00000  -0.01605  -0.01181   1.79284
    Z3       -0.51229  -0.00002   0.00000   0.03586   0.04367  -0.46861
    X4        3.84889   0.00001   0.00000  -0.01338   0.00086   3.84975
    Y4        3.21958  -0.00002   0.00000  -0.06214  -0.08211   3.13747
    Z4       -1.26827   0.00001   0.00000  -0.16748  -0.13412  -1.40240
    X5       -3.63946   0.00001   0.00000   0.00540  -0.01618  -3.65564
    Y5       -1.28497   0.00003   0.00000  -0.04716  -0.02392  -1.30889
    Z5        0.16037  -0.00004   0.00000  -0.07228  -0.08907   0.07130
    X6       -0.88712   0.00001   0.00000  -0.00277   0.00474  -0.88238
    Y6        3.64633   0.00000   0.00000  -0.04882  -0.04361   3.60273
    Z6        0.28551   0.00000   0.00000   0.11149   0.12108   0.40659
    X7        3.45349   0.00000   0.00000   0.03860   0.02337   3.47685
    Y7        0.97282   0.00001   0.00000   0.17311   0.14763   1.12045
    Z7        1.76661  -0.00001   0.00000   0.01099   0.03760   1.80421
         Item               Value     Threshold  Converged?
 Maximum Force            0.000052     0.000450     YES
 RMS     Force            0.000024     0.000300     YES
 Maximum Displacement     0.147627     0.001800     NO 
 RMS     Displacement     0.063311     0.001200     NO 
 Predicted change in Energy=-6.021364D-08
 GradGradGradGradGradGradGradGradGradGradGradGradGradGradGradGradGradGrad

 Leave Link  103 at Wed Aug  3 20:35:59 2016, MaxMem=    33554432 cpu:         0.1
 (Enter /home/proyectos/fulerenos/M3C-v2.0/M3C-deps_CCC/g09-AM64L-G09RevC.01/l9999.exe)
 1\1\GINC-DEPAZ29\Freq\UB3LYP\6-311++G(3df,2p)\C1H4S2(2+,3)\NAGUIRRE\03
 -Aug-2016\0\\#p b3lyp/6-311++G(3df,2p) freq\\b3lyp opt\\2,3\S,1.517504
 ,0.469419,-0.397724\S,-1.522395,0.060006,-1.006466\C,-0.20672,0.954984
 ,-0.271091\H,2.036745,1.703728,-0.671141\H,-1.925917,-0.679976,0.08486
 3\H,-0.469444,1.929557,0.151083\H,1.827506,0.514794,0.934848\\Version=
 EM64L-G09RevE.01\State=3-A\HF=-836.053745\S2=2.00773\S2-1=0.\S2A=2.000
 028\RMSD=8.930e-09\RMSF=2.355e-05\ZeroPoint=0.0407989\Thermal=0.045193
 \Dipole=0.1186226,0.3049821,0.7467838\DipoleDeriv=0.7542789,-0.1052117
 ,-0.0563409,-0.3261914,0.452486,0.0392259,-0.1962249,0.0497952,0.43130
 59,0.7139525,0.0470125,0.1562966,0.0920242,0.5813059,0.0581598,0.30870
 52,0.096789,0.7446618,0.127467,-0.0321778,0.0162291,0.0153953,-0.08745
 76,0.0012119,-0.0292991,-0.0379577,-0.1161806,0.1521114,0.1241792,-0.0
 571654,0.1843244,0.2964752,-0.0253696,-0.0769606,-0.0853147,0.1729667,
 0.2052028,0.0471471,-0.1086035,0.0592647,0.2669205,-0.0770972,-0.14328
 95,-0.0804818,0.2010808,-0.0466793,-0.0618429,-0.0507172,-0.0070304,0.
 331935,0.0635998,-0.0273924,0.054532,0.2170136,0.0936668,-0.0191064,0.
 1003012,-0.0177869,0.1583351,-0.0597305,0.1644611,0.002638,0.3491519\P
 olar=56.7356314,7.034988,36.2357042,4.5326597,0.7444089,34.5513294\PG=
 C01 [X(C1H4S2)]\NImag=1\\0.22431289,0.03405844,0.27384592,0.01653372,-
 0.00612392,0.27650521,-0.01774299,-0.00731944,-0.01059062,0.13453136,-
 0.00279737,-0.00011449,0.00305855,0.08744513,0.11927151,-0.00359813,0.
 00116956,0.00172321,0.01310780,-0.05545219,0.20893217,-0.11729140,0.01
 640030,0.00442256,-0.08798729,-0.04535644,-0.03597677,0.28945869,0.055
 15104,-0.05020811,-0.00976825,-0.04698529,-0.05089815,-0.02250522,-0.0
 3476866,0.35787592,0.02257308,-0.01336471,-0.02977188,-0.04407053,-0.0
 2621648,-0.04886082,0.01055644,0.14317363,0.11830330,-0.04447435,-0.05
 563501,0.00958548,-0.00134972,-0.00117246,0.00165800,-0.01519854,-0.01
 553665,0.00034543,0.05699560,-0.07351286,-0.20384813,0.04509193,0.0001
 2017,0.00024731,-0.00053627,0.00323575,0.00691980,-0.00181917,0.068515
 52,0.19624138,0.00372098,0.01954585,-0.02665647,-0.00043209,-0.0004764
 5,-0.00002461,0.00097299,0.00093423,0.00049196,-0.01216078,-0.04155402
 ,0.03264831,-0.00118566,-0.00246568,0.00233976,-0.02232964,-0.02499927
 ,0.03226007,-0.00988996,-0.01050623,0.00717994,-0.00111069,0.00023442,
 0.00013080,0.03378806,0.00069009,0.00045479,-0.00214304,-0.02777038,-0
 .06092925,0.08317403,-0.00915649,-0.00604354,0.00125689,0.00014643,-0.
 00025245,-0.00002675,0.03727584,0.06875209,0.00086039,-0.00089317,-0.0
 0132826,0.04188108,0.09131324,-0.15782100,-0.00167816,-0.00508445,0.01
 123798,-0.00026453,0.00029423,-0.00011442,-0.03923421,-0.08518416,0.14
 665501,-0.01507360,0.01967544,0.00857975,-0.00256751,-0.01455453,-0.00
 653242,-0.04669160,0.05426487,0.01985208,0.00194664,0.00027973,-0.0003
 1302,0.00004057,-0.00061793,-0.00104216,0.06102888,-0.00206600,-0.0001
 4085,0.00098046,-0.00580570,-0.00677312,-0.00594297,0.06628283,-0.2578
 2821,-0.10792725,-0.00055573,0.00170894,-0.00012028,0.00082457,-0.0022
 5270,-0.00036112,-0.05889392,0.26517712,-0.00103497,0.00323533,-0.0003
 2828,0.00004535,-0.01214553,-0.00285013,0.02463474,-0.10647393,-0.0567
 8167,0.00048132,-0.00072596,0.00010637,-0.00263951,0.00288523,0.000707
 33,-0.02075839,0.11322252,0.05799480,-0.02854491,-0.00471405,-0.030870
 64,-0.00255423,0.00143494,-0.00091856,-0.01239990,-0.00161907,-0.01643
 644,0.00319104,0.00112727,0.00808112,0.00068731,-0.00056755,-0.0005224
 1,0.00131660,0.00021396,-0.00072854,0.03830408,-0.01152333,-0.01998913
 ,-0.03109572,0.00031551,-0.00080382,0.00009306,0.00336272,0.00018229,0
 .00489708,0.00423791,-0.00101684,0.02169743,-0.00036365,0.00027106,-0.
 00008458,-0.00015366,0.00010882,0.00000234,0.00412450,0.02124762,-0.03
 905507,-0.00356893,-0.22014354,0.00005901,-0.00008113,-0.00109883,-0.0
 0293180,-0.00027602,0.00538112,0.00035508,-0.00075074,-0.00645114,-0.0
 0003686,0.00003780,0.00066336,0.00021415,0.00014864,0.00115158,0.04139
 548,0.00449039,0.22049745\\-0.00001908,-0.00000904,-0.00001022,0.00000
 292,0.00003655,-0.00005210,0.00005225,0.00000536,0.00002189,-0.0000051
 8,0.00001565,-0.00000683,-0.00001289,-0.00003300,0.00004143,-0.0000145
 0,-0.00000192,-0.00000356,-0.00000351,-0.00001360,0.00000940\\\@


 HO!  SUCH BUGS AND GOBLINS IN MY LIFE!

                            -- HAMLET, ACT 5, SCENE 2
 Job cpu time:       0 days  0 hours 15 minutes  8.0 seconds.
 File lengths (MBytes):  RWF=     45 Int=      0 D2E=      0 Chk=      3 Scr=      1
 Normal termination of Gaussian 09 at Wed Aug  3 20:35:59 2016.
