15
Energy =   -381.705415568     
    O   -0.790611    2.361635   -0.304968
    O    1.914608    1.171314   -0.431180
    O    1.669371   -1.254319    0.273119
    O   -0.593921   -2.009382    0.205734
    O   -2.267820   -0.110948    0.361864
    H   -1.107791    3.276800   -0.453352
    H    2.619396    1.512443   -0.993640
    H    2.175802   -1.468243    1.067311
    H   -0.817181   -2.645269   -0.486365
    H   -3.064296   -0.128238    0.904902
    H    1.154243    1.769078   -0.480926
    H    1.810691   -0.288513   -0.003965
    H    0.541113   -1.648109    0.241967
    H   -1.294449   -1.277256    0.270325
    H   -2.011443    0.810174    0.206994

FREQUENCIES 39
41.8609
67.5488
69.4109
98.6435
126.0139
157.9091
209.7091
239.7717
275.6021
285.8396
324.1937
352.3913
356.7391
411.8544
435.7469
485.5661
490.8460
554.5867
595.9476
636.1885
658.0133
960.4152
1050.6978
1120.8302
1503.5166
1567.9262
1630.8886
1633.2179
1756.3583
1759.8977
2906.7363
2956.2443
3719.6933
3796.8189
3811.2958
3896.4420
3899.2324
3945.9651
3951.1722

SYMMETRY C1
ELECTRONIC_STATE 2-A
