20
Energy =   -874.335672037     
    C   -1.123577    0.094099    0.533023
    C    0.394525    0.055567    0.324242
    N   -1.595061    1.520054    0.518685
    O    0.993965   -0.974267    0.546001
    O    0.862510    1.179697   -0.137575
    H   -1.370956   -0.327642    1.509411
    H   -1.400499    1.998119    1.402947
    H   -1.087515    2.032914   -0.215530
    H    1.950490    1.148371   -0.310004
    C   -1.825513   -0.698852   -0.581625
    S   -3.615243   -0.510693   -0.609010
    H   -1.550628   -1.752381   -0.476379
    H   -1.463251   -0.381599   -1.570915
    O    3.763999   -1.404963    0.052545
    H    2.911324   -1.700393    0.404863
    H    4.470660   -1.828681    0.551328
    O    3.267277    1.068424   -0.438339
    H    3.605629    0.139796   -0.260568
    H    3.690437    1.421981   -1.229192
    H   -2.613668    1.530406    0.339525

FREQUENCIES 54
25.2459
37.7102
71.7346
82.1849
116.4048
136.5805
186.5140
198.0239
230.3059
262.1926
273.9363
302.4995
332.8313
387.2553
394.4665
488.3672
512.2066
537.0872
635.6721
681.2224
710.2174
766.0144
817.1291
875.3521
936.0342
996.5402
1036.1462
1061.5768
1130.1909
1227.1803
1249.6041
1272.0768
1339.0011
1378.0947
1416.7283
1427.4712
1481.1987
1576.7406
1597.5196
1620.9687
1638.4922
1656.7363
1793.5753
1955.7523
3054.6392
3097.8832
3141.6802
3162.7378
3302.7887
3432.6827
3516.6763
3816.9544
3926.4989
3961.2520

SYMMETRY C1
ELECTRONIC_STATE 2-A
