20
Energy =   -874.594479059     
    C   -0.457581    0.789156    0.770763
    C    0.808319   -0.121698    0.765934
    N   -0.379785    1.716769   -0.405949
    O    0.820955   -0.983585    1.645603
    O    1.623262    0.092621   -0.178043
    H   -0.466672    1.402321    1.676480
    H   -0.352943    1.123804   -1.247164
    H   -1.193350    2.330642   -0.463663
    C   -1.719369   -0.065184    0.684119
    S   -1.894235   -0.927196   -0.919124
    H   -2.624919    0.538713    0.801020
    H   -1.675508   -0.788316    1.499536
    H   -0.811672   -1.742082   -0.796871
    H    0.504090    2.275954   -0.378958
    H    2.373745    1.728715   -0.142425
    O    2.146045    2.683419   -0.089380
    H    2.863410    3.205357   -0.458591
    H    1.050010   -2.710271    0.291699
    O    0.985755   -2.673137   -0.674149
    H    1.536760   -1.901770   -0.880071

FREQUENCIES 54
54.0755
67.1969
95.6486
112.8922
147.7015
158.1720
184.8051
209.9366
229.6056
238.6732
275.9864
278.3952
308.4655
376.1547
431.6161
454.5098
505.3416
530.9387
597.4512
614.6850
683.7747
711.1938
719.6889
798.9755
830.6015
873.1488
947.2157
1013.9261
1082.7533
1110.7523
1131.7699
1228.1741
1301.7042
1327.4002
1372.2766
1419.5348
1464.1216
1533.1681
1570.4243
1631.9902
1663.4290
1676.0296
1804.9323
2528.0477
3075.6456
3093.7379
3136.3473
3182.5205
3402.7728
3532.5047
3539.2205
3797.6479
3872.6229
3978.8620

SYMMETRY C1
ELECTRONIC_STATE 1-A
