20
Energy =   -874.348244915     
    N    0.158797   -1.075101   -0.615556
    H    0.391844   -1.506346    0.304264
    C   -0.271070    0.329813   -0.394842
    H   -0.428042    0.788372   -1.376385
    C   -1.565418    0.389325    0.431732
    C    0.875240    1.055658    0.294264
    H   -1.377518    0.028032    1.452652
    H   -1.892953    1.429645    0.514366
    S   -2.894878   -0.619042   -0.243187
    O    1.912177    0.522391    0.613614
    H   -0.615859   -1.593660   -1.045888
    O    0.571979    2.327913    0.496653
    H    1.311676    2.781630    0.935990
    H    1.002018   -1.082542   -1.229518
    H    0.447695   -2.229376    2.721817
    O    0.614288   -1.535062    2.072725
    H    1.458164   -1.124258    2.305227
    H    3.087503   -0.113718   -1.488909
    O    2.365062   -0.381564   -2.071748
    H    2.747856   -0.572171   -2.936308

FREQUENCIES 54
34.6446
41.0995
59.2397
108.6280
127.3238
146.6947
168.0132
189.7272
238.2846
288.6346
315.0475
319.2379
335.2099
343.8963
395.1570
408.1409
425.3375
466.2988
520.4203
534.9272
591.9526
649.0756
701.9295
752.9096
795.8914
887.4709
968.5173
1083.4195
1110.8735
1172.5279
1224.8409
1257.6529
1285.4838
1343.2438
1383.0615
1424.3498
1463.6640
1537.2935
1621.9933
1629.5524
1659.1916
1689.2190
1869.9656
3066.9175
3128.4674
3140.8087
3148.0310
3174.1662
3443.8093
3789.3457
3836.7544
3846.1151
3952.9086
3961.8278

SYMMETRY C1
ELECTRONIC_STATE 2-A
