20
Energy =   -874.588113327     
    C    0.697268   -0.747732    0.775039
    C    0.995388   -0.700393   -0.744432
    N    1.744251    0.155860    1.364860
    O    2.111898   -0.351287   -1.095630
    O    0.059635   -1.089734   -1.548346
    H    0.898930   -1.775434    1.097089
    H    1.522638    1.122088    0.956493
    H    1.716467    0.158622    2.383764
    H   -0.844190   -1.185981   -1.019426
    C   -0.671511   -0.301177    1.300979
    S   -2.080103   -1.001096    0.373293
    H   -0.711338    0.794395    1.281369
    H   -0.733482   -0.608767    2.351359
    H    2.668486   -0.108760    1.012448
    H   -1.970072    0.996264   -0.514809
    O   -1.580034    1.884759   -0.717878
    H   -2.302055    2.473186   -0.955520
    O    0.991479    2.249766   -0.071311
    H    0.028405    2.239584   -0.300171
    H    1.458428    2.123114   -0.908182

FREQUENCIES 54
52.1310
76.4632
108.8804
137.7881
141.7091
193.0002
235.5778
239.5117
281.7513
299.8831
325.4808
342.8602
391.7852
405.7228
440.8251
496.2884
540.6433
576.5513
620.3976
689.5639
750.7210
786.1960
831.5010
926.5289
935.4136
982.6898
984.8252
1021.6704
1117.6204
1171.9622
1223.9741
1298.8160
1325.5315
1349.1186
1394.9487
1496.5310
1515.5266
1545.4684
1580.5031
1637.4477
1678.6338
1716.7290
1810.3884
2310.7885
2661.9235
3059.9564
3097.7073
3115.9640
3285.1915
3395.9760
3473.0432
3572.0445
3890.3180
3965.4574

SYMMETRY C1
ELECTRONIC_STATE 1-A
