20
Energy =   -874.301305397     
    N    1.197765    2.343989   -0.458159
    H    0.551774    2.763544    0.207237
    C    1.134517    0.993113   -0.664014
    H    1.514312    0.681103   -1.636681
    C    2.154945    0.189262    0.474862
    C   -0.263448    0.447258   -0.321408
    H    3.077207    0.768657    0.472614
    H    1.625217    0.280056    1.424352
    S    2.524461   -1.450304   -0.001714
    O   -1.025024    1.140252    0.329237
    H    1.353375   -2.008833    0.350405
    O   -0.435171   -0.758537   -0.747189
    H   -1.435657   -1.151013   -0.538065
    H    1.860072    2.936333   -0.942493
    H   -3.225735   -0.903960    0.165339
    O   -2.650111   -1.621401   -0.228501
    H   -3.143362   -2.088491   -0.913465
    O   -3.782083    0.494477    0.717754
    H   -4.418712    0.656165    1.421995
    H   -3.012669    1.067369    0.850067

FREQUENCIES 54
29.6576
60.7106
66.4686
92.2184
125.8596
135.2745
187.6334
209.0605
252.0223
271.1755
306.2619
322.9692
349.4577
369.7583
396.5375
428.6449
440.5061
502.0109
531.9825
561.0540
588.2177
633.7922
679.6965
774.2891
788.9553
843.8055
879.0473
977.3546
998.2251
1074.4547
1159.9107
1189.5860
1242.3488
1250.0583
1313.4184
1365.8340
1445.5044
1453.7278
1579.4893
1593.6669
1612.9533
1646.5710
1777.8061
1966.5380
2722.5729
3134.1428
3154.3261
3188.5379
3230.0997
3523.8290
3687.0287
3821.1266
3923.7511
3969.2110

SYMMETRY C1
ELECTRONIC_STATE 2-A
