23
Energy =   -950.726264048     
    C    0.587406    0.933910    0.192326
    C   -0.015020    0.027050   -0.903359
    N   -0.521822    1.350870    1.090285
    O    0.815141   -0.765378   -1.465670
    O   -1.213591    0.117379   -1.158287
    H    0.984540    1.830873   -0.296221
    H   -0.962482    0.471257    1.478489
    H   -0.193713    1.947530    1.851716
    C    1.679027    0.184362    0.954210
    S    2.784947   -0.554780   -0.293888
    H    1.240071   -0.607804    1.564780
    H    2.284037    0.850347    1.573936
    H    2.526267   -1.848016   -0.041050
    H   -1.228276    1.888899    0.522820
    H   -2.207518    2.028804   -1.364080
    O   -1.974913    2.717834   -0.724864
    H   -2.585112    3.456325   -0.828033
    H   -1.435007   -1.539890    2.566980
    O   -1.113613   -1.178303    1.732965
    H   -1.596213   -1.659488    1.008393
    O   -2.362316   -2.228852   -0.341959
    H   -2.170861   -1.639164   -1.087230
    H   -2.523034   -3.115296   -0.680413

FREQUENCIES 63
35.3630
37.6769
59.7779
79.1118
102.7482
140.3608
146.9846
186.0191
204.2579
217.5175
261.8141
288.3849
294.5094
302.5655
330.2658
337.2896
357.1468
374.8442
388.6632
402.6930
417.9578
419.5369
508.4944
549.1598
562.8184
590.3906
645.1641
750.1186
779.4090
830.7833
863.0245
878.4391
981.6464
1029.1828
1089.2917
1165.3782
1184.7844
1239.4368
1309.6934
1353.6461
1393.7162
1428.4605
1481.1136
1555.2385
1587.4416
1597.6794
1669.9890
1681.6120
1700.3669
1772.5858
2739.7605
2880.3293
2947.8509
3111.4855
3123.2725
3185.0328
3273.5001
3528.4363
3797.7357
3835.0275
3927.5270
3964.4354
3967.9072

SYMMETRY C1
ELECTRONIC_STATE 2-A
