23
Energy =   -950.763478219     
    C   -1.009202   -0.356423    0.658943
    C    0.474085   -0.287862    0.291109
    N   -1.395795    0.969269    1.228668
    O    1.128693    0.714956    0.558644
    O    0.875269   -1.361181   -0.294236
    H   -1.144258   -1.108614    1.442584
    H   -0.832263    1.198221    2.051359
    H   -1.213218    1.704152    0.502774
    H    1.907318   -1.341773   -0.569538
    C   -1.892082   -0.692258   -0.548620
    S   -3.657092   -0.575342   -0.217386
    H   -1.638799   -1.696514   -0.899410
    H   -1.676449   -0.004411   -1.378345
    O    3.978086    0.478467    0.871788
    H    3.130764    0.938821    0.954627
    H    4.691218    1.108174    1.017998
    O    3.244287   -1.267445   -0.940496
    H    3.746868   -0.671997   -0.331091
    H    3.740716   -2.081655   -1.081658
    H   -2.395390    0.955948    1.468078
    O   -0.604060    2.359238   -0.970499
    H    0.363085    2.355908   -0.955210
    H   -0.887633    3.094674   -1.526922

FREQUENCIES 63
25.5000
43.8190
58.1441
62.3485
82.0790
118.7651
125.8414
148.7401
176.5485
228.5397
239.8996
256.4951
280.1958
293.6578
299.3533
306.5838
350.1619
357.3294
383.5824
397.3490
434.2736
473.2720
483.4743
565.5369
611.9184
649.0756
709.4364
764.3644
808.0606
850.7147
903.4531
961.2293
1064.4461
1094.0870
1162.3635
1187.7888
1247.5879
1276.0687
1347.6574
1376.2554
1423.5051
1467.2180
1525.4871
1593.4461
1597.4522
1604.3413
1633.5917
1645.4033
1686.8183
1795.8451
2187.3125
3060.3148
3066.7429
3129.6823
3145.0482
3380.1453
3424.6979
3517.5369
3820.3330
3832.6436
3930.1015
3953.1182
3969.2524

SYMMETRY C1
ELECTRONIC_STATE 2-A
