23
Energy =   -951.021016356     
    C   -1.670775   -0.618072    0.226331
    C   -0.359810   -1.370192   -0.044419
    N   -1.752247   -0.288930    1.642594
    O    0.062795   -1.573881   -1.157751
    O    0.257007   -1.826979    1.042052
    H   -2.454702   -1.359140    0.016028
    H   -1.259384    0.575098    1.860081
    H   -2.709990   -0.214746    1.964185
    C   -1.857974    0.529267   -0.770758
    S   -0.681556    1.918658   -0.597192
    H   -2.853528    0.958854   -0.635292
    H   -1.785955    0.143274   -1.789262
    H    0.356385    1.360314   -1.290526
    H   -0.246997   -1.490036    1.815988
    O    1.024889    1.010565    2.028460
    H    0.653427    1.561434    1.315949
    H    1.483057    1.602112    2.635398
    O    2.782152   -0.519075    0.351604
    H    2.450804   -1.424985    0.316432
    H    2.240294   -0.092658    1.036863
    H    1.400575   -0.303051   -2.380261
    O    1.833455    0.509815   -2.089028
    H    2.338290    0.227764   -1.301316

FREQUENCIES 63
48.8025
54.4855
66.8054
89.0882
115.5750
141.4493
151.4734
159.3909
175.4292
205.6510
220.6932
237.7722
248.8129
282.6113
296.4316
327.9908
347.1276
361.0757
400.9947
469.6082
502.1574
532.6899
545.7064
550.6384
575.6874
628.8558
692.3715
706.4716
772.9474
820.4208
826.9137
864.2559
881.4224
884.4241
1022.0012
1085.7932
1144.2819
1191.8594
1249.8950
1263.1991
1295.7891
1334.0351
1398.1767
1439.9938
1461.4576
1602.0368
1655.1255
1665.2478
1686.0240
1884.8254
2441.2116
3067.8061
3111.0591
3175.4025
3529.4179
3564.0574
3644.0043
3647.6999
3676.7151
3756.0979
3900.8160
3918.6592
3942.7152

SYMMETRY C1
ELECTRONIC_STATE 1-A
