3
Energy =   -75.9325909139     
    H   -0.691902    0.853065   -0.000000
    H   -1.009744   -0.777304    0.000000
    O   -0.293844   -0.070703    0.000000

FREQUENCIES 3
1407.0598
3372.5346
3442.3333

SYMMETRY C2V
ELECTRONIC_STATE 2-B1
