6
Energy =   -152.410495555     
    H   -1.985184    0.239278    0.635204
    H    0.010052   -0.054033    0.035862
    O   -1.364881   -0.270917    0.064933
    H    1.502890    0.840499   -0.180968
    H    1.509002   -0.738317   -0.517824
    O    1.085429   -0.022399   -0.010354

FREQUENCIES 12
241.4199
413.1354
439.4302
507.4540
627.0844
1020.1562
1602.6524
1696.7981
2186.5150
3666.2960
3741.9365
3837.9975

SYMMETRY C1
ELECTRONIC_STATE 2-A
