9
Energy =   -229.218036596     
    O   -0.175395    1.579988    0.078475
    H    0.649483    1.060165    0.055916
    H   -0.114629    2.235391   -0.622321
    O    1.466041   -0.632227   -0.055355
    H    2.068286   -1.079520    0.545232
    H    0.615648   -1.107370   -0.025844
    O   -1.276412   -0.943736   -0.049589
    H   -1.995451   -1.236088    0.516699
    H   -1.233324    0.029192    0.005731

FREQUENCIES 21
201.6788
209.4816
221.6632
251.4434
255.7437
285.6039
353.5015
378.4542
456.0954
573.5847
708.9204
881.3356
1616.4010
1626.1607
1648.2555
3648.7261
3703.4140
3724.9377
3966.8487
3975.0016
3978.7213

SYMMETRY C1
ELECTRONIC_STATE 1-A
