14
Energy =   -721.495877630     
    N   -0.015299    1.745846   -0.207568
    H    0.836305    1.934597   -0.761404
    C    0.240587    0.572468    0.689983
    H    0.729271    0.936231    1.600127
    C   -1.063888   -0.157073    1.035320
    C    1.246506   -0.291044   -0.079121
    H   -0.820014   -1.063101    1.596994
    H   -1.690372    0.459951    1.693328
    S   -2.061107   -0.567375   -0.408255
    O    1.833065    0.134182   -1.041640
    H   -0.760184    1.471931   -0.875688
    O    1.371394   -1.487442    0.461642
    H    2.041370   -2.006757   -0.017844
    H   -0.307372    2.586345    0.297842

FREQUENCIES 36
58.6135
82.5186
221.5204
232.8759
283.1194
345.2056
479.1574
498.4957
585.3633
652.5732
702.2719
747.4312
772.9654
860.2212
947.3475
1027.3430
1077.4176
1131.8928
1190.5403
1216.0047
1301.8521
1330.6303
1361.5936
1417.4374
1464.0425
1504.9934
1609.3540
1657.5657
1892.1755
3076.1771
3132.7462
3150.7494
3274.5161
3374.5163
3514.5856
3776.6098

SYMMETRY C1
ELECTRONIC_STATE 2-A
