12
Energy =   -305.635363927     
    O    0.222583   -1.901981    0.070034
    H   -0.633854   -1.423632    0.004312
    H    0.161531   -2.485165    0.831972
    H    1.423753   -0.634009   -0.004799
    O    1.902028    0.222501   -0.070171
    H    2.485186    0.161869   -0.832159
    O   -1.902031   -0.222454   -0.069881
    H   -2.485775   -0.161728   -0.831433
    H   -1.423672    0.634080   -0.004826
    O   -0.222366    1.901948    0.070137
    H   -0.161506    2.485034    0.832152
    H    0.634091    1.423543    0.004676

FREQUENCIES 30
58.9175
80.3313
204.8794
220.2015
241.1638
241.4157
265.5210
274.5752
275.1750
313.7390
421.7300
457.1712
477.4928
477.6533
792.2035
844.9734
845.0289
1038.0163
1638.4587
1648.3002
1648.3346
1680.0385
3399.2389
3504.9720
3505.0675
3548.3637
3963.1767
3964.0987
3964.2043
3965.7355

SYMMETRY C1
ELECTRONIC_STATE 1-A
