17
Energy =   -798.197045900     
    C   -0.675333    0.953517    0.611484
    C    0.700651    0.351532    0.366559
    N   -1.119910    1.788953   -0.493400
    O    1.163774   -0.502290    1.098945
    O    1.346633    0.873457   -0.667189
    H   -0.563194    1.512229    1.556412
    H   -1.790274    2.480794   -0.177317
    H   -0.342792    2.265329   -0.937659
    H    2.227853    0.428664   -0.747350
    C   -1.678516   -0.175155    0.872589
    S   -1.868676   -1.281696   -0.562817
    H   -2.646232    0.255633    1.143874
    H   -1.325889   -0.794510    1.699296
    H   -2.070036   -0.280000   -1.436634
    H    3.833644   -1.392325   -0.860694
    O    3.518359   -0.656861   -0.326513
    H    2.982365   -1.023107    0.397777

FREQUENCIES 45
39.0833
52.2783
104.8937
133.9084
156.8531
192.4204
206.8629
271.6954
299.1097
316.6670
358.4910
385.6929
512.0652
533.9476
579.2013
610.4058
708.1387
755.2560
813.6527
839.0285
916.1671
928.0244
970.5455
1018.7958
1137.1761
1200.2513
1235.3745
1294.6684
1315.1447
1354.3012
1402.2421
1465.3606
1479.8837
1606.5991
1652.8210
1841.3361
2691.4977
3011.9657
3098.7274
3171.0044
3381.5977
3566.0780
3664.6357
3737.8860
3963.1179

SYMMETRY C1
ELECTRONIC_STATE 1-A
