 Entering Gaussian System, Link 0=/home/proyectos/fulerenos/M3C-v2.0/M3C-deps_CCC/g09-AM64L-G09RevC.01/g09
 Initial command:
 /home/proyectos/fulerenos/M3C-v2.0/M3C-deps_CCC/g09-AM64L-G09RevC.01/l1.exe "/scratch/naguirre/gaussian/Gau-18703.inp" -scrdir="/scratch/naguirre/gaussian/"
 Entering Link 1 = /home/proyectos/fulerenos/M3C-v2.0/M3C-deps_CCC/g09-AM64L-G09RevC.01/l1.exe PID=     18726.
  
 Copyright (c) 1988,1990,1992,1993,1995,1998,2003,2009,2015,
            Gaussian, Inc.  All Rights Reserved.
  
 This is part of the Gaussian(R) 09 program.  It is based on
 the Gaussian(R) 03 system (copyright 2003, Gaussian, Inc.),
 the Gaussian(R) 98 system (copyright 1998, Gaussian, Inc.),
 the Gaussian(R) 94 system (copyright 1995, Gaussian, Inc.),
 the Gaussian 92(TM) system (copyright 1992, Gaussian, Inc.),
 the Gaussian 90(TM) system (copyright 1990, Gaussian, Inc.),
 the Gaussian 88(TM) system (copyright 1988, Gaussian, Inc.),
 the Gaussian 86(TM) system (copyright 1986, Carnegie Mellon
 University), and the Gaussian 82(TM) system (copyright 1983,
 Carnegie Mellon University). Gaussian is a federally registered
 trademark of Gaussian, Inc.
  
 This software contains proprietary and confidential information,
 including trade secrets, belonging to Gaussian, Inc.
  
 This software is provided under written license and may be
 used, copied, transmitted, or stored only in accord with that
 written license.
  
 The following legend is applicable only to US Government
 contracts under FAR:
  
                    RESTRICTED RIGHTS LEGEND
  
 Use, reproduction and disclosure by the US Government is
 subject to restrictions as set forth in subparagraphs (a)
 and (c) of the Commercial Computer Software - Restricted
 Rights clause in FAR 52.227-19.
  
 Gaussian, Inc.
 340 Quinnipiac St., Bldg. 40, Wallingford CT 06492
  
  
 ---------------------------------------------------------------
 Warning -- This program may not be used in any manner that
 competes with the business of Gaussian, Inc. or will provide
 assistance to any competitor of Gaussian, Inc.  The licensee
 of this program is prohibited from giving any competitor of
 Gaussian, Inc. access to this program.  By using this program,
 the user acknowledges that Gaussian, Inc. is engaged in the
 business of creating and licensing software in the field of
 computational chemistry and represents and warrants to the
 licensee that it is not a competitor of Gaussian, Inc. and that
 it will not use this program in any manner prohibited above.
 ---------------------------------------------------------------
  

 Cite this work as:
 Gaussian 09, Revision E.01,
 M. J. Frisch, G. W. Trucks, H. B. Schlegel, G. E. Scuseria, 
 M. A. Robb, J. R. Cheeseman, G. Scalmani, V. Barone, B. Mennucci, 
 G. A. Petersson, H. Nakatsuji, M. Caricato, X. Li, H. P. Hratchian, 
 A. F. Izmaylov, J. Bloino, G. Zheng, J. L. Sonnenberg, M. Hada, 
 M. Ehara, K. Toyota, R. Fukuda, J. Hasegawa, M. Ishida, T. Nakajima, 
 Y. Honda, O. Kitao, H. Nakai, T. Vreven, J. A. Montgomery, Jr., 
 J. E. Peralta, F. Ogliaro, M. Bearpark, J. J. Heyd, E. Brothers, 
 K. N. Kudin, V. N. Staroverov, T. Keith, R. Kobayashi, J. Normand, 
 K. Raghavachari, A. Rendell, J. C. Burant, S. S. Iyengar, J. Tomasi, 
 M. Cossi, N. Rega, J. M. Millam, M. Klene, J. E. Knox, J. B. Cross, 
 V. Bakken, C. Adamo, J. Jaramillo, R. Gomperts, R. E. Stratmann, 
 O. Yazyev, A. J. Austin, R. Cammi, C. Pomelli, J. W. Ochterski, 
 R. L. Martin, K. Morokuma, V. G. Zakrzewski, G. A. Voth, 
 P. Salvador, J. J. Dannenberg, S. Dapprich, A. D. Daniels, 
 O. Farkas, J. B. Foresman, J. V. Ortiz, J. Cioslowski, 
 and D. J. Fox, Gaussian, Inc., Wallingford CT, 2013.
 
 ******************************************
 Gaussian 09:  EM64L-G09RevE.01 30-Nov-2015
                16-Aug-2016 
 ******************************************
 %NProcShared=1
 Will use up to    1 processors via shared memory.
 ---------------------------------------------
 #p b3lyp/6-311++G(3df,2p) freq symmetry=Loose
 ---------------------------------------------
 1/10=4,30=1,38=1/1,3;
 2/12=2,17=4,18=3,40=1/2;
 3/5=4,6=6,7=1216,11=2,16=1,25=1,30=1,71=2,74=-5,140=1/1,2,3;
 4//1;
 5/5=2,38=5,98=1/2;
 8/6=4,10=90,11=11/1;
 11/6=1,8=1,9=11,15=111,16=1/1,2,10;
 10/6=1/2;
 6/7=2,8=2,9=2,10=2,18=1,28=1/1;
 7/8=1,10=1,25=1/1,2,3,16;
 1/10=4,30=1/3;
 99//99;
 Leave Link    1 at Tue Aug 16 17:35:26 2016, MaxMem=           0 cpu:         0.1
 (Enter /home/proyectos/fulerenos/M3C-v2.0/M3C-deps_CCC/g09-AM64L-G09RevC.01/l101.exe)
 ---------
 b3lyp opt
 ---------
 Symbolic Z-matrix:
 Charge =  0 Multiplicity = 2
 C                     0.43339  -0.76169   0. 
 C                     0.36143   0.81428   0. 
 N                    -0.63374  -0.02079   0. 
 
 NAtoms=      3 NQM=        3 NQMF=       0 NMMI=      0 NMMIF=      0
                NMic=       0 NMicF=      0.
                    Isotopes and Nuclear Properties:
 (Nuclear quadrupole moments (NQMom) in fm**2, nuclear magnetic moments (NMagM)
  in nuclear magnetons)

  Atom         1           2           3
 IAtWgt=          12          12          14
 AtmWgt=  12.0000000  12.0000000  14.0030740
 NucSpn=           0           0           2
 AtZEff=   0.0000000   0.0000000   0.0000000
 NQMom=    0.0000000   0.0000000   2.0440000
 NMagM=    0.0000000   0.0000000   0.4037610
 AtZNuc=   6.0000000   6.0000000   7.0000000
 Leave Link  101 at Tue Aug 16 17:35:27 2016, MaxMem=    33554432 cpu:         0.3
 (Enter /home/proyectos/fulerenos/M3C-v2.0/M3C-deps_CCC/g09-AM64L-G09RevC.01/l103.exe)

 GradGradGradGradGradGradGradGradGradGradGradGradGradGradGradGradGradGrad
 Berny optimization.
 Initialization pass.
 Trust Radius=3.00D-01 FncErr=1.00D-07 GrdErr=1.00D-07
 Number of steps in this run=      2 maximum allowed number of steps=      2.
 GradGradGradGradGradGradGradGradGradGradGradGradGradGradGradGradGradGrad

 Leave Link  103 at Tue Aug 16 17:35:28 2016, MaxMem=    33554432 cpu:         0.1
 (Enter /home/proyectos/fulerenos/M3C-v2.0/M3C-deps_CCC/g09-AM64L-G09RevC.01/l202.exe)
                          Input orientation:                          
 ---------------------------------------------------------------------
 Center     Atomic      Atomic             Coordinates (Angstroms)
 Number     Number       Type             X           Y           Z
 ---------------------------------------------------------------------
      1          6           0        0.433391   -0.761689    0.000000
      2          6           0        0.361426    0.814275    0.000000
      3          7           0       -0.633743   -0.020794    0.000000
 ---------------------------------------------------------------------
                    Distance matrix (angstroms):
                    1          2          3
     1  C    0.000000
     2  C    1.577607   0.000000
     3  N    1.299116   1.299116   0.000000
 Stoichiometry    C2N(2)
 Framework group  C2V[C2(N),SGV(C2)]
 Deg. of freedom     2
 Full point group                 C2V     NOp   4
 Largest Abelian subgroup         C2V     NOp   4
 Largest concise Abelian subgroup C2      NOp   2
                         Standard orientation:                         
 ---------------------------------------------------------------------
 Center     Atomic      Atomic             Coordinates (Angstroms)
 Number     Number       Type             X           Y           Z
 ---------------------------------------------------------------------
      1          6           0       -0.000000    0.788803   -0.380294
      2          6           0       -0.000000   -0.788803   -0.380294
      3          7           0        0.000000   -0.000000    0.651932
 ---------------------------------------------------------------------
 Rotational constants (GHZ):     53.6354186     33.8429623     20.7500577
 Leave Link  202 at Tue Aug 16 17:35:29 2016, MaxMem=    33554432 cpu:         0.0
 (Enter /home/proyectos/fulerenos/M3C-v2.0/M3C-deps_CCC/g09-AM64L-G09RevC.01/l301.exe)
 Standard basis: 6-311++G(3df,2p) (5D, 7F)
 Ernie: Thresh=  0.10000D-02 Tol=  0.10000D-05 Strict=F.
 There are    52 symmetry adapted cartesian basis functions of A1  symmetry.
 There are    18 symmetry adapted cartesian basis functions of A2  symmetry.
 There are    24 symmetry adapted cartesian basis functions of B1  symmetry.
 There are    41 symmetry adapted cartesian basis functions of B2  symmetry.
 There are    43 symmetry adapted basis functions of A1  symmetry.
 There are    17 symmetry adapted basis functions of A2  symmetry.
 There are    22 symmetry adapted basis functions of B1  symmetry.
 There are    35 symmetry adapted basis functions of B2  symmetry.
   117 basis functions,   174 primitive gaussians,   135 cartesian basis functions
    10 alpha electrons        9 beta electrons
       nuclear repulsion energy        46.2917575421 Hartrees.
 IExCor=  402 DFT=T Ex+Corr=B3LYP ExCW=0 ScaHFX=  0.200000
 ScaDFX=  0.800000  0.720000  1.000000  0.810000 ScalE2=  1.000000  1.000000
 IRadAn=      0 IRanWt=     -1 IRanGd=            0 ICorTp=0 IEmpDi=  4
 NAtoms=    3 NActive=    3 NUniq=    2 SFac= 2.25D+00 NAtFMM=   60 NAOKFM=F Big=F
 Integral buffers will be    131072 words long.
 Raffenetti 2 integral format.
 Two-electron integral symmetry is turned on.
 Leave Link  301 at Tue Aug 16 17:35:32 2016, MaxMem=    33554432 cpu:         0.3
 (Enter /home/proyectos/fulerenos/M3C-v2.0/M3C-deps_CCC/g09-AM64L-G09RevC.01/l302.exe)
 NPDir=0 NMtPBC=     1 NCelOv=     1 NCel=       1 NClECP=     1 NCelD=      1
         NCelK=      1 NCelE2=     1 NClLst=     1 CellRange=     0.0.
 One-electron integrals computed using PRISM.
 One-electron integral symmetry used in STVInt
 NBasis=   117 RedAO= T EigKep=  1.25D-04  NBF=    43    17    22    35
 NBsUse=   117 1.00D-06 EigRej= -1.00D+00 NBFU=    43    17    22    35
 Precomputing XC quadrature grid using
 IXCGrd= 4 IRadAn=           0 IRanWt=          -1 IRanGd=           0 AccXCQ= 0.00D+00.
 Generated NRdTot=       0 NPtTot=           0 NUsed=           0 NTot=          32
 NSgBfM=   135   135   135   135   135 MxSgAt=     3 MxSgA2=     3.
 Leave Link  302 at Tue Aug 16 17:35:38 2016, MaxMem=    33554432 cpu:         0.2
 (Enter /home/proyectos/fulerenos/M3C-v2.0/M3C-deps_CCC/g09-AM64L-G09RevC.01/l303.exe)
 DipDrv:  MaxL=1.
 Leave Link  303 at Tue Aug 16 17:35:41 2016, MaxMem=    33554432 cpu:         0.0
 (Enter /home/proyectos/fulerenos/M3C-v2.0/M3C-deps_CCC/g09-AM64L-G09RevC.01/l401.exe)
 ExpMin= 4.38D-02 ExpMax= 6.29D+03 ExpMxC= 9.49D+02 IAcc=2 IRadAn=         4 AccDes= 0.00D+00
 Harris functional with IExCor=  402 and IRadAn=       4 diagonalized for initial guess.
 HarFok:  IExCor=  402 AccDes= 0.00D+00 IRadAn=         4 IDoV= 1 UseB2=F ITyADJ=14
 ICtDFT=  3500011 ScaDFX=  1.000000  1.000000  1.000000  1.000000
 FoFCou: FMM=F IPFlag=           0 FMFlag=      100000 FMFlg1=           0
         NFxFlg=           0 DoJE=T BraDBF=F KetDBF=T FulRan=T
         wScrn=  0.000000 ICntrl=     500 IOpCl=  0 I1Cent=   200000004 NGrid=           0
         NMat0=    1 NMatS0=      1 NMatT0=    0 NMatD0=    1 NMtDS0=    0 NMtDT0=    0
 Petite list used in FoFCou.
 Harris En= -130.735894244670    
 JPrj=0 DoOrth=F DoCkMO=F.
 Initial guess orbital symmetries:
 Alpha Orbitals:
       Occupied  (A1) (A1) (B2) (A1) (B2) (A1) (B1) (A1) (B2) (A1)
       Virtual   (A2) (B1) (B2) (A1) (A1) (B1) (B2) (A1) (B2) (A2)
                 (A1) (B1) (B2) (B2) (A1) (A1) (B2) (A1) (B1) (A1)
                 (A2) (B1) (B2) (B2) (A1) (A2) (B1) (B2) (B2) (A1)
                 (A1) (B1) (A2) (A1) (B2) (A1) (A2) (A1) (B2) (B1)
                 (A1) (B2) (B2) (B1) (A1) (A1) (A2) (B1) (A1) (B2)
                 (A2) (B2) (A1) (B2) (B1) (A1) (A2) (B1) (A1) (B1)
                 (A1) (A1) (B2) (A2) (B2) (B1) (B2) (A2) (A1) (A1)
                 (B2) (B1) (A2) (A1) (B2) (A1) (B1) (A2) (B2) (B1)
                 (A1) (B2) (B2) (B2) (A1) (B1) (A2) (A1) (B2) (B1)
                 (A1) (A2) (B1) (B2) (A1) (A2) (A1) (B2) (B2) (A1)
                 (A2) (B1) (A1) (B2) (A1) (B2) (A1)
 Beta  Orbitals:
       Occupied  (A1) (A1) (B2) (A1) (B2) (A1) (B1) (A1) (B2)
       Virtual   (A1) (A2) (B1) (B2) (A1) (A1) (B1) (B2) (A1) (B2)
                 (A2) (A1) (B1) (B2) (B2) (A1) (A1) (B2) (A1) (B1)
                 (A1) (A2) (B1) (B2) (B2) (A1) (A2) (B1) (B2) (B2)
                 (A1) (A1) (B1) (A2) (A1) (B2) (A1) (A2) (A1) (B2)
                 (B1) (A1) (B2) (B2) (B1) (A1) (A1) (A2) (B1) (A1)
                 (B2) (A2) (B2) (A1) (B2) (B1) (A1) (A2) (B1) (A1)
                 (B1) (A1) (A1) (B2) (A2) (B2) (B1) (B2) (A2) (A1)
                 (A1) (B2) (B1) (A2) (A1) (B2) (A1) (B1) (A2) (B2)
                 (B1) (A1) (B2) (B2) (B2) (A1) (B1) (A2) (A1) (B2)
                 (B1) (A1) (A2) (B1) (B2) (A1) (A2) (A1) (B2) (B2)
                 (A1) (A2) (B1) (A1) (B2) (A1) (B2) (A1)
 The electronic state of the initial guess is 2-A1.
 Initial guess <Sx>= 0.0000 <Sy>= 0.0000 <Sz>= 0.5000 <S**2>= 0.7500 S= 0.5000
 Leave Link  401 at Tue Aug 16 17:35:44 2016, MaxMem=    33554432 cpu:         0.8
 (Enter /home/proyectos/fulerenos/M3C-v2.0/M3C-deps_CCC/g09-AM64L-G09RevC.01/l502.exe)
 UHF open shell SCF:
 Using DIIS extrapolation, IDIIS=  1040.
 Integral symmetry usage will be decided dynamically.
 Keep R1 and R2 ints in memory in symmetry-blocked form, NReq=29967906.
 IVT=       75205 IEndB=       75205 NGot=    33554432 MDV=    21369025
 LenX=    21369025 LenY=    21350359
 Requested convergence on RMS density matrix=1.00D-08 within 128 cycles.
 Requested convergence on MAX density matrix=1.00D-06.
 Requested convergence on             energy=1.00D-06.
 No special actions if energy rises.
 FoFCou: FMM=F IPFlag=           0 FMFlag=           0 FMFlg1=           0
         NFxFlg=           0 DoJE=F BraDBF=F KetDBF=F FulRan=T
         wScrn=  0.000000 ICntrl=     600 IOpCl=  0 I1Cent=           0 NGrid=           0
         NMat0=    1 NMatS0=   6903 NMatT0=    0 NMatD0=    1 NMtDS0=    0 NMtDT0=    0
 Petite list used in FoFCou.

 Cycle   1  Pass 1  IDiag  1:
 E= -130.760692888715    
 DIIS: error= 1.91D-02 at cycle   1 NSaved=   1.
 NSaved= 1 IEnMin= 1 EnMin= -130.760692888715     IErMin= 1 ErrMin= 1.91D-02
 ErrMax= 1.91D-02  0.00D+00 EMaxC= 1.00D-01 BMatC= 9.31D-02 BMatP= 9.31D-02
 IDIUse=3 WtCom= 8.09D-01 WtEn= 1.91D-01
 Coeff-Com:  0.100D+01
 Coeff-En:   0.100D+01
 Coeff:      0.100D+01
 Gap=     0.191 Goal=   None    Shift=    0.000
 Gap=     0.135 Goal=   None    Shift=    0.000
 GapD=    0.135 DampG=1.000 DampE=0.500 DampFc=0.5000 IDamp=-1.
 Damping current iteration by 5.00D-01
 RMSDP=1.72D-03 MaxDP=5.73D-02              OVMax= 6.75D-02

 Cycle   2  Pass 1  IDiag  1:
 E= -130.766366802404     Delta-E=       -0.005673913689 Rises=F Damp=T
 DIIS: error= 5.50D-03 at cycle   2 NSaved=   2.
 NSaved= 2 IEnMin= 2 EnMin= -130.766366802404     IErMin= 2 ErrMin= 5.50D-03
 ErrMax= 5.50D-03  0.00D+00 EMaxC= 1.00D-01 BMatC= 1.52D-02 BMatP= 9.31D-02
 IDIUse=3 WtCom= 9.45D-01 WtEn= 5.50D-02
 Coeff-Com: -0.649D-01 0.106D+01
 Coeff-En:   0.000D+00 0.100D+01
 Coeff:     -0.614D-01 0.106D+01
 Gap=     0.209 Goal=   None    Shift=    0.000
 Gap=     0.129 Goal=   None    Shift=    0.000
 RMSDP=8.08D-04 MaxDP=2.00D-02 DE=-5.67D-03 OVMax= 6.95D-02

 Cycle   3  Pass 1  IDiag  1:
 E= -130.769025343144     Delta-E=       -0.002658540740 Rises=F Damp=F
 DIIS: error= 1.25D-02 at cycle   3 NSaved=   3.
 NSaved= 3 IEnMin= 3 EnMin= -130.769025343144     IErMin= 2 ErrMin= 5.50D-03
 ErrMax= 1.25D-02  0.00D+00 EMaxC= 1.00D-01 BMatC= 2.91D-02 BMatP= 1.52D-02
 IDIUse=2 WtCom= 0.00D+00 WtEn= 1.00D+00
 Coeff-En:   0.000D+00 0.339D+00 0.661D+00
 Coeff:      0.000D+00 0.339D+00 0.661D+00
 Gap=     0.197 Goal=   None    Shift=    0.000
 Gap=     0.141 Goal=   None    Shift=    0.000
 RMSDP=9.22D-04 MaxDP=2.51D-02 DE=-2.66D-03 OVMax= 6.36D-02

 Cycle   4  Pass 1  IDiag  1:
 E= -130.766823712508     Delta-E=        0.002201630636 Rises=F Damp=F
 DIIS: error= 1.44D-02 at cycle   4 NSaved=   4.
 NSaved= 4 IEnMin= 3 EnMin= -130.769025343144     IErMin= 2 ErrMin= 5.50D-03
 ErrMax= 1.44D-02  0.00D+00 EMaxC= 1.00D-01 BMatC= 4.03D-02 BMatP= 1.52D-02
 IDIUse=2 WtCom= 0.00D+00 WtEn= 1.00D+00
 Coeff-En:   0.000D+00 0.000D+00 0.555D+00 0.445D+00
 Coeff:      0.000D+00 0.000D+00 0.555D+00 0.445D+00
 Gap=     0.203 Goal=   None    Shift=    0.000
 Gap=     0.139 Goal=   None    Shift=    0.000
 RMSDP=4.46D-04 MaxDP=1.41D-02 DE= 2.20D-03 OVMax= 3.09D-02

 Cycle   5  Pass 1  IDiag  1:
 E= -130.775269075982     Delta-E=       -0.008445363474 Rises=F Damp=F
 DIIS: error= 8.39D-04 at cycle   5 NSaved=   5.
 NSaved= 5 IEnMin= 5 EnMin= -130.775269075982     IErMin= 5 ErrMin= 8.39D-04
 ErrMax= 8.39D-04  0.00D+00 EMaxC= 1.00D-01 BMatC= 1.61D-04 BMatP= 1.52D-02
 IDIUse=3 WtCom= 9.92D-01 WtEn= 8.39D-03
 Coeff-Com: -0.241D-01 0.374D-01-0.194D-01-0.113D+00 0.112D+01
 Coeff-En:   0.000D+00 0.000D+00 0.000D+00 0.000D+00 0.100D+01
 Coeff:     -0.239D-01 0.371D-01-0.193D-01-0.112D+00 0.112D+01
 Gap=     0.203 Goal=   None    Shift=    0.000
 Gap=     0.139 Goal=   None    Shift=    0.000
 RMSDP=5.20D-05 MaxDP=1.17D-03 DE=-8.45D-03 OVMax= 4.60D-03

 Cycle   6  Pass 1  IDiag  1:
 E= -130.775312204153     Delta-E=       -0.000043128171 Rises=F Damp=F
 DIIS: error= 9.47D-05 at cycle   6 NSaved=   6.
 NSaved= 6 IEnMin= 6 EnMin= -130.775312204153     IErMin= 6 ErrMin= 9.47D-05
 ErrMax= 9.47D-05  0.00D+00 EMaxC= 1.00D-01 BMatC= 2.09D-06 BMatP= 1.61D-04
 IDIUse=1 WtCom= 1.00D+00 WtEn= 0.00D+00
 Coeff-Com: -0.341D-02 0.835D-02-0.369D-01-0.297D-01-0.225D-01 0.108D+01
 Coeff:     -0.341D-02 0.835D-02-0.369D-01-0.297D-01-0.225D-01 0.108D+01
 Gap=     0.203 Goal=   None    Shift=    0.000
 Gap=     0.139 Goal=   None    Shift=    0.000
 RMSDP=1.32D-05 MaxDP=2.44D-04 DE=-4.31D-05 OVMax= 1.33D-03

 Cycle   7  Pass 1  IDiag  1:
 E= -130.775313728741     Delta-E=       -0.000001524588 Rises=F Damp=F
 DIIS: error= 3.13D-05 at cycle   7 NSaved=   7.
 NSaved= 7 IEnMin= 7 EnMin= -130.775313728741     IErMin= 7 ErrMin= 3.13D-05
 ErrMax= 3.13D-05  0.00D+00 EMaxC= 1.00D-01 BMatC= 2.42D-07 BMatP= 2.09D-06
 IDIUse=1 WtCom= 1.00D+00 WtEn= 0.00D+00
 Coeff-Com:  0.128D-02-0.188D-02 0.202D-02 0.869D-02-0.754D-01-0.219D+00
 Coeff-Com:  0.128D+01
 Coeff:      0.128D-02-0.188D-02 0.202D-02 0.869D-02-0.754D-01-0.219D+00
 Coeff:      0.128D+01
 Gap=     0.203 Goal=   None    Shift=    0.000
 Gap=     0.139 Goal=   None    Shift=    0.000
 RMSDP=6.79D-06 MaxDP=1.49D-04 DE=-1.52D-06 OVMax= 8.01D-04

 Cycle   8  Pass 1  IDiag  1:
 E= -130.775313985989     Delta-E=       -0.000000257248 Rises=F Damp=F
 DIIS: error= 7.68D-06 at cycle   8 NSaved=   8.
 NSaved= 8 IEnMin= 8 EnMin= -130.775313985989     IErMin= 8 ErrMin= 7.68D-06
 ErrMax= 7.68D-06  0.00D+00 EMaxC= 1.00D-01 BMatC= 1.56D-08 BMatP= 2.42D-07
 IDIUse=1 WtCom= 1.00D+00 WtEn= 0.00D+00
 Coeff-Com: -0.391D-03 0.760D-03 0.320D-02 0.850D-03 0.145D-01-0.135D+00
 Coeff-Com: -0.246D-01 0.114D+01
 Coeff:     -0.391D-03 0.760D-03 0.320D-02 0.850D-03 0.145D-01-0.135D+00
 Coeff:     -0.246D-01 0.114D+01
 Gap=     0.203 Goal=   None    Shift=    0.000
 Gap=     0.139 Goal=   None    Shift=    0.000
 RMSDP=1.87D-06 MaxDP=3.53D-05 DE=-2.57D-07 OVMax= 2.22D-04

 Cycle   9  Pass 1  IDiag  1:
 E= -130.775314000202     Delta-E=       -0.000000014213 Rises=F Damp=F
 DIIS: error= 1.70D-06 at cycle   9 NSaved=   9.
 NSaved= 9 IEnMin= 9 EnMin= -130.775314000202     IErMin= 9 ErrMin= 1.70D-06
 ErrMax= 1.70D-06  0.00D+00 EMaxC= 1.00D-01 BMatC= 4.12D-10 BMatP= 1.56D-08
 IDIUse=1 WtCom= 1.00D+00 WtEn= 0.00D+00
 Coeff-Com: -0.176D-03 0.332D-03 0.330D-03-0.326D-03 0.536D-02-0.124D-01
 Coeff-Com: -0.454D-01 0.185D+00 0.867D+00
 Coeff:     -0.176D-03 0.332D-03 0.330D-03-0.326D-03 0.536D-02-0.124D-01
 Coeff:     -0.454D-01 0.185D+00 0.867D+00
 Gap=     0.203 Goal=   None    Shift=    0.000
 Gap=     0.139 Goal=   None    Shift=    0.000
 RMSDP=1.62D-07 MaxDP=3.85D-06 DE=-1.42D-08 OVMax= 1.38D-05

 Cycle  10  Pass 1  IDiag  1:
 E= -130.775314000351     Delta-E=       -0.000000000149 Rises=F Damp=F
 DIIS: error= 2.76D-07 at cycle  10 NSaved=  10.
 NSaved=10 IEnMin=10 EnMin= -130.775314000351     IErMin=10 ErrMin= 2.76D-07
 ErrMax= 2.76D-07  0.00D+00 EMaxC= 1.00D-01 BMatC= 2.26D-11 BMatP= 4.12D-10
 IDIUse=1 WtCom= 1.00D+00 WtEn= 0.00D+00
 Coeff-Com: -0.676D-05 0.131D-04-0.134D-03-0.106D-03-0.989D-05 0.542D-02
 Coeff-Com: -0.884D-02-0.331D-01 0.127D+00 0.910D+00
 Coeff:     -0.676D-05 0.131D-04-0.134D-03-0.106D-03-0.989D-05 0.542D-02
 Coeff:     -0.884D-02-0.331D-01 0.127D+00 0.910D+00
 Gap=     0.203 Goal=   None    Shift=    0.000
 Gap=     0.139 Goal=   None    Shift=    0.000
 RMSDP=3.70D-08 MaxDP=7.85D-07 DE=-1.49D-10 OVMax= 3.50D-06

 Cycle  11  Pass 1  IDiag  1:
 E= -130.775314000359     Delta-E=       -0.000000000008 Rises=F Damp=F
 DIIS: error= 4.77D-08 at cycle  11 NSaved=  11.
 NSaved=11 IEnMin=11 EnMin= -130.775314000359     IErMin=11 ErrMin= 4.77D-08
 ErrMax= 4.77D-08  0.00D+00 EMaxC= 1.00D-01 BMatC= 4.31D-13 BMatP= 2.26D-11
 IDIUse=1 WtCom= 1.00D+00 WtEn= 0.00D+00
 Coeff-Com:  0.973D-05-0.195D-04 0.115D-05 0.248D-04-0.171D-03 0.521D-04
 Coeff-Com:  0.245D-02-0.284D-02-0.404D-01-0.741D-01 0.111D+01
 Coeff:      0.973D-05-0.195D-04 0.115D-05 0.248D-04-0.171D-03 0.521D-04
 Coeff:      0.245D-02-0.284D-02-0.404D-01-0.741D-01 0.111D+01
 Gap=     0.203 Goal=   None    Shift=    0.000
 Gap=     0.139 Goal=   None    Shift=    0.000
 RMSDP=8.16D-09 MaxDP=2.03D-07 DE=-8.01D-12 OVMax= 3.80D-07

 SCF Done:  E(UB3LYP) =  -130.775314000     A.U. after   11 cycles
            NFock= 11  Conv=0.82D-08     -V/T= 2.0038
 <Sx>= 0.0000 <Sy>= 0.0000 <Sz>= 0.5000 <S**2>= 0.7568 S= 0.5034
 <L.S>= 0.000000000000E+00
 KE= 1.302800714956D+02 PE=-3.967561720588D+02 EE= 8.940902902076D+01
 Annihilation of the first spin contaminant:
 S**2 before annihilation     0.7568,   after     0.7500
 Leave Link  502 at Tue Aug 16 17:36:30 2016, MaxMem=    33554432 cpu:        11.2
 (Enter /home/proyectos/fulerenos/M3C-v2.0/M3C-deps_CCC/g09-AM64L-G09RevC.01/l801.exe)
 DoSCS=F DFT=T ScalE2(SS,OS)=  1.000000  1.000000
 Range of M.O.s used for correlation:     1   117
 NBasis=   117 NAE=    10 NBE=     9 NFC=     0 NFV=     0
 NROrb=    117 NOA=    10 NOB=     9 NVA=   107 NVB=   108

 **** Warning!!: The largest alpha MO coefficient is  0.30591603D+02


 **** Warning!!: The largest beta MO coefficient is  0.30809623D+02

 Leave Link  801 at Tue Aug 16 17:36:30 2016, MaxMem=    33554432 cpu:         0.0
 (Enter /home/proyectos/fulerenos/M3C-v2.0/M3C-deps_CCC/g09-AM64L-G09RevC.01/l1101.exe)
 Using compressed storage, NAtomX=     3.
 Will process      4 centers per pass.
 Leave Link 1101 at Tue Aug 16 17:36:31 2016, MaxMem=    33554432 cpu:         0.2
 (Enter /home/proyectos/fulerenos/M3C-v2.0/M3C-deps_CCC/g09-AM64L-G09RevC.01/l1102.exe)
 Symmetrizing basis deriv contribution to polar:
 IMax=3 JMax=2 DiffMx= 0.00D+00
 Leave Link 1102 at Tue Aug 16 17:36:31 2016, MaxMem=    33554432 cpu:         0.1
 (Enter /home/proyectos/fulerenos/M3C-v2.0/M3C-deps_CCC/g09-AM64L-G09RevC.01/l1110.exe)
 Forming Gx(P) for the SCF density, NAtomX=     3.
 Integral derivatives from FoFJK, PRISM(SPDF).
 Do as many integral derivatives as possible in FoFJK.
 G2DrvN: MDV=      33554304.
 G2DrvN: will do     4 centers at a time, making    1 passes.
 Calling FoFCou, ICntrl=  3107 FMM=F I1Cent=   0 AccDes= 0.00D+00.
 FoFJK:  IHMeth= 1 ICntrl=    3107 DoSepK=F KAlg= 0 I1Cent=   0 FoldK=F
 IRaf=         0 NMat=   1 IRICut=       1 DoRegI=T DoRafI=F ISym2E= 1.
 FoFCou: FMM=F IPFlag=           0 FMFlag=      100000 FMFlg1=           0
         NFxFlg=           0 DoJE=F BraDBF=F KetDBF=F FulRan=T
         wScrn=  0.000000 ICntrl=    3107 IOpCl=  1 I1Cent=           0 NGrid=           0
         NMat0=    1 NMatS0=      1 NMatT0=    0 NMatD0=    1 NMtDS0=    0 NMtDT0=    0
 Petite list used in FoFCou.
 End of G2Drv F.D. properties file   721 does not exist.
 End of G2Drv F.D. properties file   722 does not exist.
 End of G2Drv F.D. properties file   788 does not exist.
 Leave Link 1110 at Tue Aug 16 17:36:46 2016, MaxMem=    33554432 cpu:        12.2
 (Enter /home/proyectos/fulerenos/M3C-v2.0/M3C-deps_CCC/g09-AM64L-G09RevC.01/l1002.exe)
 Minotr:  UHF open shell wavefunction.
          IDoAtm=111
          Direct CPHF calculation.
          Differentiating once with respect to electric field.
                with respect to dipole field.
          Differentiating once with respect to nuclear coordinates.
          Using symmetry in CPHF.
          Requested convergence is 1.0D-08 RMS, and 1.0D-07 maximum.
          Secondary convergence is 1.0D-12 RMS, and 1.0D-12 maximum.
          NewPWx=T KeepS1=F KeepF1=F KeepIn=T MapXYZ=F SortEE=F KeepMc=T.
          MDV=      33554164 using IRadAn=       2.
 Generate precomputed XC quadrature information.
 Keep R1 and R2 ints in memory in symmetry-blocked form, NReq=29895007.
 FoFCou: FMM=F IPFlag=           0 FMFlag=           0 FMFlg1=           0
         NFxFlg=           0 DoJE=F BraDBF=F KetDBF=F FulRan=T
         wScrn=  0.000000 ICntrl=     600 IOpCl=  0 I1Cent=           0 NGrid=           0
         NMat0=    1 NMatS0=   6903 NMatT0=    0 NMatD0=    1 NMtDS0=    0 NMtDT0=    0
 Petite list used in FoFCou.
          Solving linear equations simultaneously, MaxMat=       0.
          There are     9 degrees of freedom in the 1st order CPHF.  IDoFFX=4 NUNeed=     9.
      9 vectors produced by pass  0 Test12= 2.27D-14 1.11D-08 XBig12= 8.11D+01 5.76D+00.
 AX will form     9 AO Fock derivatives at one time.
      9 vectors produced by pass  1 Test12= 2.27D-14 1.11D-08 XBig12= 3.55D+01 1.79D+00.
      9 vectors produced by pass  2 Test12= 2.27D-14 1.11D-08 XBig12= 1.77D+00 4.38D-01.
      9 vectors produced by pass  3 Test12= 2.27D-14 1.11D-08 XBig12= 9.73D-02 7.60D-02.
      9 vectors produced by pass  4 Test12= 2.27D-14 1.11D-08 XBig12= 2.40D-03 1.20D-02.
      9 vectors produced by pass  5 Test12= 2.27D-14 1.11D-08 XBig12= 2.47D-05 2.05D-03.
      9 vectors produced by pass  6 Test12= 2.27D-14 1.11D-08 XBig12= 2.47D-07 1.36D-04.
      8 vectors produced by pass  7 Test12= 2.27D-14 1.11D-08 XBig12= 1.84D-09 1.24D-05.
      4 vectors produced by pass  8 Test12= 2.27D-14 1.11D-08 XBig12= 1.07D-11 8.35D-07.
      2 vectors produced by pass  9 Test12= 2.27D-14 1.11D-08 XBig12= 6.35D-14 5.92D-08.
      1 vectors produced by pass 10 Test12= 2.27D-14 1.11D-08 XBig12= 2.59D-15 1.76D-08.
 InvSVY:  IOpt=1 It=  1 EMax= 5.33D-15
 Solved reduced A of dimension    78 with     9 vectors.
 FullF1:  Do perturbations    1 to     9.
 Isotropic polarizability for W=    0.000000       26.48 Bohr**3.
 End of Minotr F.D. properties file   721 does not exist.
 End of Minotr F.D. properties file   722 does not exist.
 End of Minotr F.D. properties file   788 does not exist.
 Leave Link 1002 at Tue Aug 16 17:37:56 2016, MaxMem=    33554432 cpu:        61.9
 (Enter /home/proyectos/fulerenos/M3C-v2.0/M3C-deps_CCC/g09-AM64L-G09RevC.01/l601.exe)
 Copying SCF densities to generalized density rwf, IOpCl= 1 IROHF=0.

 **********************************************************************

            Population analysis using the SCF density.

 **********************************************************************

 Orbital symmetries:
 Alpha Orbitals:
       Occupied  (A1) (A1) (B2) (A1) (B2) (A1) (B1) (A1) (B2) (A1)
       Virtual   (A2) (B1) (A1) (B2) (A1) (B1) (B2) (A1) (A2) (B2)
                 (A1) (B1) (B2) (B2) (A1) (A1) (B2) (A1) (B1) (A1)
                 (A2) (B1) (B2) (B2) (A1) (A2) (B1) (B2) (B2) (A1)
                 (A2) (B1) (A1) (A1) (B2) (A1) (A2) (A1) (B2) (B1)
                 (A1) (B2) (B2) (B1) (A1) (A1) (A2) (B1) (A1) (B2)
                 (A2) (B2) (A1) (B2) (B1) (A1) (A2) (B1) (A1) (B1)
                 (A1) (A1) (A2) (B2) (B2) (B1) (B2) (A2) (A1) (A1)
                 (B2) (B1) (A2) (A1) (B2) (A1) (A2) (B1) (B2) (B1)
                 (A1) (B2) (B2) (B2) (A1) (B1) (A2) (A1) (B2) (B1)
                 (A1) (A2) (B1) (B2) (A1) (A2) (A1) (B2) (B2) (A1)
                 (A2) (B1) (A1) (B2) (A1) (B2) (A1)
 Beta  Orbitals:
       Occupied  (A1) (A1) (B2) (A1) (B2) (A1) (B1) (A1) (B2)
       Virtual   (A1) (A2) (B1) (A1) (B2) (A1) (B1) (B2) (A1) (A2)
                 (A1) (B2) (B1) (B2) (B2) (A1) (A1) (B2) (A1) (B1)
                 (A2) (A1) (B1) (B2) (B2) (A1) (A2) (B1) (B2) (B2)
                 (A1) (A2) (B1) (A1) (B2) (A1) (A2) (A1) (A1) (B2)
                 (B1) (A1) (B2) (B2) (B1) (A1) (A1) (A2) (B1) (A1)
                 (B2) (A2) (B2) (A1) (B2) (B1) (A1) (A2) (B1) (A1)
                 (B1) (A1) (A1) (A2) (B2) (B2) (B1) (B2) (A2) (A1)
                 (A1) (B2) (B1) (A2) (A1) (B2) (A1) (A2) (B1) (B2)
                 (B1) (A1) (B2) (B2) (B2) (A1) (B1) (A2) (A1) (B2)
                 (B1) (A1) (A2) (B1) (B2) (A1) (A2) (A1) (B2) (B2)
                 (A1) (A2) (B1) (A1) (B2) (A1) (B2) (A1)
 The electronic state is 2-A1.
 Alpha  occ. eigenvalues --  -14.42364 -10.31377 -10.31360  -1.11423  -0.65063
 Alpha  occ. eigenvalues --   -0.59147  -0.48129  -0.41421  -0.33325  -0.30698
 Alpha virt. eigenvalues --   -0.10429  -0.07546   0.02370   0.02653   0.04669
 Alpha virt. eigenvalues --    0.05424   0.07464   0.08931   0.10519   0.10700
 Alpha virt. eigenvalues --    0.12877   0.14840   0.15645   0.20182   0.21152
 Alpha virt. eigenvalues --    0.31166   0.33332   0.34144   0.36824   0.40254
 Alpha virt. eigenvalues --    0.41329   0.43275   0.44094   0.47639   0.48907
 Alpha virt. eigenvalues --    0.50419   0.51009   0.54168   0.57376   0.57722
 Alpha virt. eigenvalues --    0.68849   0.68982   0.69736   0.71781   0.72785
 Alpha virt. eigenvalues --    0.80350   0.81294   0.86768   0.91686   1.01473
 Alpha virt. eigenvalues --    1.13197   1.25181   1.31144   1.32993   1.44703
 Alpha virt. eigenvalues --    1.52045   1.56594   1.59985   1.62965   1.69042
 Alpha virt. eigenvalues --    1.80157   1.90640   1.95529   2.06753   2.35026
 Alpha virt. eigenvalues --    2.38772   2.40902   2.52098   2.54650   2.60076
 Alpha virt. eigenvalues --    2.64239   2.69750   2.73822   2.73851   2.78121
 Alpha virt. eigenvalues --    2.81411   2.98617   3.03059   3.07272   3.17321
 Alpha virt. eigenvalues --    3.23824   3.27975   3.36704   3.40954   3.54895
 Alpha virt. eigenvalues --    3.78139   3.83996   3.86658   3.97081   4.06525
 Alpha virt. eigenvalues --    4.09106   4.12847   4.41694   4.69333   4.82773
 Alpha virt. eigenvalues --    4.89752   4.89904   4.97332   5.64624   6.84469
 Alpha virt. eigenvalues --    6.90774   7.00991   7.08353   7.10088   7.28851
 Alpha virt. eigenvalues --    7.35064   7.36842   7.49153   8.05248  10.37223
 Alpha virt. eigenvalues --   10.39219  10.48430  10.73148  11.19916  24.33532
 Alpha virt. eigenvalues --   24.97296  36.22849
  Beta  occ. eigenvalues --  -14.41854 -10.30628 -10.30618  -1.10339  -0.62168
  Beta  occ. eigenvalues --   -0.55480  -0.47563  -0.38915  -0.32014
  Beta virt. eigenvalues --   -0.18069  -0.09387  -0.06764   0.02600   0.03397
  Beta virt. eigenvalues --    0.04827   0.05502   0.08257   0.09192   0.10619
  Beta virt. eigenvalues --    0.13249   0.13862   0.14910   0.15776   0.20467
  Beta virt. eigenvalues --    0.21334   0.32520   0.33971   0.34719   0.37916
  Beta virt. eigenvalues --    0.41347   0.41387   0.43495   0.45195   0.47997
  Beta virt. eigenvalues --    0.49207   0.50955   0.51212   0.55756   0.57898
  Beta virt. eigenvalues --    0.59104   0.69105   0.69556   0.70488   0.73332
  Beta virt. eigenvalues --    0.73345   0.81306   0.81392   0.88069   0.92305
  Beta virt. eigenvalues --    1.01766   1.14158   1.26190   1.31612   1.35446
  Beta virt. eigenvalues --    1.46489   1.53851   1.57252   1.60781   1.65506
  Beta virt. eigenvalues --    1.70636   1.82864   1.93605   1.96061   2.09238
  Beta virt. eigenvalues --    2.36475   2.40083   2.41028   2.54318   2.57133
  Beta virt. eigenvalues --    2.61409   2.67745   2.72541   2.74246   2.75194
  Beta virt. eigenvalues --    2.79924   2.82977   3.00945   3.05312   3.07882
  Beta virt. eigenvalues --    3.19939   3.24934   3.28861   3.37682   3.43215
  Beta virt. eigenvalues --    3.57226   3.78849   3.85948   3.87014   3.97532
  Beta virt. eigenvalues --    4.07612   4.10500   4.13921   4.44378   4.70932
  Beta virt. eigenvalues --    4.84649   4.90494   4.90554   4.99160   5.66110
  Beta virt. eigenvalues --    6.88045   6.94479   7.03224   7.08623   7.12164
  Beta virt. eigenvalues --    7.30454   7.36537   7.39773   7.51500   8.08497
  Beta virt. eigenvalues --   10.37638  10.39395  10.50316  10.75163  11.21621
  Beta virt. eigenvalues --   24.34367  24.98163  36.23404
          Condensed to atoms (all electrons):
               1          2          3
     1  C    6.877011  -0.789397  -0.209531
     2  C   -0.789397   6.877011  -0.209531
     3  N   -0.209531  -0.209531   7.662896
          Atomic-Atomic Spin Densities.
               1          2          3
     1  C    0.510965  -0.006870  -0.070475
     2  C   -0.006870   0.510965  -0.070475
     3  N   -0.070475  -0.070475   0.273710
 Mulliken charges and spin densities:
               1          2
     1  C    0.121917   0.433620
     2  C    0.121917   0.433620
     3  N   -0.243834   0.132760
 Sum of Mulliken charges =   0.00000   1.00000
 Mulliken charges and spin densities with hydrogens summed into heavy atoms:
               1          2
     1  C    0.121917   0.433620
     2  C    0.121917   0.433620
     3  N   -0.243834   0.132760
 APT charges:
               1
     1  C   -0.023607
     2  C   -0.023607
     3  N    0.047213
 Sum of APT charges =  -0.00000
 APT charges with hydrogens summed into heavy atoms:
               1
     1  C   -0.023607
     2  C   -0.023607
     3  N    0.047213
 Electronic spatial extent (au):  <R**2>=             83.3272
 Charge=             -0.0000 electrons
 Dipole moment (field-independent basis, Debye):
    X=             -0.0000    Y=              0.0000    Z=              0.8087  Tot=              0.8087
 Quadrupole moment (field-independent basis, Debye-Ang):
   XX=            -15.6736   YY=            -18.9243   ZZ=            -18.9909
   XY=             -0.0000   XZ=             -0.0000   YZ=             -0.0000
 Traceless Quadrupole moment (field-independent basis, Debye-Ang):
   XX=              2.1893   YY=             -1.0614   ZZ=             -1.1280
   XY=             -0.0000   XZ=             -0.0000   YZ=             -0.0000
 Octapole moment (field-independent basis, Debye-Ang**2):
  XXX=              0.0000  YYY=              0.0000  ZZZ=              4.2266  XYY=              0.0000
  XXY=              0.0000  XXZ=              1.0459  XZZ=              0.0000  YZZ=             -0.0000
  YYZ=              4.4815  XYZ=              0.0000
 Hexadecapole moment (field-independent basis, Debye-Ang**3):
 XXXX=            -16.3835 YYYY=            -71.8984 ZZZZ=            -47.6229 XXXY=             -0.0000
 XXXZ=             -0.0000 YYYX=             -0.0000 YYYZ=              0.0000 ZZZX=             -0.0000
 ZZZY=             -0.0000 XXYY=            -13.2652 XXZZ=            -10.1338 YYZZ=            -20.8244
 XXYZ=             -0.0000 YYXZ=             -0.0000 ZZXY=             -0.0000
 N-N= 4.629175754213D+01 E-N=-3.967561732810D+02  KE= 1.302800714956D+02
 Symmetry A1   KE= 8.850675885122D+01
 Symmetry A2   KE=-8.651680738965D-20
 Symmetry B1   KE= 2.731831408012D+00
 Symmetry B2   KE= 3.904148123634D+01
  Exact polarizability:  20.009   0.000  35.587   0.000  -0.000  23.834
 Approx polarizability:  30.582   0.000  51.724   0.000   0.000  38.921
                          Isotropic Fermi Contact Couplings
        Atom                 a.u.       MegaHertz       Gauss      10(-4) cm-1
     1  C(13)              0.09134     102.68670      36.64117      34.25260
     2  C(13)              0.09134     102.68670      36.64117      34.25260
     3  N(14)              0.24340      78.64495      28.06247      26.23313
 --------------------------------------------------------
       Center         ----  Spin Dipole Couplings  ----
                      3XX-RR        3YY-RR        3ZZ-RR
 --------------------------------------------------------
     1   Atom       -0.327529      0.299481      0.028048
     2   Atom       -0.327529      0.299481      0.028048
     3   Atom       -0.279389     -0.266672      0.546061
 --------------------------------------------------------
                        XY            XZ            YZ
 --------------------------------------------------------
     1   Atom        0.000000      0.000000      0.454136
     2   Atom        0.000000     -0.000000     -0.454136
     3   Atom        0.000000      0.000000      0.000000
 --------------------------------------------------------


 ---------------------------------------------------------------------------------
              Anisotropic Spin Dipole Couplings in Principal Axis System
 ---------------------------------------------------------------------------------

       Atom             a.u.   MegaHertz   Gauss  10(-4) cm-1        Axes

              Baa    -0.3275   -43.951   -15.683   -14.661  1.0000 -0.0000  0.0000
     1 C(13)  Bbb    -0.3102   -41.628   -14.854   -13.886 -0.0000 -0.5974  0.8020
              Bcc     0.6377    85.579    30.537    28.546  0.0000  0.8020  0.5974
 
              Baa    -0.3275   -43.951   -15.683   -14.661  1.0000 -0.0000  0.0000
     2 C(13)  Bbb    -0.3102   -41.628   -14.854   -13.886  0.0000  0.5974  0.8020
              Bcc     0.6377    85.579    30.537    28.546  0.0000  0.8020 -0.5974
 
              Baa    -0.2794   -10.775    -3.845    -3.594  1.0000 -0.0000 -0.0000
     3 N(14)  Bbb    -0.2667   -10.285    -3.670    -3.431  0.0000  1.0000 -0.0000
              Bcc     0.5461    21.060     7.515     7.025  0.0000  0.0000  1.0000
 

 ---------------------------------------------------------------------------------

 No NMR shielding tensors so no spin-rotation constants.
 Leave Link  601 at Tue Aug 16 17:37:57 2016, MaxMem=    33554432 cpu:         0.5
 (Enter /home/proyectos/fulerenos/M3C-v2.0/M3C-deps_CCC/g09-AM64L-G09RevC.01/l701.exe)
 Compute integral second derivatives.
 ... and contract with generalized density number  0.
 Leave Link  701 at Tue Aug 16 17:37:58 2016, MaxMem=    33554432 cpu:         0.5
 (Enter /home/proyectos/fulerenos/M3C-v2.0/M3C-deps_CCC/g09-AM64L-G09RevC.01/l702.exe)
 L702 exits ... SP integral derivatives will be done elsewhere.
 Leave Link  702 at Tue Aug 16 17:37:58 2016, MaxMem=    33554432 cpu:         0.0
 (Enter /home/proyectos/fulerenos/M3C-v2.0/M3C-deps_CCC/g09-AM64L-G09RevC.01/l703.exe)
 Compute integral second derivatives, UseDBF=F ICtDFT=           0.
 Integral derivatives from FoFJK, PRISM(SPDF).
 Calling FoFJK, ICntrl=    100127 FMM=F ISym2X=1 I1Cent= 0 IOpClX= 1 NMat=1 NMatS=1 NMatT=0.
 FoFJK:  IHMeth= 1 ICntrl=  100127 DoSepK=F KAlg= 0 I1Cent=   0 FoldK=F
 IRaf=         0 NMat=   1 IRICut=       1 DoRegI=T DoRafI=F ISym2E= 1.
 FoFCou: FMM=F IPFlag=           0 FMFlag=      100000 FMFlg1=         800
         NFxFlg=           0 DoJE=F BraDBF=F KetDBF=F FulRan=T
         wScrn=  0.000000 ICntrl=  100127 IOpCl=  1 I1Cent=           0 NGrid=           0
         NMat0=    1 NMatS0=      1 NMatT0=    0 NMatD0=    1 NMtDS0=    0 NMtDT0=    0
 Petite list used in FoFCou.
 Leave Link  703 at Tue Aug 16 17:38:44 2016, MaxMem=    33554432 cpu:        46.3
 (Enter /home/proyectos/fulerenos/M3C-v2.0/M3C-deps_CCC/g09-AM64L-G09RevC.01/l716.exe)
 Dipole        =-5.15284208D-18-8.40359318D-15 3.18173992D-01
 Polarizability= 2.00085187D+01 4.48876324D-09 3.55871208D+01
                 5.87747443D-09-3.13569506D-08 2.38341075D+01
 Full mass-weighted force constant matrix:
 Low frequencies ---  -17.9485   -6.8848   -0.0014   -0.0013   -0.0011   15.0612
 Low frequencies ---  668.1914  894.3410 1606.7209
 Diagonal vibrational polarizability:
        0.0000000       1.2047919       0.4094827
 Harmonic frequencies (cm**-1), IR intensities (KM/Mole), Raman scattering
 activities (A**4/AMU), depolarization ratios for plane and unpolarized
 incident light, reduced masses (AMU), force constants (mDyne/A),
 and normal coordinates:
                      1                      2                      3
                     A1                     B2                     A1
 Frequencies --    668.1914               894.3410              1606.7209
 Red. masses --     12.2805                12.7036                12.8685
 Frc consts  --      3.2305                 5.9867                19.5731
 IR Inten    --      0.3917                35.8084                37.0165
  Atom  AN      X      Y      Z        X      Y      Z        X      Y      Z
     1   6     0.00   0.62   0.22     0.00  -0.35   0.45     0.00   0.37  -0.38
     2   6    -0.00  -0.62   0.22    -0.00  -0.35  -0.45    -0.00  -0.37  -0.38
     3   7    -0.00  -0.00  -0.37     0.00   0.59  -0.00     0.00  -0.00   0.66

 -------------------
 - Thermochemistry -
 -------------------
 Temperature   298.150 Kelvin.  Pressure   1.00000 Atm.
 Atom     1 has atomic number  6 and mass  12.00000
 Atom     2 has atomic number  6 and mass  12.00000
 Atom     3 has atomic number  7 and mass  14.00307
 Molecular mass:    38.00307 amu.
 Principal axes and moments of inertia in atomic units:
                           1         2         3
     Eigenvalues --    33.64831  53.32693  86.97524
           X            0.00000   0.00000   1.00000
           Y            1.00000   0.00000  -0.00000
           Z           -0.00000   1.00000   0.00000
 This molecule is an asymmetric top.
 Rotational symmetry number  2.
 Rotational temperatures (Kelvin)      2.57409     1.62420     0.99584
 Rotational constants (GHZ):          53.63542    33.84296    20.75006
 Zero-point vibrational energy      18956.3 (Joules/Mol)
                                    4.53068 (Kcal/Mol)
 Vibrational temperatures:    961.38  1286.76  2311.71
          (Kelvin)
 
 Zero-point correction=                           0.007220 (Hartree/Particle)
 Thermal correction to Energy=                    0.010237
 Thermal correction to Enthalpy=                  0.011181
 Thermal correction to Gibbs Free Energy=        -0.015908
 Sum of electronic and zero-point Energies=           -130.768094
 Sum of electronic and thermal Energies=              -130.765077
 Sum of electronic and thermal Enthalpies=            -130.764133
 Sum of electronic and thermal Free Energies=         -130.791222
 
                     E (Thermal)             CV                S
                      KCal/Mol        Cal/Mol-Kelvin    Cal/Mol-Kelvin
 Total                    6.424              7.412             57.015
 Electronic               0.000              0.000              1.377
 Translational            0.889              2.981             36.834
 Rotational               0.889              2.981             18.307
 Vibrational              4.646              1.450              0.496
                       Q            Log10(Q)             Ln(Q)
 Total Bot       0.207650D+08          7.317332         16.848780
 Total V=0       0.434847D+11         10.638336         24.495674
 Vib (Bot)       0.504254D-03         -3.297350         -7.592430
 Vib (V=0)       0.105598D+01          0.023654          0.054465
 Electronic      0.200000D+01          0.301030          0.693147
 Translational   0.920838D+07          6.964183         16.035625
 Rotational      0.223599D+04          3.349469          7.712438
 
                                                              b3lyp opt
                                                             IR Spectrum
 
     1                                                                                                                               
     6                                                        8                 6                                                    
     0                                                        9                 6                                                    
     7                                                        4                 8                                                    
 
     X                                                        X                 X                                                    
     X                                                        X                                                                      
     X                                                        X                                                                      
     X                                                        X                                                                      
     X                                                        X                                                                      
     X                                                        X                                                                      
     X                                                        X                                                                      
     X                                                        X                                                                      
     X                                                        X                                                                      
     X                                                        X                                                                      
     X                                                        X                                                                      
     X                                                        X                                                                      
     X                                                        X                                                                      
     X                                                        X                                                                      
     X                                                        X                                                                      
     X                                                        X                                                                      
     X                                                        X                                                                      
     X                                                        X                                                                      
     X                                                        X                                                                      
     X                                                                                                                               
 
 ***** Axes restored to original set *****
 -------------------------------------------------------------------
 Center     Atomic                   Forces (Hartrees/Bohr)
 Number     Number              X              Y              Z
 -------------------------------------------------------------------
      1        6          -0.000001424   -0.000220084    0.000000000
      2        6          -0.000021476    0.000219038   -0.000000000
      3        7           0.000022899    0.000001046    0.000000000
 -------------------------------------------------------------------
 Cartesian Forces:  Max     0.000220084 RMS     0.000104032
 Z-matrix is all fixed cartesians, so copy forces.
 Force constants in Cartesian coordinates: 
                1             2             3             4             5 
      1  0.257676D+00
      2 -0.181943D+00  0.248400D+00
      3  0.000000D+00  0.000000D+00 -0.541675D-04
      4  0.999634D-01 -0.612973D-01  0.000000D+00  0.224573D+00
      5  0.871353D-01 -0.182358D+00  0.000000D+00  0.179762D+00  0.281503D+00
      6  0.000000D+00  0.000000D+00  0.921271D-04  0.000000D+00  0.000000D+00
      7 -0.357639D+00  0.243240D+00  0.000000D+00 -0.324536D+00 -0.266898D+00
      8  0.948078D-01 -0.660418D-01  0.000000D+00 -0.118465D+00 -0.991450D-01
      9  0.000000D+00  0.000000D+00 -0.379572D-04  0.000000D+00  0.000000D+00
                6             7             8             9 
      6 -0.541675D-04
      7  0.000000D+00  0.682176D+00
      8  0.000000D+00  0.236574D-01  0.165187D+00
      9 -0.379588D-04  0.000000D+00  0.000000D+00  0.759127D-04
 Leave Link  716 at Tue Aug 16 17:38:44 2016, MaxMem=    33554432 cpu:         0.1
 (Enter /home/proyectos/fulerenos/M3C-v2.0/M3C-deps_CCC/g09-AM64L-G09RevC.01/l103.exe)

 GradGradGradGradGradGradGradGradGradGradGradGradGradGradGradGradGradGrad
 Berny optimization.
 Search for a local minimum.
 Step number   1 out of a maximum of    2
 All quantities printed in internal units (Hartrees-Bohrs-Radians)
 Second derivative matrix not updated -- analytic derivatives used.
 The second derivative matrix:
                          X1        Y1        Z1        X2        Y2
           X1           0.25768
           Y1          -0.18194   0.24840
           Z1           0.00000   0.00000  -0.00005
           X2           0.09996  -0.06130   0.00000   0.22457
           Y2           0.08714  -0.18236   0.00000   0.17976   0.28150
           Z2          -0.00000   0.00000   0.00009  -0.00000   0.00000
           X3          -0.35764   0.24324  -0.00000  -0.32454  -0.26690
           Y3           0.09481  -0.06604  -0.00000  -0.11847  -0.09914
           Z3          -0.00000   0.00000  -0.00004   0.00000   0.00000
                          Z2        X3        Y3        Z3
           Z2          -0.00005
           X3           0.00000   0.68218
           Y3          -0.00000   0.02366   0.16519
           Z3          -0.00004   0.00000  -0.00000   0.00008
 ITU=  0
     Eigenvalues ---    0.20763   0.38615   1.26382
 Angle between quadratic step and forces=  19.28 degrees.
 ClnCor:  largest displacement from symmetrization is 5.82D-12 for atom     2.
 Linear search not attempted -- first point.
 ClnCor:  largest displacement from symmetrization is 2.22D-16 for atom     2.
 B after Tr=     0.000012    0.000001    0.000000
         Rot=    1.000000   -0.000000   -0.000000   -0.000000 Ang=   0.00 deg.
 Variable       Old X    -DE/DX   Delta X   Delta X   Delta X     New X
                                 (Linear)    (Quad)   (Total)
    X1        0.81899  -0.00000   0.00000  -0.00020  -0.00019   0.81880
    Y1       -1.43938  -0.00022   0.00000  -0.00090  -0.00090  -1.44028
    Z1       -0.00000   0.00000   0.00000  -0.00000  -0.00000  -0.00000
    X2        0.68300  -0.00002   0.00000  -0.00029  -0.00027   0.68272
    Y2        1.53876   0.00022   0.00000   0.00088   0.00088   1.53964
    Z2        0.00000  -0.00000   0.00000   0.00000   0.00000   0.00000
    X3       -1.19760   0.00002   0.00000   0.00045   0.00047  -1.19713
    Y3       -0.03929   0.00000   0.00000   0.00002   0.00002  -0.03927
    Z3       -0.00000   0.00000   0.00000   0.00000   0.00000   0.00000
         Item               Value     Threshold  Converged?
 Maximum Force            0.000220     0.000450     YES
 RMS     Force            0.000104     0.000300     YES
 Maximum Displacement     0.000900     0.001800     YES
 RMS     Displacement     0.000461     0.001200     YES
 Predicted change in Energy=-2.038120D-07
 Optimization completed.
    -- Stationary point found.
 GradGradGradGradGradGradGradGradGradGradGradGradGradGradGradGradGradGrad

 Leave Link  103 at Tue Aug 16 17:38:44 2016, MaxMem=    33554432 cpu:         0.0
 (Enter /home/proyectos/fulerenos/M3C-v2.0/M3C-deps_CCC/g09-AM64L-G09RevC.01/l9999.exe)
 1\1\GINC-BLADI2\Freq\UB3LYP\6-311++G(3df,2p)\C2N1(2)\ROOT\16-Aug-2016\
 0\\#p b3lyp/6-311++G(3df,2p) freq symmetry=Loose\\b3lyp opt\\0,2\C,0.4
 33391304,-0.761689293,0.\C,0.3614256957,0.8142752932,0.\N,-0.633743,-0
 .0207940002,0.\\Version=EM64L-G09RevE.01\State=2-A1\HF=-130.775314\S2=
 0.75685\S2-1=0.\S2A=0.750025\RMSD=8.163e-09\RMSF=1.040e-04\ZeroPoint=0
 .0072201\Thermal=0.0102371\Dipole=-0.3178428,-0.0145141,0.\DipoleDeriv
 =0.2630222,0.2501285,0.,-0.1739468,-0.2523248,0.,0.,0.,-0.0815176,0.26
 56558,-0.202723,0.,0.2213523,-0.2549584,0.,0.,0.,-0.0815176,-0.528678,
 -0.0474055,0.,-0.0474055,0.5072833,0.,0.,0.,0.1630352\Polar=23.8585644
 ,-0.5355785,35.5626639,0.,0.,20.0085187\PG=C02V [C2(N1),SGV(C2)]\NImag
 =0\\0.25767596,-0.18194304,0.24839978,0.,0.,-0.00005417,0.09996342,-0.
 06129727,0.,0.22457275,0.08713528,-0.18235803,0.,0.17976239,0.28150300
 ,0.,0.,0.00009213,0.,0.,-0.00005417,-0.35763939,0.24324032,0.,-0.32453
 617,-0.26689767,0.,0.68217556,0.09480776,-0.06604176,0.,-0.11846512,-0
 .09914497,0.,0.02365736,0.16518673,0.,0.,-0.00003796,0.,0.,-0.00003796
 ,0.,0.,0.00007591\\0.00000142,0.00022008,0.,0.00002148,-0.00021904,0.,
 -0.00002290,-0.00000105,0.\\\@


 WHEN YOU'VE SEEN ONE NUCLEAR WAR YOU'VE SEEN THEM ALL.
 Job cpu time:       0 days  0 hours  2 minutes 15.9 seconds.
 File lengths (MBytes):  RWF=     11 Int=      0 D2E=      0 Chk=      2 Scr=      1
 Normal termination of Gaussian 09 at Tue Aug 16 17:38:44 2016.
