 Entering Gaussian System, Link 0=/home/proyectos/fulerenos/M3C-v2.0/M3C-deps_CCC/g09-AM64L-G09RevC.01/g09
 Initial command:
 /home/proyectos/fulerenos/M3C-v2.0/M3C-deps_CCC/g09-AM64L-G09RevC.01/l1.exe "/scratch/naguirre/gaussian/Gau-15251.inp" -scrdir="/scratch/naguirre/gaussian/"
 Entering Link 1 = /home/proyectos/fulerenos/M3C-v2.0/M3C-deps_CCC/g09-AM64L-G09RevC.01/l1.exe PID=     15271.
  
 Copyright (c) 1988,1990,1992,1993,1995,1998,2003,2009,2015,
            Gaussian, Inc.  All Rights Reserved.
  
 This is part of the Gaussian(R) 09 program.  It is based on
 the Gaussian(R) 03 system (copyright 2003, Gaussian, Inc.),
 the Gaussian(R) 98 system (copyright 1998, Gaussian, Inc.),
 the Gaussian(R) 94 system (copyright 1995, Gaussian, Inc.),
 the Gaussian 92(TM) system (copyright 1992, Gaussian, Inc.),
 the Gaussian 90(TM) system (copyright 1990, Gaussian, Inc.),
 the Gaussian 88(TM) system (copyright 1988, Gaussian, Inc.),
 the Gaussian 86(TM) system (copyright 1986, Carnegie Mellon
 University), and the Gaussian 82(TM) system (copyright 1983,
 Carnegie Mellon University). Gaussian is a federally registered
 trademark of Gaussian, Inc.
  
 This software contains proprietary and confidential information,
 including trade secrets, belonging to Gaussian, Inc.
  
 This software is provided under written license and may be
 used, copied, transmitted, or stored only in accord with that
 written license.
  
 The following legend is applicable only to US Government
 contracts under FAR:
  
                    RESTRICTED RIGHTS LEGEND
  
 Use, reproduction and disclosure by the US Government is
 subject to restrictions as set forth in subparagraphs (a)
 and (c) of the Commercial Computer Software - Restricted
 Rights clause in FAR 52.227-19.
  
 Gaussian, Inc.
 340 Quinnipiac St., Bldg. 40, Wallingford CT 06492
  
  
 ---------------------------------------------------------------
 Warning -- This program may not be used in any manner that
 competes with the business of Gaussian, Inc. or will provide
 assistance to any competitor of Gaussian, Inc.  The licensee
 of this program is prohibited from giving any competitor of
 Gaussian, Inc. access to this program.  By using this program,
 the user acknowledges that Gaussian, Inc. is engaged in the
 business of creating and licensing software in the field of
 computational chemistry and represents and warrants to the
 licensee that it is not a competitor of Gaussian, Inc. and that
 it will not use this program in any manner prohibited above.
 ---------------------------------------------------------------
  

 Cite this work as:
 Gaussian 09, Revision E.01,
 M. J. Frisch, G. W. Trucks, H. B. Schlegel, G. E. Scuseria, 
 M. A. Robb, J. R. Cheeseman, G. Scalmani, V. Barone, B. Mennucci, 
 G. A. Petersson, H. Nakatsuji, M. Caricato, X. Li, H. P. Hratchian, 
 A. F. Izmaylov, J. Bloino, G. Zheng, J. L. Sonnenberg, M. Hada, 
 M. Ehara, K. Toyota, R. Fukuda, J. Hasegawa, M. Ishida, T. Nakajima, 
 Y. Honda, O. Kitao, H. Nakai, T. Vreven, J. A. Montgomery, Jr., 
 J. E. Peralta, F. Ogliaro, M. Bearpark, J. J. Heyd, E. Brothers, 
 K. N. Kudin, V. N. Staroverov, T. Keith, R. Kobayashi, J. Normand, 
 K. Raghavachari, A. Rendell, J. C. Burant, S. S. Iyengar, J. Tomasi, 
 M. Cossi, N. Rega, J. M. Millam, M. Klene, J. E. Knox, J. B. Cross, 
 V. Bakken, C. Adamo, J. Jaramillo, R. Gomperts, R. E. Stratmann, 
 O. Yazyev, A. J. Austin, R. Cammi, C. Pomelli, J. W. Ochterski, 
 R. L. Martin, K. Morokuma, V. G. Zakrzewski, G. A. Voth, 
 P. Salvador, J. J. Dannenberg, S. Dapprich, A. D. Daniels, 
 O. Farkas, J. B. Foresman, J. V. Ortiz, J. Cioslowski, 
 and D. J. Fox, Gaussian, Inc., Wallingford CT, 2013.
 
 ******************************************
 Gaussian 09:  EM64L-G09RevE.01 30-Nov-2015
                16-Aug-2016 
 ******************************************
 %NProcShared=1
 Will use up to    1 processors via shared memory.
 ---------------------------------------------
 #p b3lyp/6-311++G(3df,2p) freq symmetry=Loose
 ---------------------------------------------
 1/10=4,30=1,38=1/1,3;
 2/12=2,17=4,18=3,40=1/2;
 3/5=4,6=6,7=1216,11=2,16=1,25=1,30=1,71=2,74=-5,140=1/1,2,3;
 4//1;
 5/5=2,38=5,98=1/2;
 8/6=4,10=90,11=11/1;
 11/6=1,8=1,9=11,15=111,16=1/1,2,10;
 10/6=1/2;
 6/7=2,8=2,9=2,10=2,18=1,28=1/1;
 7/8=1,10=1,25=1/1,2,3,16;
 1/10=4,30=1/3;
 99//99;
 Leave Link    1 at Tue Aug 16 17:35:56 2016, MaxMem=           0 cpu:         0.0
 (Enter /home/proyectos/fulerenos/M3C-v2.0/M3C-deps_CCC/g09-AM64L-G09RevC.01/l101.exe)
 ---------
 b3lyp opt
 ---------
 Symbolic Z-matrix:
 Charge =  0 Multiplicity = 2
 C                    -0.05024  -1.22336   0. 
 C                    -0.09889  -2.52301   0. 
 C                     0.10307   2.52248   0. 
 C                     0.04846   1.22323   0. 
 N                    -0.0024    0.00001   0. 
 
 NAtoms=      5 NQM=        5 NQMF=       0 NMMI=      0 NMMIF=      0
                NMic=       0 NMicF=      0.
                    Isotopes and Nuclear Properties:
 (Nuclear quadrupole moments (NQMom) in fm**2, nuclear magnetic moments (NMagM)
  in nuclear magnetons)

  Atom         1           2           3           4           5
 IAtWgt=          12          12          12          12          14
 AtmWgt=  12.0000000  12.0000000  12.0000000  12.0000000  14.0030740
 NucSpn=           0           0           0           0           2
 AtZEff=   0.0000000   0.0000000   0.0000000   0.0000000   0.0000000
 NQMom=    0.0000000   0.0000000   0.0000000   0.0000000   2.0440000
 NMagM=    0.0000000   0.0000000   0.0000000   0.0000000   0.4037610
 AtZNuc=   6.0000000   6.0000000   6.0000000   6.0000000   7.0000000
 Leave Link  101 at Tue Aug 16 17:35:57 2016, MaxMem=    33554432 cpu:         0.3
 (Enter /home/proyectos/fulerenos/M3C-v2.0/M3C-deps_CCC/g09-AM64L-G09RevC.01/l103.exe)

 GradGradGradGradGradGradGradGradGradGradGradGradGradGradGradGradGradGrad
 Berny optimization.
 Initialization pass.
 Trust Radius=3.00D-01 FncErr=1.00D-07 GrdErr=1.00D-07
 Number of steps in this run=      2 maximum allowed number of steps=      2.
 GradGradGradGradGradGradGradGradGradGradGradGradGradGradGradGradGradGrad

 Leave Link  103 at Tue Aug 16 17:35:57 2016, MaxMem=    33554432 cpu:         0.1
 (Enter /home/proyectos/fulerenos/M3C-v2.0/M3C-deps_CCC/g09-AM64L-G09RevC.01/l202.exe)
                          Input orientation:                          
 ---------------------------------------------------------------------
 Center     Atomic      Atomic             Coordinates (Angstroms)
 Number     Number       Type             X           Y           Z
 ---------------------------------------------------------------------
      1          6           0       -0.050235   -1.223362    0.000000
      2          6           0       -0.098892   -2.523014    0.000000
      3          6           0        0.103072    2.522479    0.000000
      4          6           0        0.048458    1.223230    0.000000
      5          7           0       -0.002402    0.000013    0.000000
 ---------------------------------------------------------------------
                    Distance matrix (angstroms):
                    1          2          3          4          5
     1  C    0.000000
     2  C    1.300563   0.000000
     3  C    3.748977   5.049534   0.000000
     4  C    2.448582   3.749141   1.300396   0.000000
     5  N    1.224310   2.524871   2.524670   1.224274   0.000000
 Stoichiometry    C4N(2)
 Framework group  C*V[C*(CCNCC)]
 Deg. of freedom     4
 Full point group                 C*V     NOp   4
 Largest Abelian subgroup         C2V     NOp   4
 Largest concise Abelian subgroup C1      NOp   1
                         Standard orientation:                         
 ---------------------------------------------------------------------
 Center     Atomic      Atomic             Coordinates (Angstroms)
 Number     Number       Type             X           Y           Z
 ---------------------------------------------------------------------
      1          6           0       -0.000000   -0.000000    1.224263
      2          6           0       -0.000000   -0.000000    2.524821
      3          6           0        0.000000    0.000000   -2.524712
      4          6           0        0.000000    0.000000   -1.224318
      5          7           0        0.000000   -0.000000   -0.000046
 ---------------------------------------------------------------------
 Rotational constants (GHZ):      0.0000000      2.6745283      2.6745283
 Leave Link  202 at Tue Aug 16 17:35:57 2016, MaxMem=    33554432 cpu:         0.0
 (Enter /home/proyectos/fulerenos/M3C-v2.0/M3C-deps_CCC/g09-AM64L-G09RevC.01/l301.exe)
 Standard basis: 6-311++G(3df,2p) (5D, 7F)
 Ernie: Thresh=  0.10000D-02 Tol=  0.10000D-05 Strict=F.
 There are   105 symmetry adapted cartesian basis functions of A1  symmetry.
 There are    20 symmetry adapted cartesian basis functions of A2  symmetry.
 There are    50 symmetry adapted cartesian basis functions of B1  symmetry.
 There are    50 symmetry adapted cartesian basis functions of B2  symmetry.
 There are    85 symmetry adapted basis functions of A1  symmetry.
 There are    20 symmetry adapted basis functions of A2  symmetry.
 There are    45 symmetry adapted basis functions of B1  symmetry.
 There are    45 symmetry adapted basis functions of B2  symmetry.
   195 basis functions,   290 primitive gaussians,   225 cartesian basis functions
    16 alpha electrons       15 beta electrons
       nuclear repulsion energy       104.9265697004 Hartrees.
 IExCor=  402 DFT=T Ex+Corr=B3LYP ExCW=0 ScaHFX=  0.200000
 ScaDFX=  0.800000  0.720000  1.000000  0.810000 ScalE2=  1.000000  1.000000
 IRadAn=      0 IRanWt=     -1 IRanGd=            0 ICorTp=0 IEmpDi=  4
 NAtoms=    5 NActive=    5 NUniq=    5 SFac= 1.00D+00 NAtFMM=   60 NAOKFM=F Big=F
 Integral buffers will be    131072 words long.
 Raffenetti 2 integral format.
 Two-electron integral symmetry is turned on.
 Leave Link  301 at Tue Aug 16 17:35:58 2016, MaxMem=    33554432 cpu:         0.3
 (Enter /home/proyectos/fulerenos/M3C-v2.0/M3C-deps_CCC/g09-AM64L-G09RevC.01/l302.exe)
 NPDir=0 NMtPBC=     1 NCelOv=     1 NCel=       1 NClECP=     1 NCelD=      1
         NCelK=      1 NCelE2=     1 NClLst=     1 CellRange=     0.0.
 One-electron integrals computed using PRISM.
 NBasis=   195 RedAO= T EigKep=  3.08D-06  NBF=    85    20    45    45
 NBsUse=   195 1.00D-06 EigRej= -1.00D+00 NBFU=    85    20    45    45
 Precomputing XC quadrature grid using
 IXCGrd= 4 IRadAn=           0 IRanWt=          -1 IRanGd=           0 AccXCQ= 0.00D+00.
 Generated NRdTot=       0 NPtTot=           0 NUsed=           0 NTot=          32
 NSgBfM=   225   225   225   225   225 MxSgAt=     5 MxSgA2=     5.
 Leave Link  302 at Tue Aug 16 17:35:59 2016, MaxMem=    33554432 cpu:         0.6
 (Enter /home/proyectos/fulerenos/M3C-v2.0/M3C-deps_CCC/g09-AM64L-G09RevC.01/l303.exe)
 DipDrv:  MaxL=1.
 Leave Link  303 at Tue Aug 16 17:35:59 2016, MaxMem=    33554432 cpu:         0.1
 (Enter /home/proyectos/fulerenos/M3C-v2.0/M3C-deps_CCC/g09-AM64L-G09RevC.01/l401.exe)
 ExpMin= 4.38D-02 ExpMax= 6.29D+03 ExpMxC= 9.49D+02 IAcc=2 IRadAn=         4 AccDes= 0.00D+00
 Harris functional with IExCor=  402 and IRadAn=       4 diagonalized for initial guess.
 HarFok:  IExCor=  402 AccDes= 0.00D+00 IRadAn=         4 IDoV= 1 UseB2=F ITyADJ=14
 ICtDFT=  3500011 ScaDFX=  1.000000  1.000000  1.000000  1.000000
 FoFCou: FMM=F IPFlag=           0 FMFlag=      100000 FMFlg1=           0
         NFxFlg=           0 DoJE=T BraDBF=F KetDBF=T FulRan=T
         wScrn=  0.000000 ICntrl=     500 IOpCl=  0 I1Cent=   200000004 NGrid=           0
         NMat0=    1 NMatS0=      1 NMatT0=    0 NMatD0=    1 NMtDS0=    0 NMtDT0=    0
 Petite list used in FoFCou.
 Harris En= -206.897518210149    
 JPrj=0 DoOrth=F DoCkMO=F.
 Initial guess orbital symmetries:
 Alpha Orbitals:
       Occupied  (SG) (SG) (SG) (SG) (SG) (SG) (SG) (SG) (SG) (PI)
                 (PI) (SG) (SG) (PI) (PI) (PI)
       Virtual   (PI) (PI) (PI) (SG) (SG) (PI) (PI) (PI) (PI) (SG)
                 (SG) (PI) (PI) (SG) (PI) (PI) (SG) (SG) (PI) (PI)
                 (SG) (SG) (PI) (PI) (DLTA) (DLTA) (SG) (SG) (DLTA)
                 (DLTA) (SG) (DLTA) (DLTA) (SG) (SG) (SG) (PI)
                 (PI) (PI) (PI) (PI) (PI) (PI) (PI) (DLTA) (DLTA)
                 (SG) (SG) (PI) (PI) (PI) (PI) (SG) (SG) (SG) (DLTA)
                 (DLTA) (SG) (PI) (PI) (PI) (PI) (SG) (SG) (PI)
                 (PI) (SG) (SG) (PI) (PI) (DLTA) (DLTA) (DLTA)
                 (DLTA) (SG) (PI) (PI) (SG) (SG) (PI) (PI) (DLTA)
                 (DLTA) (DLTA) (DLTA) (SG) (PI) (PI) (SG) (SG)
                 (PI) (PI) (DLTA) (DLTA) (DLTA) (DLTA) (PHI) (PHI)
                 (PHI) (PHI) (PI) (PI) (PI) (PI) (SG) (SG) (DLTA)
                 (DLTA) (PI) (PI) (PI) (PI) (PHI) (PHI) (PHI) (PHI)
                 (SG) (SG) (PI) (PI) (PI) (PI) (DLTA) (DLTA) (SG)
                 (PHI) (PHI) (SG) (DLTA) (DLTA) (SG) (PI) (PI)
                 (SG) (SG) (PI) (PI) (SG) (PI) (PI) (DLTA) (DLTA)
                 (SG) (SG) (PI) (PI) (PI) (PI) (DLTA) (DLTA) (DLTA)
                 (DLTA) (SG) (DLTA) (DLTA) (DLTA) (DLTA) (SG) (PI)
                 (PI) (PI) (PI) (SG) (PI) (PI) (PI) (PI) (SG) (SG)
                 (DLTA) (DLTA) (PI) (PI) (SG) (SG) (SG) (SG) (SG)
                 (SG)
 Beta  Orbitals:
       Occupied  (SG) (SG) (SG) (SG) (SG) (SG) (SG) (SG) (SG) (PI)
                 (PI) (SG) (SG) (PI) (PI)
       Virtual   (PI) (PI) (PI) (PI) (SG) (SG) (PI) (PI) (PI) (PI)
                 (SG) (SG) (PI) (PI) (SG) (PI) (PI) (SG) (SG) (PI)
                 (PI) (SG) (SG) (PI) (PI) (DLTA) (DLTA) (SG) (SG)
                 (DLTA) (DLTA) (SG) (DLTA) (DLTA) (SG) (SG) (SG)
                 (PI) (PI) (PI) (PI) (PI) (PI) (PI) (PI) (DLTA)
                 (DLTA) (SG) (SG) (PI) (PI) (PI) (PI) (SG) (SG)
                 (SG) (DLTA) (DLTA) (SG) (PI) (PI) (PI) (PI) (SG)
                 (SG) (PI) (PI) (SG) (SG) (PI) (PI) (DLTA) (DLTA)
                 (DLTA) (DLTA) (SG) (PI) (PI) (SG) (SG) (PI) (PI)
                 (DLTA) (DLTA) (DLTA) (DLTA) (SG) (PI) (PI) (SG)
                 (SG) (PI) (PI) (DLTA) (DLTA) (DLTA) (DLTA) (PHI)
                 (PHI) (PHI) (PHI) (PI) (PI) (PI) (PI) (SG) (SG)
                 (DLTA) (DLTA) (PI) (PI) (PI) (PI) (PHI) (PHI)
                 (PHI) (PHI) (SG) (SG) (PI) (PI) (PI) (PI) (DLTA)
                 (DLTA) (SG) (PHI) (PHI) (SG) (DLTA) (DLTA) (SG)
                 (PI) (PI) (SG) (SG) (PI) (PI) (SG) (PI) (PI) (DLTA)
                 (DLTA) (SG) (SG) (PI) (PI) (PI) (PI) (DLTA) (DLTA)
                 (DLTA) (DLTA) (SG) (DLTA) (DLTA) (DLTA) (DLTA)
                 (SG) (PI) (PI) (PI) (PI) (SG) (PI) (PI) (PI) (PI)
                 (SG) (SG) (DLTA) (DLTA) (PI) (PI) (SG) (SG) (SG)
                 (SG) (SG) (SG)
 Initial guess <Sx>= 0.0000 <Sy>= 0.0000 <Sz>= 0.5000 <S**2>= 0.7500 S= 0.5000
 Leave Link  401 at Tue Aug 16 17:36:03 2016, MaxMem=    33554432 cpu:         1.1
 (Enter /home/proyectos/fulerenos/M3C-v2.0/M3C-deps_CCC/g09-AM64L-G09RevC.01/l502.exe)
 UHF open shell SCF:
 Using DIIS extrapolation, IDIIS=  1040.
 Integral symmetry usage will be decided dynamically.
 IVT=      173522 IEndB=      173522 NGot=    33554432 MDV=    33448401
 LenX=    33448401 LenY=    33397335
 Requested convergence on RMS density matrix=1.00D-08 within 128 cycles.
 Requested convergence on MAX density matrix=1.00D-06.
 Requested convergence on             energy=1.00D-06.
 No special actions if energy rises.
 Fock matrices will be formed incrementally for  20 cycles.

 Cycle   1  Pass 1  IDiag  1:
 FoFJK:  IHMeth= 1 ICntrl=       0 DoSepK=F KAlg= 0 I1Cent=   0 FoldK=F
 IRaf= 960000000 NMat=   1 IRICut=       1 DoRegI=T DoRafI=F ISym2E= 1.
 FoFCou: FMM=F IPFlag=           0 FMFlag=      100000 FMFlg1=           0
         NFxFlg=           0 DoJE=F BraDBF=F KetDBF=F FulRan=T
         wScrn=  0.000000 ICntrl=       0 IOpCl=  1 I1Cent=           0 NGrid=           0
         NMat0=    1 NMatS0=      1 NMatT0=    0 NMatD0=    1 NMtDS0=    0 NMtDT0=    0
 Petite list used in FoFCou.
 E= -206.840954445748    
 DIIS: error= 2.44D-02 at cycle   1 NSaved=   1.
 NSaved= 1 IEnMin= 1 EnMin= -206.840954445748     IErMin= 1 ErrMin= 2.44D-02
 ErrMax= 2.44D-02  0.00D+00 EMaxC= 1.00D-01 BMatC= 2.53D-01 BMatP= 2.53D-01
 IDIUse=3 WtCom= 7.56D-01 WtEn= 2.44D-01
 Coeff-Com:  0.100D+01
 Coeff-En:   0.100D+01
 Coeff:      0.100D+01
 Gap=     0.062 Goal=   None    Shift=    0.000
 Gap=     0.091 Goal=   None    Shift=    0.000
 GapD=    0.062 DampG=0.500 DampE=0.500 DampFc=0.2500 IDamp=-1.
 Damping current iteration by 2.50D-01
 RMSDP=1.66D-02 MaxDP=6.39D-01              OVMax= 1.71D-01

 Cycle   2  Pass 1  IDiag  1:
 RMSU=  4.11D-03    CP:  9.77D-01
 E= -206.860514314847     Delta-E=       -0.019559869099 Rises=F Damp=T
 DIIS: error= 1.43D-02 at cycle   2 NSaved=   2.
 NSaved= 2 IEnMin= 2 EnMin= -206.860514314847     IErMin= 2 ErrMin= 1.43D-02
 ErrMax= 1.43D-02  0.00D+00 EMaxC= 1.00D-01 BMatC= 8.89D-02 BMatP= 2.53D-01
 IDIUse=3 WtCom= 8.57D-01 WtEn= 1.43D-01
 Coeff-Com: -0.605D+00 0.160D+01
 Coeff-En:   0.000D+00 0.100D+01
 Coeff:     -0.519D+00 0.152D+01
 Gap=     0.063 Goal=   None    Shift=    0.000
 Gap=     0.117 Goal=   None    Shift=    0.000
 RMSDP=7.98D-03 MaxDP=3.03D-01 DE=-1.96D-02 OVMax= 1.27D-01

 Cycle   3  Pass 1  IDiag  1:
 RMSU=  2.58D-03    CP:  9.02D-01  2.78D+00
 E= -206.889622878205     Delta-E=       -0.029108563358 Rises=F Damp=F
 DIIS: error= 1.51D-02 at cycle   3 NSaved=   3.
 NSaved= 3 IEnMin= 3 EnMin= -206.889622878205     IErMin= 2 ErrMin= 1.43D-02
 ErrMax= 1.51D-02  0.00D+00 EMaxC= 1.00D-01 BMatC= 5.01D-02 BMatP= 8.89D-02
 IDIUse=3 WtCom= 8.49D-01 WtEn= 1.51D-01
 Coeff-Com: -0.518D+00 0.941D+00 0.577D+00
 Coeff-En:   0.000D+00 0.000D+00 0.100D+01
 Coeff:     -0.439D+00 0.799D+00 0.641D+00
 Gap=     0.063 Goal=   None    Shift=    0.000
 Gap=     0.121 Goal=   None    Shift=    0.000
 RMSDP=1.03D-03 MaxDP=5.37D-02 DE=-2.91D-02 OVMax= 5.34D-02

 Cycle   4  Pass 1  IDiag  1:
 RMSU=  7.87D-04    CP:  9.00D-01  2.62D+00  9.69D-01
 E= -206.898519716179     Delta-E=       -0.008896837974 Rises=F Damp=F
 DIIS: error= 8.36D-03 at cycle   4 NSaved=   4.
 NSaved= 4 IEnMin= 4 EnMin= -206.898519716179     IErMin= 4 ErrMin= 8.36D-03
 ErrMax= 8.36D-03  0.00D+00 EMaxC= 1.00D-01 BMatC= 1.12D-02 BMatP= 5.01D-02
 IDIUse=3 WtCom= 9.16D-01 WtEn= 8.36D-02
 Coeff-Com:  0.548D-01-0.682D-01 0.293D+00 0.721D+00
 Coeff-En:   0.000D+00 0.000D+00 0.244D+00 0.756D+00
 Coeff:      0.502D-01-0.625D-01 0.289D+00 0.724D+00
 Gap=     0.065 Goal=   None    Shift=    0.000
 Gap=     0.121 Goal=   None    Shift=    0.000
 RMSDP=4.84D-04 MaxDP=2.58D-02 DE=-8.90D-03 OVMax= 2.68D-02

 Cycle   5  Pass 1  IDiag  1:
 RMSU=  2.79D-04    CP:  8.98D-01  2.53D+00  1.01D+00  8.30D-01
 E= -206.901305962810     Delta-E=       -0.002786246631 Rises=F Damp=F
 DIIS: error= 2.00D-03 at cycle   5 NSaved=   5.
 NSaved= 5 IEnMin= 5 EnMin= -206.901305962810     IErMin= 5 ErrMin= 2.00D-03
 ErrMax= 2.00D-03  0.00D+00 EMaxC= 1.00D-01 BMatC= 6.69D-04 BMatP= 1.12D-02
 IDIUse=3 WtCom= 9.80D-01 WtEn= 2.00D-02
 Coeff-Com:  0.443D-01-0.662D-01 0.150D+00 0.460D+00 0.412D+00
 Coeff-En:   0.000D+00 0.000D+00 0.000D+00 0.000D+00 0.100D+01
 Coeff:      0.434D-01-0.649D-01 0.147D+00 0.451D+00 0.423D+00
 Gap=     0.065 Goal=   None    Shift=    0.000
 Gap=     0.122 Goal=   None    Shift=    0.000
 RMSDP=1.87D-04 MaxDP=1.35D-02 DE=-2.79D-03 OVMax= 1.47D-02

 Cycle   6  Pass 1  IDiag  1:
 RMSU=  1.51D-04    CP:  8.98D-01  2.55D+00  1.01D+00  8.86D-01  9.70D-01
 E= -206.901365590964     Delta-E=       -0.000059628154 Rises=F Damp=F
 DIIS: error= 2.33D-03 at cycle   6 NSaved=   6.
 NSaved= 6 IEnMin= 6 EnMin= -206.901365590964     IErMin= 5 ErrMin= 2.00D-03
 ErrMax= 2.33D-03  0.00D+00 EMaxC= 1.00D-01 BMatC= 4.78D-04 BMatP= 6.69D-04
 IDIUse=3 WtCom= 9.80D-01 WtEn= 2.00D-02
 Coeff-Com:  0.170D-01-0.314D-01 0.260D-01 0.162D+00 0.440D+00 0.386D+00
 Coeff-En:   0.000D+00 0.000D+00 0.000D+00 0.000D+00 0.436D+00 0.564D+00
 Coeff:      0.167D-01-0.308D-01 0.254D-01 0.159D+00 0.440D+00 0.390D+00
 Gap=     0.065 Goal=   None    Shift=    0.000
 Gap=     0.123 Goal=   None    Shift=    0.000
 RMSDP=1.37D-04 MaxDP=1.00D-02 DE=-5.96D-05 OVMax= 1.13D-02

 Cycle   7  Pass 1  IDiag  1:
 RMSU=  6.94D-05    CP:  8.98D-01  2.57D+00  1.01D+00  9.16D-01  1.20D+00
                    CP:  4.72D-01
 E= -206.901516849326     Delta-E=       -0.000151258362 Rises=F Damp=F
 DIIS: error= 9.15D-04 at cycle   7 NSaved=   7.
 NSaved= 7 IEnMin= 7 EnMin= -206.901516849326     IErMin= 7 ErrMin= 9.15D-04
 ErrMax= 9.15D-04  0.00D+00 EMaxC= 1.00D-01 BMatC= 1.17D-04 BMatP= 4.78D-04
 IDIUse=3 WtCom= 9.91D-01 WtEn= 9.15D-03
 Coeff-Com: -0.152D-01 0.163D-01-0.780D-01-0.152D+00 0.168D+00 0.416D+00
 Coeff-Com:  0.645D+00
 Coeff-En:   0.000D+00 0.000D+00 0.000D+00 0.000D+00 0.000D+00 0.207D+00
 Coeff-En:   0.793D+00
 Coeff:     -0.151D-01 0.162D-01-0.773D-01-0.150D+00 0.166D+00 0.414D+00
 Coeff:      0.647D+00
 Gap=     0.065 Goal=   None    Shift=    0.000
 Gap=     0.124 Goal=   None    Shift=    0.000
 RMSDP=8.44D-05 MaxDP=5.79D-03 DE=-1.51D-04 OVMax= 4.01D-03

 Cycle   8  Pass 1  IDiag  1:
 RMSU=  3.45D-05    CP:  8.99D-01  2.57D+00  1.01D+00  9.49D-01  1.36D+00
                    CP:  8.09D-01  1.21D+00
 E= -206.901564093819     Delta-E=       -0.000047244494 Rises=F Damp=F
 DIIS: error= 1.56D-04 at cycle   8 NSaved=   8.
 NSaved= 8 IEnMin= 8 EnMin= -206.901564093819     IErMin= 8 ErrMin= 1.56D-04
 ErrMax= 1.56D-04  0.00D+00 EMaxC= 1.00D-01 BMatC= 2.99D-06 BMatP= 1.17D-04
 IDIUse=3 WtCom= 9.98D-01 WtEn= 1.56D-03
 Coeff-Com: -0.100D-02 0.223D-02-0.723D-02-0.391D-01-0.509D-01-0.533D-01
 Coeff-Com: -0.127D-01 0.116D+01
 Coeff-En:   0.000D+00 0.000D+00 0.000D+00 0.000D+00 0.000D+00 0.000D+00
 Coeff-En:   0.000D+00 0.100D+01
 Coeff:     -0.100D-02 0.222D-02-0.722D-02-0.390D-01-0.508D-01-0.532D-01
 Coeff:     -0.127D-01 0.116D+01
 Gap=     0.066 Goal=   None    Shift=    0.000
 Gap=     0.124 Goal=   None    Shift=    0.000
 RMSDP=2.90D-05 MaxDP=1.31D-03 DE=-4.72D-05 OVMax= 1.63D-03

 Cycle   9  Pass 1  IDiag  1:
 RMSU=  5.75D-06    CP:  8.99D-01  2.57D+00  1.01D+00  9.58D-01  1.44D+00
                    CP:  8.72D-01  1.36D+00  1.13D+00
 E= -206.901566740218     Delta-E=       -0.000002646398 Rises=F Damp=F
 DIIS: error= 2.94D-05 at cycle   9 NSaved=   9.
 NSaved= 9 IEnMin= 9 EnMin= -206.901566740218     IErMin= 9 ErrMin= 2.94D-05
 ErrMax= 2.94D-05  0.00D+00 EMaxC= 1.00D-01 BMatC= 9.40D-08 BMatP= 2.99D-06
 IDIUse=1 WtCom= 1.00D+00 WtEn= 0.00D+00
 Coeff-Com:  0.226D-03-0.212D-03 0.295D-02 0.808D-02-0.119D-02-0.126D-01
 Coeff-Com: -0.250D-01-0.878D-01 0.112D+01
 Coeff:      0.226D-03-0.212D-03 0.295D-02 0.808D-02-0.119D-02-0.126D-01
 Coeff:     -0.250D-01-0.878D-01 0.112D+01
 Gap=     0.066 Goal=   None    Shift=    0.000
 Gap=     0.124 Goal=   None    Shift=    0.000
 RMSDP=4.68D-06 MaxDP=2.92D-04 DE=-2.65D-06 OVMax= 2.18D-04

 Cycle  10  Pass 1  IDiag  1:
 RMSU=  1.94D-06    CP:  8.99D-01  2.57D+00  1.01D+00  9.58D-01  1.44D+00
                    CP:  8.63D-01  1.37D+00  1.14D+00  1.31D+00
 E= -206.901566807657     Delta-E=       -0.000000067439 Rises=F Damp=F
 DIIS: error= 1.34D-05 at cycle  10 NSaved=  10.
 NSaved=10 IEnMin=10 EnMin= -206.901566807657     IErMin=10 ErrMin= 1.34D-05
 ErrMax= 1.34D-05  0.00D+00 EMaxC= 1.00D-01 BMatC= 7.09D-08 BMatP= 9.40D-08
 IDIUse=1 WtCom= 1.00D+00 WtEn= 0.00D+00
 Coeff-Com:  0.234D-03-0.354D-03 0.256D-02 0.917D-02 0.468D-02-0.105D-02
 Coeff-Com: -0.138D-01-0.179D+00 0.648D+00 0.529D+00
 Coeff:      0.234D-03-0.354D-03 0.256D-02 0.917D-02 0.468D-02-0.105D-02
 Coeff:     -0.138D-01-0.179D+00 0.648D+00 0.529D+00
 Gap=     0.066 Goal=   None    Shift=    0.000
 Gap=     0.124 Goal=   None    Shift=    0.000
 RMSDP=1.86D-06 MaxDP=9.16D-05 DE=-6.74D-08 OVMax= 7.21D-05

 Cycle  11  Pass 1  IDiag  1:
 RMSU=  8.08D-07    CP:  8.99D-01  2.57D+00  1.01D+00  9.57D-01  1.44D+00
                    CP:  8.70D-01  1.37D+00  1.15D+00  1.41D+00  6.11D-01
 E= -206.901566829910     Delta-E=       -0.000000022253 Rises=F Damp=F
 DIIS: error= 5.35D-06 at cycle  11 NSaved=  11.
 NSaved=11 IEnMin=11 EnMin= -206.901566829910     IErMin=11 ErrMin= 5.35D-06
 ErrMax= 5.35D-06  0.00D+00 EMaxC= 1.00D-01 BMatC= 7.22D-09 BMatP= 7.09D-08
 IDIUse=1 WtCom= 1.00D+00 WtEn= 0.00D+00
 Coeff-Com:  0.296D-04-0.838D-04-0.145D-03 0.238D-03 0.185D-02 0.402D-02
 Coeff-Com:  0.520D-02-0.257D-01-0.216D+00 0.176D+00 0.105D+01
 Coeff:      0.296D-04-0.838D-04-0.145D-03 0.238D-03 0.185D-02 0.402D-02
 Coeff:      0.520D-02-0.257D-01-0.216D+00 0.176D+00 0.105D+01
 Gap=     0.065 Goal=   None    Shift=    0.000
 Gap=     0.124 Goal=   None    Shift=    0.000
 RMSDP=9.31D-07 MaxDP=7.05D-05 DE=-2.23D-08 OVMax= 5.53D-05

 Cycle  12  Pass 1  IDiag  1:
 RMSU=  2.96D-07    CP:  8.99D-01  2.57D+00  1.01D+00  9.57D-01  1.44D+00
                    CP:  8.67D-01  1.36D+00  1.14D+00  1.47D+00  7.82D-01
                    CP:  1.04D+00
 E= -206.901566834366     Delta-E=       -0.000000004456 Rises=F Damp=F
 DIIS: error= 1.16D-06 at cycle  12 NSaved=  12.
 NSaved=12 IEnMin=12 EnMin= -206.901566834366     IErMin=12 ErrMin= 1.16D-06
 ErrMax= 1.16D-06  0.00D+00 EMaxC= 1.00D-01 BMatC= 2.23D-10 BMatP= 7.22D-09
 IDIUse=1 WtCom= 1.00D+00 WtEn= 0.00D+00
 Coeff-Com:  0.122D-05-0.626D-06-0.202D-03-0.752D-03-0.430D-03 0.206D-03
 Coeff-Com:  0.140D-02 0.126D-01-0.499D-01-0.343D-01 0.199D-01 0.105D+01
 Coeff:      0.122D-05-0.626D-06-0.202D-03-0.752D-03-0.430D-03 0.206D-03
 Coeff:      0.140D-02 0.126D-01-0.499D-01-0.343D-01 0.199D-01 0.105D+01
 Gap=     0.065 Goal=   None    Shift=    0.000
 Gap=     0.124 Goal=   None    Shift=    0.000
 RMSDP=1.81D-07 MaxDP=1.01D-05 DE=-4.46D-09 OVMax= 1.27D-05

 Cycle  13  Pass 1  IDiag  1:
 RMSU=  6.61D-08    CP:  8.99D-01  2.57D+00  1.01D+00  9.57D-01  1.44D+00
                    CP:  8.68D-01  1.36D+00  1.14D+00  1.46D+00  7.89D-01
                    CP:  1.09D+00  1.09D+00
 E= -206.901566834502     Delta-E=       -0.000000000136 Rises=F Damp=F
 DIIS: error= 1.81D-07 at cycle  13 NSaved=  13.
 NSaved=13 IEnMin=13 EnMin= -206.901566834502     IErMin=13 ErrMin= 1.81D-07
 ErrMax= 1.81D-07  0.00D+00 EMaxC= 1.00D-01 BMatC= 7.91D-12 BMatP= 2.23D-10
 IDIUse=1 WtCom= 1.00D+00 WtEn= 0.00D+00
 Coeff-Com: -0.440D-05 0.736D-05 0.246D-04 0.682D-04 0.130D-04-0.228D-03
 Coeff-Com: -0.520D-03-0.965D-04 0.173D-01-0.629D-02-0.609D-01-0.834D-01
 Coeff-Com:  0.113D+01
 Coeff:     -0.440D-05 0.736D-05 0.246D-04 0.682D-04 0.130D-04-0.228D-03
 Coeff:     -0.520D-03-0.965D-04 0.173D-01-0.629D-02-0.609D-01-0.834D-01
 Coeff:      0.113D+01
 Gap=     0.065 Goal=   None    Shift=    0.000
 Gap=     0.124 Goal=   None    Shift=    0.000
 RMSDP=7.75D-08 MaxDP=4.80D-06 DE=-1.36D-10 OVMax= 2.05D-06

 Cycle  14  Pass 1  IDiag  1:
 RMSU=  1.39D-08    CP:  8.99D-01  2.57D+00  1.01D+00  9.57D-01  1.44D+00
                    CP:  8.68D-01  1.37D+00  1.14D+00  1.46D+00  7.83D-01
                    CP:  1.09D+00  1.14D+00  1.28D+00
 E= -206.901566834508     Delta-E=       -0.000000000006 Rises=F Damp=F
 DIIS: error= 2.93D-08 at cycle  14 NSaved=  14.
 NSaved=14 IEnMin=14 EnMin= -206.901566834508     IErMin=14 ErrMin= 2.93D-08
 ErrMax= 2.93D-08  0.00D+00 EMaxC= 1.00D-01 BMatC= 1.76D-13 BMatP= 7.91D-12
 IDIUse=1 WtCom= 1.00D+00 WtEn= 0.00D+00
 Coeff-Com:  0.105D-05-0.179D-05 0.649D-06 0.577D-05 0.547D-05 0.387D-04
 Coeff-Com:  0.682D-04-0.246D-03-0.242D-02 0.216D-02 0.125D-01-0.604D-02
 Coeff-Com: -0.279D+00 0.127D+01
 Coeff:      0.105D-05-0.179D-05 0.649D-06 0.577D-05 0.547D-05 0.387D-04
 Coeff:      0.682D-04-0.246D-03-0.242D-02 0.216D-02 0.125D-01-0.604D-02
 Coeff:     -0.279D+00 0.127D+01
 Gap=     0.065 Goal=   None    Shift=    0.000
 Gap=     0.124 Goal=   None    Shift=    0.000
 RMSDP=1.03D-08 MaxDP=7.71D-07 DE=-6.03D-12 OVMax= 3.65D-07

 Cycle  15  Pass 1  IDiag  1:
 RMSU=  2.44D-09    CP:  8.99D-01  2.57D+00  1.01D+00  9.57D-01  1.44D+00
                    CP:  8.68D-01  1.37D+00  1.14D+00  1.46D+00  7.83D-01
                    CP:  1.08D+00  1.14D+00  1.34D+00  1.23D+00
 E= -206.901566834508     Delta-E=       -0.000000000000 Rises=F Damp=F
 DIIS: error= 6.27D-09 at cycle  15 NSaved=  15.
 NSaved=15 IEnMin=15 EnMin= -206.901566834508     IErMin=15 ErrMin= 6.27D-09
 ErrMax= 6.27D-09  0.00D+00 EMaxC= 1.00D-01 BMatC= 6.53D-15 BMatP= 1.76D-13
 IDIUse=1 WtCom= 1.00D+00 WtEn= 0.00D+00
 Coeff-Com: -0.915D-07 0.147D-06-0.716D-06-0.233D-05-0.796D-06 0.140D-05
 Coeff-Com:  0.582D-05 0.300D-04-0.172D-03-0.106D-03 0.284D-03 0.225D-02
 Coeff-Com:  0.205D-02-0.155D+00 0.115D+01
 Coeff:     -0.915D-07 0.147D-06-0.716D-06-0.233D-05-0.796D-06 0.140D-05
 Coeff:      0.582D-05 0.300D-04-0.172D-03-0.106D-03 0.284D-03 0.225D-02
 Coeff:      0.205D-02-0.155D+00 0.115D+01
 Gap=     0.065 Goal=   None    Shift=    0.000
 Gap=     0.124 Goal=   None    Shift=    0.000
 RMSDP=2.89D-09 MaxDP=2.19D-07 DE=-2.27D-13 OVMax= 1.13D-07

 SCF Done:  E(UB3LYP) =  -206.901566835     A.U. after   15 cycles
            NFock= 15  Conv=0.29D-08     -V/T= 2.0042
 <Sx>= 0.0000 <Sy>= 0.0000 <Sz>= 0.5000 <S**2>= 0.7759 S= 0.5129
 <L.S>= 0.000000000000E+00
 KE= 2.060299651587D+02 PE=-6.899301230689D+02 EE= 1.720720213753D+02
 Annihilation of the first spin contaminant:
 S**2 before annihilation     0.7759,   after     0.7503
 Leave Link  502 at Tue Aug 16 17:42:44 2016, MaxMem=    33554432 cpu:       387.8
 (Enter /home/proyectos/fulerenos/M3C-v2.0/M3C-deps_CCC/g09-AM64L-G09RevC.01/l801.exe)
 DoSCS=F DFT=T ScalE2(SS,OS)=  1.000000  1.000000
 Range of M.O.s used for correlation:     1   195
 NBasis=   195 NAE=    16 NBE=    15 NFC=     0 NFV=     0
 NROrb=    195 NOA=    16 NOB=    15 NVA=   179 NVB=   180

 **** Warning!!: The largest alpha MO coefficient is  0.20605064D+03


 **** Warning!!: The smallest alpha delta epsilon is  0.65493566D-01


 **** Warning!!: The largest beta MO coefficient is  0.20033689D+03

 Leave Link  801 at Tue Aug 16 17:42:44 2016, MaxMem=    33554432 cpu:         0.0
 (Enter /home/proyectos/fulerenos/M3C-v2.0/M3C-deps_CCC/g09-AM64L-G09RevC.01/l1101.exe)
 Using compressed storage, NAtomX=     5.
 Will process      6 centers per pass.
 Leave Link 1101 at Tue Aug 16 17:42:44 2016, MaxMem=    33554432 cpu:         0.4
 (Enter /home/proyectos/fulerenos/M3C-v2.0/M3C-deps_CCC/g09-AM64L-G09RevC.01/l1102.exe)
 Symmetrizing basis deriv contribution to polar:
 IMax=3 JMax=2 DiffMx= 0.00D+00
 Leave Link 1102 at Tue Aug 16 17:42:45 2016, MaxMem=    33554432 cpu:         0.1
 (Enter /home/proyectos/fulerenos/M3C-v2.0/M3C-deps_CCC/g09-AM64L-G09RevC.01/l1110.exe)
 Forming Gx(P) for the SCF density, NAtomX=     5.
 Integral derivatives from FoFJK, PRISM(SPDF).
 Do as many integral derivatives as possible in FoFJK.
 G2DrvN: MDV=      33554288.
 G2DrvN: will do     6 centers at a time, making    1 passes.
 Calling FoFCou, ICntrl=  3107 FMM=F I1Cent=   0 AccDes= 0.00D+00.
 FoFJK:  IHMeth= 1 ICntrl=    3107 DoSepK=F KAlg= 0 I1Cent=   0 FoldK=F
 IRaf=         0 NMat=   1 IRICut=       1 DoRegI=T DoRafI=F ISym2E= 1.
 FoFCou: FMM=F IPFlag=           0 FMFlag=      100000 FMFlg1=           0
         NFxFlg=           0 DoJE=F BraDBF=F KetDBF=F FulRan=T
         wScrn=  0.000000 ICntrl=    3107 IOpCl=  1 I1Cent=           0 NGrid=           0
         NMat0=    1 NMatS0=      1 NMatT0=    0 NMatD0=    1 NMtDS0=    0 NMtDT0=    0
 Petite list used in FoFCou.
 End of G2Drv F.D. properties file   721 does not exist.
 End of G2Drv F.D. properties file   722 does not exist.
 End of G2Drv F.D. properties file   788 does not exist.
 Leave Link 1110 at Tue Aug 16 17:45:58 2016, MaxMem=    33554432 cpu:       193.5
 (Enter /home/proyectos/fulerenos/M3C-v2.0/M3C-deps_CCC/g09-AM64L-G09RevC.01/l1002.exe)
 Minotr:  UHF open shell wavefunction.
          IDoAtm=11111
          Direct CPHF calculation.
          Differentiating once with respect to electric field.
                with respect to dipole field.
          Differentiating once with respect to nuclear coordinates.
          Using symmetry in CPHF.
          Requested convergence is 1.0D-08 RMS, and 1.0D-07 maximum.
          Secondary convergence is 1.0D-12 RMS, and 1.0D-12 maximum.
          NewPWx=T KeepS1=F KeepF1=F KeepIn=T MapXYZ=F SortEE=F KeepMc=T.
          MDV=      33553988 using IRadAn=       2.
 Generate precomputed XC quadrature information.
          Solving linear equations simultaneously, MaxMat=       0.
 FoFJK:  IHMeth= 1 ICntrl=       0 DoSepK=F KAlg= 0 I1Cent=   0 FoldK=F
 IRaf= 960000000 NMat=  18 IRICut=      45 DoRegI=T DoRafI=T ISym2E= 2.
 FoFCou: FMM=F IPFlag=           0 FMFlag=      100000 FMFlg1=           0
         NFxFlg=           0 DoJE=F BraDBF=F KetDBF=F FulRan=T
         wScrn=  0.000000 ICntrl=       0 IOpCl=  1 I1Cent=           0 NGrid=           0
         NMat0=   18 NMatS0=     18 NMatT0=    0 NMatD0=   18 NMtDS0=    0 NMtDT0=    0
 Integrals replicated using symmetry in FoFCou.
          There are    18 degrees of freedom in the 1st order CPHF.  IDoFFX=6 NUNeed=     3.
     15 vectors produced by pass  0 Test12= 3.09D-14 5.56D-09 XBig12= 1.57D+03 2.39D+01.
 AX will form    15 AO Fock derivatives at one time.
     15 vectors produced by pass  1 Test12= 3.09D-14 5.56D-09 XBig12= 1.12D+03 1.00D+01.
     15 vectors produced by pass  2 Test12= 3.09D-14 5.56D-09 XBig12= 1.52D+01 1.16D+00.
     15 vectors produced by pass  3 Test12= 3.09D-14 5.56D-09 XBig12= 1.04D+00 6.62D-01.
     15 vectors produced by pass  4 Test12= 3.09D-14 5.56D-09 XBig12= 4.65D-02 6.05D-02.
     15 vectors produced by pass  5 Test12= 3.09D-14 5.56D-09 XBig12= 2.88D-04 5.06D-03.
     15 vectors produced by pass  6 Test12= 3.09D-14 5.56D-09 XBig12= 2.07D-06 3.36D-04.
     11 vectors produced by pass  7 Test12= 3.09D-14 5.56D-09 XBig12= 1.61D-08 2.72D-05.
      7 vectors produced by pass  8 Test12= 3.09D-14 5.56D-09 XBig12= 6.91D-11 1.68D-06.
      5 vectors produced by pass  9 Test12= 3.09D-14 5.56D-09 XBig12= 1.29D-12 4.04D-07.
      3 vectors produced by pass 10 Test12= 3.09D-14 5.56D-09 XBig12= 4.39D-13 1.92D-07.
      3 vectors produced by pass 11 Test12= 3.09D-14 5.56D-09 XBig12= 2.34D-14 4.18D-08.
 InvSVY:  IOpt=1 It=  1 EMax= 8.88D-16
 Solved reduced A of dimension   134 with    15 vectors.
 FullF1:  Do perturbations    1 to     3.
 Isotropic polarizability for W=    0.000000       71.24 Bohr**3.
 End of Minotr F.D. properties file   721 does not exist.
 End of Minotr F.D. properties file   722 does not exist.
 End of Minotr F.D. properties file   788 does not exist.
 Leave Link 1002 at Tue Aug 16 17:56:28 2016, MaxMem=    33554432 cpu:       628.4
 (Enter /home/proyectos/fulerenos/M3C-v2.0/M3C-deps_CCC/g09-AM64L-G09RevC.01/l601.exe)
 Copying SCF densities to generalized density rwf, IOpCl= 1 IROHF=0.

 **********************************************************************

            Population analysis using the SCF density.

 **********************************************************************

 Orbital symmetries:
 Alpha Orbitals:
       Occupied  (SG) (SG) (SG) (SG) (SG) (SG) (SG) (SG) (SG) (PI)
                 (PI) (?A) (SG) (SG) (?A) (PI)
       Virtual   (PI) (?A) (?A) (SG) (SG) (PI) (PI) (SG) (?A) (?A)
                 (SG) (PI) (PI) (SG) (?A) (?A) (SG) (PI) (PI) (SG)
                 (SG) (SG) (PI) (PI) (DLTA) (DLTA) (SG) (?B) (?B)
                 (?B) (SG) (DLTA) (DLTA) (SG) (SG) (SG) (PI) (PI)
                 (?A) (?A) (PI) (DLTA) (PI) (DLTA) (?A) (?A) (SG)
                 (SG) (PI) (PI) (SG) (PI) (PI) (SG) (DLTA) (DLTA)
                 (SG) (SG) (PI) (PI) (PI) (PI) (SG) (SG) (PI) (PI)
                 (SG) (SG) (PI) (PI) (DLTA) (DLTA) (DLTA) (DLTA)
                 (SG) (PI) (PI) (SG) (SG) (PI) (PI) (?C) (?C) (?C)
                 (DLTA) (DLTA) (PI) (PI) (SG) (SG) (PI) (PI) (DLTA)
                 (DLTA) (DLTA) (DLTA) (PHI) (PHI) (PHI) (PHI) (PI)
                 (PI) (PI) (PI) (?D) (?D) (?D) (SG) (PI) (PI) (?E)
                 (?E) (?E) (?E) (PHI) (PHI) (SG) (SG) (PI) (PI)
                 (DLTA) (DLTA) (PI) (PI) (PHI) (PHI) (SG) (SG)
                 (DLTA) (DLTA) (SG) (PI) (PI) (SG) (PI) (PI) (SG)
                 (SG) (DLTA) (PI) (DLTA) (PI) (SG) (SG) (PI) (PI)
                 (PI) (PI) (DLTA) (DLTA) (DLTA) (DLTA) (?F) (DLTA)
                 (DLTA) (?F) (?F) (PI) (PI) (SG) (PI) (PI) (SG)
                 (PI) (PI) (PI) (PI) (SG) (SG) (DLTA) (DLTA) (PI)
                 (PI) (SG) (SG) (SG) (SG) (SG) (SG)
 Beta  Orbitals:
       Occupied  (SG) (SG) (SG) (SG) (SG) (SG) (SG) (SG) (SG) (PI)
                 (PI) (PI) (SG) (SG) (PI)
       Virtual   (PI) (PI) (PI) (SG) (PI) (SG) (PI) (PI) (SG) (SG)
                 (?A) (PI) (?A) (PI) (SG) (?A) (SG) (?A) (PI) (PI)
                 (SG) (?B) (SG) (PI) (PI) (?B) (?B) (?B) (?C) (?C)
                 (?C) (SG) (?B) (?B) (?B) (?B) (SG) (PI) (PI) (?A)
                 (PI) (?A) (?D) (?D) (PI) (?A) (?A) (SG) (?D) (PI)
                 (PI) (SG) (PI) (PI) (SG) (DLTA) (DLTA) (SG) (SG)
                 (PI) (PI) (PI) (PI) (SG) (SG) (PI) (PI) (SG) (SG)
                 (PI) (PI) (DLTA) (DLTA) (?E) (?E) (?E) (PI) (PI)
                 (SG) (SG) (PI) (PI) (?F) (?F) (?F) (DLTA) (DLTA)
                 (PI) (PI) (SG) (SG) (PI) (PI) (DLTA) (DLTA) (DLTA)
                 (DLTA) (PHI) (PHI) (?G) (?G) (?G) (?G) (PI) (PI)
                 (?B) (?B) (?B) (?B) (?G) (?G) (?G) (?G) (?G) (?G)
                 (?G) (?G) (SG) (?H) (PI) (PI) (?H) (?H) (PI) (PI)
                 (PHI) (PHI) (?I) (SG) (?I) (?I) (SG) (PI) (PI)
                 (SG) (PI) (SG) (PI) (SG) (PI) (DLTA) (DLTA) (PI)
                 (SG) (SG) (PI) (PI) (PI) (PI) (DLTA) (DLTA) (DLTA)
                 (DLTA) (?J) (?K) (?K) (?J) (?J) (PI) (?K) (PI)
                 (PI) (PI) (SG) (PI) (PI) (PI) (PI) (SG) (SG) (DLTA)
                 (DLTA) (PI) (PI) (SG) (SG) (SG) (SG) (SG) (SG)
 Unable to determine electronic state:  an orbital has unidentified symmetry.
 Alpha  occ. eigenvalues --  -14.49739 -10.28253 -10.28248 -10.27497 -10.27491
 Alpha  occ. eigenvalues --   -1.08087  -0.87352  -0.79056  -0.74983  -0.53286
 Alpha  occ. eigenvalues --   -0.52318  -0.36244  -0.34831  -0.34467  -0.34236
 Alpha  occ. eigenvalues --   -0.28045
 Alpha virt. eigenvalues --   -0.21496  -0.04175  -0.03051  -0.01859   0.03214
 Alpha virt. eigenvalues --    0.03472   0.03486   0.06068   0.07024   0.07538
 Alpha virt. eigenvalues --    0.07603   0.07824   0.08105   0.12941   0.13565
 Alpha virt. eigenvalues --    0.14124   0.14149   0.16680   0.16804   0.17581
 Alpha virt. eigenvalues --    0.19600   0.21012   0.21825   0.22005   0.22245
 Alpha virt. eigenvalues --    0.22267   0.25121   0.28097   0.28432   0.28514
 Alpha virt. eigenvalues --    0.39115   0.39740   0.39775   0.42779   0.46240
 Alpha virt. eigenvalues --    0.46478   0.47442   0.47733   0.51348   0.51695
 Alpha virt. eigenvalues --    0.52176   0.52390   0.52397   0.52411   0.53193
 Alpha virt. eigenvalues --    0.53340   0.55903   0.59211   0.63791   0.63886
 Alpha virt. eigenvalues --    0.66457   0.66631   0.66804   0.77016   0.77443
 Alpha virt. eigenvalues --    0.77455   0.82163   0.83506   0.85741   0.85851
 Alpha virt. eigenvalues --    0.86349   0.86618   1.00815   1.20967   1.22612
 Alpha virt. eigenvalues --    1.22883   1.26435   1.33339   1.35369   1.35456
 Alpha virt. eigenvalues --    1.39380   1.39447   1.41981   1.42064   1.43985
 Alpha virt. eigenvalues --    1.46890   1.47104   1.53120   1.53461   1.63060
 Alpha virt. eigenvalues --    1.63142   1.65432   1.65520   1.68099   1.68921
 Alpha virt. eigenvalues --    1.69004   1.99596   1.99634   2.09003   2.13149
 Alpha virt. eigenvalues --    2.15273   2.15445   2.33250   2.33294   2.48437
 Alpha virt. eigenvalues --    2.48473   2.57698   2.57706   2.60532   2.60541
 Alpha virt. eigenvalues --    2.66125   2.66807   2.69661   2.70173   2.75889
 Alpha virt. eigenvalues --    2.75941   2.77964   2.78255   2.86174   2.86478
 Alpha virt. eigenvalues --    2.88334   2.88453   2.89409   2.89418   2.94095
 Alpha virt. eigenvalues --    2.94110   3.17854   3.20470   3.24204   3.24630
 Alpha virt. eigenvalues --    3.29220   3.29288   3.30448   3.30530   3.54461
 Alpha virt. eigenvalues --    3.54464   3.57809   3.68977   3.71658   3.71712
 Alpha virt. eigenvalues --    3.82236   3.92880   3.92980   4.02984   4.11822
 Alpha virt. eigenvalues --    4.12269   4.12773   4.27987   4.70818   4.70847
 Alpha virt. eigenvalues --    4.70852   4.70856   5.39975   5.42063   5.59949
 Alpha virt. eigenvalues --    5.59969   6.32521   6.32669   6.85972   6.86041
 Alpha virt. eigenvalues --    6.88445   6.88547   6.95895   6.97741   6.97843
 Alpha virt. eigenvalues --    7.00605   7.00689   7.18255   7.19046   7.19268
 Alpha virt. eigenvalues --    7.21381   7.22160   7.43938   7.57065   7.57183
 Alpha virt. eigenvalues --    7.59598   7.59625   8.20954   9.02278  10.05745
 Alpha virt. eigenvalues --   10.05822  10.88918  10.89596  11.26272  24.48521
 Alpha virt. eigenvalues --   25.32361  25.94773  25.94942  37.05537
  Beta  occ. eigenvalues --  -14.49052 -10.28416 -10.28411 -10.26840 -10.26834
  Beta  occ. eigenvalues --   -1.07055  -0.87073  -0.77220  -0.73564  -0.51945
  Beta  occ. eigenvalues --   -0.50819  -0.34125  -0.33609  -0.33279  -0.32999
  Beta virt. eigenvalues --   -0.20599  -0.18529  -0.02806  -0.01752  -0.01523
  Beta virt. eigenvalues --    0.03389   0.03499   0.03761   0.06120   0.07627
  Beta virt. eigenvalues --    0.07639   0.08233   0.08248   0.08710   0.13107
  Beta virt. eigenvalues --    0.14300   0.14454   0.15138   0.16647   0.16795
  Beta virt. eigenvalues --    0.17618   0.19768   0.21214   0.21810   0.22056
  Beta virt. eigenvalues --    0.22471   0.22483   0.25300   0.28306   0.29021
  Beta virt. eigenvalues --    0.29117   0.39248   0.40363   0.40385   0.43067
  Beta virt. eigenvalues --    0.46645   0.46780   0.47858   0.48660   0.51776
  Beta virt. eigenvalues --    0.52116   0.52480   0.52496   0.52499   0.52640
  Beta virt. eigenvalues --    0.53551   0.54514   0.56114   0.59556   0.64083
  Beta virt. eigenvalues --    0.64839   0.66706   0.67004   0.67996   0.77135
  Beta virt. eigenvalues --    0.77938   0.77946   0.82879   0.83615   0.85781
  Beta virt. eigenvalues --    0.86301   0.86534   0.86821   1.01394   1.21563
  Beta virt. eigenvalues --    1.22559   1.23143   1.27252   1.33720   1.35733
  Beta virt. eigenvalues --    1.36744   1.40288   1.40293   1.43155   1.43203
  Beta virt. eigenvalues --    1.44780   1.47272   1.48478   1.53555   1.53594
  Beta virt. eigenvalues --    1.63262   1.64462   1.67014   1.67050   1.68283
  Beta virt. eigenvalues --    1.70075   1.70077   1.99664   2.00656   2.09757
  Beta virt. eigenvalues --    2.14019   2.15548   2.16769   2.34967   2.34968
  Beta virt. eigenvalues --    2.49238   2.49238   2.58403   2.58405   2.61451
  Beta virt. eigenvalues --    2.61455   2.67210   2.68776   2.70533   2.71929
  Beta virt. eigenvalues --    2.77030   2.77078   2.78469   2.78520   2.86916
  Beta virt. eigenvalues --    2.88274   2.88647   2.89145   2.91272   2.91307
  Beta virt. eigenvalues --    2.95497   2.95507   3.18690   3.21176   3.23944
  Beta virt. eigenvalues --    3.24301   3.30489   3.30511   3.30673   3.31970
  Beta virt. eigenvalues --    3.55965   3.55966   3.58346   3.69443   3.72541
  Beta virt. eigenvalues --    3.72576   3.82831   3.93177   3.94549   4.03510
  Beta virt. eigenvalues --    4.12911   4.13318   4.14385   4.28542   4.71044
  Beta virt. eigenvalues --    4.71625   4.71634   4.72306   5.40358   5.42985
  Beta virt. eigenvalues --    5.60083   5.61244   6.32524   6.33354   6.86676
  Beta virt. eigenvalues --    6.86682   6.89818   6.89832   6.96164   6.99760
  Beta virt. eigenvalues --    6.99785   7.01959   7.01964   7.19196   7.19984
  Beta virt. eigenvalues --    7.20655   7.22306   7.23770   7.45141   7.56877
  Beta virt. eigenvalues --    7.57441   7.59539   7.60343   8.21270   9.02322
  Beta virt. eigenvalues --   10.08597  10.08602  10.90064  10.91392  11.27495
  Beta virt. eigenvalues --   24.48813  25.32711  25.95041  25.95267  37.06233
          Condensed to atoms (all electrons):
               1          2          3          4          5
     1  C    9.127911  -4.356757  -0.217261   0.162411   0.063172
     2  C   -4.356757  11.281213  -0.040531  -0.217256   0.035368
     3  C   -0.217261  -0.040531  11.285093  -4.360443   0.035574
     4  C    0.162411  -0.217256  -4.360443   9.131426   0.062907
     5  N    0.063172   0.035368   0.035574   0.062907   7.839991
          Atomic-Atomic Spin Densities.
               1          2          3          4          5
     1  C    0.110470  -0.232551  -0.031797   0.081224  -0.054929
     2  C   -0.232551   0.822714  -0.039170  -0.031787  -0.025973
     3  C   -0.031797  -0.039170   0.822647  -0.232667  -0.025970
     4  C    0.081224  -0.031787  -0.232667   0.110646  -0.054945
     5  N   -0.054929  -0.025973  -0.025970  -0.054945   0.430655
 Mulliken charges and spin densities:
               1          2
     1  C    1.220525  -0.127584
     2  C   -0.702037   0.493233
     3  C   -0.702432   0.493043
     4  C    1.220955  -0.127529
     5  N   -1.037011   0.268837
 Sum of Mulliken charges =  -0.00000   1.00000
 Mulliken charges and spin densities with hydrogens summed into heavy atoms:
               1          2
     1  C    1.220525  -0.127584
     2  C   -0.702037   0.493233
     3  C   -0.702432   0.493043
     4  C    1.220955  -0.127529
     5  N   -1.037011   0.268837
 APT charges:
               1
     1  C   -0.800901
     2  C    0.375139
     3  C    0.375088
     4  C   -0.800981
     5  N    0.851654
 Sum of APT charges =   0.00000
 APT charges with hydrogens summed into heavy atoms:
               1
     1  C   -0.800901
     2  C    0.375139
     3  C    0.375088
     4  C   -0.800981
     5  N    0.851654
 Electronic spatial extent (au):  <R**2>=            412.1078
 Charge=             -0.0000 electrons
 Dipole moment (field-independent basis, Debye):
    X=              0.0000    Y=             -0.0000    Z=              0.0011  Tot=              0.0011
 Quadrupole moment (field-independent basis, Debye-Ang):
   XX=            -28.3200   YY=            -26.6309   ZZ=            -45.5414
   XY=              0.0000   XZ=              0.0000   YZ=              0.0000
 Traceless Quadrupole moment (field-independent basis, Debye-Ang):
   XX=              5.1774   YY=              6.8665   ZZ=            -12.0440
   XY=              0.0000   XZ=              0.0000   YZ=              0.0000
 Octapole moment (field-independent basis, Debye-Ang**2):
  XXX=              0.0000  YYY=             -0.0000  ZZZ=              0.0092  XYY=              0.0000
  XXY=             -0.0000  XXZ=             -0.0004  XZZ=              0.0000  YZZ=             -0.0000
  YYZ=              0.0002  XYZ=             -0.0000
 Hexadecapole moment (field-independent basis, Debye-Ang**3):
 XXXX=            -32.5644 YYYY=            -29.1584 ZZZZ=           -841.9247 XXXY=              0.0000
 XXXZ=              0.0000 YYYX=              0.0000 YYYZ=              0.0000 ZZZX=              0.0000
 ZZZY=              0.0000 XXYY=            -10.2865 XXZZ=           -113.2943 YYZZ=           -103.8304
 XXYZ=              0.0000 YYXZ=              0.0000 ZZXY=              0.0000
 N-N= 1.049265697004D+02 E-N=-6.899301231432D+02  KE= 2.060299651587D+02
 Symmetry A1   KE= 1.939754335733D+02
 Symmetry A2   KE= 4.526526059306D-34
 Symmetry B1   KE= 6.772060490848D+00
 Symmetry B2   KE= 5.282471094510D+00
  Exact polarizability:  35.254   0.000  34.517   0.000  -0.000 143.937
 Approx polarizability:  48.329   0.000  51.244  -0.000  -0.000 463.601
                          Isotropic Fermi Contact Couplings
        Atom                 a.u.       MegaHertz       Gauss      10(-4) cm-1
     1  C(13)             -0.02859     -32.13701     -11.46728     -10.71975
     2  C(13)              0.01769      19.88463       7.09533       6.63280
     3  C(13)              0.01767      19.86996       7.09010       6.62791
     4  C(13)             -0.02858     -32.12548     -11.46317     -10.71591
     5  N(14)              0.04025      13.00562       4.64073       4.33821
 --------------------------------------------------------
       Center         ----  Spin Dipole Couplings  ----
                      3XX-RR        3YY-RR        3ZZ-RR
 --------------------------------------------------------
     1   Atom       -0.073137     -0.027119      0.100257
     2   Atom        0.575809     -0.282847     -0.292962
     3   Atom        0.575595     -0.282766     -0.292830
     4   Atom       -0.073044     -0.027166      0.100210
     5   Atom        0.747993     -0.347693     -0.400299
 --------------------------------------------------------
                        XY            XZ            YZ
 --------------------------------------------------------
     1   Atom       -0.000000      0.000000     -0.000000
     2   Atom       -0.000000      0.000000     -0.000000
     3   Atom       -0.000000      0.000000     -0.000000
     4   Atom       -0.000000      0.000000     -0.000000
     5   Atom        0.000000     -0.000000      0.000000
 --------------------------------------------------------


 ---------------------------------------------------------------------------------
              Anisotropic Spin Dipole Couplings in Principal Axis System
 ---------------------------------------------------------------------------------

       Atom             a.u.   MegaHertz   Gauss  10(-4) cm-1        Axes

              Baa    -0.0731    -9.814    -3.502    -3.274  1.0000 -0.0000  0.0000
     1 C(13)  Bbb    -0.0271    -3.639    -1.299    -1.214  0.0000  1.0000 -0.0000
              Bcc     0.1003    13.453     4.801     4.488  0.0000  0.0000  1.0000
 
              Baa    -0.2930   -39.313   -14.028   -13.113  0.0000  0.0000  1.0000
     2 C(13)  Bbb    -0.2828   -37.955   -13.543   -12.661 -0.0000  1.0000 -0.0000
              Bcc     0.5758    77.268    27.571    25.774  1.0000  0.0000  0.0000
 
              Baa    -0.2928   -39.295   -14.021   -13.107  0.0000  0.0000  1.0000
     3 C(13)  Bbb    -0.2828   -37.944   -13.540   -12.657 -0.0000  1.0000 -0.0000
              Bcc     0.5756    77.239    27.561    25.764  1.0000 -0.0000  0.0000
 
              Baa    -0.0730    -9.802    -3.498    -3.270  1.0000 -0.0000  0.0000
     4 C(13)  Bbb    -0.0272    -3.645    -1.301    -1.216  0.0000  1.0000 -0.0000
              Bcc     0.1002    13.447     4.798     4.486  0.0000  0.0000  1.0000
 
              Baa    -0.4003   -15.439    -5.509    -5.150  0.0000  0.0000  1.0000
     5 N(14)  Bbb    -0.3477   -13.410    -4.785    -4.473 -0.0000  1.0000 -0.0000
              Bcc     0.7480    28.848    10.294     9.623  1.0000  0.0000  0.0000
 

 ---------------------------------------------------------------------------------

 No NMR shielding tensors so no spin-rotation constants.
 Leave Link  601 at Tue Aug 16 17:56:28 2016, MaxMem=    33554432 cpu:         0.7
 (Enter /home/proyectos/fulerenos/M3C-v2.0/M3C-deps_CCC/g09-AM64L-G09RevC.01/l701.exe)
 Compute integral second derivatives.
 ... and contract with generalized density number  0.
 Leave Link  701 at Tue Aug 16 17:56:29 2016, MaxMem=    33554432 cpu:         0.7
 (Enter /home/proyectos/fulerenos/M3C-v2.0/M3C-deps_CCC/g09-AM64L-G09RevC.01/l702.exe)
 L702 exits ... SP integral derivatives will be done elsewhere.
 Leave Link  702 at Tue Aug 16 17:56:29 2016, MaxMem=    33554432 cpu:         0.0
 (Enter /home/proyectos/fulerenos/M3C-v2.0/M3C-deps_CCC/g09-AM64L-G09RevC.01/l703.exe)
 Compute integral second derivatives, UseDBF=F ICtDFT=           0.
 Integral derivatives from FoFJK, PRISM(SPDF).
 Calling FoFJK, ICntrl=    100127 FMM=F ISym2X=1 I1Cent= 0 IOpClX= 1 NMat=1 NMatS=1 NMatT=0.
 FoFJK:  IHMeth= 1 ICntrl=  100127 DoSepK=F KAlg= 0 I1Cent=   0 FoldK=F
 IRaf=         0 NMat=   1 IRICut=       1 DoRegI=T DoRafI=F ISym2E= 1.
 FoFCou: FMM=F IPFlag=           0 FMFlag=      100000 FMFlg1=         800
         NFxFlg=           0 DoJE=F BraDBF=F KetDBF=F FulRan=T
         wScrn=  0.000000 ICntrl=  100127 IOpCl=  1 I1Cent=           0 NGrid=           0
         NMat0=    1 NMatS0=      1 NMatT0=    0 NMatD0=    1 NMtDS0=    0 NMtDT0=    0
 Petite list used in FoFCou.
 Leave Link  703 at Tue Aug 16 18:01:32 2016, MaxMem=    33554432 cpu:       302.5
 (Enter /home/proyectos/fulerenos/M3C-v2.0/M3C-deps_CCC/g09-AM64L-G09RevC.01/l716.exe)
 Dipole        = 6.22561986D-19-2.29362699D-20 4.41515733D-04
 Polarizability= 3.52536191D+01 1.41006725D-07 3.45172191D+01
                 7.93661527D-08-6.78506189D-08 1.43937071D+02
 Full mass-weighted force constant matrix:
 Low frequencies ---   -0.0009   -0.0005    0.0005    2.9675    3.6413  131.9320
 Low frequencies ---  136.3872  257.3355  334.2827
 Diagonal vibrational polarizability:
       20.8351166      34.2112311      17.6453290
 Harmonic frequencies (cm**-1), IR intensities (KM/Mole), Raman scattering
 activities (A**4/AMU), depolarization ratios for plane and unpolarized
 incident light, reduced masses (AMU), force constants (mDyne/A),
 and normal coordinates:
                      1                      2                      3
                     ?A                     ?A                     ?A
 Frequencies --    131.9315               136.3867               257.3354
 Red. masses --     12.3692                12.7228                12.0000
 Frc consts  --      0.1268                 0.1394                 0.4682
 IR Inten    --     22.1190                14.0315                 0.0001
  Atom  AN      X      Y      Z        X      Y      Z        X      Y      Z
     1   6     0.00  -0.31  -0.00     0.18   0.00  -0.00    -0.00   0.64   0.00
     2   6    -0.00   0.56  -0.00    -0.53  -0.00   0.00     0.00  -0.31   0.00
     3   6    -0.00   0.56   0.00    -0.53  -0.00   0.00    -0.00   0.31  -0.00
     4   6     0.00  -0.31  -0.00     0.18   0.00  -0.00     0.00  -0.64  -0.00
     5   7     0.00  -0.43  -0.00     0.60   0.00   0.00    -0.00   0.00   0.00
                      4                      5                      6
                     ?A                     ?A                     ?A
 Frequencies --    334.2826               372.5091               555.3334
 Red. masses --     12.0000                12.6840                13.0562
 Frc consts  --      0.7901                 1.0370                 2.3723
 IR Inten    --      0.0000                 2.7596                 0.1516
  Atom  AN      X      Y      Z        X      Y      Z        X      Y      Z
     1   6    -0.63  -0.00  -0.00    -0.54   0.00   0.00    -0.00  -0.48   0.00
     2   6     0.31   0.00  -0.00     0.20  -0.00   0.00     0.00   0.06  -0.00
     3   6    -0.31  -0.00   0.00     0.20   0.00  -0.00    -0.00   0.06  -0.00
     4   6     0.64   0.00   0.00    -0.54  -0.00   0.00     0.00  -0.48   0.00
     5   7    -0.00  -0.00  -0.00     0.58   0.00  -0.00    -0.00   0.73  -0.00
                      7                      8                      9
                     SG                     SG                     SG
 Frequencies --    825.5821              1380.7778              1963.8062
 Red. masses --     12.0000                12.3910                12.0028
 Frc consts  --      4.8189                13.9189                27.2728
 IR Inten    --      0.0001               514.4666                 4.2928
  Atom  AN      X      Y      Z        X      Y      Z        X      Y      Z
     1   6     0.00  -0.00   0.33     0.00   0.00  -0.30    -0.00   0.00   0.65
     2   6    -0.00   0.00   0.63     0.00  -0.00   0.56     0.00  -0.00  -0.33
     3   6    -0.00  -0.00  -0.63     0.00   0.00   0.56     0.00   0.00   0.32
     4   6     0.00   0.00  -0.33    -0.00  -0.00  -0.30    -0.00  -0.00  -0.60
     5   7    -0.00  -0.00  -0.00     0.00   0.00  -0.44     0.00   0.00  -0.04
                     10
                     SG
 Frequencies --   1968.9902
 Red. masses --     13.0286
 Frc consts  --     29.7601
 IR Inten    --   1491.5758
  Atom  AN      X      Y      Z
     1   6    -0.00  -0.00  -0.45
     2   6     0.00  -0.00   0.05
     3   6     0.00   0.00   0.09
     4   6    -0.00  -0.00  -0.52
     5   7     0.00   0.00   0.72

 -------------------
 - Thermochemistry -
 -------------------
 Temperature   298.150 Kelvin.  Pressure   1.00000 Atm.
 Atom     1 has atomic number  6 and mass  12.00000
 Atom     2 has atomic number  6 and mass  12.00000
 Atom     3 has atomic number  6 and mass  12.00000
 Atom     4 has atomic number  6 and mass  12.00000
 Atom     5 has atomic number  7 and mass  14.00307
 Molecular mass:    62.00307 amu.
 Principal axes and moments of inertia in atomic units:
                           1         2         3
     Eigenvalues --     0.00000 674.78859 674.78859
           X           -0.00000   0.93541   0.35356
           Y           -0.00000  -0.35356   0.93541
           Z            1.00000   0.00000   0.00000
 This molecule is a prolate symmetric top.
 Rotational symmetry number  1.
 Warning -- assumption of classical behavior for rotation
           may cause significant error
 Rotational temperature (Kelvin)      0.12836
 Rotational constant (GHZ):           2.674528
 Zero-point vibrational energy      47413.6 (Joules/Mol)
                                   11.33212 (Kcal/Mol)
 Warning -- explicit consideration of   6 degrees of freedom as
           vibrations may cause significant error
 Vibrational temperatures:    189.82   196.23   370.25   480.96   535.96
          (Kelvin)            799.00  1187.83  1986.63  2825.48  2832.93
 
 Zero-point correction=                           0.018059 (Hartree/Particle)
 Thermal correction to Energy=                    0.023221
 Thermal correction to Enthalpy=                  0.024166
 Thermal correction to Gibbs Free Energy=        -0.007936
 Sum of electronic and zero-point Energies=           -206.883508
 Sum of electronic and thermal Energies=              -206.878345
 Sum of electronic and thermal Enthalpies=            -206.877401
 Sum of electronic and thermal Free Energies=         -206.909503
 
                     E (Thermal)             CV                S
                      KCal/Mol        Cal/Mol-Kelvin    Cal/Mol-Kelvin
 Total                   14.572             15.570             67.563
 Electronic               0.000              0.000              1.377
 Translational            0.889              2.981             38.293
 Rotational               0.592              1.987             17.389
 Vibrational             13.090             10.602             10.504
 Vibration     1          0.612              1.921              2.918
 Vibration     2          0.614              1.917              2.854
 Vibration     3          0.667              1.750              1.680
 Vibration     4          0.716              1.607              1.239
 Vibration     5          0.744              1.529              1.069
 Vibration     6          0.911              1.128              0.533
                       Q            Log10(Q)             Ln(Q)
 Total Bot       0.446986D+04          3.650294          8.405113
 Total V=0       0.905290D+12         11.956788         27.531521
 Vib (Bot)       0.501388D-07         -7.299826        -16.808471
 Vib (Bot)    1  0.154448D+01          0.188783          0.434689
 Vib (Bot)    2  0.149231D+01          0.173859          0.400326
 Vib (Bot)    3  0.755766D+00         -0.121613         -0.280024
 Vib (Bot)    4  0.557468D+00         -0.253780         -0.584349
 Vib (Bot)    5  0.487898D+00         -0.311671         -0.717648
 Vib (Bot)    6  0.281143D+00         -0.551073         -1.268892
 Vib (V=0)       0.101547D+02          1.006667          2.317937
 Vib (V=0)    1  0.212340D+01          0.327032          0.753019
 Vib (V=0)    2  0.207385D+01          0.316777          0.729405
 Vib (V=0)    3  0.140619D+01          0.148044          0.340884
 Vib (V=0)    4  0.124885D+01          0.096509          0.222220
 Vib (V=0)    5  0.119860D+01          0.078675          0.181156
 Vib (V=0)    6  0.107362D+01          0.030851          0.071037
 Electronic      0.200000D+01          0.301030          0.693147
 Translational   0.191900D+08          7.283075         16.769900
 Rotational      0.232282D+04          3.366015          7.750537
 
                                                              b3lyp opt
                                                             IR Spectrum
 
     11                                    1                                                                                         
     99                                    3                                   8                 5          3  3    2      11        
     66                                    8                                   2                 5          7  3    5      33        
     94                                    1                                   6                 5          3  4    7      62        
 
     XX                                    X                                                     X          X              XX        
     X                                     X                                                                                         
     X                                     X                                                                                         
     X                                     X                                                                                         
     X                                     X                                                                                         
     X                                     X                                                                                         
     X                                     X                                                                                         
     X                                                                                                                               
     X                                                                                                                               
     X                                                                                                                               
     X                                                                                                                               
     X                                                                                                                               
     X                                                                                                                               
     X                                                                                                                               
     X                                                                                                                               
     X                                                                                                                               
     X                                                                                                                               
     X                                                                                                                               
     X                                                                                                                               
     X                                                                                                                               
 
 ***** Axes restored to original set *****
 -------------------------------------------------------------------
 Center     Atomic                   Forces (Hartrees/Bohr)
 Number     Number              X              Y              Z
 -------------------------------------------------------------------
      1        6          -0.000005911   -0.000147443    0.000000000
      2        6           0.000007727    0.000192748   -0.000000000
      3        6          -0.000000629   -0.000015703    0.000000000
      4        6           0.000002538    0.000063320   -0.000000000
      5        7          -0.000003725   -0.000092923   -0.000000000
 -------------------------------------------------------------------
 Cartesian Forces:  Max     0.000192748 RMS     0.000069233
 Z-matrix is all fixed cartesians, so copy forces.
 Force constants in Cartesian coordinates: 
                1             2             3             4             5 
      1  0.399910D-01
      2  0.458563D-01  0.118205D+01
      3 -0.190730D-03  0.764525D-05  0.429067D-01
      4 -0.178786D-01 -0.188984D-01 -0.248127D-03  0.103847D-01
      5 -0.188984D-01 -0.488548D+00  0.994754D-05  0.226821D-01  0.575289D+00
      6 -0.248127D-03  0.994659D-05 -0.109364D-01  0.148991D-03 -0.597309D-05
      7  0.298629D-02  0.385911D-02  0.762190D-04 -0.295115D-03 -0.151362D-02
      8  0.385911D-02  0.990983D-01 -0.305676D-05 -0.151362D-02 -0.379922D-01
      9  0.762177D-04 -0.305481D-05  0.931837D-03 -0.802607D-05  0.000000D+00
     10 -0.334594D-02 -0.103681D-01 -0.860287D-03  0.298700D-02  0.385873D-02
     11 -0.103681D-01 -0.261567D+00  0.344867D-04  0.385873D-02  0.990896D-01
     12 -0.860285D-03  0.344858D-04  0.185125D-01  0.762122D-04 -0.305547D-05
     13 -0.217527D-01 -0.204488D-01  0.122293D-02  0.480208D-02 -0.612883D-02
     14 -0.204488D-01 -0.531036D+00 -0.490227D-04 -0.612883D-02 -0.147838D+00
     15  0.122293D-02 -0.490228D-04 -0.514147D-01  0.309498D-04 -0.124096D-05
                6             7             8             9            10 
      6  0.576174D-02
      7 -0.802697D-05  0.103200D-01
      8  0.000000D+00  0.227103D-01  0.575925D+00
      9 -0.343830D-04  0.149054D-03 -0.597658D-05  0.569443D-02
     10  0.762135D-04 -0.178203D-01 -0.189265D-01 -0.248233D-03  0.399065D-01
     11 -0.305628D-05 -0.189265D-01 -0.489191D+00  0.995233D-05  0.458953D-01
     12  0.932706D-03 -0.248234D-03  0.995306D-05 -0.108743D-01 -0.190583D-03
     13  0.309495D-04  0.480910D-02 -0.612921D-02  0.309874D-04 -0.217273D-01
     14 -0.124056D-05 -0.612921D-02 -0.147840D+00 -0.124294D-05 -0.204593D-01
     15  0.427634D-02  0.309871D-04 -0.124308D-05  0.428244D-02  0.122289D-02
               11            12            13            14            15 
     11  0.118294D+01
     12  0.763780D-05  0.428170D-01
     13 -0.204593D-01  0.122289D-02  0.338689D-01
     14 -0.531271D+00 -0.490211D-04  0.531662D-01  0.135799D+01
     15 -0.490206D-04 -0.513879D-01 -0.250775D-02  0.100527D-03  0.942439D-01
 Leave Link  716 at Tue Aug 16 18:01:32 2016, MaxMem=    33554432 cpu:         0.0
 (Enter /home/proyectos/fulerenos/M3C-v2.0/M3C-deps_CCC/g09-AM64L-G09RevC.01/l103.exe)

 GradGradGradGradGradGradGradGradGradGradGradGradGradGradGradGradGradGrad
 Berny optimization.
 Search for a local minimum.
 Step number   1 out of a maximum of    2
 All quantities printed in internal units (Hartrees-Bohrs-Radians)
 Second derivative matrix not updated -- analytic derivatives used.
 The second derivative matrix:
                          X1        Y1        Z1        X2        Y2
           X1           0.03999
           Y1           0.04586   1.18205
           Z1          -0.00019   0.00001   0.04291
           X2          -0.01788  -0.01890  -0.00025   0.01038
           Y2          -0.01890  -0.48855   0.00001   0.02268   0.57529
           Z2          -0.00025   0.00001  -0.01094   0.00015  -0.00001
           X3           0.00299   0.00386   0.00008  -0.00030  -0.00151
           Y3           0.00386   0.09910  -0.00000  -0.00151  -0.03799
           Z3           0.00008  -0.00000   0.00093  -0.00001   0.00000
           X4          -0.00335  -0.01037  -0.00086   0.00299   0.00386
           Y4          -0.01037  -0.26157   0.00003   0.00386   0.09909
           Z4          -0.00086   0.00003   0.01851   0.00008  -0.00000
           X5          -0.02175  -0.02045   0.00122   0.00480  -0.00613
           Y5          -0.02045  -0.53104  -0.00005  -0.00613  -0.14784
           Z5           0.00122  -0.00005  -0.05141   0.00003  -0.00000
                          Z2        X3        Y3        Z3        X4
           Z2           0.00576
           X3          -0.00001   0.01032
           Y3           0.00000   0.02271   0.57593
           Z3          -0.00003   0.00015  -0.00001   0.00569
           X4           0.00008  -0.01782  -0.01893  -0.00025   0.03991
           Y4          -0.00000  -0.01893  -0.48919   0.00001   0.04590
           Z4           0.00093  -0.00025   0.00001  -0.01087  -0.00019
           X5           0.00003   0.00481  -0.00613   0.00003  -0.02173
           Y5          -0.00000  -0.00613  -0.14784  -0.00000  -0.02046
           Z5           0.00428   0.00003  -0.00000   0.00428   0.00122
                          Y4        Z4        X5        Y5        Z5
           Y4           1.18294
           Z4           0.00001   0.04282
           X5          -0.02046   0.00122   0.03387
           Y5          -0.53127  -0.00005   0.05317   1.35799
           Z5          -0.00005  -0.05139  -0.00251   0.00010   0.09424
 ITU=  0
     Eigenvalues ---    0.00815   0.00896   0.03007   0.05075   0.06698
     Eigenvalues ---    0.15318   0.30952   0.89246   1.75136   1.92678
 Angle between quadratic step and forces=  33.62 degrees.
 ClnCor:  largest displacement from symmetrization is 8.51D-12 for atom     1.
 Linear search not attempted -- first point.
 ClnCor:  largest displacement from symmetrization is 2.67D-15 for atom     3.
 B after Tr=    -0.000029   -0.000000    0.000084
         Rot=    0.945603    0.013031    0.325063   -0.000000 Ang=  37.97 deg.
 Variable       Old X    -DE/DX   Delta X   Delta X   Delta X     New X
                                 (Linear)    (Quad)   (Total)
    X1       -0.09282  -0.00001   0.00000  -0.00000  -0.00000  -0.09282
    Y1       -2.31190  -0.00015   0.00000  -0.00006  -0.00006  -2.31197
    Z1       -0.00000   0.00000   0.00000  -0.00000   0.00000   0.00000
    X2       -0.19126   0.00001   0.00000   0.00001   0.00001  -0.19125
    Y2       -4.76763   0.00019   0.00000   0.00027   0.00026  -4.76737
    Z2       -0.00000  -0.00000   0.00000   0.00000   0.00000   0.00000
    X3        0.19096  -0.00000   0.00000  -0.00000  -0.00000   0.19096
    Y3        4.76695  -0.00002   0.00000  -0.00006  -0.00006   4.76688
    Z3        0.00000   0.00000   0.00000  -0.00000  -0.00000  -0.00000
    X4        0.09253   0.00000   0.00000  -0.00000  -0.00000   0.09253
    Y4        2.31153   0.00006   0.00000  -0.00005  -0.00005   2.31148
    Z4        0.00000  -0.00000   0.00000  -0.00000  -0.00000  -0.00000
    X5       -0.00014  -0.00000   0.00000  -0.00000  -0.00000  -0.00015
    Y5       -0.00015  -0.00009   0.00000  -0.00009  -0.00009  -0.00024
    Z5        0.00000  -0.00000   0.00000  -0.00000   0.00000   0.00000
         Item               Value     Threshold  Converged?
 Maximum Force            0.000193     0.000450     YES
 RMS     Force            0.000069     0.000300     YES
 Maximum Displacement     0.000264     0.001800     YES
 RMS     Displacement     0.000077     0.001200     YES
 Predicted change in Energy=-3.309818D-08
 Optimization completed.
    -- Stationary point found.
 GradGradGradGradGradGradGradGradGradGradGradGradGradGradGradGradGradGrad

 Leave Link  103 at Tue Aug 16 18:01:32 2016, MaxMem=    33554432 cpu:         0.0
 (Enter /home/proyectos/fulerenos/M3C-v2.0/M3C-deps_CCC/g09-AM64L-G09RevC.01/l9999.exe)
 1\1\GINC-BLADI4\Freq\UB3LYP\6-311++G(3df,2p)\C4N1(2)\ROOT\16-Aug-2016\
 0\\#p b3lyp/6-311++G(3df,2p) freq symmetry=Loose\\b3lyp opt\\0,2\C,-0.
 0491157475,-1.2234068682,0.\C,-0.1012102269,-2.5229210677,0.\C,0.10105
 12871,2.5225600056,0.\C,0.0489633795,1.2232097405,0.\N,-0.0000754505,-
 0.0000802659,0.\\Version=EM64L-G09RevE.01\HF=-206.9015668\S2=0.775912\
 S2-1=0.\S2A=0.750272\RMSD=2.887e-09\RMSF=6.923e-05\ZeroPoint=0.0180589
 \Thermal=0.0232214\Dipole=-0.0000177,-0.0004412,0.\DipoleDeriv=0.16612
 71,-0.1169829,-0.0003095,-0.1169829,-2.7473611,0.0000124,-0.0003095,0.
 0000124,0.1785301,-0.2480948,0.0767409,0.0015435,0.0767409,1.6631554,-
 0.0000619,0.0015435,-0.0000619,-0.2896432,-0.2482429,0.0767536,0.00154
 44,0.0767536,1.6633234,-0.0000619,0.0015444,-0.0000619,-0.2898155,0.16
 6206,-0.1170037,-0.0003112,-0.1170037,-2.7478004,0.0000125,-0.0003112,
 0.0000125,0.1786526,0.1640046,0.0804922,-0.0024673,0.0804922,2.1686828
 ,0.0000989,-0.0024673,0.0000989,0.2222761\Polar=35.4268158,4.3499218,1
 43.7626926,0.0294497,-0.0011805,34.5184006\PG=C*V [C*(C1C1N1C1C1)]\NIm
 ag=0\\0.03999100,0.04585630,1.18205344,-0.00019073,0.00000765,0.042906
 74,-0.01787862,-0.01889841,-0.00024813,0.01038465,-0.01889841,-0.48854
 810,0.00000995,0.02268213,0.57528858,-0.00024813,0.00000995,-0.0109363
 9,0.00014899,-0.00000597,0.00576174,0.00298629,0.00385911,0.00007622,-
 0.00029511,-0.00151362,-0.00000803,0.01032004,0.00385911,0.09909826,-0
 .00000306,-0.00151362,-0.03799222,0.00000032,0.02271027,0.57592502,0.0
 0007622,-0.00000305,0.00093184,-0.00000803,0.00000032,-0.00003438,0.00
 014905,-0.00000598,0.00569443,-0.00334594,-0.01036815,-0.00086029,0.00
 298700,0.00385873,0.00007621,-0.01782031,-0.01892654,-0.00024823,0.039
 90653,-0.01036815,-0.26156721,0.00003449,0.00385873,0.09908958,-0.0000
 0306,-0.01892654,-0.48919060,0.00000995,0.04589526,1.18293925,-0.00086
 028,0.00003449,0.01851252,0.00007621,-0.00000306,0.00093271,-0.0002482
 3,0.00000995,-0.01087433,-0.00019058,0.00000764,0.04281704,-0.02175274
 ,-0.02044885,0.00122293,0.00480208,-0.00612883,0.00003095,0.00480910,-
 0.00612921,0.00003099,-0.02172729,-0.02045929,0.00122289,0.03386886,-0
 .02044885,-0.53103639,-0.00004902,-0.00612883,-0.14783783,-0.00000124,
 -0.00612921,-0.14784045,-0.00000124,-0.02045929,-0.53127101,-0.0000490
 2,0.05316618,1.35798569,0.00122293,-0.00004902,-0.05141471,0.00003095,
 -0.00000124,0.00427634,0.00003099,-0.00000124,0.00428244,0.00122289,-0
 .00004902,-0.05138794,-0.00250775,0.00010053,0.09424388\\0.00000591,0.
 00014744,0.,-0.00000773,-0.00019275,0.,0.00000063,0.00001570,0.,-0.000
 00254,-0.00006332,0.,0.00000373,0.00009292,0.\\\@


 THE WORLD OF CHEMICAL REACTIONS IS LIKE A STAGE,
 ON WHICH SCENE AFTER SCENE IS CEASELESSLY PLAYED.
 THE ACTORS ON IT ARE THE ELEMENTS.
   -- CLEMENS WINKLER   BER. 30,13(1897)
 (DISCOVERER OF GERMANIUM, FEB 6, 1886)
 Job cpu time:       0 days  0 hours 25 minutes 17.5 seconds.
 File lengths (MBytes):  RWF=     42 Int=      0 D2E=      0 Chk=      4 Scr=      1
 Normal termination of Gaussian 09 at Tue Aug 16 18:01:32 2016.
