 Entering Gaussian System, Link 0=/home/proyectos/fulerenos/M3C-v2.0/M3C-deps_CCC/g09-AM64L-G09RevC.01/g09
 Initial command:
 /home/proyectos/fulerenos/M3C-v2.0/M3C-deps_CCC/g09-AM64L-G09RevC.01/l1.exe "/scratch/naguirre/gaussian/Gau-12929.inp" -scrdir="/scratch/naguirre/gaussian/"
 Entering Link 1 = /home/proyectos/fulerenos/M3C-v2.0/M3C-deps_CCC/g09-AM64L-G09RevC.01/l1.exe PID=     12951.
  
 Copyright (c) 1988,1990,1992,1993,1995,1998,2003,2009,2015,
            Gaussian, Inc.  All Rights Reserved.
  
 This is part of the Gaussian(R) 09 program.  It is based on
 the Gaussian(R) 03 system (copyright 2003, Gaussian, Inc.),
 the Gaussian(R) 98 system (copyright 1998, Gaussian, Inc.),
 the Gaussian(R) 94 system (copyright 1995, Gaussian, Inc.),
 the Gaussian 92(TM) system (copyright 1992, Gaussian, Inc.),
 the Gaussian 90(TM) system (copyright 1990, Gaussian, Inc.),
 the Gaussian 88(TM) system (copyright 1988, Gaussian, Inc.),
 the Gaussian 86(TM) system (copyright 1986, Carnegie Mellon
 University), and the Gaussian 82(TM) system (copyright 1983,
 Carnegie Mellon University). Gaussian is a federally registered
 trademark of Gaussian, Inc.
  
 This software contains proprietary and confidential information,
 including trade secrets, belonging to Gaussian, Inc.
  
 This software is provided under written license and may be
 used, copied, transmitted, or stored only in accord with that
 written license.
  
 The following legend is applicable only to US Government
 contracts under FAR:
  
                    RESTRICTED RIGHTS LEGEND
  
 Use, reproduction and disclosure by the US Government is
 subject to restrictions as set forth in subparagraphs (a)
 and (c) of the Commercial Computer Software - Restricted
 Rights clause in FAR 52.227-19.
  
 Gaussian, Inc.
 340 Quinnipiac St., Bldg. 40, Wallingford CT 06492
  
  
 ---------------------------------------------------------------
 Warning -- This program may not be used in any manner that
 competes with the business of Gaussian, Inc. or will provide
 assistance to any competitor of Gaussian, Inc.  The licensee
 of this program is prohibited from giving any competitor of
 Gaussian, Inc. access to this program.  By using this program,
 the user acknowledges that Gaussian, Inc. is engaged in the
 business of creating and licensing software in the field of
 computational chemistry and represents and warrants to the
 licensee that it is not a competitor of Gaussian, Inc. and that
 it will not use this program in any manner prohibited above.
 ---------------------------------------------------------------
  

 Cite this work as:
 Gaussian 09, Revision E.01,
 M. J. Frisch, G. W. Trucks, H. B. Schlegel, G. E. Scuseria, 
 M. A. Robb, J. R. Cheeseman, G. Scalmani, V. Barone, B. Mennucci, 
 G. A. Petersson, H. Nakatsuji, M. Caricato, X. Li, H. P. Hratchian, 
 A. F. Izmaylov, J. Bloino, G. Zheng, J. L. Sonnenberg, M. Hada, 
 M. Ehara, K. Toyota, R. Fukuda, J. Hasegawa, M. Ishida, T. Nakajima, 
 Y. Honda, O. Kitao, H. Nakai, T. Vreven, J. A. Montgomery, Jr., 
 J. E. Peralta, F. Ogliaro, M. Bearpark, J. J. Heyd, E. Brothers, 
 K. N. Kudin, V. N. Staroverov, T. Keith, R. Kobayashi, J. Normand, 
 K. Raghavachari, A. Rendell, J. C. Burant, S. S. Iyengar, J. Tomasi, 
 M. Cossi, N. Rega, J. M. Millam, M. Klene, J. E. Knox, J. B. Cross, 
 V. Bakken, C. Adamo, J. Jaramillo, R. Gomperts, R. E. Stratmann, 
 O. Yazyev, A. J. Austin, R. Cammi, C. Pomelli, J. W. Ochterski, 
 R. L. Martin, K. Morokuma, V. G. Zakrzewski, G. A. Voth, 
 P. Salvador, J. J. Dannenberg, S. Dapprich, A. D. Daniels, 
 O. Farkas, J. B. Foresman, J. V. Ortiz, J. Cioslowski, 
 and D. J. Fox, Gaussian, Inc., Wallingford CT, 2013.
 
 ******************************************
 Gaussian 09:  EM64L-G09RevE.01 30-Nov-2015
                16-Aug-2016 
 ******************************************
 %NProcShared=1
 Will use up to    1 processors via shared memory.
 ---------------------------------------------
 #p b3lyp/6-311++G(3df,2p) freq symmetry=Loose
 ---------------------------------------------
 1/10=4,30=1,38=1/1,3;
 2/12=2,17=4,18=3,40=1/2;
 3/5=4,6=6,7=1216,11=2,16=1,25=1,30=1,71=2,74=-5,140=1/1,2,3;
 4//1;
 5/5=2,38=5,98=1/2;
 8/6=4,10=90,11=11/1;
 11/6=1,8=1,9=11,15=111,16=1/1,2,10;
 10/6=1/2;
 6/7=2,8=2,9=2,10=2,18=1,28=1/1;
 7/8=1,10=1,25=1/1,2,3,16;
 1/10=4,30=1/3;
 99//99;
 Leave Link    1 at Tue Aug 16 17:35:56 2016, MaxMem=           0 cpu:         0.0
 (Enter /home/proyectos/fulerenos/M3C-v2.0/M3C-deps_CCC/g09-AM64L-G09RevC.01/l101.exe)
 ---------
 b3lyp opt
 ---------
 Symbolic Z-matrix:
 Charge =  0 Multiplicity = 2
 C                     0.69677   0.03026  -1.04697 
 C                     0.51662   0.81218   0.22562 
 C                    -0.68596  -0.22332  -0.82019 
 C                     0.962    -0.58804   0.54862 
 C                    -0.4476   -0.77898   0.61375 
 N                    -0.90793   0.63569   0.39403 
 
 NAtoms=      6 NQM=        6 NQMF=       0 NMMI=      0 NMMIF=      0
                NMic=       0 NMicF=      0.
                    Isotopes and Nuclear Properties:
 (Nuclear quadrupole moments (NQMom) in fm**2, nuclear magnetic moments (NMagM)
  in nuclear magnetons)

  Atom         1           2           3           4           5           6
 IAtWgt=          12          12          12          12          12          14
 AtmWgt=  12.0000000  12.0000000  12.0000000  12.0000000  12.0000000  14.0030740
 NucSpn=           0           0           0           0           0           2
 AtZEff=   0.0000000   0.0000000   0.0000000   0.0000000   0.0000000   0.0000000
 NQMom=    0.0000000   0.0000000   0.0000000   0.0000000   0.0000000   2.0440000
 NMagM=    0.0000000   0.0000000   0.0000000   0.0000000   0.0000000   0.4037610
 AtZNuc=   6.0000000   6.0000000   6.0000000   6.0000000   6.0000000   7.0000000
 Leave Link  101 at Tue Aug 16 17:35:56 2016, MaxMem=    33554432 cpu:         0.3
 (Enter /home/proyectos/fulerenos/M3C-v2.0/M3C-deps_CCC/g09-AM64L-G09RevC.01/l103.exe)

 GradGradGradGradGradGradGradGradGradGradGradGradGradGradGradGradGradGrad
 Berny optimization.
 Initialization pass.
 Trust Radius=3.00D-01 FncErr=1.00D-07 GrdErr=1.00D-07
 Number of steps in this run=      2 maximum allowed number of steps=      2.
 GradGradGradGradGradGradGradGradGradGradGradGradGradGradGradGradGradGrad

 Leave Link  103 at Tue Aug 16 17:35:57 2016, MaxMem=    33554432 cpu:         0.1
 (Enter /home/proyectos/fulerenos/M3C-v2.0/M3C-deps_CCC/g09-AM64L-G09RevC.01/l202.exe)
                          Input orientation:                          
 ---------------------------------------------------------------------
 Center     Atomic      Atomic             Coordinates (Angstroms)
 Number     Number       Type             X           Y           Z
 ---------------------------------------------------------------------
      1          6           0        0.696767    0.030264   -1.046967
      2          6           0        0.516622    0.812185    0.225620
      3          6           0       -0.685961   -0.223318   -0.820187
      4          6           0        0.962001   -0.588043    0.548624
      5          6           0       -0.447598   -0.778983    0.613754
      6          7           0       -0.907931    0.635694    0.394031
 ---------------------------------------------------------------------
                    Distance matrix (angstroms):
                    1          2          3          4          5
     1  C    0.000000
     2  C    1.504437   0.000000
     3  C    1.423963   1.900575   0.000000
     4  C    1.731636   1.504437   2.173119   0.000000
     5  C    2.173119   1.900575   1.556202   1.423963   0.000000
     6  N    2.240106   1.445290   1.503828   2.240106   1.503828
                    6
     6  N    0.000000
 Stoichiometry    C5N(2)
 Framework group  CS[SG(CN),X(C4)]
 Deg. of freedom     7
 Full point group                 CS      NOp   2
 Largest Abelian subgroup         CS      NOp   2
 Largest concise Abelian subgroup CS      NOp   2
                         Standard orientation:                         
 ---------------------------------------------------------------------
 Center     Atomic      Atomic             Coordinates (Angstroms)
 Number     Number       Type             X           Y           Z
 ---------------------------------------------------------------------
      1          6           0       -0.437484    0.799324    0.865818
      2          6           0        0.778793    0.613952   -0.000000
      3          6           0       -0.437484   -0.621934    0.778101
      4          6           0       -0.437484    0.799324   -0.865818
      5          6           0       -0.437484   -0.621934   -0.778101
      6          7           0        0.832407   -0.830342   -0.000000
 ---------------------------------------------------------------------
 Rotational constants (GHZ):      8.9562221      7.7794878      6.8684984
 Leave Link  202 at Tue Aug 16 17:35:57 2016, MaxMem=    33554432 cpu:         0.0
 (Enter /home/proyectos/fulerenos/M3C-v2.0/M3C-deps_CCC/g09-AM64L-G09RevC.01/l301.exe)
 Standard basis: 6-311++G(3df,2p) (5D, 7F)
 Ernie: Thresh=  0.10000D-02 Tol=  0.10000D-05 Strict=F.
 There are   152 symmetry adapted cartesian basis functions of A'  symmetry.
 There are   118 symmetry adapted cartesian basis functions of A"  symmetry.
 There are   130 symmetry adapted basis functions of A'  symmetry.
 There are   104 symmetry adapted basis functions of A"  symmetry.
   234 basis functions,   348 primitive gaussians,   270 cartesian basis functions
    19 alpha electrons       18 beta electrons
       nuclear repulsion energy       177.6846727272 Hartrees.
 IExCor=  402 DFT=T Ex+Corr=B3LYP ExCW=0 ScaHFX=  0.200000
 ScaDFX=  0.800000  0.720000  1.000000  0.810000 ScalE2=  1.000000  1.000000
 IRadAn=      0 IRanWt=     -1 IRanGd=            0 ICorTp=0 IEmpDi=  4
 NAtoms=    6 NActive=    6 NUniq=    4 SFac= 2.25D+00 NAtFMM=   60 NAOKFM=F Big=F
 Integral buffers will be    131072 words long.
 Raffenetti 2 integral format.
 Two-electron integral symmetry is turned on.
 Leave Link  301 at Tue Aug 16 17:35:58 2016, MaxMem=    33554432 cpu:         0.2
 (Enter /home/proyectos/fulerenos/M3C-v2.0/M3C-deps_CCC/g09-AM64L-G09RevC.01/l302.exe)
 NPDir=0 NMtPBC=     1 NCelOv=     1 NCel=       1 NClECP=     1 NCelD=      1
         NCelK=      1 NCelE2=     1 NClLst=     1 CellRange=     0.0.
 One-electron integrals computed using PRISM.
 One-electron integral symmetry used in STVInt
 NBasis=   234 RedAO= T EigKep=  6.14D-06  NBF=   130   104
 NBsUse=   234 1.00D-06 EigRej= -1.00D+00 NBFU=   130   104
 Precomputing XC quadrature grid using
 IXCGrd= 4 IRadAn=           0 IRanWt=          -1 IRanGd=           0 AccXCQ= 0.00D+00.
 Generated NRdTot=       0 NPtTot=           0 NUsed=           0 NTot=          32
 NSgBfM=   270   270   270   270   270 MxSgAt=     6 MxSgA2=     6.
 Leave Link  302 at Tue Aug 16 17:35:59 2016, MaxMem=    33554432 cpu:         0.5
 (Enter /home/proyectos/fulerenos/M3C-v2.0/M3C-deps_CCC/g09-AM64L-G09RevC.01/l303.exe)
 DipDrv:  MaxL=1.
 Leave Link  303 at Tue Aug 16 17:35:59 2016, MaxMem=    33554432 cpu:         0.1
 (Enter /home/proyectos/fulerenos/M3C-v2.0/M3C-deps_CCC/g09-AM64L-G09RevC.01/l401.exe)
 ExpMin= 4.38D-02 ExpMax= 6.29D+03 ExpMxC= 9.49D+02 IAcc=2 IRadAn=         4 AccDes= 0.00D+00
 Harris functional with IExCor=  402 and IRadAn=       4 diagonalized for initial guess.
 HarFok:  IExCor=  402 AccDes= 0.00D+00 IRadAn=         4 IDoV= 1 UseB2=F ITyADJ=14
 ICtDFT=  3500011 ScaDFX=  1.000000  1.000000  1.000000  1.000000
 FoFCou: FMM=F IPFlag=           0 FMFlag=      100000 FMFlg1=           0
         NFxFlg=           0 DoJE=T BraDBF=F KetDBF=T FulRan=T
         wScrn=  0.000000 ICntrl=     500 IOpCl=  0 I1Cent=   200000004 NGrid=           0
         NMat0=    1 NMatS0=      1 NMatT0=    0 NMatD0=    1 NMtDS0=    0 NMtDT0=    0
 Petite list used in FoFCou.
 Harris En= -244.754353266754    
 JPrj=0 DoOrth=F DoCkMO=F.
 Initial guess orbital symmetries:
 Alpha Orbitals:
       Occupied  (A') (A') (A") (A') (A') (A") (A') (A') (A") (A')
                 (A') (A') (A") (A") (A') (A') (A') (A") (A')
       Virtual   (A") (A') (A") (A') (A") (A') (A') (A") (A') (A")
                 (A') (A') (A") (A') (A') (A") (A") (A') (A") (A')
                 (A') (A") (A') (A") (A') (A") (A') (A") (A') (A")
                 (A') (A") (A') (A') (A') (A") (A') (A') (A") (A')
                 (A") (A") (A') (A') (A") (A') (A') (A") (A') (A")
                 (A') (A') (A") (A") (A') (A") (A') (A") (A') (A")
                 (A') (A") (A") (A') (A') (A') (A") (A') (A") (A')
                 (A") (A') (A') (A") (A') (A') (A") (A') (A") (A")
                 (A") (A') (A') (A') (A") (A') (A") (A') (A') (A")
                 (A") (A') (A") (A') (A') (A") (A') (A") (A') (A')
                 (A") (A') (A") (A') (A') (A") (A") (A') (A") (A')
                 (A") (A") (A') (A") (A') (A') (A") (A') (A') (A")
                 (A') (A') (A") (A') (A') (A') (A") (A") (A') (A")
                 (A') (A') (A") (A') (A') (A') (A") (A') (A") (A')
                 (A') (A") (A") (A") (A') (A') (A") (A") (A') (A")
                 (A') (A") (A') (A") (A") (A') (A") (A') (A") (A')
                 (A') (A") (A") (A') (A') (A") (A") (A') (A") (A')
                 (A") (A') (A") (A") (A') (A") (A') (A") (A') (A')
                 (A') (A") (A') (A') (A') (A") (A') (A") (A") (A')
                 (A') (A") (A") (A') (A') (A") (A') (A') (A") (A")
                 (A') (A") (A") (A") (A') (A") (A') (A") (A') (A')
                 (A") (A') (A") (A') (A')
 Beta  Orbitals:
       Occupied  (A') (A') (A") (A') (A') (A") (A') (A') (A") (A')
                 (A') (A') (A") (A") (A') (A') (A') (A")
       Virtual   (A') (A") (A') (A") (A') (A") (A') (A') (A") (A')
                 (A") (A') (A') (A") (A') (A') (A") (A") (A') (A")
                 (A') (A') (A") (A') (A") (A') (A") (A') (A") (A')
                 (A") (A') (A") (A') (A') (A') (A") (A') (A') (A")
                 (A') (A") (A") (A') (A') (A") (A') (A') (A") (A')
                 (A") (A') (A') (A") (A") (A') (A") (A') (A") (A')
                 (A") (A') (A") (A") (A') (A') (A') (A") (A') (A")
                 (A') (A") (A') (A') (A") (A') (A') (A") (A') (A")
                 (A") (A") (A') (A') (A') (A") (A') (A") (A') (A')
                 (A") (A") (A') (A") (A') (A') (A") (A') (A") (A')
                 (A') (A") (A') (A") (A') (A') (A") (A") (A') (A")
                 (A') (A") (A") (A') (A") (A') (A') (A") (A') (A')
                 (A") (A') (A') (A") (A') (A') (A') (A") (A") (A')
                 (A") (A') (A') (A") (A') (A') (A') (A") (A') (A")
                 (A') (A') (A") (A") (A") (A') (A') (A") (A") (A')
                 (A") (A') (A") (A') (A") (A") (A') (A") (A') (A")
                 (A') (A') (A") (A") (A') (A') (A") (A") (A') (A")
                 (A') (A") (A') (A") (A") (A') (A") (A') (A") (A')
                 (A') (A') (A") (A') (A') (A') (A") (A') (A") (A")
                 (A') (A') (A") (A") (A') (A') (A") (A') (A') (A")
                 (A") (A') (A") (A") (A") (A') (A") (A') (A") (A')
                 (A') (A") (A') (A") (A') (A')
 The electronic state of the initial guess is 2-A'.
 Initial guess <Sx>= 0.0000 <Sy>= 0.0000 <Sz>= 0.5000 <S**2>= 0.7500 S= 0.5000
 Leave Link  401 at Tue Aug 16 17:36:04 2016, MaxMem=    33554432 cpu:         2.5
 (Enter /home/proyectos/fulerenos/M3C-v2.0/M3C-deps_CCC/g09-AM64L-G09RevC.01/l502.exe)
 UHF open shell SCF:
 Using DIIS extrapolation, IDIIS=  1040.
 Integral symmetry usage will be decided dynamically.
 IVT=      241082 IEndB=      241082 NGot=    33554432 MDV=    33403161
 LenX=    33403161 LenY=    33329820
 Requested convergence on RMS density matrix=1.00D-08 within 128 cycles.
 Requested convergence on MAX density matrix=1.00D-06.
 Requested convergence on             energy=1.00D-06.
 No special actions if energy rises.
 Fock matrices will be formed incrementally for  20 cycles.

 Cycle   1  Pass 1  IDiag  1:
 FoFJK:  IHMeth= 1 ICntrl=       0 DoSepK=F KAlg= 0 I1Cent=   0 FoldK=F
 IRaf= 990000000 NMat=   1 IRICut=       1 DoRegI=T DoRafI=F ISym2E= 1.
 FoFCou: FMM=F IPFlag=           0 FMFlag=      100000 FMFlg1=           0
         NFxFlg=           0 DoJE=F BraDBF=F KetDBF=F FulRan=T
         wScrn=  0.000000 ICntrl=       0 IOpCl=  1 I1Cent=           0 NGrid=           0
         NMat0=    1 NMatS0=      1 NMatT0=    0 NMatD0=    1 NMtDS0=    0 NMtDT0=    0
 Petite list used in FoFCou.
 E= -244.749569782693    
 DIIS: error= 1.38D-02 at cycle   1 NSaved=   1.
 NSaved= 1 IEnMin= 1 EnMin= -244.749569782693     IErMin= 1 ErrMin= 1.38D-02
 ErrMax= 1.38D-02  0.00D+00 EMaxC= 1.00D-01 BMatC= 2.58D-01 BMatP= 2.58D-01
 IDIUse=3 WtCom= 8.62D-01 WtEn= 1.38D-01
 Coeff-Com:  0.100D+01
 Coeff-En:   0.100D+01
 Coeff:      0.100D+01
 Gap=     0.026 Goal=   None    Shift=    0.000
 Gap=     0.012 Goal=   None    Shift=    0.000
 GapD=    0.012 DampG=0.250 DampE=0.500 DampFc=0.2500 IDamp=-1.
 Damping current iteration by 2.50D-01
 RMSDP=6.57D-03 MaxDP=3.64D-01              OVMax= 5.84D-01

 Cycle   2  Pass 1  IDiag  1:
 RMSU=  1.61D-03    CP:  9.82D-01
 E= -244.762835420536     Delta-E=       -0.013265637843 Rises=F Damp=T
 DIIS: error= 6.55D-03 at cycle   2 NSaved=   2.
 NSaved= 2 IEnMin= 2 EnMin= -244.762835420536     IErMin= 2 ErrMin= 6.55D-03
 ErrMax= 6.55D-03  0.00D+00 EMaxC= 1.00D-01 BMatC= 5.57D-02 BMatP= 2.58D-01
 IDIUse=3 WtCom= 9.34D-01 WtEn= 6.55D-02
 Coeff-Com: -0.803D-01 0.108D+01
 Coeff-En:   0.316D+00 0.684D+00
 Coeff:     -0.544D-01 0.105D+01
 Gap=     0.053 Goal=   None    Shift=    0.000
 Gap=     0.067 Goal=   None    Shift=    0.000
 RMSDP=1.89D-03 MaxDP=6.76D-02 DE=-1.33D-02 OVMax= 5.01D-01

 Cycle   3  Pass 1  IDiag  1:
 RMSU=  1.88D-03    CP:  9.94D-01  9.67D-01
 E= -244.796711946878     Delta-E=       -0.033876526342 Rises=F Damp=F
 DIIS: error= 1.18D-02 at cycle   3 NSaved=   3.
 NSaved= 3 IEnMin= 3 EnMin= -244.796711946878     IErMin= 2 ErrMin= 6.55D-03
 ErrMax= 1.18D-02  0.00D+00 EMaxC= 1.00D-01 BMatC= 6.71D-02 BMatP= 5.57D-02
 IDIUse=2 WtCom= 0.00D+00 WtEn= 1.00D+00
 Coeff-En:   0.000D+00 0.000D+00 0.100D+01
 Coeff:      0.000D+00 0.000D+00 0.100D+01
 Gap=     0.075 Goal=   None    Shift=    0.000
 Gap=     0.074 Goal=   None    Shift=    0.000
 RMSDP=3.02D-03 MaxDP=1.39D-01 DE=-3.39D-02 OVMax= 2.80D-01

 Cycle   4  Pass 1  IDiag  1:
 RMSU=  1.72D-03    CP:  9.67D-01  2.18D+00  2.27D-01
 E= -244.649711614160     Delta-E=        0.147000332718 Rises=F Damp=F
 DIIS: error= 3.43D-02 at cycle   4 NSaved=   4.
 NSaved= 4 IEnMin= 3 EnMin= -244.796711946878     IErMin= 2 ErrMin= 6.55D-03
 ErrMax= 3.43D-02  0.00D+00 EMaxC= 1.00D-01 BMatC= 6.35D-01 BMatP= 5.57D-02
 IDIUse=2 WtCom= 0.00D+00 WtEn= 1.00D+00
 Coeff-En:   0.000D+00 0.000D+00 0.840D+00 0.160D+00
 Coeff:      0.000D+00 0.000D+00 0.840D+00 0.160D+00
 Gap=     0.090 Goal=   None    Shift=    0.000
 Gap=     0.087 Goal=   None    Shift=    0.000
 RMSDP=1.62D-03 MaxDP=8.79D-02 DE= 1.47D-01 OVMax= 1.43D-01

 Cycle   5  Pass 1  IDiag  1:
 RMSU=  5.07D-04    CP:  9.72D-01  1.46D+00  5.68D-01  5.61D-01
 E= -244.799010337737     Delta-E=       -0.149298723577 Rises=F Damp=F
 DIIS: error= 1.14D-02 at cycle   5 NSaved=   5.
 NSaved= 5 IEnMin= 5 EnMin= -244.799010337737     IErMin= 2 ErrMin= 6.55D-03
 ErrMax= 1.14D-02  0.00D+00 EMaxC= 1.00D-01 BMatC= 6.49D-02 BMatP= 5.57D-02
 IDIUse=2 WtCom= 0.00D+00 WtEn= 1.00D+00
 Coeff-En:   0.000D+00 0.000D+00 0.476D+00 0.000D+00 0.524D+00
 Coeff:      0.000D+00 0.000D+00 0.476D+00 0.000D+00 0.524D+00
 Gap=     0.092 Goal=   None    Shift=    0.000
 Gap=     0.099 Goal=   None    Shift=    0.000
 RMSDP=8.09D-04 MaxDP=4.18D-02 DE=-1.49D-01 OVMax= 7.13D-02

 Cycle   6  Pass 1  IDiag  1:
 RMSU=  2.00D-04    CP:  9.75D-01  1.16D+00  7.81D-01  3.14D-01  1.38D+00
 E= -244.815268711659     Delta-E=       -0.016258373923 Rises=F Damp=F
 DIIS: error= 2.87D-03 at cycle   6 NSaved=   6.
 NSaved= 6 IEnMin= 6 EnMin= -244.815268711659     IErMin= 6 ErrMin= 2.87D-03
 ErrMax= 2.87D-03  0.00D+00 EMaxC= 1.00D-01 BMatC= 2.43D-03 BMatP= 5.57D-02
 IDIUse=3 WtCom= 9.71D-01 WtEn= 2.87D-02
 Coeff-Com:  0.465D-02-0.193D-01 0.206D+00-0.116D-02 0.301D+00 0.509D+00
 Coeff-En:   0.000D+00 0.000D+00 0.000D+00 0.000D+00 0.121D-01 0.988D+00
 Coeff:      0.452D-02-0.188D-01 0.200D+00-0.113D-02 0.293D+00 0.522D+00
 Gap=     0.093 Goal=   None    Shift=    0.000
 Gap=     0.101 Goal=   None    Shift=    0.000
 RMSDP=3.13D-04 MaxDP=1.70D-02 DE=-1.63D-02 OVMax= 3.47D-02

 Cycle   7  Pass 1  IDiag  1:
 RMSU=  1.59D-04    CP:  9.78D-01  1.25D+00  8.03D-01  4.16D-01  1.37D+00
                    CP:  1.66D+00
 E= -244.816261350084     Delta-E=       -0.000992638424 Rises=F Damp=F
 DIIS: error= 1.38D-03 at cycle   7 NSaved=   7.
 NSaved= 7 IEnMin= 7 EnMin= -244.816261350084     IErMin= 7 ErrMin= 1.38D-03
 ErrMax= 1.38D-03  0.00D+00 EMaxC= 1.00D-01 BMatC= 3.70D-04 BMatP= 2.43D-03
 IDIUse=3 WtCom= 9.86D-01 WtEn= 1.38D-02
 Coeff-Com: -0.175D-03-0.615D-02-0.185D-01-0.351D-01 0.888D-01 0.158D+00
 Coeff-Com:  0.813D+00
 Coeff-En:   0.000D+00 0.000D+00 0.000D+00 0.000D+00 0.000D+00 0.000D+00
 Coeff-En:   0.100D+01
 Coeff:     -0.173D-03-0.607D-02-0.182D-01-0.347D-01 0.875D-01 0.156D+00
 Coeff:      0.816D+00
 Gap=     0.095 Goal=   None    Shift=    0.000
 Gap=     0.104 Goal=   None    Shift=    0.000
 RMSDP=2.88D-04 MaxDP=1.01D-02 DE=-9.93D-04 OVMax= 3.31D-02

 Cycle   8  Pass 1  IDiag  1:
 RMSU=  7.08D-05    CP:  9.77D-01  1.26D+00  8.32D-01  4.59D-01  1.70D+00
                    CP:  2.48D+00  1.73D+00
 E= -244.816904081006     Delta-E=       -0.000642730923 Rises=F Damp=F
 DIIS: error= 6.63D-04 at cycle   8 NSaved=   8.
 NSaved= 8 IEnMin= 8 EnMin= -244.816904081006     IErMin= 8 ErrMin= 6.63D-04
 ErrMax= 6.63D-04  0.00D+00 EMaxC= 1.00D-01 BMatC= 2.13D-04 BMatP= 3.70D-04
 IDIUse=3 WtCom= 9.93D-01 WtEn= 6.63D-03
 Coeff-Com:  0.344D-01-0.473D-01-0.109D+00 0.394D-01-0.232D+00-0.143D+00
 Coeff-Com:  0.250D+00 0.121D+01
 Coeff-En:   0.000D+00 0.000D+00 0.000D+00 0.000D+00 0.000D+00 0.000D+00
 Coeff-En:   0.000D+00 0.100D+01
 Coeff:      0.342D-01-0.470D-01-0.108D+00 0.391D-01-0.231D+00-0.142D+00
 Coeff:      0.249D+00 0.121D+01
 Gap=     0.098 Goal=   None    Shift=    0.000
 Gap=     0.109 Goal=   None    Shift=    0.000
 RMSDP=4.58D-04 MaxDP=2.01D-02 DE=-6.43D-04 OVMax= 5.85D-02

 Cycle   9  Pass 1  IDiag  1:
 RMSU=  1.96D-04    CP:  9.77D-01  1.31D+00  8.52D-01  5.47D-01  2.12D+00
                    CP:  3.00D+00  2.94D+00  2.30D+00
 E= -244.817634117318     Delta-E=       -0.000730036312 Rises=F Damp=F
 DIIS: error= 4.00D-04 at cycle   9 NSaved=   9.
 NSaved= 9 IEnMin= 9 EnMin= -244.817634117318     IErMin= 9 ErrMin= 4.00D-04
 ErrMax= 4.00D-04  0.00D+00 EMaxC= 1.00D-01 BMatC= 1.38D-04 BMatP= 2.13D-04
 IDIUse=3 WtCom= 9.96D-01 WtEn= 4.00D-03
 Coeff-Com:  0.320D-01-0.326D-01-0.688D-02 0.126D-01-0.832D-01-0.357D+00
 Coeff-Com: -0.205D+00 0.680D+00 0.960D+00
 Coeff-En:   0.000D+00 0.000D+00 0.000D+00 0.000D+00 0.000D+00 0.000D+00
 Coeff-En:   0.000D+00 0.000D+00 0.100D+01
 Coeff:      0.319D-01-0.324D-01-0.685D-02 0.126D-01-0.828D-01-0.356D+00
 Coeff:     -0.205D+00 0.678D+00 0.961D+00
 Gap=     0.100 Goal=   None    Shift=    0.000
 Gap=     0.114 Goal=   None    Shift=    0.000
 RMSDP=3.63D-04 MaxDP=1.50D-02 DE=-7.30D-04 OVMax= 4.65D-02

 Cycle  10  Pass 1  IDiag  1:
 RMSU=  1.68D-04    CP:  9.75D-01  1.34D+00  8.50D-01  6.06D-01  2.45D+00
                    CP:  3.00D+00  3.00D+00  3.00D+00  2.17D+00
 E= -244.817986919938     Delta-E=       -0.000352802620 Rises=F Damp=F
 DIIS: error= 2.99D-04 at cycle  10 NSaved=  10.
 NSaved=10 IEnMin=10 EnMin= -244.817986919938     IErMin=10 ErrMin= 2.99D-04
 ErrMax= 2.99D-04  0.00D+00 EMaxC= 1.00D-01 BMatC= 7.32D-05 BMatP= 1.38D-04
 IDIUse=3 WtCom= 9.97D-01 WtEn= 2.99D-03
 Coeff-Com:  0.310D-02-0.453D-02 0.905D-01-0.232D-01 0.155D+00 0.841D-01
 Coeff-Com:  0.970D-01-0.808D+00-0.101D+00 0.151D+01
 Coeff-En:   0.000D+00 0.000D+00 0.000D+00 0.000D+00 0.000D+00 0.000D+00
 Coeff-En:   0.000D+00 0.000D+00 0.000D+00 0.100D+01
 Coeff:      0.309D-02-0.452D-02 0.903D-01-0.232D-01 0.154D+00 0.838D-01
 Coeff:      0.967D-01-0.806D+00-0.101D+00 0.151D+01
 Gap=     0.099 Goal=   None    Shift=    0.000
 Gap=     0.116 Goal=   None    Shift=    0.000
 RMSDP=1.82D-04 MaxDP=7.13D-03 DE=-3.53D-04 OVMax= 2.34D-02

 Cycle  11  Pass 1  IDiag  1:
 RMSU=  6.39D-05    CP:  9.74D-01  1.36D+00  8.33D-01  6.23D-01  2.57D+00
                    CP:  3.00D+00  3.00D+00  3.00D+00  2.74D+00  1.60D+00
 E= -244.818096046147     Delta-E=       -0.000109126209 Rises=F Damp=F
 DIIS: error= 1.31D-04 at cycle  11 NSaved=  11.
 NSaved=11 IEnMin=11 EnMin= -244.818096046147     IErMin=11 ErrMin= 1.31D-04
 ErrMax= 1.31D-04  0.00D+00 EMaxC= 1.00D-01 BMatC= 5.61D-06 BMatP= 7.32D-05
 IDIUse=3 WtCom= 9.99D-01 WtEn= 1.31D-03
 Coeff-Com: -0.542D-02 0.593D-02 0.595D-02-0.342D-02 0.197D-01 0.608D-01
 Coeff-Com: -0.300D-01-0.110D+00-0.227D+00 0.120D+00 0.116D+01
 Coeff-En:   0.000D+00 0.000D+00 0.000D+00 0.000D+00 0.000D+00 0.000D+00
 Coeff-En:   0.000D+00 0.000D+00 0.000D+00 0.000D+00 0.100D+01
 Coeff:     -0.541D-02 0.592D-02 0.594D-02-0.341D-02 0.196D-01 0.607D-01
 Coeff:     -0.300D-01-0.110D+00-0.227D+00 0.120D+00 0.116D+01
 Gap=     0.100 Goal=   None    Shift=    0.000
 Gap=     0.118 Goal=   None    Shift=    0.000
 RMSDP=1.23D-04 MaxDP=5.47D-03 DE=-1.09D-04 OVMax= 1.68D-02

 Cycle  12  Pass 1  IDiag  1:
 RMSU=  3.25D-05    CP:  9.74D-01  1.37D+00  8.25D-01  6.37D-01  2.67D+00
                    CP:  3.00D+00  3.00D+00  3.00D+00  3.00D+00  1.97D+00
                    CP:  1.48D+00
 E= -244.818119319181     Delta-E=       -0.000023273034 Rises=F Damp=F
 DIIS: error= 4.06D-05 at cycle  12 NSaved=  12.
 NSaved=12 IEnMin=12 EnMin= -244.818119319181     IErMin=12 ErrMin= 4.06D-05
 ErrMax= 4.06D-05  0.00D+00 EMaxC= 1.00D-01 BMatC= 4.44D-07 BMatP= 5.61D-06
 IDIUse=1 WtCom= 1.00D+00 WtEn= 0.00D+00
 Coeff-Com: -0.997D-03 0.120D-02-0.355D-02 0.101D-02-0.559D-02 0.380D-02
 Coeff-Com:  0.323D-02 0.499D-01 0.228D-01-0.124D+00-0.245D+00 0.130D+01
 Coeff:     -0.997D-03 0.120D-02-0.355D-02 0.101D-02-0.559D-02 0.380D-02
 Coeff:      0.323D-02 0.499D-01 0.228D-01-0.124D+00-0.245D+00 0.130D+01
 Gap=     0.100 Goal=   None    Shift=    0.000
 Gap=     0.118 Goal=   None    Shift=    0.000
 RMSDP=1.63D-05 MaxDP=8.96D-04 DE=-2.33D-05 OVMax= 1.96D-03

 Cycle  13  Pass 1  IDiag  1:
 RMSU=  9.08D-06    CP:  9.74D-01  1.37D+00  8.22D-01  6.35D-01  2.67D+00
                    CP:  3.00D+00  3.00D+00  3.00D+00  3.00D+00  1.98D+00
                    CP:  1.65D+00  1.05D+00
 E= -244.818120340773     Delta-E=       -0.000001021592 Rises=F Damp=F
 DIIS: error= 1.80D-05 at cycle  13 NSaved=  13.
 NSaved=13 IEnMin=13 EnMin= -244.818120340773     IErMin=13 ErrMin= 1.80D-05
 ErrMax= 1.80D-05  0.00D+00 EMaxC= 1.00D-01 BMatC= 1.72D-07 BMatP= 4.44D-07
 IDIUse=1 WtCom= 1.00D+00 WtEn= 0.00D+00
 Coeff-Com: -0.310D-04 0.191D-03 0.243D-03-0.226D-03 0.778D-03-0.738D-02
 Coeff-Com:  0.634D-02 0.504D-02 0.356D-01-0.119D-01-0.249D+00 0.267D+00
 Coeff-Com:  0.954D+00
 Coeff:     -0.310D-04 0.191D-03 0.243D-03-0.226D-03 0.778D-03-0.738D-02
 Coeff:      0.634D-02 0.504D-02 0.356D-01-0.119D-01-0.249D+00 0.267D+00
 Coeff:      0.954D+00
 Gap=     0.100 Goal=   None    Shift=    0.000
 Gap=     0.118 Goal=   None    Shift=    0.000
 RMSDP=7.69D-06 MaxDP=4.67D-04 DE=-1.02D-06 OVMax= 9.70D-04

 Cycle  14  Pass 1  IDiag  1:
 RMSU=  1.91D-06    CP:  9.74D-01  1.37D+00  8.21D-01  6.36D-01  2.67D+00
                    CP:  3.00D+00  3.00D+00  3.00D+00  3.00D+00  2.00D+00
                    CP:  1.70D+00  1.20D+00  1.16D+00
 E= -244.818120546681     Delta-E=       -0.000000205908 Rises=F Damp=F
 DIIS: error= 4.41D-06 at cycle  14 NSaved=  14.
 NSaved=14 IEnMin=14 EnMin= -244.818120546681     IErMin=14 ErrMin= 4.41D-06
 ErrMax= 4.41D-06  0.00D+00 EMaxC= 1.00D-01 BMatC= 1.61D-08 BMatP= 1.72D-07
 IDIUse=1 WtCom= 1.00D+00 WtEn= 0.00D+00
 Coeff-Com: -0.462D-04 0.680D-04 0.122D-02-0.318D-03 0.210D-02-0.240D-03
 Coeff-Com:  0.195D-02-0.152D-01 0.546D-02 0.264D-01-0.467D-01-0.620D-01
 Coeff-Com:  0.118D+00 0.969D+00
 Coeff:     -0.462D-04 0.680D-04 0.122D-02-0.318D-03 0.210D-02-0.240D-03
 Coeff:      0.195D-02-0.152D-01 0.546D-02 0.264D-01-0.467D-01-0.620D-01
 Coeff:      0.118D+00 0.969D+00
 Gap=     0.100 Goal=   None    Shift=    0.000
 Gap=     0.118 Goal=   None    Shift=    0.000
 RMSDP=3.34D-06 MaxDP=1.97D-04 DE=-2.06D-07 OVMax= 3.88D-04

 Cycle  15  Pass 1  IDiag  1:
 RMSU=  7.65D-07    CP:  9.74D-01  1.37D+00  8.21D-01  6.37D-01  2.68D+00
                    CP:  3.00D+00  3.00D+00  3.00D+00  3.00D+00  2.01D+00
                    CP:  1.71D+00  1.27D+00  1.19D+00  1.30D+00
 E= -244.818120568215     Delta-E=       -0.000000021533 Rises=F Damp=F
 DIIS: error= 1.98D-06 at cycle  15 NSaved=  15.
 NSaved=15 IEnMin=15 EnMin= -244.818120568215     IErMin=15 ErrMin= 1.98D-06
 ErrMax= 1.98D-06  0.00D+00 EMaxC= 1.00D-01 BMatC= 2.35D-09 BMatP= 1.61D-08
 IDIUse=1 WtCom= 1.00D+00 WtEn= 0.00D+00
 Coeff-Com: -0.949D-04 0.116D-03 0.100D-03-0.468D-04 0.246D-03 0.162D-02
 Coeff-Com: -0.858D-03-0.199D-02-0.245D-02 0.783D-03 0.316D-01-0.217D-01
 Coeff-Com: -0.140D+00-0.186D+00 0.132D+01
 Coeff:     -0.949D-04 0.116D-03 0.100D-03-0.468D-04 0.246D-03 0.162D-02
 Coeff:     -0.858D-03-0.199D-02-0.245D-02 0.783D-03 0.316D-01-0.217D-01
 Coeff:     -0.140D+00-0.186D+00 0.132D+01
 Gap=     0.100 Goal=   None    Shift=    0.000
 Gap=     0.118 Goal=   None    Shift=    0.000
 RMSDP=9.49D-07 MaxDP=3.98D-05 DE=-2.15D-08 OVMax= 7.97D-05

 Cycle  16  Pass 1  IDiag  1:
 RMSU=  5.07D-07    CP:  9.74D-01  1.37D+00  8.22D-01  6.37D-01  2.67D+00
                    CP:  3.00D+00  3.00D+00  3.00D+00  3.00D+00  2.01D+00
                    CP:  1.71D+00  1.27D+00  1.21D+00  1.51D+00  1.45D+00
 E= -244.818120571046     Delta-E=       -0.000000002831 Rises=F Damp=F
 DIIS: error= 5.85D-07 at cycle  16 NSaved=  16.
 NSaved=16 IEnMin=16 EnMin= -244.818120571046     IErMin=16 ErrMin= 5.85D-07
 ErrMax= 5.85D-07  0.00D+00 EMaxC= 1.00D-01 BMatC= 4.05D-10 BMatP= 2.35D-09
 IDIUse=1 WtCom= 1.00D+00 WtEn= 0.00D+00
 Coeff-Com: -0.231D-04 0.294D-04-0.313D-04 0.462D-06 0.609D-05 0.168D-03
 Coeff-Com: -0.882D-04 0.642D-03 0.161D-03-0.203D-02 0.932D-04 0.143D-01
 Coeff-Com: -0.119D-01-0.129D+00-0.575D-01 0.119D+01
 Coeff:     -0.231D-04 0.294D-04-0.313D-04 0.462D-06 0.609D-05 0.168D-03
 Coeff:     -0.882D-04 0.642D-03 0.161D-03-0.203D-02 0.932D-04 0.143D-01
 Coeff:     -0.119D-01-0.129D+00-0.575D-01 0.119D+01
 Gap=     0.100 Goal=   None    Shift=    0.000
 Gap=     0.118 Goal=   None    Shift=    0.000
 RMSDP=3.32D-07 MaxDP=1.40D-05 DE=-2.83D-09 OVMax= 2.91D-05

 Cycle  17  Pass 1  IDiag  1:
 RMSU=  9.32D-08    CP:  9.74D-01  1.37D+00  8.22D-01  6.37D-01  2.67D+00
                    CP:  3.00D+00  3.00D+00  3.00D+00  3.00D+00  2.01D+00
                    CP:  1.70D+00  1.27D+00  1.21D+00  1.58D+00  1.66D+00
                    CP:  1.32D+00
 E= -244.818120571468     Delta-E=       -0.000000000422 Rises=F Damp=F
 DIIS: error= 2.83D-07 at cycle  17 NSaved=  17.
 NSaved=17 IEnMin=17 EnMin= -244.818120571468     IErMin=17 ErrMin= 2.83D-07
 ErrMax= 2.83D-07  0.00D+00 EMaxC= 1.00D-01 BMatC= 6.39D-11 BMatP= 4.05D-10
 IDIUse=1 WtCom= 1.00D+00 WtEn= 0.00D+00
 Coeff-Com:  0.510D-05-0.581D-05 0.204D-04-0.241D-05 0.300D-04-0.209D-03
 Coeff-Com:  0.806D-04-0.408D-04 0.500D-03 0.659D-03-0.675D-02 0.510D-02
 Coeff-Com:  0.182D-01 0.411D-01-0.206D+00-0.814D-01 0.123D+01
 Coeff:      0.510D-05-0.581D-05 0.204D-04-0.241D-05 0.300D-04-0.209D-03
 Coeff:      0.806D-04-0.408D-04 0.500D-03 0.659D-03-0.675D-02 0.510D-02
 Coeff:      0.182D-01 0.411D-01-0.206D+00-0.814D-01 0.123D+01
 Gap=     0.100 Goal=   None    Shift=    0.000
 Gap=     0.118 Goal=   None    Shift=    0.000
 RMSDP=2.01D-07 MaxDP=8.41D-06 DE=-4.22D-10 OVMax= 1.53D-05

 Cycle  18  Pass 1  IDiag  1:
 RMSU=  4.31D-08    CP:  9.74D-01  1.37D+00  8.22D-01  6.37D-01  2.67D+00
                    CP:  3.00D+00  3.00D+00  3.00D+00  3.00D+00  2.01D+00
                    CP:  1.70D+00  1.27D+00  1.21D+00  1.61D+00  1.77D+00
                    CP:  1.40D+00  1.54D+00
 E= -244.818120571532     Delta-E=       -0.000000000064 Rises=F Damp=F
 DIIS: error= 6.69D-08 at cycle  18 NSaved=  18.
 NSaved=18 IEnMin=18 EnMin= -244.818120571532     IErMin=18 ErrMin= 6.69D-08
 ErrMax= 6.69D-08  0.00D+00 EMaxC= 1.00D-01 BMatC= 4.20D-12 BMatP= 6.39D-11
 IDIUse=1 WtCom= 1.00D+00 WtEn= 0.00D+00
 Coeff-Com:  0.262D-05-0.319D-05 0.376D-05-0.108D-05 0.179D-05-0.402D-04
 Coeff-Com:  0.239D-04-0.251D-04 0.725D-04 0.199D-03-0.114D-02-0.142D-03
 Coeff-Com:  0.451D-02 0.178D-01-0.216D-01-0.135D+00 0.199D+00 0.936D+00
 Coeff:      0.262D-05-0.319D-05 0.376D-05-0.108D-05 0.179D-05-0.402D-04
 Coeff:      0.239D-04-0.251D-04 0.725D-04 0.199D-03-0.114D-02-0.142D-03
 Coeff:      0.451D-02 0.178D-01-0.216D-01-0.135D+00 0.199D+00 0.936D+00
 Gap=     0.100 Goal=   None    Shift=    0.000
 Gap=     0.118 Goal=   None    Shift=    0.000
 RMSDP=2.53D-08 MaxDP=1.13D-06 DE=-6.39D-11 OVMax= 2.22D-06

 Cycle  19  Pass 1  IDiag  1:
 RMSU=  9.95D-09    CP:  9.74D-01  1.37D+00  8.22D-01  6.37D-01  2.67D+00
                    CP:  3.00D+00  3.00D+00  3.00D+00  3.00D+00  2.01D+00
                    CP:  1.70D+00  1.27D+00  1.21D+00  1.61D+00  1.78D+00
                    CP:  1.42D+00  1.71D+00  1.05D+00
 E= -244.818120571535     Delta-E=       -0.000000000003 Rises=F Damp=F
 DIIS: error= 2.89D-08 at cycle  19 NSaved=  19.
 NSaved=19 IEnMin=19 EnMin= -244.818120571535     IErMin=19 ErrMin= 2.89D-08
 ErrMax= 2.89D-08  0.00D+00 EMaxC= 1.00D-01 BMatC= 6.66D-13 BMatP= 4.20D-12
 IDIUse=1 WtCom= 1.00D+00 WtEn= 0.00D+00
 Coeff-Com:  0.776D-06-0.126D-05-0.536D-05 0.196D-05-0.118D-04 0.226D-04
 Coeff-Com: -0.118D-04 0.285D-04-0.648D-04-0.106D-03 0.883D-03-0.969D-03
 Coeff-Com: -0.158D-02-0.341D-02 0.251D-01-0.565D-02-0.146D+00 0.681D-01
 Coeff-Com:  0.106D+01
 Coeff:      0.776D-06-0.126D-05-0.536D-05 0.196D-05-0.118D-04 0.226D-04
 Coeff:     -0.118D-04 0.285D-04-0.648D-04-0.106D-03 0.883D-03-0.969D-03
 Coeff:     -0.158D-02-0.341D-02 0.251D-01-0.565D-02-0.146D+00 0.681D-01
 Coeff:      0.106D+01
 Gap=     0.100 Goal=   None    Shift=    0.000
 Gap=     0.118 Goal=   None    Shift=    0.000
 RMSDP=9.58D-09 MaxDP=3.43D-07 DE=-2.67D-12 OVMax= 7.42D-07

 SCF Done:  E(UB3LYP) =  -244.818120572     A.U. after   19 cycles
            NFock= 19  Conv=0.96D-08     -V/T= 2.0041
 <Sx>= 0.0000 <Sy>= 0.0000 <Sz>= 0.5000 <S**2>= 1.1405 S= 0.6792
 <L.S>= 0.000000000000E+00
 KE= 2.438257118433D+02 PE=-9.230990275770D+02 EE= 2.567705224350D+02
 Annihilation of the first spin contaminant:
 S**2 before annihilation     1.1405,   after     0.7697
 Leave Link  502 at Tue Aug 16 17:47:47 2016, MaxMem=    33554432 cpu:       684.0
 (Enter /home/proyectos/fulerenos/M3C-v2.0/M3C-deps_CCC/g09-AM64L-G09RevC.01/l801.exe)
 DoSCS=F DFT=T ScalE2(SS,OS)=  1.000000  1.000000
 Range of M.O.s used for correlation:     1   234
 NBasis=   234 NAE=    19 NBE=    18 NFC=     0 NFV=     0
 NROrb=    234 NOA=    19 NOB=    18 NVA=   215 NVB=   216

 **** Warning!!: The largest alpha MO coefficient is  0.77286306D+02


 **** Warning!!: The largest beta MO coefficient is  0.81548428D+02

 Leave Link  801 at Tue Aug 16 17:47:47 2016, MaxMem=    33554432 cpu:         0.0
 (Enter /home/proyectos/fulerenos/M3C-v2.0/M3C-deps_CCC/g09-AM64L-G09RevC.01/l1101.exe)
 Using compressed storage, NAtomX=     6.
 Will process      7 centers per pass.
 Leave Link 1101 at Tue Aug 16 17:47:48 2016, MaxMem=    33554432 cpu:         0.5
 (Enter /home/proyectos/fulerenos/M3C-v2.0/M3C-deps_CCC/g09-AM64L-G09RevC.01/l1102.exe)
 Symmetrizing basis deriv contribution to polar:
 IMax=3 JMax=2 DiffMx= 0.00D+00
 Leave Link 1102 at Tue Aug 16 17:47:48 2016, MaxMem=    33554432 cpu:         0.1
 (Enter /home/proyectos/fulerenos/M3C-v2.0/M3C-deps_CCC/g09-AM64L-G09RevC.01/l1110.exe)
 Forming Gx(P) for the SCF density, NAtomX=     6.
 Integral derivatives from FoFJK, PRISM(SPDF).
 Do as many integral derivatives as possible in FoFJK.
 G2DrvN: MDV=      33554280.
 G2DrvN: will do     7 centers at a time, making    1 passes.
 Calling FoFCou, ICntrl=  3107 FMM=F I1Cent=   0 AccDes= 0.00D+00.
 FoFJK:  IHMeth= 1 ICntrl=    3107 DoSepK=F KAlg= 0 I1Cent=   0 FoldK=F
 IRaf=         0 NMat=   1 IRICut=       1 DoRegI=T DoRafI=F ISym2E= 1.
 FoFCou: FMM=F IPFlag=           0 FMFlag=      100000 FMFlg1=           0
         NFxFlg=           0 DoJE=F BraDBF=F KetDBF=F FulRan=T
         wScrn=  0.000000 ICntrl=    3107 IOpCl=  1 I1Cent=           0 NGrid=           0
         NMat0=    1 NMatS0=      1 NMatT0=    0 NMatD0=    1 NMtDS0=    0 NMtDT0=    0
 Petite list used in FoFCou.
 End of G2Drv F.D. properties file   721 does not exist.
 End of G2Drv F.D. properties file   722 does not exist.
 End of G2Drv F.D. properties file   788 does not exist.
 Leave Link 1110 at Tue Aug 16 17:53:05 2016, MaxMem=    33554432 cpu:       316.7
 (Enter /home/proyectos/fulerenos/M3C-v2.0/M3C-deps_CCC/g09-AM64L-G09RevC.01/l1002.exe)
 Minotr:  UHF open shell wavefunction.
          IDoAtm=111111
          Direct CPHF calculation.
          Differentiating once with respect to electric field.
                with respect to dipole field.
          Differentiating once with respect to nuclear coordinates.
          Using symmetry in CPHF.
          Requested convergence is 1.0D-08 RMS, and 1.0D-07 maximum.
          Secondary convergence is 1.0D-12 RMS, and 1.0D-12 maximum.
          NewPWx=T KeepS1=F KeepF1=F KeepIn=T MapXYZ=F SortEE=F KeepMc=T.
          MDV=      33553900 using IRadAn=       2.
 Generate precomputed XC quadrature information.
          Solving linear equations simultaneously, MaxMat=       0.
 FoFJK:  IHMeth= 1 ICntrl=       0 DoSepK=F KAlg= 0 I1Cent=   0 FoldK=F
 IRaf= 990000000 NMat=  15 IRICut=      37 DoRegI=T DoRafI=T ISym2E= 2.
 FoFCou: FMM=F IPFlag=           0 FMFlag=      100000 FMFlg1=           0
         NFxFlg=           0 DoJE=F BraDBF=F KetDBF=F FulRan=T
         wScrn=  0.000000 ICntrl=       0 IOpCl=  1 I1Cent=           0 NGrid=           0
         NMat0=   15 NMatS0=     15 NMatT0=    0 NMatD0=   15 NMtDS0=    0 NMtDT0=    0
 Integrals replicated using symmetry in FoFCou.
          There are    15 degrees of freedom in the 1st order CPHF.  IDoFFX=4 NUNeed=    15.
     15 vectors produced by pass  0 Test12= 5.32D-14 6.67D-09 XBig12= 2.86D+02 1.08D+01.
 AX will form    15 AO Fock derivatives at one time.
     15 vectors produced by pass  1 Test12= 5.32D-14 6.67D-09 XBig12= 1.98D+02 3.87D+00.
     15 vectors produced by pass  2 Test12= 5.32D-14 6.67D-09 XBig12= 2.00D+01 1.34D+00.
     15 vectors produced by pass  3 Test12= 5.32D-14 6.67D-09 XBig12= 2.59D+00 4.23D-01.
     15 vectors produced by pass  4 Test12= 5.32D-14 6.67D-09 XBig12= 6.11D-02 5.49D-02.
     15 vectors produced by pass  5 Test12= 5.32D-14 6.67D-09 XBig12= 1.70D-03 1.16D-02.
     15 vectors produced by pass  6 Test12= 5.32D-14 6.67D-09 XBig12= 1.84D-05 7.69D-04.
     15 vectors produced by pass  7 Test12= 5.32D-14 6.67D-09 XBig12= 1.56D-07 6.87D-05.
     13 vectors produced by pass  8 Test12= 5.32D-14 6.67D-09 XBig12= 1.27D-09 4.68D-06.
      3 vectors produced by pass  9 Test12= 5.32D-14 6.67D-09 XBig12= 1.08D-11 4.44D-07.
      3 vectors produced by pass 10 Test12= 5.32D-14 6.67D-09 XBig12= 1.28D-13 4.29D-08.
      3 vectors produced by pass 11 Test12= 5.32D-14 6.67D-09 XBig12= 2.84D-14 3.26D-08.
 InvSVY:  IOpt=1 It=  1 EMax= 1.07D-14
 Solved reduced A of dimension   142 with    15 vectors.
 FullF1:  Do perturbations    1 to    15.
 Isotropic polarizability for W=    0.000000       57.09 Bohr**3.
 End of Minotr F.D. properties file   721 does not exist.
 End of Minotr F.D. properties file   722 does not exist.
 End of Minotr F.D. properties file   788 does not exist.
 Leave Link 1002 at Tue Aug 16 18:35:02 2016, MaxMem=    33554432 cpu:      2512.7
 (Enter /home/proyectos/fulerenos/M3C-v2.0/M3C-deps_CCC/g09-AM64L-G09RevC.01/l601.exe)
 Copying SCF densities to generalized density rwf, IOpCl= 1 IROHF=0.

 **********************************************************************

            Population analysis using the SCF density.

 **********************************************************************

 Orbital symmetries:
 Alpha Orbitals:
       Occupied  (A') (A') (A') (A") (A') (A") (A') (A') (A") (A')
                 (A') (A') (A") (A') (A") (A') (A') (A") (A')
       Virtual   (A") (A') (A") (A') (A") (A') (A') (A") (A') (A")
                 (A') (A') (A") (A') (A') (A") (A') (A") (A") (A')
                 (A') (A') (A") (A") (A") (A') (A') (A") (A') (A")
                 (A') (A") (A') (A') (A') (A') (A") (A") (A') (A')
                 (A") (A') (A") (A') (A') (A") (A') (A") (A') (A')
                 (A") (A") (A') (A") (A') (A") (A') (A") (A') (A')
                 (A") (A") (A") (A') (A') (A") (A') (A') (A") (A')
                 (A") (A') (A') (A") (A') (A") (A') (A") (A') (A")
                 (A") (A') (A') (A') (A") (A') (A") (A') (A') (A")
                 (A") (A') (A") (A') (A') (A") (A') (A") (A') (A')
                 (A") (A') (A") (A') (A') (A") (A") (A') (A") (A')
                 (A") (A") (A') (A") (A') (A') (A") (A') (A") (A')
                 (A') (A') (A") (A') (A') (A") (A') (A") (A') (A")
                 (A') (A') (A") (A') (A') (A') (A") (A') (A") (A')
                 (A') (A") (A") (A") (A') (A') (A") (A") (A') (A")
                 (A') (A") (A') (A") (A") (A') (A") (A') (A") (A')
                 (A') (A") (A") (A') (A") (A') (A") (A') (A') (A")
                 (A") (A') (A") (A") (A') (A") (A') (A") (A') (A')
                 (A') (A") (A') (A') (A') (A") (A') (A") (A") (A')
                 (A') (A") (A") (A') (A') (A") (A') (A') (A") (A")
                 (A') (A") (A") (A") (A') (A") (A') (A") (A') (A')
                 (A") (A') (A") (A') (A')
 Beta  Orbitals:
       Occupied  (A') (A') (A') (A") (A') (A") (A') (A') (A") (A')
                 (A') (A') (A") (A') (A") (A') (A') (A")
       Virtual   (A') (A") (A') (A") (A') (A") (A') (A') (A") (A')
                 (A") (A') (A') (A") (A') (A') (A") (A') (A") (A")
                 (A') (A') (A') (A") (A") (A") (A') (A') (A") (A")
                 (A') (A') (A") (A') (A') (A') (A') (A") (A") (A')
                 (A") (A') (A') (A") (A') (A") (A') (A') (A") (A')
                 (A') (A") (A") (A') (A") (A') (A") (A') (A") (A')
                 (A") (A') (A") (A") (A') (A') (A") (A') (A') (A")
                 (A') (A") (A') (A') (A") (A') (A") (A') (A") (A')
                 (A") (A") (A') (A') (A') (A") (A') (A") (A') (A')
                 (A") (A") (A') (A") (A') (A') (A") (A') (A") (A')
                 (A') (A") (A') (A") (A') (A') (A") (A") (A') (A")
                 (A') (A") (A") (A') (A") (A') (A') (A") (A') (A")
                 (A') (A') (A') (A") (A') (A') (A") (A') (A") (A')
                 (A") (A') (A') (A") (A') (A') (A') (A") (A') (A")
                 (A') (A') (A") (A") (A") (A') (A') (A") (A") (A')
                 (A") (A') (A") (A') (A") (A") (A') (A") (A') (A")
                 (A') (A') (A") (A") (A') (A") (A') (A") (A') (A')
                 (A") (A") (A") (A') (A") (A') (A") (A') (A") (A')
                 (A') (A') (A") (A') (A') (A') (A") (A') (A") (A")
                 (A') (A') (A") (A") (A') (A') (A") (A') (A') (A")
                 (A") (A') (A") (A") (A") (A') (A") (A') (A") (A')
                 (A') (A") (A') (A") (A') (A')
 The electronic state is 2-A'.
 Alpha  occ. eigenvalues --  -14.44766 -10.32692 -10.32025 -10.32005 -10.28044
 Alpha  occ. eigenvalues --  -10.28038  -1.16276  -0.86766  -0.77003  -0.74652
 Alpha  occ. eigenvalues --   -0.55416  -0.49902  -0.48265  -0.44259  -0.44220
 Alpha  occ. eigenvalues --   -0.42627  -0.31598  -0.28515  -0.27872
 Alpha virt. eigenvalues --   -0.17855  -0.13993  -0.04519   0.00724   0.01390
 Alpha virt. eigenvalues --    0.01716   0.03167   0.05891   0.06270   0.06898
 Alpha virt. eigenvalues --    0.06956   0.07424   0.08125   0.08733   0.10192
 Alpha virt. eigenvalues --    0.12265   0.13211   0.13674   0.14035   0.14581
 Alpha virt. eigenvalues --    0.15307   0.16654   0.16669   0.18303   0.19434
 Alpha virt. eigenvalues --    0.20020   0.20540   0.21756   0.23835   0.24068
 Alpha virt. eigenvalues --    0.25155   0.25940   0.28820   0.31235   0.36457
 Alpha virt. eigenvalues --    0.37096   0.39027   0.41954   0.41956   0.44085
 Alpha virt. eigenvalues --    0.44149   0.44720   0.45246   0.45605   0.49436
 Alpha virt. eigenvalues --    0.49726   0.50967   0.52370   0.53781   0.55399
 Alpha virt. eigenvalues --    0.56206   0.57992   0.59684   0.61242   0.61550
 Alpha virt. eigenvalues --    0.62430   0.63407   0.66523   0.66696   0.67406
 Alpha virt. eigenvalues --    0.67628   0.69022   0.70121   0.71744   0.74498
 Alpha virt. eigenvalues --    0.78742   0.78775   0.85900   0.86429   0.88041
 Alpha virt. eigenvalues --    0.88945   0.93481   0.96813   0.97044   1.02172
 Alpha virt. eigenvalues --    1.02605   1.04335   1.05722   1.06497   1.07699
 Alpha virt. eigenvalues --    1.09221   1.14654   1.21308   1.29163   1.33084
 Alpha virt. eigenvalues --    1.34645   1.37914   1.39243   1.40435   1.42892
 Alpha virt. eigenvalues --    1.49037   1.53164   1.55814   1.56140   1.63436
 Alpha virt. eigenvalues --    1.63856   1.67016   1.71868   1.74153   1.80863
 Alpha virt. eigenvalues --    1.82490   1.88482   1.89199   1.90719   1.91497
 Alpha virt. eigenvalues --    1.95046   1.98778   2.03471   2.04171   2.11368
 Alpha virt. eigenvalues --    2.15128   2.19675   2.28178   2.29404   2.33936
 Alpha virt. eigenvalues --    2.37463   2.43290   2.50118   2.54598   2.55050
 Alpha virt. eigenvalues --    2.66911   2.67407   2.70266   2.73367   2.80057
 Alpha virt. eigenvalues --    2.80479   2.81473   2.83757   2.84237   2.92811
 Alpha virt. eigenvalues --    2.95839   3.01805   3.03113   3.04833   3.11549
 Alpha virt. eigenvalues --    3.14161   3.17946   3.21473   3.22989   3.25346
 Alpha virt. eigenvalues --    3.27934   3.29730   3.33206   3.37665   3.40642
 Alpha virt. eigenvalues --    3.43132   3.45978   3.51474   3.55928   3.60769
 Alpha virt. eigenvalues --    3.64538   3.74877   3.76071   3.79613   3.87291
 Alpha virt. eigenvalues --    3.94656   4.01030   4.06157   4.08399   4.13292
 Alpha virt. eigenvalues --    4.17959   4.26305   4.30353   4.38173   4.41166
 Alpha virt. eigenvalues --    4.42788   4.48725   4.52031   4.54413   4.54527
 Alpha virt. eigenvalues --    4.58564   4.74122   4.74123   4.94006   4.96308
 Alpha virt. eigenvalues --    5.27326   5.38677   5.56064   5.66994   6.89004
 Alpha virt. eigenvalues --    6.96968   7.01977   7.05389   7.13497   7.21074
 Alpha virt. eigenvalues --    7.28090   7.32300   7.33559   7.37347   7.44734
 Alpha virt. eigenvalues --    7.47517   7.53016   7.64182   7.64814   7.71131
 Alpha virt. eigenvalues --    7.78585   7.85788   7.91708   8.07431   8.11277
 Alpha virt. eigenvalues --    8.21117   8.25885   8.43278   8.91487  10.38372
 Alpha virt. eigenvalues --   10.43011  10.55110  11.14744  11.29489  24.21514
 Alpha virt. eigenvalues --   24.32892  24.47845  24.87205  24.93472  35.94838
  Beta  occ. eigenvalues --  -14.44664 -10.32145 -10.31087 -10.31069 -10.28365
  Beta  occ. eigenvalues --  -10.28360  -1.15376  -0.86466  -0.76415  -0.72926
  Beta  occ. eigenvalues --   -0.54292  -0.49309  -0.48637  -0.41982  -0.41956
  Beta  occ. eigenvalues --   -0.39612  -0.33478  -0.28644
  Beta virt. eigenvalues --   -0.16806  -0.15101  -0.12225  -0.04067   0.01079
  Beta virt. eigenvalues --    0.01746   0.02049   0.03201   0.06182   0.06420
  Beta virt. eigenvalues --    0.06869   0.07019   0.07743   0.08208   0.09096
  Beta virt. eigenvalues --    0.10565   0.12325   0.13278   0.13709   0.14098
  Beta virt. eigenvalues --    0.14839   0.15616   0.16641   0.16944   0.18339
  Beta virt. eigenvalues --    0.19703   0.20669   0.20712   0.21929   0.24169
  Beta virt. eigenvalues --    0.24196   0.25945   0.26922   0.29100   0.31706
  Beta virt. eigenvalues --    0.36832   0.37294   0.39343   0.42263   0.42491
  Beta virt. eigenvalues --    0.44638   0.44648   0.45530   0.45706   0.45888
  Beta virt. eigenvalues --    0.49808   0.50233   0.51364   0.52987   0.54269
  Beta virt. eigenvalues --    0.55904   0.57840   0.58549   0.59508   0.60667
  Beta virt. eigenvalues --    0.62161   0.62472   0.63954   0.66875   0.67323
  Beta virt. eigenvalues --    0.68031   0.68127   0.69551   0.70282   0.72153
  Beta virt. eigenvalues --    0.74843   0.78886   0.79160   0.86256   0.86757
  Beta virt. eigenvalues --    0.88272   0.89086   0.93802   0.97152   0.97208
  Beta virt. eigenvalues --    1.02611   1.02701   1.04654   1.06008   1.07660
  Beta virt. eigenvalues --    1.07812   1.09528   1.15350   1.21522   1.29875
  Beta virt. eigenvalues --    1.33593   1.34955   1.38286   1.40087   1.41318
  Beta virt. eigenvalues --    1.43513   1.50176   1.54694   1.56101   1.56953
  Beta virt. eigenvalues --    1.64012   1.64577   1.67668   1.72265   1.74400
  Beta virt. eigenvalues --    1.81343   1.84193   1.89308   1.89358   1.91308
  Beta virt. eigenvalues --    1.93464   1.94742   2.00552   2.05182   2.06351
  Beta virt. eigenvalues --    2.11772   2.14873   2.21112   2.29224   2.30358
  Beta virt. eigenvalues --    2.35338   2.39719   2.44434   2.50630   2.54937
  Beta virt. eigenvalues --    2.56021   2.67788   2.68093   2.70684   2.73438
  Beta virt. eigenvalues --    2.80837   2.81209   2.82296   2.83579   2.84420
  Beta virt. eigenvalues --    2.93545   2.96156   3.02499   3.03940   3.05701
  Beta virt. eigenvalues --    3.12623   3.15260   3.18910   3.22311   3.22761
  Beta virt. eigenvalues --    3.26553   3.28583   3.30133   3.33388   3.38514
  Beta virt. eigenvalues --    3.41440   3.43656   3.46709   3.51484   3.57101
  Beta virt. eigenvalues --    3.61372   3.65888   3.75759   3.77472   3.80332
  Beta virt. eigenvalues --    3.87761   3.95160   4.02098   4.07237   4.09587
  Beta virt. eigenvalues --    4.13402   4.18495   4.26737   4.30969   4.39035
  Beta virt. eigenvalues --    4.41645   4.43239   4.49657   4.53056   4.54546
  Beta virt. eigenvalues --    4.55005   4.59950   4.74486   4.74891   4.94003
  Beta virt. eigenvalues --    4.97257   5.28056   5.39332   5.56947   5.68142
  Beta virt. eigenvalues --    6.90906   6.98327   7.03230   7.06610   7.13461
  Beta virt. eigenvalues --    7.21796   7.28488   7.34072   7.34390   7.38119
  Beta virt. eigenvalues --    7.44322   7.48860   7.54086   7.65001   7.65845
  Beta virt. eigenvalues --    7.72324   7.78942   7.88084   7.93244   8.09131
  Beta virt. eigenvalues --    8.12237   8.22808   8.26151   8.44452   8.92756
  Beta virt. eigenvalues --   10.38115  10.43370  10.55756  11.14403  11.30540
  Beta virt. eigenvalues --   24.21835  24.33458  24.48400  24.87359  24.93907
  Beta virt. eigenvalues --   35.94954
          Condensed to atoms (all electrons):
               1          2          3          4          5          6
     1  C    8.690803  -1.266973  -1.628203  -0.097278   0.411160   0.058143
     2  C   -1.266973   7.854789   0.280519  -1.266973   0.280519  -0.226184
     3  C   -1.628203   0.280519   7.487561   0.411160  -0.673935  -0.120917
     4  C   -0.097278  -1.266973   0.411160   8.690803  -1.628203   0.058143
     5  C    0.411160   0.280519  -0.673935  -1.628203   7.487561  -0.120917
     6  N    0.058143  -0.226184  -0.120917   0.058143  -0.120917   7.848360
          Atomic-Atomic Spin Densities.
               1          2          3          4          5          6
     1  C   -0.340387  -0.089726   0.089801   0.268520  -0.123437   0.009474
     2  C   -0.089726   0.609181  -0.057373  -0.089726  -0.057373  -0.006917
     3  C    0.089801  -0.057373   0.800605  -0.123437  -0.096561  -0.053287
     4  C    0.268520  -0.089726  -0.123437  -0.340387   0.089801   0.009474
     5  C   -0.123437  -0.057373  -0.096561   0.089801   0.800605  -0.053287
     6  N    0.009474  -0.006917  -0.053287   0.009474  -0.053287   0.038490
 Mulliken charges and spin densities:
               1          2
     1  C   -0.167653  -0.185754
     2  C    0.344303   0.308067
     3  C    0.243815   0.559747
     4  C   -0.167653  -0.185754
     5  C    0.243815   0.559747
     6  N   -0.496628  -0.056053
 Sum of Mulliken charges =  -0.00000   1.00000
 Mulliken charges and spin densities with hydrogens summed into heavy atoms:
               1          2
     1  C   -0.167653  -0.185754
     2  C    0.344303   0.308067
     3  C    0.243815   0.559747
     4  C   -0.167653  -0.185754
     5  C    0.243815   0.559747
     6  N   -0.496628  -0.056053
 APT charges:
               1
     1  C   -0.150104
     2  C    0.245571
     3  C   -0.000473
     4  C   -0.150104
     5  C   -0.000473
     6  N    0.055583
 Sum of APT charges =   0.00000
 APT charges with hydrogens summed into heavy atoms:
               1
     1  C   -0.150104
     2  C    0.245571
     3  C   -0.000473
     4  C   -0.150104
     5  C   -0.000473
     6  N    0.055583
 Electronic spatial extent (au):  <R**2>=            253.6217
 Charge=             -0.0000 electrons
 Dipole moment (field-independent basis, Debye):
    X=              0.3726    Y=             -1.0604    Z=             -0.0000  Tot=              1.1240
 Quadrupole moment (field-independent basis, Debye-Ang):
   XX=            -34.6976   YY=            -37.8634   ZZ=            -34.4590
   XY=              2.1826   XZ=             -0.0000   YZ=              0.0000
 Traceless Quadrupole moment (field-independent basis, Debye-Ang):
   XX=              0.9757   YY=             -2.1900   ZZ=              1.2143
   XY=              2.1826   XZ=             -0.0000   YZ=              0.0000
 Octapole moment (field-independent basis, Debye-Ang**2):
  XXX=              2.9970  YYY=             -7.2141  ZZZ=             -0.0000  XYY=              2.2789
  XXY=             -1.4863  XXZ=              0.0000  XZZ=              3.4821  YZZ=             -4.3820
  YYZ=              0.0000  XYZ=              0.0000
 Hexadecapole moment (field-independent basis, Debye-Ang**3):
 XXXX=           -109.9667 YYYY=           -159.1917 ZZZZ=           -135.5772 XXXY=              9.5097
 XXXZ=             -0.0000 YYYX=             12.0256 YYYZ=              0.0000 ZZZX=             -0.0000
 ZZZY=              0.0000 XXYY=            -48.9507 XXZZ=            -41.3183 YYZZ=            -54.0340
 XXYZ=             -0.0000 YYXZ=              0.0000 ZZXY=              3.9872
 N-N= 1.776846727272D+02 E-N=-9.230990270998D+02  KE= 2.438257118433D+02
 Symmetry A'   KE= 1.670187298599D+02
 Symmetry A"   KE= 7.680698198345D+01
  Exact polarizability:  48.934  -0.273  62.106  -0.000  -0.000  60.240
 Approx polarizability: 100.472   9.094 133.592   0.000   0.000 134.468
                          Isotropic Fermi Contact Couplings
        Atom                 a.u.       MegaHertz       Gauss      10(-4) cm-1
     1  C(13)             -0.16001    -179.88203     -64.18638     -60.00219
     2  C(13)              0.09319     104.76802      37.38383      34.94685
     3  C(13)              0.17697     198.95169      70.99091      66.36314
     4  C(13)             -0.16001    -179.88203     -64.18638     -60.00219
     5  C(13)              0.17697     198.95169      70.99091      66.36314
     6  N(14)              0.03019       9.75477       3.48074       3.25384
 --------------------------------------------------------
       Center         ----  Spin Dipole Couplings  ----
                      3XX-RR        3YY-RR        3ZZ-RR
 --------------------------------------------------------
     1   Atom       -0.125610      0.092457      0.033153
     2   Atom        0.298372      0.118027     -0.416399
     3   Atom       -0.289116      0.227703      0.061412
     4   Atom       -0.125610      0.092457      0.033153
     5   Atom       -0.289116      0.227703      0.061412
     6   Atom        0.003304      0.361702     -0.365005
 --------------------------------------------------------
                        XY            XZ            YZ
 --------------------------------------------------------
     1   Atom        0.252678      0.086693     -0.172773
     2   Atom        0.414142     -0.000000      0.000000
     3   Atom        0.231721     -0.153013     -0.482165
     4   Atom        0.252678     -0.086693      0.172773
     5   Atom        0.231721      0.153013      0.482165
     6   Atom        0.151932      0.000000     -0.000000
 --------------------------------------------------------


 ---------------------------------------------------------------------------------
              Anisotropic Spin Dipole Couplings in Principal Axis System
 ---------------------------------------------------------------------------------

       Atom             a.u.   MegaHertz   Gauss  10(-4) cm-1        Axes

              Baa    -0.3649   -48.966   -17.472   -16.333  0.7301 -0.5543 -0.3996
     1 C(13)  Bbb     0.0639     8.571     3.059     2.859  0.5497  0.1291  0.8253
              Bcc     0.3010    40.395    14.414    13.474  0.4059  0.8222 -0.3990
 
              Baa    -0.4164   -55.877   -19.938   -18.638  0.0000  0.0000  1.0000
     2 C(13)  Bbb    -0.2156   -28.938   -10.326    -9.653 -0.6274  0.7787 -0.0000
              Bcc     0.6320    84.814    30.264    28.291  0.7787  0.6274  0.0000
 
              Baa    -0.3878   -52.033   -18.566   -17.356  0.7821 -0.5392 -0.3124
     3 C(13)  Bbb    -0.3223   -43.249   -15.432   -14.426  0.5633  0.3976  0.7243
              Bcc     0.7100    95.281    33.999    31.782  0.2663  0.7424 -0.6147
 
              Baa    -0.3649   -48.966   -17.472   -16.333  0.7301 -0.5543  0.3996
     4 C(13)  Bbb     0.0639     8.571     3.059     2.859 -0.5497 -0.1291  0.8253
              Bcc     0.3010    40.395    14.414    13.474  0.4059  0.8222  0.3990
 
              Baa    -0.3878   -52.033   -18.566   -17.356  0.7821 -0.5392  0.3124
     5 C(13)  Bbb    -0.3223   -43.249   -15.432   -14.426 -0.5633 -0.3976  0.7243
              Bcc     0.7100    95.281    33.999    31.782  0.2663  0.7424  0.6147
 
              Baa    -0.3650   -14.077    -5.023    -4.696 -0.0000  0.0000  1.0000
     6 N(14)  Bbb    -0.0524    -2.022    -0.722    -0.675  0.9388 -0.3444  0.0000
              Bcc     0.4174    16.100     5.745     5.370  0.3444  0.9388  0.0000
 

 ---------------------------------------------------------------------------------

 No NMR shielding tensors so no spin-rotation constants.
 Leave Link  601 at Tue Aug 16 18:35:03 2016, MaxMem=    33554432 cpu:         1.1
 (Enter /home/proyectos/fulerenos/M3C-v2.0/M3C-deps_CCC/g09-AM64L-G09RevC.01/l701.exe)
 Compute integral second derivatives.
 ... and contract with generalized density number  0.
 Leave Link  701 at Tue Aug 16 18:35:04 2016, MaxMem=    33554432 cpu:         1.1
 (Enter /home/proyectos/fulerenos/M3C-v2.0/M3C-deps_CCC/g09-AM64L-G09RevC.01/l702.exe)
 L702 exits ... SP integral derivatives will be done elsewhere.
 Leave Link  702 at Tue Aug 16 18:35:04 2016, MaxMem=    33554432 cpu:         0.0
 (Enter /home/proyectos/fulerenos/M3C-v2.0/M3C-deps_CCC/g09-AM64L-G09RevC.01/l703.exe)
 Compute integral second derivatives, UseDBF=F ICtDFT=           0.
 Integral derivatives from FoFJK, PRISM(SPDF).
 Calling FoFJK, ICntrl=    100127 FMM=F ISym2X=1 I1Cent= 0 IOpClX= 1 NMat=1 NMatS=1 NMatT=0.
 FoFJK:  IHMeth= 1 ICntrl=  100127 DoSepK=F KAlg= 0 I1Cent=   0 FoldK=F
 IRaf=         0 NMat=   1 IRICut=       1 DoRegI=T DoRafI=F ISym2E= 1.
 FoFCou: FMM=F IPFlag=           0 FMFlag=      100000 FMFlg1=         800
         NFxFlg=           0 DoJE=F BraDBF=F KetDBF=F FulRan=T
         wScrn=  0.000000 ICntrl=  100127 IOpCl=  1 I1Cent=           0 NGrid=           0
         NMat0=    1 NMatS0=      1 NMatT0=    0 NMatD0=    1 NMtDS0=    0 NMtDT0=    0
 Petite list used in FoFCou.
 Leave Link  703 at Tue Aug 16 18:45:33 2016, MaxMem=    33554432 cpu:       628.4
 (Enter /home/proyectos/fulerenos/M3C-v2.0/M3C-deps_CCC/g09-AM64L-G09RevC.01/l716.exe)
 Dipole        = 1.46577541D-01-4.17207749D-01 2.81727532D-14
 Polarizability= 4.89341299D+01-2.72759208D-01 6.21060470D+01
                -2.02935810D-08-3.18244842D-07 6.02395842D+01
 Full mass-weighted force constant matrix:
 Low frequencies ---  -14.2615   -0.0002    0.0004    0.0005   19.3842   24.7263
 Low frequencies ---  236.0996  317.6221  383.7377
 Diagonal vibrational polarizability:
        6.0053760      33.1644891       5.1243867
 Harmonic frequencies (cm**-1), IR intensities (KM/Mole), Raman scattering
 activities (A**4/AMU), depolarization ratios for plane and unpolarized
 incident light, reduced masses (AMU), force constants (mDyne/A),
 and normal coordinates:
                      1                      2                      3
                     A"                     A'                     A"
 Frequencies --    236.0760               317.6221               383.7367
 Red. masses --     12.0238                12.1214                12.0245
 Frc consts  --      0.3948                 0.7205                 1.0432
 IR Inten    --      8.1628               135.8088                 1.0612
  Atom  AN      X      Y      Z        X      Y      Z        X      Y      Z
     1   6    -0.30  -0.16  -0.30    -0.11   0.11   0.52    -0.10   0.28   0.15
     2   6     0.00   0.00   0.22    -0.25  -0.37   0.00    -0.00   0.00   0.42
     3   6     0.40  -0.18   0.26     0.12   0.16  -0.19     0.34   0.31  -0.29
     4   6     0.30   0.16  -0.30    -0.11   0.11  -0.52     0.10  -0.28   0.15
     5   6    -0.40   0.18   0.26     0.12   0.16   0.19    -0.34  -0.31  -0.29
     6   7    -0.00   0.00  -0.11     0.20  -0.15  -0.00    -0.00   0.00  -0.11
                      4                      5                      6
                     A'                     A'                     A"
 Frequencies --    497.9591               649.6825               658.2181
 Red. masses --     12.1582                12.7902                12.9069
 Frc consts  --      1.7763                 3.1808                 3.2947
 IR Inten    --     11.3443                 8.0667                 0.3985
  Atom  AN      X      Y      Z        X      Y      Z        X      Y      Z
     1   6     0.30  -0.22   0.40     0.11   0.06  -0.13     0.06  -0.12   0.04
     2   6    -0.01   0.45  -0.00    -0.04  -0.31   0.00     0.00  -0.00  -0.32
     3   6    -0.20  -0.14  -0.08    -0.40  -0.10  -0.23     0.33  -0.15  -0.27
     4   6     0.30  -0.22  -0.40     0.11   0.06   0.13    -0.06   0.12   0.04
     5   6    -0.20  -0.14   0.08    -0.40  -0.10   0.23    -0.33   0.15  -0.27
     6   7    -0.17   0.22   0.00     0.53   0.34  -0.00     0.00   0.00   0.67
                      7                      8                      9
                     A"                     A'                     A'
 Frequencies --    713.9840               729.4252               869.7927
 Red. masses --     12.0126                12.0101                12.3525
 Frc consts  --      3.6080                 3.7649                 5.5060
 IR Inten    --      9.6481                 8.9268                 0.0738
  Atom  AN      X      Y      Z        X      Y      Z        X      Y      Z
     1   6     0.42   0.21  -0.24    -0.29  -0.25   0.08     0.00  -0.03   0.17
     2   6    -0.00  -0.00   0.50     0.74  -0.00   0.00     0.09  -0.41   0.00
     3   6    -0.00  -0.30  -0.05    -0.10   0.21  -0.13    -0.03  -0.00   0.54
     4   6    -0.42  -0.21  -0.24    -0.29  -0.25  -0.08     0.00  -0.03  -0.17
     5   6     0.00   0.30  -0.05    -0.10   0.21   0.13    -0.03  -0.00  -0.54
     6   7    -0.00  -0.00   0.08     0.04   0.06  -0.00    -0.03   0.42  -0.00
                     10                     11                     12
                     A"                     A'                     A'
 Frequencies --   1014.3503              1076.9469              1207.4215
 Red. masses --     12.0139                12.9177                12.0495
 Frc consts  --      7.2830                 8.8272                10.3499
 IR Inten    --     17.3887                31.8941                 0.1402
  Atom  AN      X      Y      Z        X      Y      Z        X      Y      Z
     1   6    -0.25   0.46   0.16    -0.00  -0.09   0.05    -0.16   0.42   0.16
     2   6     0.00   0.00  -0.26    -0.11   0.34  -0.00     0.37   0.16  -0.00
     3   6    -0.01  -0.40   0.01    -0.24   0.18   0.33    -0.07  -0.42   0.07
     4   6     0.25  -0.46   0.16    -0.00  -0.09  -0.05    -0.16   0.42  -0.16
     5   6     0.01   0.40   0.01    -0.24   0.18  -0.33    -0.07  -0.42  -0.07
     6   7     0.00   0.00  -0.08     0.50  -0.45   0.00     0.07  -0.14  -0.00

 -------------------
 - Thermochemistry -
 -------------------
 Temperature   298.150 Kelvin.  Pressure   1.00000 Atm.
 Atom     1 has atomic number  6 and mass  12.00000
 Atom     2 has atomic number  6 and mass  12.00000
 Atom     3 has atomic number  6 and mass  12.00000
 Atom     4 has atomic number  6 and mass  12.00000
 Atom     5 has atomic number  6 and mass  12.00000
 Atom     6 has atomic number  7 and mass  14.00307
 Molecular mass:    74.00307 amu.
 Principal axes and moments of inertia in atomic units:
                           1         2         3
     Eigenvalues --   201.50697 231.98715 262.75630
           X           -0.36316   0.00000   0.93173
           Y            0.93173   0.00000   0.36316
           Z           -0.00000   1.00000   0.00000
 This molecule is an asymmetric top.
 Rotational symmetry number  1.
 Rotational temperatures (Kelvin)      0.42983     0.37336     0.32964
 Rotational constants (GHZ):           8.95622     7.77949     6.86850
 Zero-point vibrational energy      49975.3 (Joules/Mol)
                                   11.94438 (Kcal/Mol)
 Warning -- explicit consideration of   4 degrees of freedom as
           vibrations may cause significant error
 Vibrational temperatures:    339.66   456.99   552.11   716.45   934.75
          (Kelvin)            947.03  1027.26  1049.48  1251.44  1459.42
                             1549.48  1737.21
 
 Zero-point correction=                           0.019035 (Hartree/Particle)
 Thermal correction to Energy=                    0.023936
 Thermal correction to Enthalpy=                  0.024880
 Thermal correction to Gibbs Free Energy=        -0.008717
 Sum of electronic and zero-point Energies=           -244.799086
 Sum of electronic and thermal Energies=              -244.794185
 Sum of electronic and thermal Enthalpies=            -244.793241
 Sum of electronic and thermal Free Energies=         -244.826838
 
                     E (Thermal)             CV                S
                      KCal/Mol        Cal/Mol-Kelvin    Cal/Mol-Kelvin
 Total                   15.020             16.968             70.711
 Electronic               0.000              0.000              1.377
 Translational            0.889              2.981             38.821
 Rotational               0.889              2.981             24.022
 Vibrational             13.243             11.006              6.491
 Vibration     1          0.655              1.786              1.832
 Vibration     2          0.704              1.640              1.322
 Vibration     3          0.753              1.505              1.024
 Vibration     4          0.853              1.255              0.663
                       Q            Log10(Q)             Ln(Q)
 Total Bot       0.102229D+05          4.009573          9.232384
 Total V=0       0.581907D+13         12.764854         29.392162
 Vib (Bot)       0.514889D-08         -8.288287        -19.084485
 Vib (Bot)    1  0.832058D+00         -0.079846         -0.183853
 Vib (Bot)    2  0.592682D+00         -0.227178         -0.523097
 Vib (Bot)    3  0.469936D+00         -0.327961         -0.755158
 Vib (Bot)    4  0.330651D+00         -0.480630         -1.106692
 Vib (V=0)       0.293085D+01          0.466994          1.075294
 Vib (V=0)    1  0.147073D+01          0.167534          0.385760
 Vib (V=0)    2  0.127542D+01          0.105652          0.243273
 Vib (V=0)    3  0.118618D+01          0.074150          0.170736
 Vib (V=0)    4  0.109944D+01          0.041172          0.094802
 Electronic      0.200000D+01          0.301030          0.693147
 Translational   0.250225D+08          7.398330         17.035284
 Rotational      0.396735D+05          4.598500         10.588438
 
                                                              b3lyp opt
                                                             IR Spectrum
 
     1             1      1                                                                                                          
     2             0      0              8              77     66               4           3      3        2                        
     0             7      1              7              21     55               9           8      1        3                        
     7             7      4              0              94     80               8           4      8        6                        
 
     X             X      X              X              XX     XX               X           X      X        X                        
                   X      X                                                     X                  X                                 
                   X      X                                                                        X                                 
                   X                                                                               X                                 
                   X                                                                               X                                 
                                                                                                   X                                 
                                                                                                   X                                 
                                                                                                   X                                 
                                                                                                   X                                 
                                                                                                   X                                 
                                                                                                   X                                 
                                                                                                   X                                 
                                                                                                   X                                 
                                                                                                   X                                 
                                                                                                   X                                 
                                                                                                   X                                 
                                                                                                   X                                 
                                                                                                   X                                 
                                                                                                   X                                 
                                                                                                   X                                 
 
 ***** Axes restored to original set *****
 -------------------------------------------------------------------
 Center     Atomic                   Forces (Hartrees/Bohr)
 Number     Number              X              Y              Z
 -------------------------------------------------------------------
      1        6           0.000014521   -0.000058585   -0.000066470
      2        6          -0.000147507    0.000035305    0.000038201
      3        6           0.000007751    0.000015935   -0.000126191
      4        6           0.000026194   -0.000085797    0.000003753
      5        6           0.000044751   -0.000070317    0.000096390
      6        7           0.000054291    0.000163459    0.000054317
 -------------------------------------------------------------------
 Cartesian Forces:  Max     0.000163459 RMS     0.000076623
 Z-matrix is all fixed cartesians, so copy forces.
 Force constants in Cartesian coordinates: 
                1             2             3             4             5 
      1  0.247009D+00
      2 -0.104503D-01  0.727937D-01
      3 -0.932461D-01  0.405264D-01  0.152038D+00
      4  0.121459D-01  0.315388D-02 -0.248581D-01  0.173447D+00
      5  0.518286D-01 -0.344344D-01 -0.569346D-01  0.112947D-01  0.222755D+00
      6  0.374665D-01 -0.631609D-01 -0.970613D-01 -0.438295D-02  0.376499D-01
      7 -0.210881D+00 -0.169395D-01  0.833744D-01 -0.109426D-01 -0.552412D-01
      8 -0.363070D-01 -0.800633D-02  0.653030D-02 -0.288442D-01 -0.357039D-01
      9  0.202712D-01 -0.158683D-02  0.318241D-01 -0.923097D-02 -0.103960D-02
     10  0.205058D-01  0.124596D-01 -0.101406D-02  0.893518D-02  0.850187D-01
     11  0.655177D-02 -0.237691D-01 -0.255563D-01  0.117860D-01 -0.114481D+00
     12 -0.877908D-02  0.280856D-01 -0.298063D-01  0.111089D-01  0.138589D-01
     13 -0.369831D-01 -0.653461D-02  0.212893D-01 -0.120703D-02 -0.790402D-01
     14 -0.560084D-04 -0.125944D-01  0.305369D-01 -0.293301D-01 -0.319980D-01
     15  0.334842D-02  0.188587D-01 -0.326397D-01 -0.107981D-01 -0.402657D-02
     16 -0.317972D-01  0.183109D-01  0.144546D-01 -0.182379D+00 -0.138605D-01
     17 -0.115670D-01  0.601043D-02  0.489725D-02  0.319397D-01 -0.613700D-02
     18  0.409391D-01 -0.227229D-01 -0.243545D-01  0.381612D-01  0.104919D-01
                6             7             8             9            10 
      6  0.136069D+00
      7 -0.537105D-01  0.246363D+00
      8 -0.817487D-02  0.310880D-01  0.839967D-01
      9  0.889095D-02 -0.114897D-01 -0.187930D-02  0.212409D+00
     10 -0.397546D-02 -0.451856D-01 -0.255898D-02 -0.486563D-02  0.282848D+00
     11  0.403499D-01  0.802036D-02  0.388597D-02  0.105355D-01 -0.653079D-01
     12 -0.138038D-01 -0.212174D-01 -0.461078D-03 -0.409174D-01  0.650305D-02
     13  0.418922D-02  0.329728D-01  0.176510D-01 -0.306252D-01 -0.222703D+00
     14 -0.954256D-02  0.140638D-01  0.139514D-01  0.649204D-01 -0.458792D-01
     15 -0.455048D-02 -0.171957D-01  0.551940D-01 -0.120586D+00  0.322447D-01
     16  0.204132D-01 -0.123265D-01  0.189711D-01  0.359403D-01 -0.444008D-01
     17  0.287853D-02  0.190085D-01 -0.581239D-01 -0.709502D-01  0.162677D-01
     18 -0.295442D-01  0.202389D-01 -0.512090D-01 -0.916200D-01 -0.288926D-01
               11            12            13            14            15 
     11  0.133799D+00
     12 -0.194243D-01  0.551939D-01
     13  0.114557D-01 -0.113554D-02  0.254495D+00
     14  0.123572D-01 -0.198316D-01  0.893032D-02  0.143111D+00
     15 -0.244647D-01  0.232823D-01  0.738125D-02 -0.651252D-01  0.145162D+00
     16  0.274940D-01  0.135201D-01 -0.265750D-01  0.522712D-01 -0.149806D-01
     17 -0.117920D-01 -0.222753D-02  0.475378D-01 -0.124828D+00  0.195638D-01
     18  0.185599D-01  0.605144D-02 -0.109904D-02 -0.957983D-03 -0.106678D-01
               16            17            18 
     16  0.297478D+00
     17 -0.103187D+00  0.194870D+00
     18 -0.693475D-01  0.458381D-01  0.150135D+00
 Leave Link  716 at Tue Aug 16 18:45:33 2016, MaxMem=    33554432 cpu:         0.0
 (Enter /home/proyectos/fulerenos/M3C-v2.0/M3C-deps_CCC/g09-AM64L-G09RevC.01/l103.exe)

 GradGradGradGradGradGradGradGradGradGradGradGradGradGradGradGradGradGrad
 Berny optimization.
 Search for a local minimum.
 Step number   1 out of a maximum of    2
 All quantities printed in internal units (Hartrees-Bohrs-Radians)
 Second derivative matrix not updated -- analytic derivatives used.
 The second derivative matrix:
                          X1        Y1        Z1        X2        Y2
           X1           0.24701
           Y1          -0.01045   0.07279
           Z1          -0.09325   0.04053   0.15204
           X2           0.01215   0.00315  -0.02486   0.17345
           Y2           0.05183  -0.03443  -0.05693   0.01129   0.22275
           Z2           0.03747  -0.06316  -0.09706  -0.00438   0.03765
           X3          -0.21088  -0.01694   0.08337  -0.01094  -0.05524
           Y3          -0.03631  -0.00801   0.00653  -0.02884  -0.03570
           Z3           0.02027  -0.00159   0.03182  -0.00923  -0.00104
           X4           0.02051   0.01246  -0.00101   0.00894   0.08502
           Y4           0.00655  -0.02377  -0.02556   0.01179  -0.11448
           Z4          -0.00878   0.02809  -0.02981   0.01111   0.01386
           X5          -0.03698  -0.00653   0.02129  -0.00121  -0.07904
           Y5          -0.00006  -0.01259   0.03054  -0.02933  -0.03200
           Z5           0.00335   0.01886  -0.03264  -0.01080  -0.00403
           X6          -0.03180   0.01831   0.01445  -0.18238  -0.01386
           Y6          -0.01157   0.00601   0.00490   0.03194  -0.00614
           Z6           0.04094  -0.02272  -0.02435   0.03816   0.01049
                          Z2        X3        Y3        Z3        X4
           Z2           0.13607
           X3          -0.05371   0.24636
           Y3          -0.00817   0.03109   0.08400
           Z3           0.00889  -0.01149  -0.00188   0.21241
           X4          -0.00398  -0.04519  -0.00256  -0.00487   0.28285
           Y4           0.04035   0.00802   0.00389   0.01054  -0.06531
           Z4          -0.01380  -0.02122  -0.00046  -0.04092   0.00650
           X5           0.00419   0.03297   0.01765  -0.03063  -0.22270
           Y5          -0.00954   0.01406   0.01395   0.06492  -0.04588
           Z5          -0.00455  -0.01720   0.05519  -0.12059   0.03224
           X6           0.02041  -0.01233   0.01897   0.03594  -0.04440
           Y6           0.00288   0.01901  -0.05812  -0.07095   0.01627
           Z6          -0.02954   0.02024  -0.05121  -0.09162  -0.02889
                          Y4        Z4        X5        Y5        Z5
           Y4           0.13380
           Z4          -0.01942   0.05519
           X5           0.01146  -0.00114   0.25449
           Y5           0.01236  -0.01983   0.00893   0.14311
           Z5          -0.02446   0.02328   0.00738  -0.06513   0.14516
           X6           0.02749   0.01352  -0.02657   0.05227  -0.01498
           Y6          -0.01179  -0.00223   0.04754  -0.12483   0.01956
           Z6           0.01856   0.00605  -0.00110  -0.00096  -0.01067
                          X6        Y6        Z6
           X6           0.29748
           Y6          -0.10319   0.19487
           Z6          -0.06935   0.04584   0.15014
 ITU=  0
     Eigenvalues ---    0.02536   0.04628   0.06701   0.11410   0.20483
     Eigenvalues ---    0.21236   0.23200   0.24190   0.35394   0.46791
     Eigenvalues ---    0.57017   0.66663
 Angle between quadratic step and forces=  43.90 degrees.
 ClnCor:  largest displacement from symmetrization is 3.90D-10 for atom     5.
 Linear search not attempted -- first point.
 ClnCor:  largest displacement from symmetrization is 1.24D-15 for atom     2.
 B after Tr=    -0.000002    0.000010    0.000004
         Rot=    1.000000    0.000000   -0.000001    0.000002 Ang=   0.00 deg.
 Variable       Old X    -DE/DX   Delta X   Delta X   Delta X     New X
                                 (Linear)    (Quad)   (Total)
    X1        1.31670   0.00001   0.00000   0.00028   0.00027   1.31697
    Y1        0.05719  -0.00006   0.00000  -0.00026  -0.00025   0.05694
    Z1       -1.97848  -0.00007   0.00000  -0.00070  -0.00069  -1.97918
    X2        0.97627  -0.00015   0.00000  -0.00133  -0.00132   0.97495
    Y2        1.53481   0.00004   0.00000  -0.00026  -0.00025   1.53456
    Z2        0.42636   0.00004   0.00000   0.00012   0.00012   0.42648
    X3       -1.29628   0.00001   0.00000   0.00038   0.00038  -1.29590
    Y3       -0.42201   0.00002   0.00000   0.00018   0.00019  -0.42182
    Z3       -1.54993  -0.00013   0.00000  -0.00005  -0.00004  -1.54997
    X4        1.81792   0.00003   0.00000   0.00044   0.00043   1.81835
    Y4       -1.11124  -0.00009   0.00000  -0.00062  -0.00062  -1.11186
    Z4        1.03675   0.00000   0.00000   0.00024   0.00024   1.03699
    X5       -0.84584   0.00004   0.00000   0.00040   0.00039  -0.84545
    Y5       -1.47207  -0.00007   0.00000   0.00014   0.00016  -1.47191
    Z5        1.15983   0.00010   0.00000   0.00004   0.00005   1.15988
    X6       -1.71574   0.00005   0.00000  -0.00016  -0.00015  -1.71589
    Y6        1.20129   0.00016   0.00000   0.00075   0.00077   1.20206
    Z6        0.74461   0.00005   0.00000   0.00032   0.00032   0.74493
         Item               Value     Threshold  Converged?
 Maximum Force            0.000163     0.000450     YES
 RMS     Force            0.000077     0.000300     YES
 Maximum Displacement     0.001321     0.001800     YES
 RMS     Displacement     0.000480     0.001200     YES
 Predicted change in Energy=-2.396944D-07
 Optimization completed.
    -- Stationary point found.
 GradGradGradGradGradGradGradGradGradGradGradGradGradGradGradGradGradGrad

 Leave Link  103 at Tue Aug 16 18:45:33 2016, MaxMem=    33554432 cpu:         0.0
 (Enter /home/proyectos/fulerenos/M3C-v2.0/M3C-deps_CCC/g09-AM64L-G09RevC.01/l9999.exe)
 1\1\GINC-BLADI10\Freq\UB3LYP\6-311++G(3df,2p)\C5N1(2)\ROOT\16-Aug-2016
 \0\\#p b3lyp/6-311++G(3df,2p) freq symmetry=Loose\\b3lyp opt\\0,2\C,0.
 696766964,0.030263719,-1.046966893\C,0.5166219392,0.8121849596,0.22562
 031\C,-0.685960858,-0.223318198,-0.82018658\C,0.9620010296,-0.58804261
 72,0.5486240942\C,-0.4475978728,-0.778983413,0.6137537778\N,-0.9079308
 89,0.6356944691,0.3940311068\\Version=EM64L-G09RevE.01\State=2-A'\HF=-
 244.8181206\S2=1.140546\S2-1=0.\S2A=0.769714\RMSD=9.578e-09\RMSF=7.662
 e-05\ZeroPoint=0.0190346\Thermal=0.0239359\Dipole=-0.4255878,0.0697382
 ,0.0977694\DipoleDeriv=-0.0746002,-0.0841474,0.2447106,0.1305383,-0.15
 37757,0.1497946,0.6162724,-0.1157532,-0.2219366,0.6866082,-0.1801974,-
 0.1785092,0.1343329,0.001048,-0.0346369,-0.0566258,0.0176473,0.0490581
 ,-0.3001039,0.1393114,-0.169807,-0.3361693,0.1415745,-0.1430779,-0.466
 6938,0.1697528,0.1571103,-0.3151295,0.1322936,-0.1951836,0.4517029,-0.
 0999024,-0.2658222,-0.3597785,0.0885079,-0.0352806,-0.1084998,-0.09211
 59,0.2748216,-0.5310986,0.0942384,0.3347881,0.2173452,-0.1300532,0.012
 8423,0.1117252,0.0848556,0.0239677,0.1506939,0.0168172,-0.0410458,0.04
 94805,-0.0301016,0.0382064\Polar=61.9678113,1.1630221,50.6190907,0.163
 4001,-3.921359,58.6928593\PG=CS [SG(C1N1),X(C4)]\NImag=0\\0.24700945,-
 0.01045032,0.07279371,-0.09324614,0.04052637,0.15203768,0.01214588,0.0
 0315388,-0.02485808,0.17344744,0.05182857,-0.03443437,-0.05693456,0.01
 129469,0.22275451,0.03746655,-0.06316094,-0.09706134,-0.00438295,0.037
 64992,0.13606894,-0.21088087,-0.01693946,0.08337438,-0.01094259,-0.055
 24120,-0.05371050,0.24636284,-0.03630703,-0.00800633,0.00653030,-0.028
 84416,-0.03570392,-0.00817487,0.03108804,0.08399674,0.02027120,-0.0015
 8683,0.03182415,-0.00923097,-0.00103960,0.00889095,-0.01148972,-0.0018
 7930,0.21240856,0.02050581,0.01245961,-0.00101406,0.00893518,0.0850187
 3,-0.00397546,-0.04518560,-0.00255898,-0.00486563,0.28284795,0.0065517
 7,-0.02376908,-0.02555627,0.01178596,-0.11448116,0.04034992,0.00802036
 ,0.00388597,0.01053550,-0.06530786,0.13379902,-0.00877908,0.02808561,-
 0.02980628,0.01110887,0.01385893,-0.01380384,-0.02121742,-0.00046108,-
 0.04091744,0.00650305,-0.01942433,0.05519387,-0.03698305,-0.00653461,0
 .02128929,-0.00120703,-0.07904025,0.00418922,0.03297278,0.01765100,-0.
 03062518,-0.22270252,0.01145572,-0.00113554,0.25449483,-0.00005601,-0.
 01259436,0.03053691,-0.02933006,-0.03199804,-0.00954256,0.01406377,0.0
 1395142,0.06492043,-0.04587923,0.01235720,-0.01983159,0.00893032,0.143
 11149,0.00334842,0.01885866,-0.03263966,-0.01079806,-0.00402657,-0.004
 55048,-0.01719568,0.05519397,-0.12058618,0.03224470,-0.02446467,0.0232
 8226,0.00738125,-0.06512520,0.14516182,-0.03179722,0.01831090,0.014454
 60,-0.18237888,-0.01386054,0.02041316,-0.01232655,0.01897112,0.0359402
 8,-0.04440082,0.02749404,0.01352011,-0.02657499,0.05227123,-0.01498064
 ,0.29747846,-0.01156698,0.00601043,0.00489725,0.03193969,-0.00613700,0
 .00287853,0.01900849,-0.05812386,-0.07095020,0.01626771,-0.01179196,-0
 .00222753,0.04753782,-0.12482771,0.01956381,-0.10318675,0.19487010,0.0
 4093906,-0.02272287,-0.02435455,0.03816117,0.01049188,-0.02954422,0.02
 023894,-0.05120903,-0.09162003,-0.02889261,0.01855986,0.00605144,-0.00
 109904,-0.00095798,-0.01066775,-0.06934751,0.04583815,0.15013512\\-0.0
 0001452,0.00005859,0.00006647,0.00014751,-0.00003530,-0.00003820,-0.00
 000775,-0.00001594,0.00012619,-0.00002619,0.00008580,-0.00000375,-0.00
 004475,0.00007032,-0.00009639,-0.00005429,-0.00016346,-0.00005432\\\@


 BLACK HOLES SUCK.
 Job cpu time:       0 days  1 hours  9 minutes  9.1 seconds.
 File lengths (MBytes):  RWF=     54 Int=      0 D2E=      0 Chk=      5 Scr=      1
 Normal termination of Gaussian 09 at Tue Aug 16 18:45:33 2016.
