 Entering Gaussian System, Link 0=/home/proyectos/fulerenos/M3C-v2.0/M3C-deps_CCC/g09-AM64L-G09RevC.01/g09
 Initial command:
 /home/proyectos/fulerenos/M3C-v2.0/M3C-deps_CCC/g09-AM64L-G09RevC.01/l1.exe "/scratch/naguirre/gaussian/Gau-10829.inp" -scrdir="/scratch/naguirre/gaussian/"
 Entering Link 1 = /home/proyectos/fulerenos/M3C-v2.0/M3C-deps_CCC/g09-AM64L-G09RevC.01/l1.exe PID=     10848.
  
 Copyright (c) 1988,1990,1992,1993,1995,1998,2003,2009,2015,
            Gaussian, Inc.  All Rights Reserved.
  
 This is part of the Gaussian(R) 09 program.  It is based on
 the Gaussian(R) 03 system (copyright 2003, Gaussian, Inc.),
 the Gaussian(R) 98 system (copyright 1998, Gaussian, Inc.),
 the Gaussian(R) 94 system (copyright 1995, Gaussian, Inc.),
 the Gaussian 92(TM) system (copyright 1992, Gaussian, Inc.),
 the Gaussian 90(TM) system (copyright 1990, Gaussian, Inc.),
 the Gaussian 88(TM) system (copyright 1988, Gaussian, Inc.),
 the Gaussian 86(TM) system (copyright 1986, Carnegie Mellon
 University), and the Gaussian 82(TM) system (copyright 1983,
 Carnegie Mellon University). Gaussian is a federally registered
 trademark of Gaussian, Inc.
  
 This software contains proprietary and confidential information,
 including trade secrets, belonging to Gaussian, Inc.
  
 This software is provided under written license and may be
 used, copied, transmitted, or stored only in accord with that
 written license.
  
 The following legend is applicable only to US Government
 contracts under FAR:
  
                    RESTRICTED RIGHTS LEGEND
  
 Use, reproduction and disclosure by the US Government is
 subject to restrictions as set forth in subparagraphs (a)
 and (c) of the Commercial Computer Software - Restricted
 Rights clause in FAR 52.227-19.
  
 Gaussian, Inc.
 340 Quinnipiac St., Bldg. 40, Wallingford CT 06492
  
  
 ---------------------------------------------------------------
 Warning -- This program may not be used in any manner that
 competes with the business of Gaussian, Inc. or will provide
 assistance to any competitor of Gaussian, Inc.  The licensee
 of this program is prohibited from giving any competitor of
 Gaussian, Inc. access to this program.  By using this program,
 the user acknowledges that Gaussian, Inc. is engaged in the
 business of creating and licensing software in the field of
 computational chemistry and represents and warrants to the
 licensee that it is not a competitor of Gaussian, Inc. and that
 it will not use this program in any manner prohibited above.
 ---------------------------------------------------------------
  

 Cite this work as:
 Gaussian 09, Revision E.01,
 M. J. Frisch, G. W. Trucks, H. B. Schlegel, G. E. Scuseria, 
 M. A. Robb, J. R. Cheeseman, G. Scalmani, V. Barone, B. Mennucci, 
 G. A. Petersson, H. Nakatsuji, M. Caricato, X. Li, H. P. Hratchian, 
 A. F. Izmaylov, J. Bloino, G. Zheng, J. L. Sonnenberg, M. Hada, 
 M. Ehara, K. Toyota, R. Fukuda, J. Hasegawa, M. Ishida, T. Nakajima, 
 Y. Honda, O. Kitao, H. Nakai, T. Vreven, J. A. Montgomery, Jr., 
 J. E. Peralta, F. Ogliaro, M. Bearpark, J. J. Heyd, E. Brothers, 
 K. N. Kudin, V. N. Staroverov, T. Keith, R. Kobayashi, J. Normand, 
 K. Raghavachari, A. Rendell, J. C. Burant, S. S. Iyengar, J. Tomasi, 
 M. Cossi, N. Rega, J. M. Millam, M. Klene, J. E. Knox, J. B. Cross, 
 V. Bakken, C. Adamo, J. Jaramillo, R. Gomperts, R. E. Stratmann, 
 O. Yazyev, A. J. Austin, R. Cammi, C. Pomelli, J. W. Ochterski, 
 R. L. Martin, K. Morokuma, V. G. Zakrzewski, G. A. Voth, 
 P. Salvador, J. J. Dannenberg, S. Dapprich, A. D. Daniels, 
 O. Farkas, J. B. Foresman, J. V. Ortiz, J. Cioslowski, 
 and D. J. Fox, Gaussian, Inc., Wallingford CT, 2013.
 
 ******************************************
 Gaussian 09:  EM64L-G09RevE.01 30-Nov-2015
                16-Aug-2016 
 ******************************************
 %NProcShared=1
 Will use up to    1 processors via shared memory.
 ---------------------------------------------
 #p b3lyp/6-311++G(3df,2p) freq symmetry=Loose
 ---------------------------------------------
 1/10=4,30=1,38=1/1,3;
 2/12=2,17=4,18=3,40=1/2;
 3/5=4,6=6,7=1216,11=2,16=1,25=1,30=1,71=2,74=-5,140=1/1,2,3;
 4//1;
 5/5=2,38=5,98=1/2;
 8/6=4,10=90,11=11/1;
 11/6=1,8=1,9=11,15=111,16=1/1,2,10;
 10/6=1/2;
 6/7=2,8=2,9=2,10=2,18=1,28=1/1;
 7/8=1,10=1,25=1/1,2,3,16;
 1/10=4,30=1/3;
 99//99;
 Leave Link    1 at Tue Aug 16 17:36:05 2016, MaxMem=           0 cpu:         0.1
 (Enter /home/proyectos/fulerenos/M3C-v2.0/M3C-deps_CCC/g09-AM64L-G09RevC.01/l101.exe)
 ---------
 b3lyp opt
 ---------
 Symbolic Z-matrix:
 Charge =  1 Multiplicity = 3
 N                    -1.20479   0.30293  -0.27016 
 C                    -0.05808  -0.07691   1.36149 
 C                    -1.40054   0.07121   1.07628 
 C                     0.27718   0.23859  -0.49869 
 C                    -2.51164   0.34253   0.02531 
 C                     1.00889  -0.02407   0.65362 
 
 NAtoms=      6 NQM=        6 NQMF=       0 NMMI=      0 NMMIF=      0
                NMic=       0 NMicF=      0.
                    Isotopes and Nuclear Properties:
 (Nuclear quadrupole moments (NQMom) in fm**2, nuclear magnetic moments (NMagM)
  in nuclear magnetons)

  Atom         1           2           3           4           5           6
 IAtWgt=          14          12          12          12          12          12
 AtmWgt=  14.0030740  12.0000000  12.0000000  12.0000000  12.0000000  12.0000000
 NucSpn=           2           0           0           0           0           0
 AtZEff=   0.0000000   0.0000000   0.0000000   0.0000000   0.0000000   0.0000000
 NQMom=    2.0440000   0.0000000   0.0000000   0.0000000   0.0000000   0.0000000
 NMagM=    0.4037610   0.0000000   0.0000000   0.0000000   0.0000000   0.0000000
 AtZNuc=   7.0000000   6.0000000   6.0000000   6.0000000   6.0000000   6.0000000
 Leave Link  101 at Tue Aug 16 17:36:06 2016, MaxMem=    33554432 cpu:         0.3
 (Enter /home/proyectos/fulerenos/M3C-v2.0/M3C-deps_CCC/g09-AM64L-G09RevC.01/l103.exe)

 GradGradGradGradGradGradGradGradGradGradGradGradGradGradGradGradGradGrad
 Berny optimization.
 Initialization pass.
 Trust Radius=3.00D-01 FncErr=1.00D-07 GrdErr=1.00D-07
 Number of steps in this run=      2 maximum allowed number of steps=      2.
 GradGradGradGradGradGradGradGradGradGradGradGradGradGradGradGradGradGrad

 Leave Link  103 at Tue Aug 16 17:36:06 2016, MaxMem=    33554432 cpu:         0.0
 (Enter /home/proyectos/fulerenos/M3C-v2.0/M3C-deps_CCC/g09-AM64L-G09RevC.01/l202.exe)
                          Input orientation:                          
 ---------------------------------------------------------------------
 Center     Atomic      Atomic             Coordinates (Angstroms)
 Number     Number       Type             X           Y           Z
 ---------------------------------------------------------------------
      1          7           0       -1.204789    0.302934   -0.270157
      2          6           0       -0.058076   -0.076914    1.361494
      3          6           0       -1.400536    0.071205    1.076279
      4          6           0        0.277180    0.238595   -0.498688
      5          6           0       -2.511643    0.342526    0.025311
      6          6           0        1.008891   -0.024072    0.653619
 ---------------------------------------------------------------------
                    Distance matrix (angstroms):
                    1          2          3          4          5
     1  N    0.000000
     2  C    2.030153   0.000000
     3  C    1.380183   1.380393   0.000000
     4  C    1.500866   1.916304   2.307221   0.000000
     5  C    1.340424   2.825121   1.553290   2.839527   0.000000
     6  C    2.420883   1.281522   2.448072   1.390038   3.594903
                    6
     6  C    0.000000
 Stoichiometry    C5N(1+,3)
 Framework group  CS[SG(C5N)]
 Deg. of freedom     9
 Full point group                 CS      NOp   2
 Largest Abelian subgroup         CS      NOp   2
 Largest concise Abelian subgroup C1      NOp   1
                         Standard orientation:                         
 ---------------------------------------------------------------------
 Center     Atomic      Atomic             Coordinates (Angstroms)
 Number     Number       Type             X           Y           Z
 ---------------------------------------------------------------------
      1          7           0        0.000000    0.855525   -0.000000
      2          6           0       -0.173502   -1.167201    0.000000
      3          6           0       -1.018632   -0.075761    0.000000
      4          6           0        1.283491    0.077546   -0.000000
      5          6           0       -1.192429    1.467775   -0.000000
      6          6           0        1.101072   -1.300471    0.000000
 ---------------------------------------------------------------------
 Rotational constants (GHZ):     14.5962498      4.9327734      3.6868200
 Leave Link  202 at Tue Aug 16 17:36:06 2016, MaxMem=    33554432 cpu:         0.0
 (Enter /home/proyectos/fulerenos/M3C-v2.0/M3C-deps_CCC/g09-AM64L-G09RevC.01/l301.exe)
 Standard basis: 6-311++G(3df,2p) (5D, 7F)
 Ernie: Thresh=  0.10000D-02 Tol=  0.10000D-05 Strict=F.
 There are   186 symmetry adapted cartesian basis functions of A'  symmetry.
 There are    84 symmetry adapted cartesian basis functions of A"  symmetry.
 There are   156 symmetry adapted basis functions of A'  symmetry.
 There are    78 symmetry adapted basis functions of A"  symmetry.
   234 basis functions,   348 primitive gaussians,   270 cartesian basis functions
    19 alpha electrons       17 beta electrons
       nuclear repulsion energy       166.9878943646 Hartrees.
 IExCor=  402 DFT=T Ex+Corr=B3LYP ExCW=0 ScaHFX=  0.200000
 ScaDFX=  0.800000  0.720000  1.000000  0.810000 ScalE2=  1.000000  1.000000
 IRadAn=      0 IRanWt=     -1 IRanGd=            0 ICorTp=0 IEmpDi=  4
 NAtoms=    6 NActive=    6 NUniq=    6 SFac= 1.00D+00 NAtFMM=   60 NAOKFM=F Big=F
 Integral buffers will be    131072 words long.
 Raffenetti 2 integral format.
 Two-electron integral symmetry is turned on.
 Leave Link  301 at Tue Aug 16 17:36:07 2016, MaxMem=    33554432 cpu:         0.3
 (Enter /home/proyectos/fulerenos/M3C-v2.0/M3C-deps_CCC/g09-AM64L-G09RevC.01/l302.exe)
 NPDir=0 NMtPBC=     1 NCelOv=     1 NCel=       1 NClECP=     1 NCelD=      1
         NCelK=      1 NCelE2=     1 NClLst=     1 CellRange=     0.0.
 One-electron integrals computed using PRISM.
 NBasis=   234 RedAO= T EigKep=  1.27D-05  NBF=   156    78
 NBsUse=   234 1.00D-06 EigRej= -1.00D+00 NBFU=   156    78
 Precomputing XC quadrature grid using
 IXCGrd= 4 IRadAn=           0 IRanWt=          -1 IRanGd=           0 AccXCQ= 0.00D+00.
 Generated NRdTot=       0 NPtTot=           0 NUsed=           0 NTot=          32
 NSgBfM=   270   270   270   270   270 MxSgAt=     6 MxSgA2=     6.
 Leave Link  302 at Tue Aug 16 17:36:08 2016, MaxMem=    33554432 cpu:         0.4
 (Enter /home/proyectos/fulerenos/M3C-v2.0/M3C-deps_CCC/g09-AM64L-G09RevC.01/l303.exe)
 DipDrv:  MaxL=1.
 Leave Link  303 at Tue Aug 16 17:36:08 2016, MaxMem=    33554432 cpu:         0.2
 (Enter /home/proyectos/fulerenos/M3C-v2.0/M3C-deps_CCC/g09-AM64L-G09RevC.01/l401.exe)
 ExpMin= 4.38D-02 ExpMax= 6.29D+03 ExpMxC= 9.49D+02 IAcc=2 IRadAn=         4 AccDes= 0.00D+00
 Harris functional with IExCor=  402 and IRadAn=       4 diagonalized for initial guess.
 HarFok:  IExCor=  402 AccDes= 0.00D+00 IRadAn=         4 IDoV= 1 UseB2=F ITyADJ=14
 ICtDFT=  3500011 ScaDFX=  1.000000  1.000000  1.000000  1.000000
 FoFCou: FMM=F IPFlag=           0 FMFlag=      100000 FMFlg1=           0
         NFxFlg=           0 DoJE=T BraDBF=F KetDBF=T FulRan=T
         wScrn=  0.000000 ICntrl=     500 IOpCl=  0 I1Cent=   200000004 NGrid=           0
         NMat0=    1 NMatS0=      1 NMatT0=    0 NMatD0=    1 NMtDS0=    0 NMtDT0=    0
 Petite list used in FoFCou.
 Harris En= -244.575493052047    
 JPrj=0 DoOrth=F DoCkMO=F.
 Initial guess orbital symmetries:
 Alpha Orbitals:
       Occupied  (A') (A') (A') (A') (A') (A') (A') (A') (A') (A')
                 (A') (A') (A") (A') (A') (A") (A') (A") (A')
       Virtual   (A') (A") (A") (A') (A") (A') (A') (A') (A") (A')
                 (A') (A') (A') (A") (A") (A') (A') (A') (A") (A')
                 (A") (A') (A') (A') (A') (A") (A') (A') (A') (A')
                 (A') (A') (A') (A") (A') (A') (A") (A') (A') (A')
                 (A") (A') (A") (A') (A") (A') (A") (A') (A") (A')
                 (A') (A") (A') (A') (A") (A') (A") (A') (A') (A")
                 (A') (A') (A") (A') (A") (A') (A') (A") (A') (A")
                 (A') (A') (A") (A') (A") (A') (A') (A") (A') (A')
                 (A') (A') (A') (A') (A") (A') (A") (A') (A') (A')
                 (A") (A') (A') (A") (A") (A') (A') (A") (A') (A')
                 (A") (A') (A") (A') (A') (A') (A") (A') (A') (A')
                 (A') (A") (A') (A") (A") (A') (A") (A') (A") (A")
                 (A') (A") (A') (A') (A") (A") (A') (A') (A") (A")
                 (A') (A') (A") (A') (A") (A') (A") (A') (A") (A')
                 (A') (A') (A") (A') (A') (A") (A') (A') (A") (A')
                 (A') (A') (A') (A') (A") (A') (A') (A") (A") (A')
                 (A") (A') (A') (A') (A") (A') (A') (A") (A') (A')
                 (A") (A") (A') (A') (A") (A') (A') (A') (A') (A")
                 (A') (A") (A") (A') (A") (A') (A") (A') (A") (A")
                 (A') (A') (A") (A') (A") (A') (A") (A') (A') (A')
                 (A') (A') (A') (A') (A") (A') (A") (A') (A') (A')
                 (A') (A') (A') (A') (A')
 Beta  Orbitals:
       Occupied  (A') (A') (A') (A') (A') (A') (A') (A') (A') (A')
                 (A') (A') (A") (A') (A') (A") (A')
       Virtual   (A") (A') (A') (A") (A") (A') (A") (A') (A') (A')
                 (A") (A') (A') (A') (A') (A") (A") (A') (A') (A')
                 (A") (A') (A") (A') (A') (A') (A') (A") (A') (A')
                 (A') (A') (A') (A') (A') (A") (A') (A') (A") (A')
                 (A') (A') (A") (A') (A") (A') (A") (A') (A") (A')
                 (A") (A') (A') (A") (A') (A') (A") (A') (A") (A')
                 (A') (A") (A') (A') (A") (A') (A") (A') (A') (A")
                 (A') (A") (A') (A') (A") (A') (A") (A') (A') (A")
                 (A') (A') (A') (A') (A') (A') (A") (A') (A") (A')
                 (A') (A') (A") (A') (A') (A") (A") (A') (A') (A")
                 (A') (A') (A") (A') (A") (A') (A') (A') (A") (A')
                 (A') (A') (A') (A") (A') (A") (A") (A') (A") (A')
                 (A") (A") (A') (A") (A') (A') (A") (A") (A') (A')
                 (A") (A") (A') (A') (A") (A') (A") (A') (A") (A')
                 (A") (A') (A') (A') (A") (A') (A') (A") (A') (A')
                 (A") (A') (A') (A') (A') (A') (A") (A') (A') (A")
                 (A") (A') (A") (A') (A') (A') (A") (A') (A') (A")
                 (A') (A') (A") (A") (A') (A') (A") (A') (A') (A')
                 (A') (A") (A') (A") (A") (A') (A") (A') (A") (A')
                 (A") (A") (A') (A') (A") (A') (A") (A') (A") (A')
                 (A') (A') (A') (A') (A') (A') (A") (A') (A") (A')
                 (A') (A') (A') (A') (A') (A') (A')
 The electronic state of the initial guess is 3-A".
 Initial guess <Sx>= 0.0000 <Sy>= 0.0000 <Sz>= 1.0000 <S**2>= 2.0000 S= 1.0000
 Leave Link  401 at Tue Aug 16 17:36:14 2016, MaxMem=    33554432 cpu:         2.6
 (Enter /home/proyectos/fulerenos/M3C-v2.0/M3C-deps_CCC/g09-AM64L-G09RevC.01/l502.exe)
 UHF open shell SCF:
 Using DIIS extrapolation, IDIIS=  1040.
 Integral symmetry usage will be decided dynamically.
 IVT=      240848 IEndB=      240848 NGot=    33554432 MDV=    33403395
 LenX=    33403395 LenY=    33330054
 Requested convergence on RMS density matrix=1.00D-08 within 128 cycles.
 Requested convergence on MAX density matrix=1.00D-06.
 Requested convergence on             energy=1.00D-06.
 No special actions if energy rises.
 Fock matrices will be formed incrementally for  20 cycles.

 Cycle   1  Pass 1  IDiag  1:
 FoFJK:  IHMeth= 1 ICntrl=       0 DoSepK=F KAlg= 0 I1Cent=   0 FoldK=F
 IRaf= 990000000 NMat=   1 IRICut=       1 DoRegI=T DoRafI=F ISym2E= 1.
 FoFCou: FMM=F IPFlag=           0 FMFlag=      100000 FMFlg1=           0
         NFxFlg=           0 DoJE=F BraDBF=F KetDBF=F FulRan=T
         wScrn=  0.000000 ICntrl=       0 IOpCl=  1 I1Cent=           0 NGrid=           0
         NMat0=    1 NMatS0=      1 NMatT0=    0 NMatD0=    1 NMtDS0=    0 NMtDT0=    0
 Petite list used in FoFCou.
 E= -244.379335880071    
 DIIS: error= 3.17D-02 at cycle   1 NSaved=   1.
 NSaved= 1 IEnMin= 1 EnMin= -244.379335880071     IErMin= 1 ErrMin= 3.17D-02
 ErrMax= 3.17D-02  0.00D+00 EMaxC= 1.00D-01 BMatC= 4.95D-01 BMatP= 4.95D-01
 IDIUse=3 WtCom= 6.83D-01 WtEn= 3.17D-01
 Coeff-Com:  0.100D+01
 Coeff-En:   0.100D+01
 Coeff:      0.100D+01
 Gap=     0.185 Goal=   None    Shift=    0.000
 Gap=     0.001 Goal=   None    Shift=    0.000
 GapD=    0.001 DampG=0.250 DampE=0.500 DampFc=0.2500 IDamp=-1.
 Damping current iteration by 2.50D-01
 RMSDP=1.29D-02 MaxDP=1.44D+00              OVMax= 7.72D-01

 Cycle   2  Pass 1  IDiag  1:
 RMSU=  2.68D-03    CP:  9.10D-01
 E= -244.415242717423     Delta-E=       -0.035906837352 Rises=F Damp=T
 DIIS: error= 7.61D-03 at cycle   2 NSaved=   2.
 NSaved= 2 IEnMin= 2 EnMin= -244.415242717423     IErMin= 2 ErrMin= 7.61D-03
 ErrMax= 7.61D-03  0.00D+00 EMaxC= 1.00D-01 BMatC= 7.29D-02 BMatP= 4.95D-01
 IDIUse=3 WtCom= 9.24D-01 WtEn= 7.61D-02
 Coeff-Com: -0.140D+00 0.114D+01
 Coeff-En:   0.237D+00 0.763D+00
 Coeff:     -0.111D+00 0.111D+01
 Gap=     0.127 Goal=   None    Shift=    0.000
 Gap=     0.042 Goal=   None    Shift=    0.000
 RMSDP=3.19D-03 MaxDP=1.59D-01 DE=-3.59D-02 OVMax= 5.48D-01

 Cycle   3  Pass 1  IDiag  1:
 RMSU=  3.15D-03    CP:  8.98D-01  1.14D+00
 E= -244.504302069465     Delta-E=       -0.089059352042 Rises=F Damp=F
 DIIS: error= 7.22D-03 at cycle   3 NSaved=   3.
 NSaved= 3 IEnMin= 3 EnMin= -244.504302069465     IErMin= 3 ErrMin= 7.22D-03
 ErrMax= 7.22D-03  0.00D+00 EMaxC= 1.00D-01 BMatC= 2.37D-02 BMatP= 7.29D-02
 IDIUse=3 WtCom= 9.28D-01 WtEn= 7.22D-02
 Coeff-Com: -0.199D+00 0.399D+00 0.800D+00
 Coeff-En:   0.000D+00 0.000D+00 0.100D+01
 Coeff:     -0.184D+00 0.370D+00 0.814D+00
 Gap=     0.160 Goal=   None    Shift=    0.000
 Gap=     0.073 Goal=   None    Shift=    0.000
 RMSDP=1.42D-03 MaxDP=1.19D-01 DE=-8.91D-02 OVMax= 6.34D-02

 Cycle   4  Pass 1  IDiag  1:
 RMSU=  1.05D-03    CP:  8.63D-01  1.40D+00  9.88D-01
 E= -244.508525396073     Delta-E=       -0.004223326607 Rises=F Damp=F
 DIIS: error= 8.11D-03 at cycle   4 NSaved=   4.
 NSaved= 4 IEnMin= 4 EnMin= -244.508525396073     IErMin= 3 ErrMin= 7.22D-03
 ErrMax= 8.11D-03  0.00D+00 EMaxC= 1.00D-01 BMatC= 1.56D-02 BMatP= 2.37D-02
 IDIUse=3 WtCom= 9.19D-01 WtEn= 8.11D-02
 Coeff-Com: -0.130D+00 0.221D+00 0.574D+00 0.335D+00
 Coeff-En:   0.000D+00 0.000D+00 0.284D+00 0.716D+00
 Coeff:     -0.119D+00 0.203D+00 0.551D+00 0.366D+00
 Gap=     0.142 Goal=   None    Shift=    0.000
 Gap=     0.075 Goal=   None    Shift=    0.000
 RMSDP=6.23D-04 MaxDP=5.34D-02 DE=-4.22D-03 OVMax= 3.78D-02

 Cycle   5  Pass 1  IDiag  1:
 RMSU=  5.11D-04    CP:  8.59D-01  1.49D+00  1.00D+00  7.74D-01
 E= -244.512364519587     Delta-E=       -0.003839123515 Rises=F Damp=F
 DIIS: error= 2.66D-03 at cycle   5 NSaved=   5.
 NSaved= 5 IEnMin= 5 EnMin= -244.512364519587     IErMin= 5 ErrMin= 2.66D-03
 ErrMax= 2.66D-03  0.00D+00 EMaxC= 1.00D-01 BMatC= 2.69D-03 BMatP= 1.56D-02
 IDIUse=3 WtCom= 9.73D-01 WtEn= 2.66D-02
 Coeff-Com:  0.119D-01-0.407D-01 0.163D-01 0.288D+00 0.724D+00
 Coeff-En:   0.000D+00 0.000D+00 0.000D+00 0.156D+00 0.844D+00
 Coeff:      0.116D-01-0.396D-01 0.158D-01 0.285D+00 0.727D+00
 Gap=     0.149 Goal=   None    Shift=    0.000
 Gap=     0.077 Goal=   None    Shift=    0.000
 RMSDP=4.02D-04 MaxDP=2.97D-02 DE=-3.84D-03 OVMax= 2.47D-02

 Cycle   6  Pass 1  IDiag  1:
 RMSU=  2.92D-04    CP:  8.56D-01  1.49D+00  1.03D+00  1.02D+00  1.02D+00
 E= -244.513539457742     Delta-E=       -0.001174938155 Rises=F Damp=F
 DIIS: error= 5.48D-04 at cycle   6 NSaved=   6.
 NSaved= 6 IEnMin= 6 EnMin= -244.513539457742     IErMin= 6 ErrMin= 5.48D-04
 ErrMax= 5.48D-04  0.00D+00 EMaxC= 1.00D-01 BMatC= 1.83D-04 BMatP= 2.69D-03
 IDIUse=3 WtCom= 9.95D-01 WtEn= 5.48D-03
 Coeff-Com:  0.176D-01-0.269D-01-0.411D-01 0.172D-01 0.968D-01 0.936D+00
 Coeff-En:   0.000D+00 0.000D+00 0.000D+00 0.000D+00 0.000D+00 0.100D+01
 Coeff:      0.175D-01-0.268D-01-0.409D-01 0.171D-01 0.962D-01 0.937D+00
 Gap=     0.150 Goal=   None    Shift=    0.000
 Gap=     0.078 Goal=   None    Shift=    0.000
 RMSDP=2.54D-04 MaxDP=2.34D-02 DE=-1.17D-03 OVMax= 1.70D-02

 Cycle   7  Pass 1  IDiag  1:
 RMSU=  1.08D-04    CP:  8.54D-01  1.50D+00  1.04D+00  1.10D+00  1.27D+00
                    CP:  1.56D+00
 E= -244.513763312312     Delta-E=       -0.000223854569 Rises=F Damp=F
 DIIS: error= 6.24D-04 at cycle   7 NSaved=   7.
 NSaved= 7 IEnMin= 7 EnMin= -244.513763312312     IErMin= 6 ErrMin= 5.48D-04
 ErrMax= 6.24D-04  0.00D+00 EMaxC= 1.00D-01 BMatC= 2.38D-04 BMatP= 1.83D-04
 IDIUse=3 WtCom= 9.95D-01 WtEn= 5.48D-03
 Coeff-Com:  0.978D-02-0.754D-02-0.164D-01-0.823D-01-0.231D+00 0.708D+00
 Coeff-Com:  0.619D+00
 Coeff-En:   0.000D+00 0.000D+00 0.000D+00 0.000D+00 0.000D+00 0.000D+00
 Coeff-En:   0.100D+01
 Coeff:      0.973D-02-0.750D-02-0.163D-01-0.818D-01-0.230D+00 0.704D+00
 Coeff:      0.621D+00
 Gap=     0.152 Goal=   None    Shift=    0.000
 Gap=     0.078 Goal=   None    Shift=    0.000
 RMSDP=1.99D-04 MaxDP=1.79D-02 DE=-2.24D-04 OVMax= 1.20D-02

 Cycle   8  Pass 1  IDiag  1:
 RMSU=  6.26D-05    CP:  8.53D-01  1.50D+00  1.05D+00  1.17D+00  1.45D+00
                    CP:  2.02D+00  1.44D+00
 E= -244.513920482042     Delta-E=       -0.000157169731 Rises=F Damp=F
 DIIS: error= 2.36D-04 at cycle   8 NSaved=   8.
 NSaved= 8 IEnMin= 8 EnMin= -244.513920482042     IErMin= 8 ErrMin= 2.36D-04
 ErrMax= 2.36D-04  0.00D+00 EMaxC= 1.00D-01 BMatC= 4.56D-05 BMatP= 1.83D-04
 IDIUse=3 WtCom= 9.98D-01 WtEn= 2.36D-03
 Coeff-Com: -0.134D-02 0.654D-02 0.255D-01-0.992D-02-0.122D+00-0.192D+00
 Coeff-Com:  0.121D+00 0.117D+01
 Coeff-En:   0.000D+00 0.000D+00 0.000D+00 0.000D+00 0.000D+00 0.000D+00
 Coeff-En:   0.000D+00 0.100D+01
 Coeff:     -0.133D-02 0.652D-02 0.255D-01-0.989D-02-0.122D+00-0.192D+00
 Coeff:      0.120D+00 0.117D+01
 Gap=     0.154 Goal=   None    Shift=    0.000
 Gap=     0.078 Goal=   None    Shift=    0.000
 RMSDP=2.22D-04 MaxDP=2.42D-02 DE=-1.57D-04 OVMax= 1.26D-02

 Cycle   9  Pass 1  IDiag  1:
 RMSU=  3.60D-05    CP:  8.53D-01  1.49D+00  1.06D+00  1.22D+00  1.66D+00
                    CP:  2.53D+00  2.30D+00  1.87D+00
 E= -244.514001866719     Delta-E=       -0.000081384676 Rises=F Damp=F
 DIIS: error= 2.03D-04 at cycle   9 NSaved=   9.
 NSaved= 9 IEnMin= 9 EnMin= -244.514001866719     IErMin= 9 ErrMin= 2.03D-04
 ErrMax= 2.03D-04  0.00D+00 EMaxC= 1.00D-01 BMatC= 1.84D-05 BMatP= 4.56D-05
 IDIUse=3 WtCom= 9.98D-01 WtEn= 2.03D-03
 Coeff-Com: -0.293D-02 0.446D-02 0.253D-01 0.247D-01-0.168D-01-0.293D+00
 Coeff-Com: -0.990D-01 0.536D+00 0.821D+00
 Coeff-En:   0.000D+00 0.000D+00 0.000D+00 0.000D+00 0.000D+00 0.000D+00
 Coeff-En:   0.000D+00 0.000D+00 0.100D+01
 Coeff:     -0.292D-02 0.445D-02 0.252D-01 0.247D-01-0.168D-01-0.292D+00
 Coeff:     -0.988D-01 0.535D+00 0.821D+00
 Gap=     0.155 Goal=   None    Shift=    0.000
 Gap=     0.078 Goal=   None    Shift=    0.000
 RMSDP=1.27D-04 MaxDP=1.28D-02 DE=-8.14D-05 OVMax= 7.83D-03

 Cycle  10  Pass 1  IDiag  1:
 RMSU=  1.79D-05    CP:  8.53D-01  1.50D+00  1.06D+00  1.25D+00  1.77D+00
                    CP:  2.79D+00  2.89D+00  2.40D+00  1.59D+00
 E= -244.514027097385     Delta-E=       -0.000025230666 Rises=F Damp=F
 DIIS: error= 1.83D-04 at cycle  10 NSaved=  10.
 NSaved=10 IEnMin=10 EnMin= -244.514027097385     IErMin=10 ErrMin= 1.83D-04
 ErrMax= 1.83D-04  0.00D+00 EMaxC= 1.00D-01 BMatC= 9.94D-06 BMatP= 1.84D-05
 IDIUse=3 WtCom= 9.98D-01 WtEn= 1.83D-03
 Coeff-Com: -0.282D-03 0.157D-03 0.860D-02 0.191D-01 0.160D-01-0.866D-01
 Coeff-Com: -0.847D-01-0.186D+00 0.540D+00 0.774D+00
 Coeff-En:   0.000D+00 0.000D+00 0.000D+00 0.000D+00 0.000D+00 0.000D+00
 Coeff-En:   0.000D+00 0.000D+00 0.000D+00 0.100D+01
 Coeff:     -0.281D-03 0.157D-03 0.858D-02 0.191D-01 0.160D-01-0.865D-01
 Coeff:     -0.845D-01-0.186D+00 0.539D+00 0.774D+00
 Gap=     0.156 Goal=   None    Shift=    0.000
 Gap=     0.078 Goal=   None    Shift=    0.000
 RMSDP=9.19D-05 MaxDP=9.91D-03 DE=-2.52D-05 OVMax= 5.35D-03

 Cycle  11  Pass 1  IDiag  1:
 RMSU=  3.06D-05    CP:  8.53D-01  1.49D+00  1.07D+00  1.26D+00  1.85D+00
                    CP:  2.99D+00  3.00D+00  2.80D+00  2.23D+00  1.33D+00
 E= -244.514038121752     Delta-E=       -0.000011024367 Rises=F Damp=F
 DIIS: error= 7.00D-05 at cycle  11 NSaved=  11.
 NSaved=11 IEnMin=11 EnMin= -244.514038121752     IErMin=11 ErrMin= 7.00D-05
 ErrMax= 7.00D-05  0.00D+00 EMaxC= 1.00D-01 BMatC= 2.47D-06 BMatP= 9.94D-06
 IDIUse=1 WtCom= 1.00D+00 WtEn= 0.00D+00
 Coeff-Com:  0.172D-02-0.254D-02-0.161D-02-0.157D-02-0.754D-02 0.636D-01
 Coeff-Com:  0.280D-01-0.206D+00-0.142D+00 0.165D+00 0.110D+01
 Coeff:      0.172D-02-0.254D-02-0.161D-02-0.157D-02-0.754D-02 0.636D-01
 Coeff:      0.280D-01-0.206D+00-0.142D+00 0.165D+00 0.110D+01
 Gap=     0.156 Goal=   None    Shift=    0.000
 Gap=     0.078 Goal=   None    Shift=    0.000
 RMSDP=6.31D-05 MaxDP=6.95D-03 DE=-1.10D-05 OVMax= 3.85D-03

 Cycle  12  Pass 1  IDiag  1:
 RMSU=  3.76D-05    CP:  8.53D-01  1.49D+00  1.07D+00  1.27D+00  1.90D+00
                    CP:  3.00D+00  3.00D+00  3.00D+00  2.77D+00  1.86D+00
                    CP:  1.90D+00
 E= -244.514041457753     Delta-E=       -0.000003336001 Rises=F Damp=F
 DIIS: error= 5.14D-05 at cycle  12 NSaved=  12.
 NSaved=12 IEnMin=12 EnMin= -244.514041457753     IErMin=12 ErrMin= 5.14D-05
 ErrMax= 5.14D-05  0.00D+00 EMaxC= 1.00D-01 BMatC= 6.72D-07 BMatP= 2.47D-06
 IDIUse=1 WtCom= 1.00D+00 WtEn= 0.00D+00
 Coeff-Com:  0.131D-02-0.167D-02-0.179D-02-0.597D-02-0.131D-01 0.548D-01
 Coeff-Com:  0.499D-01-0.390D-01-0.222D+00-0.143D+00 0.475D+00 0.846D+00
 Coeff:      0.131D-02-0.167D-02-0.179D-02-0.597D-02-0.131D-01 0.548D-01
 Coeff:      0.499D-01-0.390D-01-0.222D+00-0.143D+00 0.475D+00 0.846D+00
 Gap=     0.156 Goal=   None    Shift=    0.000
 Gap=     0.078 Goal=   None    Shift=    0.000
 RMSDP=2.25D-05 MaxDP=2.49D-03 DE=-3.34D-06 OVMax= 1.30D-03

 Cycle  13  Pass 1  IDiag  1:
 RMSU=  5.39D-06    CP:  8.53D-01  1.49D+00  1.07D+00  1.28D+00  1.92D+00
                    CP:  3.00D+00  3.00D+00  3.00D+00  2.99D+00  2.10D+00
                    CP:  2.26D+00  1.37D+00
 E= -244.514042000322     Delta-E=       -0.000000542569 Rises=F Damp=F
 DIIS: error= 1.75D-05 at cycle  13 NSaved=  13.
 NSaved=13 IEnMin=13 EnMin= -244.514042000322     IErMin=13 ErrMin= 1.75D-05
 ErrMax= 1.75D-05  0.00D+00 EMaxC= 1.00D-01 BMatC= 1.68D-07 BMatP= 6.72D-07
 IDIUse=1 WtCom= 1.00D+00 WtEn= 0.00D+00
 Coeff-Com:  0.372D-03-0.304D-03 0.736D-04-0.321D-02-0.684D-02 0.166D-01
 Coeff-Com:  0.263D-01 0.147D-01-0.960D-01-0.115D+00 0.367D-01 0.512D+00
 Coeff-Com:  0.615D+00
 Coeff:      0.372D-03-0.304D-03 0.736D-04-0.321D-02-0.684D-02 0.166D-01
 Coeff:      0.263D-01 0.147D-01-0.960D-01-0.115D+00 0.367D-01 0.512D+00
 Coeff:      0.615D+00
 Gap=     0.156 Goal=   None    Shift=    0.000
 Gap=     0.078 Goal=   None    Shift=    0.000
 RMSDP=7.64D-06 MaxDP=7.76D-04 DE=-5.43D-07 OVMax= 4.87D-04

 Cycle  14  Pass 1  IDiag  1:
 RMSU=  2.96D-06    CP:  8.53D-01  1.49D+00  1.07D+00  1.28D+00  1.93D+00
                    CP:  3.00D+00  3.00D+00  3.00D+00  3.00D+00  2.20D+00
                    CP:  2.38D+00  1.49D+00  1.15D+00
 E= -244.514042090754     Delta-E=       -0.000000090433 Rises=F Damp=F
 DIIS: error= 6.93D-06 at cycle  14 NSaved=  14.
 NSaved=14 IEnMin=14 EnMin= -244.514042090754     IErMin=14 ErrMin= 6.93D-06
 ErrMax= 6.93D-06  0.00D+00 EMaxC= 1.00D-01 BMatC= 1.99D-08 BMatP= 1.68D-07
 IDIUse=1 WtCom= 1.00D+00 WtEn= 0.00D+00
 Coeff-Com: -0.116D-03 0.139D-03 0.476D-03 0.355D-03 0.138D-02-0.803D-02
 Coeff-Com: -0.142D-02 0.841D-02 0.307D-01 0.117D-02-0.106D+00-0.629D-01
 Coeff-Com:  0.220D+00 0.916D+00
 Coeff:     -0.116D-03 0.139D-03 0.476D-03 0.355D-03 0.138D-02-0.803D-02
 Coeff:     -0.142D-02 0.841D-02 0.307D-01 0.117D-02-0.106D+00-0.629D-01
 Coeff:      0.220D+00 0.916D+00
 Gap=     0.156 Goal=   None    Shift=    0.000
 Gap=     0.078 Goal=   None    Shift=    0.000
 RMSDP=2.43D-06 MaxDP=2.18D-04 DE=-9.04D-08 OVMax= 1.75D-04

 Cycle  15  Pass 1  IDiag  1:
 RMSU=  8.36D-07    CP:  8.53D-01  1.49D+00  1.07D+00  1.28D+00  1.93D+00
                    CP:  3.00D+00  3.00D+00  3.00D+00  3.00D+00  2.21D+00
                    CP:  2.41D+00  1.52D+00  1.27D+00  1.30D+00
 E= -244.514042104394     Delta-E=       -0.000000013640 Rises=F Damp=F
 DIIS: error= 1.69D-06 at cycle  15 NSaved=  15.
 NSaved=15 IEnMin=15 EnMin= -244.514042104394     IErMin=15 ErrMin= 1.69D-06
 ErrMax= 1.69D-06  0.00D+00 EMaxC= 1.00D-01 BMatC= 1.24D-09 BMatP= 1.99D-08
 IDIUse=1 WtCom= 1.00D+00 WtEn= 0.00D+00
 Coeff-Com: -0.314D-04 0.350D-04-0.710D-05 0.249D-03 0.337D-03-0.118D-02
 Coeff-Com: -0.197D-02-0.382D-02 0.101D-01 0.107D-01 0.276D-02-0.647D-01
 Coeff-Com: -0.792D-01-0.226D-01 0.115D+01
 Coeff:     -0.314D-04 0.350D-04-0.710D-05 0.249D-03 0.337D-03-0.118D-02
 Coeff:     -0.197D-02-0.382D-02 0.101D-01 0.107D-01 0.276D-02-0.647D-01
 Coeff:     -0.792D-01-0.226D-01 0.115D+01
 Gap=     0.156 Goal=   None    Shift=    0.000
 Gap=     0.078 Goal=   None    Shift=    0.000
 RMSDP=1.46D-06 MaxDP=1.45D-04 DE=-1.36D-08 OVMax= 9.79D-05

 Cycle  16  Pass 1  IDiag  1:
 RMSU=  2.03D-07    CP:  8.53D-01  1.49D+00  1.07D+00  1.28D+00  1.93D+00
                    CP:  3.00D+00  3.00D+00  3.00D+00  3.00D+00  2.23D+00
                    CP:  2.43D+00  1.54D+00  1.32D+00  1.46D+00  1.18D+00
 E= -244.514042106173     Delta-E=       -0.000000001779 Rises=F Damp=F
 DIIS: error= 5.24D-07 at cycle  16 NSaved=  16.
 NSaved=16 IEnMin=16 EnMin= -244.514042106173     IErMin=16 ErrMin= 5.24D-07
 ErrMax= 5.24D-07  0.00D+00 EMaxC= 1.00D-01 BMatC= 1.04D-10 BMatP= 1.24D-09
 IDIUse=1 WtCom= 1.00D+00 WtEn= 0.00D+00
 Coeff-Com:  0.124D-04-0.158D-04-0.415D-04-0.358D-04-0.175D-03 0.720D-03
 Coeff-Com:  0.345D-03-0.809D-03-0.301D-02-0.861D-03 0.107D-01 0.679D-02
 Coeff-Com: -0.254D-01-0.784D-01-0.313D-01 0.112D+01
 Coeff:      0.124D-04-0.158D-04-0.415D-04-0.358D-04-0.175D-03 0.720D-03
 Coeff:      0.345D-03-0.809D-03-0.301D-02-0.861D-03 0.107D-01 0.679D-02
 Coeff:     -0.254D-01-0.784D-01-0.313D-01 0.112D+01
 Gap=     0.156 Goal=   None    Shift=    0.000
 Gap=     0.078 Goal=   None    Shift=    0.000
 RMSDP=3.32D-07 MaxDP=2.92D-05 DE=-1.78D-09 OVMax= 2.26D-05

 Cycle  17  Pass 1  IDiag  1:
 RMSU=  6.57D-08    CP:  8.53D-01  1.49D+00  1.07D+00  1.28D+00  1.93D+00
                    CP:  3.00D+00  3.00D+00  3.00D+00  3.00D+00  2.23D+00
                    CP:  2.44D+00  1.55D+00  1.33D+00  1.49D+00  1.24D+00
                    CP:  1.30D+00
 E= -244.514042106312     Delta-E=       -0.000000000138 Rises=F Damp=F
 DIIS: error= 1.81D-07 at cycle  17 NSaved=  17.
 NSaved=17 IEnMin=17 EnMin= -244.514042106312     IErMin=17 ErrMin= 1.81D-07
 ErrMax= 1.81D-07  0.00D+00 EMaxC= 1.00D-01 BMatC= 1.54D-11 BMatP= 1.04D-10
 IDIUse=1 WtCom= 1.00D+00 WtEn= 0.00D+00
 Coeff-Com:  0.565D-05-0.679D-05 0.384D-05-0.379D-04-0.336D-04 0.178D-03
 Coeff-Com:  0.298D-03 0.312D-03-0.118D-02-0.145D-02 0.519D-03 0.872D-02
 Coeff-Com:  0.867D-02 0.250D-02-0.153D+00 0.354D-01 0.110D+01
 Coeff:      0.565D-05-0.679D-05 0.384D-05-0.379D-04-0.336D-04 0.178D-03
 Coeff:      0.298D-03 0.312D-03-0.118D-02-0.145D-02 0.519D-03 0.872D-02
 Coeff:      0.867D-02 0.250D-02-0.153D+00 0.354D-01 0.110D+01
 Gap=     0.156 Goal=   None    Shift=    0.000
 Gap=     0.078 Goal=   None    Shift=    0.000
 RMSDP=4.96D-08 MaxDP=5.37D-06 DE=-1.38D-10 OVMax= 4.81D-06

 Cycle  18  Pass 1  IDiag  1:
 RMSU=  2.65D-08    CP:  8.53D-01  1.49D+00  1.07D+00  1.28D+00  1.93D+00
                    CP:  3.00D+00  3.00D+00  3.00D+00  3.00D+00  2.23D+00
                    CP:  2.44D+00  1.55D+00  1.33D+00  1.49D+00  1.24D+00
                    CP:  1.43D+00  1.30D+00
 E= -244.514042106325     Delta-E=       -0.000000000013 Rises=F Damp=F
 DIIS: error= 5.93D-08 at cycle  18 NSaved=  18.
 NSaved=18 IEnMin=18 EnMin= -244.514042106325     IErMin=18 ErrMin= 5.93D-08
 ErrMax= 5.93D-08  0.00D+00 EMaxC= 1.00D-01 BMatC= 1.56D-12 BMatP= 1.54D-11
 IDIUse=1 WtCom= 1.00D+00 WtEn= 0.00D+00
 Coeff-Com: -0.237D-05 0.306D-05 0.606D-05 0.443D-05 0.247D-04-0.869D-04
 Coeff-Com: -0.354D-04-0.331D-04 0.528D-03 0.231D-03-0.135D-02-0.139D-02
 Coeff-Com:  0.210D-02 0.815D-02 0.145D-01-0.130D+00-0.765D-01 0.118D+01
 Coeff:     -0.237D-05 0.306D-05 0.606D-05 0.443D-05 0.247D-04-0.869D-04
 Coeff:     -0.354D-04-0.331D-04 0.528D-03 0.231D-03-0.135D-02-0.139D-02
 Coeff:      0.210D-02 0.815D-02 0.145D-01-0.130D+00-0.765D-01 0.118D+01
 Gap=     0.156 Goal=   None    Shift=    0.000
 Gap=     0.078 Goal=   None    Shift=    0.000
 RMSDP=1.73D-08 MaxDP=1.61D-06 DE=-1.31D-11 OVMax= 1.60D-06

 Cycle  19  Pass 1  IDiag  1:
 RMSU=  6.84D-09    CP:  8.53D-01  1.49D+00  1.07D+00  1.28D+00  1.93D+00
                    CP:  3.00D+00  3.00D+00  3.00D+00  3.00D+00  2.23D+00
                    CP:  2.44D+00  1.55D+00  1.33D+00  1.49D+00  1.24D+00
                    CP:  1.46D+00  1.45D+00  1.29D+00
 E= -244.514042106327     Delta-E=       -0.000000000003 Rises=F Damp=F
 DIIS: error= 2.55D-08 at cycle  19 NSaved=  19.
 NSaved=19 IEnMin=19 EnMin= -244.514042106327     IErMin=19 ErrMin= 2.55D-08
 ErrMax= 2.55D-08  0.00D+00 EMaxC= 1.00D-01 BMatC= 1.73D-13 BMatP= 1.56D-12
 IDIUse=1 WtCom= 1.00D+00 WtEn= 0.00D+00
 Coeff-Com: -0.312D-06 0.418D-06-0.241D-05-0.373D-06-0.331D-05 0.137D-04
 Coeff-Com: -0.151D-04-0.393D-04-0.102D-04 0.938D-04 0.204D-03-0.297D-03
 Coeff-Com: -0.112D-02-0.193D-02 0.887D-02 0.222D-01-0.657D-01-0.241D+00
 Coeff-Com:  0.128D+01
 Coeff:     -0.312D-06 0.418D-06-0.241D-05-0.373D-06-0.331D-05 0.137D-04
 Coeff:     -0.151D-04-0.393D-04-0.102D-04 0.938D-04 0.204D-03-0.297D-03
 Coeff:     -0.112D-02-0.193D-02 0.887D-02 0.222D-01-0.657D-01-0.241D+00
 Coeff:      0.128D+01
 Gap=     0.156 Goal=   None    Shift=    0.000
 Gap=     0.078 Goal=   None    Shift=    0.000
 RMSDP=7.56D-09 MaxDP=6.86D-07 DE=-2.84D-12 OVMax= 4.68D-07

 SCF Done:  E(UB3LYP) =  -244.514042106     A.U. after   19 cycles
            NFock= 19  Conv=0.76D-08     -V/T= 2.0040
 <Sx>= 0.0000 <Sy>= 0.0000 <Sz>= 1.0000 <S**2>= 2.0625 S= 1.0207
 <L.S>= 0.000000000000E+00
 KE= 2.435366435926D+02 PE=-8.921329717038D+02 EE= 2.370943916402D+02
 Annihilation of the first spin contaminant:
 S**2 before annihilation     2.0625,   after     2.0011
 Leave Link  502 at Tue Aug 16 17:56:41 2016, MaxMem=    33554432 cpu:      1197.5
 (Enter /home/proyectos/fulerenos/M3C-v2.0/M3C-deps_CCC/g09-AM64L-G09RevC.01/l801.exe)
 DoSCS=F DFT=T ScalE2(SS,OS)=  1.000000  1.000000
 Range of M.O.s used for correlation:     1   234
 NBasis=   234 NAE=    19 NBE=    17 NFC=     0 NFV=     0
 NROrb=    234 NOA=    19 NOB=    17 NVA=   215 NVB=   217

 **** Warning!!: The largest alpha MO coefficient is  0.13632155D+03


 **** Warning!!: The largest beta MO coefficient is  0.14339276D+03


 **** Warning!!: The smallest beta delta epsilon is  0.77930442D-01

 Leave Link  801 at Tue Aug 16 17:56:41 2016, MaxMem=    33554432 cpu:         0.0
 (Enter /home/proyectos/fulerenos/M3C-v2.0/M3C-deps_CCC/g09-AM64L-G09RevC.01/l1101.exe)
 Using compressed storage, NAtomX=     6.
 Will process      7 centers per pass.
 Leave Link 1101 at Tue Aug 16 17:56:42 2016, MaxMem=    33554432 cpu:         0.5
 (Enter /home/proyectos/fulerenos/M3C-v2.0/M3C-deps_CCC/g09-AM64L-G09RevC.01/l1102.exe)
 Symmetrizing basis deriv contribution to polar:
 IMax=3 JMax=2 DiffMx= 0.00D+00
 Leave Link 1102 at Tue Aug 16 17:56:42 2016, MaxMem=    33554432 cpu:         0.1
 (Enter /home/proyectos/fulerenos/M3C-v2.0/M3C-deps_CCC/g09-AM64L-G09RevC.01/l1110.exe)
 Forming Gx(P) for the SCF density, NAtomX=     6.
 Integral derivatives from FoFJK, PRISM(SPDF).
 Do as many integral derivatives as possible in FoFJK.
 G2DrvN: MDV=      33554280.
 G2DrvN: will do     7 centers at a time, making    1 passes.
 Calling FoFCou, ICntrl=  3107 FMM=F I1Cent=   0 AccDes= 0.00D+00.
 FoFJK:  IHMeth= 1 ICntrl=    3107 DoSepK=F KAlg= 0 I1Cent=   0 FoldK=F
 IRaf=         0 NMat=   1 IRICut=       1 DoRegI=T DoRafI=F ISym2E= 1.
 FoFCou: FMM=F IPFlag=           0 FMFlag=      100000 FMFlg1=           0
         NFxFlg=           0 DoJE=F BraDBF=F KetDBF=F FulRan=T
         wScrn=  0.000000 ICntrl=    3107 IOpCl=  1 I1Cent=           0 NGrid=           0
         NMat0=    1 NMatS0=      1 NMatT0=    0 NMatD0=    1 NMtDS0=    0 NMtDT0=    0
 Petite list used in FoFCou.
 End of G2Drv F.D. properties file   721 does not exist.
 End of G2Drv F.D. properties file   722 does not exist.
 End of G2Drv F.D. properties file   788 does not exist.
 Leave Link 1110 at Tue Aug 16 18:05:11 2016, MaxMem=    33554432 cpu:       508.8
 (Enter /home/proyectos/fulerenos/M3C-v2.0/M3C-deps_CCC/g09-AM64L-G09RevC.01/l1002.exe)
 Minotr:  UHF open shell wavefunction.
          IDoAtm=111111
          Direct CPHF calculation.
          Differentiating once with respect to electric field.
                with respect to dipole field.
          Differentiating once with respect to nuclear coordinates.
          Using symmetry in CPHF.
          Requested convergence is 1.0D-08 RMS, and 1.0D-07 maximum.
          Secondary convergence is 1.0D-12 RMS, and 1.0D-12 maximum.
          NewPWx=T KeepS1=F KeepF1=F KeepIn=T MapXYZ=F SortEE=F KeepMc=T.
          MDV=      33553900 using IRadAn=       2.
 Generate precomputed XC quadrature information.
          Solving linear equations simultaneously, MaxMat=       0.
 FoFJK:  IHMeth= 1 ICntrl=       0 DoSepK=F KAlg= 0 I1Cent=   0 FoldK=F
 IRaf= 990000000 NMat=  21 IRICut=      52 DoRegI=T DoRafI=T ISym2E= 2.
 FoFCou: FMM=F IPFlag=           0 FMFlag=      100000 FMFlg1=           0
         NFxFlg=           0 DoJE=F BraDBF=F KetDBF=F FulRan=T
         wScrn=  0.000000 ICntrl=       0 IOpCl=  1 I1Cent=           0 NGrid=           0
         NMat0=   21 NMatS0=     21 NMatT0=    0 NMatD0=   21 NMtDS0=    0 NMtDT0=    0
 Integrals replicated using symmetry in FoFCou.
          There are    21 degrees of freedom in the 1st order CPHF.  IDoFFX=6 NUNeed=     3.
     18 vectors produced by pass  0 Test12= 3.70D-14 4.76D-09 XBig12= 2.64D+02 7.94D+00.
 AX will form    18 AO Fock derivatives at one time.
     18 vectors produced by pass  1 Test12= 3.70D-14 4.76D-09 XBig12= 1.18D+02 2.01D+00.
     18 vectors produced by pass  2 Test12= 3.70D-14 4.76D-09 XBig12= 4.45D+00 4.43D-01.
     18 vectors produced by pass  3 Test12= 3.70D-14 4.76D-09 XBig12= 2.07D-01 1.36D-01.
     18 vectors produced by pass  4 Test12= 3.70D-14 4.76D-09 XBig12= 4.55D-03 1.40D-02.
     18 vectors produced by pass  5 Test12= 3.70D-14 4.76D-09 XBig12= 6.02D-05 1.31D-03.
     18 vectors produced by pass  6 Test12= 3.70D-14 4.76D-09 XBig12= 5.83D-07 1.36D-04.
     18 vectors produced by pass  7 Test12= 3.70D-14 4.76D-09 XBig12= 6.05D-09 1.81D-05.
     13 vectors produced by pass  8 Test12= 3.70D-14 4.76D-09 XBig12= 3.48D-11 7.73D-07.
      3 vectors produced by pass  9 Test12= 3.70D-14 4.76D-09 XBig12= 2.93D-13 9.49D-08.
      3 vectors produced by pass 10 Test12= 3.70D-14 4.76D-09 XBig12= 1.09D-13 1.18D-07.
      1 vectors produced by pass 11 Test12= 3.70D-14 4.76D-09 XBig12= 4.47D-15 2.04D-08.
 InvSVY:  IOpt=1 It=  1 EMax= 7.11D-15
 Solved reduced A of dimension   164 with    21 vectors.
 FullF1:  Do perturbations    1 to     3.
 Isotropic polarizability for W=    0.000000       49.83 Bohr**3.
 End of Minotr F.D. properties file   721 does not exist.
 End of Minotr F.D. properties file   722 does not exist.
 End of Minotr F.D. properties file   788 does not exist.
 Leave Link 1002 at Tue Aug 16 18:30:02 2016, MaxMem=    33554432 cpu:      1489.6
 (Enter /home/proyectos/fulerenos/M3C-v2.0/M3C-deps_CCC/g09-AM64L-G09RevC.01/l601.exe)
 Copying SCF densities to generalized density rwf, IOpCl= 1 IROHF=0.

 **********************************************************************

            Population analysis using the SCF density.

 **********************************************************************

 Orbital symmetries:
 Alpha Orbitals:
       Occupied  (A') (A') (A') (A') (A') (A') (A') (A') (A') (A')
                 (A') (A") (A') (A') (A') (A") (A") (A') (A')
       Virtual   (A') (A") (A") (A') (A') (A") (A') (A") (A') (A')
                 (A') (A') (A") (A') (A") (A') (A') (A') (A') (A")
                 (A") (A') (A') (A') (A") (A') (A') (A') (A') (A')
                 (A") (A') (A') (A') (A') (A') (A") (A') (A') (A")
                 (A') (A") (A') (A") (A') (A") (A') (A") (A') (A')
                 (A') (A") (A') (A') (A") (A") (A') (A') (A') (A")
                 (A') (A") (A') (A') (A") (A') (A') (A") (A") (A')
                 (A') (A') (A") (A') (A") (A') (A') (A") (A') (A')
                 (A') (A') (A') (A') (A") (A') (A") (A') (A') (A')
                 (A") (A') (A') (A") (A") (A') (A') (A") (A') (A')
                 (A") (A') (A') (A") (A') (A") (A') (A') (A') (A')
                 (A') (A") (A') (A") (A") (A") (A') (A') (A") (A")
                 (A') (A") (A') (A") (A') (A") (A') (A') (A") (A")
                 (A') (A') (A") (A') (A") (A') (A') (A") (A") (A')
                 (A') (A') (A") (A') (A") (A') (A') (A') (A") (A')
                 (A') (A') (A') (A') (A") (A') (A") (A') (A") (A')
                 (A") (A') (A') (A') (A") (A') (A') (A") (A') (A')
                 (A") (A") (A') (A') (A") (A') (A') (A') (A') (A")
                 (A') (A") (A") (A') (A") (A') (A") (A') (A") (A')
                 (A") (A') (A") (A') (A") (A') (A") (A') (A') (A')
                 (A') (A') (A') (A') (A") (A') (A") (A') (A') (A')
                 (A') (A') (A') (A') (A')
 Beta  Orbitals:
       Occupied  (A') (A') (A') (A') (A') (A') (A') (A') (A') (A')
                 (A') (A') (A") (A') (A") (A') (A')
       Virtual   (A") (A') (A') (A") (A") (A') (A') (A") (A') (A")
                 (A') (A') (A') (A') (A') (A") (A") (A') (A') (A')
                 (A') (A") (A") (A') (A') (A') (A") (A') (A') (A')
                 (A') (A') (A') (A") (A') (A') (A') (A') (A") (A')
                 (A') (A") (A') (A") (A') (A") (A') (A") (A') (A")
                 (A') (A') (A') (A") (A') (A') (A") (A") (A') (A')
                 (A') (A") (A') (A") (A') (A') (A") (A') (A') (A")
                 (A') (A") (A') (A') (A") (A') (A") (A') (A') (A")
                 (A') (A') (A') (A') (A') (A') (A") (A') (A") (A')
                 (A') (A') (A") (A') (A') (A") (A") (A') (A') (A")
                 (A') (A') (A") (A') (A') (A") (A') (A') (A") (A')
                 (A') (A') (A") (A') (A') (A") (A") (A") (A') (A')
                 (A") (A') (A") (A") (A') (A') (A") (A') (A") (A')
                 (A") (A") (A') (A') (A") (A') (A") (A') (A") (A')
                 (A") (A') (A') (A') (A") (A') (A") (A') (A') (A')
                 (A") (A') (A') (A') (A') (A') (A") (A') (A") (A')
                 (A") (A') (A") (A') (A') (A') (A") (A') (A') (A")
                 (A') (A') (A") (A") (A') (A') (A") (A') (A') (A')
                 (A') (A") (A") (A') (A") (A') (A") (A') (A') (A")
                 (A") (A") (A') (A') (A") (A') (A") (A') (A") (A')
                 (A') (A') (A') (A') (A') (A') (A") (A') (A") (A')
                 (A') (A') (A') (A') (A') (A') (A')
 The electronic state is 3-A".
 Alpha  occ. eigenvalues --  -14.71574 -10.60305 -10.57392 -10.57119 -10.55935
 Alpha  occ. eigenvalues --  -10.50598  -1.38391  -1.18707  -1.03206  -0.98181
 Alpha  occ. eigenvalues --   -0.84420  -0.78173  -0.77980  -0.71152  -0.63530
 Alpha  occ. eigenvalues --   -0.62997  -0.55973  -0.55473  -0.53829
 Alpha virt. eigenvalues --   -0.38217  -0.34298  -0.31666  -0.25210  -0.21657
 Alpha virt. eigenvalues --   -0.19747  -0.15726  -0.11558  -0.11481  -0.09445
 Alpha virt. eigenvalues --   -0.08909  -0.08124  -0.06133  -0.06045  -0.05759
 Alpha virt. eigenvalues --   -0.03514  -0.02914  -0.01340  -0.00523  -0.00397
 Alpha virt. eigenvalues --    0.00987   0.01288   0.02511   0.03974   0.04139
 Alpha virt. eigenvalues --    0.05830   0.06788   0.07302   0.08687   0.09028
 Alpha virt. eigenvalues --    0.10776   0.10777   0.12110   0.13729   0.16084
 Alpha virt. eigenvalues --    0.19495   0.19863   0.21551   0.23757   0.24425
 Alpha virt. eigenvalues --    0.24954   0.25563   0.26090   0.26865   0.28528
 Alpha virt. eigenvalues --    0.29036   0.29790   0.32770   0.32939   0.33880
 Alpha virt. eigenvalues --    0.34703   0.36247   0.37375   0.38875   0.39287
 Alpha virt. eigenvalues --    0.39552   0.41166   0.42357   0.45298   0.45474
 Alpha virt. eigenvalues --    0.47961   0.48493   0.49683   0.50830   0.55026
 Alpha virt. eigenvalues --    0.56796   0.59541   0.60074   0.62420   0.62776
 Alpha virt. eigenvalues --    0.63743   0.66569   0.69119   0.71769   0.73873
 Alpha virt. eigenvalues --    0.76002   0.80596   0.83056   0.85504   0.91723
 Alpha virt. eigenvalues --    0.94139   0.98086   1.00650   1.05241   1.05485
 Alpha virt. eigenvalues --    1.07254   1.09500   1.12614   1.17939   1.21814
 Alpha virt. eigenvalues --    1.25530   1.26233   1.28024   1.28555   1.35686
 Alpha virt. eigenvalues --    1.42589   1.44872   1.45987   1.47748   1.51939
 Alpha virt. eigenvalues --    1.56508   1.59161   1.62990   1.64463   1.65548
 Alpha virt. eigenvalues --    1.71616   1.71829   1.79177   1.87914   1.92586
 Alpha virt. eigenvalues --    1.94575   1.94630   2.02604   2.09218   2.11924
 Alpha virt. eigenvalues --    2.17768   2.19620   2.29141   2.32619   2.36190
 Alpha virt. eigenvalues --    2.36727   2.43477   2.45269   2.50663   2.51734
 Alpha virt. eigenvalues --    2.53869   2.53966   2.59234   2.61771   2.63511
 Alpha virt. eigenvalues --    2.67175   2.68075   2.69719   2.70879   2.73487
 Alpha virt. eigenvalues --    2.78408   2.83710   2.83913   2.90371   2.96273
 Alpha virt. eigenvalues --    2.99204   3.02451   3.03198   3.08589   3.09830
 Alpha virt. eigenvalues --    3.11423   3.19902   3.30512   3.32703   3.36412
 Alpha virt. eigenvalues --    3.38315   3.43513   3.48657   3.52542   3.53134
 Alpha virt. eigenvalues --    3.63469   3.67312   3.67679   3.67897   3.77049
 Alpha virt. eigenvalues --    3.81390   3.88851   3.94837   4.04758   4.05054
 Alpha virt. eigenvalues --    4.09868   4.26178   4.28709   4.29307   4.45266
 Alpha virt. eigenvalues --    4.45765   4.67667   4.78456   4.87049   4.98706
 Alpha virt. eigenvalues --    5.10748   5.33398   5.77948   6.13291   6.64709
 Alpha virt. eigenvalues --    6.70469   6.72238   6.76947   6.80820   6.82392
 Alpha virt. eigenvalues --    6.89264   6.92150   6.92731   6.94149   6.98365
 Alpha virt. eigenvalues --    6.99709   7.05387   7.13846   7.19507   7.20512
 Alpha virt. eigenvalues --    7.26331   7.35828   7.47685   7.49575   7.65250
 Alpha virt. eigenvalues --    7.89620   7.96220   8.10599   8.23079  10.03917
 Alpha virt. eigenvalues --   10.20202  10.23699  10.61439  11.37485  23.68395
 Alpha virt. eigenvalues --   24.33436  24.58965  24.99918  25.90021  35.86646
  Beta  occ. eigenvalues --  -14.71202 -10.57900 -10.57183 -10.56667 -10.55813
  Beta  occ. eigenvalues --  -10.49808  -1.37590  -1.17710  -1.00041  -0.97122
  Beta  occ. eigenvalues --   -0.82586  -0.76295  -0.75337  -0.69555  -0.61081
  Beta  occ. eigenvalues --   -0.60755  -0.51989
  Beta virt. eigenvalues --   -0.44195  -0.41076  -0.36326  -0.33110  -0.26311
  Beta virt. eigenvalues --   -0.24294  -0.19177  -0.16634  -0.15270  -0.11150
  Beta virt. eigenvalues --   -0.11147  -0.09061  -0.08589  -0.07702  -0.05831
  Beta virt. eigenvalues --   -0.05698  -0.05543  -0.02999  -0.02822  -0.01205
  Beta virt. eigenvalues --   -0.00143  -0.00125   0.01169   0.01781   0.02865
  Beta virt. eigenvalues --    0.04262   0.04324   0.06186   0.07273   0.07506
  Beta virt. eigenvalues --    0.09288   0.09920   0.11612   0.11706   0.12247
  Beta virt. eigenvalues --    0.14460   0.16857   0.19860   0.20368   0.22231
  Beta virt. eigenvalues --    0.24643   0.25618   0.25943   0.26645   0.26771
  Beta virt. eigenvalues --    0.28331   0.29687   0.29736   0.30320   0.33197
  Beta virt. eigenvalues --    0.33813   0.34368   0.35524   0.37404   0.37891
  Beta virt. eigenvalues --    0.39320   0.39757   0.40888   0.41565   0.43037
  Beta virt. eigenvalues --    0.45927   0.46542   0.48253   0.49734   0.50108
  Beta virt. eigenvalues --    0.51568   0.55357   0.57900   0.59992   0.60824
  Beta virt. eigenvalues --    0.63160   0.63256   0.64352   0.66990   0.69660
  Beta virt. eigenvalues --    0.72398   0.74571   0.76507   0.81446   0.83805
  Beta virt. eigenvalues --    0.85935   0.92360   0.94719   0.99225   1.01725
  Beta virt. eigenvalues --    1.06007   1.07526   1.08745   1.11547   1.13898
  Beta virt. eigenvalues --    1.19188   1.23031   1.26846   1.26952   1.29050
  Beta virt. eigenvalues --    1.30434   1.38303   1.44007   1.46515   1.47903
  Beta virt. eigenvalues --    1.50110   1.53439   1.58648   1.61598   1.65848
  Beta virt. eigenvalues --    1.66226   1.66756   1.72869   1.74963   1.80108
  Beta virt. eigenvalues --    1.89075   1.94663   1.96057   1.96514   2.04395
  Beta virt. eigenvalues --    2.10981   2.13152   2.20060   2.21480   2.30495
  Beta virt. eigenvalues --    2.34334   2.37631   2.38518   2.45582   2.46362
  Beta virt. eigenvalues --    2.53192   2.53838   2.55526   2.55976   2.60722
  Beta virt. eigenvalues --    2.64413   2.65012   2.68246   2.70174   2.70931
  Beta virt. eigenvalues --    2.72477   2.75795   2.79944   2.85650   2.85844
  Beta virt. eigenvalues --    2.93386   2.97775   3.01283   3.03317   3.04502
  Beta virt. eigenvalues --    3.11482   3.12057   3.12935   3.21330   3.31457
  Beta virt. eigenvalues --    3.34065   3.37826   3.39796   3.44338   3.50250
  Beta virt. eigenvalues --    3.53816   3.55036   3.65313   3.68337   3.68627
  Beta virt. eigenvalues --    3.68890   3.78214   3.83022   3.89645   3.96204
  Beta virt. eigenvalues --    4.05222   4.08515   4.10999   4.26847   4.30317
  Beta virt. eigenvalues --    4.31234   4.45949   4.47156   4.68986   4.79729
  Beta virt. eigenvalues --    4.87888   5.00081   5.11795   5.34112   5.78436
  Beta virt. eigenvalues --    6.14695   6.68339   6.73757   6.74274   6.80167
  Beta virt. eigenvalues --    6.82530   6.85102   6.90425   6.94697   6.94872
  Beta virt. eigenvalues --    6.96443   7.01386   7.01508   7.07566   7.15343
  Beta virt. eigenvalues --    7.20110   7.24098   7.28351   7.37706   7.48413
  Beta virt. eigenvalues --    7.52351   7.66548   7.91772   7.97416   8.11367
  Beta virt. eigenvalues --    8.24425  10.04686  10.21016  10.25059  10.62418
  Beta virt. eigenvalues --   11.38189  23.69608  24.33431  24.60662  25.01209
  Beta virt. eigenvalues --   25.90508  35.87057
          Condensed to atoms (all electrons):
               1          2          3          4          5          6
     1  N    7.884679  -0.132989  -0.043034  -0.153601  -0.433344   0.256877
     2  C   -0.132989   8.129233  -0.587005   0.078757  -0.085628  -1.803966
     3  C   -0.043034  -0.587005   7.684398   0.068227  -1.110549  -0.298753
     4  C   -0.153601   0.078757   0.068227   6.770092  -0.048232  -1.087859
     5  C   -0.433344  -0.085628  -1.110549  -0.048232   7.531828   0.009660
     6  C    0.256877  -1.803966  -0.298753  -1.087859   0.009660   8.742650
          Atomic-Atomic Spin Densities.
               1          2          3          4          5          6
     1  N    0.294873  -0.123526   0.029524  -0.398300  -0.035434   0.270083
     2  C   -0.123526   0.457786  -0.096430   0.482533   0.026765  -0.796775
     3  C    0.029524  -0.096430   0.504588  -0.136847   0.013876   0.132974
     4  C   -0.398300   0.482533  -0.136847   2.605366   0.036772  -1.290640
     5  C   -0.035434   0.026765   0.013876   0.036772  -0.070750  -0.029084
     6  C    0.270083  -0.796775   0.132974  -1.290640  -0.029084   2.037155
 Mulliken charges and spin densities:
               1          2
     1  N   -0.378588   0.037220
     2  C    0.401600  -0.049646
     3  C    0.286716   0.447685
     4  C    0.372616   1.298884
     5  C    0.136265  -0.057855
     6  C    0.181391   0.323713
 Sum of Mulliken charges =   1.00000   2.00000
 Mulliken charges and spin densities with hydrogens summed into heavy atoms:
               1          2
     1  N   -0.378588   0.037220
     2  C    0.401600  -0.049646
     3  C    0.286716   0.447685
     4  C    0.372616   1.298884
     5  C    0.136265  -0.057855
     6  C    0.181391   0.323713
 APT charges:
               1
     1  N   -0.163065
     2  C    0.564525
     3  C   -0.164169
     4  C    0.493509
     5  C    0.611894
     6  C   -0.342693
 Sum of APT charges =   1.00000
 APT charges with hydrogens summed into heavy atoms:
               1
     1  N   -0.163065
     2  C    0.564525
     3  C   -0.164169
     4  C    0.493509
     5  C    0.611894
     6  C   -0.342693
 Electronic spatial extent (au):  <R**2>=            306.5720
 Charge=              1.0000 electrons
 Dipole moment (field-independent basis, Debye):
    X=              0.0748    Y=             -0.7313    Z=              0.0000  Tot=              0.7352
 Quadrupole moment (field-independent basis, Debye-Ang):
   XX=            -27.4892   YY=            -26.3778   ZZ=            -29.2832
   XY=              1.6077   XZ=             -0.0000   YZ=              0.0000
 Traceless Quadrupole moment (field-independent basis, Debye-Ang):
   XX=              0.2275   YY=              1.3389   ZZ=             -1.5665
   XY=              1.6077   XZ=             -0.0000   YZ=              0.0000
 Octapole moment (field-independent basis, Debye-Ang**2):
  XXX=              3.4214  YYY=             -3.7826  ZZZ=             -0.0000  XYY=              0.1127
  XXY=             -0.9056  XXZ=              0.0000  XZZ=             -0.4532  YZZ=              1.1328
  YYZ=              0.0000  XYZ=              0.0000
 Hexadecapole moment (field-independent basis, Debye-Ang**3):
 XXXX=           -199.4283 YYYY=           -212.9606 ZZZZ=            -28.6683 XXXY=             52.3192
 XXXZ=             -0.0000 YYYX=             56.8411 YYYZ=              0.0000 ZZZX=             -0.0000
 ZZZY=              0.0000 XXYY=            -72.9161 XXZZ=            -36.4235 YYZZ=            -39.7650
 XXYZ=              0.0000 YYXZ=             -0.0000 ZZXY=             14.8000
 N-N= 1.669878943646D+02 E-N=-8.921329719453D+02  KE= 2.435366435926D+02
 Symmetry A'   KE= 2.368807770356D+02
 Symmetry A"   KE= 6.655866557009D+00
  Exact polarizability:  59.592 -13.507  59.835  -0.000   0.000  30.056
 Approx polarizability: 135.046 -18.079 121.526  -0.000  -0.000  46.651
                          Isotropic Fermi Contact Couplings
        Atom                 a.u.       MegaHertz       Gauss      10(-4) cm-1
     1  N(14)              0.23330      37.68959      13.44858      12.57189
     2  C(13)              0.16092      90.44962      32.27467      30.17075
     3  C(13)              0.08834      49.65403      17.71779      16.56280
     4  C(13)              0.82236     462.24332     164.93991     154.18778
     5  C(13)              0.02865      16.10340       5.74609       5.37152
     6  C(13)              0.57687     324.25595     115.70258     108.16014
 --------------------------------------------------------
       Center         ----  Spin Dipole Couplings  ----
                      3XX-RR        3YY-RR        3ZZ-RR
 --------------------------------------------------------
     1   Atom        0.158119     -0.257962      0.099843
     2   Atom       -0.110277     -0.202622      0.312899
     3   Atom       -0.123522     -0.270756      0.394278
     4   Atom       -0.106940     -0.327637      0.434577
     5   Atom        0.030467     -0.023145     -0.007322
     6   Atom        0.096183      0.105711     -0.201895
 --------------------------------------------------------
                        XY            XZ            YZ
 --------------------------------------------------------
     1   Atom        0.001609     -0.000000     -0.000000
     2   Atom       -0.190900     -0.000000     -0.000000
     3   Atom        0.040270     -0.000000      0.000000
     4   Atom        0.553532     -0.000000     -0.000000
     5   Atom       -0.031742      0.000000      0.000000
     6   Atom       -0.134502      0.000000     -0.000000
 --------------------------------------------------------


 ---------------------------------------------------------------------------------
              Anisotropic Spin Dipole Couplings in Principal Axis System
 ---------------------------------------------------------------------------------

       Atom             a.u.   MegaHertz   Gauss  10(-4) cm-1        Axes

              Baa    -0.2580    -9.949    -3.550    -3.319 -0.0039  1.0000 -0.0000
     1 N(14)  Bbb     0.0998     3.851     1.374     1.284  0.0000  0.0000  1.0000
              Bcc     0.1581     6.099     2.176     2.034  1.0000  0.0039 -0.0000
 
              Baa    -0.3529   -47.350   -16.895   -15.794  0.6184  0.7858 -0.0000
     2 C(13)  Bbb     0.0400     5.362     1.913     1.788  0.7858 -0.6184 -0.0000
              Bcc     0.3129    41.988    14.982    14.006  0.0000  0.0000  1.0000
 
              Baa    -0.2811   -37.714   -13.457   -12.580 -0.2477  0.9688 -0.0000
     3 C(13)  Bbb    -0.1132   -15.194    -5.422    -5.068  0.9688  0.2477  0.0000
              Bcc     0.3943    52.908    18.879    17.648  0.0000  0.0000  1.0000
 
              Baa    -0.7817  -104.898   -37.430   -34.990 -0.6342  0.7731  0.0000
     4 C(13)  Bbb     0.3471    46.582    16.622    15.538  0.7731  0.6342 -0.0000
              Bcc     0.4346    58.316    20.809    19.452  0.0000  0.0000  1.0000
 
              Baa    -0.0379    -5.084    -1.814    -1.696  0.4212  0.9070  0.0000
     5 C(13)  Bbb    -0.0073    -0.983    -0.351    -0.328  0.0000  0.0000  1.0000
              Bcc     0.0452     6.066     2.165     2.024  0.9070 -0.4212  0.0000
 
              Baa    -0.2019   -27.092    -9.667    -9.037  0.0000  0.0000  1.0000
     6 C(13)  Bbb    -0.0336    -4.514    -1.611    -1.506  0.7195  0.6945  0.0000
              Bcc     0.2355    31.606    11.278    10.543 -0.6945  0.7195 -0.0000
 

 ---------------------------------------------------------------------------------

 No NMR shielding tensors so no spin-rotation constants.
 Leave Link  601 at Tue Aug 16 18:30:03 2016, MaxMem=    33554432 cpu:         0.9
 (Enter /home/proyectos/fulerenos/M3C-v2.0/M3C-deps_CCC/g09-AM64L-G09RevC.01/l701.exe)
 Compute integral second derivatives.
 ... and contract with generalized density number  0.
 Leave Link  701 at Tue Aug 16 18:30:04 2016, MaxMem=    33554432 cpu:         0.8
 (Enter /home/proyectos/fulerenos/M3C-v2.0/M3C-deps_CCC/g09-AM64L-G09RevC.01/l702.exe)
 L702 exits ... SP integral derivatives will be done elsewhere.
 Leave Link  702 at Tue Aug 16 18:30:04 2016, MaxMem=    33554432 cpu:         0.0
 (Enter /home/proyectos/fulerenos/M3C-v2.0/M3C-deps_CCC/g09-AM64L-G09RevC.01/l703.exe)
 Compute integral second derivatives, UseDBF=F ICtDFT=           0.
 Integral derivatives from FoFJK, PRISM(SPDF).
 Calling FoFJK, ICntrl=    100127 FMM=F ISym2X=1 I1Cent= 0 IOpClX= 1 NMat=1 NMatS=1 NMatT=0.
 FoFJK:  IHMeth= 1 ICntrl=  100127 DoSepK=F KAlg= 0 I1Cent=   0 FoldK=F
 IRaf=         0 NMat=   1 IRICut=       1 DoRegI=T DoRafI=F ISym2E= 1.
 FoFCou: FMM=F IPFlag=           0 FMFlag=      100000 FMFlg1=         800
         NFxFlg=           0 DoJE=F BraDBF=F KetDBF=F FulRan=T
         wScrn=  0.000000 ICntrl=  100127 IOpCl=  1 I1Cent=           0 NGrid=           0
         NMat0=    1 NMatS0=      1 NMatT0=    0 NMatD0=    1 NMtDS0=    0 NMtDT0=    0
 Petite list used in FoFCou.
 Leave Link  703 at Tue Aug 16 18:41:54 2016, MaxMem=    33554432 cpu:       709.0
 (Enter /home/proyectos/fulerenos/M3C-v2.0/M3C-deps_CCC/g09-AM64L-G09RevC.01/l716.exe)
 Dipole        = 2.94271190D-02-2.87730817D-01 2.54083479D-17
 Polarizability= 5.95915682D+01-1.35071395D+01 5.98354974D+01
                -4.56167679D-08 5.31177637D-08 3.00562625D+01
 Full mass-weighted force constant matrix:
 Low frequencies ---   -4.8904   -3.4482   -0.0004    0.0004    0.0005    8.3449
 Low frequencies ---   94.9106  233.3087  248.2863
 Diagonal vibrational polarizability:
       11.1027617      23.5219916      25.0594751
 Harmonic frequencies (cm**-1), IR intensities (KM/Mole), Raman scattering
 activities (A**4/AMU), depolarization ratios for plane and unpolarized
 incident light, reduced masses (AMU), force constants (mDyne/A),
 and normal coordinates:
                      1                      2                      3
                     A"                     A"                     A'
 Frequencies --     94.9002               233.3061               248.2862
 Red. masses --     12.4623                12.1134                12.1088
 Frc consts  --      0.0661                 0.3885                 0.4398
 IR Inten    --      8.3145                 0.2764                50.1732
  Atom  AN      X      Y      Z        X      Y      Z        X      Y      Z
     1   7    -0.00   0.00  -0.48     0.00  -0.00   0.24    -0.23  -0.01   0.00
     2   6     0.00   0.00  -0.46    -0.00  -0.00  -0.54     0.30   0.49  -0.00
     3   6    -0.00  -0.00   0.05     0.00   0.00   0.66    -0.43  -0.24   0.00
     4   6    -0.00  -0.00  -0.07     0.00   0.00  -0.07    -0.18  -0.22  -0.00
     5   6     0.00   0.00   0.48    -0.00  -0.00  -0.45     0.24   0.23  -0.00
     6   6     0.00  -0.00   0.57    -0.00   0.00   0.12     0.34  -0.24   0.00
                      4                      5                      6
                     A'                     A'                     A"
 Frequencies --    297.5584               503.8972               574.1015
 Red. masses --     12.3048                12.2664                12.5390
 Frc consts  --      0.6419                 1.8351                 2.4350
 IR Inten    --     13.9771                12.4026                 0.9547
  Atom  AN      X      Y      Z        X      Y      Z        X      Y      Z
     1   7    -0.12  -0.37  -0.00    -0.36   0.02   0.00     0.00  -0.00  -0.52
     2   6    -0.12  -0.30   0.00    -0.11   0.08  -0.00    -0.00   0.00   0.03
     3   6    -0.21  -0.30  -0.00    -0.02  -0.10  -0.00    -0.00  -0.00   0.37
     4   6     0.05   0.36   0.00     0.83  -0.27  -0.00     0.00   0.00   0.64
     5   6     0.50   0.29   0.00    -0.19   0.16   0.00     0.00  -0.00  -0.01
     6   6    -0.08   0.37   0.00    -0.08   0.10   0.00    -0.00   0.00  -0.42
                      7                      8                      9
                     A'                     A'                     A'
 Frequencies --    692.0622               977.9369              1142.0573
 Red. masses --     12.1585                13.0722                12.2025
 Frc consts  --      3.4310                 7.3658                 9.3772
 IR Inten    --     19.5186                59.3115                94.4311
  Atom  AN      X      Y      Z        X      Y      Z        X      Y      Z
     1   7    -0.27   0.07  -0.00     0.01   0.73  -0.00    -0.26  -0.19   0.00
     2   6     0.15  -0.48  -0.00    -0.12  -0.17   0.00     0.02   0.39   0.00
     3   6     0.34   0.06   0.00     0.03  -0.58  -0.00     0.52  -0.18   0.00
     4   6    -0.21  -0.09   0.00    -0.02   0.04   0.00    -0.00   0.41  -0.00
     5   6    -0.18   0.62  -0.00     0.23  -0.07   0.00     0.08  -0.01  -0.00
     6   6     0.22  -0.20  -0.00    -0.14  -0.08   0.00    -0.32  -0.40  -0.00
                     10                     11                     12
                     A'                     A'                     A'
 Frequencies --   1186.7704              1412.3381              1677.6922
 Red. masses --     12.1222                12.4905                12.0578
 Frc consts  --     10.0593                14.6794                19.9960
 IR Inten    --     14.4934                86.0338               105.3772
  Atom  AN      X      Y      Z        X      Y      Z        X      Y      Z
     1   7    -0.25  -0.03  -0.00     0.47  -0.15  -0.00    -0.15   0.08  -0.00
     2   6    -0.09   0.19  -0.00     0.17   0.20  -0.00     0.73  -0.17  -0.00
     3   6     0.45  -0.05   0.00     0.06  -0.47   0.00    -0.13   0.19   0.00
     4   6    -0.30  -0.50   0.00    -0.08  -0.14   0.00     0.01  -0.09   0.00
     5   6     0.22  -0.13  -0.00    -0.41   0.38   0.00     0.13  -0.10   0.00
     6   6     0.00   0.53   0.00    -0.29   0.20   0.00    -0.56   0.08   0.00

 -------------------
 - Thermochemistry -
 -------------------
 Temperature   298.150 Kelvin.  Pressure   1.00000 Atm.
 Atom     1 has atomic number  7 and mass  14.00307
 Atom     2 has atomic number  6 and mass  12.00000
 Atom     3 has atomic number  6 and mass  12.00000
 Atom     4 has atomic number  6 and mass  12.00000
 Atom     5 has atomic number  6 and mass  12.00000
 Atom     6 has atomic number  6 and mass  12.00000
 Molecular mass:    74.00307 amu.
 Principal axes and moments of inertia in atomic units:
                           1         2         3
     Eigenvalues --   123.64417 365.86745 489.51162
           X           -0.66024   0.75106   0.00000
           Y            0.75106   0.66024   0.00000
           Z           -0.00000  -0.00000   1.00000
 This molecule is an asymmetric top.
 Rotational symmetry number  1.
 Rotational temperatures (Kelvin)      0.70051     0.23674     0.17694
 Rotational constants (GHZ):          14.59625     4.93277     3.68682
 Zero-point vibrational energy      54076.6 (Joules/Mol)
                                   12.92462 (Kcal/Mol)
 Warning -- explicit consideration of   6 degrees of freedom as
           vibrations may cause significant error
 Vibrational temperatures:    136.54   335.67   357.23   428.12   724.99
          (Kelvin)            826.00   995.72  1407.03  1643.16  1707.50
                             2032.04  2413.82
 
 Zero-point correction=                           0.020597 (Hartree/Particle)
 Thermal correction to Energy=                    0.026196
 Thermal correction to Enthalpy=                  0.027141
 Thermal correction to Gibbs Free Energy=        -0.008911
 Sum of electronic and zero-point Energies=           -244.493445
 Sum of electronic and thermal Energies=              -244.487846
 Sum of electronic and thermal Enthalpies=            -244.486902
 Sum of electronic and thermal Free Energies=         -244.522953
 
                     E (Thermal)             CV                S
                      KCal/Mol        Cal/Mol-Kelvin    Cal/Mol-Kelvin
 Total                   16.438             17.324             75.876
 Electronic               0.000              0.000              2.183
 Translational            0.889              2.981             38.821
 Rotational               0.889              2.981             24.608
 Vibrational             14.661             11.363             10.265
 Vibration     1          0.603              1.953              3.556
 Vibration     2          0.654              1.790              1.853
 Vibration     3          0.662              1.766              1.743
 Vibration     4          0.691              1.678              1.431
 Vibration     5          0.859              1.241              0.648
 Vibration     6          0.930              1.087              0.496
                       Q            Log10(Q)             Ln(Q)
 Total Bot       0.125493D+05          4.098620          9.437421
 Total V=0       0.373615D+14         13.572425         31.251663
 Vib (Bot)       0.313828D-08         -8.503308        -19.579590
 Vib (Bot)    1  0.216464D+01          0.335386          0.772255
 Vib (Bot)    2  0.842978D+00         -0.074184         -0.170815
 Vib (Bot)    3  0.786712D+00         -0.104184         -0.239893
 Vib (Bot)    4  0.640000D+00         -0.193820         -0.446287
 Vib (Bot)    5  0.325034D+00         -0.488071         -1.123825
 Vib (Bot)    6  0.266994D+00         -0.573499         -1.320531
 Vib (V=0)       0.934323D+01          0.970497          2.234652
 Vib (V=0)    1  0.272164D+01          0.434830          1.001234
 Vib (V=0)    2  0.148011D+01          0.170293          0.392115
 Vib (V=0)    3  0.143216D+01          0.155991          0.359182
 Vib (V=0)    4  0.131216D+01          0.117986          0.271673
 Vib (V=0)    5  0.109636D+01          0.039954          0.091997
 Vib (V=0)    6  0.106682D+01          0.028091          0.064683
 Electronic      0.300000D+01          0.477121          1.098612
 Translational   0.250225D+08          7.398330         17.035284
 Rotational      0.532693D+05          4.726477         10.883115
 
                                                              b3lyp opt
                                                             IR Spectrum
 
     1                    1                1  1                                                                                      
     6                    4                1  1           9                     6        5    5               2   22                 
     7                    1                8  4           7                     9        7    0               9   43         9       
     8                    2                7  2           8                     2        4    4               8   83         5       
 
     X                    X                X  X           X                     X        X    X               X   XX         X       
     X                    X                X  X           X                     X             X               X   X          X       
     X                    X                X  X           X                     X                             X   X                  
     X                    X                   X           X                     X                                 X                  
     X                    X                   X           X                                                       X                  
     X                    X                   X           X                                                       X                  
     X                    X                   X           X                                                       X                  
     X                    X                   X           X                                                       X                  
     X                    X                   X           X                                                       X                  
     X                    X                   X           X                                                       X                  
     X                    X                   X           X                                                                          
     X                    X                   X                                                                                      
     X                    X                   X                                                                                      
     X                    X                   X                                                                                      
     X                    X                   X                                                                                      
     X                    X                   X                                                                                      
     X                                        X                                                                                      
     X                                        X                                                                                      
     X                                                                                                                               
     X                                                                                                                               
 
 ***** Axes restored to original set *****
 -------------------------------------------------------------------
 Center     Atomic                   Forces (Hartrees/Bohr)
 Number     Number              X              Y              Z
 -------------------------------------------------------------------
      1        7          -0.000079221   -0.000050246    0.000306368
      2        6          -0.000029409   -0.000024881    0.000147860
      3        6          -0.000066590    0.000092802   -0.000482370
      4        6           0.000029627    0.000020775   -0.000125444
      5        6           0.000102514   -0.000030432    0.000126550
      6        6           0.000043079   -0.000008017    0.000027037
 -------------------------------------------------------------------
 Cartesian Forces:  Max     0.000482370 RMS     0.000152549
 Z-matrix is all fixed cartesians, so copy forces.
 Force constants in Cartesian coordinates: 
                1             2             3             4             5 
      1  0.474117D+00
      2 -0.234474D-01  0.661569D-01
      3 -0.355760D-01 -0.480136D-01  0.332741D+00
      4 -0.148748D+00  0.160452D-01 -0.315490D-01  0.668353D+00
      5  0.218089D-01 -0.968777D-02  0.171942D-01 -0.900639D-02  0.156730D-01
      6 -0.631292D-01  0.194541D-01 -0.868296D-01 -0.209594D+00 -0.388858D-01
      7  0.358475D-01 -0.206116D-02 -0.136443D-01 -0.276405D+00  0.280577D-01
      8 -0.278760D-01 -0.330894D-01  0.401566D-01  0.215358D-01 -0.862802D-02
      9  0.127800D+00  0.300349D-01 -0.242431D+00 -0.124956D-01 -0.384849D-02
     10 -0.166882D-01  0.740483D-03 -0.195509D-01  0.554206D-01 -0.345662D-02
     11 -0.320634D-02 -0.549850D-01 -0.542329D-02 -0.130253D-01  0.324284D-02
     12  0.207446D-02 -0.697079D-02 -0.188233D-01  0.510395D-01  0.316470D-02
     13 -0.337643D+00  0.827921D-02  0.859168D-01  0.517693D-01 -0.702404D-02
     14  0.170503D-01 -0.300469D-02 -0.566069D-02  0.241385D-02  0.461399D-02
     15  0.378582D-01 -0.222166D-02 -0.548846D-02 -0.315739D-01  0.472508D-02
     16 -0.688579D-02  0.443698D-03  0.144035D-01 -0.350390D+00 -0.303795D-01
     17  0.156706D-01  0.346099D-01  0.174681D-02 -0.179632D-01 -0.521403D-02
     18 -0.690279D-01  0.771708D-02  0.208316D-01  0.234173D+00  0.176503D-01
                6             7             8             9            10 
      6  0.303173D+00
      7 -0.482301D-01  0.481619D+00
      8 -0.129137D-02 -0.396279D-01  0.410021D-01
      9  0.186634D-01  0.401864D-01 -0.429169D-01  0.249727D+00
     10 -0.138919D-02 -0.720889D-01  0.272221D-02  0.262921D-01  0.128632D+00
     11  0.691644D-02 -0.623805D-02  0.316250D-01  0.100319D-01 -0.152831D-01
     12 -0.337788D-01  0.753871D-01  0.651875D-02 -0.322662D-01  0.566787D-01
     13  0.201382D-01 -0.121074D+00  0.350226D-01 -0.147543D+00 -0.137441D-01
     14  0.102461D-02  0.186676D-01 -0.110823D-01  0.982546D-02 -0.194205D-02
     15 -0.853623D-02 -0.579302D-01  0.341286D-02 -0.393940D-02  0.157394D-01
     16  0.302205D+00 -0.478989D-01  0.822327D-02 -0.342405D-01 -0.815315D-01
     17  0.127821D-01  0.120189D-02 -0.198274D-01 -0.312693D-02  0.172191D-01
     18 -0.192692D+00  0.423099D-02 -0.587991D-02  0.102462D-01 -0.777700D-01
               11            12            13            14            15 
     11  0.697762D-01
     12 -0.496783D-01  0.309590D+00
     13  0.108970D-02 -0.872175D-03  0.439318D+00
     14 -0.127403D-02  0.368396D-02 -0.365755D-01  0.102467D-01
     15  0.249525D-02 -0.205838D-01  0.304541D-01 -0.965501D-02  0.468284D-01
     16  0.366631D-01 -0.184308D+00 -0.186268D-01  0.385781D-03  0.545244D-02
     17 -0.483850D-01  0.432816D-01 -0.792038D-03  0.500307D-03  0.124347D-02
     18  0.356579D-01 -0.204138D+00  0.119059D-01  0.781662D-03 -0.828046D-02
               16            17            18 
     16  0.505333D+00
     17 -0.153363D-01  0.383163D-01
     18 -0.103512D+00 -0.559270D-01  0.374033D+00
 Leave Link  716 at Tue Aug 16 18:41:54 2016, MaxMem=    33554432 cpu:         0.1
 (Enter /home/proyectos/fulerenos/M3C-v2.0/M3C-deps_CCC/g09-AM64L-G09RevC.01/l103.exe)

 GradGradGradGradGradGradGradGradGradGradGradGradGradGradGradGradGradGrad
 Berny optimization.
 Search for a local minimum.
 Step number   1 out of a maximum of    2
 All quantities printed in internal units (Hartrees-Bohrs-Radians)
 Second derivative matrix not updated -- analytic derivatives used.
 The second derivative matrix:
                          X1        Y1        Z1        X2        Y2
           X1           0.47412
           Y1          -0.02345   0.06616
           Z1          -0.03558  -0.04801   0.33274
           X2          -0.14875   0.01605  -0.03155   0.66835
           Y2           0.02181  -0.00969   0.01719  -0.00901   0.01567
           Z2          -0.06313   0.01945  -0.08683  -0.20959  -0.03889
           X3           0.03585  -0.00206  -0.01364  -0.27640   0.02806
           Y3          -0.02788  -0.03309   0.04016   0.02154  -0.00863
           Z3           0.12780   0.03003  -0.24243  -0.01250  -0.00385
           X4          -0.01669   0.00074  -0.01955   0.05542  -0.00346
           Y4          -0.00321  -0.05498  -0.00542  -0.01303   0.00324
           Z4           0.00207  -0.00697  -0.01882   0.05104   0.00316
           X5          -0.33764   0.00828   0.08592   0.05177  -0.00702
           Y5           0.01705  -0.00300  -0.00566   0.00241   0.00461
           Z5           0.03786  -0.00222  -0.00549  -0.03157   0.00473
           X6          -0.00689   0.00044   0.01440  -0.35039  -0.03038
           Y6           0.01567   0.03461   0.00175  -0.01796  -0.00521
           Z6          -0.06903   0.00772   0.02083   0.23417   0.01765
                          Z2        X3        Y3        Z3        X4
           Z2           0.30317
           X3          -0.04823   0.48162
           Y3          -0.00129  -0.03963   0.04100
           Z3           0.01866   0.04019  -0.04292   0.24973
           X4          -0.00139  -0.07209   0.00272   0.02629   0.12863
           Y4           0.00692  -0.00624   0.03163   0.01003  -0.01528
           Z4          -0.03378   0.07539   0.00652  -0.03227   0.05668
           X5           0.02014  -0.12107   0.03502  -0.14754  -0.01374
           Y5           0.00102   0.01867  -0.01108   0.00983  -0.00194
           Z5          -0.00854  -0.05793   0.00341  -0.00394   0.01574
           X6           0.30220  -0.04790   0.00822  -0.03424  -0.08153
           Y6           0.01278   0.00120  -0.01983  -0.00313   0.01722
           Z6          -0.19269   0.00423  -0.00588   0.01025  -0.07777
                          Y4        Z4        X5        Y5        Z5
           Y4           0.06978
           Z4          -0.04968   0.30959
           X5           0.00109  -0.00087   0.43932
           Y5          -0.00127   0.00368  -0.03658   0.01025
           Z5           0.00250  -0.02058   0.03045  -0.00966   0.04683
           X6           0.03666  -0.18431  -0.01863   0.00039   0.00545
           Y6          -0.04839   0.04328  -0.00079   0.00050   0.00124
           Z6           0.03566  -0.20414   0.01191   0.00078  -0.00828
                          X6        Y6        Z6
           X6           0.50533
           Y6          -0.01534   0.03832
           Z6          -0.10351  -0.05593   0.37403
 ITU=  0
     Eigenvalues ---    0.00426   0.02497   0.02825   0.04125   0.11791
     Eigenvalues ---    0.15711   0.22054   0.47394   0.60322   0.64766
     Eigenvalues ---    0.94800   1.28634
 Angle between quadratic step and forces=  57.07 degrees.
 ClnCor:  largest displacement from symmetrization is 4.11D-10 for atom     6.
 Linear search not attempted -- first point.
 ClnCor:  largest displacement from symmetrization is 3.12D-15 for atom     6.
 B after Tr=     0.000023    0.000001   -0.000012
         Rot=    1.000000    0.000000    0.000003    0.000001 Ang=   0.00 deg.
 Variable       Old X    -DE/DX   Delta X   Delta X   Delta X     New X
                                 (Linear)    (Quad)   (Total)
    X1       -2.27672  -0.00008   0.00000   0.00135   0.00138  -2.27535
    Y1        0.57246  -0.00005   0.00000   0.00018   0.00019   0.57265
    Z1       -0.51052   0.00031   0.00000  -0.00153  -0.00155  -0.51208
    X2       -0.10975  -0.00003   0.00000   0.00063   0.00063  -0.10911
    Y2       -0.14535  -0.00002   0.00000  -0.00100  -0.00100  -0.14635
    Z2        2.57285   0.00015   0.00000   0.00526   0.00524   2.57809
    X3       -2.64663  -0.00007   0.00000   0.00171   0.00172  -2.64491
    Y3        0.13456   0.00009   0.00000   0.00097   0.00098   0.13553
    Z3        2.03387  -0.00048   0.00000  -0.00599  -0.00602   2.02785
    X4        0.52379   0.00003   0.00000   0.00075   0.00078   0.52457
    Y4        0.45088   0.00002   0.00000   0.00042   0.00042   0.45129
    Z4       -0.94238  -0.00013   0.00000  -0.00258  -0.00259  -0.94497
    X5       -4.74632   0.00010   0.00000  -0.00090  -0.00087  -4.74719
    Y5        0.64728  -0.00003   0.00000  -0.00071  -0.00070   0.64658
    Z5        0.04783   0.00013   0.00000   0.00422   0.00417   0.05200
    X6        1.90653   0.00004   0.00000  -0.00365  -0.00364   1.90289
    Y6       -0.04549  -0.00001   0.00000   0.00012   0.00012  -0.04537
    Z6        1.23516   0.00003   0.00000   0.00075   0.00075   1.23591
         Item               Value     Threshold  Converged?
 Maximum Force            0.000482     0.000450     NO 
 RMS     Force            0.000153     0.000300     YES
 Maximum Displacement     0.006022     0.001800     NO 
 RMS     Displacement     0.002510     0.001200     NO 
 Predicted change in Energy=-1.873840D-06
 GradGradGradGradGradGradGradGradGradGradGradGradGradGradGradGradGradGrad

 Leave Link  103 at Tue Aug 16 18:41:54 2016, MaxMem=    33554432 cpu:         0.0
 (Enter /home/proyectos/fulerenos/M3C-v2.0/M3C-deps_CCC/g09-AM64L-G09RevC.01/l9999.exe)
 1\1\GINC-BLADI12\Freq\UB3LYP\6-311++G(3df,2p)\C5N1(1+,3)\ROOT\16-Aug-2
 016\0\\#p b3lyp/6-311++G(3df,2p) freq symmetry=Loose\\b3lyp opt\\1,3\N
 ,-1.204789,0.302934,-0.270157\C,-0.058076,-0.076914,1.361494\C,-1.4005
 35707,0.0712054089,1.07627861\C,0.277180276,0.2385945699,-0.498688176\
 C,-2.51164346,0.3425259061,0.025310606\C,1.008890891,-0.0240718849,0.6
 5361896\\Version=EM64L-G09RevE.01\State=3-A"\HF=-244.5140421\S2=2.0625
 01\S2-1=0.\S2A=2.001115\RMSD=7.562e-09\RMSF=1.525e-04\ZeroPoint=0.0205
 967\Thermal=0.0261964\Dipole=0.2048318,-0.0507568,0.1977945\DipoleDeri
 v=-0.736527,0.0188079,0.2851767,0.1489572,0.2385446,0.0242798,-0.42793
 65,0.0753095,0.0087877,0.9111212,-0.0481321,0.0549434,-0.1448334,0.390
 168,-0.0064237,0.5847888,-0.0443389,0.3922854,-0.40212,0.1104188,-0.38
 26277,0.0464816,0.1434376,0.1001782,-0.0323035,0.0751093,-0.2338256,0.
 6732451,-0.0558806,0.1354889,-0.0022184,0.2504536,-0.0679021,-0.158536
 6,-0.0468619,0.5568277,1.2730202,-0.1004591,0.0542677,-0.1300483,0.034
 9077,-0.098822,0.216393,-0.1104236,0.5277532,-0.7187395,0.0752451,-0.1
 47249,0.0816614,-0.0575115,0.0486898,-0.1824051,0.0512056,-0.2518284\P
 olar=72.7274121,-3.4471281,30.8587535,2.1567245,-3.0454333,45.8971626\
 PG=CS [SG(C5N1)]\NImag=0\\0.47411695,-0.02344745,0.06615690,-0.0355759
 8,-0.04801362,0.33274094,-0.14874793,0.01604522,-0.03154904,0.66835328
 ,0.02180886,-0.00968777,0.01719421,-0.00900639,0.01567299,-0.06312916,
 0.01945406,-0.08682957,-0.20959437,-0.03888580,0.30317337,0.03584751,-
 0.00206116,-0.01364425,-0.27640487,0.02805768,-0.04823008,0.48161925,-
 0.02787602,-0.03308937,0.04015658,0.02153583,-0.00862802,-0.00129137,-
 0.03962793,0.04100213,0.12780042,0.03003493,-0.24243121,-0.01249563,-0
 .00384849,0.01866337,0.04018638,-0.04291691,0.24972728,-0.01668817,0.0
 0074048,-0.01955095,0.05542064,-0.00345662,-0.00138919,-0.07208890,0.0
 0272221,0.02629213,0.12863207,-0.00320634,-0.05498499,-0.00542329,-0.0
 1302530,0.00324284,0.00691644,-0.00623805,0.03162502,0.01003194,-0.015
 28308,0.06977617,0.00207446,-0.00697079,-0.01882330,0.05103947,0.00316
 470,-0.03377877,0.07538712,0.00651875,-0.03226619,0.05667868,-0.049678
 27,0.30958979,-0.33764256,0.00827921,0.08591676,0.05176933,-0.00702404
 ,0.02013819,-0.12107409,0.03502264,-0.14754278,-0.01374415,0.00108970,
 -0.00087218,0.43931824,0.01705031,-0.00300469,-0.00566069,0.00241385,0
 .00461399,0.00102461,0.01866757,-0.01108232,0.00982546,-0.00194205,-0.
 00127403,0.00368396,-0.03657547,0.01024675,0.03785816,-0.00222166,-0.0
 0548846,-0.03157387,0.00472508,-0.00853623,-0.05793016,0.00341286,-0.0
 0393940,0.01573936,0.00249525,-0.02058380,0.03045407,-0.00965501,0.046
 82836,-0.00688579,0.00044370,0.01440346,-0.35039044,-0.03037948,0.3022
 0461,-0.04789890,0.00822327,-0.03424052,-0.08153149,0.03666308,-0.1843
 0755,-0.01862676,0.00038578,0.00545244,0.50533339,0.01567064,0.0346099
 2,0.00174681,-0.01796321,-0.00521403,0.01278205,0.00120189,-0.01982744
 ,-0.00312693,0.01721907,-0.04838501,0.04328165,-0.00079204,0.00050031,
 0.00124347,-0.01533635,0.03831626,-0.06902790,0.00771708,0.02083160,0.
 23417344,0.01765030,-0.19269218,0.00423099,-0.00587991,0.01024615,-0.0
 7777004,0.03565792,-0.20413771,0.01190594,0.00078166,-0.00828046,-0.10
 351243,-0.05592705,0.37403260\\0.00007922,0.00005025,-0.00030637,0.000
 02941,0.00002488,-0.00014786,0.00006659,-0.00009280,0.00048237,-0.0000
 2963,-0.00002077,0.00012544,-0.00010251,0.00003043,-0.00012655,-0.0000
 4308,0.00000802,-0.00002704\\\@


 I WANT IT ALL - RICH, THIN, AND CHOCOLATE.
 Job cpu time:       0 days  1 hours  5 minutes 11.6 seconds.
 File lengths (MBytes):  RWF=     60 Int=      0 D2E=      0 Chk=      5 Scr=      1
 Normal termination of Gaussian 09 at Tue Aug 16 18:41:54 2016.
