 Entering Gaussian System, Link 0=/home/proyectos/fulerenos/M3C-v2.0/M3C-deps_CCC/g09-AM64L-G09RevC.01/g09
 Initial command:
 /home/proyectos/fulerenos/M3C-v2.0/M3C-deps_CCC/g09-AM64L-G09RevC.01/l1.exe "/scratch/naguirre/gaussian/Gau-10813.inp" -scrdir="/scratch/naguirre/gaussian/"
 Entering Link 1 = /home/proyectos/fulerenos/M3C-v2.0/M3C-deps_CCC/g09-AM64L-G09RevC.01/l1.exe PID=     10839.
  
 Copyright (c) 1988,1990,1992,1993,1995,1998,2003,2009,2015,
            Gaussian, Inc.  All Rights Reserved.
  
 This is part of the Gaussian(R) 09 program.  It is based on
 the Gaussian(R) 03 system (copyright 2003, Gaussian, Inc.),
 the Gaussian(R) 98 system (copyright 1998, Gaussian, Inc.),
 the Gaussian(R) 94 system (copyright 1995, Gaussian, Inc.),
 the Gaussian 92(TM) system (copyright 1992, Gaussian, Inc.),
 the Gaussian 90(TM) system (copyright 1990, Gaussian, Inc.),
 the Gaussian 88(TM) system (copyright 1988, Gaussian, Inc.),
 the Gaussian 86(TM) system (copyright 1986, Carnegie Mellon
 University), and the Gaussian 82(TM) system (copyright 1983,
 Carnegie Mellon University). Gaussian is a federally registered
 trademark of Gaussian, Inc.
  
 This software contains proprietary and confidential information,
 including trade secrets, belonging to Gaussian, Inc.
  
 This software is provided under written license and may be
 used, copied, transmitted, or stored only in accord with that
 written license.
  
 The following legend is applicable only to US Government
 contracts under FAR:
  
                    RESTRICTED RIGHTS LEGEND
  
 Use, reproduction and disclosure by the US Government is
 subject to restrictions as set forth in subparagraphs (a)
 and (c) of the Commercial Computer Software - Restricted
 Rights clause in FAR 52.227-19.
  
 Gaussian, Inc.
 340 Quinnipiac St., Bldg. 40, Wallingford CT 06492
  
  
 ---------------------------------------------------------------
 Warning -- This program may not be used in any manner that
 competes with the business of Gaussian, Inc. or will provide
 assistance to any competitor of Gaussian, Inc.  The licensee
 of this program is prohibited from giving any competitor of
 Gaussian, Inc. access to this program.  By using this program,
 the user acknowledges that Gaussian, Inc. is engaged in the
 business of creating and licensing software in the field of
 computational chemistry and represents and warrants to the
 licensee that it is not a competitor of Gaussian, Inc. and that
 it will not use this program in any manner prohibited above.
 ---------------------------------------------------------------
  

 Cite this work as:
 Gaussian 09, Revision E.01,
 M. J. Frisch, G. W. Trucks, H. B. Schlegel, G. E. Scuseria, 
 M. A. Robb, J. R. Cheeseman, G. Scalmani, V. Barone, B. Mennucci, 
 G. A. Petersson, H. Nakatsuji, M. Caricato, X. Li, H. P. Hratchian, 
 A. F. Izmaylov, J. Bloino, G. Zheng, J. L. Sonnenberg, M. Hada, 
 M. Ehara, K. Toyota, R. Fukuda, J. Hasegawa, M. Ishida, T. Nakajima, 
 Y. Honda, O. Kitao, H. Nakai, T. Vreven, J. A. Montgomery, Jr., 
 J. E. Peralta, F. Ogliaro, M. Bearpark, J. J. Heyd, E. Brothers, 
 K. N. Kudin, V. N. Staroverov, T. Keith, R. Kobayashi, J. Normand, 
 K. Raghavachari, A. Rendell, J. C. Burant, S. S. Iyengar, J. Tomasi, 
 M. Cossi, N. Rega, J. M. Millam, M. Klene, J. E. Knox, J. B. Cross, 
 V. Bakken, C. Adamo, J. Jaramillo, R. Gomperts, R. E. Stratmann, 
 O. Yazyev, A. J. Austin, R. Cammi, C. Pomelli, J. W. Ochterski, 
 R. L. Martin, K. Morokuma, V. G. Zakrzewski, G. A. Voth, 
 P. Salvador, J. J. Dannenberg, S. Dapprich, A. D. Daniels, 
 O. Farkas, J. B. Foresman, J. V. Ortiz, J. Cioslowski, 
 and D. J. Fox, Gaussian, Inc., Wallingford CT, 2013.
 
 ******************************************
 Gaussian 09:  EM64L-G09RevE.01 30-Nov-2015
                16-Aug-2016 
 ******************************************
 %NProcShared=1
 Will use up to    1 processors via shared memory.
 ---------------------------------------------
 #p b3lyp/6-311++G(3df,2p) freq symmetry=Loose
 ---------------------------------------------
 1/10=4,30=1,38=1/1,3;
 2/12=2,17=4,18=3,40=1/2;
 3/5=4,6=6,7=1216,11=2,16=1,25=1,30=1,71=2,74=-5,140=1/1,2,3;
 4//1;
 5/5=2,38=5,98=1/2;
 8/6=4,10=90,11=11/1;
 11/6=1,8=1,9=11,15=111,16=1/1,2,10;
 10/6=1/2;
 6/7=2,8=2,9=2,10=2,18=1,28=1/1;
 7/8=1,10=1,25=1/1,2,3,16;
 1/10=4,30=1/3;
 99//99;
 Leave Link    1 at Tue Aug 16 17:36:05 2016, MaxMem=           0 cpu:         0.1
 (Enter /home/proyectos/fulerenos/M3C-v2.0/M3C-deps_CCC/g09-AM64L-G09RevC.01/l101.exe)
 ---------
 b3lyp opt
 ---------
 Symbolic Z-matrix:
 Charge =  1 Multiplicity = 3
 C                     0.45798  -0.79079  -0.02581 
 C                    -0.63521   0.31214  -0.58767 
 C                    -0.58375   0.81084   0.78387 
 C                    -1.032    -1.04631  -0.28363 
 C                     0.76682   0.33225   0.93221 
 N                     0.87694   0.30998  -0.72014 
 
 NAtoms=      6 NQM=        6 NQMF=       0 NMMI=      0 NMMIF=      0
                NMic=       0 NMicF=      0.
                    Isotopes and Nuclear Properties:
 (Nuclear quadrupole moments (NQMom) in fm**2, nuclear magnetic moments (NMagM)
  in nuclear magnetons)

  Atom         1           2           3           4           5           6
 IAtWgt=          12          12          12          12          12          14
 AtmWgt=  12.0000000  12.0000000  12.0000000  12.0000000  12.0000000  14.0030740
 NucSpn=           0           0           0           0           0           2
 AtZEff=   0.0000000   0.0000000   0.0000000   0.0000000   0.0000000   0.0000000
 NQMom=    0.0000000   0.0000000   0.0000000   0.0000000   0.0000000   2.0440000
 NMagM=    0.0000000   0.0000000   0.0000000   0.0000000   0.0000000   0.4037610
 AtZNuc=   6.0000000   6.0000000   6.0000000   6.0000000   6.0000000   7.0000000
 Leave Link  101 at Tue Aug 16 17:36:06 2016, MaxMem=    33554432 cpu:         0.2
 (Enter /home/proyectos/fulerenos/M3C-v2.0/M3C-deps_CCC/g09-AM64L-G09RevC.01/l103.exe)

 GradGradGradGradGradGradGradGradGradGradGradGradGradGradGradGradGradGrad
 Berny optimization.
 Initialization pass.
 Trust Radius=3.00D-01 FncErr=1.00D-07 GrdErr=1.00D-07
 Number of steps in this run=      2 maximum allowed number of steps=      2.
 GradGradGradGradGradGradGradGradGradGradGradGradGradGradGradGradGradGrad

 Leave Link  103 at Tue Aug 16 17:36:06 2016, MaxMem=    33554432 cpu:         0.0
 (Enter /home/proyectos/fulerenos/M3C-v2.0/M3C-deps_CCC/g09-AM64L-G09RevC.01/l202.exe)
                          Input orientation:                          
 ---------------------------------------------------------------------
 Center     Atomic      Atomic             Coordinates (Angstroms)
 Number     Number       Type             X           Y           Z
 ---------------------------------------------------------------------
      1          6           0        0.457979   -0.790787   -0.025806
      2          6           0       -0.635214    0.312138   -0.587673
      3          6           0       -0.583754    0.810840    0.783874
      4          6           0       -1.031999   -1.046311   -0.283634
      5          6           0        0.766824    0.332250    0.932209
      6          7           0        0.876935    0.309984   -0.720139
 ---------------------------------------------------------------------
                    Distance matrix (angstroms):
                    1          2          3          4          5
     1  C    0.000000
     2  C    1.651426   0.000000
     3  C    2.075090   1.460306   0.000000
     4  C    1.533559   1.447502   2.188494   0.000000
     5  C    1.508108   2.067887   1.440525   2.571861   0.000000
     6  N    1.367230   1.517942   2.155580   2.382037   1.656162
                    6
     6  N    0.000000
 Stoichiometry    C5N(1+,3)
 Framework group  C1[X(C5N)]
 Deg. of freedom    12
 Full point group                 C1      NOp   1
 Largest Abelian subgroup         C1      NOp   1
 Largest concise Abelian subgroup C1      NOp   1
                         Standard orientation:                         
 ---------------------------------------------------------------------
 Center     Atomic      Atomic             Coordinates (Angstroms)
 Number     Number       Type             X           Y           Z
 ---------------------------------------------------------------------
      1          6           0        0.111859   -0.662400   -0.616105
      2          6           0        0.512312    0.195773    0.736813
      3          6           0       -0.324788    1.225248    0.126947
      4          6           0        1.450245    0.039095   -0.354514
      5          6           0       -1.107796    0.222017   -0.547989
      6          7           0       -0.550141   -0.874057    0.561298
 ---------------------------------------------------------------------
 Rotational constants (GHZ):      9.0513970      7.2658608      6.0295837
 Leave Link  202 at Tue Aug 16 17:36:06 2016, MaxMem=    33554432 cpu:         0.0
 (Enter /home/proyectos/fulerenos/M3C-v2.0/M3C-deps_CCC/g09-AM64L-G09RevC.01/l301.exe)
 Standard basis: 6-311++G(3df,2p) (5D, 7F)
 Ernie: Thresh=  0.10000D-02 Tol=  0.10000D-05 Strict=F.
 There are   270 symmetry adapted cartesian basis functions of A   symmetry.
 There are   234 symmetry adapted basis functions of A   symmetry.
   234 basis functions,   348 primitive gaussians,   270 cartesian basis functions
    19 alpha electrons       17 beta electrons
       nuclear repulsion energy       174.4845631602 Hartrees.
 IExCor=  402 DFT=T Ex+Corr=B3LYP ExCW=0 ScaHFX=  0.200000
 ScaDFX=  0.800000  0.720000  1.000000  0.810000 ScalE2=  1.000000  1.000000
 IRadAn=      0 IRanWt=     -1 IRanGd=            0 ICorTp=0 IEmpDi=  4
 NAtoms=    6 NActive=    6 NUniq=    6 SFac= 1.00D+00 NAtFMM=   60 NAOKFM=F Big=F
 Integral buffers will be    131072 words long.
 Raffenetti 2 integral format.
 Two-electron integral symmetry is turned on.
 Leave Link  301 at Tue Aug 16 17:36:07 2016, MaxMem=    33554432 cpu:         0.2
 (Enter /home/proyectos/fulerenos/M3C-v2.0/M3C-deps_CCC/g09-AM64L-G09RevC.01/l302.exe)
 NPDir=0 NMtPBC=     1 NCelOv=     1 NCel=       1 NClECP=     1 NCelD=      1
         NCelK=      1 NCelE2=     1 NClLst=     1 CellRange=     0.0.
 One-electron integrals computed using PRISM.
 NBasis=   234 RedAO= T EigKep=  1.22D-05  NBF=   234
 NBsUse=   234 1.00D-06 EigRej= -1.00D+00 NBFU=   234
 Precomputing XC quadrature grid using
 IXCGrd= 4 IRadAn=           0 IRanWt=          -1 IRanGd=           0 AccXCQ= 0.00D+00.
 Generated NRdTot=       0 NPtTot=           0 NUsed=           0 NTot=          32
 NSgBfM=   270   270   270   270   270 MxSgAt=     6 MxSgA2=     6.
 Leave Link  302 at Tue Aug 16 17:36:08 2016, MaxMem=    33554432 cpu:         0.5
 (Enter /home/proyectos/fulerenos/M3C-v2.0/M3C-deps_CCC/g09-AM64L-G09RevC.01/l303.exe)
 DipDrv:  MaxL=1.
 Leave Link  303 at Tue Aug 16 17:36:08 2016, MaxMem=    33554432 cpu:         0.2
 (Enter /home/proyectos/fulerenos/M3C-v2.0/M3C-deps_CCC/g09-AM64L-G09RevC.01/l401.exe)
 ExpMin= 4.38D-02 ExpMax= 6.29D+03 ExpMxC= 9.49D+02 IAcc=2 IRadAn=         4 AccDes= 0.00D+00
 Harris functional with IExCor=  402 and IRadAn=       4 diagonalized for initial guess.
 HarFok:  IExCor=  402 AccDes= 0.00D+00 IRadAn=         4 IDoV= 1 UseB2=F ITyADJ=14
 ICtDFT=  3500011 ScaDFX=  1.000000  1.000000  1.000000  1.000000
 FoFCou: FMM=F IPFlag=           0 FMFlag=      100000 FMFlg1=           0
         NFxFlg=           0 DoJE=T BraDBF=F KetDBF=T FulRan=T
         wScrn=  0.000000 ICntrl=     500 IOpCl=  0 I1Cent=   200000004 NGrid=           0
         NMat0=    1 NMatS0=      1 NMatT0=    0 NMatD0=    1 NMtDS0=    0 NMtDT0=    0
 Petite list used in FoFCou.
 Harris En= -244.490463189187    
 JPrj=0 DoOrth=F DoCkMO=F.
 Initial guess <Sx>= 0.0000 <Sy>= 0.0000 <Sz>= 1.0000 <S**2>= 2.0000 S= 1.0000
 Leave Link  401 at Tue Aug 16 17:36:14 2016, MaxMem=    33554432 cpu:         3.0
 (Enter /home/proyectos/fulerenos/M3C-v2.0/M3C-deps_CCC/g09-AM64L-G09RevC.01/l502.exe)
 UHF open shell SCF:
 Using DIIS extrapolation, IDIIS=  1040.
 Integral symmetry usage will be decided dynamically.
 IVT=      240790 IEndB=      240790 NGot=    33554432 MDV=    33403453
 LenX=    33403453 LenY=    33330112
 Requested convergence on RMS density matrix=1.00D-08 within 128 cycles.
 Requested convergence on MAX density matrix=1.00D-06.
 Requested convergence on             energy=1.00D-06.
 No special actions if energy rises.
 Fock matrices will be formed incrementally for  20 cycles.

 Cycle   1  Pass 1  IDiag  1:
 FoFJK:  IHMeth= 1 ICntrl=       0 DoSepK=F KAlg= 0 I1Cent=   0 FoldK=F
 IRaf= 990000000 NMat=   1 IRICut=       1 DoRegI=T DoRafI=F ISym2E= 0.
 FoFCou: FMM=F IPFlag=           0 FMFlag=      100000 FMFlg1=           0
         NFxFlg=           0 DoJE=F BraDBF=F KetDBF=F FulRan=T
         wScrn=  0.000000 ICntrl=       0 IOpCl=  1 I1Cent=           0 NGrid=           0
         NMat0=    1 NMatS0=      1 NMatT0=    0 NMatD0=    1 NMtDS0=    0 NMtDT0=    0
 Symmetry not used in FoFCou.
 E= -244.432010894304    
 DIIS: error= 1.43D-02 at cycle   1 NSaved=   1.
 NSaved= 1 IEnMin= 1 EnMin= -244.432010894304     IErMin= 1 ErrMin= 1.43D-02
 ErrMax= 1.43D-02  0.00D+00 EMaxC= 1.00D-01 BMatC= 1.37D-01 BMatP= 1.37D-01
 IDIUse=3 WtCom= 8.57D-01 WtEn= 1.43D-01
 Coeff-Com:  0.100D+01
 Coeff-En:   0.100D+01
 Coeff:      0.100D+01
 Gap=     0.177 Goal=   None    Shift=    0.000
 Gap=     0.058 Goal=   None    Shift=    0.000
 GapD=    0.058 DampG=0.500 DampE=0.500 DampFc=0.2500 IDamp=-1.
 Damping current iteration by 2.50D-01
 RMSDP=4.21D-03 MaxDP=2.62D-01              OVMax= 1.61D-01

 Cycle   2  Pass 1  IDiag  1:
 RMSU=  1.05D-03    CP:  1.01D+00
 E= -244.443888143428     Delta-E=       -0.011877249125 Rises=F Damp=T
 DIIS: error= 6.49D-03 at cycle   2 NSaved=   2.
 NSaved= 2 IEnMin= 2 EnMin= -244.443888143428     IErMin= 2 ErrMin= 6.49D-03
 ErrMax= 6.49D-03  0.00D+00 EMaxC= 1.00D-01 BMatC= 5.57D-02 BMatP= 1.37D-01
 IDIUse=3 WtCom= 9.35D-01 WtEn= 6.49D-02
 Coeff-Com: -0.780D+00 0.178D+01
 Coeff-En:   0.000D+00 0.100D+01
 Coeff:     -0.729D+00 0.173D+01
 Gap=     0.171 Goal=   None    Shift=    0.000
 Gap=     0.108 Goal=   None    Shift=    0.000
 RMSDP=3.19D-03 MaxDP=2.29D-01 DE=-1.19D-02 OVMax= 1.18D-01

 Cycle   3  Pass 1  IDiag  1:
 RMSU=  1.80D-03    CP:  1.01D+00  3.00D+00
 E= -244.467178384112     Delta-E=       -0.023290240683 Rises=F Damp=F
 DIIS: error= 6.33D-03 at cycle   3 NSaved=   3.
 NSaved= 3 IEnMin= 3 EnMin= -244.467178384112     IErMin= 3 ErrMin= 6.33D-03
 ErrMax= 6.33D-03  0.00D+00 EMaxC= 1.00D-01 BMatC= 3.01D-02 BMatP= 5.57D-02
 IDIUse=3 WtCom= 9.37D-01 WtEn= 6.33D-02
 Coeff-Com: -0.670D+00 0.106D+01 0.609D+00
 Coeff-En:   0.000D+00 0.000D+00 0.100D+01
 Coeff:     -0.627D+00 0.994D+00 0.633D+00
 Gap=     0.169 Goal=   None    Shift=    0.000
 Gap=     0.109 Goal=   None    Shift=    0.000
 RMSDP=7.83D-04 MaxDP=2.91D-02 DE=-2.33D-02 OVMax= 5.16D-02

 Cycle   4  Pass 1  IDiag  1:
 RMSU=  7.38D-04    CP:  1.02D+00  3.00D+00  8.58D-01
 E= -244.470530162851     Delta-E=       -0.003351778740 Rises=F Damp=F
 DIIS: error= 6.12D-03 at cycle   4 NSaved=   4.
 NSaved= 4 IEnMin= 4 EnMin= -244.470530162851     IErMin= 4 ErrMin= 6.12D-03
 ErrMax= 6.12D-03  0.00D+00 EMaxC= 1.00D-01 BMatC= 1.96D-02 BMatP= 3.01D-02
 IDIUse=3 WtCom= 9.39D-01 WtEn= 6.12D-02
 Coeff-Com: -0.305D+00 0.403D+00 0.481D+00 0.421D+00
 Coeff-En:   0.000D+00 0.000D+00 0.385D+00 0.615D+00
 Coeff:     -0.286D+00 0.378D+00 0.475D+00 0.432D+00
 Gap=     0.159 Goal=   None    Shift=    0.000
 Gap=     0.107 Goal=   None    Shift=    0.000
 RMSDP=4.26D-04 MaxDP=1.98D-02 DE=-3.35D-03 OVMax= 2.34D-02

 Cycle   5  Pass 1  IDiag  1:
 RMSU=  3.13D-04    CP:  1.02D+00  3.00D+00  9.67D-01  7.13D-01
 E= -244.474973574329     Delta-E=       -0.004443411477 Rises=F Damp=F
 DIIS: error= 6.72D-04 at cycle   5 NSaved=   5.
 NSaved= 5 IEnMin= 5 EnMin= -244.474973574329     IErMin= 5 ErrMin= 6.72D-04
 ErrMax= 6.72D-04  0.00D+00 EMaxC= 1.00D-01 BMatC= 5.93D-04 BMatP= 1.96D-02
 IDIUse=3 WtCom= 9.93D-01 WtEn= 6.72D-03
 Coeff-Com: -0.579D-01 0.607D-01 0.162D+00 0.202D+00 0.632D+00
 Coeff-En:   0.000D+00 0.000D+00 0.000D+00 0.000D+00 0.100D+01
 Coeff:     -0.575D-01 0.603D-01 0.161D+00 0.201D+00 0.635D+00
 Gap=     0.160 Goal=   None    Shift=    0.000
 Gap=     0.112 Goal=   None    Shift=    0.000
 RMSDP=1.66D-04 MaxDP=8.27D-03 DE=-4.44D-03 OVMax= 1.32D-02

 Cycle   6  Pass 1  IDiag  1:
 RMSU=  1.22D-04    CP:  1.01D+00  3.00D+00  1.01D+00  7.94D-01  9.56D-01
 E= -244.475131374615     Delta-E=       -0.000157800287 Rises=F Damp=F
 DIIS: error= 6.43D-04 at cycle   6 NSaved=   6.
 NSaved= 6 IEnMin= 6 EnMin= -244.475131374615     IErMin= 6 ErrMin= 6.43D-04
 ErrMax= 6.43D-04  0.00D+00 EMaxC= 1.00D-01 BMatC= 2.60D-04 BMatP= 5.93D-04
 IDIUse=3 WtCom= 9.94D-01 WtEn= 6.43D-03
 Coeff-Com:  0.339D-01-0.565D-01 0.508D-04 0.426D-01 0.430D+00 0.550D+00
 Coeff-En:   0.000D+00 0.000D+00 0.000D+00 0.000D+00 0.880D-01 0.912D+00
 Coeff:      0.337D-01-0.561D-01 0.505D-04 0.423D-01 0.428D+00 0.552D+00
 Gap=     0.159 Goal=   None    Shift=    0.000
 Gap=     0.110 Goal=   None    Shift=    0.000
 RMSDP=9.82D-05 MaxDP=5.30D-03 DE=-1.58D-04 OVMax= 5.81D-03

 Cycle   7  Pass 1  IDiag  1:
 RMSU=  6.75D-05    CP:  1.01D+00  3.00D+00  1.03D+00  8.29D-01  1.13D+00
                    CP:  8.30D-01
 E= -244.475209316918     Delta-E=       -0.000077942303 Rises=F Damp=F
 DIIS: error= 3.16D-04 at cycle   7 NSaved=   7.
 NSaved= 7 IEnMin= 7 EnMin= -244.475209316918     IErMin= 7 ErrMin= 3.16D-04
 ErrMax= 3.16D-04  0.00D+00 EMaxC= 1.00D-01 BMatC= 8.61D-05 BMatP= 2.60D-04
 IDIUse=3 WtCom= 9.97D-01 WtEn= 3.16D-03
 Coeff-Com:  0.424D-01-0.595D-01-0.479D-01-0.264D-01 0.106D+00 0.411D+00
 Coeff-Com:  0.574D+00
 Coeff-En:   0.000D+00 0.000D+00 0.000D+00 0.000D+00 0.000D+00 0.623D-01
 Coeff-En:   0.938D+00
 Coeff:      0.422D-01-0.594D-01-0.478D-01-0.263D-01 0.106D+00 0.410D+00
 Coeff:      0.575D+00
 Gap=     0.159 Goal=   None    Shift=    0.000
 Gap=     0.111 Goal=   None    Shift=    0.000
 RMSDP=5.83D-05 MaxDP=2.99D-03 DE=-7.79D-05 OVMax= 5.08D-03

 Cycle   8  Pass 1  IDiag  1:
 RMSU=  3.26D-05    CP:  1.01D+00  3.00D+00  1.04D+00  8.62D-01  1.20D+00
                    CP:  1.10D+00  8.68D-01
 E= -244.475243203239     Delta-E=       -0.000033886321 Rises=F Damp=F
 DIIS: error= 1.16D-04 at cycle   8 NSaved=   8.
 NSaved= 8 IEnMin= 8 EnMin= -244.475243203239     IErMin= 8 ErrMin= 1.16D-04
 ErrMax= 1.16D-04  0.00D+00 EMaxC= 1.00D-01 BMatC= 7.91D-06 BMatP= 8.61D-05
 IDIUse=3 WtCom= 9.99D-01 WtEn= 1.16D-03
 Coeff-Com:  0.123D-01-0.150D-01-0.166D-01-0.132D-01-0.573D-01 0.263D-01
 Coeff-Com:  0.217D+00 0.846D+00
 Coeff-En:   0.000D+00 0.000D+00 0.000D+00 0.000D+00 0.000D+00 0.000D+00
 Coeff-En:   0.000D+00 0.100D+01
 Coeff:      0.123D-01-0.150D-01-0.166D-01-0.132D-01-0.573D-01 0.263D-01
 Coeff:      0.217D+00 0.846D+00
 Gap=     0.159 Goal=   None    Shift=    0.000
 Gap=     0.112 Goal=   None    Shift=    0.000
 RMSDP=2.95D-05 MaxDP=1.74D-03 DE=-3.39D-05 OVMax= 3.00D-03

 Cycle   9  Pass 1  IDiag  1:
 RMSU=  1.51D-05    CP:  1.01D+00  3.00D+00  1.04D+00  8.70D-01  1.23D+00
                    CP:  1.21D+00  1.07D+00  1.14D+00
 E= -244.475249233888     Delta-E=       -0.000006030649 Rises=F Damp=F
 DIIS: error= 6.02D-05 at cycle   9 NSaved=   9.
 NSaved= 9 IEnMin= 9 EnMin= -244.475249233888     IErMin= 9 ErrMin= 6.02D-05
 ErrMax= 6.02D-05  0.00D+00 EMaxC= 1.00D-01 BMatC= 2.98D-06 BMatP= 7.91D-06
 IDIUse=1 WtCom= 1.00D+00 WtEn= 0.00D+00
 Coeff-Com:  0.163D-02-0.913D-03-0.284D-02-0.328D-02-0.515D-01-0.567D-01
 Coeff-Com:  0.191D-01 0.473D+00 0.622D+00
 Coeff:      0.163D-02-0.913D-03-0.284D-02-0.328D-02-0.515D-01-0.567D-01
 Coeff:      0.191D-01 0.473D+00 0.622D+00
 Gap=     0.159 Goal=   None    Shift=    0.000
 Gap=     0.112 Goal=   None    Shift=    0.000
 RMSDP=1.44D-05 MaxDP=8.51D-04 DE=-6.03D-06 OVMax= 1.11D-03

 Cycle  10  Pass 1  IDiag  1:
 RMSU=  9.08D-06    CP:  1.01D+00  3.00D+00  1.04D+00  8.78D-01  1.24D+00
                    CP:  1.23D+00  1.14D+00  1.33D+00  1.05D+00
 E= -244.475251002926     Delta-E=       -0.000001769038 Rises=F Damp=F
 DIIS: error= 3.50D-05 at cycle  10 NSaved=  10.
 NSaved=10 IEnMin=10 EnMin= -244.475251002926     IErMin=10 ErrMin= 3.50D-05
 ErrMax= 3.50D-05  0.00D+00 EMaxC= 1.00D-01 BMatC= 1.09D-06 BMatP= 2.98D-06
 IDIUse=1 WtCom= 1.00D+00 WtEn= 0.00D+00
 Coeff-Com: -0.413D-02 0.579D-02 0.569D-02 0.466D-02-0.406D-02-0.440D-01
 Coeff-Com: -0.757D-01-0.275D-01 0.413D+00 0.726D+00
 Coeff:     -0.413D-02 0.579D-02 0.569D-02 0.466D-02-0.406D-02-0.440D-01
 Coeff:     -0.757D-01-0.275D-01 0.413D+00 0.726D+00
 Gap=     0.159 Goal=   None    Shift=    0.000
 Gap=     0.112 Goal=   None    Shift=    0.000
 RMSDP=1.05D-05 MaxDP=4.39D-04 DE=-1.77D-06 OVMax= 1.01D-03

 Cycle  11  Pass 1  IDiag  1:
 RMSU=  5.65D-06    CP:  1.01D+00  3.00D+00  1.04D+00  8.79D-01  1.24D+00
                    CP:  1.26D+00  1.18D+00  1.46D+00  1.47D+00  1.22D+00
 E= -244.475251931433     Delta-E=       -0.000000928508 Rises=F Damp=F
 DIIS: error= 2.65D-05 at cycle  11 NSaved=  11.
 NSaved=11 IEnMin=11 EnMin= -244.475251931433     IErMin=11 ErrMin= 2.65D-05
 ErrMax= 2.65D-05  0.00D+00 EMaxC= 1.00D-01 BMatC= 4.98D-07 BMatP= 1.09D-06
 IDIUse=1 WtCom= 1.00D+00 WtEn= 0.00D+00
 Coeff-Com: -0.337D-02 0.436D-02 0.430D-02 0.351D-02 0.105D-01-0.160D-01
 Coeff-Com: -0.609D-01-0.160D+00 0.133D+00 0.506D+00 0.579D+00
 Coeff:     -0.337D-02 0.436D-02 0.430D-02 0.351D-02 0.105D-01-0.160D-01
 Coeff:     -0.609D-01-0.160D+00 0.133D+00 0.506D+00 0.579D+00
 Gap=     0.159 Goal=   None    Shift=    0.000
 Gap=     0.112 Goal=   None    Shift=    0.000
 RMSDP=6.85D-06 MaxDP=2.92D-04 DE=-9.29D-07 OVMax= 6.89D-04

 Cycle  12  Pass 1  IDiag  1:
 RMSU=  3.32D-06    CP:  1.01D+00  3.00D+00  1.04D+00  8.79D-01  1.25D+00
                    CP:  1.26D+00  1.21D+00  1.51D+00  1.64D+00  1.71D+00
                    CP:  1.18D+00
 E= -244.475252443168     Delta-E=       -0.000000511734 Rises=F Damp=F
 DIIS: error= 1.36D-05 at cycle  12 NSaved=  12.
 NSaved=12 IEnMin=12 EnMin= -244.475252443168     IErMin=12 ErrMin= 1.36D-05
 ErrMax= 1.36D-05  0.00D+00 EMaxC= 1.00D-01 BMatC= 1.76D-07 BMatP= 4.98D-07
 IDIUse=1 WtCom= 1.00D+00 WtEn= 0.00D+00
 Coeff-Com:  0.121D-03-0.314D-03-0.102D-02-0.946D-03 0.698D-02 0.156D-01
 Coeff-Com:  0.785D-02-0.679D-01-0.914D-01-0.135D+00 0.270D+00 0.995D+00
 Coeff:      0.121D-03-0.314D-03-0.102D-02-0.946D-03 0.698D-02 0.156D-01
 Coeff:      0.785D-02-0.679D-01-0.914D-01-0.135D+00 0.270D+00 0.995D+00
 Gap=     0.159 Goal=   None    Shift=    0.000
 Gap=     0.112 Goal=   None    Shift=    0.000
 RMSDP=7.84D-06 MaxDP=3.74D-04 DE=-5.12D-07 OVMax= 9.04D-04

 Cycle  13  Pass 1  IDiag  1:
 RMSU=  2.41D-06    CP:  1.01D+00  3.00D+00  1.04D+00  8.79D-01  1.25D+00
                    CP:  1.26D+00  1.23D+00  1.57D+00  1.89D+00  2.17D+00
                    CP:  1.80D+00  1.70D+00
 E= -244.475252891308     Delta-E=       -0.000000448140 Rises=F Damp=F
 DIIS: error= 7.44D-06 at cycle  13 NSaved=  13.
 NSaved=13 IEnMin=13 EnMin= -244.475252891308     IErMin=13 ErrMin= 7.44D-06
 ErrMax= 7.44D-06  0.00D+00 EMaxC= 1.00D-01 BMatC= 8.47D-08 BMatP= 1.76D-07
 IDIUse=1 WtCom= 1.00D+00 WtEn= 0.00D+00
 Coeff-Com:  0.206D-02-0.271D-02-0.303D-02-0.256D-02-0.529D-02 0.124D-01
 Coeff-Com:  0.363D-01 0.769D-01-0.551D-01-0.394D+00-0.288D+00 0.201D+00
 Coeff-Com:  0.142D+01
 Coeff:      0.206D-02-0.271D-02-0.303D-02-0.256D-02-0.529D-02 0.124D-01
 Coeff:      0.363D-01 0.769D-01-0.551D-01-0.394D+00-0.288D+00 0.201D+00
 Coeff:      0.142D+01
 Gap=     0.159 Goal=   None    Shift=    0.000
 Gap=     0.112 Goal=   None    Shift=    0.000
 RMSDP=1.07D-05 MaxDP=5.24D-04 DE=-4.48D-07 OVMax= 1.35D-03

 Cycle  14  Pass 1  IDiag  1:
 RMSU=  1.76D-06    CP:  1.01D+00  3.00D+00  1.04D+00  8.79D-01  1.24D+00
                    CP:  1.27D+00  1.26D+00  1.63D+00  2.19D+00  2.80D+00
                    CP:  2.66D+00  3.00D+00  2.10D+00
 E= -244.475253326012     Delta-E=       -0.000000434704 Rises=F Damp=F
 DIIS: error= 5.47D-06 at cycle  14 NSaved=  14.
 NSaved=14 IEnMin=14 EnMin= -244.475253326012     IErMin=14 ErrMin= 5.47D-06
 ErrMax= 5.47D-06  0.00D+00 EMaxC= 1.00D-01 BMatC= 3.36D-08 BMatP= 8.47D-08
 IDIUse=1 WtCom= 1.00D+00 WtEn= 0.00D+00
 Coeff-Com: -0.139D-03 0.270D-03 0.851D-03 0.837D-03-0.240D-02-0.126D-01
 Coeff-Com: -0.151D-01 0.291D-01 0.957D-01 0.122D+00-0.110D+00-0.674D+00
 Coeff-Com: -0.340D+00 0.190D+01
 Coeff:     -0.139D-03 0.270D-03 0.851D-03 0.837D-03-0.240D-02-0.126D-01
 Coeff:     -0.151D-01 0.291D-01 0.957D-01 0.122D+00-0.110D+00-0.674D+00
 Coeff:     -0.340D+00 0.190D+01
 Gap=     0.159 Goal=   None    Shift=    0.000
 Gap=     0.112 Goal=   None    Shift=    0.000
 RMSDP=1.22D-05 MaxDP=5.82D-04 DE=-4.35D-07 OVMax= 1.51D-03

 Cycle  15  Pass 1  IDiag  1:
 RMSU=  7.78D-06    CP:  1.01D+00  3.00D+00  1.04D+00  8.79D-01  1.24D+00
                    CP:  1.27D+00  1.29D+00  1.71D+00  2.51D+00  3.00D+00
                    CP:  3.00D+00  3.00D+00  3.00D+00  2.22D+00
 E= -244.475253588060     Delta-E=       -0.000000262048 Rises=F Damp=F
 DIIS: error= 2.19D-06 at cycle  15 NSaved=  15.
 NSaved=15 IEnMin=15 EnMin= -244.475253588060     IErMin=15 ErrMin= 2.19D-06
 ErrMax= 2.19D-06  0.00D+00 EMaxC= 1.00D-01 BMatC= 5.67D-09 BMatP= 3.36D-08
 IDIUse=1 WtCom= 1.00D+00 WtEn= 0.00D+00
 Coeff-Com: -0.632D-03 0.833D-03 0.752D-03 0.697D-03 0.187D-02-0.267D-02
 Coeff-Com: -0.109D-01-0.224D-01 0.114D-01 0.117D+00 0.925D-01-0.454D-01
 Coeff-Com: -0.447D+00-0.113D-01 0.132D+01
 Coeff:     -0.632D-03 0.833D-03 0.752D-03 0.697D-03 0.187D-02-0.267D-02
 Coeff:     -0.109D-01-0.224D-01 0.114D-01 0.117D+00 0.925D-01-0.454D-01
 Coeff:     -0.447D+00-0.113D-01 0.132D+01
 Gap=     0.159 Goal=   None    Shift=    0.000
 Gap=     0.112 Goal=   None    Shift=    0.000
 RMSDP=4.92D-06 MaxDP=2.32D-04 DE=-2.62D-07 OVMax= 6.07D-04

 Cycle  16  Pass 1  IDiag  1:
 RMSU=  1.08D-06    CP:  1.01D+00  3.00D+00  1.04D+00  8.79D-01  1.24D+00
                    CP:  1.27D+00  1.30D+00  1.75D+00  2.64D+00  3.00D+00
                    CP:  3.00D+00  3.00D+00  3.00D+00  2.93D+00  1.52D+00
 E= -244.475253621728     Delta-E=       -0.000000033669 Rises=F Damp=F
 DIIS: error= 8.13D-07 at cycle  16 NSaved=  16.
 NSaved=16 IEnMin=16 EnMin= -244.475253621728     IErMin=16 ErrMin= 8.13D-07
 ErrMax= 8.13D-07  0.00D+00 EMaxC= 1.00D-01 BMatC= 6.56D-10 BMatP= 5.67D-09
 IDIUse=1 WtCom= 1.00D+00 WtEn= 0.00D+00
 Coeff-Com: -0.171D-04 0.104D-04-0.924D-04-0.125D-03 0.282D-03 0.167D-02
 Coeff-Com:  0.223D-02-0.641D-02-0.138D-01-0.689D-02 0.164D-01 0.888D-01
 Coeff-Com:  0.349D-01-0.258D+00-0.507D-03 0.114D+01
 Coeff:     -0.171D-04 0.104D-04-0.924D-04-0.125D-03 0.282D-03 0.167D-02
 Coeff:      0.223D-02-0.641D-02-0.138D-01-0.689D-02 0.164D-01 0.888D-01
 Coeff:      0.349D-01-0.258D+00-0.507D-03 0.114D+01
 Gap=     0.159 Goal=   None    Shift=    0.000
 Gap=     0.112 Goal=   None    Shift=    0.000
 RMSDP=9.44D-07 MaxDP=4.36D-05 DE=-3.37D-08 OVMax= 1.06D-04

 Cycle  17  Pass 1  IDiag  1:
 RMSU=  2.67D-07    CP:  1.01D+00  3.00D+00  1.04D+00  8.79D-01  1.24D+00
                    CP:  1.27D+00  1.30D+00  1.75D+00  2.66D+00  3.00D+00
                    CP:  3.00D+00  3.00D+00  3.00D+00  3.00D+00  1.61D+00
                    CP:  1.23D+00
 E= -244.475253623489     Delta-E=       -0.000000001761 Rises=F Damp=F
 DIIS: error= 3.12D-07 at cycle  17 NSaved=  17.
 NSaved=17 IEnMin=17 EnMin= -244.475253623489     IErMin=17 ErrMin= 3.12D-07
 ErrMax= 3.12D-07  0.00D+00 EMaxC= 1.00D-01 BMatC= 8.80D-11 BMatP= 6.56D-10
 IDIUse=1 WtCom= 1.00D+00 WtEn= 0.00D+00
 Coeff-Com:  0.851D-04-0.113D-03-0.104D-03-0.111D-03-0.257D-03 0.509D-03
 Coeff-Com:  0.166D-02 0.246D-02-0.224D-02-0.153D-01-0.128D-01 0.652D-02
 Coeff-Com:  0.654D-01-0.405D-02-0.195D+00 0.638D-01 0.109D+01
 Coeff:      0.851D-04-0.113D-03-0.104D-03-0.111D-03-0.257D-03 0.509D-03
 Coeff:      0.166D-02 0.246D-02-0.224D-02-0.153D-01-0.128D-01 0.652D-02
 Coeff:      0.654D-01-0.405D-02-0.195D+00 0.638D-01 0.109D+01
 Gap=     0.159 Goal=   None    Shift=    0.000
 Gap=     0.112 Goal=   None    Shift=    0.000
 RMSDP=2.10D-07 MaxDP=8.75D-06 DE=-1.76D-09 OVMax= 2.15D-05

 Cycle  18  Pass 1  IDiag  1:
 RMSU=  6.76D-08    CP:  1.01D+00  3.00D+00  1.04D+00  8.79D-01  1.24D+00
                    CP:  1.27D+00  1.30D+00  1.75D+00  2.66D+00  3.00D+00
                    CP:  3.00D+00  3.00D+00  3.00D+00  3.00D+00  1.63D+00
                    CP:  1.29D+00  1.33D+00
 E= -244.475253623640     Delta-E=       -0.000000000151 Rises=F Damp=F
 DIIS: error= 1.24D-07 at cycle  18 NSaved=  18.
 NSaved=18 IEnMin=18 EnMin= -244.475253623640     IErMin=18 ErrMin= 1.24D-07
 ErrMax= 1.24D-07  0.00D+00 EMaxC= 1.00D-01 BMatC= 1.12D-11 BMatP= 8.80D-11
 IDIUse=1 WtCom= 1.00D+00 WtEn= 0.00D+00
 Coeff-Com: -0.303D-06 0.182D-05 0.132D-04 0.238D-04-0.275D-05-0.218D-03
 Coeff-Com: -0.345D-03 0.906D-03 0.201D-02 0.585D-03-0.161D-02-0.128D-01
 Coeff-Com: -0.609D-02 0.358D-01 0.891D-02-0.160D+00-0.492D-01 0.118D+01
 Coeff:     -0.303D-06 0.182D-05 0.132D-04 0.238D-04-0.275D-05-0.218D-03
 Coeff:     -0.345D-03 0.906D-03 0.201D-02 0.585D-03-0.161D-02-0.128D-01
 Coeff:     -0.609D-02 0.358D-01 0.891D-02-0.160D+00-0.492D-01 0.118D+01
 Gap=     0.159 Goal=   None    Shift=    0.000
 Gap=     0.112 Goal=   None    Shift=    0.000
 RMSDP=4.97D-08 MaxDP=1.85D-06 DE=-1.51D-10 OVMax= 3.53D-06

 Cycle  19  Pass 1  IDiag  1:
 RMSU=  2.62D-08    CP:  1.01D+00  3.00D+00  1.04D+00  8.79D-01  1.24D+00
                    CP:  1.27D+00  1.30D+00  1.75D+00  2.66D+00  3.00D+00
                    CP:  3.00D+00  3.00D+00  3.00D+00  3.00D+00  1.63D+00
                    CP:  1.30D+00  1.42D+00  1.28D+00
 E= -244.475253623662     Delta-E=       -0.000000000022 Rises=F Damp=F
 DIIS: error= 2.99D-08 at cycle  19 NSaved=  19.
 NSaved=19 IEnMin=19 EnMin= -244.475253623662     IErMin=19 ErrMin= 2.99D-08
 ErrMax= 2.99D-08  0.00D+00 EMaxC= 1.00D-01 BMatC= 1.28D-12 BMatP= 1.12D-11
 IDIUse=1 WtCom= 1.00D+00 WtEn= 0.00D+00
 Coeff-Com: -0.703D-05 0.908D-05 0.698D-05 0.803D-05 0.222D-04-0.545D-04
 Coeff-Com: -0.124D-03-0.266D-03 0.576D-04 0.130D-02 0.109D-02 0.157D-02
 Coeff-Com: -0.562D-02-0.455D-02 0.200D-01 0.749D-02-0.113D+00-0.788D-01
 Coeff-Com:  0.117D+01
 Coeff:     -0.703D-05 0.908D-05 0.698D-05 0.803D-05 0.222D-04-0.545D-04
 Coeff:     -0.124D-03-0.266D-03 0.576D-04 0.130D-02 0.109D-02 0.157D-02
 Coeff:     -0.562D-02-0.455D-02 0.200D-01 0.749D-02-0.113D+00-0.788D-01
 Coeff:      0.117D+01
 Gap=     0.159 Goal=   None    Shift=    0.000
 Gap=     0.112 Goal=   None    Shift=    0.000
 RMSDP=1.38D-08 MaxDP=5.59D-07 DE=-2.18D-11 OVMax= 9.71D-07

 Cycle  20  Pass 1  IDiag  1:
 RMSU=  7.43D-09    CP:  1.01D+00  3.00D+00  1.04D+00  8.79D-01  1.24D+00
                    CP:  1.27D+00  1.30D+00  1.75D+00  2.66D+00  3.00D+00
                    CP:  3.00D+00  3.00D+00  3.00D+00  3.00D+00  1.63D+00
                    CP:  1.30D+00  1.44D+00  1.39D+00  1.25D+00
 E= -244.475253623657     Delta-E=        0.000000000005 Rises=F Damp=F
 DIIS: error= 1.30D-08 at cycle  20 NSaved=  20.
 NSaved=20 IEnMin=19 EnMin= -244.475253623662     IErMin=20 ErrMin= 1.30D-08
 ErrMax= 1.30D-08  0.00D+00 EMaxC= 1.00D-01 BMatC= 1.65D-13 BMatP= 1.28D-12
 IDIUse=1 WtCom= 1.00D+00 WtEn= 0.00D+00
 Coeff-Com: -0.112D-05 0.136D-05-0.105D-06-0.153D-05 0.224D-05 0.274D-04
 Coeff-Com:  0.255D-04-0.123D-03-0.198D-03-0.590D-04 0.368D-03 0.139D-02
 Coeff-Com:  0.362D-03-0.449D-02 0.389D-03 0.191D-01 0.872D-03-0.144D+00
 Coeff-Com:  0.176D-01 0.111D+01
 Coeff:     -0.112D-05 0.136D-05-0.105D-06-0.153D-05 0.224D-05 0.274D-04
 Coeff:      0.255D-04-0.123D-03-0.198D-03-0.590D-04 0.368D-03 0.139D-02
 Coeff:      0.362D-03-0.449D-02 0.389D-03 0.191D-01 0.872D-03-0.144D+00
 Coeff:      0.176D-01 0.111D+01
 Gap=     0.159 Goal=   None    Shift=    0.000
 Gap=     0.112 Goal=   None    Shift=    0.000
 RMSDP=6.08D-09 MaxDP=2.85D-07 DE= 4.89D-12 OVMax= 4.89D-07

 SCF Done:  E(UB3LYP) =  -244.475253624     A.U. after   20 cycles
            NFock= 20  Conv=0.61D-08     -V/T= 2.0040
 <Sx>= 0.0000 <Sy>= 0.0000 <Sz>= 1.0000 <S**2>= 2.0167 S= 1.0056
 <L.S>= 0.000000000000E+00
 KE= 2.435101763025D+02 PE=-9.067486671812D+02 EE= 2.442786740948D+02
 Annihilation of the first spin contaminant:
 S**2 before annihilation     2.0167,   after     2.0001
 Leave Link  502 at Tue Aug 16 18:00:18 2016, MaxMem=    33554432 cpu:      1431.7
 (Enter /home/proyectos/fulerenos/M3C-v2.0/M3C-deps_CCC/g09-AM64L-G09RevC.01/l801.exe)
 DoSCS=F DFT=T ScalE2(SS,OS)=  1.000000  1.000000
 Range of M.O.s used for correlation:     1   234
 NBasis=   234 NAE=    19 NBE=    17 NFC=     0 NFV=     0
 NROrb=    234 NOA=    19 NOB=    17 NVA=   215 NVB=   217

 **** Warning!!: The largest alpha MO coefficient is  0.71827201D+02


 **** Warning!!: The largest beta MO coefficient is  0.61554379D+02

 Leave Link  801 at Tue Aug 16 18:00:18 2016, MaxMem=    33554432 cpu:         0.0
 (Enter /home/proyectos/fulerenos/M3C-v2.0/M3C-deps_CCC/g09-AM64L-G09RevC.01/l1101.exe)
 Using compressed storage, NAtomX=     6.
 Will process      7 centers per pass.
 Leave Link 1101 at Tue Aug 16 18:00:19 2016, MaxMem=    33554432 cpu:         0.5
 (Enter /home/proyectos/fulerenos/M3C-v2.0/M3C-deps_CCC/g09-AM64L-G09RevC.01/l1102.exe)
 Symmetrizing basis deriv contribution to polar:
 IMax=3 JMax=2 DiffMx= 0.00D+00
 Leave Link 1102 at Tue Aug 16 18:00:19 2016, MaxMem=    33554432 cpu:         0.1
 (Enter /home/proyectos/fulerenos/M3C-v2.0/M3C-deps_CCC/g09-AM64L-G09RevC.01/l1110.exe)
 Forming Gx(P) for the SCF density, NAtomX=     6.
 Integral derivatives from FoFJK, PRISM(SPDF).
 Do as many integral derivatives as possible in FoFJK.
 G2DrvN: MDV=      33554280.
 G2DrvN: will do     7 centers at a time, making    1 passes.
 Calling FoFCou, ICntrl=  3107 FMM=F I1Cent=   0 AccDes= 0.00D+00.
 FoFJK:  IHMeth= 1 ICntrl=    3107 DoSepK=F KAlg= 0 I1Cent=   0 FoldK=F
 IRaf=         0 NMat=   1 IRICut=       1 DoRegI=T DoRafI=F ISym2E= 0.
 FoFCou: FMM=F IPFlag=           0 FMFlag=      100000 FMFlg1=           0
         NFxFlg=           0 DoJE=F BraDBF=F KetDBF=F FulRan=T
         wScrn=  0.000000 ICntrl=    3107 IOpCl=  1 I1Cent=           0 NGrid=           0
         NMat0=    1 NMatS0=      1 NMatT0=    0 NMatD0=    1 NMtDS0=    0 NMtDT0=    0
 Symmetry not used in FoFCou.
 End of G2Drv F.D. properties file   721 does not exist.
 End of G2Drv F.D. properties file   722 does not exist.
 End of G2Drv F.D. properties file   788 does not exist.
 Leave Link 1110 at Tue Aug 16 18:12:33 2016, MaxMem=    33554432 cpu:       733.2
 (Enter /home/proyectos/fulerenos/M3C-v2.0/M3C-deps_CCC/g09-AM64L-G09RevC.01/l1002.exe)
 Minotr:  UHF open shell wavefunction.
          IDoAtm=111111
          Direct CPHF calculation.
          Differentiating once with respect to electric field.
                with respect to dipole field.
          Differentiating once with respect to nuclear coordinates.
          Requested convergence is 1.0D-08 RMS, and 1.0D-07 maximum.
          Secondary convergence is 1.0D-12 RMS, and 1.0D-12 maximum.
          NewPWx=T KeepS1=F KeepF1=F KeepIn=T MapXYZ=F SortEE=F KeepMc=T.
          MDV=      33553900 using IRadAn=       2.
 Generate precomputed XC quadrature information.
          Solving linear equations simultaneously, MaxMat=       0.
 FoFJK:  IHMeth= 1 ICntrl=       0 DoSepK=F KAlg= 0 I1Cent=   0 FoldK=F
 IRaf= 990000000 NMat=  21 IRICut=      52 DoRegI=T DoRafI=T ISym2E= 2.
 FoFCou: FMM=F IPFlag=           0 FMFlag=      100000 FMFlg1=           0
         NFxFlg=           0 DoJE=F BraDBF=F KetDBF=F FulRan=T
         wScrn=  0.000000 ICntrl=       0 IOpCl=  1 I1Cent=           0 NGrid=           0
         NMat0=   21 NMatS0=     21 NMatT0=    0 NMatD0=   21 NMtDS0=    0 NMtDT0=    0
 Integrals replicated using symmetry in FoFCou.
          There are    21 degrees of freedom in the 1st order CPHF.  IDoFFX=6 NUNeed=     3.
     18 vectors produced by pass  0 Test12= 3.70D-14 4.76D-09 XBig12= 1.92D+02 7.05D+00.
 AX will form    18 AO Fock derivatives at one time.
     18 vectors produced by pass  1 Test12= 3.70D-14 4.76D-09 XBig12= 8.19D+01 1.51D+00.
     18 vectors produced by pass  2 Test12= 3.70D-14 4.76D-09 XBig12= 4.92D+00 5.99D-01.
     18 vectors produced by pass  3 Test12= 3.70D-14 4.76D-09 XBig12= 3.65D-01 1.46D-01.
     18 vectors produced by pass  4 Test12= 3.70D-14 4.76D-09 XBig12= 9.24D-03 1.96D-02.
     18 vectors produced by pass  5 Test12= 3.70D-14 4.76D-09 XBig12= 1.74D-04 2.64D-03.
     18 vectors produced by pass  6 Test12= 3.70D-14 4.76D-09 XBig12= 1.63D-06 1.67D-04.
     18 vectors produced by pass  7 Test12= 3.70D-14 4.76D-09 XBig12= 1.04D-08 1.26D-05.
      9 vectors produced by pass  8 Test12= 3.70D-14 4.76D-09 XBig12= 8.49D-11 1.40D-06.
      3 vectors produced by pass  9 Test12= 3.70D-14 4.76D-09 XBig12= 4.53D-13 8.67D-08.
      3 vectors produced by pass 10 Test12= 3.70D-14 4.76D-09 XBig12= 5.43D-14 4.17D-08.
      1 vectors produced by pass 11 Test12= 3.70D-14 4.76D-09 XBig12= 5.33D-16 6.58D-09.
 InvSVY:  IOpt=1 It=  1 EMax= 1.07D-14
 Solved reduced A of dimension   160 with    21 vectors.
 FullF1:  Do perturbations    1 to     3.
 Isotropic polarizability for W=    0.000000       45.36 Bohr**3.
 End of Minotr F.D. properties file   721 does not exist.
 End of Minotr F.D. properties file   722 does not exist.
 End of Minotr F.D. properties file   788 does not exist.
 Leave Link 1002 at Tue Aug 16 18:41:43 2016, MaxMem=    33554432 cpu:      1748.5
 (Enter /home/proyectos/fulerenos/M3C-v2.0/M3C-deps_CCC/g09-AM64L-G09RevC.01/l601.exe)
 Copying SCF densities to generalized density rwf, IOpCl= 1 IROHF=0.

 **********************************************************************

            Population analysis using the SCF density.

 **********************************************************************

 Orbital symmetries:
 Alpha Orbitals:
       Occupied  (A) (A) (A) (A) (A) (A) (A) (A) (A) (A) (A) (A)
                 (A) (A) (A) (A) (A) (A) (A)
       Virtual   (A) (A) (A) (A) (A) (A) (A) (A) (A) (A) (A) (A)
                 (A) (A) (A) (A) (A) (A) (A) (A) (A) (A) (A) (A)
                 (A) (A) (A) (A) (A) (A) (A) (A) (A) (A) (A) (A)
                 (A) (A) (A) (A) (A) (A) (A) (A) (A) (A) (A) (A)
                 (A) (A) (A) (A) (A) (A) (A) (A) (A) (A) (A) (A)
                 (A) (A) (A) (A) (A) (A) (A) (A) (A) (A) (A) (A)
                 (A) (A) (A) (A) (A) (A) (A) (A) (A) (A) (A) (A)
                 (A) (A) (A) (A) (A) (A) (A) (A) (A) (A) (A) (A)
                 (A) (A) (A) (A) (A) (A) (A) (A) (A) (A) (A) (A)
                 (A) (A) (A) (A) (A) (A) (A) (A) (A) (A) (A) (A)
                 (A) (A) (A) (A) (A) (A) (A) (A) (A) (A) (A) (A)
                 (A) (A) (A) (A) (A) (A) (A) (A) (A) (A) (A) (A)
                 (A) (A) (A) (A) (A) (A) (A) (A) (A) (A) (A) (A)
                 (A) (A) (A) (A) (A) (A) (A) (A) (A) (A) (A) (A)
                 (A) (A) (A) (A) (A) (A) (A) (A) (A) (A) (A) (A)
                 (A) (A) (A) (A) (A) (A) (A) (A) (A) (A) (A) (A)
                 (A) (A) (A) (A) (A) (A) (A) (A) (A) (A) (A) (A)
                 (A) (A) (A) (A) (A) (A) (A) (A) (A) (A) (A)
 Beta  Orbitals:
       Occupied  (A) (A) (A) (A) (A) (A) (A) (A) (A) (A) (A) (A)
                 (A) (A) (A) (A) (A)
       Virtual   (A) (A) (A) (A) (A) (A) (A) (A) (A) (A) (A) (A)
                 (A) (A) (A) (A) (A) (A) (A) (A) (A) (A) (A) (A)
                 (A) (A) (A) (A) (A) (A) (A) (A) (A) (A) (A) (A)
                 (A) (A) (A) (A) (A) (A) (A) (A) (A) (A) (A) (A)
                 (A) (A) (A) (A) (A) (A) (A) (A) (A) (A) (A) (A)
                 (A) (A) (A) (A) (A) (A) (A) (A) (A) (A) (A) (A)
                 (A) (A) (A) (A) (A) (A) (A) (A) (A) (A) (A) (A)
                 (A) (A) (A) (A) (A) (A) (A) (A) (A) (A) (A) (A)
                 (A) (A) (A) (A) (A) (A) (A) (A) (A) (A) (A) (A)
                 (A) (A) (A) (A) (A) (A) (A) (A) (A) (A) (A) (A)
                 (A) (A) (A) (A) (A) (A) (A) (A) (A) (A) (A) (A)
                 (A) (A) (A) (A) (A) (A) (A) (A) (A) (A) (A) (A)
                 (A) (A) (A) (A) (A) (A) (A) (A) (A) (A) (A) (A)
                 (A) (A) (A) (A) (A) (A) (A) (A) (A) (A) (A) (A)
                 (A) (A) (A) (A) (A) (A) (A) (A) (A) (A) (A) (A)
                 (A) (A) (A) (A) (A) (A) (A) (A) (A) (A) (A) (A)
                 (A) (A) (A) (A) (A) (A) (A) (A) (A) (A) (A) (A)
                 (A) (A) (A) (A) (A) (A) (A) (A) (A) (A) (A) (A)
                 (A)
 The electronic state is 3-A.
 Alpha  occ. eigenvalues --  -14.70967 -10.60035 -10.59679 -10.59017 -10.58429
 Alpha  occ. eigenvalues --  -10.55288  -1.42537  -1.12121  -1.07757  -0.96916
 Alpha  occ. eigenvalues --   -0.80165  -0.77674  -0.75851  -0.71181  -0.67695
 Alpha  occ. eigenvalues --   -0.65101  -0.59443  -0.58193  -0.54287
 Alpha virt. eigenvalues --   -0.38369  -0.37507  -0.35485  -0.26326  -0.18691
 Alpha virt. eigenvalues --   -0.13703  -0.13131  -0.11670  -0.09771  -0.09652
 Alpha virt. eigenvalues --   -0.08495  -0.07869  -0.07475  -0.06792  -0.05989
 Alpha virt. eigenvalues --   -0.05267  -0.03741  -0.01932  -0.01140  -0.00610
 Alpha virt. eigenvalues --   -0.00252  -0.00084   0.01347   0.01637   0.02979
 Alpha virt. eigenvalues --    0.04200   0.05544   0.05807   0.06575   0.06961
 Alpha virt. eigenvalues --    0.07886   0.09402   0.09539   0.13245   0.14512
 Alpha virt. eigenvalues --    0.17593   0.18285   0.19966   0.21194   0.22096
 Alpha virt. eigenvalues --    0.24286   0.25169   0.26528   0.27692   0.28353
 Alpha virt. eigenvalues --    0.29411   0.31530   0.32431   0.33447   0.34453
 Alpha virt. eigenvalues --    0.36594   0.37990   0.38699   0.39942   0.40301
 Alpha virt. eigenvalues --    0.41107   0.44124   0.44198   0.45889   0.47460
 Alpha virt. eigenvalues --    0.48301   0.49290   0.50480   0.53936   0.54569
 Alpha virt. eigenvalues --    0.54961   0.57916   0.60471   0.64430   0.65365
 Alpha virt. eigenvalues --    0.66362   0.68664   0.72915   0.74913   0.76544
 Alpha virt. eigenvalues --    0.79697   0.80562   0.82518   0.82801   0.85457
 Alpha virt. eigenvalues --    0.88432   0.94202   1.02020   1.05240   1.08041
 Alpha virt. eigenvalues --    1.10293   1.12438   1.16924   1.20903   1.21528
 Alpha virt. eigenvalues --    1.23931   1.27397   1.28894   1.34273   1.36509
 Alpha virt. eigenvalues --    1.40043   1.41720   1.44140   1.46047   1.55395
 Alpha virt. eigenvalues --    1.57090   1.61336   1.61602   1.64667   1.65849
 Alpha virt. eigenvalues --    1.73240   1.76673   1.78620   1.82764   1.85776
 Alpha virt. eigenvalues --    1.87133   1.89733   1.97425   2.01531   2.08958
 Alpha virt. eigenvalues --    2.16475   2.20535   2.24993   2.27362   2.32492
 Alpha virt. eigenvalues --    2.40650   2.42208   2.47420   2.52067   2.52752
 Alpha virt. eigenvalues --    2.55803   2.58626   2.61072   2.65318   2.67696
 Alpha virt. eigenvalues --    2.68791   2.71068   2.73975   2.76346   2.79973
 Alpha virt. eigenvalues --    2.84104   2.90618   2.91397   2.96878   2.98156
 Alpha virt. eigenvalues --    2.99907   3.02013   3.05671   3.09480   3.12996
 Alpha virt. eigenvalues --    3.14213   3.19107   3.23307   3.25352   3.29270
 Alpha virt. eigenvalues --    3.32653   3.38244   3.46639   3.54316   3.61239
 Alpha virt. eigenvalues --    3.69948   3.75778   3.77696   3.82918   3.91636
 Alpha virt. eigenvalues --    3.93584   3.95136   3.96944   3.99298   4.02091
 Alpha virt. eigenvalues --    4.10811   4.15519   4.20496   4.26900   4.33860
 Alpha virt. eigenvalues --    4.43828   4.48307   4.57145   4.70101   4.74018
 Alpha virt. eigenvalues --    4.79288   5.12617   5.24413   5.44526   6.65192
 Alpha virt. eigenvalues --    6.70971   6.73536   6.80977   6.86232   6.88961
 Alpha virt. eigenvalues --    6.96007   6.98154   7.04953   7.12179   7.16809
 Alpha virt. eigenvalues --    7.18679   7.22251   7.30006   7.32924   7.42168
 Alpha virt. eigenvalues --    7.49522   7.56529   7.59934   7.63609   7.71163
 Alpha virt. eigenvalues --    7.79090   7.87391   8.45841   8.62840  10.08251
 Alpha virt. eigenvalues --   10.12390  10.31968  10.63507  10.95286  23.89271
 Alpha virt. eigenvalues --   24.18967  24.32687  24.49829  24.56992  35.78383
  Beta  occ. eigenvalues --  -14.70584 -10.59499 -10.58268 -10.58171 -10.57389
  Beta  occ. eigenvalues --  -10.55199  -1.41372  -1.10978  -1.05378  -0.95607
  Beta  occ. eigenvalues --   -0.78501  -0.74917  -0.71661  -0.70229  -0.65494
  Beta  occ. eigenvalues --   -0.63207  -0.55103
  Beta virt. eigenvalues --   -0.43913  -0.41381  -0.36734  -0.35625  -0.34521
  Beta virt. eigenvalues --   -0.23761  -0.17828  -0.13399  -0.12193  -0.11106
  Beta virt. eigenvalues --   -0.09374  -0.08807  -0.08195  -0.07475  -0.07099
  Beta virt. eigenvalues --   -0.06563  -0.05082  -0.04583  -0.03263  -0.01115
  Beta virt. eigenvalues --   -0.00711  -0.00434  -0.00033   0.00358   0.01557
  Beta virt. eigenvalues --    0.02463   0.03366   0.04533   0.05883   0.06136
  Beta virt. eigenvalues --    0.06951   0.07426   0.08470   0.09579   0.10226
  Beta virt. eigenvalues --    0.13927   0.15714   0.18444   0.19225   0.20509
  Beta virt. eigenvalues --    0.22472   0.22566   0.25287   0.26358   0.26944
  Beta virt. eigenvalues --    0.28102   0.29521   0.30044   0.32508   0.33102
  Beta virt. eigenvalues --    0.34210   0.35295   0.37538   0.38648   0.39290
  Beta virt. eigenvalues --    0.40332   0.41688   0.42784   0.44722   0.44869
  Beta virt. eigenvalues --    0.46694   0.48112   0.49099   0.49791   0.51265
  Beta virt. eigenvalues --    0.54374   0.54955   0.55508   0.58503   0.60987
  Beta virt. eigenvalues --    0.64815   0.65732   0.66922   0.69106   0.73516
  Beta virt. eigenvalues --    0.75498   0.77168   0.80320   0.81364   0.83132
  Beta virt. eigenvalues --    0.83750   0.86198   0.89240   0.95191   1.03617
  Beta virt. eigenvalues --    1.05893   1.08849   1.11568   1.13371   1.18464
  Beta virt. eigenvalues --    1.22168   1.23163   1.25266   1.28589   1.30328
  Beta virt. eigenvalues --    1.35937   1.39104   1.41338   1.43792   1.45476
  Beta virt. eigenvalues --    1.47346   1.57306   1.58867   1.62928   1.63257
  Beta virt. eigenvalues --    1.67414   1.68714   1.75832   1.79228   1.80496
  Beta virt. eigenvalues --    1.84138   1.87591   1.88608   1.92916   2.00063
  Beta virt. eigenvalues --    2.02343   2.11060   2.18364   2.21779   2.26673
  Beta virt. eigenvalues --    2.28668   2.33920   2.42057   2.43515   2.49080
  Beta virt. eigenvalues --    2.53768   2.54712   2.57449   2.60101   2.62564
  Beta virt. eigenvalues --    2.66943   2.68926   2.69714   2.72872   2.75057
  Beta virt. eigenvalues --    2.77500   2.81844   2.85983   2.92109   2.93153
  Beta virt. eigenvalues --    2.98026   2.99724   3.01817   3.03701   3.07529
  Beta virt. eigenvalues --    3.11302   3.14385   3.15865   3.21533   3.24218
  Beta virt. eigenvalues --    3.27761   3.31343   3.33699   3.39269   3.47571
  Beta virt. eigenvalues --    3.55563   3.61991   3.71121   3.77283   3.79102
  Beta virt. eigenvalues --    3.85871   3.93340   3.94463   3.96720   3.98756
  Beta virt. eigenvalues --    4.01787   4.03506   4.11677   4.16500   4.22638
  Beta virt. eigenvalues --    4.27568   4.35263   4.46289   4.49128   4.58323
  Beta virt. eigenvalues --    4.71501   4.74996   4.80140   5.13589   5.26753
  Beta virt. eigenvalues --    5.45183   6.67758   6.72822   6.77072   6.83166
  Beta virt. eigenvalues --    6.87847   6.90842   6.97601   7.00454   7.06705
  Beta virt. eigenvalues --    7.13731   7.18900   7.20906   7.25019   7.32101
  Beta virt. eigenvalues --    7.35260   7.44252   7.50796   7.57999   7.63169
  Beta virt. eigenvalues --    7.67306   7.72355   7.82158   7.88251   8.46788
  Beta virt. eigenvalues --    8.64983  10.09612  10.13406  10.33185  10.64789
  Beta virt. eigenvalues --   10.96232  23.90482  24.19748  24.33419  24.50289
  Beta virt. eigenvalues --   24.58376  35.78781
          Condensed to atoms (all electrons):
               1          2          3          4          5          6
     1  C    7.288388  -0.427378   0.070678  -0.828820  -0.628470  -0.311172
     2  C   -0.427378   8.037009  -0.809573  -1.551426   0.076493  -0.039821
     3  C    0.070678  -0.809573   7.118718   0.057891  -0.620522   0.000150
     4  C   -0.828820  -1.551426   0.057891   8.495552   0.174690  -0.052604
     5  C   -0.628470   0.076493  -0.620522   0.174690   6.939932   0.014158
     6  N   -0.311172  -0.039821   0.000150  -0.052604   0.014158   7.871855
          Atomic-Atomic Spin Densities.
               1          2          3          4          5          6
     1  C    0.329885   0.036364   0.092658  -0.132759  -0.343146   0.022066
     2  C    0.036364   0.544332  -0.526264  -0.033133   0.099689  -0.116594
     3  C    0.092658  -0.526264   1.825720  -0.066402  -0.426110   0.071222
     4  C   -0.132759  -0.033133  -0.066402   0.201846   0.100941   0.017513
     5  C   -0.343146   0.099689  -0.426110   0.100941   1.399139  -0.051411
     6  N    0.022066  -0.116594   0.071222   0.017513  -0.051411   0.209807
 Mulliken charges and spin densities:
               1          2
     1  C    0.836775   0.005069
     2  C    0.714695   0.004395
     3  C    0.182658   0.970824
     4  C   -0.295282   0.088007
     5  C    0.043719   0.779102
     6  N   -0.482566   0.152604
 Sum of Mulliken charges =   1.00000   2.00000
 Mulliken charges and spin densities with hydrogens summed into heavy atoms:
               1          2
     1  C    0.836775   0.005069
     2  C    0.714695   0.004395
     3  C    0.182658   0.970824
     4  C   -0.295282   0.088007
     5  C    0.043719   0.779102
     6  N   -0.482566   0.152604
 APT charges:
               1
     1  C    0.072848
     2  C    0.086098
     3  C    0.329100
     4  C    0.226778
     5  C    0.223174
     6  N    0.062003
 Sum of APT charges =   1.00000
 APT charges with hydrogens summed into heavy atoms:
               1
     1  C    0.072848
     2  C    0.086098
     3  C    0.329100
     4  C    0.226778
     5  C    0.223174
     6  N    0.062003
 Electronic spatial extent (au):  <R**2>=            249.0755
 Charge=              1.0000 electrons
 Dipole moment (field-independent basis, Debye):
    X=             -0.7840    Y=              0.7179    Z=              0.0177  Tot=              1.0631
 Quadrupole moment (field-independent basis, Debye-Ang):
   XX=            -29.2430   YY=            -26.0049   ZZ=            -28.5623
   XY=             -1.9139   XZ=              2.0718   YZ=              1.5552
 Traceless Quadrupole moment (field-independent basis, Debye-Ang):
   XX=             -1.3063   YY=              1.9319   ZZ=             -0.6256
   XY=             -1.9139   XZ=              2.0718   YZ=              1.5552
 Octapole moment (field-independent basis, Debye-Ang**2):
  XXX=             -7.5633  YYY=             -0.1085  ZZZ=              2.5835  XYY=             -1.5407
  XXY=             -1.4402  XXZ=              1.9983  XZZ=             -1.6326  YZZ=             -0.5091
  YYZ=              0.2872  XYZ=              0.1152
 Hexadecapole moment (field-independent basis, Debye-Ang**3):
 XXXX=           -165.1001 YYYY=           -105.3328 ZZZZ=            -77.9050 XXXY=             -4.2385
 XXXZ=              6.1659 YYYX=             -1.9201 YYYZ=              1.6411 ZZZX=              2.5014
 ZZZY=              0.8793 XXYY=            -43.1113 XXZZ=            -40.7296 YYZZ=            -30.4356
 XXYZ=              1.0646 YYXZ=              0.9925 ZZXY=             -0.6003
 N-N= 1.744845631602D+02 E-N=-9.067486674267D+02  KE= 2.435101763025D+02
  Exact polarizability:  53.551  -1.146  44.272   1.448   1.295  38.265
 Approx polarizability: 109.407  -5.059 103.534   6.483   7.774  84.530
                          Isotropic Fermi Contact Couplings
        Atom                 a.u.       MegaHertz       Gauss      10(-4) cm-1
     1  C(13)              0.07744      43.52787      15.53183      14.51934
     2  C(13)              0.01594       8.95864       3.19667       2.98828
     3  C(13)              0.49233     276.73692      98.74661      92.30950
     4  C(13)              0.00664       3.73436       1.33251       1.24565
     5  C(13)              0.60344     339.18972     121.03132     113.14151
     6  N(14)             -0.01020      -1.64769      -0.58794      -0.54961
 --------------------------------------------------------
       Center         ----  Spin Dipole Couplings  ----
                      3XX-RR        3YY-RR        3ZZ-RR
 --------------------------------------------------------
     1   Atom       -0.042852      0.027577      0.015275
     2   Atom        0.053112     -0.001807     -0.051305
     3   Atom       -0.421903      1.001480     -0.579576
     4   Atom       -0.094572      0.030131      0.064441
     5   Atom        0.555137     -0.355703     -0.199434
     6   Atom        0.047898      0.231099     -0.278996
 --------------------------------------------------------
                        XY            XZ            YZ
 --------------------------------------------------------
     1   Atom       -0.023885      0.030533      0.019425
     2   Atom       -0.101006      0.157121     -0.055477
     3   Atom        0.101824      0.049106      0.008529
     4   Atom        0.081568     -0.014457     -0.131626
     5   Atom        0.137779      0.582766      0.099539
     6   Atom       -0.024364     -0.037391     -0.012602
 --------------------------------------------------------


 ---------------------------------------------------------------------------------
              Anisotropic Spin Dipole Couplings in Principal Axis System
 ---------------------------------------------------------------------------------

       Atom             a.u.   MegaHertz   Gauss  10(-4) cm-1        Axes

              Baa    -0.0654    -8.782    -3.134    -2.929  0.8640  0.3054 -0.4003
     1 C(13)  Bbb     0.0236     3.168     1.130     1.057  0.5029 -0.4828  0.7169
              Bcc     0.0418     5.614     2.003     1.873 -0.0257  0.8207  0.5708
 
              Baa    -0.1663   -22.310    -7.961    -7.442 -0.6122 -0.1119  0.7827
     2 C(13)  Bbb    -0.0582    -7.806    -2.785    -2.604  0.2968  0.8850  0.3587
              Bcc     0.2244    30.115    10.746    10.045  0.7329 -0.4519  0.5086
 
              Baa    -0.5939   -79.692   -28.436   -26.582 -0.2816  0.0128  0.9595
     3 C(13)  Bbb    -0.4149   -55.681   -19.869   -18.573  0.9569 -0.0705  0.2818
              Bcc     1.0088   135.374    48.305    45.156  0.0712  0.9974  0.0076
 
              Baa    -0.1493   -20.029    -7.147    -6.681  0.7678 -0.5675 -0.2976
     4 C(13)  Bbb    -0.0457    -6.134    -2.189    -2.046  0.6000  0.4737  0.6447
              Bcc     0.1950    26.163     9.336     8.727 -0.2249 -0.6735  0.7041
 
              Baa    -0.5196   -69.730   -24.882   -23.260 -0.4565 -0.1489  0.8772
     5 C(13)  Bbb    -0.3752   -50.346   -17.965   -16.794 -0.1880  0.9798  0.0685
              Bcc     0.8948   120.076    42.846    40.053  0.8696  0.1336  0.4753
 
              Baa    -0.2837   -10.941    -3.904    -3.649  0.1142  0.0297  0.9930
     6 N(14)  Bbb     0.0493     1.900     0.678     0.634  0.9854  0.1239 -0.1170
              Bcc     0.2344     9.040     3.226     3.016 -0.1265  0.9918 -0.0151
 

 ---------------------------------------------------------------------------------

 No NMR shielding tensors so no spin-rotation constants.
 Leave Link  601 at Tue Aug 16 18:41:44 2016, MaxMem=    33554432 cpu:         0.5
 (Enter /home/proyectos/fulerenos/M3C-v2.0/M3C-deps_CCC/g09-AM64L-G09RevC.01/l701.exe)
 Compute integral second derivatives.
 ... and contract with generalized density number  0.
 Leave Link  701 at Tue Aug 16 18:41:44 2016, MaxMem=    33554432 cpu:         0.5
 (Enter /home/proyectos/fulerenos/M3C-v2.0/M3C-deps_CCC/g09-AM64L-G09RevC.01/l702.exe)
 L702 exits ... SP integral derivatives will be done elsewhere.
 Leave Link  702 at Tue Aug 16 18:41:45 2016, MaxMem=    33554432 cpu:         0.0
 (Enter /home/proyectos/fulerenos/M3C-v2.0/M3C-deps_CCC/g09-AM64L-G09RevC.01/l703.exe)
 Compute integral second derivatives, UseDBF=F ICtDFT=           0.
 Integral derivatives from FoFJK, PRISM(SPDF).
 Calling FoFJK, ICntrl=    100127 FMM=F ISym2X=0 I1Cent= 0 IOpClX= 1 NMat=1 NMatS=1 NMatT=0.
 FoFJK:  IHMeth= 1 ICntrl=  100127 DoSepK=F KAlg= 0 I1Cent=   0 FoldK=F
 IRaf=         0 NMat=   1 IRICut=       1 DoRegI=T DoRafI=F ISym2E= 0.
 FoFCou: FMM=F IPFlag=           0 FMFlag=      100000 FMFlg1=         800
         NFxFlg=           0 DoJE=F BraDBF=F KetDBF=F FulRan=T
         wScrn=  0.000000 ICntrl=  100127 IOpCl=  1 I1Cent=           0 NGrid=           0
         NMat0=    1 NMatS0=      1 NMatT0=    0 NMatD0=    1 NMtDS0=    0 NMtDT0=    0
 Symmetry not used in FoFCou.
 Leave Link  703 at Tue Aug 16 18:52:30 2016, MaxMem=    33554432 cpu:       644.6
 (Enter /home/proyectos/fulerenos/M3C-v2.0/M3C-deps_CCC/g09-AM64L-G09RevC.01/l716.exe)
 Dipole        =-3.08437600D-01 2.82435356D-01 6.96501388D-03
 Polarizability= 5.35511221D+01-1.14641069D+00 4.42718374D+01
                 1.44846028D+00 1.29495131D+00 3.82651342D+01
 Full mass-weighted force constant matrix:
 Low frequencies ---   -9.1607   -0.0009   -0.0008    0.0005   16.9435   26.2228
 Low frequencies ---  190.4059  270.1452  534.8769
 Diagonal vibrational polarizability:
        1.5451210       6.6236935       0.5943306
 Harmonic frequencies (cm**-1), IR intensities (KM/Mole), Raman scattering
 activities (A**4/AMU), depolarization ratios for plane and unpolarized
 incident light, reduced masses (AMU), force constants (mDyne/A),
 and normal coordinates:
                      1                      2                      3
                      A                      A                      A
 Frequencies --    190.4009               270.1443               534.8759
 Red. masses --     12.0523                12.2025                12.7434
 Frc consts  --      0.2574                 0.5247                 2.1480
 IR Inten    --      9.0054                 0.4117                 0.6938
  Atom  AN      X      Y      Z        X      Y      Z        X      Y      Z
     1   6    -0.00  -0.15   0.11     0.14   0.22  -0.20    -0.31   0.11  -0.14
     2   6    -0.08  -0.26   0.25    -0.05   0.03   0.11    -0.20  -0.13  -0.15
     3   6     0.48  -0.03  -0.25     0.26  -0.01  -0.36     0.11   0.09  -0.31
     4   6    -0.42   0.54  -0.14     0.12  -0.03   0.19     0.08  -0.01   0.38
     5   6     0.13   0.04  -0.04    -0.31  -0.32   0.58    -0.25   0.30  -0.04
     6   7    -0.09  -0.12   0.06    -0.13   0.09  -0.27     0.48  -0.31   0.22
                      4                      5                      6
                      A                      A                      A
 Frequencies --    574.3585               646.4838               768.7305
 Red. masses --     12.1862                12.6475                12.1945
 Frc consts  --      2.3686                 3.1144                 4.2458
 IR Inten    --      1.2282                 5.8342                 8.3372
  Atom  AN      X      Y      Z        X      Y      Z        X      Y      Z
     1   6     0.29   0.55  -0.01     0.02  -0.25  -0.38     0.13  -0.34  -0.15
     2   6    -0.33  -0.20   0.26    -0.28  -0.44  -0.24    -0.27   0.23   0.01
     3   6     0.02   0.01  -0.02    -0.03   0.04   0.15    -0.02   0.50   0.07
     4   6    -0.22  -0.34  -0.28     0.11   0.20   0.12    -0.38  -0.23   0.03
     5   6    -0.00  -0.15  -0.18     0.11  -0.16   0.09     0.30   0.00   0.26
     6   7     0.20   0.11   0.20     0.06   0.52   0.23     0.21  -0.14  -0.18
                      7                      8                      9
                      A                      A                      A
 Frequencies --    868.1969               928.6132              1080.7877
 Red. masses --     12.4468                12.1022                12.0027
 Frc consts  --      5.5277                 6.1487                 8.2606
 IR Inten    --      7.6186                 4.4739                 3.0850
  Atom  AN      X      Y      Z        X      Y      Z        X      Y      Z
     1   6    -0.20  -0.14  -0.31     0.41  -0.39   0.19     0.12  -0.01   0.05
     2   6     0.30   0.17   0.43    -0.22  -0.09   0.18    -0.30   0.40  -0.39
     3   6    -0.03  -0.35   0.00    -0.09  -0.10  -0.06     0.49  -0.35   0.36
     4   6    -0.34  -0.09   0.19     0.18  -0.01  -0.22    -0.14  -0.00   0.09
     5   6    -0.08   0.02  -0.14    -0.43   0.46   0.06    -0.20  -0.06  -0.12
     6   7     0.30   0.33  -0.14     0.13   0.12  -0.14     0.03   0.02   0.01
                     10                     11                     12
                      A                      A                      A
 Frequencies --   1107.0342              1189.3392              1286.5224
 Red. masses --     12.0824                12.0228                12.6446
 Frc consts  --      8.7242                10.0200                12.3308
 IR Inten    --     21.0891                 2.1795                 1.1265
  Atom  AN      X      Y      Z        X      Y      Z        X      Y      Z
     1   6    -0.27  -0.08  -0.33    -0.15  -0.15   0.04    -0.44   0.07   0.53
     2   6    -0.37   0.33   0.40     0.08  -0.05   0.22    -0.27  -0.11  -0.04
     3   6     0.08  -0.15   0.02     0.24   0.53   0.24     0.01  -0.10  -0.02
     4   6     0.45   0.05  -0.30     0.18   0.03  -0.06     0.12   0.01  -0.08
     5   6     0.20   0.01   0.04    -0.43  -0.37  -0.36     0.23  -0.13   0.09
     6   7    -0.07  -0.12   0.14     0.07   0.00  -0.08     0.30   0.22  -0.42

 -------------------
 - Thermochemistry -
 -------------------
 Temperature   298.150 Kelvin.  Pressure   1.00000 Atm.
 Atom     1 has atomic number  6 and mass  12.00000
 Atom     2 has atomic number  6 and mass  12.00000
 Atom     3 has atomic number  6 and mass  12.00000
 Atom     4 has atomic number  6 and mass  12.00000
 Atom     5 has atomic number  6 and mass  12.00000
 Atom     6 has atomic number  7 and mass  14.00307
 Molecular mass:    74.00307 amu.
 Principal axes and moments of inertia in atomic units:
                           1         2         3
     Eigenvalues --   199.38814 248.38643 299.31440
           X            1.00000  -0.00011   0.00003
           Y            0.00011   1.00000   0.00011
           Z           -0.00003  -0.00011   1.00000
 This molecule is an asymmetric top.
 Rotational symmetry number  1.
 Rotational temperatures (Kelvin)      0.43440     0.34871     0.28937
 Rotational constants (GHZ):           9.05140     7.26586     6.02958
 Zero-point vibrational energy      56496.6 (Joules/Mol)
                                   13.50300 (Kcal/Mol)
 Warning -- explicit consideration of   4 degrees of freedom as
           vibrations may cause significant error
 Vibrational temperatures:    273.94   388.68   769.57   826.37   930.14
          (Kelvin)           1106.03  1249.14  1336.07  1555.01  1592.77
                             1711.19  1851.02
 
 Zero-point correction=                           0.021518 (Hartree/Particle)
 Thermal correction to Energy=                    0.026174
 Thermal correction to Enthalpy=                  0.027118
 Thermal correction to Gibbs Free Energy=        -0.006711
 Sum of electronic and zero-point Energies=           -244.453735
 Sum of electronic and thermal Energies=              -244.449080
 Sum of electronic and thermal Enthalpies=            -244.448136
 Sum of electronic and thermal Free Energies=         -244.481964
 
                     E (Thermal)             CV                S
                      KCal/Mol        Cal/Mol-Kelvin    Cal/Mol-Kelvin
 Total                   16.424             15.386             71.198
 Electronic               0.000              0.000              2.183
 Translational            0.889              2.981             38.821
 Rotational               0.889              2.981             24.209
 Vibrational             14.647              9.424              5.985
 Vibration     1          0.634              1.853              2.224
 Vibration     2          0.674              1.728              1.595
 Vibration     3          0.890              1.173              0.576
 Vibration     4          0.931              1.087              0.496
                       Q            Log10(Q)             Ln(Q)
 Total Bot       0.122083D+04          3.086655          7.107286
 Total V=0       0.964744D+13         12.984412         29.897714
 Vib (Bot)       0.373147D-09         -9.428120        -21.709049
 Vib (Bot)    1  0.105100D+01          0.021602          0.049741
 Vib (Bot)    2  0.715349D+00         -0.145482         -0.334985
 Vib (Bot)    3  0.297642D+00         -0.526306         -1.211863
 Vib (Bot)    4  0.266806D+00         -0.573805         -1.321234
 Vib (V=0)       0.294875D+01          0.469637          1.081380
 Vib (V=0)    1  0.166387D+01          0.221120          0.509148
 Vib (V=0)    2  0.137277D+01          0.137597          0.316829
 Vib (V=0)    3  0.108189D+01          0.034181          0.078705
 Vib (V=0)    4  0.106673D+01          0.028055          0.064600
 Electronic      0.300000D+01          0.477121          1.098612
 Translational   0.250225D+08          7.398330         17.035284
 Rotational      0.435837D+05          4.639324         10.682438
 
                                                              b3lyp opt
                                                             IR Spectrum
 
     1         1       1  1                                                                                                          
     2         1       1  0              9     8         7           6      5   5                         2       1                  
     8         8       0  8              2     6         6           4      7   3                         7       9                  
     7         9       7  1              9     8         9           6      4   5                         0       0                  
 
     X         X       X  X              X     X         X           X      X   X                         X       X                  
               X       X  X              X     X         X           X                                            X                  
                       X  X              X     X         X           X                                            X                  
                       X                 X     X         X           X                                            X                  
                       X                       X         X           X                                            X                  
                       X                       X         X           X                                            X                  
                       X                       X         X                                                        X                  
                       X                                 X                                                        X                  
                       X                                                                                          X                  
                       X                                                                                                             
                       X                                                                                                             
                       X                                                                                                             
                       X                                                                                                             
                       X                                                                                                             
                       X                                                                                                             
                       X                                                                                                             
                       X                                                                                                             
                       X                                                                                                             
                       X                                                                                                             
                       X                                                                                                             
 
 ***** Axes restored to original set *****
 -------------------------------------------------------------------
 Center     Atomic                   Forces (Hartrees/Bohr)
 Number     Number              X              Y              Z
 -------------------------------------------------------------------
      1        6           0.000186371    0.000065048   -0.000081385
      2        6          -0.000129299   -0.000074023    0.000015962
      3        6          -0.000043388    0.000024381    0.000039134
      4        6          -0.000013590    0.000102475    0.000021199
      5        6          -0.000006773   -0.000026310   -0.000106413
      6        7           0.000006678   -0.000091571    0.000111504
 -------------------------------------------------------------------
 Cartesian Forces:  Max     0.000186371 RMS     0.000080315
 Z-matrix is all fixed cartesians, so copy forces.
 Force constants in Cartesian coordinates: 
                1             2             3             4             5 
      1  0.207506D+00
      2  0.338599D-01  0.408300D+00
      3  0.439522D-01 -0.359198D-01  0.217351D+00
      4 -0.205934D-01  0.976275D-01 -0.694213D-01  0.206168D+00
      5  0.117636D+00 -0.437097D-01  0.481026D-01 -0.866129D-02  0.302600D+00
      6 -0.382993D-01  0.101969D-01 -0.294159D-01  0.611104D-01  0.187653D-01
      7 -0.426365D-01  0.138253D-01  0.238321D-01  0.665992D-03 -0.172219D-01
      8  0.202201D-01 -0.374542D-01 -0.330332D-01 -0.288737D-02 -0.299599D-01
      9 -0.101852D-02 -0.809277D-02 -0.714992D-02  0.961073D-02 -0.664256D-01
     10 -0.874090D-01 -0.494551D-01 -0.117979D-01 -0.511074D-01 -0.471697D-01
     11 -0.445389D-01 -0.401732D-01  0.112244D-01 -0.612220D-01 -0.167260D+00
     12 -0.665892D-02 -0.315511D-02 -0.205246D-01  0.113823D-01  0.295722D-01
     13  0.117053D-01 -0.438746D-02 -0.260461D-01 -0.515799D-01 -0.247840D-01
     14 -0.550965D-01 -0.100145D+00 -0.921547D-01  0.177090D-01 -0.111693D-01
     15 -0.406282D-01 -0.100642D+00 -0.573622D-01 -0.536538D-01 -0.478361D-02
     16 -0.685725D-01 -0.914701D-01  0.394810D-01 -0.835530D-01 -0.197989D-01
     17 -0.720803D-01 -0.186817D+00  0.101781D+00 -0.425659D-01 -0.505006D-01
     18  0.426527D-01  0.137613D+00 -0.102899D+00  0.409716D-01 -0.252309D-01
                6             7             8             9            10 
      6  0.303800D+00
      7 -0.346042D-01  0.287055D+00
      8 -0.673235D-01 -0.117085D+00  0.118529D+00
      9 -0.194243D+00 -0.295907D-02  0.998293D-01  0.279361D+00
     10  0.258989D-01  0.160207D-01  0.537763D-02 -0.483536D-03  0.192167D+00
     11  0.400313D-01  0.997862D-02 -0.114276D-01 -0.227286D-01  0.126316D+00
     12 -0.542385D-02  0.814521D-02  0.210122D-02 -0.873922D-02 -0.114075D-01
     13 -0.536116D-01 -0.226752D+00  0.763308D-01 -0.523787D-01 -0.311816D-01
     14  0.950204D-02  0.755533D-01 -0.363167D-01  0.197162D-01  0.329789D-02
     15 -0.452009D-01 -0.299244D-01 -0.488932D-02 -0.365273D-01 -0.725265D-02
     16  0.395057D-01 -0.343533D-01  0.180434D-01  0.472291D-01 -0.384895D-01
     17 -0.111720D-01  0.349492D-01 -0.337028D-02 -0.222985D-01 -0.383663D-01
     18 -0.295161D-01  0.355103D-01  0.331556D-02 -0.327019D-01  0.504265D-02
               11            12            13            14            15 
     11  0.211560D+00
     12 -0.380958D-01  0.249635D-01
     13  0.556134D-02 -0.131146D-01  0.322023D+00
     14  0.169136D-02 -0.249077D-02 -0.530004D-01  0.146135D+00
     15  0.289579D-02 -0.540100D-02  0.132208D+00  0.805664D-01  0.191397D+00
     16 -0.360946D-01  0.116534D-01 -0.242148D-01  0.115368D-01 -0.749238D-03
     17  0.560945D-02  0.120683D-01  0.279733D-03 -0.195404D-03  0.268528D-01
     18  0.667286D-02  0.151252D-01  0.129427D-01 -0.151391D-01 -0.469055D-01
               16            17            18 
     16  0.249183D+00
     17  0.117784D+00  0.235274D+00
     18 -0.137120D+00 -0.107231D+00  0.196897D+00
 Leave Link  716 at Tue Aug 16 18:52:30 2016, MaxMem=    33554432 cpu:         0.0
 (Enter /home/proyectos/fulerenos/M3C-v2.0/M3C-deps_CCC/g09-AM64L-G09RevC.01/l103.exe)

 GradGradGradGradGradGradGradGradGradGradGradGradGradGradGradGradGradGrad
 Berny optimization.
 Search for a local minimum.
 Step number   1 out of a maximum of    2
 All quantities printed in internal units (Hartrees-Bohrs-Radians)
 Second derivative matrix not updated -- analytic derivatives used.
 The second derivative matrix:
                          X1        Y1        Z1        X2        Y2
           X1           0.20751
           Y1           0.03386   0.40830
           Z1           0.04395  -0.03592   0.21735
           X2          -0.02059   0.09763  -0.06942   0.20617
           Y2           0.11764  -0.04371   0.04810  -0.00866   0.30260
           Z2          -0.03830   0.01020  -0.02942   0.06111   0.01877
           X3          -0.04264   0.01383   0.02383   0.00067  -0.01722
           Y3           0.02022  -0.03745  -0.03303  -0.00289  -0.02996
           Z3          -0.00102  -0.00809  -0.00715   0.00961  -0.06643
           X4          -0.08741  -0.04946  -0.01180  -0.05111  -0.04717
           Y4          -0.04454  -0.04017   0.01122  -0.06122  -0.16726
           Z4          -0.00666  -0.00316  -0.02052   0.01138   0.02957
           X5           0.01171  -0.00439  -0.02605  -0.05158  -0.02478
           Y5          -0.05510  -0.10015  -0.09215   0.01771  -0.01117
           Z5          -0.04063  -0.10064  -0.05736  -0.05365  -0.00478
           X6          -0.06857  -0.09147   0.03948  -0.08355  -0.01980
           Y6          -0.07208  -0.18682   0.10178  -0.04257  -0.05050
           Z6           0.04265   0.13761  -0.10290   0.04097  -0.02523
                          Z2        X3        Y3        Z3        X4
           Z2           0.30380
           X3          -0.03460   0.28706
           Y3          -0.06732  -0.11708   0.11853
           Z3          -0.19424  -0.00296   0.09983   0.27936
           X4           0.02590   0.01602   0.00538  -0.00048   0.19217
           Y4           0.04003   0.00998  -0.01143  -0.02273   0.12632
           Z4          -0.00542   0.00815   0.00210  -0.00874  -0.01141
           X5          -0.05361  -0.22675   0.07633  -0.05238  -0.03118
           Y5           0.00950   0.07555  -0.03632   0.01972   0.00330
           Z5          -0.04520  -0.02992  -0.00489  -0.03653  -0.00725
           X6           0.03951  -0.03435   0.01804   0.04723  -0.03849
           Y6          -0.01117   0.03495  -0.00337  -0.02230  -0.03837
           Z6          -0.02952   0.03551   0.00332  -0.03270   0.00504
                          Y4        Z4        X5        Y5        Z5
           Y4           0.21156
           Z4          -0.03810   0.02496
           X5           0.00556  -0.01311   0.32202
           Y5           0.00169  -0.00249  -0.05300   0.14614
           Z5           0.00290  -0.00540   0.13221   0.08057   0.19140
           X6          -0.03609   0.01165  -0.02421   0.01154  -0.00075
           Y6           0.00561   0.01207   0.00028  -0.00020   0.02685
           Z6           0.00667   0.01513   0.01294  -0.01514  -0.04691
                          X6        Y6        Z6
           X6           0.24918
           Y6           0.11778   0.23527
           Z6          -0.13712  -0.10723   0.19690
 ITU=  0
     Eigenvalues ---    0.01654   0.03372   0.13789   0.15273   0.20060
     Eigenvalues ---    0.27338   0.35477   0.39591   0.53060   0.56039
     Eigenvalues ---    0.64348   0.79875
 Angle between quadratic step and forces=  51.63 degrees.
 Linear search not attempted -- first point.
 B after Tr=     0.000011   -0.000003    0.000006
         Rot=    1.000000    0.000000    0.000004    0.000002 Ang=   0.00 deg.
 Variable       Old X    -DE/DX   Delta X   Delta X   Delta X     New X
                                 (Linear)    (Quad)   (Total)
    X1        0.86545   0.00019   0.00000   0.00107   0.00107   0.86653
    Y1       -1.49437   0.00007   0.00000  -0.00008  -0.00008  -1.49446
    Z1       -0.04877  -0.00008   0.00000  -0.00076  -0.00074  -0.04951
    X2       -1.20038  -0.00013   0.00000  -0.00035  -0.00033  -1.20071
    Y2        0.58986  -0.00007   0.00000  -0.00011  -0.00011   0.58975
    Z2       -1.11054   0.00002   0.00000  -0.00047  -0.00047  -1.11101
    X3       -1.10314  -0.00004   0.00000  -0.00072  -0.00071  -1.10385
    Y3        1.53227   0.00002   0.00000  -0.00088  -0.00087   1.53139
    Z3        1.48131   0.00004   0.00000  -0.00004  -0.00005   1.48126
    X4       -1.95020  -0.00001   0.00000  -0.00042  -0.00041  -1.95061
    Y4       -1.97724   0.00010   0.00000   0.00129   0.00129  -1.97595
    Z4       -0.53599   0.00002   0.00000   0.00124   0.00124  -0.53475
    X5        1.44909  -0.00001   0.00000  -0.00041  -0.00041   1.44868
    Y5        0.62786  -0.00003   0.00000  -0.00004  -0.00004   0.62782
    Z5        1.76162  -0.00011   0.00000  -0.00045  -0.00043   1.76119
    X6        1.65717   0.00001   0.00000   0.00076   0.00079   1.65795
    Y6        0.58578  -0.00009   0.00000  -0.00018  -0.00019   0.58560
    Z6       -1.36087   0.00011   0.00000   0.00044   0.00045  -1.36041
         Item               Value     Threshold  Converged?
 Maximum Force            0.000186     0.000450     YES
 RMS     Force            0.000080     0.000300     YES
 Maximum Displacement     0.001294     0.001800     YES
 RMS     Displacement     0.000663     0.001200     YES
 Predicted change in Energy=-2.955414D-07
 Optimization completed.
    -- Stationary point found.
 GradGradGradGradGradGradGradGradGradGradGradGradGradGradGradGradGradGrad

 Leave Link  103 at Tue Aug 16 18:52:30 2016, MaxMem=    33554432 cpu:         0.0
 (Enter /home/proyectos/fulerenos/M3C-v2.0/M3C-deps_CCC/g09-AM64L-G09RevC.01/l9999.exe)
 1\1\GINC-BLADI12\Freq\UB3LYP\6-311++G(3df,2p)\C5N1(1+,3)\ROOT\16-Aug-2
 016\0\\#p b3lyp/6-311++G(3df,2p) freq symmetry=Loose\\b3lyp opt\\1,3\C
 ,0.457979,-0.790787,-0.025806\C,-0.635214,0.312138,-0.587673\C,-0.5837
 54,0.81084,0.783874\C,-1.031999,-1.046311,-0.283634\C,0.766824,0.33225
 ,0.932209\N,0.876935,0.309984,-0.720139\\Version=EM64L-G09RevE.01\Stat
 e=3-A\HF=-244.4752536\S2=2.0167\S2-1=0.\S2A=2.000117\RMSD=6.079e-09\RM
 SF=8.032e-05\ZeroPoint=0.0215184\Thermal=0.0261737\Dipole=0.0415211,0.
 3028905,0.2854564\DipoleDeriv=0.148567,-0.0130524,-0.1337221,-0.113457
 3,-0.0127145,-0.0093112,-0.1758591,-0.0574732,0.0826902,0.2396233,0.02
 47376,0.0254238,-0.020745,-0.1209644,-0.022885,-0.1146672,-0.0259121,0
 .1396355,0.2119653,-0.1250119,-0.0796633,-0.1206876,0.3846262,0.13733,
 -0.1219644,0.1642748,0.3907079,0.2481077,0.2112881,0.0545155,0.2564931
 ,0.4149718,-0.1066608,0.1963496,-0.0594002,0.0172537,0.2088897,0.03173
 94,0.0994777,0.011555,0.2155477,0.0540882,0.099863,-0.129271,0.2450839
 ,-0.0571531,-0.1297008,0.0339685,-0.0131582,0.1185333,-0.0525613,0.116
 2781,0.1077817,0.1246289\Polar=48.6904962,3.2256546,44.48011,3.3756591
 ,5.8035318,42.9174875\PG=C01 [X(C5N1)]\NImag=0\\0.20750625,0.03385986,
 0.40829967,0.04395219,-0.03591983,0.21735116,-0.02059344,0.09762753,-0
 .06942129,0.20616771,0.11763577,-0.04370972,0.04810263,-0.00866129,0.3
 0260005,-0.03829928,0.01019689,-0.02941588,0.06111044,0.01876529,0.303
 79955,-0.04263648,0.01382531,0.02383215,0.00066599,-0.01722187,-0.0346
 0420,0.28705505,0.02022013,-0.03745418,-0.03303320,-0.00288737,-0.0299
 5995,-0.06732352,-0.11708455,0.11852869,-0.00101852,-0.00809277,-0.007
 14992,0.00961073,-0.06642563,-0.19424283,-0.00295907,0.09982925,0.2793
 6122,-0.08740905,-0.04945509,-0.01179792,-0.05110737,-0.04716970,0.025
 89893,0.01602069,0.00537763,-0.00048354,0.19216677,-0.04453892,-0.0401
 7323,0.01122441,-0.06122199,-0.16726043,0.04003130,0.00997862,-0.01142
 759,-0.02272857,0.12631557,0.21156044,-0.00665892,-0.00315511,-0.02052
 456,0.01138232,0.02957218,-0.00542385,0.00814521,0.00210122,-0.0087392
 2,-0.01140747,-0.03809579,0.02496348,0.01170526,-0.00438746,-0.0260461
 4,-0.05157989,-0.02478397,-0.05361159,-0.22675191,0.07633081,-0.052378
 72,-0.03118158,0.00556134,-0.01311456,0.32202297,-0.05509653,-0.100145
 27,-0.09215475,0.01770902,-0.01116933,0.00950204,0.07555331,-0.0363167
 0,0.01971621,0.00329789,0.00169136,-0.00249077,-0.05300045,0.14613535,
 -0.04062818,-0.10064201,-0.05736223,-0.05365380,-0.00478361,-0.0452009
 0,-0.02992442,-0.00488932,-0.03652731,-0.00725265,0.00289579,-0.005401
 00,0.13220829,0.08056639,0.19139691,-0.06857254,-0.09147015,0.03948100
 ,-0.08355300,-0.01979895,0.03950571,-0.03435335,0.01804335,0.04722910,
 -0.03848945,-0.03609461,0.01165342,-0.02421485,0.01153676,-0.00074924,
 0.24918320,-0.07208031,-0.18681726,0.10178073,-0.04256590,-0.05050061,
 -0.01117200,0.03494918,-0.00337028,-0.02229849,-0.03836630,0.00560945,
 0.01206827,0.00027973,-0.00019540,0.02685277,0.11778359,0.23527411,0.0
 4265271,0.13761284,-0.10289856,0.04097160,-0.02523086,-0.02951609,0.03
 551033,0.00331556,-0.03270193,0.00504265,0.00667286,0.01512515,0.01294
 273,-0.01513911,-0.04690547,-0.13712000,-0.10723128,0.19689691\\-0.000
 18637,-0.00006505,0.00008139,0.00012930,0.00007402,-0.00001596,0.00004
 339,-0.00002438,-0.00003913,0.00001359,-0.00010248,-0.00002120,0.00000
 677,0.00002631,0.00010641,-0.00000668,0.00009157,-0.00011150\\\@


 DESK:  A WASTEBASKET WITH DRAWERS.
 Job cpu time:       0 days  1 hours 16 minutes  4.4 seconds.
 File lengths (MBytes):  RWF=     59 Int=      0 D2E=      0 Chk=      5 Scr=      1
 Normal termination of Gaussian 09 at Tue Aug 16 18:52:30 2016.
