 Entering Gaussian System, Link 0=/home/nestor/.gaussian09/g09
 Initial command:
 /home/nestor/.gaussian09/l1.exe "/scratch/nestor/gaussian/Gau-13677.inp" -scrdir="/scratch/nestor/gaussian/"
 Entering Link 1 = /home/nestor/.gaussian09/l1.exe PID=     13679.
  
 Copyright (c) 1988,1990,1992,1993,1995,1998,2003,2009,2013,
            Gaussian, Inc.  All Rights Reserved.
  
 This is part of the Gaussian(R) 09 program.  It is based on
 the Gaussian(R) 03 system (copyright 2003, Gaussian, Inc.),
 the Gaussian(R) 98 system (copyright 1998, Gaussian, Inc.),
 the Gaussian(R) 94 system (copyright 1995, Gaussian, Inc.),
 the Gaussian 92(TM) system (copyright 1992, Gaussian, Inc.),
 the Gaussian 90(TM) system (copyright 1990, Gaussian, Inc.),
 the Gaussian 88(TM) system (copyright 1988, Gaussian, Inc.),
 the Gaussian 86(TM) system (copyright 1986, Carnegie Mellon
 University), and the Gaussian 82(TM) system (copyright 1983,
 Carnegie Mellon University). Gaussian is a federally registered
 trademark of Gaussian, Inc.
  
 This software contains proprietary and confidential information,
 including trade secrets, belonging to Gaussian, Inc.
  
 This software is provided under written license and may be
 used, copied, transmitted, or stored only in accord with that
 written license.
  
 The following legend is applicable only to US Government
 contracts under FAR:
  
                    RESTRICTED RIGHTS LEGEND
  
 Use, reproduction and disclosure by the US Government is
 subject to restrictions as set forth in subparagraphs (a)
 and (c) of the Commercial Computer Software - Restricted
 Rights clause in FAR 52.227-19.
  
 Gaussian, Inc.
 340 Quinnipiac St., Bldg. 40, Wallingford CT 06492
  
  
 ---------------------------------------------------------------
 Warning -- This program may not be used in any manner that
 competes with the business of Gaussian, Inc. or will provide
 assistance to any competitor of Gaussian, Inc.  The licensee
 of this program is prohibited from giving any competitor of
 Gaussian, Inc. access to this program.  By using this program,
 the user acknowledges that Gaussian, Inc. is engaged in the
 business of creating and licensing software in the field of
 computational chemistry and represents and warrants to the
 licensee that it is not a competitor of Gaussian, Inc. and that
 it will not use this program in any manner prohibited above.
 ---------------------------------------------------------------
  

 Cite this work as:
 Gaussian 09, Revision D.01,
 M. J. Frisch, G. W. Trucks, H. B. Schlegel, G. E. Scuseria, 
 M. A. Robb, J. R. Cheeseman, G. Scalmani, V. Barone, B. Mennucci, 
 G. A. Petersson, H. Nakatsuji, M. Caricato, X. Li, H. P. Hratchian, 
 A. F. Izmaylov, J. Bloino, G. Zheng, J. L. Sonnenberg, M. Hada, 
 M. Ehara, K. Toyota, R. Fukuda, J. Hasegawa, M. Ishida, T. Nakajima, 
 Y. Honda, O. Kitao, H. Nakai, T. Vreven, J. A. Montgomery, Jr., 
 J. E. Peralta, F. Ogliaro, M. Bearpark, J. J. Heyd, E. Brothers, 
 K. N. Kudin, V. N. Staroverov, T. Keith, R. Kobayashi, J. Normand, 
 K. Raghavachari, A. Rendell, J. C. Burant, S. S. Iyengar, J. Tomasi, 
 M. Cossi, N. Rega, J. M. Millam, M. Klene, J. E. Knox, J. B. Cross, 
 V. Bakken, C. Adamo, J. Jaramillo, R. Gomperts, R. E. Stratmann, 
 O. Yazyev, A. J. Austin, R. Cammi, C. Pomelli, J. W. Ochterski, 
 R. L. Martin, K. Morokuma, V. G. Zakrzewski, G. A. Voth, 
 P. Salvador, J. J. Dannenberg, S. Dapprich, A. D. Daniels, 
 O. Farkas, J. B. Foresman, J. V. Ortiz, J. Cioslowski, 
 and D. J. Fox, Gaussian, Inc., Wallingford CT, 2013.
 
 ******************************************
 Gaussian 09:  EM64L-G09RevD.01 24-Apr-2013
                17-Sep-2018 
 ******************************************
 %NProcShared=4
 Will use up to    4 processors via shared memory.
 ------------------------------
 #p b3lyp/6-311++G(3df,2p) freq
 ------------------------------
 1/10=4,30=1,38=1/1,3;
 2/12=2,17=6,18=5,40=1/2;
 3/5=4,6=6,7=1216,11=2,16=1,25=1,30=1,71=2,74=-5,140=1/1,2,3;
 4//1;
 5/5=2,38=5,98=1/2;
 8/6=4,10=90,11=11/1;
 11/6=1,8=1,9=11,15=111,16=1/1,2,10;
 10/6=1/2;
 6/7=2,8=2,9=2,10=2,18=1,28=1/1;
 7/8=1,10=1,25=1/1,2,3,16;
 1/10=4,30=1/3;
 99//99;
 Leave Link    1 at Mon Sep 17 00:36:05 2018, MaxMem=           0 cpu:         0.4
 (Enter /home/nestor/.gaussian09/l101.exe)
 ---------
 b3lyp opt
 ---------
 Symbolic Z-matrix:
 Charge =  0 Multiplicity = 2
 C                     0.       -0.00932   1.96782 
 C                     0.       -0.01679   0.6228 
 C                     0.        0.00026  -0.61157 
 C                     0.        0.03755  -1.92504 
 C                     0.        0.27734  -3.18484 
 N                     0.        0.01096   3.13084 
 
 NAtoms=      6 NQM=        6 NQMF=       0 NMMI=      0 NMMIF=      0
                NMic=       0 NMicF=      0.
                    Isotopes and Nuclear Properties:
 (Nuclear quadrupole moments (NQMom) in fm**2, nuclear magnetic moments (NMagM)
  in nuclear magnetons)

  Atom         1           2           3           4           5           6
 IAtWgt=          12          12          12          12          12          14
 AtmWgt=  12.0000000  12.0000000  12.0000000  12.0000000  12.0000000  14.0030740
 NucSpn=           0           0           0           0           0           2
 AtZEff=   0.0000000   0.0000000   0.0000000   0.0000000   0.0000000   0.0000000
 NQMom=    0.0000000   0.0000000   0.0000000   0.0000000   0.0000000   2.0440000
 NMagM=    0.0000000   0.0000000   0.0000000   0.0000000   0.0000000   0.4037610
 AtZNuc=   6.0000000   6.0000000   6.0000000   6.0000000   6.0000000   7.0000000
 Leave Link  101 at Mon Sep 17 00:36:05 2018, MaxMem=    33554432 cpu:         0.7
 (Enter /home/nestor/.gaussian09/l103.exe)

 GradGradGradGradGradGradGradGradGradGradGradGradGradGradGradGradGradGrad
 Berny optimization.
 Initialization pass.
 Trust Radius=3.00D-01 FncErr=1.00D-07 GrdErr=1.00D-07
 Number of steps in this run=      2 maximum allowed number of steps=      2.
 GradGradGradGradGradGradGradGradGradGradGradGradGradGradGradGradGradGrad

 Leave Link  103 at Mon Sep 17 00:36:06 2018, MaxMem=    33554432 cpu:         0.1
 (Enter /home/nestor/.gaussian09/l202.exe)
                          Input orientation:                          
 ---------------------------------------------------------------------
 Center     Atomic      Atomic             Coordinates (Angstroms)
 Number     Number       Type             X           Y           Z
 ---------------------------------------------------------------------
      1          6           0        0.000000   -0.009318    1.967823
      2          6           0        0.000000   -0.016791    0.622795
      3          6           0        0.000000    0.000257   -0.611573
      4          6           0        0.000000    0.037554   -1.925044
      5          6           0        0.000000    0.277342   -3.184837
      6          7           0        0.000000    0.010956    3.130836
 ---------------------------------------------------------------------
                    Distance matrix (angstroms):
                    1          2          3          4          5
     1  C    0.000000
     2  C    1.345049   0.000000
     3  C    2.579414   1.234486   0.000000
     4  C    3.893149   2.548419   1.314000   0.000000
     5  C    5.160628   3.818976   2.588139   1.282410   0.000000
     6  N    1.163190   2.508194   3.742424   5.055950   6.321288
                    6
     6  N    0.000000
 Stoichiometry    C5N(2)
 Framework group  CS[SG(C5N)]
 Deg. of freedom     9
 Full point group                 CS      NOp   2
 Largest Abelian subgroup         CS      NOp   2
 Largest concise Abelian subgroup C1      NOp   1
                         Standard orientation:                         
 ---------------------------------------------------------------------
 Center     Atomic      Atomic             Coordinates (Angstroms)
 Number     Number       Type             X           Y           Z
 ---------------------------------------------------------------------
      1          6           0        0.170494    1.876377    0.000000
      2          6           0        0.000000    0.542178    0.000000
      3          6           0       -0.132737   -0.685151    0.000000
      4          6           0       -0.254966   -1.993454    0.000000
      5          6           0       -0.169689   -3.273026    0.000000
      6          7           0        0.331627    3.028352    0.000000
 ---------------------------------------------------------------------
 Rotational constants (GHZ):   1294.5149055      1.4081121      1.4065821
 Leave Link  202 at Mon Sep 17 00:36:06 2018, MaxMem=    33554432 cpu:         0.1
 (Enter /home/nestor/.gaussian09/l301.exe)
 Standard basis: 6-311++G(3df,2p) (5D, 7F)
 Ernie: Thresh=  0.10000D-02 Tol=  0.10000D-05 Strict=F.
 There are   186 symmetry adapted cartesian basis functions of A'  symmetry.
 There are    84 symmetry adapted cartesian basis functions of A"  symmetry.
 There are   156 symmetry adapted basis functions of A'  symmetry.
 There are    78 symmetry adapted basis functions of A"  symmetry.
   234 basis functions,   348 primitive gaussians,   270 cartesian basis functions
    19 alpha electrons       18 beta electrons
       nuclear repulsion energy       136.5621193500 Hartrees.
 IExCor=  402 DFT=T Ex+Corr=B3LYP ExCW=0 ScaHFX=  0.200000
 ScaDFX=  0.800000  0.720000  1.000000  0.810000 ScalE2=  1.000000  1.000000
 IRadAn=      0 IRanWt=     -1 IRanGd=            0 ICorTp=0 IEmpDi=  4
 NAtoms=    6 NActive=    6 NUniq=    6 SFac= 1.00D+00 NAtFMM=   60 NAOKFM=F Big=F
 Integral buffers will be    131072 words long.
 Raffenetti 2 integral format.
 Two-electron integral symmetry is turned on.
 Leave Link  301 at Mon Sep 17 00:36:06 2018, MaxMem=    33554432 cpu:         0.2
 (Enter /home/nestor/.gaussian09/l302.exe)
 NPDir=0 NMtPBC=     1 NCelOv=     1 NCel=       1 NClECP=     1 NCelD=      1
         NCelK=      1 NCelE2=     1 NClLst=     1 CellRange=     0.0.
 One-electron integrals computed using PRISM.
 NBasis=   234 RedAO= T EigKep=  1.92D-06  NBF=   156    78
 NBsUse=   232 1.00D-06 EigRej=  9.17D-08 NBFU=   154    78
 Precomputing XC quadrature grid using
 IXCGrd= 4 IRadAn=           0 IRanWt=          -1 IRanGd=           0 AccXCQ= 0.00D+00.
 Generated NRdTot=       0 NPtTot=           0 NUsed=           0 NTot=          32
 NSgBfM=   270   270   270   270   270 MxSgAt=     6 MxSgA2=     6.
 Leave Link  302 at Mon Sep 17 00:36:07 2018, MaxMem=    33554432 cpu:         1.6
 (Enter /home/nestor/.gaussian09/l303.exe)
 DipDrv:  MaxL=1.
 Leave Link  303 at Mon Sep 17 00:36:07 2018, MaxMem=    33554432 cpu:         0.3
 (Enter /home/nestor/.gaussian09/l401.exe)
 ExpMin= 4.38D-02 ExpMax= 6.29D+03 ExpMxC= 9.49D+02 IAcc=2 IRadAn=         4 AccDes= 0.00D+00
 Harris functional with IExCor=  402 and IRadAn=       4 diagonalized for initial guess.
 HarFok:  IExCor=  402 AccDes= 0.00D+00 IRadAn=         4 IDoV= 1 UseB2=F ITyADJ=14
 ICtDFT=  3500011 ScaDFX=  1.000000  1.000000  1.000000  1.000000
 FoFCou: FMM=F IPFlag=           0 FMFlag=      100000 FMFlg1=           0
         NFxFlg=           0 DoJE=T BraDBF=F KetDBF=T FulRan=T
         wScrn=  0.000000 ICntrl=     500 IOpCl=  0 I1Cent=   200000004 NGrid=           0
         NMat0=    1 NMatS0=      1 NMatT0=    0 NMatD0=    1 NMtDS0=    0 NMtDT0=    0
 Petite list used in FoFCou.
 Harris En= -245.111644233398    
 JPrj=0 DoOrth=F DoCkMO=F.
 Initial guess orbital symmetries:
 Alpha Orbitals:
       Occupied  (A') (A') (A') (A') (A') (A') (A') (A') (A') (A')
                 (A') (A") (A') (A') (A") (A') (A') (A") (A')
       Virtual   (A") (A') (A') (A") (A') (A') (A") (A') (A') (A')
                 (A") (A') (A') (A") (A') (A') (A") (A') (A') (A')
                 (A") (A') (A') (A") (A') (A') (A") (A') (A") (A')
                 (A') (A") (A') (A') (A') (A") (A') (A') (A') (A")
                 (A') (A') (A") (A') (A") (A') (A') (A") (A") (A')
                 (A') (A') (A") (A') (A") (A') (A') (A") (A') (A')
                 (A') (A") (A') (A") (A') (A') (A") (A') (A') (A')
                 (A") (A') (A') (A") (A') (A") (A') (A') (A') (A')
                 (A") (A') (A") (A') (A') (A") (A') (A') (A") (A')
                 (A') (A') (A") (A') (A") (A') (A") (A') (A') (A")
                 (A') (A') (A") (A') (A") (A') (A") (A') (A') (A')
                 (A") (A') (A") (A") (A') (A') (A") (A') (A") (A')
                 (A') (A") (A') (A') (A") (A") (A') (A") (A') (A')
                 (A") (A") (A') (A') (A") (A') (A') (A") (A') (A")
                 (A') (A') (A") (A') (A') (A") (A') (A') (A") (A')
                 (A') (A") (A') (A') (A") (A') (A') (A") (A') (A")
                 (A') (A') (A') (A") (A') (A") (A') (A') (A') (A")
                 (A') (A') (A') (A") (A') (A") (A') (A") (A') (A")
                 (A') (A") (A') (A") (A') (A") (A') (A') (A") (A")
                 (A') (A") (A') (A') (A") (A') (A") (A') (A') (A')
                 (A') (A') (A') (A") (A") (A') (A') (A') (A') (A')
                 (A') (A') (A')
 Beta  Orbitals:
       Occupied  (A') (A') (A') (A') (A') (A') (A') (A') (A') (A')
                 (A') (A") (A') (A') (A") (A') (A') (A")
       Virtual   (A') (A") (A') (A') (A") (A') (A') (A") (A') (A')
                 (A') (A") (A') (A') (A") (A') (A') (A") (A') (A')
                 (A') (A") (A') (A') (A") (A') (A') (A") (A') (A")
                 (A') (A') (A") (A') (A') (A') (A") (A') (A') (A')
                 (A") (A') (A') (A") (A') (A") (A') (A') (A") (A")
                 (A') (A') (A') (A") (A') (A") (A') (A') (A") (A')
                 (A') (A') (A") (A') (A") (A') (A') (A") (A') (A')
                 (A') (A") (A') (A') (A") (A') (A") (A') (A') (A')
                 (A') (A") (A') (A") (A') (A') (A") (A') (A') (A")
                 (A') (A') (A') (A") (A') (A") (A') (A") (A') (A')
                 (A") (A') (A') (A") (A') (A") (A') (A") (A') (A')
                 (A') (A") (A') (A") (A") (A') (A') (A") (A') (A")
                 (A') (A') (A") (A') (A') (A") (A") (A') (A") (A')
                 (A') (A") (A") (A') (A') (A") (A') (A') (A") (A')
                 (A") (A') (A') (A") (A') (A') (A") (A') (A') (A")
                 (A') (A') (A") (A') (A') (A") (A') (A') (A") (A')
                 (A") (A') (A') (A') (A") (A') (A") (A') (A') (A')
                 (A") (A') (A') (A') (A") (A') (A") (A') (A") (A')
                 (A") (A') (A") (A') (A") (A') (A") (A') (A') (A")
                 (A") (A') (A") (A') (A') (A") (A') (A") (A') (A')
                 (A') (A') (A') (A') (A") (A") (A') (A') (A') (A')
                 (A') (A') (A') (A')
 The electronic state of the initial guess is 2-A'.
 Initial guess <Sx>= 0.0000 <Sy>= 0.0000 <Sz>= 0.5000 <S**2>= 0.7500 S= 0.5000
 Leave Link  401 at Mon Sep 17 00:36:08 2018, MaxMem=    33554432 cpu:         3.5
 (Enter /home/nestor/.gaussian09/l502.exe)
 UHF open shell SCF:
 Using DIIS extrapolation, IDIIS=  1040.
 Integral symmetry usage will be decided dynamically.
 IVT=      240848 IEndB=      240848 NGot=    33554432 MDV=    33403395
 LenX=    33403395 LenY=    33330054
 Requested convergence on RMS density matrix=1.00D-08 within 128 cycles.
 Requested convergence on MAX density matrix=1.00D-06.
 Requested convergence on             energy=1.00D-06.
 No special actions if energy rises.
 Fock matrices will be formed incrementally for  20 cycles.

 Cycle   1  Pass 1  IDiag  1:
 FoFJK:  IHMeth= 1 ICntrl=       0 DoSepK=F KAlg= 0 I1Cent=   0 FoldK=F
 IRaf= 920000000 NMat=   1 IRICut=       1 DoRegI=T DoRafI=F ISym2E= 1.
 FoFCou: FMM=F IPFlag=           0 FMFlag=      100000 FMFlg1=           0
         NFxFlg=           0 DoJE=F BraDBF=F KetDBF=F FulRan=T
         wScrn=  0.000000 ICntrl=       0 IOpCl=  1 I1Cent=           0 NGrid=           0
         NMat0=    1 NMatS0=      1 NMatT0=    0 NMatD0=    1 NMtDS0=    0 NMtDT0=    0
 Petite list used in FoFCou.
 E= -245.016884664172    
 DIIS: error= 2.52D-02 at cycle   1 NSaved=   1.
 NSaved= 1 IEnMin= 1 EnMin= -245.016884664172     IErMin= 1 ErrMin= 2.52D-02
 ErrMax= 2.52D-02  0.00D+00 EMaxC= 1.00D-01 BMatC= 3.79D-01 BMatP= 3.79D-01
 IDIUse=3 WtCom= 7.48D-01 WtEn= 2.52D-01
 Coeff-Com:  0.100D+01
 Coeff-En:   0.100D+01
 Coeff:      0.100D+01
 Gap=     0.161 Goal=   None    Shift=    0.000
 Gap=     0.053 Goal=   None    Shift=    0.000
 GapD=    0.053 DampG=0.500 DampE=0.500 DampFc=0.2500 IDamp=-1.
 Damping current iteration by 2.50D-01
 RMSDP=1.39D-02 MaxDP=7.49D-01              OVMax= 2.35D-01

 Cycle   2  Pass 1  IDiag  1:
 RMSU=  3.03D-03    CP:  9.46D-01
 E= -245.043116028829     Delta-E=       -0.026231364657 Rises=F Damp=T
 DIIS: error= 1.56D-02 at cycle   2 NSaved=   2.
 NSaved= 2 IEnMin= 2 EnMin= -245.043116028829     IErMin= 2 ErrMin= 1.56D-02
 ErrMax= 1.56D-02  0.00D+00 EMaxC= 1.00D-01 BMatC= 1.29D-01 BMatP= 3.79D-01
 IDIUse=3 WtCom= 8.44D-01 WtEn= 1.56D-01
 Coeff-Com: -0.709D+00 0.171D+01
 Coeff-En:   0.000D+00 0.100D+01
 Coeff:     -0.599D+00 0.160D+01
 Gap=     0.180 Goal=   None    Shift=    0.000
 Gap=     0.067 Goal=   None    Shift=    0.000
 RMSDP=7.20D-03 MaxDP=4.47D-01 DE=-2.62D-02 OVMax= 1.96D-01

 Cycle   3  Pass 1  IDiag  1:
 RMSU=  3.24D-03    CP:  8.14D-01  2.63D+00
 E= -245.056524672883     Delta-E=       -0.013408644054 Rises=F Damp=F
 DIIS: error= 2.30D-02 at cycle   3 NSaved=   3.
 NSaved= 3 IEnMin= 3 EnMin= -245.056524672883     IErMin= 2 ErrMin= 1.56D-02
 ErrMax= 2.30D-02  0.00D+00 EMaxC= 1.00D-01 BMatC= 1.58D-01 BMatP= 1.29D-01
 IDIUse=2 WtCom= 0.00D+00 WtEn= 1.00D+00
 Coeff-En:   0.000D+00 0.342D+00 0.658D+00
 Coeff:      0.000D+00 0.342D+00 0.658D+00
 Gap=     0.176 Goal=   None    Shift=    0.000
 Gap=     0.038 Goal=   None    Shift=    0.000
 RMSDP=4.96D-03 MaxDP=2.58D-01 DE=-1.34D-02 OVMax= 2.08D-01

 Cycle   4  Pass 1  IDiag  1:
 RMSU=  2.62D-03    CP:  7.77D-01  3.00D+00 -5.64D-02
 E= -244.941898159642     Delta-E=        0.114626513240 Rises=F Damp=F
 DIIS: error= 4.88D-02 at cycle   4 NSaved=   4.
 NSaved= 4 IEnMin= 3 EnMin= -245.056524672883     IErMin= 2 ErrMin= 1.56D-02
 ErrMax= 4.88D-02  0.00D+00 EMaxC= 1.00D-01 BMatC= 5.77D-01 BMatP= 1.29D-01
 IDIUse=2 WtCom= 0.00D+00 WtEn= 1.00D+00
 Coeff-En:   0.000D+00 0.000D+00 0.713D+00 0.287D+00
 Coeff:      0.000D+00 0.000D+00 0.713D+00 0.287D+00
 Gap=     0.175 Goal=   None    Shift=    0.000
 Gap=     0.064 Goal=   None    Shift=    0.000
 RMSDP=3.23D-03 MaxDP=1.93D-01 DE= 1.15D-01 OVMax= 1.10D-01

 Cycle   5  Pass 1  IDiag  1:
 RMSU=  1.14D-03    CP:  7.97D-01  2.72D+00  5.14D-01  4.66D-01
 E= -245.091921783295     Delta-E=       -0.150023623652 Rises=F Damp=F
 DIIS: error= 1.04D-02 at cycle   5 NSaved=   5.
 NSaved= 5 IEnMin= 5 EnMin= -245.091921783295     IErMin= 5 ErrMin= 1.04D-02
 ErrMax= 1.04D-02  0.00D+00 EMaxC= 1.00D-01 BMatC= 3.18D-02 BMatP= 1.29D-01
 IDIUse=3 WtCom= 8.96D-01 WtEn= 1.04D-01
 Coeff-Com: -0.710D-01 0.859D-01 0.265D+00-0.664D-01 0.787D+00
 Coeff-En:   0.000D+00 0.000D+00 0.227D+00 0.000D+00 0.773D+00
 Coeff:     -0.637D-01 0.769D-01 0.261D+00-0.595D-01 0.785D+00
 Gap=     0.174 Goal=   None    Shift=    0.000
 Gap=     0.064 Goal=   None    Shift=    0.000
 RMSDP=7.89D-04 MaxDP=3.88D-02 DE=-1.50D-01 OVMax= 3.56D-02

 Cycle   6  Pass 1  IDiag  1:
 RMSU=  2.60D-04    CP:  8.00D-01  2.69D+00  6.86D-01  3.32D-01  7.17D-01
 E= -245.100087275458     Delta-E=       -0.008165492163 Rises=F Damp=F
 DIIS: error= 1.98D-03 at cycle   6 NSaved=   6.
 NSaved= 6 IEnMin= 6 EnMin= -245.100087275458     IErMin= 6 ErrMin= 1.98D-03
 ErrMax= 1.98D-03  0.00D+00 EMaxC= 1.00D-01 BMatC= 1.17D-03 BMatP= 3.18D-02
 IDIUse=3 WtCom= 9.80D-01 WtEn= 1.98D-02
 Coeff-Com: -0.986D-01 0.126D+00 0.141D+00-0.786D-01 0.543D+00 0.368D+00
 Coeff-En:   0.000D+00 0.000D+00 0.000D+00 0.000D+00 0.000D+00 0.100D+01
 Coeff:     -0.967D-01 0.123D+00 0.138D+00-0.770D-01 0.532D+00 0.381D+00
 Gap=     0.175 Goal=   None    Shift=    0.000
 Gap=     0.064 Goal=   None    Shift=    0.000
 RMSDP=1.96D-04 MaxDP=1.07D-02 DE=-8.17D-03 OVMax= 9.91D-03

 Cycle   7  Pass 1  IDiag  1:
 RMSU=  1.52D-04    CP:  8.01D-01  2.68D+00  6.84D-01  3.39D-01  7.87D-01
                    CP:  7.16D-01
 E= -245.100404231655     Delta-E=       -0.000316956197 Rises=F Damp=F
 DIIS: error= 5.29D-04 at cycle   7 NSaved=   7.
 NSaved= 7 IEnMin= 7 EnMin= -245.100404231655     IErMin= 7 ErrMin= 5.29D-04
 ErrMax= 5.29D-04  0.00D+00 EMaxC= 1.00D-01 BMatC= 1.03D-04 BMatP= 1.17D-03
 IDIUse=3 WtCom= 9.95D-01 WtEn= 5.29D-03
 Coeff-Com: -0.285D-01 0.342D-01 0.323D-01-0.295D-01 0.157D+00 0.194D+00
 Coeff-Com:  0.641D+00
 Coeff-En:   0.000D+00 0.000D+00 0.000D+00 0.000D+00 0.000D+00 0.000D+00
 Coeff-En:   0.100D+01
 Coeff:     -0.284D-01 0.341D-01 0.321D-01-0.293D-01 0.156D+00 0.193D+00
 Coeff:      0.643D+00
 Gap=     0.175 Goal=   None    Shift=    0.000
 Gap=     0.065 Goal=   None    Shift=    0.000
 RMSDP=8.74D-05 MaxDP=4.38D-03 DE=-3.17D-04 OVMax= 5.31D-03

 Cycle   8  Pass 1  IDiag  1:
 RMSU=  6.44D-05    CP:  8.01D-01  2.67D+00  6.86D-01  3.45D-01  7.94D-01
                    CP:  9.03D-01  1.11D+00
 E= -245.100437355949     Delta-E=       -0.000033124294 Rises=F Damp=F
 DIIS: error= 7.06D-04 at cycle   8 NSaved=   8.
 NSaved= 8 IEnMin= 8 EnMin= -245.100437355949     IErMin= 7 ErrMin= 5.29D-04
 ErrMax= 7.06D-04  0.00D+00 EMaxC= 1.00D-01 BMatC= 8.99D-05 BMatP= 1.03D-04
 IDIUse=3 WtCom= 9.95D-01 WtEn= 5.29D-03
 Coeff-Com:  0.460D-01-0.615D-01-0.722D-01 0.275D-01-0.244D+00-0.771D-01
 Coeff-Com:  0.695D+00 0.686D+00
 Coeff-En:   0.000D+00 0.000D+00 0.000D+00 0.000D+00 0.000D+00 0.000D+00
 Coeff-En:   0.124D+00 0.876D+00
 Coeff:      0.457D-01-0.611D-01-0.718D-01 0.273D-01-0.243D+00-0.767D-01
 Coeff:      0.692D+00 0.687D+00
 Gap=     0.176 Goal=   None    Shift=    0.000
 Gap=     0.065 Goal=   None    Shift=    0.000
 RMSDP=1.16D-04 MaxDP=6.61D-03 DE=-3.31D-05 OVMax= 8.33D-03

 Cycle   9  Pass 1  IDiag  1:
 RMSU=  7.90D-05    CP:  8.00D-01  2.67D+00  6.90D-01  3.58D-01  7.93D-01
                    CP:  1.07D+00  1.38D+00  1.78D+00
 E= -245.100492829550     Delta-E=       -0.000055473601 Rises=F Damp=F
 DIIS: error= 1.53D-04 at cycle   9 NSaved=   9.
 NSaved= 9 IEnMin= 9 EnMin= -245.100492829550     IErMin= 9 ErrMin= 1.53D-04
 ErrMax= 1.53D-04  0.00D+00 EMaxC= 1.00D-01 BMatC= 7.83D-06 BMatP= 8.99D-05
 IDIUse=3 WtCom= 9.98D-01 WtEn= 1.53D-03
 Coeff-Com: -0.302D-02 0.535D-02-0.118D-02 0.130D-02-0.565D-02-0.459D-01
 Coeff-Com: -0.213D+00 0.594D-01 0.120D+01
 Coeff-En:   0.000D+00 0.000D+00 0.000D+00 0.000D+00 0.000D+00 0.000D+00
 Coeff-En:   0.000D+00 0.000D+00 0.100D+01
 Coeff:     -0.302D-02 0.534D-02-0.117D-02 0.130D-02-0.564D-02-0.458D-01
 Coeff:     -0.212D+00 0.593D-01 0.120D+01
 Gap=     0.176 Goal=   None    Shift=    0.000
 Gap=     0.065 Goal=   None    Shift=    0.000
 RMSDP=1.05D-04 MaxDP=6.99D-03 DE=-5.55D-05 OVMax= 8.68D-03

 Cycle  10  Pass 1  IDiag  1:
 RMSU=  3.14D-05    CP:  8.00D-01  2.66D+00  6.87D-01  3.70D-01  7.99D-01
                    CP:  1.18D+00  1.45D+00  2.86D+00  1.60D+00
 E= -245.100511476667     Delta-E=       -0.000018647117 Rises=F Damp=F
 DIIS: error= 1.16D-04 at cycle  10 NSaved=  10.
 NSaved=10 IEnMin=10 EnMin= -245.100511476667     IErMin=10 ErrMin= 1.16D-04
 ErrMax= 1.16D-04  0.00D+00 EMaxC= 1.00D-01 BMatC= 2.94D-06 BMatP= 7.83D-06
 IDIUse=3 WtCom= 9.99D-01 WtEn= 1.16D-03
 Coeff-Com: -0.861D-02 0.117D-01 0.139D-01-0.505D-02 0.427D-01 0.722D-03
 Coeff-Com: -0.106D+00-0.137D+00-0.630D-01 0.125D+01
 Coeff-En:   0.000D+00 0.000D+00 0.000D+00 0.000D+00 0.000D+00 0.000D+00
 Coeff-En:   0.000D+00 0.000D+00 0.000D+00 0.100D+01
 Coeff:     -0.860D-02 0.117D-01 0.139D-01-0.504D-02 0.427D-01 0.721D-03
 Coeff:     -0.106D+00-0.137D+00-0.629D-01 0.125D+01
 Gap=     0.176 Goal=   None    Shift=    0.000
 Gap=     0.065 Goal=   None    Shift=    0.000
 RMSDP=9.41D-05 MaxDP=6.22D-03 DE=-1.86D-05 OVMax= 7.76D-03

 Cycle  11  Pass 1  IDiag  1:
 RMSU=  5.09D-05    CP:  7.99D-01  2.65D+00  6.85D-01  3.79D-01  7.99D-01
                    CP:  1.24D+00  1.50D+00  3.00D+00  2.18D+00  2.15D+00
 E= -245.100522309824     Delta-E=       -0.000010833157 Rises=F Damp=F
 DIIS: error= 6.20D-05 at cycle  11 NSaved=  11.
 NSaved=11 IEnMin=11 EnMin= -245.100522309824     IErMin=11 ErrMin= 6.20D-05
 ErrMax= 6.20D-05  0.00D+00 EMaxC= 1.00D-01 BMatC= 2.12D-06 BMatP= 2.94D-06
 IDIUse=1 WtCom= 1.00D+00 WtEn= 0.00D+00
 Coeff-Com: -0.398D-02 0.518D-02 0.843D-02-0.404D-02 0.244D-01 0.249D-01
 Coeff-Com:  0.761D-01-0.118D+00-0.892D+00 0.846D+00 0.103D+01
 Coeff:     -0.398D-02 0.518D-02 0.843D-02-0.404D-02 0.244D-01 0.249D-01
 Coeff:      0.761D-01-0.118D+00-0.892D+00 0.846D+00 0.103D+01
 Gap=     0.176 Goal=   None    Shift=    0.000
 Gap=     0.065 Goal=   None    Shift=    0.000
 RMSDP=1.15D-04 MaxDP=8.24D-03 DE=-1.08D-05 OVMax= 9.48D-03

 Cycle  12  Pass 1  IDiag  1:
 RMSU=  1.92D-05    CP:  7.98D-01  2.64D+00  6.82D-01  3.92D-01  7.99D-01
                    CP:  1.32D+00  1.52D+00  3.00D+00  2.90D+00  3.00D+00
                    CP:  2.40D+00
 E= -245.100531182019     Delta-E=       -0.000008872196 Rises=F Damp=F
 DIIS: error= 3.98D-05 at cycle  12 NSaved=  12.
 NSaved=12 IEnMin=12 EnMin= -245.100531182019     IErMin=12 ErrMin= 3.98D-05
 ErrMax= 3.98D-05  0.00D+00 EMaxC= 1.00D-01 BMatC= 9.66D-07 BMatP= 2.12D-06
 IDIUse=1 WtCom= 1.00D+00 WtEn= 0.00D+00
 Coeff-Com:  0.942D-03-0.103D-02-0.222D-02-0.260D-03-0.910D-02 0.120D-01
 Coeff-Com:  0.107D+00 0.242D-01-0.518D+00-0.105D+00 0.483D+00 0.101D+01
 Coeff:      0.942D-03-0.103D-02-0.222D-02-0.260D-03-0.910D-02 0.120D-01
 Coeff:      0.107D+00 0.242D-01-0.518D+00-0.105D+00 0.483D+00 0.101D+01
 Gap=     0.176 Goal=   None    Shift=    0.000
 Gap=     0.065 Goal=   None    Shift=    0.000
 RMSDP=8.87D-05 MaxDP=5.95D-03 DE=-8.87D-06 OVMax= 7.06D-03

 Cycle  13  Pass 1  IDiag  1:
 RMSU=  4.58D-05    CP:  7.98D-01  2.63D+00  6.80D-01  4.00D-01  8.00D-01
                    CP:  1.38D+00  1.54D+00  3.00D+00  3.00D+00  3.00D+00
                    CP:  3.00D+00  2.49D+00
 E= -245.100535058474     Delta-E=       -0.000003876455 Rises=F Damp=F
 DIIS: error= 3.31D-05 at cycle  13 NSaved=  13.
 NSaved=13 IEnMin=13 EnMin= -245.100535058474     IErMin=13 ErrMin= 3.31D-05
 ErrMax= 3.31D-05  0.00D+00 EMaxC= 1.00D-01 BMatC= 3.60D-07 BMatP= 9.66D-07
 IDIUse=1 WtCom= 1.00D+00 WtEn= 0.00D+00
 Coeff-Com:  0.248D-02-0.333D-02-0.306D-02 0.171D-02-0.107D-01-0.116D-01
 Coeff-Com: -0.149D-01 0.620D-01 0.235D+00-0.321D+00-0.335D+00 0.348D+00
 Coeff-Com:  0.105D+01
 Coeff:      0.248D-02-0.333D-02-0.306D-02 0.171D-02-0.107D-01-0.116D-01
 Coeff:     -0.149D-01 0.620D-01 0.235D+00-0.321D+00-0.335D+00 0.348D+00
 Coeff:      0.105D+01
 Gap=     0.176 Goal=   None    Shift=    0.000
 Gap=     0.065 Goal=   None    Shift=    0.000
 RMSDP=4.43D-05 MaxDP=3.24D-03 DE=-3.88D-06 OVMax= 3.56D-03

 Cycle  14  Pass 1  IDiag  1:
 RMSU=  1.35D-05    CP:  7.97D-01  2.63D+00  6.79D-01  4.05D-01  8.00D-01
                    CP:  1.41D+00  1.54D+00  3.00D+00  3.00D+00  3.00D+00
                    CP:  3.00D+00  3.00D+00  1.72D+00
 E= -245.100536291548     Delta-E=       -0.000001233073 Rises=F Damp=F
 DIIS: error= 3.33D-05 at cycle  14 NSaved=  14.
 NSaved=14 IEnMin=14 EnMin= -245.100536291548     IErMin=13 ErrMin= 3.31D-05
 ErrMax= 3.33D-05  0.00D+00 EMaxC= 1.00D-01 BMatC= 1.66D-07 BMatP= 3.60D-07
 IDIUse=1 WtCom= 1.00D+00 WtEn= 0.00D+00
 Coeff-Com: -0.139D-02 0.203D-02 0.733D-03-0.145D-03 0.332D-02-0.131D-01
 Coeff-Com: -0.460D-01 0.176D-04 0.315D+00-0.166D-01-0.365D+00-0.434D+00
 Coeff-Com:  0.195D+00 0.136D+01
 Coeff:     -0.139D-02 0.203D-02 0.733D-03-0.145D-03 0.332D-02-0.131D-01
 Coeff:     -0.460D-01 0.176D-04 0.315D+00-0.166D-01-0.365D+00-0.434D+00
 Coeff:      0.195D+00 0.136D+01
 Gap=     0.176 Goal=   None    Shift=    0.000
 Gap=     0.065 Goal=   None    Shift=    0.000
 RMSDP=4.19D-05 MaxDP=2.99D-03 DE=-1.23D-06 OVMax= 3.34D-03

 Cycle  15  Pass 1  IDiag  1:
 RMSU=  9.44D-06    CP:  7.97D-01  2.62D+00  6.78D-01  4.09D-01  8.00D-01
                    CP:  1.44D+00  1.54D+00  3.00D+00  3.00D+00  3.00D+00
                    CP:  3.00D+00  3.00D+00  2.41D+00  2.22D+00
 E= -245.100537004093     Delta-E=       -0.000000712545 Rises=F Damp=F
 DIIS: error= 2.13D-05 at cycle  15 NSaved=  15.
 NSaved=15 IEnMin=15 EnMin= -245.100537004093     IErMin=15 ErrMin= 2.13D-05
 ErrMax= 2.13D-05  0.00D+00 EMaxC= 1.00D-01 BMatC= 4.11D-08 BMatP= 1.66D-07
 IDIUse=1 WtCom= 1.00D+00 WtEn= 0.00D+00
 Coeff-Com: -0.658D-03 0.854D-03 0.125D-02-0.362D-03 0.382D-02-0.196D-02
 Coeff-Com: -0.486D-02-0.220D-01 0.133D-01 0.934D-01 0.139D-02-0.220D+00
 Coeff-Com: -0.264D+00 0.292D+00 0.111D+01
 Coeff:     -0.658D-03 0.854D-03 0.125D-02-0.362D-03 0.382D-02-0.196D-02
 Coeff:     -0.486D-02-0.220D-01 0.133D-01 0.934D-01 0.139D-02-0.220D+00
 Coeff:     -0.264D+00 0.292D+00 0.111D+01
 Gap=     0.176 Goal=   None    Shift=    0.000
 Gap=     0.065 Goal=   None    Shift=    0.000
 RMSDP=2.05D-05 MaxDP=1.47D-03 DE=-7.13D-07 OVMax= 1.64D-03

 Cycle  16  Pass 1  IDiag  1:
 RMSU=  1.66D-06    CP:  7.97D-01  2.62D+00  6.78D-01  4.11D-01  8.00D-01
                    CP:  1.45D+00  1.55D+00  3.00D+00  3.00D+00  3.00D+00
                    CP:  3.00D+00  3.00D+00  2.74D+00  2.82D+00  1.49D+00
 E= -245.100537155316     Delta-E=       -0.000000151223 Rises=F Damp=F
 DIIS: error= 6.03D-06 at cycle  16 NSaved=  16.
 NSaved=16 IEnMin=16 EnMin= -245.100537155316     IErMin=16 ErrMin= 6.03D-06
 ErrMax= 6.03D-06  0.00D+00 EMaxC= 1.00D-01 BMatC= 8.34D-09 BMatP= 4.11D-08
 IDIUse=1 WtCom= 1.00D+00 WtEn= 0.00D+00
 Coeff-Com:  0.211D-03-0.303D-03 0.390D-04-0.343D-04-0.322D-03 0.304D-02
 Coeff-Com:  0.955D-02-0.225D-02-0.777D-01 0.266D-01 0.904D-01 0.662D-01
 Coeff-Com: -0.894D-01-0.359D+00 0.287D+00 0.105D+01
 Coeff:      0.211D-03-0.303D-03 0.390D-04-0.343D-04-0.322D-03 0.304D-02
 Coeff:      0.955D-02-0.225D-02-0.777D-01 0.266D-01 0.904D-01 0.662D-01
 Coeff:     -0.894D-01-0.359D+00 0.287D+00 0.105D+01
 Gap=     0.176 Goal=   None    Shift=    0.000
 Gap=     0.065 Goal=   None    Shift=    0.000
 RMSDP=7.54D-06 MaxDP=5.27D-04 DE=-1.51D-07 OVMax= 5.76D-04

 Cycle  17  Pass 1  IDiag  1:
 RMSU=  1.03D-06    CP:  7.97D-01  2.62D+00  6.78D-01  4.12D-01  8.00D-01
                    CP:  1.46D+00  1.56D+00  3.00D+00  3.00D+00  3.00D+00
                    CP:  3.00D+00  3.00D+00  2.86D+00  3.00D+00  1.66D+00
                    CP:  1.27D+00
 E= -245.100537175671     Delta-E=       -0.000000020356 Rises=F Damp=F
 DIIS: error= 2.49D-06 at cycle  17 NSaved=  17.
 NSaved=17 IEnMin=17 EnMin= -245.100537175671     IErMin=17 ErrMin= 2.49D-06
 ErrMax= 2.49D-06  0.00D+00 EMaxC= 1.00D-01 BMatC= 1.09D-09 BMatP= 8.34D-09
 IDIUse=1 WtCom= 1.00D+00 WtEn= 0.00D+00
 Coeff-Com:  0.761D-04-0.883D-04-0.245D-03 0.583D-04-0.689D-03 0.257D-03
 Coeff-Com: -0.450D-03 0.502D-02 0.468D-02-0.189D-01-0.851D-02 0.248D-01
 Coeff-Com:  0.764D-01-0.211D-01-0.211D+00-0.174D+00 0.132D+01
 Coeff:      0.761D-04-0.883D-04-0.245D-03 0.583D-04-0.689D-03 0.257D-03
 Coeff:     -0.450D-03 0.502D-02 0.468D-02-0.189D-01-0.851D-02 0.248D-01
 Coeff:      0.764D-01-0.211D-01-0.211D+00-0.174D+00 0.132D+01
 Gap=     0.176 Goal=   None    Shift=    0.000
 Gap=     0.065 Goal=   None    Shift=    0.000
 RMSDP=1.04D-06 MaxDP=7.01D-05 DE=-2.04D-08 OVMax= 7.27D-05

 Cycle  18  Pass 1  IDiag  1:
 RMSU=  3.05D-07    CP:  7.97D-01  2.62D+00  6.78D-01  4.12D-01  8.00D-01
                    CP:  1.46D+00  1.56D+00  3.00D+00  3.00D+00  3.00D+00
                    CP:  3.00D+00  3.00D+00  2.87D+00  3.00D+00  1.69D+00
                    CP:  1.37D+00  1.46D+00
 E= -245.100537177740     Delta-E=       -0.000000002069 Rises=F Damp=F
 DIIS: error= 9.49D-07 at cycle  18 NSaved=  18.
 NSaved=18 IEnMin=18 EnMin= -245.100537177740     IErMin=18 ErrMin= 9.49D-07
 ErrMax= 9.49D-07  0.00D+00 EMaxC= 1.00D-01 BMatC= 1.87D-10 BMatP= 1.09D-09
 IDIUse=1 WtCom= 1.00D+00 WtEn= 0.00D+00
 Coeff-Com:  0.207D-05-0.457D-05-0.407D-04 0.246D-04-0.602D-04-0.494D-03
 Coeff-Com: -0.767D-03-0.214D-03 0.101D-01-0.377D-02-0.824D-02-0.135D-01
 Coeff-Com:  0.117D-01 0.420D-01-0.231D-01-0.120D+00-0.143D+00 0.125D+01
 Coeff:      0.207D-05-0.457D-05-0.407D-04 0.246D-04-0.602D-04-0.494D-03
 Coeff:     -0.767D-03-0.214D-03 0.101D-01-0.377D-02-0.824D-02-0.135D-01
 Coeff:      0.117D-01 0.420D-01-0.231D-01-0.120D+00-0.143D+00 0.125D+01
 Gap=     0.176 Goal=   None    Shift=    0.000
 Gap=     0.065 Goal=   None    Shift=    0.000
 RMSDP=2.88D-07 MaxDP=2.20D-05 DE=-2.07D-09 OVMax= 2.53D-05

 Cycle  19  Pass 1  IDiag  1:
 RMSU=  1.09D-07    CP:  7.97D-01  2.62D+00  6.78D-01  4.12D-01  8.00D-01
                    CP:  1.46D+00  1.56D+00  3.00D+00  3.00D+00  3.00D+00
                    CP:  3.00D+00  3.00D+00  2.88D+00  3.00D+00  1.69D+00
                    CP:  1.39D+00  1.55D+00  1.35D+00
 E= -245.100537178018     Delta-E=       -0.000000000278 Rises=F Damp=F
 DIIS: error= 4.62D-07 at cycle  19 NSaved=  19.
 NSaved=19 IEnMin=19 EnMin= -245.100537178018     IErMin=19 ErrMin= 4.62D-07
 ErrMax= 4.62D-07  0.00D+00 EMaxC= 1.00D-01 BMatC= 2.30D-11 BMatP= 1.87D-10
 IDIUse=1 WtCom= 1.00D+00 WtEn= 0.00D+00
 Coeff-Com: -0.312D-05 0.240D-05 0.146D-04-0.650D-06 0.448D-04-0.253D-04
 Coeff-Com: -0.730D-04-0.377D-03 0.112D-03 0.164D-02 0.676D-03-0.366D-02
 Coeff-Com: -0.676D-02 0.167D-02 0.256D-01 0.190D-01-0.174D+00 0.550D-01
 Coeff-Com:  0.108D+01
 Coeff:     -0.312D-05 0.240D-05 0.146D-04-0.650D-06 0.448D-04-0.253D-04
 Coeff:     -0.730D-04-0.377D-03 0.112D-03 0.164D-02 0.676D-03-0.366D-02
 Coeff:     -0.676D-02 0.167D-02 0.256D-01 0.190D-01-0.174D+00 0.550D-01
 Coeff:      0.108D+01
 Gap=     0.176 Goal=   None    Shift=    0.000
 Gap=     0.065 Goal=   None    Shift=    0.000
 RMSDP=6.34D-08 MaxDP=3.05D-06 DE=-2.78D-10 OVMax= 7.64D-06

 Cycle  20  Pass 1  IDiag  1:
 RMSU=  2.95D-08    CP:  7.97D-01  2.62D+00  6.78D-01  4.12D-01  8.00D-01
                    CP:  1.46D+00  1.56D+00  3.00D+00  3.00D+00  3.00D+00
                    CP:  3.00D+00  3.00D+00  2.88D+00  3.00D+00  1.69D+00
                    CP:  1.39D+00  1.55D+00  1.44D+00  1.35D+00
 E= -245.100537178045     Delta-E=       -0.000000000027 Rises=F Damp=F
 DIIS: error= 1.09D-07 at cycle  20 NSaved=  20.
 NSaved=20 IEnMin=20 EnMin= -245.100537178045     IErMin=20 ErrMin= 1.09D-07
 ErrMax= 1.09D-07  0.00D+00 EMaxC= 1.00D-01 BMatC= 3.28D-12 BMatP= 2.30D-11
 IDIUse=1 WtCom= 1.00D+00 WtEn= 0.00D+00
 Coeff-Com: -0.726D-06 0.124D-05 0.881D-05-0.401D-05 0.154D-04 0.829D-04
 Coeff-Com:  0.979D-04 0.111D-04-0.159D-02 0.805D-03 0.131D-02 0.145D-02
 Coeff-Com: -0.280D-02-0.715D-02 0.887D-02 0.229D-01-0.804D-02-0.191D+00
 Coeff-Com:  0.146D+00 0.103D+01
 Coeff:     -0.726D-06 0.124D-05 0.881D-05-0.401D-05 0.154D-04 0.829D-04
 Coeff:      0.979D-04 0.111D-04-0.159D-02 0.805D-03 0.131D-02 0.145D-02
 Coeff:     -0.280D-02-0.715D-02 0.887D-02 0.229D-01-0.804D-02-0.191D+00
 Coeff:      0.146D+00 0.103D+01
 Gap=     0.176 Goal=   None    Shift=    0.000
 Gap=     0.065 Goal=   None    Shift=    0.000
 RMSDP=6.73D-08 MaxDP=5.05D-06 DE=-2.68D-11 OVMax= 5.25D-06

 Cycle  21  Pass 1  IDiag  1:
 Restarting incremental Fock formation.
 E= -245.100537177918     Delta-E=        0.000000000127 Rises=F Damp=F
 DIIS: error= 4.12D-08 at cycle  21 NSaved=  20.
 NSaved=20 IEnMin=19 EnMin= -245.100537178045     IErMin=20 ErrMin= 4.12D-08
 ErrMax= 4.12D-08  0.00D+00 EMaxC= 1.00D-01 BMatC= 4.06D-13 BMatP= 3.28D-12
 IDIUse=1 WtCom= 1.00D+00 WtEn= 0.00D+00
 Coeff-Com:  0.543D-06-0.408D-06-0.101D-05-0.480D-05-0.784D-06 0.212D-04
 Coeff-Com:  0.273D-04 0.263D-04-0.187D-03-0.175D-03 0.465D-03 0.825D-03
 Coeff-Com: -0.951D-04-0.347D-02-0.303D-02 0.257D-01-0.656D-02-0.173D+00
 Coeff-Com:  0.146D-01 0.114D+01
 Coeff:      0.543D-06-0.408D-06-0.101D-05-0.480D-05-0.784D-06 0.212D-04
 Coeff:      0.273D-04 0.263D-04-0.187D-03-0.175D-03 0.465D-03 0.825D-03
 Coeff:     -0.951D-04-0.347D-02-0.303D-02 0.257D-01-0.656D-02-0.173D+00
 Coeff:      0.146D-01 0.114D+01
 Gap=     0.176 Goal=   None    Shift=    0.000
 Gap=     0.065 Goal=   None    Shift=    0.000
 RMSDP=1.26D-07 MaxDP=5.93D-06 DE= 1.27D-10 OVMax= 1.59D-06

 Cycle  22  Pass 1  IDiag  1:
 RMSU=  1.26D-07    CP:  1.00D+00
 E= -245.100537177919     Delta-E=       -0.000000000001 Rises=F Damp=F
 DIIS: error= 7.65D-09 at cycle  22 NSaved=  20.
 NSaved=20 IEnMin=18 EnMin= -245.100537178045     IErMin=20 ErrMin= 7.65D-09
 ErrMax= 7.65D-09  0.00D+00 EMaxC= 1.00D-01 BMatC= 2.60D-14 BMatP= 4.06D-13
 IDIUse=1 WtCom= 1.00D+00 WtEn= 0.00D+00
 Coeff-Com: -0.623D-07-0.243D-06 0.130D-06-0.404D-06-0.569D-06-0.322D-05
 Coeff-Com:  0.297D-04-0.175D-05-0.721D-04 0.638D-04 0.269D-04 0.294D-03
 Coeff-Com: -0.522D-03-0.783D-03 0.121D-02 0.617D-02-0.113D-01-0.435D-01
 Coeff-Com:  0.189D-01 0.103D+01
 Coeff:     -0.623D-07-0.243D-06 0.130D-06-0.404D-06-0.569D-06-0.322D-05
 Coeff:      0.297D-04-0.175D-05-0.721D-04 0.638D-04 0.269D-04 0.294D-03
 Coeff:     -0.522D-03-0.783D-03 0.121D-02 0.617D-02-0.113D-01-0.435D-01
 Coeff:      0.189D-01 0.103D+01
 Gap=     0.176 Goal=   None    Shift=    0.000
 Gap=     0.065 Goal=   None    Shift=    0.000
 RMSDP=9.75D-09 MaxDP=5.07D-07 DE=-9.66D-13 OVMax= 2.01D-07

 SCF Done:  E(UB3LYP) =  -245.100537178     A.U. after   22 cycles
            NFock= 22  Conv=0.98D-08     -V/T= 2.0043
 <Sx>= 0.0000 <Sy>= 0.0000 <Sz>= 0.5000 <S**2>= 0.7811 S= 0.5154
 <L.S>= 0.000000000000E+00
 KE= 2.440428780719D+02 PE=-8.421403717903D+02 EE= 2.164348371905D+02
 Annihilation of the first spin contaminant:
 S**2 before annihilation     0.7811,   after     0.7505
 Leave Link  502 at Mon Sep 17 00:42:28 2018, MaxMem=    33554432 cpu:      1184.6
 (Enter /home/nestor/.gaussian09/l801.exe)
 DoSCS=F DFT=T ScalE2(SS,OS)=  1.000000  1.000000
 Range of M.O.s used for correlation:     1   232
 NBasis=   234 NAE=    19 NBE=    18 NFC=     0 NFV=     0
 NROrb=    232 NOA=    19 NOB=    18 NVA=   213 NVB=   214

 **** Warning!!: The largest alpha MO coefficient is  0.20522352D+03


 **** Warning!!: The largest beta MO coefficient is  0.22575492D+03


 **** Warning!!: The smallest beta delta epsilon is  0.65425243D-01

 Leave Link  801 at Mon Sep 17 00:42:28 2018, MaxMem=    33554432 cpu:         0.2
 (Enter /home/nestor/.gaussian09/l1101.exe)
 Using compressed storage, NAtomX=     6.
 Will process      7 centers per pass.
 Leave Link 1101 at Mon Sep 17 00:42:29 2018, MaxMem=    33554432 cpu:         1.9
 (Enter /home/nestor/.gaussian09/l1102.exe)
 Symmetrizing basis deriv contribution to polar:
 IMax=3 JMax=2 DiffMx= 0.00D+00
 Leave Link 1102 at Mon Sep 17 00:42:30 2018, MaxMem=    33554432 cpu:         0.5
 (Enter /home/nestor/.gaussian09/l1110.exe)
 Forming Gx(P) for the SCF density, NAtomX=     6.
 Integral derivatives from FoFJK, PRISM(SPDF).
 Do as many integral derivatives as possible in FoFJK.
 G2DrvN: MDV=      33554280.
 G2DrvN: will do     7 centers at a time, making    1 passes.
 Calling FoFCou, ICntrl=  3107 FMM=F I1Cent=   0 AccDes= 0.00D+00.
 FoFJK:  IHMeth= 1 ICntrl=    3107 DoSepK=F KAlg= 0 I1Cent=   0 FoldK=F
 IRaf=         0 NMat=   1 IRICut=       1 DoRegI=T DoRafI=F ISym2E= 1.
 FoFCou: FMM=F IPFlag=           0 FMFlag=      100000 FMFlg1=           0
         NFxFlg=           0 DoJE=F BraDBF=F KetDBF=F FulRan=T
         wScrn=  0.000000 ICntrl=    3107 IOpCl=  1 I1Cent=           0 NGrid=           0
         NMat0=    1 NMatS0=      1 NMatT0=    0 NMatD0=    1 NMtDS0=    0 NMtDT0=    0
 Petite list used in FoFCou.
 End of G2Drv F.D. properties file   721 does not exist.
 End of G2Drv F.D. properties file   722 does not exist.
 End of G2Drv F.D. properties file   788 does not exist.
 Leave Link 1110 at Mon Sep 17 00:44:45 2018, MaxMem=    33554432 cpu:       434.3
 (Enter /home/nestor/.gaussian09/l1002.exe)
 Minotr:  UHF open shell wavefunction.
          IDoAtm=111111
          Direct CPHF calculation.
          Differentiating once with respect to electric field.
                with respect to dipole field.
          Differentiating once with respect to nuclear coordinates.
          Using symmetry in CPHF.
          Requested convergence is 1.0D-08 RMS, and 1.0D-07 maximum.
          Secondary convergence is 1.0D-12 RMS, and 1.0D-12 maximum.
          NewPWx=T KeepS1=F KeepF1=F KeepIn=T MapXYZ=F SortEE=F KeepMc=T.
          MDV=      33553904 using IRadAn=       2.
 Generate precomputed XC quadrature information.
          Solving linear equations simultaneously, MaxMat=       0.
 FoFJK:  IHMeth= 1 ICntrl=       0 DoSepK=F KAlg= 0 I1Cent=   0 FoldK=F
 IRaf= 920000000 NMat=  21 IRICut=      52 DoRegI=T DoRafI=T ISym2E= 2.
 FoFCou: FMM=F IPFlag=           0 FMFlag=      100000 FMFlg1=           0
         NFxFlg=           0 DoJE=F BraDBF=F KetDBF=F FulRan=T
         wScrn=  0.000000 ICntrl=       0 IOpCl=  1 I1Cent=           0 NGrid=           0
         NMat0=   21 NMatS0=     21 NMatT0=    0 NMatD0=   21 NMtDS0=    0 NMtDT0=    0
 Integrals replicated using symmetry in FoFCou.
          There are    21 degrees of freedom in the 1st order CPHF.  IDoFFX=6 NUNeed=     3.
     18 vectors produced by pass  0 Test12= 3.76D-14 4.76D-09 XBig12= 9.67D+02 1.40D+01.
 AX will form    18 AO Fock derivatives at one time.
     18 vectors produced by pass  1 Test12= 3.76D-14 4.76D-09 XBig12= 3.26D+02 3.75D+00.
     18 vectors produced by pass  2 Test12= 3.76D-14 4.76D-09 XBig12= 8.24D+00 5.87D-01.
     18 vectors produced by pass  3 Test12= 3.76D-14 4.76D-09 XBig12= 2.44D-01 1.56D-01.
     18 vectors produced by pass  4 Test12= 3.76D-14 4.76D-09 XBig12= 4.09D-03 1.29D-02.
     18 vectors produced by pass  5 Test12= 3.76D-14 4.76D-09 XBig12= 6.79D-05 1.97D-03.
     18 vectors produced by pass  6 Test12= 3.76D-14 4.76D-09 XBig12= 5.44D-07 1.13D-04.
     16 vectors produced by pass  7 Test12= 3.76D-14 4.76D-09 XBig12= 3.63D-09 7.67D-06.
      7 vectors produced by pass  8 Test12= 3.76D-14 4.76D-09 XBig12= 1.94D-11 8.33D-07.
      4 vectors produced by pass  9 Test12= 3.76D-14 4.76D-09 XBig12= 1.78D-12 3.21D-07.
      3 vectors produced by pass 10 Test12= 3.76D-14 4.76D-09 XBig12= 2.89D-13 1.02D-07.
      2 vectors produced by pass 11 Test12= 3.76D-14 4.76D-09 XBig12= 1.03D-14 2.17D-08.
      1 vectors produced by pass 12 Test12= 3.76D-14 4.76D-09 XBig12= 1.75D-15 7.23D-09.
 InvSVY:  IOpt=1 It=  1 EMax= 1.42D-14
 Solved reduced A of dimension   159 with    21 vectors.
 FullF1:  Do perturbations    1 to     3.
 Isotropic polarizability for W=    0.000000       89.36 Bohr**3.
 End of Minotr F.D. properties file   721 does not exist.
 End of Minotr F.D. properties file   722 does not exist.
 End of Minotr F.D. properties file   788 does not exist.
 Leave Link 1002 at Mon Sep 17 00:54:10 2018, MaxMem=    33554432 cpu:      1816.4
 (Enter /home/nestor/.gaussian09/l601.exe)
 Copying SCF densities to generalized density rwf, IOpCl= 1 IROHF=0.

 **********************************************************************

            Population analysis using the SCF density.

 **********************************************************************

 Orbital symmetries:
 Alpha Orbitals:
       Occupied  (A') (A') (A') (A') (A') (A') (A') (A') (A') (A')
                 (A') (A') (A") (A') (A') (A") (A') (A') (A")
       Virtual   (A') (A") (A') (A') (A") (A') (A') (A") (A') (A')
                 (A") (A') (A') (A") (A') (A') (A") (A') (A') (A')
                 (A") (A') (A") (A') (A') (A") (A') (A') (A") (A')
                 (A') (A") (A') (A') (A') (A') (A") (A') (A') (A")
                 (A') (A') (A") (A') (A') (A") (A') (A") (A") (A')
                 (A') (A') (A") (A') (A") (A') (A') (A") (A') (A')
                 (A') (A") (A') (A") (A') (A') (A") (A') (A') (A')
                 (A") (A') (A') (A") (A') (A") (A') (A') (A') (A')
                 (A") (A') (A") (A') (A') (A") (A') (A') (A') (A')
                 (A") (A') (A") (A') (A") (A') (A") (A') (A') (A")
                 (A') (A') (A") (A') (A") (A') (A') (A") (A') (A")
                 (A') (A') (A") (A') (A") (A") (A') (A') (A") (A')
                 (A') (A') (A") (A') (A") (A") (A') (A') (A") (A')
                 (A") (A') (A") (A') (A') (A") (A') (A") (A') (A")
                 (A') (A') (A") (A') (A') (A') (A") (A') (A') (A")
                 (A') (A") (A') (A') (A") (A') (A') (A') (A") (A')
                 (A") (A') (A') (A") (A') (A") (A') (A') (A') (A")
                 (A') (A') (A') (A") (A') (A") (A') (A") (A') (A")
                 (A') (A") (A') (A") (A') (A") (A') (A') (A") (A')
                 (A") (A') (A") (A') (A") (A') (A') (A") (A') (A')
                 (A') (A') (A') (A") (A') (A") (A') (A') (A') (A')
                 (A') (A') (A')
 Beta  Orbitals:
       Occupied  (A') (A') (A') (A') (A') (A') (A') (A') (A') (A')
                 (A') (A") (A') (A') (A") (A') (A') (A")
       Virtual   (A') (A") (A') (A') (A") (A') (A') (A") (A') (A')
                 (A') (A") (A') (A') (A") (A') (A') (A") (A') (A')
                 (A') (A") (A') (A") (A') (A') (A") (A') (A") (A')
                 (A') (A') (A") (A') (A') (A') (A") (A') (A') (A')
                 (A") (A') (A') (A") (A') (A") (A') (A") (A') (A")
                 (A') (A') (A') (A") (A') (A") (A') (A') (A") (A')
                 (A') (A") (A') (A') (A") (A') (A") (A') (A') (A')
                 (A') (A") (A') (A') (A") (A') (A") (A') (A') (A')
                 (A') (A") (A') (A") (A') (A') (A") (A') (A') (A')
                 (A") (A') (A') (A") (A') (A") (A') (A") (A') (A')
                 (A") (A') (A") (A') (A') (A") (A') (A") (A') (A')
                 (A") (A') (A") (A') (A') (A") (A") (A') (A') (A")
                 (A') (A') (A") (A') (A") (A') (A") (A') (A") (A')
                 (A') (A") (A') (A") (A') (A') (A") (A') (A") (A')
                 (A") (A') (A") (A') (A') (A') (A') (A") (A') (A")
                 (A') (A") (A') (A') (A') (A") (A') (A') (A") (A')
                 (A") (A') (A') (A') (A") (A') (A") (A') (A') (A')
                 (A") (A') (A') (A') (A") (A') (A") (A') (A") (A')
                 (A") (A") (A') (A') (A") (A') (A") (A') (A') (A")
                 (A") (A') (A") (A') (A') (A") (A') (A") (A') (A')
                 (A') (A') (A') (A") (A') (A") (A') (A') (A') (A')
                 (A') (A') (A') (A')
 The electronic state is 2-A'.
 Alpha  occ. eigenvalues --  -14.38661 -10.29350 -10.29152 -10.27937 -10.26334
 Alpha  occ. eigenvalues --  -10.25136  -0.97680  -0.89021  -0.82764  -0.74080
 Alpha  occ. eigenvalues --   -0.66709  -0.46760  -0.45827  -0.43194  -0.41018
 Alpha  occ. eigenvalues --   -0.39914  -0.34023  -0.32548  -0.30889
 Alpha virt. eigenvalues --   -0.13271  -0.12260  -0.01260   0.00340   0.01651
 Alpha virt. eigenvalues --    0.02364   0.03551   0.03779   0.05270   0.06512
 Alpha virt. eigenvalues --    0.06941   0.07426   0.10518   0.10774   0.11388
 Alpha virt. eigenvalues --    0.13167   0.14716   0.14734   0.16454   0.17023
 Alpha virt. eigenvalues --    0.17628   0.19359   0.19795   0.20315   0.22404
 Alpha virt. eigenvalues --    0.22939   0.23159   0.23805   0.23920   0.25309
 Alpha virt. eigenvalues --    0.25803   0.28652   0.28966   0.30622   0.34750
 Alpha virt. eigenvalues --    0.36890   0.36908   0.40122   0.41866   0.42445
 Alpha virt. eigenvalues --    0.43383   0.44915   0.45364   0.46259   0.48872
 Alpha virt. eigenvalues --    0.48895   0.51889   0.52638   0.55297   0.55636
 Alpha virt. eigenvalues --    0.57884   0.61409   0.62550   0.64092   0.64102
 Alpha virt. eigenvalues --    0.66512   0.67915   0.68599   0.69951   0.71273
 Alpha virt. eigenvalues --    0.77452   0.77648   0.78149   0.81123   0.81316
 Alpha virt. eigenvalues --    0.86981   0.87310   0.92949   0.94089   1.01691
 Alpha virt. eigenvalues --    1.02387   1.07123   1.08383   1.10119   1.10834
 Alpha virt. eigenvalues --    1.12409   1.19499   1.21912   1.26972   1.27428
 Alpha virt. eigenvalues --    1.28535   1.29767   1.33091   1.33485   1.37381
 Alpha virt. eigenvalues --    1.41742   1.42054   1.45432   1.50924   1.52601
 Alpha virt. eigenvalues --    1.52607   1.55951   1.57104   1.66872   1.67344
 Alpha virt. eigenvalues --    1.67368   1.68572   1.68751   1.80090   1.83336
 Alpha virt. eigenvalues --    1.84123   1.85118   1.85184   2.07760   2.14675
 Alpha virt. eigenvalues --    2.16401   2.30487   2.30489   2.45891   2.46211
 Alpha virt. eigenvalues --    2.47156   2.48472   2.48475   2.50398   2.51634
 Alpha virt. eigenvalues --    2.59722   2.59723   2.63106   2.65312   2.71224
 Alpha virt. eigenvalues --    2.73274   2.73573   2.73576   2.75070   2.75185
 Alpha virt. eigenvalues --    2.83440   2.83564   2.88819   2.89805   2.91986
 Alpha virt. eigenvalues --    2.92161   2.92236   2.96165   3.00124   3.02789
 Alpha virt. eigenvalues --    3.03088   3.06992   3.07137   3.08488   3.11449
 Alpha virt. eigenvalues --    3.11593   3.18016   3.18714   3.22595   3.33387
 Alpha virt. eigenvalues --    3.42643   3.43816   3.47913   3.58561   3.58647
 Alpha virt. eigenvalues --    3.60742   3.60744   3.63745   3.89580   3.92982
 Alpha virt. eigenvalues --    4.01822   4.08214   4.12593   4.12721   4.20260
 Alpha virt. eigenvalues --    4.20314   4.33455   4.53794   4.54557   4.59358
 Alpha virt. eigenvalues --    4.60460   4.87752   5.00849   5.15392   5.17007
 Alpha virt. eigenvalues --    5.23702   5.72677   5.83976   5.87724   6.76980
 Alpha virt. eigenvalues --    6.81858   6.83645   6.84651   6.90237   6.90482
 Alpha virt. eigenvalues --    6.95912   6.95967   7.01550   7.01552   7.02895
 Alpha virt. eigenvalues --    7.06599   7.06668   7.22802   7.25854   7.29460
 Alpha virt. eigenvalues --    7.29725   7.32813   7.33175   7.37295   7.48778
 Alpha virt. eigenvalues --    7.49603   7.70630   7.70988   7.73856   8.25331
 Alpha virt. eigenvalues --    8.70707   8.75540  10.12214  10.12219  10.86784
 Alpha virt. eigenvalues --   10.87604  11.08870  24.14662  25.60672  25.84012
 Alpha virt. eigenvalues --   26.08168  26.79366  37.15543
  Beta  occ. eigenvalues --  -14.38217 -10.29406 -10.28719 -10.28107 -10.25837
  Beta  occ. eigenvalues --  -10.24669  -0.96886  -0.88089  -0.80855  -0.73315
  Beta  occ. eigenvalues --   -0.66113  -0.45612  -0.44678  -0.42547  -0.39693
  Beta  occ. eigenvalues --   -0.38481  -0.32547  -0.30146
  Beta virt. eigenvalues --   -0.23603  -0.11995  -0.10583  -0.01128   0.01924
  Beta virt. eigenvalues --    0.02041   0.02886   0.03811   0.03840   0.05428
  Beta virt. eigenvalues --    0.06669   0.06959   0.07605   0.10793   0.10805
  Beta virt. eigenvalues --    0.11554   0.14263   0.14867   0.15226   0.17027
  Beta virt. eigenvalues --    0.17339   0.17812   0.19741   0.19941   0.20747
  Beta virt. eigenvalues --    0.22604   0.23057   0.23469   0.24020   0.24105
  Beta virt. eigenvalues --    0.25662   0.26011   0.28977   0.29429   0.30773
  Beta virt. eigenvalues --    0.34951   0.37254   0.37300   0.40459   0.42318
  Beta virt. eigenvalues --    0.42501   0.44111   0.45191   0.45442   0.46729
  Beta virt. eigenvalues --    0.49223   0.49280   0.52775   0.52847   0.55360
  Beta virt. eigenvalues --    0.56017   0.58102   0.62080   0.62715   0.64396
  Beta virt. eigenvalues --    0.64420   0.66919   0.68705   0.68733   0.70363
  Beta virt. eigenvalues --    0.71949   0.77801   0.78245   0.78644   0.81385
  Beta virt. eigenvalues --    0.81684   0.87452   0.87576   0.93509   0.94446
  Beta virt. eigenvalues --    1.02188   1.02425   1.07563   1.09122   1.10261
  Beta virt. eigenvalues --    1.11994   1.12640   1.20018   1.22268   1.27811
  Beta virt. eigenvalues --    1.27978   1.28738   1.30557   1.33748   1.34091
  Beta virt. eigenvalues --    1.37940   1.42842   1.43128   1.45625   1.51230
  Beta virt. eigenvalues --    1.53125   1.53223   1.57139   1.57366   1.67711
  Beta virt. eigenvalues --    1.68457   1.68779   1.69063   1.69683   1.80581
  Beta virt. eigenvalues --    1.83528   1.84815   1.86067   1.86218   2.08821
  Beta virt. eigenvalues --    2.14954   2.18057   2.31496   2.31524   2.47083
  Beta virt. eigenvalues --    2.47206   2.47766   2.49343   2.49349   2.51729
  Beta virt. eigenvalues --    2.51863   2.61146   2.61160   2.64816   2.65676
  Beta virt. eigenvalues --    2.72170   2.73699   2.73990   2.74007   2.76012
  Beta virt. eigenvalues --    2.76207   2.83470   2.84090   2.90399   2.90812
  Beta virt. eigenvalues --    2.93471   2.93512   2.93535   2.96496   3.00862
  Beta virt. eigenvalues --    3.02895   3.02980   3.07750   3.07751   3.09634
  Beta virt. eigenvalues --    3.12290   3.12633   3.19304   3.19352   3.22849
  Beta virt. eigenvalues --    3.33978   3.43895   3.44018   3.48479   3.59782
  Beta virt. eigenvalues --    3.59865   3.61972   3.61974   3.64589   3.90992
  Beta virt. eigenvalues --    3.93269   4.02618   4.09048   4.13479   4.13604
  Beta virt. eigenvalues --    4.20788   4.21822   4.33968   4.54704   4.55002
  Beta virt. eigenvalues --    4.60438   4.60877   4.88147   5.01213   5.16638
  Beta virt. eigenvalues --    5.17215   5.24138   5.73477   5.84972   5.87838
  Beta virt. eigenvalues --    6.77837   6.82270   6.84560   6.85247   6.91508
  Beta virt. eigenvalues --    6.91576   6.96646   6.96669   7.03210   7.03488
  Beta virt. eigenvalues --    7.03844   7.07848   7.07917   7.25389   7.26107
  Beta virt. eigenvalues --    7.29610   7.29669   7.33200   7.33774   7.38187
  Beta virt. eigenvalues --    7.48981   7.51198   7.71027   7.71635   7.74537
  Beta virt. eigenvalues --    8.25651   8.71206   8.75710  10.14196  10.14225
  Beta virt. eigenvalues --   10.87957  10.88447  11.09740  24.15064  25.60633
  Beta virt. eigenvalues --   25.84326  26.08752  26.79637  37.16004
          Condensed to atoms (all electrons):
               1          2          3          4          5          6
     1  C    7.176568  -1.211065   0.182345  -0.433534  -0.183698   0.469792
     2  C   -1.211065   8.807658  -1.452601   0.262271  -0.732549  -0.508975
     3  C    0.182345  -1.452601   8.236479   0.070739  -0.605359  -0.038016
     4  C   -0.433534   0.262271   0.070739   9.694360  -4.773734  -0.049314
     5  C   -0.183698  -0.732549  -0.605359  -4.773734  13.040106  -0.009161
     6  N    0.469792  -0.508975  -0.038016  -0.049314  -0.009161   8.070546
          Atomic-Atomic Spin Densities.
               1          2          3          4          5          6
     1  C   -0.047318   0.047565  -0.110289  -0.008427  -0.032481   0.008426
     2  C    0.047565   0.476866  -0.036379  -0.143197  -0.109301  -0.031568
     3  C   -0.110289  -0.036379   0.310869   0.102793  -0.153320  -0.005595
     4  C   -0.008427  -0.143197   0.102793   0.713694  -0.370615  -0.000793
     5  C   -0.032481  -0.109301  -0.153320  -0.370615   0.972733  -0.000134
     6  N    0.008426  -0.031568  -0.005595  -0.000793  -0.000134   0.259788
 Mulliken charges and spin densities:
               1          2
     1  C   -0.000408  -0.142525
     2  C    0.835260   0.203985
     3  C   -0.393587   0.108078
     4  C    1.229211   0.293455
     5  C   -0.735605   0.306882
     6  N   -0.934873   0.230124
 Sum of Mulliken charges =   0.00000   1.00000
 Mulliken charges and spin densities with hydrogens summed into heavy atoms:
               1          2
     1  C   -0.000408  -0.142525
     2  C    0.835260   0.203985
     3  C   -0.393587   0.108078
     4  C    1.229211   0.293455
     5  C   -0.735605   0.306882
     6  N   -0.934873   0.230124
 APT charges:
               1
     1  C    0.054254
     2  C    0.191301
     3  C   -0.114204
     4  C    0.136611
     5  C   -0.120600
     6  N   -0.147361
 Sum of APT charges =   0.00000
 APT charges with hydrogens summed into heavy atoms:
               1
     1  C    0.054254
     2  C    0.191301
     3  C   -0.114204
     4  C    0.136611
     5  C   -0.120600
     6  N   -0.147361
 Electronic spatial extent (au):  <R**2>=            729.4610
 Charge=              0.0000 electrons
 Dipole moment (field-independent basis, Debye):
    X=             -0.4639    Y=              0.5614    Z=              0.0000  Tot=              0.7283
 Quadrupole moment (field-independent basis, Debye-Ang):
   XX=            -31.8894   YY=            -52.9765   ZZ=            -33.4670
   XY=             -0.5230   XZ=              0.0000   YZ=              0.0000
 Traceless Quadrupole moment (field-independent basis, Debye-Ang):
   XX=              7.5549   YY=            -13.5322   ZZ=              5.9773
   XY=             -0.5230   XZ=              0.0000   YZ=              0.0000
 Octapole moment (field-independent basis, Debye-Ang**2):
  XXX=              0.4885  YYY=             31.8112  ZZZ=              0.0000  XYY=             -5.7113
  XXY=              3.2688  XXZ=              0.0000  XZZ=              0.3567  YZZ=              6.0407
  YYZ=              0.0000  XYZ=              0.0000
 Hexadecapole moment (field-independent basis, Debye-Ang**3):
 XXXX=            -42.5798 YYYY=          -1378.2536 ZZZZ=            -37.7345 XXXY=            -40.1367
 XXXZ=              0.0000 YYYX=            -52.0712 YYYZ=              0.0000 ZZZX=              0.0000
 ZZZY=              0.0000 XXYY=           -172.9062 XXZZ=            -13.4528 YYZZ=           -180.6071
 XXYZ=              0.0000 YYXZ=              0.0000 ZZXY=            -14.1023
 N-N= 1.365621193500D+02 E-N=-8.421403719320D+02  KE= 2.440428780719D+02
 Symmetry A'   KE= 2.364080963177D+02
 Symmetry A"   KE= 7.634781754153D+00
  Exact polarizability:  39.329  16.449 183.085   0.000   0.000  45.662
 Approx polarizability:  55.771  29.895 397.977   0.000   0.000  52.230
                          Isotropic Fermi Contact Couplings
        Atom                 a.u.       MegaHertz       Gauss      10(-4) cm-1
     1  C(13)             -0.02646     -29.74514     -10.61381      -9.92191
     2  C(13)              0.02085      23.43837       8.36339       7.81820
     3  C(13)             -0.03007     -33.79928     -12.06042     -11.27423
     4  C(13)              0.01280      14.39059       5.13492       4.80019
     5  C(13)              0.03637      40.88364      14.58830      13.63732
     6  N(14)              0.00979       3.16199       1.12828       1.05473
 --------------------------------------------------------
       Center         ----  Spin Dipole Couplings  ----
                      3XX-RR        3YY-RR        3ZZ-RR
 --------------------------------------------------------
     1   Atom       -0.085247      0.088758     -0.003512
     2   Atom        0.426611     -0.226407     -0.200204
     3   Atom       -0.074113      0.094749     -0.020636
     4   Atom        0.393889     -0.172129     -0.221759
     5   Atom        0.331434     -0.093222     -0.238212
     6   Atom        0.442203     -0.251535     -0.190667
 --------------------------------------------------------
                        XY            XZ            YZ
 --------------------------------------------------------
     1   Atom        0.024173      0.000000      0.000000
     2   Atom       -0.074909      0.000000      0.000000
     3   Atom        0.007863      0.000000      0.000000
     4   Atom       -0.076570      0.000000      0.000000
     5   Atom        0.346240      0.000000      0.000000
     6   Atom       -0.103961      0.000000      0.000000
 --------------------------------------------------------


 ---------------------------------------------------------------------------------
              Anisotropic Spin Dipole Couplings in Principal Axis System
 ---------------------------------------------------------------------------------

       Atom             a.u.   MegaHertz   Gauss  10(-4) cm-1        Axes

              Baa    -0.0885   -11.882    -4.240    -3.963  0.9908 -0.1351  0.0000
     1 C(13)  Bbb    -0.0035    -0.471    -0.168    -0.157  0.0000  0.0000  1.0000
              Bcc     0.0921    12.353     4.408     4.120  0.1351  0.9908  0.0000
 
              Baa    -0.2349   -31.520   -11.247   -10.514  0.1125  0.9936  0.0000
     2 C(13)  Bbb    -0.2002   -26.865    -9.586    -8.961  0.0000  0.0000  1.0000
              Bcc     0.4351    58.385    20.833    19.475  0.9936 -0.1125  0.0000
 
              Baa    -0.0745    -9.994    -3.566    -3.334  0.9989 -0.0464  0.0000
     3 C(13)  Bbb    -0.0206    -2.769    -0.988    -0.924  0.0000  0.0000  1.0000
              Bcc     0.0951    12.763     4.554     4.257  0.0464  0.9989  0.0000
 
              Baa    -0.2218   -29.758   -10.618    -9.926  0.0000  0.0000  1.0000
     4 C(13)  Bbb    -0.1823   -24.464    -8.729    -8.160  0.1317  0.9913  0.0000
              Bcc     0.4041    54.222    19.348    18.086  0.9913 -0.1317  0.0000
 
              Baa    -0.2871   -38.520   -13.745   -12.849 -0.4885  0.8726  0.0000
     5 C(13)  Bbb    -0.2382   -31.966   -11.406   -10.663  0.0000  0.0000  1.0000
              Bcc     0.5253    70.486    25.151    23.511  0.8726  0.4885  0.0000
 
              Baa    -0.2668   -10.289    -3.671    -3.432  0.1451  0.9894  0.0000
     6 N(14)  Bbb    -0.1907    -7.354    -2.624    -2.453  0.0000  0.0000  1.0000
              Bcc     0.4574    17.643     6.295     5.885  0.9894 -0.1451  0.0000
 

 ---------------------------------------------------------------------------------

 No NMR shielding tensors so no spin-rotation constants.
 Leave Link  601 at Mon Sep 17 00:54:11 2018, MaxMem=    33554432 cpu:         4.1
 (Enter /home/nestor/.gaussian09/l701.exe)
 Compute integral second derivatives.
 ... and contract with generalized density number  0.
 Leave Link  701 at Mon Sep 17 00:54:12 2018, MaxMem=    33554432 cpu:         2.3
 (Enter /home/nestor/.gaussian09/l702.exe)
 L702 exits ... SP integral derivatives will be done elsewhere.
 Leave Link  702 at Mon Sep 17 00:54:12 2018, MaxMem=    33554432 cpu:         0.2
 (Enter /home/nestor/.gaussian09/l703.exe)
 Compute integral second derivatives, UseDBF=F ICtDFT=           0.
 Integral derivatives from FoFJK, PRISM(SPDF).
 Calling FoFJK, ICntrl=    100127 FMM=F ISym2X=1 I1Cent= 0 IOpClX= 1 NMat=1 NMatS=1 NMatT=0.
 FoFJK:  IHMeth= 1 ICntrl=  100127 DoSepK=F KAlg= 0 I1Cent=   0 FoldK=F
 IRaf=         0 NMat=   1 IRICut=       1 DoRegI=T DoRafI=F ISym2E= 1.
 FoFCou: FMM=F IPFlag=           0 FMFlag=      100000 FMFlg1=         800
         NFxFlg=           0 DoJE=F BraDBF=F KetDBF=F FulRan=T
         wScrn=  0.000000 ICntrl=  100127 IOpCl=  1 I1Cent=           0 NGrid=           0
         NMat0=    1 NMatS0=      1 NMatT0=    0 NMatD0=    1 NMtDS0=    0 NMtDT0=    0
 Petite list used in FoFCou.
 Leave Link  703 at Mon Sep 17 00:59:16 2018, MaxMem=    33554432 cpu:       938.4
 (Enter /home/nestor/.gaussian09/l716.exe)
 Dipole        =-1.82508538D-01 2.20875546D-01 0.00000000D+00
 Polarizability= 3.93290291D+01 1.64491587D+01 1.83085396D+02
                -3.20504124D-06-9.39143342D-06 4.56621340D+01
 Full mass-weighted force constant matrix:
 Low frequencies ---   -4.6471   -3.4189    0.0005    0.0006    0.0008   67.8781
 Low frequencies ---   97.5050  150.9306  205.6607
 Diagonal vibrational polarizability:
       56.1402587      32.1931477       7.8399717
 Harmonic frequencies (cm**-1), IR intensities (KM/Mole), Raman scattering
 activities (A**4/AMU), depolarization ratios for plane and unpolarized
 incident light, reduced masses (AMU), force constants (mDyne/A),
 and normal coordinates:
                      1                      2                      3
                     A'                     A"                     A'
 Frequencies --     97.5048               150.4964               205.6607
 Red. masses --     12.3664                12.3128                12.2288
 Frc consts  --      0.0693                 0.1643                 0.3047
 IR Inten    --     22.0435                 4.6621                30.1841
  Atom  AN      X      Y      Z        X      Y      Z        X      Y      Z
     1   6     0.03   0.02   0.00     0.00   0.00   0.20     0.29  -0.06   0.00
     2   6     0.40  -0.02   0.00     0.00   0.00   0.65     0.50  -0.09   0.00
     3   6     0.44  -0.03   0.00     0.00   0.00   0.06    -0.03  -0.02   0.00
     4   6     0.25   0.00   0.00     0.00   0.00  -0.60    -0.66   0.02   0.00
     5   6    -0.63  -0.07   0.00     0.00   0.00   0.14     0.30   0.12   0.00
     6   7    -0.42   0.09   0.00     0.00   0.00  -0.40    -0.34   0.03   0.00
                      4                      5                      6
                     A'                     A"                     A"
 Frequencies --    422.8449               456.7326               535.2053
 Red. masses --     12.1467                12.1483                12.0908
 Frc consts  --      1.2796                 1.4931                 2.0405
 IR Inten    --     33.4068                17.3623                 0.6468
  Atom  AN      X      Y      Z        X      Y      Z        X      Y      Z
     1   6     0.62  -0.06   0.00     0.00   0.00   0.63     0.00   0.00   0.54
     2   6    -0.04   0.02   0.00     0.00   0.00   0.00     0.00   0.00  -0.59
     3   6    -0.61   0.06   0.00     0.00   0.00  -0.64     0.00   0.00   0.51
     4   6     0.39  -0.01   0.00     0.00   0.00   0.35     0.00   0.00  -0.24
     5   6    -0.05  -0.08   0.00     0.00   0.00  -0.01     0.00   0.00   0.02
     6   7    -0.26   0.06   0.00     0.00   0.00  -0.27     0.00   0.00  -0.21
                      7                      8                      9
                     A'                     A'                     A'
 Frequencies --    567.3375               644.0087              1208.5636
 Red. masses --     12.0536                12.5362                12.2415
 Frc consts  --      2.2859                 3.0634                10.5348
 IR Inten    --      7.9089                 3.4749                 3.6828
  Atom  AN      X      Y      Z        X      Y      Z        X      Y      Z
     1   6     0.50  -0.10   0.00    -0.07  -0.44   0.00    -0.01  -0.14   0.00
     2   6    -0.65   0.06   0.00     0.05  -0.07   0.00     0.06   0.51   0.00
     3   6     0.50  -0.04   0.00    -0.02   0.13   0.00     0.06   0.56   0.00
     4   6    -0.17   0.03   0.00     0.16   0.42   0.00    -0.09  -0.03   0.00
     5   6     0.01   0.07   0.00    -0.04   0.55   0.00     0.04  -0.51   0.00
     6   7    -0.16  -0.02   0.00    -0.07  -0.51   0.00    -0.05  -0.34   0.00
                     10                     11                     12
                     A'                     A'                     A'
 Frequencies --   1873.7748              2063.8544              2220.3315
 Red. masses --     12.0636                12.0032                12.5961
 Frc consts  --     24.9552                30.1234                36.5866
 IR Inten    --     62.3786                29.6532                15.3495
  Atom  AN      X      Y      Z        X      Y      Z        X      Y      Z
     1   6    -0.02  -0.11   0.00    -0.01  -0.09   0.00     0.11   0.79   0.00
     2   6    -0.04  -0.37   0.00     0.07   0.64   0.00    -0.02  -0.13   0.00
     3   6     0.02   0.01   0.00    -0.06  -0.70   0.00    -0.01  -0.12   0.00
     4   6    -0.04   0.75   0.00    -0.01   0.27   0.00     0.00   0.16   0.00
     5   6     0.05  -0.50   0.00     0.02  -0.08   0.00     0.01  -0.07   0.00
     6   7     0.02   0.18   0.00    -0.01  -0.04   0.00    -0.08  -0.54   0.00

 -------------------
 - Thermochemistry -
 -------------------
 Temperature   298.150 Kelvin.  Pressure   1.00000 Atm.
 Atom     1 has atomic number  6 and mass  12.00000
 Atom     2 has atomic number  6 and mass  12.00000
 Atom     3 has atomic number  6 and mass  12.00000
 Atom     4 has atomic number  6 and mass  12.00000
 Atom     5 has atomic number  6 and mass  12.00000
 Atom     6 has atomic number  7 and mass  14.00307
 Molecular mass:    74.00307 amu.
 Principal axes and moments of inertia in atomic units:
                           1         2         3
     Eigenvalues --     1.394141281.674401283.06854
           X            0.08893   0.99604   0.00000
           Y            0.99604  -0.08893   0.00000
           Z            0.00000   0.00000   1.00000
 This molecule is an asymmetric top.
 Rotational symmetry number  1.
 Rotational temperatures (Kelvin)     62.12684     0.06758     0.06751
 Rotational constants (GHZ):        1294.51491     1.40811     1.40658
 Zero-point vibrational energy      62482.8 (Joules/Mol)
                                   14.93376 (Kcal/Mol)
 Warning -- explicit consideration of   7 degrees of freedom as
           vibrations may cause significant error
 Vibrational temperatures:    140.29   216.53   295.90   608.38   657.14
          (Kelvin)            770.04   816.27   926.58  1738.85  2695.94
                             2969.42  3194.56
 
 Zero-point correction=                           0.023798 (Hartree/Particle)
 Thermal correction to Energy=                    0.029644
 Thermal correction to Enthalpy=                  0.030588
 Thermal correction to Gibbs Free Energy=        -0.004558
 Sum of electronic and zero-point Energies=           -245.076739
 Sum of electronic and thermal Energies=              -245.070893
 Sum of electronic and thermal Enthalpies=            -245.069949
 Sum of electronic and thermal Free Energies=         -245.105095
 
                     E (Thermal)             CV                S
                      KCal/Mol        Cal/Mol-Kelvin    Cal/Mol-Kelvin
 Total                   18.602             17.860             73.971
 Electronic               0.000              0.000              1.377
 Translational            0.889              2.981             38.821
 Rotational               0.889              2.981             22.354
 Vibrational             16.825             11.899             11.418
 Vibration     1          0.603              1.951              3.504
 Vibration     2          0.618              1.902              2.666
 Vibration     3          0.640              1.832              2.082
 Vibration     4          0.785              1.421              0.882
 Vibration     5          0.815              1.346              0.776
 Vibration     6          0.890              1.172              0.576
 Vibration     7          0.923              1.102              0.509
                       Q            Log10(Q)             Ln(Q)
 Total Bot       0.124835D+03          2.096335          4.826990
 Total V=0       0.110368D+14         13.042842         30.032254
 Vib (Bot)       0.145533D-09         -9.837039        -22.650619
 Vib (Bot)    1  0.210580D+01          0.323417          0.744695
 Vib (Bot)    2  0.134714D+01          0.129413          0.297985
 Vib (Bot)    3  0.967412D+00         -0.014389         -0.033131
 Vib (Bot)    4  0.414353D+00         -0.382630         -0.881037
 Vib (Bot)    5  0.373406D+00         -0.427818         -0.985088
 Vib (Bot)    6  0.297367D+00         -0.526707         -1.212788
 Vib (Bot)    7  0.271990D+00         -0.565448         -1.301991
 Vib (V=0)       0.128667D+02          1.109468          2.554645
 Vib (V=0)    1  0.266434D+01          0.425590          0.979958
 Vib (V=0)    2  0.193694D+01          0.287116          0.661108
 Vib (V=0)    3  0.158898D+01          0.201119          0.463095
 Vib (V=0)    4  0.114938D+01          0.060462          0.139219
 Vib (V=0)    5  0.112405D+01          0.050784          0.116934
 Vib (V=0)    6  0.108174D+01          0.034125          0.078575
 Vib (V=0)    7  0.106919D+01          0.029055          0.066902
 Electronic      0.200000D+01          0.301030          0.693147
 Translational   0.250225D+08          7.398330         17.035284
 Rotational      0.171401D+05          4.234014          9.749178
 
                                                              b3lyp opt
                                                             IR Spectrum
 
      2       2          1                                     1                                                                     
      2       0          8                                     2                                6   5 5   4 4            2  1        
      2       6          7                                     0                                4   6 3   5 2            0  5  9     
      0       4          4                                     9                                4   7 5   7 3            6  0  8     
 
      X       X          X                                     X                                X   X X   X X            X  X  X     
      X       X          X                                                                          X     X X            X     X     
      X       X          X                                                                          X     X X            X     X     
      X       X          X                                                                                X X            X     X     
      X       X          X                                                                                X X            X     X     
              X          X                                                                                X X            X     X     
              X          X                                                                                  X            X     X     
              X          X                                                                                  X            X           
              X          X                                                                                  X            X           
              X          X                                                                                  X            X           
                         X                                                                                  X                        
                         X                                                                                                           
                         X                                                                                                           
                         X                                                                                                           
                         X                                                                                                           
                         X                                                                                                           
                         X                                                                                                           
                         X                                                                                                           
                         X                                                                                                           
                         X                                                                                                           
 
 ***** Axes restored to original set *****
 -------------------------------------------------------------------
 Center     Atomic                   Forces (Hartrees/Bohr)
 Number     Number              X              Y              Z
 -------------------------------------------------------------------
      1        6           0.000000000    0.000028371    0.000145463
      2        6           0.000000000    0.000361151   -0.000121410
      3        6           0.000000000    0.000352395    0.000183998
      4        6           0.000000000    0.000068656   -0.000058216
      5        6           0.000000000   -0.000407209   -0.000120776
      6        7           0.000000000   -0.000403364   -0.000029059
 -------------------------------------------------------------------
 Cartesian Forces:  Max     0.000407209 RMS     0.000193969
 Z-matrix is all fixed cartesians, so copy forces.
 Force constants in Cartesian coordinates: 
                1             2             3             4             5 
      1  0.752463D-01
      2  0.000000D+00  0.699288D-01
      3  0.000000D+00  0.190992D-01  0.144702D+01
      4 -0.399974D-01  0.000000D+00  0.000000D+00  0.491889D-01
      5  0.000000D+00 -0.471563D-01 -0.217312D-02  0.000000D+00  0.681523D-01
      6  0.000000D+00 -0.135288D-02 -0.320523D+00  0.000000D+00 -0.838997D-02
      7 -0.189972D-02  0.000000D+00  0.000000D+00 -0.374916D-01  0.000000D+00
      8  0.000000D+00  0.638990D-02 -0.166601D-02  0.000000D+00 -0.461278D-01
      9  0.000000D+00  0.244165D-03 -0.150220D+00  0.000000D+00  0.823070D-02
     10  0.250386D-02  0.000000D+00  0.000000D+00  0.145047D-01  0.000000D+00
     11  0.000000D+00  0.287732D-02  0.325685D-02  0.000000D+00  0.105122D-01
     12  0.000000D+00 -0.131519D-02  0.628975D-01  0.000000D+00  0.476163D-02
     13  0.115955D-02  0.000000D+00  0.000000D+00 -0.157392D-02  0.000000D+00
     14  0.000000D+00 -0.210951D-03 -0.111120D-02  0.000000D+00  0.557357D-03
     15  0.000000D+00  0.109810D-02 -0.106437D-01  0.000000D+00 -0.192020D-02
     16 -0.370125D-01  0.000000D+00  0.000000D+00  0.153694D-01  0.000000D+00
     17  0.000000D+00 -0.318288D-01 -0.174057D-01  0.000000D+00  0.140622D-01
     18  0.000000D+00 -0.177734D-01 -0.102853D+01  0.000000D+00 -0.509038D-03
                6             7             8             9            10 
      6  0.123648D+01
      7  0.000000D+00  0.720700D-01
      8  0.161601D-01  0.000000D+00  0.702473D-01
      9 -0.660246D+00  0.000000D+00 -0.363968D-01  0.119437D+01
     10  0.000000D+00 -0.367065D-01  0.000000D+00  0.000000D+00  0.223435D-01
     11 -0.574102D-02  0.000000D+00 -0.374293D-01  0.292058D-01  0.000000D+00
     12 -0.162448D+00  0.000000D+00  0.310931D-01 -0.391864D+00  0.000000D+00
     13  0.000000D+00  0.192112D-02  0.000000D+00  0.000000D+00 -0.235007D-02
     14  0.119191D-02  0.000000D+00  0.578586D-02 -0.227997D-02  0.000000D+00
     15  0.319881D-01  0.000000D+00 -0.985857D-02 -0.612706D-01  0.000000D+00
     16  0.000000D+00  0.210665D-02  0.000000D+00  0.000000D+00 -0.295550D-03
     17 -0.186817D-02  0.000000D+00  0.113402D-02  0.996091D-03  0.000000D+00
     18 -0.125254D+00  0.000000D+00  0.668096D-03  0.692320D-01  0.000000D+00
               11            12            13            14            15 
     11  0.621152D-01
     12 -0.165274D+00  0.110567D+01
     13  0.000000D+00  0.000000D+00  0.114128D-02
     14 -0.374333D-01  0.131033D+00  0.000000D+00  0.312470D-01
     15  0.140100D+00 -0.584300D+00  0.000000D+00 -0.129369D+00  0.619257D+00
     16  0.000000D+00  0.000000D+00 -0.297955D-03  0.000000D+00  0.000000D+00
     17 -0.642143D-03 -0.299005D-03  0.000000D+00  0.540433D-04 -0.496723D-04
     18 -0.154736D-02 -0.299535D-01  0.000000D+00  0.535221D-03  0.496954D-02
               16            17            18 
     16  0.201300D-01
     17  0.000000D+00  0.172207D-01
     18  0.000000D+00  0.186265D-01  0.110954D+01
 Leave Link  716 at Mon Sep 17 00:59:16 2018, MaxMem=    33554432 cpu:         0.8
 (Enter /home/nestor/.gaussian09/l103.exe)

 GradGradGradGradGradGradGradGradGradGradGradGradGradGradGradGradGradGrad
 Berny optimization.
 Search for a local minimum.
 Step number   1 out of a maximum of    2
 All quantities printed in internal units (Hartrees-Bohrs-Radians)
 Second derivative matrix not updated -- analytic derivatives used.
 The second derivative matrix:
                          X1        Y1        Z1        X2        Y2
           X1           0.07525
           Y1           0.00000   0.06993
           Z1           0.00000   0.01910   1.44702
           X2          -0.04000   0.00000   0.00000   0.04919
           Y2           0.00000  -0.04716  -0.00217   0.00000   0.06815
           Z2           0.00000  -0.00135  -0.32052   0.00000  -0.00839
           X3          -0.00190   0.00000   0.00000  -0.03749   0.00000
           Y3           0.00000   0.00639  -0.00167   0.00000  -0.04613
           Z3           0.00000   0.00024  -0.15022   0.00000   0.00823
           X4           0.00250   0.00000   0.00000   0.01450   0.00000
           Y4           0.00000   0.00288   0.00326   0.00000   0.01051
           Z4           0.00000  -0.00132   0.06290   0.00000   0.00476
           X5           0.00116   0.00000   0.00000  -0.00157   0.00000
           Y5           0.00000  -0.00021  -0.00111   0.00000   0.00056
           Z5           0.00000   0.00110  -0.01064   0.00000  -0.00192
           X6          -0.03701   0.00000   0.00000   0.01537   0.00000
           Y6           0.00000  -0.03183  -0.01741   0.00000   0.01406
           Z6           0.00000  -0.01777  -1.02853   0.00000  -0.00051
                          Z2        X3        Y3        Z3        X4
           Z2           1.23648
           X3           0.00000   0.07207
           Y3           0.01616   0.00000   0.07025
           Z3          -0.66025   0.00000  -0.03640   1.19437
           X4           0.00000  -0.03671   0.00000   0.00000   0.02234
           Y4          -0.00574   0.00000  -0.03743   0.02921   0.00000
           Z4          -0.16245   0.00000   0.03109  -0.39186   0.00000
           X5           0.00000   0.00192   0.00000   0.00000  -0.00235
           Y5           0.00119   0.00000   0.00579  -0.00228   0.00000
           Z5           0.03199   0.00000  -0.00986  -0.06127   0.00000
           X6           0.00000   0.00211   0.00000   0.00000  -0.00030
           Y6          -0.00187   0.00000   0.00113   0.00100   0.00000
           Z6          -0.12525   0.00000   0.00067   0.06923   0.00000
                          Y4        Z4        X5        Y5        Z5
           Y4           0.06212
           Z4          -0.16527   1.10567
           X5           0.00000   0.00000   0.00114
           Y5          -0.03743   0.13103   0.00000   0.03125
           Z5           0.14010  -0.58430   0.00000  -0.12937   0.61926
           X6           0.00000   0.00000  -0.00030   0.00000   0.00000
           Y6          -0.00064  -0.00030   0.00000   0.00005  -0.00005
           Z6          -0.00155  -0.02995   0.00000   0.00054   0.00497
                          X6        Y6        Z6
           X6           0.02013
           Y6           0.00000   0.01722
           Z6           0.00000   0.01863   1.10954
 ITU=  0
     Eigenvalues ---    0.00446   0.01059   0.01961   0.08231   0.09601
     Eigenvalues ---    0.13124   0.14692   0.19684   0.67747   1.60274
     Eigenvalues ---    1.93477   2.36493
 Angle between quadratic step and forces=  21.40 degrees.
 ClnCor:  largest displacement from symmetrization is 4.58D-08 for atom     4.
 Linear search not attempted -- first point.
 ClnCor:  largest displacement from symmetrization is 3.56D-15 for atom     5.
 TrRot=  0.000000 -0.001043  0.000084  0.000000  0.000000  0.000000
 Variable       Old X    -DE/DX   Delta X   Delta X   Delta X     New X
                                 (Linear)    (Quad)   (Total)
    X1        0.00000   0.00000   0.00000   0.00000   0.00000   0.00000
    Y1       -0.01761   0.00003   0.00000   0.00395   0.00291  -0.01470
    Z1        3.71865   0.00015   0.00000   0.00465   0.00474   3.72338
    X2        0.00000   0.00000   0.00000   0.00000   0.00000   0.00000
    Y2       -0.03173   0.00036   0.00000   0.06965   0.06861   0.03687
    Z2        1.17691  -0.00012   0.00000   0.00464   0.00473   1.18164
    X3        0.00000   0.00000   0.00000   0.00000   0.00000   0.00000
    Y3        0.00049   0.00035   0.00000   0.07543   0.07438   0.07487
    Z3       -1.15571   0.00018   0.00000   0.00388   0.00397  -1.15174
    X4        0.00000   0.00000   0.00000   0.00000   0.00000   0.00000
    Y4        0.07097   0.00007   0.00000   0.03695   0.03590   0.10687
    Z4       -3.63781  -0.00006   0.00000   0.00426   0.00434  -3.63347
    X5        0.00000   0.00000   0.00000   0.00000   0.00000   0.00000
    Y5        0.52410  -0.00041   0.00000  -0.10161  -0.10266   0.42144
    Z5       -6.01847  -0.00012   0.00000  -0.02419  -0.02411  -6.04258
    X6        0.00000   0.00000   0.00000   0.00000   0.00000   0.00000
    Y6        0.02070  -0.00040   0.00000  -0.07810  -0.07915  -0.05844
    Z6        5.91642  -0.00003   0.00000   0.00625   0.00634   5.92276
         Item               Value     Threshold  Converged?
 Maximum Force            0.000407     0.000450     YES
 RMS     Force            0.000194     0.000300     YES
 Maximum Displacement     0.102657     0.001800     NO 
 RMS     Displacement     0.040166     0.001200     NO 
 Predicted change in Energy=-6.529207D-05
 GradGradGradGradGradGradGradGradGradGradGradGradGradGradGradGradGradGrad

 Leave Link  103 at Mon Sep 17 00:59:17 2018, MaxMem=    33554432 cpu:         1.0
 (Enter /home/nestor/.gaussian09/l9999.exe)
 1\1\GINC-ENANO\Freq\UB3LYP\6-311++G(3df,2p)\C5N1(2)\NESTOR\17-Sep-2018
 \0\\#p b3lyp/6-311++G(3df,2p) freq\\b3lyp opt\\0,2\C,0.,-0.009318,1.96
 7823\C,0.,-0.016791,0.622795\C,0.,0.000257,-0.611573\C,0.,0.037554,-1.
 925044\C,0.,0.277342,-3.184837\N,0.,0.010956,3.130836\\Version=EM64L-G
 09RevD.01\State=2-A'\HF=-245.1005372\S2=0.781126\S2-1=0.\S2A=0.750502\
 RMSD=9.751e-09\RMSF=1.940e-04\ZeroPoint=0.0237985\Thermal=0.0296441\Di
 pole=0.,-0.207942,0.197118\DipoleDeriv=0.2861865,0.,0.,-0.0000001,0.20
 38265,0.0097091,-0.0000002,-0.0778546,-0.3272522,-0.0483434,0.,0.,0.,0
 .1037244,-0.0036098,0.,0.1629689,0.5185207,-0.0359615,0.,0.0000003,-0.
 0000001,0.0135611,-0.3674977,0.0000001,-0.2282212,-0.3202116,0.5213548
 ,-0.0000001,-0.0000006,0.0000003,0.2031481,0.8283526,0.,0.5502154,-0.3
 146704,-0.4462209,0.,0.0000003,0.,-0.2489597,-0.4751014,-0.0000003,-0.
 4537816,0.3333817,-0.2770155,0.,0.,0.,-0.2753004,0.0081472,0.0000003,0
 .0466731,0.110232\Polar=45.662134,-0.000002,37.4829653,-0.0000097,-1.3
 354578,184.9314597\PG=CS [SG(C5N1)]\NImag=0\\0.07524626,0.,0.06992880,
 0.,0.01909922,1.44701976,-0.03999744,0.,0.,0.04918886,0.,-0.04715630,-
 0.00217312,0.,0.06815233,0.,-0.00135288,-0.32052302,0.,-0.00838997,1.2
 3648262,-0.00189972,0.,0.,-0.03749159,0.,0.,0.07207001,0.,0.00638990,-
 0.00166601,0.,-0.04612779,0.01616013,0.,0.07024735,0.,0.00024416,-0.15
 021979,0.,0.00823070,-0.66024591,0.,-0.03639679,1.19436825,0.00250386,
 0.,0.00000001,0.01450469,0.,0.,-0.03670646,0.,-0.00000001,0.02234353,0
 .,0.00287732,0.00325685,0.,0.01051223,-0.00574102,0.,-0.03742934,0.029
 20581,-0.00000002,0.06211522,0.,-0.00131519,0.06289752,0.,0.00476163,-
 0.16244785,0.,0.03109314,-0.39186392,0.,-0.16527394,1.10566793,0.00115
 955,0.,0.,-0.00157392,0.,0.,0.00192112,0.,0.,-0.00235007,0.,0.,0.00114
 128,0.,-0.00021095,-0.00111120,0.,0.00055736,0.00119191,0.,0.00578586,
 -0.00227997,0.,-0.03743329,0.13103337,0.,0.03124698,0.,0.00109810,-0.0
 1064369,0.,-0.00192020,0.03198814,0.,-0.00985857,-0.06127064,0.0000000
 1,0.14009967,-0.58430020,0.,-0.12936933,0.61925686,-0.03701251,0.,0.,0
 .01536941,0.,0.,0.00210665,0.,0.,-0.00029555,0.,0.,-0.00029796,0.,0.,0
 .02012996,0.,-0.03182877,-0.01740575,0.,0.01406217,-0.00186817,0.,0.00
 113402,0.00099609,0.,-0.00064214,-0.00029901,0.,0.00005404,-0.00004967
 ,0.,0.01722068,0.,-0.01777342,-1.02853078,0.,-0.00050904,-0.12525398,0
 .,0.00066810,0.06923201,-0.00000001,-0.00154736,-0.02995348,0.,0.00053
 522,0.00496954,0.,0.01862650,1.10953669\\0.,-0.00002837,-0.00014546,0.
 ,-0.00036115,0.00012141,0.,-0.00035240,-0.00018400,0.,-0.00006866,0.00
 005822,0.,0.00040721,0.00012078,0.,0.00040336,0.00002906\\\@


 IT IS BETTER TO THINK YOU ARE HALF DRY THAN TO KNOW YOU
 ARE ALL WET.  -- SNOOPY
 Job cpu time:       0 days  1 hours 13 minutes 12.3 seconds.
 File lengths (MBytes):  RWF=     66 Int=      0 D2E=      0 Chk=      5 Scr=      1
 Normal termination of Gaussian 09 at Mon Sep 17 00:59:17 2018.
