 Entering Gaussian System, Link 0=/home/proyectos/fulerenos/M3C-v2.0/M3C-deps_CCC/g09-AM64L-G09RevC.01/g09
 Initial command:
 /home/proyectos/fulerenos/M3C-v2.0/M3C-deps_CCC/g09-AM64L-G09RevC.01/l1.exe "/scratch/naguirre/gaussian/Gau-12924.inp" -scrdir="/scratch/naguirre/gaussian/"
 Entering Link 1 = /home/proyectos/fulerenos/M3C-v2.0/M3C-deps_CCC/g09-AM64L-G09RevC.01/l1.exe PID=     12947.
  
 Copyright (c) 1988,1990,1992,1993,1995,1998,2003,2009,2015,
            Gaussian, Inc.  All Rights Reserved.
  
 This is part of the Gaussian(R) 09 program.  It is based on
 the Gaussian(R) 03 system (copyright 2003, Gaussian, Inc.),
 the Gaussian(R) 98 system (copyright 1998, Gaussian, Inc.),
 the Gaussian(R) 94 system (copyright 1995, Gaussian, Inc.),
 the Gaussian 92(TM) system (copyright 1992, Gaussian, Inc.),
 the Gaussian 90(TM) system (copyright 1990, Gaussian, Inc.),
 the Gaussian 88(TM) system (copyright 1988, Gaussian, Inc.),
 the Gaussian 86(TM) system (copyright 1986, Carnegie Mellon
 University), and the Gaussian 82(TM) system (copyright 1983,
 Carnegie Mellon University). Gaussian is a federally registered
 trademark of Gaussian, Inc.
  
 This software contains proprietary and confidential information,
 including trade secrets, belonging to Gaussian, Inc.
  
 This software is provided under written license and may be
 used, copied, transmitted, or stored only in accord with that
 written license.
  
 The following legend is applicable only to US Government
 contracts under FAR:
  
                    RESTRICTED RIGHTS LEGEND
  
 Use, reproduction and disclosure by the US Government is
 subject to restrictions as set forth in subparagraphs (a)
 and (c) of the Commercial Computer Software - Restricted
 Rights clause in FAR 52.227-19.
  
 Gaussian, Inc.
 340 Quinnipiac St., Bldg. 40, Wallingford CT 06492
  
  
 ---------------------------------------------------------------
 Warning -- This program may not be used in any manner that
 competes with the business of Gaussian, Inc. or will provide
 assistance to any competitor of Gaussian, Inc.  The licensee
 of this program is prohibited from giving any competitor of
 Gaussian, Inc. access to this program.  By using this program,
 the user acknowledges that Gaussian, Inc. is engaged in the
 business of creating and licensing software in the field of
 computational chemistry and represents and warrants to the
 licensee that it is not a competitor of Gaussian, Inc. and that
 it will not use this program in any manner prohibited above.
 ---------------------------------------------------------------
  

 Cite this work as:
 Gaussian 09, Revision E.01,
 M. J. Frisch, G. W. Trucks, H. B. Schlegel, G. E. Scuseria, 
 M. A. Robb, J. R. Cheeseman, G. Scalmani, V. Barone, B. Mennucci, 
 G. A. Petersson, H. Nakatsuji, M. Caricato, X. Li, H. P. Hratchian, 
 A. F. Izmaylov, J. Bloino, G. Zheng, J. L. Sonnenberg, M. Hada, 
 M. Ehara, K. Toyota, R. Fukuda, J. Hasegawa, M. Ishida, T. Nakajima, 
 Y. Honda, O. Kitao, H. Nakai, T. Vreven, J. A. Montgomery, Jr., 
 J. E. Peralta, F. Ogliaro, M. Bearpark, J. J. Heyd, E. Brothers, 
 K. N. Kudin, V. N. Staroverov, T. Keith, R. Kobayashi, J. Normand, 
 K. Raghavachari, A. Rendell, J. C. Burant, S. S. Iyengar, J. Tomasi, 
 M. Cossi, N. Rega, J. M. Millam, M. Klene, J. E. Knox, J. B. Cross, 
 V. Bakken, C. Adamo, J. Jaramillo, R. Gomperts, R. E. Stratmann, 
 O. Yazyev, A. J. Austin, R. Cammi, C. Pomelli, J. W. Ochterski, 
 R. L. Martin, K. Morokuma, V. G. Zakrzewski, G. A. Voth, 
 P. Salvador, J. J. Dannenberg, S. Dapprich, A. D. Daniels, 
 O. Farkas, J. B. Foresman, J. V. Ortiz, J. Cioslowski, 
 and D. J. Fox, Gaussian, Inc., Wallingford CT, 2013.
 
 ******************************************
 Gaussian 09:  EM64L-G09RevE.01 30-Nov-2015
                16-Aug-2016 
 ******************************************
 %NProcShared=1
 Will use up to    1 processors via shared memory.
 ---------------------------------------------
 #p b3lyp/6-311++G(3df,2p) freq symmetry=Loose
 ---------------------------------------------
 1/10=4,30=1,38=1/1,3;
 2/12=2,17=4,18=3,40=1/2;
 3/5=4,6=6,7=1216,11=2,16=1,25=1,30=1,71=2,74=-5,140=1/1,2,3;
 4//1;
 5/5=2,38=5,98=1/2;
 8/6=4,10=90,11=11/1;
 11/6=1,8=1,9=11,15=111,16=1/1,2,10;
 10/6=1/2;
 6/7=2,8=2,9=2,10=2,18=1,28=1/1;
 7/8=1,10=1,25=1/1,2,3,16;
 1/10=4,30=1/3;
 99//99;
 Leave Link    1 at Tue Aug 16 17:35:56 2016, MaxMem=           0 cpu:         0.0
 (Enter /home/proyectos/fulerenos/M3C-v2.0/M3C-deps_CCC/g09-AM64L-G09RevC.01/l101.exe)
 ---------
 b3lyp opt
 ---------
 Symbolic Z-matrix:
 Charge =  0 Multiplicity = 2
 C                    -1.16484   0.33872  -0.48137 
 C                    -0.10133  -0.07941   1.3914 
 C                    -1.41516   0.07104   1.07957 
 C                     0.18757   0.22954  -0.41015 
 C                    -2.39076   0.31207   0.14096 
 N                     0.99554  -0.01768   0.62745 
 
 NAtoms=      6 NQM=        6 NQMF=       0 NMMI=      0 NMMIF=      0
                NMic=       0 NMicF=      0.
                    Isotopes and Nuclear Properties:
 (Nuclear quadrupole moments (NQMom) in fm**2, nuclear magnetic moments (NMagM)
  in nuclear magnetons)

  Atom         1           2           3           4           5           6
 IAtWgt=          12          12          12          12          12          14
 AtmWgt=  12.0000000  12.0000000  12.0000000  12.0000000  12.0000000  14.0030740
 NucSpn=           0           0           0           0           0           2
 AtZEff=   0.0000000   0.0000000   0.0000000   0.0000000   0.0000000   0.0000000
 NQMom=    0.0000000   0.0000000   0.0000000   0.0000000   0.0000000   2.0440000
 NMagM=    0.0000000   0.0000000   0.0000000   0.0000000   0.0000000   0.4037610
 AtZNuc=   6.0000000   6.0000000   6.0000000   6.0000000   6.0000000   7.0000000
 Leave Link  101 at Tue Aug 16 17:35:56 2016, MaxMem=    33554432 cpu:         0.3
 (Enter /home/proyectos/fulerenos/M3C-v2.0/M3C-deps_CCC/g09-AM64L-G09RevC.01/l103.exe)

 GradGradGradGradGradGradGradGradGradGradGradGradGradGradGradGradGradGrad
 Berny optimization.
 Initialization pass.
 Trust Radius=3.00D-01 FncErr=1.00D-07 GrdErr=1.00D-07
 Number of steps in this run=      2 maximum allowed number of steps=      2.
 GradGradGradGradGradGradGradGradGradGradGradGradGradGradGradGradGradGrad

 Leave Link  103 at Tue Aug 16 17:35:57 2016, MaxMem=    33554432 cpu:         0.1
 (Enter /home/proyectos/fulerenos/M3C-v2.0/M3C-deps_CCC/g09-AM64L-G09RevC.01/l202.exe)
                          Input orientation:                          
 ---------------------------------------------------------------------
 Center     Atomic      Atomic             Coordinates (Angstroms)
 Number     Number       Type             X           Y           Z
 ---------------------------------------------------------------------
      1          6           0       -1.164841    0.338718   -0.481366
      2          6           0       -0.101331   -0.079406    1.391401
      3          6           0       -1.415159    0.071040    1.079565
      4          6           0        0.187574    0.229536   -0.410154
      5          6           0       -2.390757    0.312067    0.140958
      6          7           0        0.995543   -0.017679    0.627454
 ---------------------------------------------------------------------
                    Distance matrix (angstroms):
                    1          2          3          4          5
     1  C    0.000000
     2  C    2.193887   0.000000
     3  C    1.603377   1.358683   0.000000
     4  C    1.358683   1.850544   2.193887   0.000000
     5  C    1.375089   2.637865   1.375089   2.637865   0.000000
     6  N    2.454335   1.338117   2.454335   1.338117   3.436923
                    6
     6  N    0.000000
 Stoichiometry    C5N(2)
 Framework group  C2V[C2(CN),SGV(C4)]
 Deg. of freedom     5
 Full point group                 C2V     NOp   4
 Largest Abelian subgroup         C2V     NOp   4
 Largest concise Abelian subgroup C2      NOp   2
                         Standard orientation:                         
 ---------------------------------------------------------------------
 Center     Atomic      Atomic             Coordinates (Angstroms)
 Number     Number       Type             X           Y           Z
 ---------------------------------------------------------------------
      1          6           0        0.000000   -0.801688   -0.696522
      2          6           0       -0.000000    0.925272    0.656529
      3          6           0        0.000000    0.801688   -0.696522
      4          6           0       -0.000000   -0.925272    0.656529
      5          6           0       -0.000000    0.000000   -1.813735
      6          7           0        0.000000   -0.000000    1.623188
 ---------------------------------------------------------------------
 Rotational constants (GHZ):     14.0492437      5.1381476      3.7622148
 Leave Link  202 at Tue Aug 16 17:35:57 2016, MaxMem=    33554432 cpu:         0.0
 (Enter /home/proyectos/fulerenos/M3C-v2.0/M3C-deps_CCC/g09-AM64L-G09RevC.01/l301.exe)
 Standard basis: 6-311++G(3df,2p) (5D, 7F)
 Ernie: Thresh=  0.10000D-02 Tol=  0.10000D-05 Strict=F.
 There are   104 symmetry adapted cartesian basis functions of A1  symmetry.
 There are    36 symmetry adapted cartesian basis functions of A2  symmetry.
 There are    48 symmetry adapted cartesian basis functions of B1  symmetry.
 There are    82 symmetry adapted cartesian basis functions of B2  symmetry.
 There are    86 symmetry adapted basis functions of A1  symmetry.
 There are    34 symmetry adapted basis functions of A2  symmetry.
 There are    44 symmetry adapted basis functions of B1  symmetry.
 There are    70 symmetry adapted basis functions of B2  symmetry.
   234 basis functions,   348 primitive gaussians,   270 cartesian basis functions
    19 alpha electrons       18 beta electrons
       nuclear repulsion energy       167.5335603650 Hartrees.
 IExCor=  402 DFT=T Ex+Corr=B3LYP ExCW=0 ScaHFX=  0.200000
 ScaDFX=  0.800000  0.720000  1.000000  0.810000 ScalE2=  1.000000  1.000000
 IRadAn=      0 IRanWt=     -1 IRanGd=            0 ICorTp=0 IEmpDi=  4
 NAtoms=    6 NActive=    6 NUniq=    4 SFac= 2.25D+00 NAtFMM=   60 NAOKFM=F Big=F
 Integral buffers will be    131072 words long.
 Raffenetti 2 integral format.
 Two-electron integral symmetry is turned on.
 Leave Link  301 at Tue Aug 16 17:35:58 2016, MaxMem=    33554432 cpu:         0.3
 (Enter /home/proyectos/fulerenos/M3C-v2.0/M3C-deps_CCC/g09-AM64L-G09RevC.01/l302.exe)
 NPDir=0 NMtPBC=     1 NCelOv=     1 NCel=       1 NClECP=     1 NCelD=      1
         NCelK=      1 NCelE2=     1 NClLst=     1 CellRange=     0.0.
 One-electron integrals computed using PRISM.
 One-electron integral symmetry used in STVInt
 NBasis=   234 RedAO= T EigKep=  8.87D-06  NBF=    86    34    44    70
 NBsUse=   234 1.00D-06 EigRej= -1.00D+00 NBFU=    86    34    44    70
 Precomputing XC quadrature grid using
 IXCGrd= 4 IRadAn=           0 IRanWt=          -1 IRanGd=           0 AccXCQ= 0.00D+00.
 Generated NRdTot=       0 NPtTot=           0 NUsed=           0 NTot=          32
 NSgBfM=   270   270   270   270   270 MxSgAt=     6 MxSgA2=     6.
 Leave Link  302 at Tue Aug 16 17:35:59 2016, MaxMem=    33554432 cpu:         0.5
 (Enter /home/proyectos/fulerenos/M3C-v2.0/M3C-deps_CCC/g09-AM64L-G09RevC.01/l303.exe)
 DipDrv:  MaxL=1.
 Leave Link  303 at Tue Aug 16 17:35:59 2016, MaxMem=    33554432 cpu:         0.1
 (Enter /home/proyectos/fulerenos/M3C-v2.0/M3C-deps_CCC/g09-AM64L-G09RevC.01/l401.exe)
 ExpMin= 4.38D-02 ExpMax= 6.29D+03 ExpMxC= 9.49D+02 IAcc=2 IRadAn=         4 AccDes= 0.00D+00
 Harris functional with IExCor=  402 and IRadAn=       4 diagonalized for initial guess.
 HarFok:  IExCor=  402 AccDes= 0.00D+00 IRadAn=         4 IDoV= 1 UseB2=F ITyADJ=14
 ICtDFT=  3500011 ScaDFX=  1.000000  1.000000  1.000000  1.000000
 FoFCou: FMM=F IPFlag=           0 FMFlag=      100000 FMFlg1=           0
         NFxFlg=           0 DoJE=T BraDBF=F KetDBF=T FulRan=T
         wScrn=  0.000000 ICntrl=     500 IOpCl=  0 I1Cent=   200000004 NGrid=           0
         NMat0=    1 NMatS0=      1 NMatT0=    0 NMatD0=    1 NMtDS0=    0 NMtDT0=    0
 Petite list used in FoFCou.
 Harris En= -244.904314561996    
 JPrj=0 DoOrth=F DoCkMO=F.
 Initial guess orbital symmetries:
 Alpha Orbitals:
       Occupied  (A1) (A1) (B2) (A1) (B2) (A1) (A1) (A1) (A1) (B2)
                 (B2) (B2) (B1) (A1) (A1) (B1) (A1) (A2) (A1)
       Virtual   (B2) (B1) (B2) (A2) (A1) (B1) (A1) (B2) (B1) (B2)
                 (A1) (A1) (B1) (A2) (B2) (A1) (A1) (A2) (B1) (B2)
                 (A1) (A1) (B2) (B2) (A1) (B2) (A1) (B1) (B2) (A1)
                 (B2) (A1) (B2) (B1) (A1) (A1) (A1) (A2) (B2) (B1)
                 (A1) (A2) (B2) (B2) (A1) (B1) (A2) (B2) (A1) (B1)
                 (B1) (A1) (B2) (B1) (A1) (B2) (B2) (A2) (A2) (A1)
                 (A1) (B2) (B1) (A1) (B2) (A2) (B1) (A1) (A1) (A2)
                 (B1) (B2) (A1) (B2) (B2) (A1) (A2) (B1) (A1) (B2)
                 (A1) (B2) (B2) (A1) (A1) (A1) (B1) (B2) (B1) (A1)
                 (A2) (A1) (B2) (B1) (A2) (A2) (B2) (A1) (A1) (B1)
                 (A1) (B2) (A2) (B2) (A1) (A1) (B2) (A2) (B1) (B2)
                 (B2) (A1) (B1) (A1) (B1) (A1) (A2) (B1) (B1) (B2)
                 (A1) (A2) (B1) (A1) (B2) (B1) (A1) (A2) (B2) (A1)
                 (B1) (B2) (A2) (A1) (B1) (A1) (B2) (A2) (A1) (B2)
                 (B1) (B2) (A1) (B2) (A1) (A2) (B1) (B2) (A1) (A2)
                 (B2) (A1) (A1) (B2) (A2) (B1) (B2) (B1) (B2) (A2)
                 (A1) (A1) (B2) (A1) (B1) (B2) (B2) (A1) (B1) (A2)
                 (A1) (B2) (A2) (B1) (B2) (A1) (B2) (A1) (B1) (A1)
                 (B2) (B1) (A1) (A2) (A1) (B1) (A2) (B2) (A1) (A2)
                 (B1) (B2) (A2) (A1) (B2) (A2) (B1) (A1) (A1) (A1)
                 (B2) (B2) (B2) (B2) (B1) (A2) (A1) (A1) (B2) (A1)
                 (B2) (A1) (A1) (B2) (A1)
 Beta  Orbitals:
       Occupied  (A1) (A1) (B2) (A1) (B2) (A1) (A1) (A1) (A1) (B2)
                 (B2) (B2) (B1) (A1) (A1) (B1) (A1) (A2)
       Virtual   (A1) (B2) (B1) (B2) (A2) (A1) (B1) (A1) (B2) (B1)
                 (B2) (A1) (A1) (B1) (A2) (B2) (A1) (A1) (A2) (B1)
                 (B2) (A1) (A1) (B2) (B2) (A1) (B2) (A1) (B1) (B2)
                 (A1) (B2) (A1) (B2) (B1) (A1) (A1) (A1) (A2) (B2)
                 (B1) (A1) (A2) (B2) (B2) (A1) (B1) (A2) (B2) (A1)
                 (B1) (B1) (A1) (B2) (B1) (A1) (B2) (B2) (A2) (A2)
                 (A1) (A1) (B2) (B1) (A1) (B2) (A2) (B1) (A1) (A1)
                 (A2) (B1) (B2) (A1) (B2) (B2) (A1) (A2) (B1) (A1)
                 (B2) (A1) (B2) (B2) (A1) (A1) (A1) (B1) (B2) (B1)
                 (A1) (A2) (A1) (B2) (B1) (A2) (A2) (B2) (A1) (A1)
                 (B1) (A1) (B2) (A2) (B2) (A1) (A1) (B2) (A2) (B1)
                 (B2) (B2) (A1) (B1) (A1) (B1) (A1) (A2) (B1) (B1)
                 (B2) (A1) (A2) (B1) (A1) (B2) (B1) (A1) (A2) (B2)
                 (A1) (B1) (B2) (A2) (A1) (B1) (A1) (B2) (A2) (A1)
                 (B2) (B1) (B2) (A1) (B2) (A1) (A2) (B1) (B2) (A1)
                 (A2) (B2) (A1) (A1) (B2) (A2) (B1) (B2) (B1) (B2)
                 (A2) (A1) (A1) (B2) (A1) (B1) (B2) (B2) (A1) (B1)
                 (A2) (A1) (B2) (A2) (B1) (B2) (A1) (B2) (A1) (B1)
                 (A1) (B2) (B1) (A1) (A2) (A1) (B1) (A2) (B2) (A1)
                 (A2) (B1) (B2) (A2) (A1) (B2) (A2) (B1) (A1) (A1)
                 (A1) (B2) (B2) (B2) (B2) (B1) (A2) (A1) (A1) (B2)
                 (A1) (B2) (A1) (A1) (B2) (A1)
 The electronic state of the initial guess is 2-A1.
 Initial guess <Sx>= 0.0000 <Sy>= 0.0000 <Sz>= 0.5000 <S**2>= 0.7500 S= 0.5000
 Leave Link  401 at Tue Aug 16 17:36:04 2016, MaxMem=    33554432 cpu:         1.6
 (Enter /home/proyectos/fulerenos/M3C-v2.0/M3C-deps_CCC/g09-AM64L-G09RevC.01/l502.exe)
 UHF open shell SCF:
 Using DIIS extrapolation, IDIIS=  1040.
 Integral symmetry usage will be decided dynamically.
 IVT=      241198 IEndB=      241198 NGot=    33554432 MDV=    33403045
 LenX=    33403045 LenY=    33329704
 Requested convergence on RMS density matrix=1.00D-08 within 128 cycles.
 Requested convergence on MAX density matrix=1.00D-06.
 Requested convergence on             energy=1.00D-06.
 No special actions if energy rises.
 Fock matrices will be formed incrementally for  20 cycles.

 Cycle   1  Pass 1  IDiag  1:
 FoFJK:  IHMeth= 1 ICntrl=       0 DoSepK=F KAlg= 0 I1Cent=   0 FoldK=F
 IRaf= 990000000 NMat=   1 IRICut=       1 DoRegI=T DoRafI=F ISym2E= 1.
 FoFCou: FMM=F IPFlag=           0 FMFlag=      100000 FMFlg1=           0
         NFxFlg=           0 DoJE=F BraDBF=F KetDBF=F FulRan=T
         wScrn=  0.000000 ICntrl=       0 IOpCl=  1 I1Cent=           0 NGrid=           0
         NMat0=    1 NMatS0=      1 NMatT0=    0 NMatD0=    1 NMtDS0=    0 NMtDT0=    0
 Petite list used in FoFCou.
 E= -244.866747026541    
 DIIS: error= 2.80D-02 at cycle   1 NSaved=   1.
 NSaved= 1 IEnMin= 1 EnMin= -244.866747026541     IErMin= 1 ErrMin= 2.80D-02
 ErrMax= 2.80D-02  0.00D+00 EMaxC= 1.00D-01 BMatC= 3.09D-01 BMatP= 3.09D-01
 IDIUse=3 WtCom= 7.20D-01 WtEn= 2.80D-01
 Coeff-Com:  0.100D+01
 Coeff-En:   0.100D+01
 Coeff:      0.100D+01
 Gap=     0.039 Goal=   None    Shift=    0.000
 Gap=     0.061 Goal=   None    Shift=    0.000
 GapD=    0.039 DampG=0.250 DampE=0.500 DampFc=0.2500 IDamp=-1.
 Damping current iteration by 2.50D-01
 RMSDP=1.60D-02 MaxDP=1.70D+00              OVMax= 4.59D-01

 Cycle   2  Pass 1  IDiag  1:
 RMSU=  3.32D-03    CP:  8.98D-01
 E= -244.862097560935     Delta-E=        0.004649465606 Rises=F Damp=T
 DIIS: error= 1.24D-02 at cycle   2 NSaved=   2.
 NSaved= 2 IEnMin= 1 EnMin= -244.866747026541     IErMin= 2 ErrMin= 1.24D-02
 ErrMax= 1.24D-02  0.00D+00 EMaxC= 1.00D-01 BMatC= 9.65D-02 BMatP= 3.09D-01
 IDIUse=3 WtCom= 8.76D-01 WtEn= 1.24D-01
 Coeff-Com:  0.545D-01 0.946D+00
 Coeff-En:   0.539D+00 0.461D+00
 Coeff:      0.115D+00 0.885D+00
 Gap=     0.113 Goal=   None    Shift=    0.000
 Gap=     0.078 Goal=   None    Shift=    0.000
 RMSDP=3.53D-03 MaxDP=1.91D-01 DE= 4.65D-03 OVMax= 4.82D-01

 Cycle   3  Pass 1  IDiag  1:
 RMSU=  2.61D-03    CP:  9.28D-01  3.13D-01
 E= -244.889031167442     Delta-E=       -0.026933606507 Rises=F Damp=F
 DIIS: error= 2.72D-02 at cycle   3 NSaved=   3.
 NSaved= 3 IEnMin= 3 EnMin= -244.889031167442     IErMin= 2 ErrMin= 1.24D-02
 ErrMax= 2.72D-02  0.00D+00 EMaxC= 1.00D-01 BMatC= 1.71D-01 BMatP= 9.65D-02
 IDIUse=2 WtCom= 0.00D+00 WtEn= 1.00D+00
 Coeff-En:   0.000D+00 0.335D+00 0.665D+00
 Coeff:      0.000D+00 0.335D+00 0.665D+00
 Gap=     0.042 Goal=   None    Shift=    0.000
 Gap=     0.119 Goal=   None    Shift=    0.000
 RMSDP=4.49D-03 MaxDP=5.42D-01 DE=-2.69D-02 OVMax= 3.41D-01

 Cycle   4  Pass 1  IDiag  1:
 RMSU=  4.10D-03    CP:  8.86D-01  7.87D-01  9.52D-01
 E= -244.856670468390     Delta-E=        0.032360699052 Rises=F Damp=F
 DIIS: error= 4.03D-02 at cycle   4 NSaved=   4.
 NSaved= 4 IEnMin= 3 EnMin= -244.889031167442     IErMin= 2 ErrMin= 1.24D-02
 ErrMax= 4.03D-02  0.00D+00 EMaxC= 1.00D-01 BMatC= 2.95D-01 BMatP= 9.65D-02
 IDIUse=2 WtCom= 0.00D+00 WtEn= 1.00D+00
 Coeff-En:   0.000D+00 0.000D+00 0.588D+00 0.412D+00
 Coeff:      0.000D+00 0.000D+00 0.588D+00 0.412D+00
 Gap=     0.088 Goal=   None    Shift=    0.000
 Gap=     0.118 Goal=   None    Shift=    0.000
 RMSDP=2.49D-03 MaxDP=2.53D-01 DE= 3.24D-02 OVMax= 1.53D-01

 Cycle   5  Pass 1  IDiag  1:
 RMSU=  9.83D-04    CP:  8.99D-01  5.34D-01  7.19D-01  5.09D-01
 E= -244.938493163628     Delta-E=       -0.081822695238 Rises=F Damp=F
 DIIS: error= 4.09D-03 at cycle   5 NSaved=   5.
 NSaved= 5 IEnMin= 5 EnMin= -244.938493163628     IErMin= 5 ErrMin= 4.09D-03
 ErrMax= 4.09D-03  0.00D+00 EMaxC= 1.00D-01 BMatC= 7.37D-03 BMatP= 9.65D-02
 IDIUse=3 WtCom= 9.59D-01 WtEn= 4.09D-02
 Coeff-Com: -0.132D-01 0.331D-01 0.269D+00 0.162D+00 0.549D+00
 Coeff-En:   0.000D+00 0.000D+00 0.000D+00 0.000D+00 0.100D+01
 Coeff:     -0.126D-01 0.317D-01 0.258D+00 0.155D+00 0.568D+00
 Gap=     0.082 Goal=   None    Shift=    0.000
 Gap=     0.122 Goal=   None    Shift=    0.000
 RMSDP=4.59D-04 MaxDP=1.83D-02 DE=-8.18D-02 OVMax= 2.33D-02

 Cycle   6  Pass 1  IDiag  1:
 RMSU=  3.07D-04    CP:  9.00D-01  5.57D-01  7.68D-01  4.60D-01  7.67D-01
 E= -244.939986396005     Delta-E=       -0.001493232377 Rises=F Damp=F
 DIIS: error= 2.15D-03 at cycle   6 NSaved=   6.
 NSaved= 6 IEnMin= 6 EnMin= -244.939986396005     IErMin= 6 ErrMin= 2.15D-03
 ErrMax= 2.15D-03  0.00D+00 EMaxC= 1.00D-01 BMatC= 1.72D-03 BMatP= 7.37D-03
 IDIUse=3 WtCom= 9.79D-01 WtEn= 2.15D-02
 Coeff-Com: -0.346D-01 0.319D-01 0.769D-01 0.131D-01 0.365D+00 0.547D+00
 Coeff-En:   0.000D+00 0.000D+00 0.000D+00 0.000D+00 0.102D+00 0.898D+00
 Coeff:     -0.339D-01 0.312D-01 0.752D-01 0.129D-01 0.360D+00 0.555D+00
 Gap=     0.084 Goal=   None    Shift=    0.000
 Gap=     0.122 Goal=   None    Shift=    0.000
 RMSDP=1.72D-04 MaxDP=1.02D-02 DE=-1.49D-03 OVMax= 9.72D-03

 Cycle   7  Pass 1  IDiag  1:
 RMSU=  1.25D-04    CP:  9.01D-01  5.60D-01  7.78D-01  4.76D-01  8.30D-01
                    CP:  7.94D-01
 E= -244.940391787328     Delta-E=       -0.000405391323 Rises=F Damp=F
 DIIS: error= 5.35D-04 at cycle   7 NSaved=   7.
 NSaved= 7 IEnMin= 7 EnMin= -244.940391787328     IErMin= 7 ErrMin= 5.35D-04
 ErrMax= 5.35D-04  0.00D+00 EMaxC= 1.00D-01 BMatC= 1.29D-04 BMatP= 1.72D-03
 IDIUse=3 WtCom= 9.95D-01 WtEn= 5.35D-03
 Coeff-Com: -0.230D-01 0.279D-01-0.354D-03-0.212D-01 0.902D-01 0.245D+00
 Coeff-Com:  0.682D+00
 Coeff-En:   0.000D+00 0.000D+00 0.000D+00 0.000D+00 0.000D+00 0.000D+00
 Coeff-En:   0.100D+01
 Coeff:     -0.229D-01 0.277D-01-0.352D-03-0.211D-01 0.897D-01 0.243D+00
 Coeff:      0.683D+00
 Gap=     0.084 Goal=   None    Shift=    0.000
 Gap=     0.124 Goal=   None    Shift=    0.000
 RMSDP=1.01D-04 MaxDP=7.54D-03 DE=-4.05D-04 OVMax= 5.56D-03

 Cycle   8  Pass 1  IDiag  1:
 RMSU=  6.34D-05    CP:  9.00D-01  5.65D-01  7.62D-01  4.81D-01  8.57D-01
                    CP:  9.55D-01  9.21D-01
 E= -244.940444654439     Delta-E=       -0.000052867111 Rises=F Damp=F
 DIIS: error= 2.64D-04 at cycle   8 NSaved=   8.
 NSaved= 8 IEnMin= 8 EnMin= -244.940444654439     IErMin= 8 ErrMin= 2.64D-04
 ErrMax= 2.64D-04  0.00D+00 EMaxC= 1.00D-01 BMatC= 2.70D-05 BMatP= 1.29D-04
 IDIUse=3 WtCom= 9.97D-01 WtEn= 2.64D-03
 Coeff-Com: -0.996D-03 0.317D-02-0.173D-01-0.643D-02-0.425D-01-0.624D-01
 Coeff-Com:  0.192D+00 0.935D+00
 Coeff-En:   0.000D+00 0.000D+00 0.000D+00 0.000D+00 0.000D+00 0.000D+00
 Coeff-En:   0.000D+00 0.100D+01
 Coeff:     -0.994D-03 0.316D-02-0.172D-01-0.641D-02-0.424D-01-0.622D-01
 Coeff:      0.191D+00 0.935D+00
 Gap=     0.086 Goal=   None    Shift=    0.000
 Gap=     0.124 Goal=   None    Shift=    0.000
 RMSDP=1.00D-04 MaxDP=1.04D-02 DE=-5.29D-05 OVMax= 9.05D-03

 Cycle   9  Pass 1  IDiag  1:
 RMSU=  2.10D-05    CP:  9.00D-01  5.75D-01  7.56D-01  4.98D-01  8.79D-01
                    CP:  1.05D+00  1.17D+00  1.38D+00
 E= -244.940468958087     Delta-E=       -0.000024303648 Rises=F Damp=F
 DIIS: error= 1.63D-04 at cycle   9 NSaved=   9.
 NSaved= 9 IEnMin= 9 EnMin= -244.940468958087     IErMin= 9 ErrMin= 1.63D-04
 ErrMax= 1.63D-04  0.00D+00 EMaxC= 1.00D-01 BMatC= 6.94D-06 BMatP= 2.70D-05
 IDIUse=3 WtCom= 9.98D-01 WtEn= 1.63D-03
 Coeff-Com:  0.800D-02-0.843D-02-0.299D-02 0.305D-02-0.382D-01-0.859D-01
 Coeff-Com: -0.152D+00 0.208D+00 0.107D+01
 Coeff-En:   0.000D+00 0.000D+00 0.000D+00 0.000D+00 0.000D+00 0.000D+00
 Coeff-En:   0.000D+00 0.000D+00 0.100D+01
 Coeff:      0.799D-02-0.842D-02-0.299D-02 0.305D-02-0.381D-01-0.857D-01
 Coeff:     -0.151D+00 0.208D+00 0.107D+01
 Gap=     0.086 Goal=   None    Shift=    0.000
 Gap=     0.124 Goal=   None    Shift=    0.000
 RMSDP=6.39D-05 MaxDP=4.30D-03 DE=-2.43D-05 OVMax= 4.94D-03

 Cycle  10  Pass 1  IDiag  1:
 RMSU=  1.15D-05    CP:  8.99D-01  5.81D-01  7.48D-01  5.05D-01  8.98D-01
                    CP:  1.15D+00  1.28D+00  1.78D+00  1.50D+00
 E= -244.940473935502     Delta-E=       -0.000004977414 Rises=F Damp=F
 DIIS: error= 1.42D-04 at cycle  10 NSaved=  10.
 NSaved=10 IEnMin=10 EnMin= -244.940473935502     IErMin=10 ErrMin= 1.42D-04
 ErrMax= 1.42D-04  0.00D+00 EMaxC= 1.00D-01 BMatC= 4.72D-06 BMatP= 6.94D-06
 IDIUse=3 WtCom= 9.99D-01 WtEn= 1.42D-03
 Coeff-Com:  0.134D-02-0.189D-02 0.297D-02-0.599D-03 0.510D-02 0.260D-01
 Coeff-Com:  0.416D-01-0.592D-02-0.467D+00 0.140D+01
 Coeff-En:   0.000D+00 0.000D+00 0.000D+00 0.000D+00 0.000D+00 0.000D+00
 Coeff-En:   0.000D+00 0.000D+00 0.000D+00 0.100D+01
 Coeff:      0.133D-02-0.189D-02 0.297D-02-0.598D-03 0.509D-02 0.259D-01
 Coeff:      0.415D-01-0.591D-02-0.466D+00 0.140D+01
 Gap=     0.086 Goal=   None    Shift=    0.000
 Gap=     0.124 Goal=   None    Shift=    0.000
 RMSDP=1.50D-05 MaxDP=1.20D-03 DE=-4.98D-06 OVMax= 9.34D-04

 Cycle  11  Pass 1  IDiag  1:
 RMSU=  3.90D-06    CP:  8.99D-01  5.81D-01  7.45D-01  5.04D-01  9.01D-01
                    CP:  1.17D+00  1.29D+00  1.85D+00  1.63D+00  1.63D+00
 E= -244.940475759667     Delta-E=       -0.000001824165 Rises=F Damp=F
 DIIS: error= 3.72D-05 at cycle  11 NSaved=  11.
 NSaved=11 IEnMin=11 EnMin= -244.940475759667     IErMin=11 ErrMin= 3.72D-05
 ErrMax= 3.72D-05  0.00D+00 EMaxC= 1.00D-01 BMatC= 1.94D-07 BMatP= 4.72D-06
 IDIUse=1 WtCom= 1.00D+00 WtEn= 0.00D+00
 Coeff-Com: -0.660D-03 0.833D-03 0.349D-03-0.535D-03 0.292D-02 0.667D-02
 Coeff-Com:  0.198D-01-0.343D-02-0.127D+00-0.615D-01 0.116D+01
 Coeff:     -0.660D-03 0.833D-03 0.349D-03-0.535D-03 0.292D-02 0.667D-02
 Coeff:      0.198D-01-0.343D-02-0.127D+00-0.615D-01 0.116D+01
 Gap=     0.086 Goal=   None    Shift=    0.000
 Gap=     0.124 Goal=   None    Shift=    0.000
 RMSDP=3.71D-06 MaxDP=3.49D-04 DE=-1.82D-06 OVMax= 3.60D-04

 Cycle  12  Pass 1  IDiag  1:
 RMSU=  1.88D-06    CP:  8.99D-01  5.81D-01  7.44D-01  5.04D-01  9.02D-01
                    CP:  1.17D+00  1.29D+00  1.86D+00  1.64D+00  1.72D+00
                    CP:  1.30D+00
 E= -244.940475889166     Delta-E=       -0.000000129500 Rises=F Damp=F
 DIIS: error= 1.83D-05 at cycle  12 NSaved=  12.
 NSaved=12 IEnMin=12 EnMin= -244.940475889166     IErMin=12 ErrMin= 1.83D-05
 ErrMax= 1.83D-05  0.00D+00 EMaxC= 1.00D-01 BMatC= 4.40D-08 BMatP= 1.94D-07
 IDIUse=1 WtCom= 1.00D+00 WtEn= 0.00D+00
 Coeff-Com: -0.510D-04-0.246D-04-0.401D-03 0.416D-03-0.661D-03-0.455D-02
 Coeff-Com: -0.149D-01-0.171D-01 0.109D+00-0.134D+00-0.327D+00 0.139D+01
 Coeff:     -0.510D-04-0.246D-04-0.401D-03 0.416D-03-0.661D-03-0.455D-02
 Coeff:     -0.149D-01-0.171D-01 0.109D+00-0.134D+00-0.327D+00 0.139D+01
 Gap=     0.086 Goal=   None    Shift=    0.000
 Gap=     0.124 Goal=   None    Shift=    0.000
 RMSDP=2.54D-06 MaxDP=1.83D-04 DE=-1.29D-07 OVMax= 1.74D-04

 Cycle  13  Pass 1  IDiag  1:
 RMSU=  7.28D-07    CP:  8.99D-01  5.81D-01  7.44D-01  5.04D-01  9.03D-01
                    CP:  1.18D+00  1.30D+00  1.87D+00  1.66D+00  1.70D+00
                    CP:  1.41D+00  1.46D+00
 E= -244.940475926962     Delta-E=       -0.000000037795 Rises=F Damp=F
 DIIS: error= 3.47D-06 at cycle  13 NSaved=  13.
 NSaved=13 IEnMin=13 EnMin= -244.940475926962     IErMin=13 ErrMin= 3.47D-06
 ErrMax= 3.47D-06  0.00D+00 EMaxC= 1.00D-01 BMatC= 2.34D-09 BMatP= 4.40D-08
 IDIUse=1 WtCom= 1.00D+00 WtEn= 0.00D+00
 Coeff-Com: -0.850D-05 0.414D-04-0.884D-05-0.129D-04-0.137D-03-0.324D-03
 Coeff-Com: -0.929D-03 0.239D-02 0.121D-01 0.168D-01-0.176D+00-0.187D+00
 Coeff-Com:  0.133D+01
 Coeff:     -0.850D-05 0.414D-04-0.884D-05-0.129D-04-0.137D-03-0.324D-03
 Coeff:     -0.929D-03 0.239D-02 0.121D-01 0.168D-01-0.176D+00-0.187D+00
 Coeff:      0.133D+01
 Gap=     0.086 Goal=   None    Shift=    0.000
 Gap=     0.124 Goal=   None    Shift=    0.000
 RMSDP=9.37D-07 MaxDP=7.49D-05 DE=-3.78D-08 OVMax= 7.92D-05

 Cycle  14  Pass 1  IDiag  1:
 RMSU=  2.04D-07    CP:  8.99D-01  5.81D-01  7.44D-01  5.04D-01  9.03D-01
                    CP:  1.17D+00  1.30D+00  1.87D+00  1.65D+00  1.68D+00
                    CP:  1.46D+00  1.70D+00  1.50D+00
 E= -244.940475931216     Delta-E=       -0.000000004254 Rises=F Damp=F
 DIIS: error= 2.02D-06 at cycle  14 NSaved=  14.
 NSaved=14 IEnMin=14 EnMin= -244.940475931216     IErMin=14 ErrMin= 2.02D-06
 ErrMax= 2.02D-06  0.00D+00 EMaxC= 1.00D-01 BMatC= 4.77D-10 BMatP= 2.34D-09
 IDIUse=1 WtCom= 1.00D+00 WtEn= 0.00D+00
 Coeff-Com:  0.102D-04-0.152D-04 0.228D-04-0.917D-05 0.136D-04 0.295D-03
 Coeff-Com:  0.851D-03 0.419D-03-0.579D-02 0.120D-01 0.249D-01-0.108D+00
 Coeff-Com: -0.744D-01 0.115D+01
 Coeff:      0.102D-04-0.152D-04 0.228D-04-0.917D-05 0.136D-04 0.295D-03
 Coeff:      0.851D-03 0.419D-03-0.579D-02 0.120D-01 0.249D-01-0.108D+00
 Coeff:     -0.744D-01 0.115D+01
 Gap=     0.086 Goal=   None    Shift=    0.000
 Gap=     0.124 Goal=   None    Shift=    0.000
 RMSDP=2.14D-07 MaxDP=2.01D-05 DE=-4.25D-09 OVMax= 2.22D-05

 Cycle  15  Pass 1  IDiag  1:
 RMSU=  3.98D-08    CP:  8.99D-01  5.81D-01  7.44D-01  5.04D-01  9.03D-01
                    CP:  1.17D+00  1.30D+00  1.87D+00  1.65D+00  1.67D+00
                    CP:  1.46D+00  1.73D+00  1.63D+00  1.22D+00
 E= -244.940475931472     Delta-E=       -0.000000000256 Rises=F Damp=F
 DIIS: error= 3.44D-07 at cycle  15 NSaved=  15.
 NSaved=15 IEnMin=15 EnMin= -244.940475931472     IErMin=15 ErrMin= 3.44D-07
 ErrMax= 3.44D-07  0.00D+00 EMaxC= 1.00D-01 BMatC= 1.78D-11 BMatP= 4.77D-10
 IDIUse=1 WtCom= 1.00D+00 WtEn= 0.00D+00
 Coeff-Com:  0.663D-06-0.119D-05-0.205D-05-0.241D-06-0.351D-05-0.346D-04
 Coeff-Com: -0.118D-03-0.102D-03 0.644D-03-0.304D-02 0.236D-02 0.295D-01
 Coeff-Com: -0.505D-01-0.167D+00 0.119D+01
 Coeff:      0.663D-06-0.119D-05-0.205D-05-0.241D-06-0.351D-05-0.346D-04
 Coeff:     -0.118D-03-0.102D-03 0.644D-03-0.304D-02 0.236D-02 0.295D-01
 Coeff:     -0.505D-01-0.167D+00 0.119D+01
 Gap=     0.086 Goal=   None    Shift=    0.000
 Gap=     0.124 Goal=   None    Shift=    0.000
 RMSDP=3.79D-08 MaxDP=3.37D-06 DE=-2.56D-10 OVMax= 3.65D-06

 Cycle  16  Pass 1  IDiag  1:
 RMSU=  7.75D-09    CP:  8.99D-01  5.81D-01  7.44D-01  5.04D-01  9.03D-01
                    CP:  1.17D+00  1.30D+00  1.87D+00  1.65D+00  1.67D+00
                    CP:  1.46D+00  1.73D+00  1.63D+00  1.26D+00  1.22D+00
 E= -244.940475931482     Delta-E=       -0.000000000010 Rises=F Damp=F
 DIIS: error= 2.61D-08 at cycle  16 NSaved=  16.
 NSaved=16 IEnMin=16 EnMin= -244.940475931482     IErMin=16 ErrMin= 2.61D-08
 ErrMax= 2.61D-08  0.00D+00 EMaxC= 1.00D-01 BMatC= 1.58D-13 BMatP= 1.78D-11
 IDIUse=1 WtCom= 1.00D+00 WtEn= 0.00D+00
 Coeff-Com:  0.295D-06-0.301D-06-0.144D-05 0.674D-06-0.344D-05-0.903D-05
 Coeff-Com: -0.180D-04 0.223D-04 0.108D-03-0.784D-04-0.118D-02-0.194D-03
 Coeff-Com:  0.972D-02-0.151D-01-0.177D+00 0.118D+01
 Coeff:      0.295D-06-0.301D-06-0.144D-05 0.674D-06-0.344D-05-0.903D-05
 Coeff:     -0.180D-04 0.223D-04 0.108D-03-0.784D-04-0.118D-02-0.194D-03
 Coeff:      0.972D-02-0.151D-01-0.177D+00 0.118D+01
 Gap=     0.086 Goal=   None    Shift=    0.000
 Gap=     0.124 Goal=   None    Shift=    0.000
 RMSDP=4.53D-09 MaxDP=4.01D-07 DE=-9.89D-12 OVMax= 2.93D-07

 SCF Done:  E(UB3LYP) =  -244.940475931     A.U. after   16 cycles
            NFock= 16  Conv=0.45D-08     -V/T= 2.0042
 <Sx>= 0.0000 <Sy>= 0.0000 <Sz>= 0.5000 <S**2>= 0.7584 S= 0.5042
 <L.S>= 0.000000000000E+00
 KE= 2.439241757249D+02 PE=-9.031991411195D+02 EE= 2.468009290981D+02
 Annihilation of the first spin contaminant:
 S**2 before annihilation     0.7584,   after     0.7501
 Leave Link  502 at Tue Aug 16 17:44:53 2016, MaxMem=    33554432 cpu:       517.8
 (Enter /home/proyectos/fulerenos/M3C-v2.0/M3C-deps_CCC/g09-AM64L-G09RevC.01/l801.exe)
 DoSCS=F DFT=T ScalE2(SS,OS)=  1.000000  1.000000
 Range of M.O.s used for correlation:     1   234
 NBasis=   234 NAE=    19 NBE=    18 NFC=     0 NFV=     0
 NROrb=    234 NOA=    19 NOB=    18 NVA=   215 NVB=   216

 **** Warning!!: The largest alpha MO coefficient is  0.13089465D+03


 **** Warning!!: The smallest alpha delta epsilon is  0.86396391D-01


 **** Warning!!: The largest beta MO coefficient is  0.12961469D+03

 Leave Link  801 at Tue Aug 16 17:44:53 2016, MaxMem=    33554432 cpu:         0.0
 (Enter /home/proyectos/fulerenos/M3C-v2.0/M3C-deps_CCC/g09-AM64L-G09RevC.01/l1101.exe)
 Using compressed storage, NAtomX=     6.
 Will process      7 centers per pass.
 Leave Link 1101 at Tue Aug 16 17:44:54 2016, MaxMem=    33554432 cpu:         0.5
 (Enter /home/proyectos/fulerenos/M3C-v2.0/M3C-deps_CCC/g09-AM64L-G09RevC.01/l1102.exe)
 Symmetrizing basis deriv contribution to polar:
 IMax=3 JMax=2 DiffMx= 0.00D+00
 Leave Link 1102 at Tue Aug 16 17:44:54 2016, MaxMem=    33554432 cpu:         0.1
 (Enter /home/proyectos/fulerenos/M3C-v2.0/M3C-deps_CCC/g09-AM64L-G09RevC.01/l1110.exe)
 Forming Gx(P) for the SCF density, NAtomX=     6.
 Integral derivatives from FoFJK, PRISM(SPDF).
 Do as many integral derivatives as possible in FoFJK.
 G2DrvN: MDV=      33554280.
 G2DrvN: will do     7 centers at a time, making    1 passes.
 Calling FoFCou, ICntrl=  3107 FMM=F I1Cent=   0 AccDes= 0.00D+00.
 FoFJK:  IHMeth= 1 ICntrl=    3107 DoSepK=F KAlg= 0 I1Cent=   0 FoldK=F
 IRaf=         0 NMat=   1 IRICut=       1 DoRegI=T DoRafI=F ISym2E= 1.
 FoFCou: FMM=F IPFlag=           0 FMFlag=      100000 FMFlg1=           0
         NFxFlg=           0 DoJE=F BraDBF=F KetDBF=F FulRan=T
         wScrn=  0.000000 ICntrl=    3107 IOpCl=  1 I1Cent=           0 NGrid=           0
         NMat0=    1 NMatS0=      1 NMatT0=    0 NMatD0=    1 NMtDS0=    0 NMtDT0=    0
 Petite list used in FoFCou.
 End of G2Drv F.D. properties file   721 does not exist.
 End of G2Drv F.D. properties file   722 does not exist.
 End of G2Drv F.D. properties file   788 does not exist.
 Leave Link 1110 at Tue Aug 16 17:49:18 2016, MaxMem=    33554432 cpu:       261.1
 (Enter /home/proyectos/fulerenos/M3C-v2.0/M3C-deps_CCC/g09-AM64L-G09RevC.01/l1002.exe)
 Minotr:  UHF open shell wavefunction.
          IDoAtm=111111
          Direct CPHF calculation.
          Differentiating once with respect to electric field.
                with respect to dipole field.
          Differentiating once with respect to nuclear coordinates.
          Using symmetry in CPHF.
          Requested convergence is 1.0D-08 RMS, and 1.0D-07 maximum.
          Secondary convergence is 1.0D-12 RMS, and 1.0D-12 maximum.
          NewPWx=T KeepS1=F KeepF1=F KeepIn=T MapXYZ=F SortEE=F KeepMc=T.
          MDV=      33553900 using IRadAn=       2.
 Generate precomputed XC quadrature information.
          Solving linear equations simultaneously, MaxMat=       0.
 FoFJK:  IHMeth= 1 ICntrl=       0 DoSepK=F KAlg= 0 I1Cent=   0 FoldK=F
 IRaf= 990000000 NMat=  15 IRICut=      37 DoRegI=T DoRafI=T ISym2E= 2.
 FoFCou: FMM=F IPFlag=           0 FMFlag=      100000 FMFlg1=           0
         NFxFlg=           0 DoJE=F BraDBF=F KetDBF=F FulRan=T
         wScrn=  0.000000 ICntrl=       0 IOpCl=  1 I1Cent=           0 NGrid=           0
         NMat0=   15 NMatS0=     15 NMatT0=    0 NMatD0=   15 NMtDS0=    0 NMtDT0=    0
 Integrals replicated using symmetry in FoFCou.
          There are    15 degrees of freedom in the 1st order CPHF.  IDoFFX=4 NUNeed=    15.
     15 vectors produced by pass  0 Test12= 5.32D-14 6.67D-09 XBig12= 5.25D+02 1.41D+01.
 AX will form    15 AO Fock derivatives at one time.
     15 vectors produced by pass  1 Test12= 5.32D-14 6.67D-09 XBig12= 4.04D+02 5.04D+00.
     15 vectors produced by pass  2 Test12= 5.32D-14 6.67D-09 XBig12= 1.21D+01 8.71D-01.
     15 vectors produced by pass  3 Test12= 5.32D-14 6.67D-09 XBig12= 3.15D-01 1.51D-01.
     15 vectors produced by pass  4 Test12= 5.32D-14 6.67D-09 XBig12= 5.09D-03 1.39D-02.
     15 vectors produced by pass  5 Test12= 5.32D-14 6.67D-09 XBig12= 9.90D-05 2.28D-03.
     15 vectors produced by pass  6 Test12= 5.32D-14 6.67D-09 XBig12= 1.66D-06 3.06D-04.
     15 vectors produced by pass  7 Test12= 5.32D-14 6.67D-09 XBig12= 1.77D-08 2.27D-05.
     15 vectors produced by pass  8 Test12= 5.32D-14 6.67D-09 XBig12= 1.61D-10 2.45D-06.
      3 vectors produced by pass  9 Test12= 5.32D-14 6.67D-09 XBig12= 1.05D-12 1.37D-07.
      3 vectors produced by pass 10 Test12= 5.32D-14 6.67D-09 XBig12= 2.62D-13 1.77D-07.
      2 vectors produced by pass 11 Test12= 5.32D-14 6.67D-09 XBig12= 3.30D-15 1.72D-08.
 InvSVY:  IOpt=1 It=  1 EMax= 3.55D-15
 Solved reduced A of dimension   143 with    15 vectors.
 FullF1:  Do perturbations    1 to    15.
 Isotropic polarizability for W=    0.000000       60.37 Bohr**3.
 End of Minotr F.D. properties file   721 does not exist.
 End of Minotr F.D. properties file   722 does not exist.
 End of Minotr F.D. properties file   788 does not exist.
 Leave Link 1002 at Tue Aug 16 18:19:26 2016, MaxMem=    33554432 cpu:      1805.9
 (Enter /home/proyectos/fulerenos/M3C-v2.0/M3C-deps_CCC/g09-AM64L-G09RevC.01/l601.exe)
 Copying SCF densities to generalized density rwf, IOpCl= 1 IROHF=0.

 **********************************************************************

            Population analysis using the SCF density.

 **********************************************************************

 Orbital symmetries:
 Alpha Orbitals:
       Occupied  (A1) (A1) (B2) (A1) (B2) (A1) (A1) (A1) (B2) (A1)
                 (B2) (B1) (B2) (A1) (A1) (B1) (A1) (A2) (A1)
       Virtual   (B2) (B1) (B2) (A2) (A1) (B1) (A1) (B2) (A1) (B2)
                 (B1) (A1) (A2) (B1) (B2) (A1) (A1) (A2) (B2) (B1)
                 (B2) (A1) (A1) (B2) (A1) (A1) (B1) (B2) (B2) (A1)
                 (B2) (B1) (A1) (B2) (A1) (A1) (A1) (A2) (B2) (A2)
                 (A1) (B1) (B2) (B2) (A1) (B1) (A2) (B2) (A1) (B1)
                 (B2) (A1) (B1) (B1) (A1) (B2) (A2) (B2) (A2) (A1)
                 (A1) (B2) (B1) (A1) (B2) (A2) (B1) (A1) (A2) (A1)
                 (B1) (B2) (A1) (B2) (B2) (A2) (A1) (B1) (A1) (B2)
                 (A1) (B2) (B2) (A1) (A1) (A1) (B1) (B2) (A1) (B1)
                 (A2) (B2) (A1) (B1) (A2) (B2) (A2) (A1) (A1) (B1)
                 (A1) (B2) (A2) (B2) (A1) (A1) (B2) (A2) (B1) (B2)
                 (B2) (A1) (B1) (A1) (B1) (A1) (A2) (B1) (B1) (B2)
                 (A1) (A2) (B1) (A1) (B2) (B1) (A1) (A2) (B2) (B1)
                 (A1) (B2) (A2) (A1) (B1) (A1) (B2) (A2) (A1) (B2)
                 (B1) (B2) (A1) (A1) (B2) (A2) (B1) (B2) (A1) (A2)
                 (B2) (A1) (A1) (B2) (A2) (B1) (B2) (B1) (A2) (B2)
                 (A1) (A1) (B2) (A1) (B1) (B2) (B2) (A1) (B1) (A2)
                 (A1) (B2) (A2) (B1) (B2) (A1) (B2) (A1) (B1) (A1)
                 (B2) (B1) (A1) (A2) (A1) (B1) (A2) (B2) (A2) (A1)
                 (B1) (B2) (A2) (B2) (A1) (A2) (B1) (A1) (A1) (A1)
                 (B2) (B2) (B2) (B2) (B1) (A2) (A1) (A1) (B2) (A1)
                 (B2) (A1) (A1) (B2) (A1)
 Beta  Orbitals:
       Occupied  (A1) (A1) (B2) (A1) (B2) (A1) (A1) (A1) (B2) (A1)
                 (B2) (B1) (B2) (A1) (A1) (B1) (A2) (A1)
       Virtual   (A1) (B2) (B1) (A2) (B2) (A1) (B1) (A1) (B2) (A1)
                 (B2) (B1) (A1) (A2) (B1) (B2) (A1) (A1) (A2) (B2)
                 (B1) (B2) (A1) (A1) (B2) (A1) (A1) (B1) (B2) (B2)
                 (A1) (B2) (B1) (A1) (B2) (A1) (A1) (A1) (A2) (B2)
                 (A2) (B1) (A1) (B2) (B2) (A1) (B1) (A2) (A1) (B2)
                 (B1) (B2) (A1) (B1) (B1) (A1) (B2) (A2) (B2) (A2)
                 (A1) (A1) (B2) (B1) (A1) (B2) (A2) (B1) (A1) (A2)
                 (A1) (B1) (B2) (A1) (B2) (B2) (A2) (A1) (B1) (A1)
                 (B2) (A1) (B2) (B2) (A1) (A1) (A1) (B1) (B2) (A1)
                 (B1) (A2) (B2) (A1) (B1) (A2) (A2) (B2) (A1) (A1)
                 (B1) (A1) (B2) (A2) (B2) (A1) (A1) (B2) (A2) (B1)
                 (B2) (B2) (B1) (A1) (A1) (B1) (A1) (A2) (B1) (B1)
                 (B2) (A1) (A2) (B1) (B2) (A1) (B1) (A1) (A2) (B2)
                 (B1) (A1) (B2) (A2) (A1) (B1) (B2) (A1) (A2) (A1)
                 (B2) (B1) (B2) (A1) (A1) (B2) (A2) (B1) (B2) (A1)
                 (A2) (B2) (A1) (A1) (B2) (A2) (B1) (B2) (B1) (A2)
                 (B2) (A1) (A1) (B2) (A1) (B1) (B2) (B2) (A1) (B1)
                 (A2) (A1) (B2) (A2) (B1) (B2) (A1) (B2) (A1) (B1)
                 (A1) (B2) (B1) (A1) (A2) (A1) (B1) (A2) (B2) (A2)
                 (A1) (B1) (B2) (A2) (B2) (A1) (A2) (B1) (A1) (A1)
                 (A1) (B2) (B2) (B2) (B2) (B1) (A2) (A1) (A1) (B2)
                 (A1) (B2) (A1) (A1) (B2) (A1)
 The electronic state is 2-A1.
 Alpha  occ. eigenvalues --  -14.42719 -10.31119 -10.31116 -10.28949 -10.28934
 Alpha  occ. eigenvalues --  -10.27114  -1.08158  -0.95728  -0.75844  -0.74336
 Alpha  occ. eigenvalues --   -0.60915  -0.50315  -0.50213  -0.49130  -0.41463
 Alpha  occ. eigenvalues --   -0.38092  -0.30483  -0.30096  -0.24986
 Alpha virt. eigenvalues --   -0.16347  -0.11294  -0.03611  -0.02706   0.00655
 Alpha virt. eigenvalues --    0.03402   0.03951   0.04209   0.06005   0.06077
 Alpha virt. eigenvalues --    0.06998   0.07392   0.08412   0.09354   0.10963
 Alpha virt. eigenvalues --    0.12290   0.13183   0.14108   0.14192   0.14325
 Alpha virt. eigenvalues --    0.17296   0.17612   0.19120   0.19547   0.20176
 Alpha virt. eigenvalues --    0.20851   0.21441   0.22137   0.24256   0.24355
 Alpha virt. eigenvalues --    0.27130   0.30009   0.30666   0.32116   0.35737
 Alpha virt. eigenvalues --    0.38695   0.39743   0.41276   0.41331   0.44228
 Alpha virt. eigenvalues --    0.44324   0.44359   0.45179   0.48509   0.48954
 Alpha virt. eigenvalues --    0.49640   0.51537   0.53238   0.53736   0.55773
 Alpha virt. eigenvalues --    0.56791   0.56902   0.57282   0.58885   0.60535
 Alpha virt. eigenvalues --    0.61574   0.62490   0.64269   0.65955   0.69690
 Alpha virt. eigenvalues --    0.71795   0.72323   0.73802   0.77940   0.79423
 Alpha virt. eigenvalues --    0.80735   0.81534   0.85281   0.86087   0.86971
 Alpha virt. eigenvalues --    0.88606   0.91701   0.92816   0.95912   0.97508
 Alpha virt. eigenvalues --    0.99354   1.00154   1.08013   1.08583   1.08631
 Alpha virt. eigenvalues --    1.16170   1.16659   1.22895   1.24618   1.27132
 Alpha virt. eigenvalues --    1.28679   1.28985   1.32424   1.35167   1.36235
 Alpha virt. eigenvalues --    1.45006   1.45250   1.47018   1.54210   1.58685
 Alpha virt. eigenvalues --    1.61337   1.61804   1.62540   1.68633   1.72824
 Alpha virt. eigenvalues --    1.78039   1.84555   1.85113   1.94048   1.95874
 Alpha virt. eigenvalues --    1.99773   2.00302   2.12224   2.13778   2.14309
 Alpha virt. eigenvalues --    2.21587   2.33359   2.33805   2.38355   2.39305
 Alpha virt. eigenvalues --    2.46231   2.53641   2.57453   2.59721   2.61467
 Alpha virt. eigenvalues --    2.62177   2.66908   2.74902   2.77609   2.77695
 Alpha virt. eigenvalues --    2.81492   2.85657   2.85923   2.89963   2.91634
 Alpha virt. eigenvalues --    2.91749   2.94768   2.94915   3.00778   3.05751
 Alpha virt. eigenvalues --    3.11799   3.12406   3.14275   3.17911   3.20012
 Alpha virt. eigenvalues --    3.25194   3.26025   3.32056   3.34437   3.35820
 Alpha virt. eigenvalues --    3.36712   3.46066   3.50228   3.59032   3.64804
 Alpha virt. eigenvalues --    3.69674   3.79323   3.85159   3.86390   3.86407
 Alpha virt. eigenvalues --    3.90660   3.97808   4.06206   4.09654   4.12041
 Alpha virt. eigenvalues --    4.13771   4.18280   4.25154   4.33267   4.36081
 Alpha virt. eigenvalues --    4.42707   4.52770   4.69169   4.75854   4.79717
 Alpha virt. eigenvalues --    4.96899   5.01087   5.16218   5.19023   5.25723
 Alpha virt. eigenvalues --    5.29939   5.52756   5.82400   6.85908   6.89176
 Alpha virt. eigenvalues --    6.92284   6.94629   7.02480   7.04375   7.10824
 Alpha virt. eigenvalues --    7.13319   7.14445   7.17439   7.24300   7.24411
 Alpha virt. eigenvalues --    7.30583   7.38005   7.40305   7.44531   7.44725
 Alpha virt. eigenvalues --    7.56903   7.61145   7.68626   7.80104   8.09089
 Alpha virt. eigenvalues --    8.16440   8.32461   8.44195   8.68531  10.42762
 Alpha virt. eigenvalues --   10.46918  10.52437  10.85443  11.36317  24.05117
 Alpha virt. eigenvalues --   24.93645  25.23402  25.59827  25.76612  36.18154
  Beta  occ. eigenvalues --  -14.42621 -10.30798 -10.30796 -10.28268 -10.28256
  Beta  occ. eigenvalues --  -10.26796  -1.07826  -0.95299  -0.74703  -0.74137
  Beta  occ. eigenvalues --   -0.59843  -0.49949  -0.49117  -0.47042  -0.40089
  Beta  occ. eigenvalues --   -0.37661  -0.29337  -0.27917
  Beta virt. eigenvalues --   -0.15510  -0.14487  -0.10937  -0.01504  -0.00215
  Beta virt. eigenvalues --    0.00763   0.03507   0.04068   0.04734   0.06067
  Beta virt. eigenvalues --    0.06434   0.07513   0.07533   0.08427   0.09708
  Beta virt. eigenvalues --    0.10959   0.12523   0.13265   0.14223   0.14273
  Beta virt. eigenvalues --    0.14399   0.17458   0.17774   0.19210   0.19776
  Beta virt. eigenvalues --    0.20724   0.21132   0.21451   0.22357   0.24414
  Beta virt. eigenvalues --    0.24555   0.27545   0.30527   0.31468   0.32446
  Beta virt. eigenvalues --    0.36312   0.39048   0.40105   0.41379   0.41750
  Beta virt. eigenvalues --    0.44437   0.44801   0.45008   0.45824   0.49189
  Beta virt. eigenvalues --    0.49752   0.49910   0.51885   0.54198   0.54284
  Beta virt. eigenvalues --    0.56216   0.57201   0.57341   0.57525   0.59187
  Beta virt. eigenvalues --    0.61283   0.62008   0.62871   0.65176   0.66261
  Beta virt. eigenvalues --    0.70157   0.72424   0.72524   0.73918   0.78250
  Beta virt. eigenvalues --    0.79765   0.80985   0.81825   0.85691   0.86346
  Beta virt. eigenvalues --    0.87320   0.88859   0.91841   0.93171   0.96298
  Beta virt. eigenvalues --    0.97649   0.99392   1.00491   1.08158   1.08788
  Beta virt. eigenvalues --    1.08861   1.16632   1.16834   1.23655   1.25702
  Beta virt. eigenvalues --    1.27675   1.29651   1.29959   1.33547   1.36170
  Beta virt. eigenvalues --    1.36894   1.45301   1.45662   1.47432   1.54825
  Beta virt. eigenvalues --    1.59537   1.62249   1.62768   1.64261   1.69046
  Beta virt. eigenvalues --    1.73626   1.78535   1.85750   1.87277   1.95447
  Beta virt. eigenvalues --    1.96783   2.00599   2.02257   2.12950   2.14605
  Beta virt. eigenvalues --    2.15766   2.22694   2.34343   2.34953   2.39955
  Beta virt. eigenvalues --    2.40863   2.47425   2.53967   2.59077   2.60152
  Beta virt. eigenvalues --    2.62231   2.62860   2.67444   2.75320   2.78078
  Beta virt. eigenvalues --    2.78788   2.82102   2.86218   2.86427   2.90911
  Beta virt. eigenvalues --    2.92495   2.92592   2.95463   2.96068   3.02035
  Beta virt. eigenvalues --    3.06562   3.12658   3.13463   3.14833   3.19261
  Beta virt. eigenvalues --    3.21125   3.25661   3.27096   3.32780   3.35087
  Beta virt. eigenvalues --    3.36798   3.37277   3.46634   3.50703   3.59609
  Beta virt. eigenvalues --    3.65722   3.70242   3.80077   3.86006   3.87267
  Beta virt. eigenvalues --    3.87989   3.90865   3.98235   4.06434   4.10012
  Beta virt. eigenvalues --    4.12983   4.14363   4.18738   4.25765   4.34016
  Beta virt. eigenvalues --    4.36593   4.43930   4.53674   4.70010   4.76219
  Beta virt. eigenvalues --    4.80081   4.97542   5.02274   5.16754   5.19633
  Beta virt. eigenvalues --    5.26246   5.30633   5.53302   5.82872   6.87563
  Beta virt. eigenvalues --    6.90696   6.92805   6.96331   7.03512   7.05458
  Beta virt. eigenvalues --    7.11934   7.13948   7.14865   7.18267   7.24572
  Beta virt. eigenvalues --    7.26035   7.31184   7.39352   7.42243   7.45525
  Beta virt. eigenvalues --    7.45864   7.57494   7.61832   7.69739   7.80862
  Beta virt. eigenvalues --    8.10191   8.17641   8.33260   8.45464   8.70676
  Beta virt. eigenvalues --   10.43003  10.46816  10.52559  10.85536  11.36382
  Beta virt. eigenvalues --   24.05691  24.94242  25.23788  25.60413  25.77209
  Beta virt. eigenvalues --   36.18286
          Condensed to atoms (all electrons):
               1          2          3          4          5          6
     1  C    8.585348   0.187724   0.435795  -1.612083  -1.995699   0.036484
     2  C    0.187724   8.176355  -1.612083  -0.419700  -0.414493  -0.044086
     3  C    0.435795  -1.612083   8.585348   0.187724  -1.995699   0.036484
     4  C   -1.612083  -0.419700   0.187724   8.176355  -0.414493  -0.044086
     5  C   -1.995699  -0.414493  -1.995699  -0.414493  11.124317  -0.012432
     6  N    0.036484  -0.044086   0.036484  -0.044086  -0.012432   7.713563
          Atomic-Atomic Spin Densities.
               1          2          3          4          5          6
     1  C    1.778720  -0.419125   0.671668  -0.863196  -0.962756   0.121764
     2  C   -0.419125   0.858361  -0.863196   0.352612   0.415875  -0.168393
     3  C    0.671668  -0.863196   1.778720  -0.419125  -0.962756   0.121764
     4  C   -0.863196   0.352612  -0.419125   0.858361   0.415875  -0.168393
     5  C   -0.962756   0.415875  -0.962756   0.415875   1.177797  -0.048526
     6  N    0.121764  -0.168393   0.121764  -0.168393  -0.048526   0.099858
 Mulliken charges and spin densities:
               1          2
     1  C    0.362432   0.327075
     2  C    0.126283   0.176134
     3  C    0.362432   0.327075
     4  C    0.126283   0.176134
     5  C   -0.291501   0.035507
     6  N   -0.685928  -0.041926
 Sum of Mulliken charges =  -0.00000   1.00000
 Mulliken charges and spin densities with hydrogens summed into heavy atoms:
               1          2
     1  C    0.362432   0.327075
     2  C    0.126283   0.176134
     3  C    0.362432   0.327075
     4  C    0.126283   0.176134
     5  C   -0.291501   0.035507
     6  N   -0.685928  -0.041926
 APT charges:
               1
     1  C    0.102730
     2  C   -0.140010
     3  C    0.102730
     4  C   -0.140010
     5  C   -0.147694
     6  N    0.222255
 Sum of APT charges =   0.00000
 APT charges with hydrogens summed into heavy atoms:
               1
     1  C    0.102730
     2  C   -0.140010
     3  C    0.102730
     4  C   -0.140010
     5  C   -0.147694
     6  N    0.222255
 Electronic spatial extent (au):  <R**2>=            319.4604
 Charge=              0.0000 electrons
 Dipole moment (field-independent basis, Debye):
    X=              0.0000    Y=              0.0000    Z=              0.6086  Tot=              0.6086
 Quadrupole moment (field-independent basis, Debye-Ang):
   XX=            -33.5005   YY=            -31.7531   ZZ=            -41.8435
   XY=              0.0000   XZ=             -0.0000   YZ=              0.0000
 Traceless Quadrupole moment (field-independent basis, Debye-Ang):
   XX=              2.1985   YY=              3.9459   ZZ=             -6.1445
   XY=              0.0000   XZ=             -0.0000   YZ=              0.0000
 Octapole moment (field-independent basis, Debye-Ang**2):
  XXX=              0.0000  YYY=              0.0000  ZZZ=             14.1123  XYY=              0.0000
  XXY=              0.0000  XXZ=              2.1031  XZZ=              0.0000  YZZ=             -0.0000
  YYZ=              2.6594  XYZ=              0.0000
 Hexadecapole moment (field-independent basis, Debye-Ang**3):
 XXXX=            -37.6516 YYYY=           -131.1975 ZZZZ=           -372.4739 XXXY=             -0.0000
 XXXZ=             -0.0000 YYYX=             -0.0000 YYYZ=              0.0000 ZZZX=             -0.0000
 ZZZY=              0.0000 XXYY=            -30.4317 XXZZ=            -58.1788 YYZZ=            -73.2350
 XXYZ=              0.0000 YYXZ=             -0.0000 ZZXY=             -0.0000
 N-N= 1.675335603650D+02 E-N=-9.031991409626D+02  KE= 2.439241757249D+02
 Symmetry A1   KE= 1.618098469674D+02
 Symmetry A2   KE= 2.644448433790D+00
 Symmetry B1   KE= 4.951117804800D+00
 Symmetry B2   KE= 7.451876251897D+01
  Exact polarizability:  36.687   0.000  61.259  -0.000  -0.000  83.165
 Approx polarizability:  54.907   0.000 199.763  -0.000  -0.000 174.451
                          Isotropic Fermi Contact Couplings
        Atom                 a.u.       MegaHertz       Gauss      10(-4) cm-1
     1  C(13)              0.29805     335.06296     119.55879     111.76497
     2  C(13)              0.22794     256.24478      91.43451      85.47406
     3  C(13)              0.29805     335.06296     119.55879     111.76497
     4  C(13)              0.22794     256.24478      91.43451      85.47406
     5  C(13)              0.34452     387.30555     138.20025     129.19123
     6  N(14)              0.20354      65.76395      23.46621      21.93649
 --------------------------------------------------------
       Center         ----  Spin Dipole Couplings  ----
                      3XX-RR        3YY-RR        3ZZ-RR
 --------------------------------------------------------
     1   Atom       -0.160937      0.267773     -0.106836
     2   Atom       -0.078508      0.095164     -0.016657
     3   Atom       -0.160937      0.267773     -0.106836
     4   Atom       -0.078508      0.095164     -0.016657
     5   Atom       -0.034364     -0.115051      0.149416
     6   Atom       -0.013225     -0.061483      0.074708
 --------------------------------------------------------
                        XY            XZ            YZ
 --------------------------------------------------------
     1   Atom       -0.000000     -0.000000      0.201897
     2   Atom       -0.000000     -0.000000      0.085173
     3   Atom        0.000000     -0.000000     -0.201897
     4   Atom        0.000000     -0.000000     -0.085173
     5   Atom        0.000000      0.000000      0.000000
     6   Atom        0.000000      0.000000     -0.000000
 --------------------------------------------------------


 ---------------------------------------------------------------------------------
              Anisotropic Spin Dipole Couplings in Principal Axis System
 ---------------------------------------------------------------------------------

       Atom             a.u.   MegaHertz   Gauss  10(-4) cm-1        Axes

              Baa    -0.1949   -26.158    -9.334    -8.725  0.0000 -0.3999  0.9165
     1 C(13)  Bbb    -0.1609   -21.596    -7.706    -7.204  1.0000  0.0000  0.0000
              Bcc     0.3559    47.754    17.040    15.929 -0.0000  0.9165  0.3999
 
              Baa    -0.0785   -10.535    -3.759    -3.514  1.0000  0.0000  0.0000
     2 C(13)  Bbb    -0.0626    -8.404    -2.999    -2.803  0.0000 -0.4750  0.8800
              Bcc     0.1411    18.939     6.758     6.317 -0.0000  0.8800  0.4750
 
              Baa    -0.1949   -26.158    -9.334    -8.725  0.0000  0.3999  0.9165
     3 C(13)  Bbb    -0.1609   -21.596    -7.706    -7.204  1.0000 -0.0000  0.0000
              Bcc     0.3559    47.754    17.040    15.929  0.0000  0.9165 -0.3999
 
              Baa    -0.0785   -10.535    -3.759    -3.514  1.0000 -0.0000  0.0000
     4 C(13)  Bbb    -0.0626    -8.404    -2.999    -2.803  0.0000  0.4750  0.8800
              Bcc     0.1411    18.939     6.758     6.317  0.0000  0.8800 -0.4750
 
              Baa    -0.1151   -15.439    -5.509    -5.150  0.0000  1.0000 -0.0000
     5 C(13)  Bbb    -0.0344    -4.611    -1.645    -1.538  1.0000  0.0000 -0.0000
              Bcc     0.1494    20.050     7.154     6.688  0.0000  0.0000  1.0000
 
              Baa    -0.0615    -2.371    -0.846    -0.791 -0.0000  1.0000  0.0000
     6 N(14)  Bbb    -0.0132    -0.510    -0.182    -0.170  1.0000  0.0000 -0.0000
              Bcc     0.0747     2.881     1.028     0.961  0.0000 -0.0000  1.0000
 

 ---------------------------------------------------------------------------------

 No NMR shielding tensors so no spin-rotation constants.
 Leave Link  601 at Tue Aug 16 18:19:27 2016, MaxMem=    33554432 cpu:         0.9
 (Enter /home/proyectos/fulerenos/M3C-v2.0/M3C-deps_CCC/g09-AM64L-G09RevC.01/l701.exe)
 Compute integral second derivatives.
 ... and contract with generalized density number  0.
 Leave Link  701 at Tue Aug 16 18:19:28 2016, MaxMem=    33554432 cpu:         0.8
 (Enter /home/proyectos/fulerenos/M3C-v2.0/M3C-deps_CCC/g09-AM64L-G09RevC.01/l702.exe)
 L702 exits ... SP integral derivatives will be done elsewhere.
 Leave Link  702 at Tue Aug 16 18:19:28 2016, MaxMem=    33554432 cpu:         0.0
 (Enter /home/proyectos/fulerenos/M3C-v2.0/M3C-deps_CCC/g09-AM64L-G09RevC.01/l703.exe)
 Compute integral second derivatives, UseDBF=F ICtDFT=           0.
 Integral derivatives from FoFJK, PRISM(SPDF).
 Calling FoFJK, ICntrl=    100127 FMM=F ISym2X=1 I1Cent= 0 IOpClX= 1 NMat=1 NMatS=1 NMatT=0.
 FoFJK:  IHMeth= 1 ICntrl=  100127 DoSepK=F KAlg= 0 I1Cent=   0 FoldK=F
 IRaf=         0 NMat=   1 IRICut=       1 DoRegI=T DoRafI=F ISym2E= 1.
 FoFCou: FMM=F IPFlag=           0 FMFlag=      100000 FMFlg1=         800
         NFxFlg=           0 DoJE=F BraDBF=F KetDBF=F FulRan=T
         wScrn=  0.000000 ICntrl=  100127 IOpCl=  1 I1Cent=           0 NGrid=           0
         NMat0=    1 NMatS0=      1 NMatT0=    0 NMatD0=    1 NMtDS0=    0 NMtDT0=    0
 Petite list used in FoFCou.
 Leave Link  703 at Tue Aug 16 18:29:42 2016, MaxMem=    33554432 cpu:       612.6
 (Enter /home/proyectos/fulerenos/M3C-v2.0/M3C-deps_CCC/g09-AM64L-G09RevC.01/l716.exe)
 Dipole        = 2.18708831D-17 1.46631016D-14 2.39445688D-01
 Polarizability= 3.66874292D+01 1.06136120D-07 6.12589819D+01
                -3.97917307D-09-2.79639044D-07 8.31650060D+01
 Full mass-weighted force constant matrix:
 Low frequencies ---  -10.0420   -0.0009   -0.0009   -0.0006    6.3812    8.1475
 Low frequencies ---  250.9636  328.3248  459.4688
 Diagonal vibrational polarizability:
        1.5647845      12.8039365       8.1554652
 Harmonic frequencies (cm**-1), IR intensities (KM/Mole), Raman scattering
 activities (A**4/AMU), depolarization ratios for plane and unpolarized
 incident light, reduced masses (AMU), force constants (mDyne/A),
 and normal coordinates:
                      1                      2                      3
                     B1                     B2                     B1
 Frequencies --    250.9622               328.3211               459.4688
 Red. masses --     12.4999                12.0124                12.2741
 Frc consts  --      0.4638                 0.7629                 1.5267
 IR Inten    --      3.0945                 0.0085                 1.9027
  Atom  AN      X      Y      Z        X      Y      Z        X      Y      Z
     1   6    -0.35   0.00   0.00    -0.00   0.50   0.32    -0.40  -0.00  -0.00
     2   6    -0.25  -0.00  -0.00     0.00  -0.25   0.03     0.48  -0.00  -0.00
     3   6    -0.35   0.00  -0.00    -0.00   0.50  -0.32    -0.40  -0.00   0.00
     4   6    -0.25  -0.00   0.00     0.00  -0.25  -0.03     0.48  -0.00   0.00
     5   6     0.62  -0.00   0.00     0.00  -0.40  -0.00     0.27   0.00   0.00
     6   7     0.50  -0.00   0.00    -0.00  -0.08   0.00    -0.37   0.00   0.00
                      4                      5                      6
                     A2                     B2                     A1
 Frequencies --    539.6900               561.0683               619.1851
 Red. masses --     12.0000                12.7159                12.1983
 Frc consts  --      2.0593                 2.3585                 2.7554
 IR Inten    --      0.0000               131.6731                71.3346
  Atom  AN      X      Y      Z        X      Y      Z        X      Y      Z
     1   6     0.53   0.00   0.00     0.00  -0.09   0.11    -0.00   0.38   0.12
     2   6     0.46   0.00   0.00    -0.00  -0.46   0.05    -0.00   0.53   0.10
     3   6    -0.53   0.00   0.00     0.00  -0.09  -0.11     0.00  -0.38   0.12
     4   6    -0.46  -0.00   0.00    -0.00  -0.46  -0.05     0.00  -0.53   0.10
     5   6    -0.00  -0.00   0.00    -0.00   0.41  -0.00    -0.00  -0.00  -0.07
     6   7     0.00  -0.00  -0.00     0.00   0.60  -0.00    -0.00  -0.00  -0.31
                      7                      8                      9
                     A1                     B2                     A1
 Frequencies --    710.4266              1029.0796              1070.9579
 Red. masses --     12.1949                12.2340                12.3522
 Frc consts  --      3.6263                 7.6333                 8.3471
 IR Inten    --     21.9662                 0.5236                 8.4004
  Atom  AN      X      Y      Z        X      Y      Z        X      Y      Z
     1   6    -0.00  -0.45  -0.04     0.00  -0.07   0.41     0.00   0.28   0.24
     2   6    -0.00   0.28  -0.06    -0.00   0.03  -0.39     0.00  -0.33  -0.23
     3   6     0.00   0.45  -0.04     0.00  -0.07  -0.41    -0.00  -0.28   0.24
     4   6     0.00  -0.28  -0.06    -0.00   0.03   0.39    -0.00   0.33  -0.23
     5   6     0.00  -0.00   0.58    -0.00   0.48   0.00     0.00  -0.00   0.47
     6   7     0.00  -0.00  -0.31    -0.00  -0.34  -0.00     0.00   0.00  -0.42
                     10                     11                     12
                     A1                     A1                     B2
 Frequencies --   1393.7598              1693.7930              1726.3435
 Red. masses --     12.5403                12.1475                12.0028
 Frc consts  --     14.3527                20.5333                21.0760
 IR Inten    --    114.1145                21.2217               169.6745
  Atom  AN      X      Y      Z        X      Y      Z        X      Y      Z
     1   6     0.00   0.26  -0.31     0.00   0.13  -0.42    -0.00  -0.18   0.40
     2   6     0.00   0.14  -0.24     0.00  -0.17   0.47     0.00   0.18   0.52
     3   6    -0.00  -0.26  -0.31     0.00  -0.13  -0.42    -0.00  -0.18  -0.40
     4   6    -0.00  -0.14  -0.24     0.00   0.17   0.47     0.00   0.18  -0.52
     5   6    -0.00  -0.00   0.50    -0.00  -0.00   0.23     0.00   0.05   0.00
     6   7    -0.00   0.00   0.52    -0.00   0.00  -0.27    -0.00  -0.04  -0.00

 -------------------
 - Thermochemistry -
 -------------------
 Temperature   298.150 Kelvin.  Pressure   1.00000 Atm.
 Atom     1 has atomic number  6 and mass  12.00000
 Atom     2 has atomic number  6 and mass  12.00000
 Atom     3 has atomic number  6 and mass  12.00000
 Atom     4 has atomic number  6 and mass  12.00000
 Atom     5 has atomic number  6 and mass  12.00000
 Atom     6 has atomic number  7 and mass  14.00307
 Molecular mass:    74.00307 amu.
 Principal axes and moments of inertia in atomic units:
                           1         2         3
     Eigenvalues --   128.45825 351.24355 479.70179
           X            0.00000   0.00000   1.00000
           Y           -0.00000   1.00000  -0.00000
           Z            1.00000   0.00000  -0.00000
 This molecule is an asymmetric top.
 Rotational symmetry number  2.
 Rotational temperatures (Kelvin)      0.67426     0.24659     0.18056
 Rotational constants (GHZ):          14.04924     5.13815     3.76221
 Zero-point vibrational energy      62104.5 (Joules/Mol)
                                   14.84332 (Kcal/Mol)
 Warning -- explicit consideration of   6 degrees of freedom as
           vibrations may cause significant error
 Vibrational temperatures:    361.08   472.38   661.07   776.49   807.25
          (Kelvin)            890.87  1022.14  1480.61  1540.87  2005.31
                             2436.99  2483.82
 
 Zero-point correction=                           0.023654 (Hartree/Particle)
 Thermal correction to Energy=                    0.028324
 Thermal correction to Enthalpy=                  0.029268
 Thermal correction to Gibbs Free Energy=        -0.003586
 Sum of electronic and zero-point Energies=           -244.916822
 Sum of electronic and thermal Energies=              -244.912152
 Sum of electronic and thermal Enthalpies=            -244.911208
 Sum of electronic and thermal Free Energies=         -244.944062
 
                     E (Thermal)             CV                S
                      KCal/Mol        Cal/Mol-Kelvin    Cal/Mol-Kelvin
 Total                   17.773             15.591             69.146
 Electronic               0.000              0.000              1.377
 Translational            0.889              2.981             38.821
 Rotational               0.889              2.981             23.208
 Vibrational             15.996              9.630              5.741
 Vibration     1          0.663              1.761              1.724
 Vibration     2          0.712              1.619              1.268
 Vibration     3          0.817              1.340              0.768
 Vibration     4          0.895              1.162              0.566
 Vibration     5          0.917              1.116              0.522
 Vibration     6          0.979              0.991              0.418
                       Q            Log10(Q)             Ln(Q)
 Total Bot       0.446025D+02          1.649359          3.797789
 Total V=0       0.338515D+13         12.529578         28.850419
 Vib (Bot)       0.338463D-10        -10.470488        -24.109190
 Vib (Bot)    1  0.777339D+00         -0.109390         -0.251879
 Vib (Bot)    2  0.569683D+00         -0.244367         -0.562676
 Vib (Bot)    3  0.370347D+00         -0.431391         -0.993316
 Vib (Bot)    4  0.293653D+00         -0.532166         -1.225358
 Vib (Bot)    5  0.276723D+00         -0.557954         -1.284737
 Vib (Bot)    6  0.236386D+00         -0.626379         -1.442290
 Vib (V=0)       0.256880D+01          0.409731          0.943440
 Vib (V=0)    1  0.142426D+01          0.153589          0.353652
 Vib (V=0)    2  0.125798D+01          0.099675          0.229510
 Vib (V=0)    3  0.112222D+01          0.050078          0.115308
 Vib (V=0)    4  0.107986D+01          0.033365          0.076827
 Vib (V=0)    5  0.107147D+01          0.029979          0.069030
 Vib (V=0)    6  0.105306D+01          0.022454          0.051703
 Electronic      0.200000D+01          0.301030          0.693147
 Translational   0.250225D+08          7.398330         17.035284
 Rotational      0.263322D+05          4.420487         10.178548
 
                                                              b3lyp opt
                                                             IR Spectrum
 
     1  1                     1                       1  1                                                                           
     7  6                     3                       0  0                      7      6   5 5     4        3     2                  
     2  9                     9                       7  2                      1      1   6 4     5        2     5                  
     6  4                     4                       1  9                      0      9   1 0     9        8     1                  
 
     X  X                     X                       X  X                      X      X   X       X              X                  
     X  X                     X                                                 X      X   X                                         
     X  X                     X                                                 X      X   X                                         
     X                        X                                                        X   X                                         
     X                        X                                                        X   X                                         
     X                        X                                                        X   X                                         
     X                        X                                                        X   X                                         
     X                        X                                                        X   X                                         
     X                        X                                                            X                                         
     X                        X                                                            X                                         
     X                        X                                                            X                                         
     X                        X                                                            X                                         
     X                        X                                                            X                                         
     X                                                                                     X                                         
     X                                                                                     X                                         
     X                                                                                     X                                         
     X                                                                                                                               
     X                                                                                                                               
     X                                                                                                                               
     X                                                                                                                               
 
 ***** Axes restored to original set *****
 -------------------------------------------------------------------
 Center     Atomic                   Forces (Hartrees/Bohr)
 Number     Number              X              Y              Z
 -------------------------------------------------------------------
      1        6           0.000160606    0.000003962   -0.000084102
      2        6           0.000275525   -0.000003653   -0.000087140
      3        6           0.000127005   -0.000031969    0.000125422
      4        6           0.000235796   -0.000046137    0.000160599
      5        6          -0.000520029    0.000050639   -0.000074710
      6        7          -0.000278902    0.000027158   -0.000040069
 -------------------------------------------------------------------
 Cartesian Forces:  Max     0.000520029 RMS     0.000181278
 Z-matrix is all fixed cartesians, so copy forces.
 Force constants in Cartesian coordinates: 
                1             2             3             4             5 
      1  0.691423D+00
      2 -0.213580D-01  0.608446D-01
      3 -0.130127D+00 -0.164273D-01  0.196732D+00
      4 -0.782731D-02  0.198761D-01 -0.990528D-01  0.773199D+00
      5 -0.209128D-01  0.139748D-01  0.243079D-01 -0.703030D-01  0.652682D-01
      6  0.123974D+00  0.845035D-02 -0.774686D-01  0.103984D+00 -0.457668D-01
      7  0.316655D-01 -0.107804D-01  0.392264D-01 -0.382270D+00  0.459599D-01
      8 -0.532912D-02 -0.216031D-01  0.160009D-01  0.547773D-01 -0.538503D-01
      9  0.941980D-02  0.181202D-01 -0.121795D+00 -0.169770D+00  0.111425D-01
     10 -0.439605D+00  0.180955D-01  0.530894D-01 -0.820615D-01  0.414785D-01
     11  0.269129D-01 -0.478800D-01 -0.140972D-01 -0.317109D-01 -0.828842D-02
     12  0.487756D-02 -0.106692D-01  0.789644D-02  0.203344D+00  0.178807D-02
     13 -0.237201D+00 -0.623029D-02  0.119966D+00 -0.175295D-01  0.921200D-02
     14 -0.783269D-03 -0.143371D-01 -0.101361D-01  0.112931D-01  0.608181D-02
     15  0.901830D-01 -0.801849D-02 -0.746336D-02 -0.517537D-01  0.788935D-02
     16 -0.384553D-01  0.397025D-03  0.168971D-01 -0.283511D+00 -0.543457D-02
     17  0.214703D-01  0.900072D-02  0.351805D-03  0.160674D-01 -0.231861D-01
     18 -0.983275D-01  0.854445D-02  0.209895D-02  0.132484D-01  0.639011D-03
                6             7             8             9            10 
      6  0.261718D+00
      7 -0.121558D+00  0.571385D+00
      8  0.771459D-02 -0.796948D-01  0.733440D-01
      9 -0.434686D-01  0.235515D+00 -0.620924D-01  0.304270D+00
     10 -0.196842D+00 -0.746454D-02 -0.207365D-01  0.122869D+00  0.792572D+00
     11  0.302419D-01  0.200525D-01  0.139370D-01  0.858836D-02 -0.608878D-01
     12 -0.938430D-01 -0.100158D+00  0.244459D-01 -0.777936D-01  0.449717D-01
     13 -0.403745D-01 -0.153966D+00  0.396677D-01 -0.163354D+00 -0.451100D-01
     14  0.708027D-02  0.342206D-01 -0.230042D-01  0.236459D-01 -0.419177D-02
     15 -0.148375D-01 -0.133571D+00  0.215282D-01 -0.820305D-01  0.436372D-01
     16  0.130817D+00 -0.593504D-01  0.113155D-01 -0.346795D-01 -0.218331D+00
     17 -0.772029D-02 -0.975779D-02  0.111765D-01  0.595424D-03  0.262421D-01
     18 -0.321002D-01  0.805451D-01 -0.759722D-02  0.208183D-01 -0.677249D-01
               11            12            13            14            15 
     11  0.632508D-01
     12 -0.383968D-01  0.244362D+00
     13 -0.211065D-02  0.322580D-01  0.453088D+00
     14  0.895375D-02 -0.260292D-02 -0.388998D-01  0.248333D-01
     15 -0.341200D-02  0.987098D-02  0.432599D-01 -0.262844D-01  0.144160D+00
     16  0.477440D-01 -0.185293D+00  0.718037D-03 -0.163896D-02  0.824440D-02
     17 -0.299732D-01  0.254350D-01 -0.163896D-02 -0.252753D-02  0.829733D-02
     18  0.170757D-01 -0.904928D-01  0.824441D-02  0.829733D-02 -0.497000D-01
               16            17            18 
     16  0.598930D+00
     17 -0.523830D-01  0.355096D-01
     18  0.640144D-01 -0.269592D-01  0.149376D+00
 Leave Link  716 at Tue Aug 16 18:29:43 2016, MaxMem=    33554432 cpu:         0.1
 (Enter /home/proyectos/fulerenos/M3C-v2.0/M3C-deps_CCC/g09-AM64L-G09RevC.01/l103.exe)

 GradGradGradGradGradGradGradGradGradGradGradGradGradGradGradGradGradGrad
 Berny optimization.
 Search for a local minimum.
 Step number   1 out of a maximum of    2
 All quantities printed in internal units (Hartrees-Bohrs-Radians)
 Second derivative matrix not updated -- analytic derivatives used.
 The second derivative matrix:
                          X1        Y1        Z1        X2        Y2
           X1           0.69142
           Y1          -0.02136   0.06084
           Z1          -0.13013  -0.01643   0.19673
           X2          -0.00783   0.01988  -0.09905   0.77320
           Y2          -0.02091   0.01397   0.02431  -0.07030   0.06527
           Z2           0.12397   0.00845  -0.07747   0.10398  -0.04577
           X3           0.03167  -0.01078   0.03923  -0.38227   0.04596
           Y3          -0.00533  -0.02160   0.01600   0.05478  -0.05385
           Z3           0.00942   0.01812  -0.12180  -0.16977   0.01114
           X4          -0.43960   0.01810   0.05309  -0.08206   0.04148
           Y4           0.02691  -0.04788  -0.01410  -0.03171  -0.00829
           Z4           0.00488  -0.01067   0.00790   0.20334   0.00179
           X5          -0.23720  -0.00623   0.11997  -0.01753   0.00921
           Y5          -0.00078  -0.01434  -0.01014   0.01129   0.00608
           Z5           0.09018  -0.00802  -0.00746  -0.05175   0.00789
           X6          -0.03846   0.00040   0.01690  -0.28351  -0.00543
           Y6           0.02147   0.00900   0.00035   0.01607  -0.02319
           Z6          -0.09833   0.00854   0.00210   0.01325   0.00064
                          Z2        X3        Y3        Z3        X4
           Z2           0.26172
           X3          -0.12156   0.57139
           Y3           0.00771  -0.07969   0.07334
           Z3          -0.04347   0.23551  -0.06209   0.30427
           X4          -0.19684  -0.00746  -0.02074   0.12287   0.79257
           Y4           0.03024   0.02005   0.01394   0.00859  -0.06089
           Z4          -0.09384  -0.10016   0.02445  -0.07779   0.04497
           X5          -0.04037  -0.15397   0.03967  -0.16335  -0.04511
           Y5           0.00708   0.03422  -0.02300   0.02365  -0.00419
           Z5          -0.01484  -0.13357   0.02153  -0.08203   0.04364
           X6           0.13082  -0.05935   0.01132  -0.03468  -0.21833
           Y6          -0.00772  -0.00976   0.01118   0.00060   0.02624
           Z6          -0.03210   0.08055  -0.00760   0.02082  -0.06772
                          Y4        Z4        X5        Y5        Z5
           Y4           0.06325
           Z4          -0.03840   0.24436
           X5          -0.00211   0.03226   0.45309
           Y5           0.00895  -0.00260  -0.03890   0.02483
           Z5          -0.00341   0.00987   0.04326  -0.02628   0.14416
           X6           0.04774  -0.18529   0.00072  -0.00164   0.00824
           Y6          -0.02997   0.02543  -0.00164  -0.00253   0.00830
           Z6           0.01708  -0.09049   0.00824   0.00830  -0.04970
                          X6        Y6        Z6
           X6           0.59893
           Y6          -0.05238   0.03551
           Z6           0.06401  -0.02696   0.14938
 ITU=  0
     Eigenvalues ---    0.02987   0.04900   0.09836   0.13227   0.15190
     Eigenvalues ---    0.17682   0.23309   0.49174   0.53610   0.92638
     Eigenvalues ---    1.32386   1.35378
 Angle between quadratic step and forces=  33.82 degrees.
 ClnCor:  largest displacement from symmetrization is 2.37D-11 for atom     3.
 Linear search not attempted -- first point.
 ClnCor:  largest displacement from symmetrization is 5.41D-15 for atom     5.
 B after Tr=     0.000000   -0.000000    0.000000
         Rot=    1.000000    0.000000   -0.000000    0.000000 Ang=   0.00 deg.
 Variable       Old X    -DE/DX   Delta X   Delta X   Delta X     New X
                                 (Linear)    (Quad)   (Total)
    X1       -2.20123   0.00016   0.00000   0.00015   0.00015  -2.20108
    Y1        0.64008   0.00000   0.00000  -0.00005  -0.00005   0.64004
    Z1       -0.90965  -0.00008   0.00000   0.00019   0.00019  -0.90946
    X2       -0.19149   0.00028   0.00000   0.00040   0.00040  -0.19109
    Y2       -0.15006  -0.00000   0.00000   0.00002   0.00002  -0.15004
    Z2        2.62937  -0.00009   0.00000  -0.00026  -0.00026   2.62911
    X3       -2.67426   0.00013   0.00000   0.00021   0.00021  -2.67406
    Y3        0.13425  -0.00003   0.00000   0.00001   0.00001   0.13426
    Z3        2.04008   0.00013   0.00000  -0.00014  -0.00014   2.03994
    X4        0.35446   0.00024   0.00000   0.00030   0.00030   0.35476
    Y4        0.43376  -0.00005   0.00000  -0.00009  -0.00009   0.43367
    Z4       -0.77508   0.00016   0.00000   0.00036   0.00036  -0.77472
    X5       -4.51788  -0.00052   0.00000  -0.00108  -0.00108  -4.51896
    Y5        0.58972   0.00005   0.00000   0.00011   0.00011   0.58983
    Z5        0.26637  -0.00007   0.00000  -0.00016  -0.00016   0.26622
    X6        1.88130  -0.00028   0.00000   0.00002   0.00002   1.88133
    Y6       -0.03341   0.00003   0.00000  -0.00000  -0.00000  -0.03341
    Z6        1.18572  -0.00004   0.00000   0.00000   0.00000   1.18572
         Item               Value     Threshold  Converged?
 Maximum Force            0.000520     0.000450     NO 
 RMS     Force            0.000181     0.000300     YES
 Maximum Displacement     0.001081     0.001800     YES
 RMS     Displacement     0.000314     0.001200     YES
 Predicted change in Energy=-4.259998D-07
 GradGradGradGradGradGradGradGradGradGradGradGradGradGradGradGradGradGrad

 Leave Link  103 at Tue Aug 16 18:29:43 2016, MaxMem=    33554432 cpu:         0.1
 (Enter /home/proyectos/fulerenos/M3C-v2.0/M3C-deps_CCC/g09-AM64L-G09RevC.01/l9999.exe)
 1\1\GINC-BLADI10\Freq\UB3LYP\6-311++G(3df,2p)\C5N1(2)\ROOT\16-Aug-2016
 \0\\#p b3lyp/6-311++G(3df,2p) freq symmetry=Loose\\b3lyp opt\\0,2\C,-1
 .164840978,0.338718268,-0.481366078\C,-0.101331008,-0.0794064911,1.391
 400958\C,-1.4151589313,0.0710398828,1.0795651098\C,0.1875744527,0.2295
 355811,-0.4101539762\C,-2.3907572371,0.312066808,0.1409583545\N,0.9955
 42886,-0.0176787569,0.627453827\\Version=EM64L-G09RevE.01\State=2-A1\H
 F=-244.9404759\S2=0.758375\S2-1=0.\S2A=0.750051\RMSD=4.527e-09\RMSF=1.
 813e-04\ZeroPoint=0.0236543\Thermal=0.0283237\Dipole=0.2359189,-0.0229
 729,0.0338935\DipoleDeriv=0.4934321,-0.1752729,0.8123321,0.0216791,0.1
 129262,0.0183212,-0.2645647,0.0948902,-0.2981686,-0.1011947,-0.1497322
 ,0.8518685,0.1456942,-0.0244925,-0.0096446,-0.7634672,0.1052082,-0.294
 3429,0.5834668,0.0654349,-0.5388159,-0.1315171,0.1035509,0.1291415,0.5
 380807,0.0525725,-0.3788278,-0.0945854,0.1489062,-0.7835996,-0.1465201
 ,-0.0251807,0.1077226,0.8317361,-0.0071303,-0.3002641,-0.7388802,0.073
 7635,-0.1887615,0.0737635,-0.17275,-0.1064666,-0.1887613,-0.1064666,0.
 4685475,-0.1422383,0.0369005,-0.1530236,0.0369004,0.0059461,-0.139074,
 -0.1530236,-0.139074,0.803056\Polar=82.4048333,-3.7530539,37.8000882,2
 .7474462,-4.6247364,60.9064956\PG=C02V [C2(C1N1),SGV(C4)]\NImag=0\\0.6
 9142262,-0.02135801,0.06084459,-0.13012651,-0.01642726,0.19673207,-0.0
 0782731,0.01987615,-0.09905279,0.77319906,-0.02091283,0.01397482,0.024
 30787,-0.07030298,0.06526817,0.12397367,0.00845035,-0.07746863,0.10398
 391,-0.04576684,0.26171794,0.03166552,-0.01078041,0.03922639,-0.382269
 58,0.04595987,-0.12155775,0.57138528,-0.00532912,-0.02160310,0.0160008
 8,0.05477727,-0.05385029,0.00771459,-0.07969478,0.07334405,0.00941980,
 0.01812018,-0.12179548,-0.16976963,0.01114253,-0.04346861,0.23551490,-
 0.06209236,0.30426994,-0.43960494,0.01809554,0.05308944,-0.08206152,0.
 04147849,-0.19684215,-0.00746454,-0.02073652,0.12286865,0.79257233,0.0
 2691294,-0.04787997,-0.01409716,-0.03171093,-0.00828842,0.03024191,0.0
 2005245,0.01393705,0.00858836,-0.06088780,0.06325083,0.00487756,-0.010
 66923,0.00789644,0.20334386,0.00178807,-0.09384300,-0.10015781,0.02444
 588,-0.07779362,0.04497169,-0.03839678,0.24436201,-0.23720052,-0.00623
 029,0.11996633,-0.01752954,0.00921200,-0.04037454,-0.15396618,0.039667
 68,-0.16335416,-0.04510999,-0.00211065,0.03225803,0.45308803,-0.000783
 27,-0.01433706,-0.01013613,0.01129313,0.00608181,0.00708027,0.03422065
 ,-0.02300423,0.02364587,-0.00419177,0.00895375,-0.00260292,-0.03889976
 ,0.02483325,0.09018302,-0.00801849,-0.00746336,-0.05175375,0.00788935,
 -0.01483751,-0.13357084,0.02152823,-0.08203053,0.04363723,-0.00341200,
 0.00987098,0.04325992,-0.02628442,0.14416043,-0.03845526,0.00039702,0.
 01689709,-0.28351111,-0.00543457,0.13081695,-0.05935043,0.01131547,-0.
 03467949,-0.21833132,0.04774400,-0.18529341,0.00071804,-0.00163896,0.0
 0824440,0.59893005,0.02147028,0.00900072,0.00035180,0.01606736,-0.0231
 8608,-0.00772029,-0.00975779,0.01117653,0.00059542,0.02624206,-0.02997
 324,0.02543498,-0.00163896,-0.00252753,0.00829733,-0.05238295,0.035509
 60,-0.09832751,0.00854445,0.00209895,0.01324840,0.00063901,-0.03210019
 ,0.08054511,-0.00759722,0.02081830,-0.06772486,0.01707567,-0.09049282,
 0.00824441,0.00829733,-0.04970001,0.06401445,-0.02695925,0.14937576\\-
 0.00016061,-0.00000396,0.00008410,-0.00027552,0.00000365,0.00008714,-0
 .00012701,0.00003197,-0.00012542,-0.00023580,0.00004614,-0.00016060,0.
 00052003,-0.00005064,0.00007471,0.00027890,-0.00002716,0.00004007\\\@


 THE THINKER DIES, BUT HIS THOUGHTS ARE BEYOND THE 
 REACH OF DESTRUCTION.  MEN ARE MORTAL; BUT IDEAS 
 ARE IMMORTAL.
                              -- WALTER LIPPMANN
 Job cpu time:       0 days  0 hours 53 minutes 23.8 seconds.
 File lengths (MBytes):  RWF=     54 Int=      0 D2E=      0 Chk=      5 Scr=      1
 Normal termination of Gaussian 09 at Tue Aug 16 18:29:43 2016.
