 Entering Gaussian System, Link 0=/home/proyectos/fulerenos/M3C-v2.0/M3C-deps_CCC/g09-AM64L-G09RevC.01/g09
 Initial command:
 /home/proyectos/fulerenos/M3C-v2.0/M3C-deps_CCC/g09-AM64L-G09RevC.01/l1.exe "/scratch/naguirre/gaussian/Gau-12944.inp" -scrdir="/scratch/naguirre/gaussian/"
 Entering Link 1 = /home/proyectos/fulerenos/M3C-v2.0/M3C-deps_CCC/g09-AM64L-G09RevC.01/l1.exe PID=     12960.
  
 Copyright (c) 1988,1990,1992,1993,1995,1998,2003,2009,2015,
            Gaussian, Inc.  All Rights Reserved.
  
 This is part of the Gaussian(R) 09 program.  It is based on
 the Gaussian(R) 03 system (copyright 2003, Gaussian, Inc.),
 the Gaussian(R) 98 system (copyright 1998, Gaussian, Inc.),
 the Gaussian(R) 94 system (copyright 1995, Gaussian, Inc.),
 the Gaussian 92(TM) system (copyright 1992, Gaussian, Inc.),
 the Gaussian 90(TM) system (copyright 1990, Gaussian, Inc.),
 the Gaussian 88(TM) system (copyright 1988, Gaussian, Inc.),
 the Gaussian 86(TM) system (copyright 1986, Carnegie Mellon
 University), and the Gaussian 82(TM) system (copyright 1983,
 Carnegie Mellon University). Gaussian is a federally registered
 trademark of Gaussian, Inc.
  
 This software contains proprietary and confidential information,
 including trade secrets, belonging to Gaussian, Inc.
  
 This software is provided under written license and may be
 used, copied, transmitted, or stored only in accord with that
 written license.
  
 The following legend is applicable only to US Government
 contracts under FAR:
  
                    RESTRICTED RIGHTS LEGEND
  
 Use, reproduction and disclosure by the US Government is
 subject to restrictions as set forth in subparagraphs (a)
 and (c) of the Commercial Computer Software - Restricted
 Rights clause in FAR 52.227-19.
  
 Gaussian, Inc.
 340 Quinnipiac St., Bldg. 40, Wallingford CT 06492
  
  
 ---------------------------------------------------------------
 Warning -- This program may not be used in any manner that
 competes with the business of Gaussian, Inc. or will provide
 assistance to any competitor of Gaussian, Inc.  The licensee
 of this program is prohibited from giving any competitor of
 Gaussian, Inc. access to this program.  By using this program,
 the user acknowledges that Gaussian, Inc. is engaged in the
 business of creating and licensing software in the field of
 computational chemistry and represents and warrants to the
 licensee that it is not a competitor of Gaussian, Inc. and that
 it will not use this program in any manner prohibited above.
 ---------------------------------------------------------------
  

 Cite this work as:
 Gaussian 09, Revision E.01,
 M. J. Frisch, G. W. Trucks, H. B. Schlegel, G. E. Scuseria, 
 M. A. Robb, J. R. Cheeseman, G. Scalmani, V. Barone, B. Mennucci, 
 G. A. Petersson, H. Nakatsuji, M. Caricato, X. Li, H. P. Hratchian, 
 A. F. Izmaylov, J. Bloino, G. Zheng, J. L. Sonnenberg, M. Hada, 
 M. Ehara, K. Toyota, R. Fukuda, J. Hasegawa, M. Ishida, T. Nakajima, 
 Y. Honda, O. Kitao, H. Nakai, T. Vreven, J. A. Montgomery, Jr., 
 J. E. Peralta, F. Ogliaro, M. Bearpark, J. J. Heyd, E. Brothers, 
 K. N. Kudin, V. N. Staroverov, T. Keith, R. Kobayashi, J. Normand, 
 K. Raghavachari, A. Rendell, J. C. Burant, S. S. Iyengar, J. Tomasi, 
 M. Cossi, N. Rega, J. M. Millam, M. Klene, J. E. Knox, J. B. Cross, 
 V. Bakken, C. Adamo, J. Jaramillo, R. Gomperts, R. E. Stratmann, 
 O. Yazyev, A. J. Austin, R. Cammi, C. Pomelli, J. W. Ochterski, 
 R. L. Martin, K. Morokuma, V. G. Zakrzewski, G. A. Voth, 
 P. Salvador, J. J. Dannenberg, S. Dapprich, A. D. Daniels, 
 O. Farkas, J. B. Foresman, J. V. Ortiz, J. Cioslowski, 
 and D. J. Fox, Gaussian, Inc., Wallingford CT, 2013.
 
 ******************************************
 Gaussian 09:  EM64L-G09RevE.01 30-Nov-2015
                16-Aug-2016 
 ******************************************
 %NProcShared=1
 Will use up to    1 processors via shared memory.
 ---------------------------------------------
 #p b3lyp/6-311++G(3df,2p) freq symmetry=Loose
 ---------------------------------------------
 1/10=4,30=1,38=1/1,3;
 2/12=2,17=4,18=3,40=1/2;
 3/5=4,6=6,7=1216,11=2,16=1,25=1,30=1,71=2,74=-5,140=1/1,2,3;
 4//1;
 5/5=2,38=5,98=1/2;
 8/6=4,10=90,11=11/1;
 11/6=1,8=1,9=11,15=111,16=1/1,2,10;
 10/6=1/2;
 6/7=2,8=2,9=2,10=2,18=1,28=1/1;
 7/8=1,10=1,25=1/1,2,3,16;
 1/10=4,30=1/3;
 99//99;
 Leave Link    1 at Tue Aug 16 17:35:56 2016, MaxMem=           0 cpu:         0.0
 (Enter /home/proyectos/fulerenos/M3C-v2.0/M3C-deps_CCC/g09-AM64L-G09RevC.01/l101.exe)
 ---------
 b3lyp opt
 ---------
 Symbolic Z-matrix:
 Charge =  0 Multiplicity = 4
 N                     0.24211   0.53436  -0.07785 
 C                    -0.64606  -0.3977   -0.0094 
 C                    -1.14755  -2.90633   0.34959 
 C                    -0.78053  -1.66127   0.18235 
 C                     1.42277   2.77647  -0.33093 
 C                     0.76961   1.61289  -0.20333 
 
 NAtoms=      6 NQM=        6 NQMF=       0 NMMI=      0 NMMIF=      0
                NMic=       0 NMicF=      0.
                    Isotopes and Nuclear Properties:
 (Nuclear quadrupole moments (NQMom) in fm**2, nuclear magnetic moments (NMagM)
  in nuclear magnetons)

  Atom         1           2           3           4           5           6
 IAtWgt=          14          12          12          12          12          12
 AtmWgt=  14.0030740  12.0000000  12.0000000  12.0000000  12.0000000  12.0000000
 NucSpn=           2           0           0           0           0           0
 AtZEff=   0.0000000   0.0000000   0.0000000   0.0000000   0.0000000   0.0000000
 NQMom=    2.0440000   0.0000000   0.0000000   0.0000000   0.0000000   0.0000000
 NMagM=    0.4037610   0.0000000   0.0000000   0.0000000   0.0000000   0.0000000
 AtZNuc=   7.0000000   6.0000000   6.0000000   6.0000000   6.0000000   6.0000000
 Leave Link  101 at Tue Aug 16 17:35:56 2016, MaxMem=    33554432 cpu:         0.2
 (Enter /home/proyectos/fulerenos/M3C-v2.0/M3C-deps_CCC/g09-AM64L-G09RevC.01/l103.exe)

 GradGradGradGradGradGradGradGradGradGradGradGradGradGradGradGradGradGrad
 Berny optimization.
 Initialization pass.
 Trust Radius=3.00D-01 FncErr=1.00D-07 GrdErr=1.00D-07
 Number of steps in this run=      2 maximum allowed number of steps=      2.
 GradGradGradGradGradGradGradGradGradGradGradGradGradGradGradGradGradGrad

 Leave Link  103 at Tue Aug 16 17:35:57 2016, MaxMem=    33554432 cpu:         0.1
 (Enter /home/proyectos/fulerenos/M3C-v2.0/M3C-deps_CCC/g09-AM64L-G09RevC.01/l202.exe)
                          Input orientation:                          
 ---------------------------------------------------------------------
 Center     Atomic      Atomic             Coordinates (Angstroms)
 Number     Number       Type             X           Y           Z
 ---------------------------------------------------------------------
      1          7           0        0.242108    0.534358   -0.077845
      2          6           0       -0.646064   -0.397698   -0.009401
      3          6           0       -1.147548   -2.906334    0.349593
      4          6           0       -0.780530   -1.661266    0.182348
      5          6           0        1.422770    2.776467   -0.330930
      6          6           0        0.769607    1.612890   -0.203329
 ---------------------------------------------------------------------
                    Distance matrix (angstroms):
                    1          2          3          4          5
     1  N    0.000000
     2  C    1.289288   0.000000
     3  C    3.735266   2.583335   0.000000
     4  C    2.436032   1.285088   1.308766   0.000000
     5  C    2.546579   3.802470   6.274064   4.981110   0.000000
     6  C    1.207159   2.466616   4.940101   3.643044   1.340453
                    6
     6  C    0.000000
 Stoichiometry    C5N(4)
 Framework group  CS[SG(C5N)]
 Deg. of freedom     9
 Full point group                 CS      NOp   2
 Largest Abelian subgroup         CS      NOp   2
 Largest concise Abelian subgroup C1      NOp   1
                         Standard orientation:                         
 ---------------------------------------------------------------------
 Center     Atomic      Atomic             Coordinates (Angstroms)
 Number     Number       Type             X           Y           Z
 ---------------------------------------------------------------------
      1          7           0        0.000000    0.589738    0.000000
      2          6           0        0.391699   -0.638608   -0.000000
      3          6           0       -0.270023   -3.135755   -0.000000
      4          6           0       -0.048905   -1.845803   -0.000000
      5          6           0       -0.073939    3.135243    0.000000
      6          6           0        0.001169    1.796896    0.000000
 ---------------------------------------------------------------------
 Rotational constants (GHZ):    185.9967080      1.5529113      1.5400532
 Leave Link  202 at Tue Aug 16 17:35:57 2016, MaxMem=    33554432 cpu:         0.0
 (Enter /home/proyectos/fulerenos/M3C-v2.0/M3C-deps_CCC/g09-AM64L-G09RevC.01/l301.exe)
 Standard basis: 6-311++G(3df,2p) (5D, 7F)
 Ernie: Thresh=  0.10000D-02 Tol=  0.10000D-05 Strict=F.
 There are   186 symmetry adapted cartesian basis functions of A'  symmetry.
 There are    84 symmetry adapted cartesian basis functions of A"  symmetry.
 There are   156 symmetry adapted basis functions of A'  symmetry.
 There are    78 symmetry adapted basis functions of A"  symmetry.
   234 basis functions,   348 primitive gaussians,   270 cartesian basis functions
    20 alpha electrons       17 beta electrons
       nuclear repulsion energy       139.0973625316 Hartrees.
 IExCor=  402 DFT=T Ex+Corr=B3LYP ExCW=0 ScaHFX=  0.200000
 ScaDFX=  0.800000  0.720000  1.000000  0.810000 ScalE2=  1.000000  1.000000
 IRadAn=      0 IRanWt=     -1 IRanGd=            0 ICorTp=0 IEmpDi=  4
 NAtoms=    6 NActive=    6 NUniq=    6 SFac= 1.00D+00 NAtFMM=   60 NAOKFM=F Big=F
 Integral buffers will be    131072 words long.
 Raffenetti 2 integral format.
 Two-electron integral symmetry is turned on.
 Leave Link  301 at Tue Aug 16 17:35:58 2016, MaxMem=    33554432 cpu:         0.3
 (Enter /home/proyectos/fulerenos/M3C-v2.0/M3C-deps_CCC/g09-AM64L-G09RevC.01/l302.exe)
 NPDir=0 NMtPBC=     1 NCelOv=     1 NCel=       1 NClECP=     1 NCelD=      1
         NCelK=      1 NCelE2=     1 NClLst=     1 CellRange=     0.0.
 One-electron integrals computed using PRISM.
 NBasis=   234 RedAO= T EigKep=  3.17D-06  NBF=   156    78
 NBsUse=   234 1.00D-06 EigRej= -1.00D+00 NBFU=   156    78
 Precomputing XC quadrature grid using
 IXCGrd= 4 IRadAn=           0 IRanWt=          -1 IRanGd=           0 AccXCQ= 0.00D+00.
 Generated NRdTot=       0 NPtTot=           0 NUsed=           0 NTot=          32
 NSgBfM=   270   270   270   270   270 MxSgAt=     6 MxSgA2=     6.
 Leave Link  302 at Tue Aug 16 17:35:59 2016, MaxMem=    33554432 cpu:         0.6
 (Enter /home/proyectos/fulerenos/M3C-v2.0/M3C-deps_CCC/g09-AM64L-G09RevC.01/l303.exe)
 DipDrv:  MaxL=1.
 Leave Link  303 at Tue Aug 16 17:35:59 2016, MaxMem=    33554432 cpu:         0.1
 (Enter /home/proyectos/fulerenos/M3C-v2.0/M3C-deps_CCC/g09-AM64L-G09RevC.01/l401.exe)
 ExpMin= 4.38D-02 ExpMax= 6.29D+03 ExpMxC= 9.49D+02 IAcc=2 IRadAn=         4 AccDes= 0.00D+00
 Harris functional with IExCor=  402 and IRadAn=       4 diagonalized for initial guess.
 HarFok:  IExCor=  402 AccDes= 0.00D+00 IRadAn=         4 IDoV= 1 UseB2=F ITyADJ=14
 ICtDFT=  3500011 ScaDFX=  1.000000  1.000000  1.000000  1.000000
 FoFCou: FMM=F IPFlag=           0 FMFlag=      100000 FMFlg1=           0
         NFxFlg=           0 DoJE=T BraDBF=F KetDBF=T FulRan=T
         wScrn=  0.000000 ICntrl=     500 IOpCl=  0 I1Cent=   200000004 NGrid=           0
         NMat0=    1 NMatS0=      1 NMatT0=    0 NMatD0=    1 NMtDS0=    0 NMtDT0=    0
 Petite list used in FoFCou.
 Harris En= -244.903895885054    
 JPrj=0 DoOrth=F DoCkMO=F.
 Initial guess orbital symmetries:
 Alpha Orbitals:
       Occupied  (A') (A') (A') (A') (A') (A') (A') (A') (A') (A')
                 (A') (A") (A') (A") (A') (A') (A') (A') (A") (A')
       Virtual   (A") (A') (A") (A') (A') (A') (A") (A') (A") (A')
                 (A') (A') (A") (A') (A') (A") (A') (A') (A") (A')
                 (A") (A') (A') (A') (A') (A') (A") (A') (A') (A')
                 (A") (A') (A") (A') (A') (A") (A') (A') (A') (A')
                 (A') (A') (A") (A') (A") (A') (A") (A") (A') (A")
                 (A') (A') (A") (A') (A') (A") (A') (A') (A") (A')
                 (A') (A") (A') (A') (A") (A') (A') (A') (A") (A')
                 (A") (A') (A") (A') (A') (A') (A") (A') (A') (A')
                 (A") (A') (A') (A') (A') (A") (A') (A") (A') (A")
                 (A') (A") (A') (A') (A') (A") (A') (A') (A") (A")
                 (A') (A') (A") (A') (A') (A') (A") (A') (A') (A")
                 (A') (A') (A") (A") (A") (A') (A") (A') (A') (A")
                 (A") (A') (A') (A") (A') (A') (A") (A') (A") (A')
                 (A') (A') (A") (A") (A') (A") (A') (A") (A') (A')
                 (A") (A') (A") (A') (A') (A") (A') (A") (A') (A')
                 (A') (A") (A') (A') (A') (A") (A') (A') (A") (A')
                 (A") (A') (A') (A') (A") (A') (A") (A') (A') (A')
                 (A") (A') (A') (A") (A') (A') (A") (A') (A") (A")
                 (A') (A') (A") (A') (A") (A') (A") (A') (A') (A")
                 (A') (A") (A') (A") (A') (A') (A") (A') (A") (A')
                 (A') (A') (A') (A") (A') (A") (A') (A') (A') (A')
                 (A') (A') (A') (A')
 Beta  Orbitals:
       Occupied  (A') (A') (A') (A') (A') (A') (A') (A') (A') (A')
                 (A') (A") (A') (A") (A') (A') (A')
       Virtual   (A') (A") (A') (A") (A') (A") (A') (A') (A') (A")
                 (A') (A") (A') (A') (A') (A") (A') (A') (A") (A')
                 (A') (A") (A') (A") (A') (A') (A') (A') (A') (A")
                 (A') (A') (A') (A") (A') (A") (A') (A') (A") (A')
                 (A') (A') (A') (A') (A') (A") (A') (A") (A') (A")
                 (A") (A') (A") (A') (A') (A") (A') (A') (A") (A')
                 (A') (A") (A') (A') (A") (A') (A') (A") (A') (A')
                 (A') (A") (A') (A") (A') (A") (A') (A') (A') (A")
                 (A') (A') (A') (A") (A') (A') (A') (A') (A") (A')
                 (A") (A') (A") (A') (A") (A') (A') (A') (A") (A')
                 (A') (A") (A") (A') (A') (A") (A') (A') (A') (A")
                 (A') (A') (A") (A') (A') (A") (A") (A") (A') (A")
                 (A') (A') (A") (A") (A') (A') (A") (A') (A') (A")
                 (A') (A") (A') (A') (A') (A") (A") (A') (A") (A')
                 (A") (A') (A') (A") (A') (A") (A') (A') (A") (A')
                 (A") (A') (A') (A') (A") (A') (A') (A') (A") (A')
                 (A') (A") (A') (A") (A') (A') (A') (A") (A') (A")
                 (A') (A') (A') (A") (A') (A') (A") (A') (A') (A")
                 (A') (A") (A") (A') (A') (A") (A') (A") (A') (A")
                 (A') (A') (A") (A') (A") (A') (A") (A') (A') (A")
                 (A') (A") (A') (A') (A') (A') (A") (A') (A") (A')
                 (A') (A') (A') (A') (A') (A') (A')
 The electronic state of the initial guess is 4-A".
 Initial guess <Sx>= 0.0000 <Sy>= 0.0000 <Sz>= 1.5000 <S**2>= 3.7500 S= 1.5000
 Leave Link  401 at Tue Aug 16 17:36:04 2016, MaxMem=    33554432 cpu:         2.0
 (Enter /home/proyectos/fulerenos/M3C-v2.0/M3C-deps_CCC/g09-AM64L-G09RevC.01/l502.exe)
 UHF open shell SCF:
 Using DIIS extrapolation, IDIIS=  1040.
 Integral symmetry usage will be decided dynamically.
 IVT=      240848 IEndB=      240848 NGot=    33554432 MDV=    33403395
 LenX=    33403395 LenY=    33330054
 Requested convergence on RMS density matrix=1.00D-08 within 128 cycles.
 Requested convergence on MAX density matrix=1.00D-06.
 Requested convergence on             energy=1.00D-06.
 No special actions if energy rises.
 Fock matrices will be formed incrementally for  20 cycles.

 Cycle   1  Pass 1  IDiag  1:
 FoFJK:  IHMeth= 1 ICntrl=       0 DoSepK=F KAlg= 0 I1Cent=   0 FoldK=F
 IRaf= 930000000 NMat=   1 IRICut=       1 DoRegI=T DoRafI=F ISym2E= 1.
 FoFCou: FMM=F IPFlag=           0 FMFlag=      100000 FMFlg1=           0
         NFxFlg=           0 DoJE=F BraDBF=F KetDBF=F FulRan=T
         wScrn=  0.000000 ICntrl=       0 IOpCl=  1 I1Cent=           0 NGrid=           0
         NMat0=    1 NMatS0=      1 NMatT0=    0 NMatD0=    1 NMtDS0=    0 NMtDT0=    0
 Petite list used in FoFCou.
 E= -244.833447815594    
 DIIS: error= 2.37D-02 at cycle   1 NSaved=   1.
 NSaved= 1 IEnMin= 1 EnMin= -244.833447815594     IErMin= 1 ErrMin= 2.37D-02
 ErrMax= 2.37D-02  0.00D+00 EMaxC= 1.00D-01 BMatC= 3.91D-01 BMatP= 3.91D-01
 IDIUse=3 WtCom= 7.63D-01 WtEn= 2.37D-01
 Coeff-Com:  0.100D+01
 Coeff-En:   0.100D+01
 Coeff:      0.100D+01
 Gap=     0.098 Goal=   None    Shift=    0.000
 Gap=     0.027 Goal=   None    Shift=    0.000
 GapD=    0.027 DampG=0.250 DampE=0.500 DampFc=0.2500 IDamp=-1.
 Damping current iteration by 2.50D-01
 RMSDP=1.21D-02 MaxDP=1.24D+00              OVMax= 8.98D-01

 Cycle   2  Pass 1  IDiag  1:
 RMSU=  2.71D-03    CP:  9.43D-01
 E= -244.828196838773     Delta-E=        0.005250976820 Rises=F Damp=T
 DIIS: error= 1.29D-02 at cycle   2 NSaved=   2.
 NSaved= 2 IEnMin= 1 EnMin= -244.833447815594     IErMin= 2 ErrMin= 1.29D-02
 ErrMax= 1.29D-02  0.00D+00 EMaxC= 1.00D-01 BMatC= 1.39D-01 BMatP= 3.91D-01
 IDIUse=3 WtCom= 8.71D-01 WtEn= 1.29D-01
 Coeff-Com:  0.437D-01 0.956D+00
 Coeff-En:   0.531D+00 0.469D+00
 Coeff:      0.106D+00 0.894D+00
 Gap=     0.107 Goal=   None    Shift=    0.000
 Gap=     0.013 Goal=   None    Shift=    0.000
 RMSDP=5.39D-03 MaxDP=2.82D-01 DE= 5.25D-03 OVMax= 8.75D-01

 Cycle   3  Pass 1  IDiag  1:
 RMSU=  5.33D-03    CP:  9.34D-01  1.29D+00
 E= -244.810847987640     Delta-E=        0.017348851133 Rises=F Damp=F
 DIIS: error= 4.91D-02 at cycle   3 NSaved=   3.
 NSaved= 3 IEnMin= 1 EnMin= -244.833447815594     IErMin= 2 ErrMin= 1.29D-02
 ErrMax= 4.91D-02  0.00D+00 EMaxC= 1.00D-01 BMatC= 3.28D-01 BMatP= 1.39D-01
 IDIUse=2 WtCom= 0.00D+00 WtEn= 1.00D+00
 Coeff-En:   0.000D+00 0.546D+00 0.454D+00
 Coeff:      0.000D+00 0.546D+00 0.454D+00
 Gap=     0.100 Goal=   None    Shift=    0.000
 Gap=     0.124 Goal=   None    Shift=    0.000
 RMSDP=5.50D-03 MaxDP=3.33D-01 DE= 1.73D-02 OVMax= 3.70D-01

 Cycle   4  Pass 1  IDiag  1:
 RMSU=  4.69D-03    CP:  8.79D-01  1.67D+00  5.59D-01
 E= -244.872851353134     Delta-E=       -0.062003365493 Rises=F Damp=F
 DIIS: error= 3.56D-02 at cycle   4 NSaved=   4.
 NSaved= 4 IEnMin= 4 EnMin= -244.872851353134     IErMin= 2 ErrMin= 1.29D-02
 ErrMax= 3.56D-02  0.00D+00 EMaxC= 1.00D-01 BMatC= 1.66D-01 BMatP= 1.39D-01
 IDIUse=2 WtCom= 0.00D+00 WtEn= 1.00D+00
 Coeff-En:   0.000D+00 0.000D+00 0.382D+00 0.618D+00
 Coeff:      0.000D+00 0.000D+00 0.382D+00 0.618D+00
 Gap=     0.088 Goal=   None    Shift=    0.000
 Gap=     0.100 Goal=   None    Shift=    0.000
 RMSDP=3.20D-03 MaxDP=1.84D-01 DE=-6.20D-02 OVMax= 2.18D-01

 Cycle   5  Pass 1  IDiag  1:
 RMSU=  1.98D-03    CP:  9.20D-01  1.32D+00  6.92D-01  5.78D-01
 E= -244.919733332448     Delta-E=       -0.046881979315 Rises=F Damp=F
 DIIS: error= 1.58D-02 at cycle   5 NSaved=   5.
 NSaved= 5 IEnMin= 5 EnMin= -244.919733332448     IErMin= 2 ErrMin= 1.29D-02
 ErrMax= 1.58D-02  0.00D+00 EMaxC= 1.00D-01 BMatC= 6.14D-02 BMatP= 1.39D-01
 IDIUse=3 WtCom= 8.42D-01 WtEn= 1.58D-01
 Coeff-Com: -0.106D+00 0.185D+00 0.211D+00 0.294D+00 0.416D+00
 Coeff-En:   0.000D+00 0.000D+00 0.000D+00 0.267D+00 0.733D+00
 Coeff:     -0.894D-01 0.156D+00 0.178D+00 0.290D+00 0.466D+00
 Gap=     0.081 Goal=   None    Shift=    0.000
 Gap=     0.094 Goal=   None    Shift=    0.000
 RMSDP=1.43D-03 MaxDP=6.37D-02 DE=-4.69D-02 OVMax= 8.79D-02

 Cycle   6  Pass 1  IDiag  1:
 RMSU=  7.13D-04    CP:  9.01D-01  1.43D+00  6.35D-01  5.66D-01  4.63D-01
 E= -244.935889546696     Delta-E=       -0.016156214248 Rises=F Damp=F
 DIIS: error= 4.80D-03 at cycle   6 NSaved=   6.
 NSaved= 6 IEnMin= 6 EnMin= -244.935889546696     IErMin= 6 ErrMin= 4.80D-03
 ErrMax= 4.80D-03  0.00D+00 EMaxC= 1.00D-01 BMatC= 7.12D-03 BMatP= 6.14D-02
 IDIUse=3 WtCom= 9.52D-01 WtEn= 4.80D-02
 Coeff-Com: -0.139D+00 0.162D+00 0.146D-01 0.226D-01 0.331D+00 0.609D+00
 Coeff-En:   0.000D+00 0.000D+00 0.000D+00 0.000D+00 0.000D+00 0.100D+01
 Coeff:     -0.132D+00 0.154D+00 0.139D-01 0.215D-01 0.315D+00 0.628D+00
 Gap=     0.083 Goal=   None    Shift=    0.000
 Gap=     0.095 Goal=   None    Shift=    0.000
 RMSDP=4.71D-04 MaxDP=2.27D-02 DE=-1.62D-02 OVMax= 2.81D-02

 Cycle   7  Pass 1  IDiag  1:
 RMSU=  2.44D-04    CP:  9.06D-01  1.47D+00  6.71D-01  5.68D-01  5.87D-01
                    CP:  7.16D-01
 E= -244.937181365505     Delta-E=       -0.001291818809 Rises=F Damp=F
 DIIS: error= 4.10D-03 at cycle   7 NSaved=   7.
 NSaved= 7 IEnMin= 7 EnMin= -244.937181365505     IErMin= 7 ErrMin= 4.10D-03
 ErrMax= 4.10D-03  0.00D+00 EMaxC= 1.00D-01 BMatC= 1.54D-03 BMatP= 7.12D-03
 IDIUse=3 WtCom= 9.59D-01 WtEn= 4.10D-02
 Coeff-Com: -0.862D-01 0.955D-01-0.152D-01 0.514D-02 0.182D+00 0.420D+00
 Coeff-Com:  0.398D+00
 Coeff-En:   0.000D+00 0.000D+00 0.000D+00 0.000D+00 0.000D+00 0.101D+00
 Coeff-En:   0.899D+00
 Coeff:     -0.827D-01 0.916D-01-0.146D-01 0.493D-02 0.175D+00 0.407D+00
 Coeff:      0.419D+00
 Gap=     0.083 Goal=   None    Shift=    0.000
 Gap=     0.094 Goal=   None    Shift=    0.000
 RMSDP=2.08D-04 MaxDP=1.46D-02 DE=-1.29D-03 OVMax= 1.37D-02

 Cycle   8  Pass 1  IDiag  1:
 RMSU=  1.19D-04    CP:  9.04D-01  1.50D+00  6.60D-01  5.88D-01  6.15D-01
                    CP:  8.18D-01  8.09D-01
 E= -244.937782927397     Delta-E=       -0.000601561892 Rises=F Damp=F
 DIIS: error= 1.31D-03 at cycle   8 NSaved=   8.
 NSaved= 8 IEnMin= 8 EnMin= -244.937782927397     IErMin= 8 ErrMin= 1.31D-03
 ErrMax= 1.31D-03  0.00D+00 EMaxC= 1.00D-01 BMatC= 2.83D-04 BMatP= 1.54D-03
 IDIUse=3 WtCom= 9.87D-01 WtEn= 1.31D-02
 Coeff-Com: -0.258D-01 0.313D-01-0.172D-01-0.681D-02 0.165D-01 0.363D-01
 Coeff-Com:  0.186D+00 0.779D+00
 Coeff-En:   0.000D+00 0.000D+00 0.000D+00 0.000D+00 0.000D+00 0.000D+00
 Coeff-En:   0.000D+00 0.100D+01
 Coeff:     -0.255D-01 0.309D-01-0.170D-01-0.672D-02 0.163D-01 0.358D-01
 Coeff:      0.184D+00 0.782D+00
 Gap=     0.084 Goal=   None    Shift=    0.000
 Gap=     0.095 Goal=   None    Shift=    0.000
 RMSDP=1.90D-04 MaxDP=1.75D-02 DE=-6.02D-04 OVMax= 7.98D-03

 Cycle   9  Pass 1  IDiag  1:
 RMSU=  8.54D-05    CP:  9.05D-01  1.53D+00  6.63D-01  6.02D-01  6.65D-01
                    CP:  8.11D-01  1.00D+00  1.47D+00
 E= -244.937918109920     Delta-E=       -0.000135182523 Rises=F Damp=F
 DIIS: error= 4.23D-04 at cycle   9 NSaved=   9.
 NSaved= 9 IEnMin= 9 EnMin= -244.937918109920     IErMin= 9 ErrMin= 4.23D-04
 ErrMax= 4.23D-04  0.00D+00 EMaxC= 1.00D-01 BMatC= 2.92D-05 BMatP= 2.83D-04
 IDIUse=3 WtCom= 9.96D-01 WtEn= 4.23D-03
 Coeff-Com:  0.168D-02 0.196D-02 0.616D-02-0.973D-02-0.201D-01-0.917D-01
 Coeff-Com: -0.183D+00 0.882D-01 0.121D+01
 Coeff-En:   0.000D+00 0.000D+00 0.000D+00 0.000D+00 0.000D+00 0.000D+00
 Coeff-En:   0.000D+00 0.000D+00 0.100D+01
 Coeff:      0.167D-02 0.195D-02 0.613D-02-0.969D-02-0.201D-01-0.913D-01
 Coeff:     -0.182D+00 0.878D-01 0.121D+01
 Gap=     0.084 Goal=   None    Shift=    0.000
 Gap=     0.097 Goal=   None    Shift=    0.000
 RMSDP=9.30D-05 MaxDP=7.49D-03 DE=-1.35D-04 OVMax= 5.28D-03

 Cycle  10  Pass 1  IDiag  1:
 RMSU=  3.06D-05    CP:  9.06D-01  1.55D+00  6.65D-01  5.99D-01  6.86D-01
                    CP:  8.31D-01  1.12D+00  1.86D+00  1.26D+00
 E= -244.937941937060     Delta-E=       -0.000023827140 Rises=F Damp=F
 DIIS: error= 8.34D-05 at cycle  10 NSaved=  10.
 NSaved=10 IEnMin=10 EnMin= -244.937941937060     IErMin=10 ErrMin= 8.34D-05
 ErrMax= 8.34D-05  0.00D+00 EMaxC= 1.00D-01 BMatC= 2.44D-06 BMatP= 2.92D-05
 IDIUse=1 WtCom= 1.00D+00 WtEn= 0.00D+00
 Coeff-Com:  0.359D-02-0.538D-02 0.201D-02 0.839D-03-0.868D-04-0.665D-02
 Coeff-Com: -0.213D-01-0.101D+00 0.576D-01 0.107D+01
 Coeff:      0.359D-02-0.538D-02 0.201D-02 0.839D-03-0.868D-04-0.665D-02
 Coeff:     -0.213D-01-0.101D+00 0.576D-01 0.107D+01
 Gap=     0.084 Goal=   None    Shift=    0.000
 Gap=     0.097 Goal=   None    Shift=    0.000
 RMSDP=3.03D-05 MaxDP=2.76D-03 DE=-2.38D-05 OVMax= 2.11D-03

 Cycle  11  Pass 1  IDiag  1:
 RMSU=  1.11D-05    CP:  9.06D-01  1.55D+00  6.66D-01  5.99D-01  6.93D-01
                    CP:  8.28D-01  1.15D+00  1.97D+00  1.38D+00  1.31D+00
 E= -244.937943827745     Delta-E=       -0.000001890685 Rises=F Damp=F
 DIIS: error= 1.16D-04 at cycle  11 NSaved=  11.
 NSaved=11 IEnMin=11 EnMin= -244.937943827745     IErMin=10 ErrMin= 8.34D-05
 ErrMax= 1.16D-04  0.00D+00 EMaxC= 1.00D-01 BMatC= 1.68D-06 BMatP= 2.44D-06
 IDIUse=1 WtCom= 1.00D+00 WtEn= 0.00D+00
 Coeff-Com: -0.210D-03 0.101D-03-0.168D-03 0.480D-03 0.339D-02 0.141D-01
 Coeff-Com:  0.455D-01-0.245D-01-0.228D+00 0.247D+00 0.942D+00
 Coeff:     -0.210D-03 0.101D-03-0.168D-03 0.480D-03 0.339D-02 0.141D-01
 Coeff:      0.455D-01-0.245D-01-0.228D+00 0.247D+00 0.942D+00
 Gap=     0.084 Goal=   None    Shift=    0.000
 Gap=     0.097 Goal=   None    Shift=    0.000
 RMSDP=1.80D-05 MaxDP=1.29D-03 DE=-1.89D-06 OVMax= 8.75D-04

 Cycle  12  Pass 1  IDiag  1:
 RMSU=  6.34D-06    CP:  9.06D-01  1.55D+00  6.67D-01  5.97D-01  6.90D-01
                    CP:  8.25D-01  1.15D+00  1.91D+00  1.35D+00  1.53D+00
                    CP:  1.05D+00
 E= -244.937944760536     Delta-E=       -0.000000932791 Rises=F Damp=F
 DIIS: error= 2.74D-05 at cycle  12 NSaved=  12.
 NSaved=12 IEnMin=12 EnMin= -244.937944760536     IErMin=12 ErrMin= 2.74D-05
 ErrMax= 2.74D-05  0.00D+00 EMaxC= 1.00D-01 BMatC= 3.04D-07 BMatP= 1.68D-06
 IDIUse=1 WtCom= 1.00D+00 WtEn= 0.00D+00
 Coeff-Com: -0.659D-03 0.851D-03-0.505D-03 0.307D-03 0.219D-02 0.966D-02
 Coeff-Com:  0.308D-01 0.339D-02-0.141D+00-0.572D-01 0.593D+00 0.559D+00
 Coeff:     -0.659D-03 0.851D-03-0.505D-03 0.307D-03 0.219D-02 0.966D-02
 Coeff:      0.308D-01 0.339D-02-0.141D+00-0.572D-01 0.593D+00 0.559D+00
 Gap=     0.084 Goal=   None    Shift=    0.000
 Gap=     0.097 Goal=   None    Shift=    0.000
 RMSDP=5.25D-06 MaxDP=3.03D-04 DE=-9.33D-07 OVMax= 2.99D-04

 Cycle  13  Pass 1  IDiag  1:
 RMSU=  2.55D-06    CP:  9.06D-01  1.55D+00  6.66D-01  5.98D-01  6.89D-01
                    CP:  8.24D-01  1.15D+00  1.91D+00  1.34D+00  1.54D+00
                    CP:  1.28D+00  9.32D-01
 E= -244.937944883109     Delta-E=       -0.000000122573 Rises=F Damp=F
 DIIS: error= 2.46D-05 at cycle  13 NSaved=  13.
 NSaved=13 IEnMin=13 EnMin= -244.937944883109     IErMin=13 ErrMin= 2.46D-05
 ErrMax= 2.46D-05  0.00D+00 EMaxC= 1.00D-01 BMatC= 5.21D-08 BMatP= 3.04D-07
 IDIUse=1 WtCom= 1.00D+00 WtEn= 0.00D+00
 Coeff-Com:  0.172D-03-0.269D-03-0.254D-03 0.252D-03-0.350D-03-0.119D-02
 Coeff-Com: -0.336D-02 0.472D-02 0.135D-01-0.929D-01-0.260D-01 0.134D+00
 Coeff-Com:  0.972D+00
 Coeff:      0.172D-03-0.269D-03-0.254D-03 0.252D-03-0.350D-03-0.119D-02
 Coeff:     -0.336D-02 0.472D-02 0.135D-01-0.929D-01-0.260D-01 0.134D+00
 Coeff:      0.972D+00
 Gap=     0.084 Goal=   None    Shift=    0.000
 Gap=     0.097 Goal=   None    Shift=    0.000
 RMSDP=3.58D-06 MaxDP=2.02D-04 DE=-1.23D-07 OVMax= 3.77D-04

 Cycle  14  Pass 1  IDiag  1:
 RMSU=  1.17D-06    CP:  9.06D-01  1.55D+00  6.67D-01  5.98D-01  6.89D-01
                    CP:  8.23D-01  1.15D+00  1.91D+00  1.35D+00  1.54D+00
                    CP:  1.38D+00  1.06D+00  1.14D+00
 E= -244.937944927201     Delta-E=       -0.000000044092 Rises=F Damp=F
 DIIS: error= 6.56D-06 at cycle  14 NSaved=  14.
 NSaved=14 IEnMin=14 EnMin= -244.937944927201     IErMin=14 ErrMin= 6.56D-06
 ErrMax= 6.56D-06  0.00D+00 EMaxC= 1.00D-01 BMatC= 5.86D-09 BMatP= 5.21D-08
 IDIUse=1 WtCom= 1.00D+00 WtEn= 0.00D+00
 Coeff-Com:  0.709D-04-0.722D-04 0.607D-04-0.820D-04-0.342D-03-0.135D-02
 Coeff-Com: -0.358D-02 0.149D-02 0.159D-01-0.584D-03-0.818D-01-0.799D-01
 Coeff-Com:  0.113D+00 0.104D+01
 Coeff:      0.709D-04-0.722D-04 0.607D-04-0.820D-04-0.342D-03-0.135D-02
 Coeff:     -0.358D-02 0.149D-02 0.159D-01-0.584D-03-0.818D-01-0.799D-01
 Coeff:      0.113D+00 0.104D+01
 Gap=     0.084 Goal=   None    Shift=    0.000
 Gap=     0.097 Goal=   None    Shift=    0.000
 RMSDP=1.23D-06 MaxDP=9.16D-05 DE=-4.41D-08 OVMax= 1.31D-04

 Cycle  15  Pass 1  IDiag  1:
 RMSU=  4.28D-07    CP:  9.06D-01  1.55D+00  6.67D-01  5.98D-01  6.89D-01
                    CP:  8.23D-01  1.15D+00  1.91D+00  1.35D+00  1.55D+00
                    CP:  1.40D+00  1.11D+00  1.29D+00  1.40D+00
 E= -244.937944934175     Delta-E=       -0.000000006975 Rises=F Damp=F
 DIIS: error= 9.71D-07 at cycle  15 NSaved=  15.
 NSaved=15 IEnMin=15 EnMin= -244.937944934175     IErMin=15 ErrMin= 9.71D-07
 ErrMax= 9.71D-07  0.00D+00 EMaxC= 1.00D-01 BMatC= 5.30D-10 BMatP= 5.86D-09
 IDIUse=1 WtCom= 1.00D+00 WtEn= 0.00D+00
 Coeff-Com:  0.224D-04-0.343D-04 0.802D-05 0.114D-04 0.540D-05 0.215D-03
 Coeff-Com:  0.102D-02-0.449D-03-0.453D-02 0.170D-01 0.109D-01-0.995D-02
 Coeff-Com: -0.155D+00-0.230D+00 0.137D+01
 Coeff:      0.224D-04-0.343D-04 0.802D-05 0.114D-04 0.540D-05 0.215D-03
 Coeff:      0.102D-02-0.449D-03-0.453D-02 0.170D-01 0.109D-01-0.995D-02
 Coeff:     -0.155D+00-0.230D+00 0.137D+01
 Gap=     0.084 Goal=   None    Shift=    0.000
 Gap=     0.097 Goal=   None    Shift=    0.000
 RMSDP=6.29D-07 MaxDP=3.78D-05 DE=-6.97D-09 OVMax= 7.84D-05

 Cycle  16  Pass 1  IDiag  1:
 RMSU=  1.87D-07    CP:  9.06D-01  1.55D+00  6.67D-01  5.98D-01  6.89D-01
                    CP:  8.23D-01  1.15D+00  1.91D+00  1.35D+00  1.55D+00
                    CP:  1.41D+00  1.13D+00  1.35D+00  1.69D+00  1.64D+00
 E= -244.937944935486     Delta-E=       -0.000000001310 Rises=F Damp=F
 DIIS: error= 3.93D-07 at cycle  16 NSaved=  16.
 NSaved=16 IEnMin=16 EnMin= -244.937944935486     IErMin=16 ErrMin= 3.93D-07
 ErrMax= 3.93D-07  0.00D+00 EMaxC= 1.00D-01 BMatC= 1.11D-10 BMatP= 5.30D-10
 IDIUse=1 WtCom= 1.00D+00 WtEn= 0.00D+00
 Coeff-Com: -0.107D-04 0.123D-04-0.113D-04 0.185D-04 0.487D-04 0.291D-03
 Coeff-Com:  0.735D-03-0.202D-03-0.304D-02 0.162D-02 0.140D-01 0.147D-01
 Coeff-Com: -0.419D-01-0.211D+00 0.163D+00 0.106D+01
 Coeff:     -0.107D-04 0.123D-04-0.113D-04 0.185D-04 0.487D-04 0.291D-03
 Coeff:      0.735D-03-0.202D-03-0.304D-02 0.162D-02 0.140D-01 0.147D-01
 Coeff:     -0.419D-01-0.211D+00 0.163D+00 0.106D+01
 Gap=     0.084 Goal=   None    Shift=    0.000
 Gap=     0.097 Goal=   None    Shift=    0.000
 RMSDP=3.19D-07 MaxDP=2.32D-05 DE=-1.31D-09 OVMax= 2.91D-05

 Cycle  17  Pass 1  IDiag  1:
 RMSU=  7.48D-08    CP:  9.06D-01  1.55D+00  6.66D-01  5.98D-01  6.89D-01
                    CP:  8.23D-01  1.15D+00  1.91D+00  1.35D+00  1.55D+00
                    CP:  1.41D+00  1.15D+00  1.37D+00  1.79D+00  1.91D+00
                    CP:  1.51D+00
 E= -244.937944935638     Delta-E=       -0.000000000152 Rises=F Damp=F
 DIIS: error= 4.54D-07 at cycle  17 NSaved=  17.
 NSaved=17 IEnMin=17 EnMin= -244.937944935638     IErMin=16 ErrMin= 3.93D-07
 ErrMax= 4.54D-07  0.00D+00 EMaxC= 1.00D-01 BMatC= 3.40D-11 BMatP= 1.11D-10
 IDIUse=1 WtCom= 1.00D+00 WtEn= 0.00D+00
 Coeff-Com: -0.230D-05 0.341D-05-0.274D-05 0.570D-05 0.230D-06 0.194D-04
 Coeff-Com: -0.858D-04-0.826D-04 0.312D-03-0.198D-02 0.632D-03 0.653D-02
 Coeff-Com:  0.149D-01-0.570D-02-0.163D+00 0.195D+00 0.954D+00
 Coeff:     -0.230D-05 0.341D-05-0.274D-05 0.570D-05 0.230D-06 0.194D-04
 Coeff:     -0.858D-04-0.826D-04 0.312D-03-0.198D-02 0.632D-03 0.653D-02
 Coeff:      0.149D-01-0.570D-02-0.163D+00 0.195D+00 0.954D+00
 Gap=     0.084 Goal=   None    Shift=    0.000
 Gap=     0.097 Goal=   None    Shift=    0.000
 RMSDP=7.30D-08 MaxDP=4.35D-06 DE=-1.52D-10 OVMax= 7.46D-06

 Cycle  18  Pass 1  IDiag  1:
 RMSU=  2.33D-08    CP:  9.06D-01  1.55D+00  6.66D-01  5.98D-01  6.89D-01
                    CP:  8.23D-01  1.15D+00  1.91D+00  1.35D+00  1.55D+00
                    CP:  1.41D+00  1.15D+00  1.37D+00  1.81D+00  1.96D+00
                    CP:  1.71D+00  1.06D+00
 E= -244.937944935661     Delta-E=       -0.000000000023 Rises=F Damp=F
 DIIS: error= 1.42D-07 at cycle  18 NSaved=  18.
 NSaved=18 IEnMin=18 EnMin= -244.937944935661     IErMin=18 ErrMin= 1.42D-07
 ErrMax= 1.42D-07  0.00D+00 EMaxC= 1.00D-01 BMatC= 4.15D-12 BMatP= 3.40D-11
 IDIUse=1 WtCom= 1.00D+00 WtEn= 0.00D+00
 Coeff-Com: -0.125D-05 0.190D-05 0.216D-05-0.209D-05-0.561D-05-0.236D-04
 Coeff-Com: -0.845D-04-0.114D-04 0.347D-03-0.575D-04-0.207D-02-0.951D-03
 Coeff-Com:  0.349D-02 0.229D-01 0.906D-03-0.161D+00-0.757D-01 0.121D+01
 Coeff:     -0.125D-05 0.190D-05 0.216D-05-0.209D-05-0.561D-05-0.236D-04
 Coeff:     -0.845D-04-0.114D-04 0.347D-03-0.575D-04-0.207D-02-0.951D-03
 Coeff:      0.349D-02 0.229D-01 0.906D-03-0.161D+00-0.757D-01 0.121D+01
 Gap=     0.084 Goal=   None    Shift=    0.000
 Gap=     0.097 Goal=   None    Shift=    0.000
 RMSDP=3.32D-08 MaxDP=2.17D-06 DE=-2.29D-11 OVMax= 3.38D-06

 Cycle  19  Pass 1  IDiag  1:
 RMSU=  1.09D-08    CP:  9.06D-01  1.55D+00  6.66D-01  5.98D-01  6.89D-01
                    CP:  8.23D-01  1.15D+00  1.91D+00  1.35D+00  1.55D+00
                    CP:  1.41D+00  1.15D+00  1.37D+00  1.81D+00  1.98D+00
                    CP:  1.76D+00  1.14D+00  1.42D+00
 E= -244.937944935668     Delta-E=       -0.000000000007 Rises=F Damp=F
 DIIS: error= 5.56D-08 at cycle  19 NSaved=  19.
 NSaved=19 IEnMin=19 EnMin= -244.937944935668     IErMin=19 ErrMin= 5.56D-08
 ErrMax= 5.56D-08  0.00D+00 EMaxC= 1.00D-01 BMatC= 4.46D-13 BMatP= 4.15D-12
 IDIUse=1 WtCom= 1.00D+00 WtEn= 0.00D+00
 Coeff-Com:  0.406D-06-0.671D-06 0.385D-06-0.341D-06 0.924D-08 0.242D-06
 Coeff-Com:  0.109D-04 0.520D-05-0.424D-04 0.267D-03-0.575D-04-0.813D-03
 Coeff-Com: -0.252D-02 0.235D-04 0.253D-01-0.251D-01-0.163D+00-0.563D-01
 Coeff-Com:  0.122D+01
 Coeff:      0.406D-06-0.671D-06 0.385D-06-0.341D-06 0.924D-08 0.242D-06
 Coeff:      0.109D-04 0.520D-05-0.424D-04 0.267D-03-0.575D-04-0.813D-03
 Coeff:     -0.252D-02 0.235D-04 0.253D-01-0.251D-01-0.163D+00-0.563D-01
 Coeff:      0.122D+01
 Gap=     0.084 Goal=   None    Shift=    0.000
 Gap=     0.097 Goal=   None    Shift=    0.000
 RMSDP=1.36D-08 MaxDP=7.84D-07 DE=-7.16D-12 OVMax= 1.61D-06

 Cycle  20  Pass 1  IDiag  1:
 RMSU=  3.70D-09    CP:  9.06D-01  1.55D+00  6.66D-01  5.98D-01  6.89D-01
                    CP:  8.23D-01  1.15D+00  1.91D+00  1.35D+00  1.55D+00
                    CP:  1.41D+00  1.15D+00  1.37D+00  1.82D+00  1.99D+00
                    CP:  1.77D+00  1.16D+00  1.68D+00  1.44D+00
 E= -244.937944935666     Delta-E=        0.000000000002 Rises=F Damp=F
 DIIS: error= 2.25D-08 at cycle  20 NSaved=  20.
 NSaved=20 IEnMin=19 EnMin= -244.937944935668     IErMin=20 ErrMin= 2.25D-08
 ErrMax= 2.25D-08  0.00D+00 EMaxC= 1.00D-01 BMatC= 6.52D-14 BMatP= 4.46D-13
 IDIUse=1 WtCom= 1.00D+00 WtEn= 0.00D+00
 Coeff-Com:  0.151D-06-0.209D-06-0.177D-06 0.843D-07 0.956D-06 0.361D-05
 Coeff-Com:  0.139D-04 0.453D-05-0.501D-04 0.910D-05 0.298D-03-0.109D-04
 Coeff-Com: -0.576D-03-0.276D-02 0.213D-02 0.168D-01-0.494D-02-0.162D+00
 Coeff-Com:  0.126D+00 0.102D+01
 Coeff:      0.151D-06-0.209D-06-0.177D-06 0.843D-07 0.956D-06 0.361D-05
 Coeff:      0.139D-04 0.453D-05-0.501D-04 0.910D-05 0.298D-03-0.109D-04
 Coeff:     -0.576D-03-0.276D-02 0.213D-02 0.168D-01-0.494D-02-0.162D+00
 Coeff:      0.126D+00 0.102D+01
 Gap=     0.084 Goal=   None    Shift=    0.000
 Gap=     0.097 Goal=   None    Shift=    0.000
 RMSDP=3.85D-09 MaxDP=2.89D-07 DE= 2.22D-12 OVMax= 3.94D-07

 SCF Done:  E(UB3LYP) =  -244.937944936     A.U. after   20 cycles
            NFock= 20  Conv=0.39D-08     -V/T= 2.0042
 <Sx>= 0.0000 <Sy>= 0.0000 <Sz>= 1.5000 <S**2>= 3.7830 S= 1.5082
 <L.S>= 0.000000000000E+00
 KE= 2.439145181771D+02 PE=-8.464535038861D+02 EE= 2.185036782418D+02
 Annihilation of the first spin contaminant:
 S**2 before annihilation     3.7830,   after     3.7504
 Leave Link  502 at Tue Aug 16 17:51:53 2016, MaxMem=    33554432 cpu:       938.8
 (Enter /home/proyectos/fulerenos/M3C-v2.0/M3C-deps_CCC/g09-AM64L-G09RevC.01/l801.exe)
 DoSCS=F DFT=T ScalE2(SS,OS)=  1.000000  1.000000
 Range of M.O.s used for correlation:     1   234
 NBasis=   234 NAE=    20 NBE=    17 NFC=     0 NFV=     0
 NROrb=    234 NOA=    20 NOB=    17 NVA=   214 NVB=   217

 **** Warning!!: The largest alpha MO coefficient is  0.18815651D+03


 **** Warning!!: The smallest alpha delta epsilon is  0.84409504D-01


 **** Warning!!: The largest beta MO coefficient is  0.17955819D+03


 **** Warning!!: The smallest beta delta epsilon is  0.97430098D-01

 Leave Link  801 at Tue Aug 16 17:51:54 2016, MaxMem=    33554432 cpu:         0.0
 (Enter /home/proyectos/fulerenos/M3C-v2.0/M3C-deps_CCC/g09-AM64L-G09RevC.01/l1101.exe)
 Using compressed storage, NAtomX=     6.
 Will process      7 centers per pass.
 Leave Link 1101 at Tue Aug 16 17:51:54 2016, MaxMem=    33554432 cpu:         0.4
 (Enter /home/proyectos/fulerenos/M3C-v2.0/M3C-deps_CCC/g09-AM64L-G09RevC.01/l1102.exe)
 Symmetrizing basis deriv contribution to polar:
 IMax=3 JMax=2 DiffMx= 0.00D+00
 Leave Link 1102 at Tue Aug 16 17:51:54 2016, MaxMem=    33554432 cpu:         0.1
 (Enter /home/proyectos/fulerenos/M3C-v2.0/M3C-deps_CCC/g09-AM64L-G09RevC.01/l1110.exe)
 Forming Gx(P) for the SCF density, NAtomX=     6.
 Integral derivatives from FoFJK, PRISM(SPDF).
 Do as many integral derivatives as possible in FoFJK.
 G2DrvN: MDV=      33554280.
 G2DrvN: will do     7 centers at a time, making    1 passes.
 Calling FoFCou, ICntrl=  3107 FMM=F I1Cent=   0 AccDes= 0.00D+00.
 FoFJK:  IHMeth= 1 ICntrl=    3107 DoSepK=F KAlg= 0 I1Cent=   0 FoldK=F
 IRaf=         0 NMat=   1 IRICut=       1 DoRegI=T DoRafI=F ISym2E= 1.
 FoFCou: FMM=F IPFlag=           0 FMFlag=      100000 FMFlg1=           0
         NFxFlg=           0 DoJE=F BraDBF=F KetDBF=F FulRan=T
         wScrn=  0.000000 ICntrl=    3107 IOpCl=  1 I1Cent=           0 NGrid=           0
         NMat0=    1 NMatS0=      1 NMatT0=    0 NMatD0=    1 NMtDS0=    0 NMtDT0=    0
 Petite list used in FoFCou.
 End of G2Drv F.D. properties file   721 does not exist.
 End of G2Drv F.D. properties file   722 does not exist.
 End of G2Drv F.D. properties file   788 does not exist.
 Leave Link 1110 at Tue Aug 16 17:58:44 2016, MaxMem=    33554432 cpu:       408.9
 (Enter /home/proyectos/fulerenos/M3C-v2.0/M3C-deps_CCC/g09-AM64L-G09RevC.01/l1002.exe)
 Minotr:  UHF open shell wavefunction.
          IDoAtm=111111
          Direct CPHF calculation.
          Differentiating once with respect to electric field.
                with respect to dipole field.
          Differentiating once with respect to nuclear coordinates.
          Using symmetry in CPHF.
          Requested convergence is 1.0D-08 RMS, and 1.0D-07 maximum.
          Secondary convergence is 1.0D-12 RMS, and 1.0D-12 maximum.
          NewPWx=T KeepS1=F KeepF1=F KeepIn=T MapXYZ=F SortEE=F KeepMc=T.
          MDV=      33553900 using IRadAn=       2.
 Generate precomputed XC quadrature information.
          Solving linear equations simultaneously, MaxMat=       0.
 FoFJK:  IHMeth= 1 ICntrl=       0 DoSepK=F KAlg= 0 I1Cent=   0 FoldK=F
 IRaf= 930000000 NMat=  21 IRICut=      52 DoRegI=T DoRafI=T ISym2E= 2.
 FoFCou: FMM=F IPFlag=           0 FMFlag=      100000 FMFlg1=           0
         NFxFlg=           0 DoJE=F BraDBF=F KetDBF=F FulRan=T
         wScrn=  0.000000 ICntrl=       0 IOpCl=  1 I1Cent=           0 NGrid=           0
         NMat0=   21 NMatS0=     21 NMatT0=    0 NMatD0=   21 NMtDS0=    0 NMtDT0=    0
 Integrals replicated using symmetry in FoFCou.
          There are    21 degrees of freedom in the 1st order CPHF.  IDoFFX=6 NUNeed=     3.
     18 vectors produced by pass  0 Test12= 3.79D-14 4.76D-09 XBig12= 1.18D+03 1.92D+01.
 AX will form    18 AO Fock derivatives at one time.
     18 vectors produced by pass  1 Test12= 3.79D-14 4.76D-09 XBig12= 4.16D+02 4.37D+00.
     18 vectors produced by pass  2 Test12= 3.79D-14 4.76D-09 XBig12= 1.71D+01 1.29D+00.
     18 vectors produced by pass  3 Test12= 3.79D-14 4.76D-09 XBig12= 6.02D-01 1.30D-01.
     18 vectors produced by pass  4 Test12= 3.79D-14 4.76D-09 XBig12= 7.95D-03 1.60D-02.
     18 vectors produced by pass  5 Test12= 3.79D-14 4.76D-09 XBig12= 1.49D-04 1.64D-03.
     18 vectors produced by pass  6 Test12= 3.79D-14 4.76D-09 XBig12= 1.31D-06 1.76D-04.
     18 vectors produced by pass  7 Test12= 3.79D-14 4.76D-09 XBig12= 9.05D-09 1.31D-05.
     10 vectors produced by pass  8 Test12= 3.79D-14 4.76D-09 XBig12= 6.22D-11 1.24D-06.
      4 vectors produced by pass  9 Test12= 3.79D-14 4.76D-09 XBig12= 9.55D-13 1.97D-07.
      3 vectors produced by pass 10 Test12= 3.79D-14 4.76D-09 XBig12= 4.11D-13 1.22D-07.
      3 vectors produced by pass 11 Test12= 3.79D-14 4.76D-09 XBig12= 1.29D-14 2.61D-08.
 InvSVY:  IOpt=1 It=  1 EMax= 7.11D-15
 Solved reduced A of dimension   164 with    21 vectors.
 FullF1:  Do perturbations    1 to     3.
 Isotropic polarizability for W=    0.000000       94.46 Bohr**3.
 End of Minotr F.D. properties file   721 does not exist.
 End of Minotr F.D. properties file   722 does not exist.
 End of Minotr F.D. properties file   788 does not exist.
 Leave Link 1002 at Tue Aug 16 18:22:34 2016, MaxMem=    33554432 cpu:      1428.0
 (Enter /home/proyectos/fulerenos/M3C-v2.0/M3C-deps_CCC/g09-AM64L-G09RevC.01/l601.exe)
 Copying SCF densities to generalized density rwf, IOpCl= 1 IROHF=0.

 **********************************************************************

            Population analysis using the SCF density.

 **********************************************************************

 Orbital symmetries:
 Alpha Orbitals:
       Occupied  (A') (A') (A') (A') (A') (A') (A') (A') (A') (A')
                 (A') (A') (A") (A') (A") (A') (A') (A') (A") (A')
       Virtual   (A") (A') (A') (A") (A') (A') (A") (A') (A') (A")
                 (A') (A') (A') (A") (A') (A") (A') (A") (A') (A')
                 (A") (A') (A') (A') (A') (A") (A') (A') (A') (A")
                 (A') (A') (A") (A') (A') (A") (A') (A') (A') (A')
                 (A") (A') (A') (A') (A") (A') (A") (A") (A') (A')
                 (A") (A') (A') (A") (A') (A") (A') (A') (A") (A')
                 (A') (A") (A') (A') (A") (A') (A') (A") (A') (A")
                 (A') (A') (A") (A') (A') (A') (A") (A') (A') (A")
                 (A') (A') (A') (A') (A') (A") (A') (A") (A') (A')
                 (A") (A") (A') (A') (A') (A") (A') (A') (A") (A")
                 (A') (A') (A") (A') (A') (A") (A') (A') (A') (A")
                 (A') (A") (A') (A") (A") (A') (A') (A") (A') (A")
                 (A") (A') (A") (A') (A') (A') (A") (A") (A') (A')
                 (A') (A") (A') (A') (A") (A") (A') (A") (A') (A')
                 (A") (A') (A") (A') (A') (A") (A') (A") (A') (A')
                 (A') (A") (A') (A') (A") (A') (A') (A") (A') (A")
                 (A') (A') (A') (A') (A") (A') (A") (A') (A') (A')
                 (A") (A') (A') (A") (A') (A') (A") (A") (A') (A')
                 (A") (A') (A") (A') (A") (A') (A") (A') (A") (A')
                 (A') (A") (A') (A") (A') (A') (A") (A') (A") (A')
                 (A') (A') (A') (A") (A') (A") (A') (A') (A') (A')
                 (A') (A') (A') (A')
 Beta  Orbitals:
       Occupied  (A') (A') (A') (A') (A') (A') (A') (A') (A') (A')
                 (A') (A") (A') (A") (A') (A') (A')
       Virtual   (A") (A') (A') (A") (A') (A') (A") (A') (A") (A')
                 (A') (A') (A") (A') (A') (A') (A") (A') (A") (A')
                 (A") (A') (A') (A') (A") (A') (A') (A") (A') (A')
                 (A') (A') (A") (A') (A') (A") (A') (A') (A") (A')
                 (A') (A') (A') (A") (A') (A') (A') (A") (A") (A')
                 (A") (A') (A") (A') (A') (A') (A") (A') (A") (A')
                 (A') (A") (A') (A') (A") (A') (A') (A") (A') (A')
                 (A") (A') (A") (A') (A') (A") (A') (A') (A') (A")
                 (A') (A") (A') (A') (A') (A') (A') (A') (A') (A")
                 (A") (A') (A') (A") (A") (A') (A') (A') (A") (A')
                 (A') (A") (A") (A') (A') (A") (A') (A') (A") (A')
                 (A') (A') (A") (A') (A") (A') (A") (A") (A') (A')
                 (A") (A') (A") (A") (A') (A') (A") (A') (A') (A")
                 (A") (A') (A') (A') (A") (A') (A") (A') (A") (A')
                 (A") (A') (A') (A") (A') (A") (A') (A') (A") (A')
                 (A") (A') (A') (A') (A") (A') (A') (A") (A') (A')
                 (A") (A') (A") (A') (A') (A') (A') (A") (A') (A")
                 (A') (A') (A") (A') (A') (A') (A") (A') (A") (A')
                 (A') (A") (A') (A") (A') (A") (A') (A') (A") (A")
                 (A') (A") (A') (A') (A") (A') (A") (A') (A') (A")
                 (A') (A") (A') (A') (A') (A') (A") (A') (A") (A')
                 (A') (A') (A') (A') (A') (A') (A')
 The electronic state is 4-A".
 Alpha  occ. eigenvalues --  -14.47012 -10.31992 -10.31866 -10.27741 -10.26245
 Alpha  occ. eigenvalues --  -10.24390  -1.07500  -0.88703  -0.82510  -0.77608
 Alpha  occ. eigenvalues --   -0.68747  -0.53365  -0.52598  -0.40435  -0.39269
 Alpha  occ. eigenvalues --   -0.35909  -0.33715  -0.32808  -0.31244  -0.24157
 Alpha virt. eigenvalues --   -0.15716  -0.03379  -0.02305  -0.00908   0.01938
 Alpha virt. eigenvalues --    0.02636   0.02899   0.03929   0.05858   0.06260
 Alpha virt. eigenvalues --    0.07153   0.07307   0.07578   0.08588   0.10001
 Alpha virt. eigenvalues --    0.10452   0.11990   0.12018   0.13679   0.14646
 Alpha virt. eigenvalues --    0.15479   0.15553   0.17298   0.17985   0.21107
 Alpha virt. eigenvalues --    0.21145   0.22014   0.22924   0.24446   0.25182
 Alpha virt. eigenvalues --    0.26620   0.27346   0.29500   0.29986   0.32901
 Alpha virt. eigenvalues --    0.35190   0.36173   0.39701   0.41809   0.43015
 Alpha virt. eigenvalues --    0.43969   0.44589   0.45208   0.45998   0.47034
 Alpha virt. eigenvalues --    0.48906   0.49271   0.49465   0.51842   0.53783
 Alpha virt. eigenvalues --    0.54331   0.54450   0.55305   0.55498   0.56824
 Alpha virt. eigenvalues --    0.58002   0.58562   0.61663   0.62276   0.66643
 Alpha virt. eigenvalues --    0.68215   0.68519   0.69455   0.73127   0.73215
 Alpha virt. eigenvalues --    0.76152   0.81517   0.84310   0.84917   0.86734
 Alpha virt. eigenvalues --    0.87116   0.88796   0.92225   0.93850   0.98442
 Alpha virt. eigenvalues --    1.03863   1.07469   1.16588   1.23697   1.24117
 Alpha virt. eigenvalues --    1.26103   1.28439   1.30785   1.32370   1.36436
 Alpha virt. eigenvalues --    1.41923   1.42601   1.43742   1.43968   1.45403
 Alpha virt. eigenvalues --    1.46886   1.52659   1.53285   1.55923   1.59620
 Alpha virt. eigenvalues --    1.61003   1.65646   1.66812   1.67097   1.70076
 Alpha virt. eigenvalues --    1.71554   1.74914   1.83996   1.93451   1.99725
 Alpha virt. eigenvalues --    2.01603   2.03786   2.10740   2.17995   2.24813
 Alpha virt. eigenvalues --    2.35052   2.36512   2.39836   2.49616   2.53056
 Alpha virt. eigenvalues --    2.55235   2.57924   2.58049   2.59721   2.61282
 Alpha virt. eigenvalues --    2.62656   2.63618   2.69191   2.69275   2.70512
 Alpha virt. eigenvalues --    2.76071   2.77967   2.80347   2.80830   2.82378
 Alpha virt. eigenvalues --    2.85914   2.87094   2.88055   2.88858   2.88887
 Alpha virt. eigenvalues --    2.89253   2.92515   2.98571   2.98845   3.04280
 Alpha virt. eigenvalues --    3.06707   3.07981   3.10298   3.17583   3.23582
 Alpha virt. eigenvalues --    3.28674   3.31605   3.40574   3.41126   3.51293
 Alpha virt. eigenvalues --    3.54404   3.56154   3.59357   3.64118   3.79693
 Alpha virt. eigenvalues --    3.80266   3.91712   3.98394   3.98411   4.03262
 Alpha virt. eigenvalues --    4.03885   4.10676   4.14592   4.24067   4.28609
 Alpha virt. eigenvalues --    4.35594   4.57517   4.60607   4.85380   5.17459
 Alpha virt. eigenvalues --    5.17597   5.26204   5.54096   5.63999   5.77166
 Alpha virt. eigenvalues --    6.11903   6.12145   6.84972   6.84973   6.87396
 Alpha virt. eigenvalues --    6.89230   6.94492   6.95408   6.97126   6.97497
 Alpha virt. eigenvalues --    6.98589   7.03921   7.04458   7.11398   7.13333
 Alpha virt. eigenvalues --    7.16376   7.22321   7.22488   7.29676   7.35575
 Alpha virt. eigenvalues --    7.43324   7.52294   7.55587   7.59123   7.81581
 Alpha virt. eigenvalues --    7.93171   8.50830   8.56177  10.10829  10.11534
 Alpha virt. eigenvalues --   10.83483  10.97623  11.25126  24.11202  24.89226
 Alpha virt. eigenvalues --   25.60421  25.89043  26.24421  36.87898
  Beta  occ. eigenvalues --  -14.46026 -10.31502 -10.31227 -10.26201 -10.25208
  Beta  occ. eigenvalues --  -10.24183  -1.05342  -0.86936  -0.79159  -0.73511
  Beta  occ. eigenvalues --   -0.66896  -0.49956  -0.48856  -0.36476  -0.35403
  Beta  occ. eigenvalues --   -0.32829  -0.31636
  Beta virt. eigenvalues --   -0.21893  -0.21493  -0.12092  -0.11760  -0.02131
  Beta virt. eigenvalues --    0.01411   0.02037   0.02740   0.03453   0.03613
  Beta virt. eigenvalues --    0.05379   0.06265   0.06877   0.07402   0.07732
  Beta virt. eigenvalues --    0.09023   0.09542   0.11213   0.11246   0.12629
  Beta virt. eigenvalues --    0.12751   0.14321   0.15411   0.16187   0.16397
  Beta virt. eigenvalues --    0.17908   0.18556   0.21340   0.21531   0.22302
  Beta virt. eigenvalues --    0.23393   0.25212   0.26503   0.27223   0.28707
  Beta virt. eigenvalues --    0.30356   0.31228   0.34010   0.36525   0.37445
  Beta virt. eigenvalues --    0.40519   0.43057   0.44087   0.44818   0.45522
  Beta virt. eigenvalues --    0.45889   0.46542   0.47939   0.50187   0.50516
  Beta virt. eigenvalues --    0.50768   0.52884   0.54978   0.55244   0.55886
  Beta virt. eigenvalues --    0.56308   0.56681   0.58585   0.58782   0.59652
  Beta virt. eigenvalues --    0.63074   0.63173   0.67903   0.68814   0.69934
  Beta virt. eigenvalues --    0.70633   0.74094   0.74132   0.77058   0.82865
  Beta virt. eigenvalues --    0.85145   0.85907   0.87502   0.88588   0.90189
  Beta virt. eigenvalues --    0.92924   0.94870   0.99936   1.05193   1.08405
  Beta virt. eigenvalues --    1.17440   1.25194   1.25322   1.27285   1.29964
  Beta virt. eigenvalues --    1.32424   1.33810   1.37934   1.45456   1.45803
  Beta virt. eigenvalues --    1.46577   1.46865   1.47488   1.48726   1.55196
  Beta virt. eigenvalues --    1.56241   1.58121   1.61313   1.63104   1.67321
  Beta virt. eigenvalues --    1.70477   1.71073   1.72174   1.73828   1.76397
  Beta virt. eigenvalues --    1.85547   1.95645   2.01855   2.03452   2.06115
  Beta virt. eigenvalues --    2.12304   2.20470   2.26558   2.37543   2.38804
  Beta virt. eigenvalues --    2.42437   2.51547   2.55470   2.57565   2.61272
  Beta virt. eigenvalues --    2.61336   2.62562   2.63246   2.65003   2.66183
  Beta virt. eigenvalues --    2.71500   2.72191   2.73539   2.79438   2.81305
  Beta virt. eigenvalues --    2.82685   2.83983   2.84631   2.88644   2.89587
  Beta virt. eigenvalues --    2.89664   2.90880   2.93284   2.93438   2.95357
  Beta virt. eigenvalues --    3.00881   3.01274   3.06080   3.08638   3.10241
  Beta virt. eigenvalues --    3.12082   3.19630   3.26071   3.30427   3.33568
  Beta virt. eigenvalues --    3.43618   3.44010   3.52970   3.56542   3.58409
  Beta virt. eigenvalues --    3.61621   3.66459   3.81719   3.82354   3.93443
  Beta virt. eigenvalues --    4.00179   4.00561   4.05198   4.05600   4.12004
  Beta virt. eigenvalues --    4.16032   4.26165   4.30593   4.37560   4.59422
  Beta virt. eigenvalues --    4.62934   4.87461   5.19267   5.19434   5.27785
  Beta virt. eigenvalues --    5.56096   5.65332   5.78812   6.13575   6.13969
  Beta virt. eigenvalues --    6.88583   6.89250   6.90929   6.92665   6.97686
  Beta virt. eigenvalues --    7.00098   7.01521   7.02356   7.02387   7.06159
  Beta virt. eigenvalues --    7.06580   7.13717   7.15861   7.18882   7.23759
  Beta virt. eigenvalues --    7.25407   7.30762   7.38374   7.45821   7.54032
  Beta virt. eigenvalues --    7.57110   7.60063   7.83994   7.94729   8.51784
  Beta virt. eigenvalues --    8.57057  10.14857  10.15557  10.85236  11.00304
  Beta virt. eigenvalues --   11.26932  24.12059  24.90524  25.61483  25.89958
  Beta virt. eigenvalues --   26.25126  36.88928
          Condensed to atoms (all electrons):
               1          2          3          4          5          6
     1  N    7.778534   0.277771  -0.051056  -0.242874   0.010193   0.117077
     2  C    0.277771  10.123423  -1.362603  -2.616451  -0.200542  -0.052599
     3  C   -0.051056  -1.362603  11.587914  -3.330151  -0.005638  -0.027444
     4  C   -0.242874  -2.616451  -3.330151  10.718484   0.115707  -0.009387
     5  C    0.010193  -0.200542  -0.005638   0.115707  10.055956  -3.509434
     6  C    0.117077  -0.052599  -0.027444  -0.009387  -3.509434   8.510551
          Atomic-Atomic Spin Densities.
               1          2          3          4          5          6
     1  N    0.631544  -0.166985  -0.001822   0.015701  -0.042751  -0.053755
     2  C   -0.166985   1.047164  -0.163935  -0.266278  -0.004824  -0.018034
     3  C   -0.001822  -0.163935   0.991797  -0.129777  -0.007894  -0.006212
     4  C    0.015701  -0.266278  -0.129777   0.543556  -0.007319   0.010432
     5  C   -0.042751  -0.004824  -0.007894  -0.007319   1.159927  -0.055617
     6  C   -0.053755  -0.018034  -0.006212   0.010432  -0.055617   0.424151
 Mulliken charges and spin densities:
               1          2
     1  N   -0.889646   0.381932
     2  C   -0.168999   0.427109
     3  C   -0.811022   0.682158
     4  C    1.364672   0.166314
     5  C   -0.466242   1.041522
     6  C    0.971237   0.300965
 Sum of Mulliken charges =  -0.00000   3.00000
 Mulliken charges and spin densities with hydrogens summed into heavy atoms:
               1          2
     1  N   -0.889646   0.381932
     2  C   -0.168999   0.427109
     3  C   -0.811022   0.682158
     4  C    1.364672   0.166314
     5  C   -0.466242   1.041522
     6  C    0.971237   0.300965
 APT charges:
               1
     1  N   -0.219890
     2  C    0.263874
     3  C    0.301125
     4  C   -0.522443
     5  C    0.085052
     6  C    0.092282
 Sum of APT charges =   0.00000
 APT charges with hydrogens summed into heavy atoms:
               1
     1  N   -0.219890
     2  C    0.263874
     3  C    0.301125
     4  C   -0.522443
     5  C    0.085052
     6  C    0.092282
 Electronic spatial extent (au):  <R**2>=            677.8691
 Charge=             -0.0000 electrons
 Dipole moment (field-independent basis, Debye):
    X=              0.3494    Y=              0.8383    Z=              0.0000  Tot=              0.9082
 Quadrupole moment (field-independent basis, Debye-Ang):
   XX=            -34.2562   YY=            -56.9706   ZZ=            -32.4307
   XY=             -0.8054   XZ=             -0.0000   YZ=             -0.0000
 Traceless Quadrupole moment (field-independent basis, Debye-Ang):
   XX=              6.9630   YY=            -15.7515   ZZ=              8.7885
   XY=             -0.8054   XZ=             -0.0000   YZ=             -0.0000
 Octapole moment (field-independent basis, Debye-Ang**2):
  XXX=              0.3042  YYY=              3.1873  ZZZ=              0.0000  XYY=              7.2368
  XXY=              2.5991  XXZ=              0.0000  XZZ=              0.2022  YZZ=              0.9088
  YYZ=              0.0000  XYZ=              0.0000
 Hexadecapole moment (field-independent basis, Debye-Ang**3):
 XXXX=            -49.3216 YYYY=          -1468.0248 ZZZZ=            -36.1742 XXXY=             -9.5254
 XXXZ=             -0.0000 YYYX=            -27.0024 YYYZ=             -0.0000 ZZZX=             -0.0000
 ZZZY=             -0.0000 XXYY=           -186.8647 XXZZ=            -14.0480 YYZZ=           -173.2879
 XXYZ=             -0.0000 YYXZ=             -0.0000 ZZXY=             -2.8813
 N-N= 1.390973625316D+02 E-N=-8.464535036390D+02  KE= 2.439145181771D+02
 Symmetry A'   KE= 2.374176477311D+02
 Symmetry A"   KE= 6.496870446031D+00
  Exact polarizability:  46.686   7.188 193.471  -0.000   0.000  43.232
 Approx polarizability:  66.989  25.052 420.666   0.000   0.000  60.306
                          Isotropic Fermi Contact Couplings
        Atom                 a.u.       MegaHertz       Gauss      10(-4) cm-1
     1  N(14)              0.08470       9.12194       3.25493       3.04275
     2  C(13)              0.17993      67.42482      24.05885      22.49050
     3  C(13)              0.02356       8.82707       3.14972       2.94439
     4  C(13)              0.01823       6.83022       2.43719       2.27832
     5  C(13)              0.04501      16.86714       6.01861       5.62627
     6  C(13)             -0.02715     -10.17476      -3.63061      -3.39394
 --------------------------------------------------------
       Center         ----  Spin Dipole Couplings  ----
                      3XX-RR        3YY-RR        3ZZ-RR
 --------------------------------------------------------
     1   Atom        0.502722     -0.486863     -0.015859
     2   Atom        0.596287     -0.245162     -0.351125
     3   Atom        0.547499     -0.421592     -0.125907
     4   Atom       -0.046275      0.002619      0.043655
     5   Atom        0.549194     -0.693627      0.144433
     6   Atom        0.012058     -0.091345      0.079288
 --------------------------------------------------------
                        XY            XZ            YZ
 --------------------------------------------------------
     1   Atom        0.117562      0.000000      0.000000
     2   Atom        0.025712      0.000000      0.000000
     3   Atom       -0.172960      0.000000     -0.000000
     4   Atom        0.018061      0.000000      0.000000
     5   Atom        0.048640     -0.000000     -0.000000
     6   Atom        0.035351     -0.000000      0.000000
 --------------------------------------------------------


 ---------------------------------------------------------------------------------
              Anisotropic Spin Dipole Couplings in Principal Axis System
 ---------------------------------------------------------------------------------

       Atom             a.u.   MegaHertz   Gauss  10(-4) cm-1        Axes

              Baa    -0.5006   -19.308    -6.890    -6.441 -0.1164  0.9932 -0.0000
     1 N(14)  Bbb    -0.0159    -0.612    -0.218    -0.204  0.0000  0.0000  1.0000
              Bcc     0.5165    19.920     7.108     6.645  0.9932  0.1164 -0.0000
 
              Baa    -0.3511   -47.118   -16.813   -15.717 -0.0000 -0.0000  1.0000
     2 C(13)  Bbb    -0.2459   -33.004   -11.777   -11.009 -0.0305  0.9995  0.0000
              Bcc     0.5971    80.121    28.589    26.726  0.9995  0.0305  0.0000
 
              Baa    -0.4515   -60.592   -21.621   -20.211  0.1706  0.9853 -0.0000
     3 C(13)  Bbb    -0.1259   -16.895    -6.029    -5.636  0.0000  0.0000  1.0000
              Bcc     0.5774    77.487    27.649    25.847  0.9853 -0.1706  0.0000
 
              Baa    -0.0522    -7.008    -2.501    -2.338  0.9498 -0.3128 -0.0000
     4 C(13)  Bbb     0.0086     1.150     0.410     0.383  0.3128  0.9498 -0.0000
              Bcc     0.0437     5.858     2.090     1.954  0.0000  0.0000  1.0000
 
              Baa    -0.6955   -93.333   -33.304   -31.133 -0.0390  0.9992 -0.0000
     5 C(13)  Bbb     0.1444    19.382     6.916     6.465  0.0000  0.0000  1.0000
              Bcc     0.5511    73.952    26.388    24.668  0.9992  0.0390 -0.0000
 
              Baa    -0.1023   -13.724    -4.897    -4.578 -0.2954  0.9554 -0.0000
     6 C(13)  Bbb     0.0230     3.085     1.101     1.029  0.9554  0.2954 -0.0000
              Bcc     0.0793    10.640     3.796     3.549  0.0000  0.0000  1.0000
 

 ---------------------------------------------------------------------------------

 No NMR shielding tensors so no spin-rotation constants.
 Leave Link  601 at Tue Aug 16 18:22:35 2016, MaxMem=    33554432 cpu:         0.9
 (Enter /home/proyectos/fulerenos/M3C-v2.0/M3C-deps_CCC/g09-AM64L-G09RevC.01/l701.exe)
 Compute integral second derivatives.
 ... and contract with generalized density number  0.
 Leave Link  701 at Tue Aug 16 18:22:36 2016, MaxMem=    33554432 cpu:         0.8
 (Enter /home/proyectos/fulerenos/M3C-v2.0/M3C-deps_CCC/g09-AM64L-G09RevC.01/l702.exe)
 L702 exits ... SP integral derivatives will be done elsewhere.
 Leave Link  702 at Tue Aug 16 18:22:36 2016, MaxMem=    33554432 cpu:         0.0
 (Enter /home/proyectos/fulerenos/M3C-v2.0/M3C-deps_CCC/g09-AM64L-G09RevC.01/l703.exe)
 Compute integral second derivatives, UseDBF=F ICtDFT=           0.
 Integral derivatives from FoFJK, PRISM(SPDF).
 Calling FoFJK, ICntrl=    100127 FMM=F ISym2X=1 I1Cent= 0 IOpClX= 1 NMat=1 NMatS=1 NMatT=0.
 FoFJK:  IHMeth= 1 ICntrl=  100127 DoSepK=F KAlg= 0 I1Cent=   0 FoldK=F
 IRaf=         0 NMat=   1 IRICut=       1 DoRegI=T DoRafI=F ISym2E= 1.
 FoFCou: FMM=F IPFlag=           0 FMFlag=      100000 FMFlg1=         800
         NFxFlg=           0 DoJE=F BraDBF=F KetDBF=F FulRan=T
         wScrn=  0.000000 ICntrl=  100127 IOpCl=  1 I1Cent=           0 NGrid=           0
         NMat0=    1 NMatS0=      1 NMatT0=    0 NMatD0=    1 NMtDS0=    0 NMtDT0=    0
 Petite list used in FoFCou.
 Leave Link  703 at Tue Aug 16 18:38:31 2016, MaxMem=    33554432 cpu:       954.0
 (Enter /home/proyectos/fulerenos/M3C-v2.0/M3C-deps_CCC/g09-AM64L-G09RevC.01/l716.exe)
 Dipole        = 1.37475392D-01 3.29826611D-01 1.10166094D-17
 Polarizability= 4.66861478D+01 7.18816355D+00 1.93471216D+02
                -9.33195464D-09 1.91359995D-07 4.32320227D+01
 Full mass-weighted force constant matrix:
 Low frequencies ---   -4.5479   -2.8719    0.0001    0.0004    0.0006    0.8717
 Low frequencies ---   64.9171  123.1784  207.3551
 Diagonal vibrational polarizability:
       52.4933102      19.3118968      38.6605764
 Harmonic frequencies (cm**-1), IR intensities (KM/Mole), Raman scattering
 activities (A**4/AMU), depolarization ratios for plane and unpolarized
 incident light, reduced masses (AMU), force constants (mDyne/A),
 and normal coordinates:
                      1                      2                      3
                     A'                     A"                     A'
 Frequencies --     64.9168               123.1784               207.3550
 Red. masses --     12.7014                12.8380                12.4725
 Frc consts  --      0.0315                 0.1148                 0.3160
 IR Inten    --      8.4541                18.5768                 1.1315
  Atom  AN      X      Y      Z        X      Y      Z        X      Y      Z
     1   7     0.59  -0.01  -0.00     0.00  -0.00   0.65     0.46   0.15  -0.00
     2   6     0.34  -0.08   0.00     0.00  -0.00  -0.29    -0.49  -0.10  -0.00
     3   6    -0.46   0.13   0.00    -0.00   0.00  -0.29     0.40  -0.26  -0.00
     4   6    -0.01   0.04  -0.00    -0.00   0.00   0.13    -0.45  -0.07   0.00
     5   6    -0.54  -0.05   0.00    -0.00  -0.00  -0.57    -0.14   0.14   0.00
     6   6    -0.02  -0.04  -0.00    -0.00  -0.00   0.26     0.14   0.12  -0.00
                      4                      5                      6
                     A"                     A'                     A"
 Frequencies --    214.8320               308.3224               349.9478
 Red. masses --     12.0175                12.1826                12.5923
 Frc consts  --      0.3268                 0.6823                 0.9086
 IR Inten    --      2.1806                26.9842                20.2078
  Atom  AN      X      Y      Z        X      Y      Z        X      Y      Z
     1   7    -0.00  -0.00  -0.09    -0.30  -0.02  -0.00     0.00  -0.00  -0.54
     2   6     0.00   0.00  -0.15    -0.07   0.04  -0.00     0.00  -0.00  -0.06
     3   6    -0.00   0.00  -0.43    -0.03   0.01  -0.00     0.00   0.00  -0.07
     4   6     0.00   0.00   0.80     0.04   0.00   0.00    -0.00   0.00   0.25
     5   6     0.00  -0.00   0.21    -0.43  -0.07  -0.00     0.00  -0.00  -0.25
     6   6    -0.00  -0.00  -0.32     0.84   0.03   0.00    -0.00  -0.00   0.76
                      7                      8                      9
                     A'                     A'                     A'
 Frequencies --    393.3330               749.5491              1145.1025
 Red. masses --     12.0662                12.0751                12.3015
 Frc consts  --      1.0999                 3.9971                 9.5038
 IR Inten    --      7.8211                 0.2340               180.1705
  Atom  AN      X      Y      Z        X      Y      Z        X      Y      Z
     1   7     0.11   0.15  -0.00    -0.18   0.07   0.00     0.00  -0.39   0.00
     2   6    -0.45  -0.01  -0.00     0.49  -0.18  -0.00    -0.15  -0.39   0.00
     3   6    -0.32  -0.22  -0.00    -0.06  -0.44  -0.00     0.09   0.50   0.00
     4   6     0.67  -0.31   0.00    -0.19  -0.29   0.00     0.05  -0.03  -0.00
     5   6    -0.01   0.21  -0.00    -0.03   0.53   0.00    -0.03   0.60  -0.00
     6   6    -0.02   0.15   0.00     0.00   0.29  -0.00     0.03  -0.22  -0.00
                     10                     11                     12
                     A'                     A'                     A'
 Frequencies --   1502.5209              1878.5475              2034.3730
 Red. masses --     12.2165                12.0367                12.8307
 Frc consts  --     16.2495                25.0267                31.2868
 IR Inten    --      3.5425               538.5521                38.9257
  Atom  AN      X      Y      Z        X      Y      Z        X      Y      Z
     1   7     0.06  -0.32   0.00    -0.03  -0.13  -0.00    -0.08   0.64   0.00
     2   6    -0.03   0.52  -0.00    -0.06  -0.53  -0.00     0.05  -0.32   0.00
     3   6    -0.08  -0.44  -0.00    -0.04  -0.27  -0.00    -0.01  -0.08   0.00
     4   6     0.02   0.37   0.00     0.16   0.70   0.00     0.04   0.18  -0.00
     5   6    -0.02   0.34  -0.00     0.01  -0.08  -0.00    -0.01   0.12   0.00
     6   6     0.03  -0.41   0.00    -0.02   0.33   0.00     0.03  -0.65  -0.00

 -------------------
 - Thermochemistry -
 -------------------
 Temperature   298.150 Kelvin.  Pressure   1.00000 Atm.
 Atom     1 has atomic number  7 and mass  14.00307
 Atom     2 has atomic number  6 and mass  12.00000
 Atom     3 has atomic number  6 and mass  12.00000
 Atom     4 has atomic number  6 and mass  12.00000
 Atom     5 has atomic number  6 and mass  12.00000
 Atom     6 has atomic number  6 and mass  12.00000
 Molecular mass:    74.00307 amu.
 Principal axes and moments of inertia in atomic units:
                           1         2         3
     Eigenvalues --     9.703081162.166301171.86938
           X            0.01700   0.99986  -0.00000
           Y            0.99986  -0.01700  -0.00000
           Z            0.00000   0.00000   1.00000
 This molecule is an asymmetric top.
 Rotational symmetry number  1.
 Rotational temperatures (Kelvin)      8.92642     0.07453     0.07391
 Rotational constants (GHZ):         185.99671     1.55291     1.54005
 Zero-point vibrational energy      53664.3 (Joules/Mol)
                                   12.82609 (Kcal/Mol)
 Warning -- explicit consideration of   7 degrees of freedom as
           vibrations may cause significant error
 Vibrational temperatures:     93.40   177.23   298.34   309.09   443.61
          (Kelvin)            503.50   565.92  1078.43  1647.55  2161.79
                             2702.81  2927.01
 
 Zero-point correction=                           0.020440 (Hartree/Particle)
 Thermal correction to Energy=                    0.027063
 Thermal correction to Enthalpy=                  0.028007
 Thermal correction to Gibbs Free Energy=        -0.010448
 Sum of electronic and zero-point Energies=           -244.917505
 Sum of electronic and thermal Energies=              -244.910882
 Sum of electronic and thermal Enthalpies=            -244.909938
 Sum of electronic and thermal Free Energies=         -244.948393
 
                     E (Thermal)             CV                S
                      KCal/Mol        Cal/Mol-Kelvin    Cal/Mol-Kelvin
 Total                   16.982             19.312             80.936
 Electronic               0.000              0.000              2.755
 Translational            0.889              2.981             38.821
 Rotational               0.889              2.981             24.095
 Vibrational             15.205             13.351             15.266
 Vibration     1          0.597              1.971              4.302
 Vibration     2          0.610              1.930              3.050
 Vibration     3          0.641              1.829              2.067
 Vibration     4          0.645              1.818              2.002
 Vibration     5          0.698              1.658              1.371
 Vibration     6          0.727              1.575              1.166
 Vibration     7          0.761              1.484              0.987
                       Q            Log10(Q)             Ln(Q)
 Total Bot       0.639284D+05          4.805694         11.065518
 Total V=0       0.161165D+15         14.207269         32.713447
 Vib (Bot)       0.155213D-07         -7.809071        -17.981051
 Vib (Bot)    1  0.317914D+01          0.502310          1.156612
 Vib (Bot)    2  0.165780D+01          0.219532          0.505492
 Vib (Bot)    3  0.958866D+00         -0.018242         -0.042004
 Vib (Bot)    4  0.922711D+00         -0.034934         -0.080440
 Vib (Bot)    5  0.613892D+00         -0.211908         -0.487936
 Vib (Bot)    6  0.527238D+00         -0.277993         -0.640103
 Vib (Bot)    7  0.455344D+00         -0.341660         -0.786702
 Vib (V=0)       0.391295D+02          1.592505          3.666877
 Vib (V=0)    1  0.371822D+01          0.570335          1.313245
 Vib (V=0)    2  0.223156D+01          0.348609          0.802701
 Vib (V=0)    3  0.158140D+01          0.199041          0.458310
 Vib (V=0)    4  0.154947D+01          0.190184          0.437915
 Vib (V=0)    5  0.129175D+01          0.111177          0.255996
 Vib (V=0)    6  0.122662D+01          0.088711          0.204264
 Vib (V=0)    7  0.117627D+01          0.070506          0.162347
 Electronic      0.400000D+01          0.602060          1.386294
 Translational   0.250225D+08          7.398330         17.035284
 Rotational      0.411505D+05          4.614375         10.624991
 
                                                              b3lyp opt
                                                             IR Spectrum
 
     2         1                       1                     1                                                                       
     0         8                       5                     1                        7                     3  3 3     22    1       
     3         7                       0                     4                        5                     9  5 0     10    2  6    
     4         9                       3                     5                        0                     3  0 8     57    3  5    
 
     X         X                       X                     X                        X                     X  X X     XX    X  X    
               X                                             X                                                                       
               X                                             X                                                                       
               X                                             X                                                                       
               X                                             X                                                                       
               X                                             X                                                                       
               X                                             X                                                                       
               X                                                                                                                     
               X                                                                                                                     
               X                                                                                                                     
               X                                                                                                                     
               X                                                                                                                     
               X                                                                                                                     
               X                                                                                                                     
               X                                                                                                                     
               X                                                                                                                     
               X                                                                                                                     
               X                                                                                                                     
               X                                                                                                                     
               X                                                                                                                     
 
 ***** Axes restored to original set *****
 -------------------------------------------------------------------
 Center     Atomic                   Forces (Hartrees/Bohr)
 Number     Number              X              Y              Z
 -------------------------------------------------------------------
      1        7          -0.000045657   -0.000042465    0.000002638
      2        6           0.000013772    0.000020055   -0.000001967
      3        6           0.000003944    0.000031282   -0.000004690
      4        6           0.000004878   -0.000038134    0.000006614
      5        6           0.000004446    0.000001331    0.000000196
      6        6           0.000018617    0.000027931   -0.000002791
 -------------------------------------------------------------------
 Cartesian Forces:  Max     0.000045657 RMS     0.000021323
 Z-matrix is all fixed cartesians, so copy forces.
 Force constants in Cartesian coordinates: 
                1             2             3             4             5 
      1  0.400328D+00
      2  0.572232D+00  0.918339D+00
      3 -0.577697D-01 -0.913770D-01  0.346790D-01
      4 -0.212318D+00 -0.217807D+00  0.154595D-01  0.259823D+00
      5 -0.216447D+00 -0.211626D+00  0.143362D-01  0.336031D+00  0.819152D+00
      6  0.152398D-01  0.142104D-01  0.127102D-03 -0.303781D-01 -0.101082D+00
      7 -0.615447D-02 -0.183674D-02 -0.433607D-03  0.153251D-01 -0.137042D-01
      8 -0.207702D-01 -0.410630D-02 -0.976900D-03  0.190497D-01 -0.713373D-01
      9  0.262600D-02  0.774841D-03  0.185791D-02 -0.185898D-02  0.106067D-01
     10 -0.259801D-02 -0.317213D-01  0.577114D-02 -0.460828D-01 -0.633600D-01
     11  0.175525D-02 -0.739766D-01  0.105704D-01 -0.120066D+00 -0.474630D+00
     12  0.361388D-03  0.747315D-02 -0.107440D-01  0.154753D-01  0.702496D-01
     13 -0.746538D-02 -0.407679D-01  0.543413D-02 -0.345689D-02  0.666322D-02
     14 -0.289251D-01 -0.799409D-01  0.110512D-01 -0.704454D-02  0.160195D-01
     15  0.352035D-02  0.995544D-02  0.372327D-02  0.708133D-03 -0.177938D-02
     16 -0.171792D+00 -0.280099D+00  0.315385D-01 -0.132900D-01 -0.491825D-01
     17 -0.307844D+00 -0.548690D+00  0.563961D-01 -0.101630D-01 -0.775789D-01
     18  0.360221D-01  0.589631D-01 -0.296433D-01  0.594184D-03  0.766925D-02
                6             7             8             9            10 
      6  0.147698D-01
      7  0.343399D-02  0.486501D-01
      8  0.136372D-01  0.137508D+00  0.491149D+00
      9  0.259226D-03 -0.181466D-01 -0.659011D-01  0.135826D-01
     10  0.631170D-02 -0.592658D-01 -0.138793D+00  0.177091D-01  0.109217D+00
     11  0.650031D-01 -0.124827D+00 -0.423605D+00  0.555709D-01  0.236693D+00
     12 -0.135570D-01  0.154522D-01  0.542788D-01 -0.155956D-01 -0.296913D-01
     13 -0.150702D-02 -0.327689D-02 -0.943878D-02  0.122237D-02  0.617205D-02
     14 -0.304764D-02 -0.614250D-02 -0.184703D-01  0.241600D-02  0.110334D-01
     15  0.154650D-02  0.689702D-03  0.211102D-02 -0.280198D-03 -0.119736D-02
     16  0.689967D-02  0.472189D-02  0.124444D-01 -0.155184D-02 -0.744265D-02
     17  0.112794D-01  0.900246D-02  0.263705D-01 -0.346741D-02 -0.138520D-01
     18 -0.314565D-02 -0.995634D-03 -0.314896D-02  0.176018D-03  0.109681D-02
               11            12            13            14            15 
     11  0.965538D+00
     12 -0.131428D+00  0.352125D-01
     13  0.721253D-02 -0.579914D-03  0.109098D+00
     14  0.163833D-01 -0.165215D-02  0.180022D+00  0.332133D+00
     15 -0.200566D-02  0.558090D-04 -0.195728D-01 -0.360113D-01  0.102274D-01
     16 -0.767504D-03 -0.101762D-02 -0.101071D+00 -0.148943D+00  0.158519D-01
     17 -0.970947D-02  0.107872D-02 -0.143691D+00 -0.266124D+00  0.277299D-01
     18  0.228931D-02  0.462814D-02  0.150032D-01  0.272439D-01 -0.152728D-01
               16            17            18 
     16  0.288874D+00
     17  0.466548D+00  0.875732D+00
     18 -0.517207D-01 -0.930166D-01  0.432575D-01
 Leave Link  716 at Tue Aug 16 18:38:31 2016, MaxMem=    33554432 cpu:         0.1
 (Enter /home/proyectos/fulerenos/M3C-v2.0/M3C-deps_CCC/g09-AM64L-G09RevC.01/l103.exe)

 GradGradGradGradGradGradGradGradGradGradGradGradGradGradGradGradGradGrad
 Berny optimization.
 Search for a local minimum.
 Step number   1 out of a maximum of    2
 All quantities printed in internal units (Hartrees-Bohrs-Radians)
 Second derivative matrix not updated -- analytic derivatives used.
 The second derivative matrix:
                          X1        Y1        Z1        X2        Y2
           X1           0.40033
           Y1           0.57223   0.91834
           Z1          -0.05777  -0.09138   0.03468
           X2          -0.21232  -0.21781   0.01546   0.25982
           Y2          -0.21645  -0.21163   0.01434   0.33603   0.81915
           Z2           0.01524   0.01421   0.00013  -0.03038  -0.10108
           X3          -0.00615  -0.00184  -0.00043   0.01533  -0.01370
           Y3          -0.02077  -0.00411  -0.00098   0.01905  -0.07134
           Z3           0.00263   0.00077   0.00186  -0.00186   0.01061
           X4          -0.00260  -0.03172   0.00577  -0.04608  -0.06336
           Y4           0.00176  -0.07398   0.01057  -0.12007  -0.47463
           Z4           0.00036   0.00747  -0.01074   0.01548   0.07025
           X5          -0.00747  -0.04077   0.00543  -0.00346   0.00666
           Y5          -0.02893  -0.07994   0.01105  -0.00704   0.01602
           Z5           0.00352   0.00996   0.00372   0.00071  -0.00178
           X6          -0.17179  -0.28010   0.03154  -0.01329  -0.04918
           Y6          -0.30784  -0.54869   0.05640  -0.01016  -0.07758
           Z6           0.03602   0.05896  -0.02964   0.00059   0.00767
                          Z2        X3        Y3        Z3        X4
           Z2           0.01477
           X3           0.00343   0.04865
           Y3           0.01364   0.13751   0.49115
           Z3           0.00026  -0.01815  -0.06590   0.01358
           X4           0.00631  -0.05927  -0.13879   0.01771   0.10922
           Y4           0.06500  -0.12483  -0.42361   0.05557   0.23669
           Z4          -0.01356   0.01545   0.05428  -0.01560  -0.02969
           X5          -0.00151  -0.00328  -0.00944   0.00122   0.00617
           Y5          -0.00305  -0.00614  -0.01847   0.00242   0.01103
           Z5           0.00155   0.00069   0.00211  -0.00028  -0.00120
           X6           0.00690   0.00472   0.01244  -0.00155  -0.00744
           Y6           0.01128   0.00900   0.02637  -0.00347  -0.01385
           Z6          -0.00315  -0.00100  -0.00315   0.00018   0.00110
                          Y4        Z4        X5        Y5        Z5
           Y4           0.96554
           Z4          -0.13143   0.03521
           X5           0.00721  -0.00058   0.10910
           Y5           0.01638  -0.00165   0.18002   0.33213
           Z5          -0.00201   0.00006  -0.01957  -0.03601   0.01023
           X6          -0.00077  -0.00102  -0.10107  -0.14894   0.01585
           Y6          -0.00971   0.00108  -0.14369  -0.26612   0.02773
           Z6           0.00229   0.00463   0.01500   0.02724  -0.01527
                          X6        Y6        Z6
           X6           0.28887
           Y6           0.46655   0.87573
           Z6          -0.05172  -0.09302   0.04326
 ITU=  0
     Eigenvalues ---    0.00203   0.00738   0.02035   0.02099   0.04393
     Eigenvalues ---    0.05868   0.07068   0.25693   0.61002   1.04370
     Eigenvalues ---    1.60670   2.02697
 Angle between quadratic step and forces=  81.64 degrees.
 ClnCor:  largest displacement from symmetrization is 2.37D-10 for atom     1.
 Linear search not attempted -- first point.
 ClnCor:  largest displacement from symmetrization is 2.39D-15 for atom     5.
 B after Tr=    -0.000038    0.000018   -0.000006
         Rot=    1.000000    0.000000   -0.000000   -0.000001 Ang=   0.00 deg.
 Variable       Old X    -DE/DX   Delta X   Delta X   Delta X     New X
                                 (Linear)    (Quad)   (Total)
    X1        0.45752  -0.00005   0.00000  -0.00284  -0.00288   0.45464
    Y1        1.00979  -0.00004   0.00000   0.00132   0.00134   1.01113
    Z1       -0.14711   0.00000   0.00000  -0.00048  -0.00048  -0.14759
    X2       -1.22088   0.00001   0.00000  -0.00144  -0.00148  -1.22236
    Y2       -0.75154   0.00002   0.00000   0.00021   0.00023  -0.75131
    Z2       -0.01777  -0.00000   0.00000  -0.00017  -0.00017  -0.01794
    X3       -2.16855   0.00000   0.00000   0.00182   0.00180  -2.16675
    Y3       -5.49218   0.00003   0.00000  -0.00031  -0.00030  -5.49248
    Z3        0.66063  -0.00000   0.00000   0.00022   0.00022   0.66085
    X4       -1.47499   0.00000   0.00000   0.00051   0.00048  -1.47451
    Y4       -3.13934  -0.00004   0.00000  -0.00002  -0.00001  -3.13934
    Z4        0.34459   0.00001   0.00000   0.00005   0.00005   0.34463
    X5        2.68865   0.00000   0.00000   0.00216   0.00210   2.69075
    Y5        5.24676   0.00000   0.00000  -0.00118  -0.00115   5.24561
    Z5       -0.62537   0.00000   0.00000   0.00039   0.00038  -0.62499
    X6        1.45435   0.00002   0.00000   0.00002  -0.00003   1.45432
    Y6        3.04792   0.00003   0.00000  -0.00013  -0.00011   3.04781
    Z6       -0.38424  -0.00000   0.00000   0.00002   0.00001  -0.38422
         Item               Value     Threshold  Converged?
 Maximum Force            0.000046     0.000450     YES
 RMS     Force            0.000021     0.000300     YES
 Maximum Displacement     0.002879     0.001800     NO 
 RMS     Displacement     0.001108     0.001200     YES
 Predicted change in Energy=-3.092348D-08
 GradGradGradGradGradGradGradGradGradGradGradGradGradGradGradGradGradGrad

 Leave Link  103 at Tue Aug 16 18:38:31 2016, MaxMem=    33554432 cpu:         0.1
 (Enter /home/proyectos/fulerenos/M3C-v2.0/M3C-deps_CCC/g09-AM64L-G09RevC.01/l9999.exe)
 1\1\GINC-BLADI10\Freq\UB3LYP\6-311++G(3df,2p)\C5N1(4)\ROOT\16-Aug-2016
 \0\\#p b3lyp/6-311++G(3df,2p) freq symmetry=Loose\\b3lyp opt\\0,4\N,0.
 242108,0.534358,-0.0778450002\C,-0.646064,-0.397698,-0.0094009999\C,-1
 .147547653,-2.906334426,0.3495925892\C,-0.780529916,-1.661265554,0.182
 3484518\C,1.422769761,2.776466861,-0.3309298541\C,0.769606808,1.612890
 119,-0.2033291878\\Version=EM64L-G09RevE.01\State=4-A"\HF=-244.9379449
 \S2=3.782974\S2-1=0.\S2A=3.750423\RMSD=3.854e-09\RMSF=2.132e-05\ZeroPo
 int=0.0204397\Thermal=0.0270632\Dipole=0.0214484,0.3524254,-0.0549669\
 DipoleDeriv=-0.1762486,-0.2684436,0.0249451,-0.2933833,-0.4994757,0.05
 72874,0.0289753,0.0595949,0.0160528,0.2464729,0.5328538,-0.0567327,0.3
 672209,0.6091565,-0.0759411,-0.0299667,-0.0606166,-0.0640059,-0.118731
 8,0.4875875,-0.0597799,0.5880051,1.3177842,-0.2109448,-0.0760072,-0.22
 02355,-0.2956784,-0.0454736,-0.7292928,0.0861886,-0.8195642,-1.7844929
 ,0.2605001,0.1007763,0.2688521,0.2626388,-0.0915915,0.5870868,-0.06952
 26,0.4731462,0.6980573,-0.1281057,-0.05111,-0.1175638,-0.3513092,0.185
 5725,-0.6097917,0.0749015,-0.3154247,-0.3410293,0.0972041,0.0273322,0.
 0699689,0.4323019\Polar=69.1669288,53.0276202,169.0680042,-6.1696474,-
 15.4287075,45.1544531\PG=CS [SG(C5N1)]\NImag=0\\0.40032849,0.57223159,
 0.91833914,-0.05776967,-0.09137697,0.03467896,-0.21231840,-0.21780666,
 0.01545948,0.25982289,-0.21644725,-0.21162574,0.01433619,0.33603073,0.
 81915240,0.01523980,0.01421042,0.00012710,-0.03037814,-0.10108241,0.01
 476981,-0.00615447,-0.00183674,-0.00043361,0.01532512,-0.01370419,0.00
 343399,0.04865010,-0.02077016,-0.00410630,-0.00097690,0.01904967,-0.07
 133734,0.01363716,0.13750807,0.49114870,0.00262600,0.00077484,0.001857
 91,-0.00185898,0.01060673,0.00025923,-0.01814662,-0.06590111,0.0135825
 9,-0.00259801,-0.03172129,0.00577114,-0.04608277,-0.06336000,0.0063117
 0,-0.05926575,-0.13879317,0.01770906,0.10921714,0.00175525,-0.07397662
 ,0.01057044,-0.12006618,-0.47462995,0.06500308,-0.12482710,-0.42360521
 ,0.05557094,0.23669301,0.96553796,0.00036139,0.00747315,-0.01074396,0.
 01547532,0.07024960,-0.01355698,0.01545217,0.05427878,-0.01559555,-0.0
 2969135,-0.13142811,0.03521254,-0.00746538,-0.04076792,0.00543413,-0.0
 0345689,0.00666322,-0.00150702,-0.00327689,-0.00943878,0.00122237,0.00
 617205,0.00721253,-0.00057991,0.10909776,-0.02892510,-0.07994094,0.011
 05116,-0.00704454,0.01601950,-0.00304764,-0.00614250,-0.01847032,0.002
 41600,0.01103341,0.01638330,-0.00165215,0.18002181,0.33213263,0.003520
 35,0.00995544,0.00372327,0.00070813,-0.00177938,0.00154650,0.00068970,
 0.00211102,-0.00028020,-0.00119736,-0.00200566,0.00005581,-0.01957275,
 -0.03601129,0.01022737,-0.17179223,-0.28009899,0.03153853,-0.01328995,
 -0.04918251,0.00689967,0.00472189,0.01244436,-0.00155184,-0.00744265,-
 0.00076750,-0.00101762,-0.10107064,-0.14894307,0.01585193,0.28887358,-
 0.30784434,-0.54868955,0.05639608,-0.01016302,-0.07757888,0.01127938,0
 .00900246,0.02637046,-0.00346741,-0.01385196,-0.00970947,0.00107872,-0
 .14369085,-0.26612417,0.02772986,0.46654771,0.87573162,0.03602213,0.05
 896311,-0.02964330,0.00059418,0.00766925,-0.00314565,-0.00099563,-0.00
 314896,0.00017602,0.00109681,0.00228931,0.00462814,0.01500318,0.027243
 92,-0.01527276,-0.05172067,-0.09301664,0.04325754\\0.00004566,0.000042
 46,-0.00000264,-0.00001377,-0.00002005,0.00000197,-0.00000394,-0.00003
 128,0.00000469,-0.00000488,0.00003813,-0.00000661,-0.00000445,-0.00000
 133,-0.00000020,-0.00001862,-0.00002793,0.00000279\\\@


 THESE ARE THE TIMES THAT TRY MENS SOULS.
 THE SUMMER SOLDIER AND THE SUNSHINE PATRIOT WILL IN THIS CRISIS,
 SHRINK FROM THE SERVICE OF HIS COUNTRY.  BUT HE THAT STANDS NOW,
 DESERVES THE LOVE AND THANKS OF MAN AND WOMAN.
 TYRANNY, LIKE HELL, IS NOT EASILY CONQUERED,
 YET WE HAVE THIS CONSOLATION WITH US,
 THAT THE HARDER THE CONFLICT, THE MORE GLORIOUS THE TRIUMPH.
 WHAT WE OBTAIN TOO CHEAP, WE ESTEEM TOO LIGHTLY, 
 'TIS DEARNESS ONLY THAT GIVES EVERYTHING ITS VALUE.

                                              -- TOM PAINE
 Job cpu time:       0 days  1 hours  2 minutes 16.1 seconds.
 File lengths (MBytes):  RWF=     66 Int=      0 D2E=      0 Chk=      5 Scr=      1
 Normal termination of Gaussian 09 at Tue Aug 16 18:38:31 2016.
