 Entering Gaussian System, Link 0=/home/proyectos/fulerenos/M3C-v2.0/M3C-deps_CCC/g09-AM64L-G09RevC.01/g09
 Initial command:
 /home/proyectos/fulerenos/M3C-v2.0/M3C-deps_CCC/g09-AM64L-G09RevC.01/l1.exe "/scratch/naguirre/gaussian/Gau-10815.inp" -scrdir="/scratch/naguirre/gaussian/"
 Entering Link 1 = /home/proyectos/fulerenos/M3C-v2.0/M3C-deps_CCC/g09-AM64L-G09RevC.01/l1.exe PID=     10841.
  
 Copyright (c) 1988,1990,1992,1993,1995,1998,2003,2009,2015,
            Gaussian, Inc.  All Rights Reserved.
  
 This is part of the Gaussian(R) 09 program.  It is based on
 the Gaussian(R) 03 system (copyright 2003, Gaussian, Inc.),
 the Gaussian(R) 98 system (copyright 1998, Gaussian, Inc.),
 the Gaussian(R) 94 system (copyright 1995, Gaussian, Inc.),
 the Gaussian 92(TM) system (copyright 1992, Gaussian, Inc.),
 the Gaussian 90(TM) system (copyright 1990, Gaussian, Inc.),
 the Gaussian 88(TM) system (copyright 1988, Gaussian, Inc.),
 the Gaussian 86(TM) system (copyright 1986, Carnegie Mellon
 University), and the Gaussian 82(TM) system (copyright 1983,
 Carnegie Mellon University). Gaussian is a federally registered
 trademark of Gaussian, Inc.
  
 This software contains proprietary and confidential information,
 including trade secrets, belonging to Gaussian, Inc.
  
 This software is provided under written license and may be
 used, copied, transmitted, or stored only in accord with that
 written license.
  
 The following legend is applicable only to US Government
 contracts under FAR:
  
                    RESTRICTED RIGHTS LEGEND
  
 Use, reproduction and disclosure by the US Government is
 subject to restrictions as set forth in subparagraphs (a)
 and (c) of the Commercial Computer Software - Restricted
 Rights clause in FAR 52.227-19.
  
 Gaussian, Inc.
 340 Quinnipiac St., Bldg. 40, Wallingford CT 06492
  
  
 ---------------------------------------------------------------
 Warning -- This program may not be used in any manner that
 competes with the business of Gaussian, Inc. or will provide
 assistance to any competitor of Gaussian, Inc.  The licensee
 of this program is prohibited from giving any competitor of
 Gaussian, Inc. access to this program.  By using this program,
 the user acknowledges that Gaussian, Inc. is engaged in the
 business of creating and licensing software in the field of
 computational chemistry and represents and warrants to the
 licensee that it is not a competitor of Gaussian, Inc. and that
 it will not use this program in any manner prohibited above.
 ---------------------------------------------------------------
  

 Cite this work as:
 Gaussian 09, Revision E.01,
 M. J. Frisch, G. W. Trucks, H. B. Schlegel, G. E. Scuseria, 
 M. A. Robb, J. R. Cheeseman, G. Scalmani, V. Barone, B. Mennucci, 
 G. A. Petersson, H. Nakatsuji, M. Caricato, X. Li, H. P. Hratchian, 
 A. F. Izmaylov, J. Bloino, G. Zheng, J. L. Sonnenberg, M. Hada, 
 M. Ehara, K. Toyota, R. Fukuda, J. Hasegawa, M. Ishida, T. Nakajima, 
 Y. Honda, O. Kitao, H. Nakai, T. Vreven, J. A. Montgomery, Jr., 
 J. E. Peralta, F. Ogliaro, M. Bearpark, J. J. Heyd, E. Brothers, 
 K. N. Kudin, V. N. Staroverov, T. Keith, R. Kobayashi, J. Normand, 
 K. Raghavachari, A. Rendell, J. C. Burant, S. S. Iyengar, J. Tomasi, 
 M. Cossi, N. Rega, J. M. Millam, M. Klene, J. E. Knox, J. B. Cross, 
 V. Bakken, C. Adamo, J. Jaramillo, R. Gomperts, R. E. Stratmann, 
 O. Yazyev, A. J. Austin, R. Cammi, C. Pomelli, J. W. Ochterski, 
 R. L. Martin, K. Morokuma, V. G. Zakrzewski, G. A. Voth, 
 P. Salvador, J. J. Dannenberg, S. Dapprich, A. D. Daniels, 
 O. Farkas, J. B. Foresman, J. V. Ortiz, J. Cioslowski, 
 and D. J. Fox, Gaussian, Inc., Wallingford CT, 2013.
 
 ******************************************
 Gaussian 09:  EM64L-G09RevE.01 30-Nov-2015
                16-Aug-2016 
 ******************************************
 %NProcShared=1
 Will use up to    1 processors via shared memory.
 ---------------------------------------------
 #p b3lyp/6-311++G(3df,2p) freq symmetry=Loose
 ---------------------------------------------
 1/10=4,30=1,38=1/1,3;
 2/12=2,17=4,18=3,40=1/2;
 3/5=4,6=6,7=1216,11=2,16=1,25=1,30=1,71=2,74=-5,140=1/1,2,3;
 4//1;
 5/5=2,38=5,98=1/2;
 8/6=4,10=90,11=11/1;
 11/6=1,8=1,9=11,15=111,16=1/1,2,10;
 10/6=1/2;
 6/7=2,8=2,9=2,10=2,18=1,28=1/1;
 7/8=1,10=1,25=1/1,2,3,16;
 1/10=4,30=1/3;
 99//99;
 Leave Link    1 at Tue Aug 16 17:36:05 2016, MaxMem=           0 cpu:         0.1
 (Enter /home/proyectos/fulerenos/M3C-v2.0/M3C-deps_CCC/g09-AM64L-G09RevC.01/l101.exe)
 ---------
 b3lyp opt
 ---------
 Symbolic Z-matrix:
 Charge =  1 Multiplicity = 3
 C                     1.08345  -0.17991  -0.4047 
 C                    -1.83461  -0.26865   1.11695 
 C                     1.08186   0.91742  -1.15042 
 C                    -0.64544  -0.18007   0.46119 
 C                    -0.11876   0.89424  -0.53341 
 N                     0.45101  -1.00729   0.47488 
 
 NAtoms=      6 NQM=        6 NQMF=       0 NMMI=      0 NMMIF=      0
                NMic=       0 NMicF=      0.
                    Isotopes and Nuclear Properties:
 (Nuclear quadrupole moments (NQMom) in fm**2, nuclear magnetic moments (NMagM)
  in nuclear magnetons)

  Atom         1           2           3           4           5           6
 IAtWgt=          12          12          12          12          12          14
 AtmWgt=  12.0000000  12.0000000  12.0000000  12.0000000  12.0000000  14.0030740
 NucSpn=           0           0           0           0           0           2
 AtZEff=   0.0000000   0.0000000   0.0000000   0.0000000   0.0000000   0.0000000
 NQMom=    0.0000000   0.0000000   0.0000000   0.0000000   0.0000000   2.0440000
 NMagM=    0.0000000   0.0000000   0.0000000   0.0000000   0.0000000   0.4037610
 AtZNuc=   6.0000000   6.0000000   6.0000000   6.0000000   6.0000000   7.0000000
 Leave Link  101 at Tue Aug 16 17:36:06 2016, MaxMem=    33554432 cpu:         0.2
 (Enter /home/proyectos/fulerenos/M3C-v2.0/M3C-deps_CCC/g09-AM64L-G09RevC.01/l103.exe)

 GradGradGradGradGradGradGradGradGradGradGradGradGradGradGradGradGradGrad
 Berny optimization.
 Initialization pass.
 Trust Radius=3.00D-01 FncErr=1.00D-07 GrdErr=1.00D-07
 Number of steps in this run=      2 maximum allowed number of steps=      2.
 GradGradGradGradGradGradGradGradGradGradGradGradGradGradGradGradGradGrad

 Leave Link  103 at Tue Aug 16 17:36:06 2016, MaxMem=    33554432 cpu:         0.0
 (Enter /home/proyectos/fulerenos/M3C-v2.0/M3C-deps_CCC/g09-AM64L-G09RevC.01/l202.exe)
                          Input orientation:                          
 ---------------------------------------------------------------------
 Center     Atomic      Atomic             Coordinates (Angstroms)
 Number     Number       Type             X           Y           Z
 ---------------------------------------------------------------------
      1          6           0        1.083447   -0.179909   -0.404696
      2          6           0       -1.834605   -0.268654    1.116951
      3          6           0        1.081857    0.917421   -1.150420
      4          6           0       -0.645442   -0.180070    0.461189
      5          6           0       -0.118763    0.894238   -0.533414
      6          7           0        0.451009   -1.007285    0.474880
 ---------------------------------------------------------------------
                    Distance matrix (angstroms):
                    1          2          3          4          5
     1  C    0.000000
     2  C    3.292159   0.000000
     3  C    1.326741   3.879883   0.000000
     4  C    1.933602   1.360874   2.604867   0.000000
     5  C    1.617303   2.649554   1.350082   1.555881   0.000000
     6  N    1.363152   2.486335   2.596933   1.373564   2.226451
                    6
     6  N    0.000000
 Stoichiometry    C5N(1+,3)
 Framework group  CS[SG(C5N)]
 Deg. of freedom     9
 Full point group                 CS      NOp   2
 Largest Abelian subgroup         CS      NOp   2
 Largest concise Abelian subgroup C1      NOp   1
                         Standard orientation:                         
 ---------------------------------------------------------------------
 Center     Atomic      Atomic             Coordinates (Angstroms)
 Number     Number       Type             X           Y           Z
 ---------------------------------------------------------------------
      1          6           0        0.499253   -1.046255   -0.000000
      2          6           0       -0.250314    2.159437    0.000000
      3          6           0       -0.655688   -1.699211   -0.000000
      4          6           0        0.000000    0.821782    0.000000
      5          6           0       -0.978119   -0.388197   -0.000000
      6          7           0        1.187029    0.130667    0.000000
 ---------------------------------------------------------------------
 Rotational constants (GHZ):     12.8302419      4.4092911      3.2815431
 Leave Link  202 at Tue Aug 16 17:36:06 2016, MaxMem=    33554432 cpu:         0.0
 (Enter /home/proyectos/fulerenos/M3C-v2.0/M3C-deps_CCC/g09-AM64L-G09RevC.01/l301.exe)
 Standard basis: 6-311++G(3df,2p) (5D, 7F)
 Ernie: Thresh=  0.10000D-02 Tol=  0.10000D-05 Strict=F.
 There are   186 symmetry adapted cartesian basis functions of A'  symmetry.
 There are    84 symmetry adapted cartesian basis functions of A"  symmetry.
 There are   156 symmetry adapted basis functions of A'  symmetry.
 There are    78 symmetry adapted basis functions of A"  symmetry.
   234 basis functions,   348 primitive gaussians,   270 cartesian basis functions
    19 alpha electrons       17 beta electrons
       nuclear repulsion energy       161.5086346351 Hartrees.
 IExCor=  402 DFT=T Ex+Corr=B3LYP ExCW=0 ScaHFX=  0.200000
 ScaDFX=  0.800000  0.720000  1.000000  0.810000 ScalE2=  1.000000  1.000000
 IRadAn=      0 IRanWt=     -1 IRanGd=            0 ICorTp=0 IEmpDi=  4
 NAtoms=    6 NActive=    6 NUniq=    6 SFac= 1.00D+00 NAtFMM=   60 NAOKFM=F Big=F
 Integral buffers will be    131072 words long.
 Raffenetti 2 integral format.
 Two-electron integral symmetry is turned on.
 Leave Link  301 at Tue Aug 16 17:36:07 2016, MaxMem=    33554432 cpu:         0.3
 (Enter /home/proyectos/fulerenos/M3C-v2.0/M3C-deps_CCC/g09-AM64L-G09RevC.01/l302.exe)
 NPDir=0 NMtPBC=     1 NCelOv=     1 NCel=       1 NClECP=     1 NCelD=      1
         NCelK=      1 NCelE2=     1 NClLst=     1 CellRange=     0.0.
 One-electron integrals computed using PRISM.
 NBasis=   234 RedAO= T EigKep=  8.68D-06  NBF=   156    78
 NBsUse=   234 1.00D-06 EigRej= -1.00D+00 NBFU=   156    78
 Precomputing XC quadrature grid using
 IXCGrd= 4 IRadAn=           0 IRanWt=          -1 IRanGd=           0 AccXCQ= 0.00D+00.
 Generated NRdTot=       0 NPtTot=           0 NUsed=           0 NTot=          32
 NSgBfM=   270   270   270   270   270 MxSgAt=     6 MxSgA2=     6.
 Leave Link  302 at Tue Aug 16 17:36:08 2016, MaxMem=    33554432 cpu:         0.4
 (Enter /home/proyectos/fulerenos/M3C-v2.0/M3C-deps_CCC/g09-AM64L-G09RevC.01/l303.exe)
 DipDrv:  MaxL=1.
 Leave Link  303 at Tue Aug 16 17:36:08 2016, MaxMem=    33554432 cpu:         0.2
 (Enter /home/proyectos/fulerenos/M3C-v2.0/M3C-deps_CCC/g09-AM64L-G09RevC.01/l401.exe)
 ExpMin= 4.38D-02 ExpMax= 6.29D+03 ExpMxC= 9.49D+02 IAcc=2 IRadAn=         4 AccDes= 0.00D+00
 Harris functional with IExCor=  402 and IRadAn=       4 diagonalized for initial guess.
 HarFok:  IExCor=  402 AccDes= 0.00D+00 IRadAn=         4 IDoV= 1 UseB2=F ITyADJ=14
 ICtDFT=  3500011 ScaDFX=  1.000000  1.000000  1.000000  1.000000
 FoFCou: FMM=F IPFlag=           0 FMFlag=      100000 FMFlg1=           0
         NFxFlg=           0 DoJE=T BraDBF=F KetDBF=T FulRan=T
         wScrn=  0.000000 ICntrl=     500 IOpCl=  0 I1Cent=   200000004 NGrid=           0
         NMat0=    1 NMatS0=      1 NMatT0=    0 NMatD0=    1 NMtDS0=    0 NMtDT0=    0
 Petite list used in FoFCou.
 Harris En= -244.594759629547    
 JPrj=0 DoOrth=F DoCkMO=F.
 Initial guess orbital symmetries:
 Alpha Orbitals:
       Occupied  (A') (A') (A') (A') (A') (A') (A') (A') (A') (A')
                 (A') (A') (A") (A') (A') (A") (A') (A") (A')
       Virtual   (A') (A") (A') (A") (A") (A') (A') (A') (A") (A')
                 (A') (A') (A') (A") (A") (A') (A') (A") (A') (A')
                 (A") (A') (A') (A') (A") (A') (A') (A') (A') (A')
                 (A') (A') (A') (A") (A') (A') (A") (A') (A') (A")
                 (A') (A") (A') (A') (A') (A") (A') (A') (A") (A')
                 (A") (A") (A') (A") (A') (A') (A') (A") (A') (A')
                 (A") (A') (A") (A') (A") (A') (A') (A") (A') (A")
                 (A') (A") (A') (A') (A') (A') (A") (A') (A') (A')
                 (A") (A') (A') (A") (A') (A') (A') (A') (A") (A')
                 (A") (A') (A') (A") (A") (A') (A') (A") (A') (A')
                 (A") (A') (A') (A") (A') (A") (A') (A') (A") (A')
                 (A') (A') (A') (A') (A") (A") (A") (A") (A') (A")
                 (A') (A") (A') (A') (A") (A") (A') (A") (A') (A')
                 (A") (A') (A") (A") (A') (A') (A') (A") (A') (A')
                 (A') (A") (A') (A") (A') (A") (A') (A') (A') (A')
                 (A") (A') (A") (A') (A') (A') (A') (A") (A") (A')
                 (A') (A') (A") (A') (A') (A") (A') (A") (A") (A')
                 (A') (A") (A') (A') (A") (A') (A') (A') (A') (A")
                 (A") (A') (A") (A') (A') (A") (A') (A") (A") (A')
                 (A') (A") (A') (A") (A") (A') (A") (A') (A') (A')
                 (A') (A') (A') (A') (A") (A") (A') (A') (A') (A')
                 (A') (A') (A') (A') (A')
 Beta  Orbitals:
       Occupied  (A') (A') (A') (A') (A') (A') (A') (A') (A') (A')
                 (A') (A') (A") (A') (A') (A") (A')
       Virtual   (A") (A') (A') (A") (A') (A") (A") (A') (A') (A')
                 (A") (A') (A') (A') (A') (A") (A") (A') (A') (A")
                 (A') (A') (A") (A') (A') (A') (A") (A') (A') (A')
                 (A') (A') (A') (A') (A') (A") (A') (A') (A") (A')
                 (A') (A") (A') (A") (A') (A') (A') (A") (A') (A')
                 (A") (A') (A") (A") (A') (A") (A') (A') (A') (A")
                 (A') (A') (A") (A') (A") (A') (A") (A') (A') (A")
                 (A') (A") (A') (A") (A') (A') (A') (A') (A") (A')
                 (A') (A') (A") (A') (A') (A") (A') (A') (A') (A')
                 (A") (A') (A") (A') (A') (A") (A") (A') (A') (A")
                 (A') (A') (A") (A') (A') (A") (A') (A") (A') (A')
                 (A") (A') (A') (A') (A') (A') (A") (A") (A") (A")
                 (A') (A") (A') (A") (A') (A') (A") (A") (A') (A")
                 (A') (A') (A") (A') (A") (A") (A') (A') (A') (A")
                 (A') (A') (A') (A") (A') (A") (A') (A") (A') (A')
                 (A') (A') (A") (A') (A") (A') (A') (A') (A') (A")
                 (A") (A') (A') (A') (A") (A') (A') (A") (A') (A")
                 (A") (A') (A') (A") (A') (A') (A") (A') (A') (A')
                 (A') (A") (A") (A') (A") (A') (A') (A") (A') (A")
                 (A") (A') (A') (A") (A') (A") (A") (A') (A") (A')
                 (A') (A') (A') (A') (A') (A') (A") (A") (A') (A')
                 (A') (A') (A') (A') (A') (A') (A')
 The electronic state of the initial guess is 3-A".
 Initial guess <Sx>= 0.0000 <Sy>= 0.0000 <Sz>= 1.0000 <S**2>= 2.0000 S= 1.0000
 Leave Link  401 at Tue Aug 16 17:36:13 2016, MaxMem=    33554432 cpu:         2.5
 (Enter /home/proyectos/fulerenos/M3C-v2.0/M3C-deps_CCC/g09-AM64L-G09RevC.01/l502.exe)
 UHF open shell SCF:
 Using DIIS extrapolation, IDIIS=  1040.
 Integral symmetry usage will be decided dynamically.
 IVT=      240848 IEndB=      240848 NGot=    33554432 MDV=    33403395
 LenX=    33403395 LenY=    33330054
 Requested convergence on RMS density matrix=1.00D-08 within 128 cycles.
 Requested convergence on MAX density matrix=1.00D-06.
 Requested convergence on             energy=1.00D-06.
 No special actions if energy rises.
 Fock matrices will be formed incrementally for  20 cycles.

 Cycle   1  Pass 1  IDiag  1:
 FoFJK:  IHMeth= 1 ICntrl=       0 DoSepK=F KAlg= 0 I1Cent=   0 FoldK=F
 IRaf= 990000000 NMat=   1 IRICut=       1 DoRegI=T DoRafI=F ISym2E= 1.
 FoFCou: FMM=F IPFlag=           0 FMFlag=      100000 FMFlg1=           0
         NFxFlg=           0 DoJE=F BraDBF=F KetDBF=F FulRan=T
         wScrn=  0.000000 ICntrl=       0 IOpCl=  1 I1Cent=           0 NGrid=           0
         NMat0=    1 NMatS0=      1 NMatT0=    0 NMatD0=    1 NMtDS0=    0 NMtDT0=    0
 Petite list used in FoFCou.
 E= -244.459001004145    
 DIIS: error= 1.99D-02 at cycle   1 NSaved=   1.
 NSaved= 1 IEnMin= 1 EnMin= -244.459001004145     IErMin= 1 ErrMin= 1.99D-02
 ErrMax= 1.99D-02  0.00D+00 EMaxC= 1.00D-01 BMatC= 3.06D-01 BMatP= 3.06D-01
 IDIUse=3 WtCom= 8.01D-01 WtEn= 1.99D-01
 Coeff-Com:  0.100D+01
 Coeff-En:   0.100D+01
 Coeff:      0.100D+01
 Gap=     0.092 Goal=   None    Shift=    0.000
 Gap=     0.079 Goal=   None    Shift=    0.000
 GapD=    0.079 DampG=0.500 DampE=0.500 DampFc=0.2500 IDamp=-1.
 Damping current iteration by 2.50D-01
 RMSDP=9.65D-03 MaxDP=8.99D-01              OVMax= 4.43D-01

 Cycle   2  Pass 1  IDiag  1:
 RMSU=  2.18D-03    CP:  9.52D-01
 E= -244.476302531362     Delta-E=       -0.017301527217 Rises=F Damp=T
 DIIS: error= 7.43D-03 at cycle   2 NSaved=   2.
 NSaved= 2 IEnMin= 2 EnMin= -244.476302531362     IErMin= 2 ErrMin= 7.43D-03
 ErrMax= 7.43D-03  0.00D+00 EMaxC= 1.00D-01 BMatC= 7.01D-02 BMatP= 3.06D-01
 IDIUse=3 WtCom= 9.26D-01 WtEn= 7.43D-02
 Coeff-Com: -0.231D+00 0.123D+01
 Coeff-En:   0.220D+00 0.780D+00
 Coeff:     -0.197D+00 0.120D+01
 Gap=     0.074 Goal=   None    Shift=    0.000
 Gap=     0.109 Goal=   None    Shift=    0.000
 RMSDP=5.43D-03 MaxDP=4.01D-01 DE=-1.73D-02 OVMax= 3.98D-01

 Cycle   3  Pass 1  IDiag  1:
 RMSU=  5.20D-03    CP:  9.29D-01  1.70D+00
 E= -244.491973519431     Delta-E=       -0.015670988069 Rises=F Damp=F
 DIIS: error= 1.85D-02 at cycle   3 NSaved=   3.
 NSaved= 3 IEnMin= 3 EnMin= -244.491973519431     IErMin= 2 ErrMin= 7.43D-03
 ErrMax= 1.85D-02  0.00D+00 EMaxC= 1.00D-01 BMatC= 1.13D-01 BMatP= 7.01D-02
 IDIUse=2 WtCom= 0.00D+00 WtEn= 1.00D+00
 Coeff-En:   0.000D+00 0.314D+00 0.686D+00
 Coeff:      0.000D+00 0.314D+00 0.686D+00
 Gap=     0.048 Goal=   None    Shift=    0.000
 Gap=     0.111 Goal=   None    Shift=    0.000
 RMSDP=7.06D-03 MaxDP=9.52D-01 DE=-1.57D-02 OVMax= 5.76D-01

 Cycle   4  Pass 1  IDiag  1:
 RMSU=  3.26D-03    CP:  7.89D-01  3.00D+00  1.53D-01
 E= -244.280551637727     Delta-E=        0.211421881704 Rises=F Damp=F
 DIIS: error= 4.73D-02 at cycle   4 NSaved=   4.
 NSaved= 4 IEnMin= 3 EnMin= -244.491973519431     IErMin= 2 ErrMin= 7.43D-03
 ErrMax= 4.73D-02  0.00D+00 EMaxC= 1.00D-01 BMatC= 7.35D-01 BMatP= 7.01D-02
 IDIUse=2 WtCom= 0.00D+00 WtEn= 1.00D+00
 Coeff-En:   0.000D+00 0.000D+00 0.781D+00 0.219D+00
 Coeff:      0.000D+00 0.000D+00 0.781D+00 0.219D+00
 Gap=     0.061 Goal=   None    Shift=    0.000
 Gap=     0.102 Goal=   None    Shift=    0.000
 RMSDP=4.53D-03 MaxDP=6.42D-01 DE= 2.11D-01 OVMax= 3.67D-01

 Cycle   5  Pass 1  IDiag  1:
 RMSU=  1.06D-03    CP:  9.00D-01  2.25D+00  5.88D-01  3.66D-01
 E= -244.513692160799     Delta-E=       -0.233140523072 Rises=F Damp=F
 DIIS: error= 1.35D-02 at cycle   5 NSaved=   5.
 NSaved= 5 IEnMin= 5 EnMin= -244.513692160799     IErMin= 2 ErrMin= 7.43D-03
 ErrMax= 1.35D-02  0.00D+00 EMaxC= 1.00D-01 BMatC= 5.50D-02 BMatP= 7.01D-02
 IDIUse=3 WtCom= 8.65D-01 WtEn= 1.35D-01
 Coeff-Com: -0.602D-01 0.965D-01 0.403D+00-0.173D-01 0.578D+00
 Coeff-En:   0.000D+00 0.000D+00 0.363D+00 0.000D+00 0.637D+00
 Coeff:     -0.521D-01 0.835D-01 0.397D+00-0.150D-01 0.586D+00
 Gap=     0.098 Goal=   None    Shift=    0.000
 Gap=     0.115 Goal=   None    Shift=    0.000
 RMSDP=1.30D-03 MaxDP=1.56D-01 DE=-2.33D-01 OVMax= 1.04D-01

 Cycle   6  Pass 1  IDiag  1:
 RMSU=  3.90D-04    CP:  9.14D-01  2.04D+00  7.84D-01  2.32D-01  8.46D-01
 E= -244.530578566814     Delta-E=       -0.016886406015 Rises=F Damp=F
 DIIS: error= 2.21D-03 at cycle   6 NSaved=   6.
 NSaved= 6 IEnMin= 6 EnMin= -244.530578566814     IErMin= 6 ErrMin= 2.21D-03
 ErrMax= 2.21D-03  0.00D+00 EMaxC= 1.00D-01 BMatC= 3.31D-03 BMatP= 5.50D-02
 IDIUse=3 WtCom= 9.78D-01 WtEn= 2.21D-02
 Coeff-Com: -0.589D-01 0.728D-01 0.154D+00-0.661D-01 0.403D+00 0.495D+00
 Coeff-En:   0.000D+00 0.000D+00 0.000D+00 0.000D+00 0.000D+00 0.100D+01
 Coeff:     -0.576D-01 0.712D-01 0.150D+00-0.646D-01 0.394D+00 0.506D+00
 Gap=     0.105 Goal=   None    Shift=    0.000
 Gap=     0.105 Goal=   None    Shift=    0.000
 RMSDP=3.04D-04 MaxDP=2.86D-02 DE=-1.69D-02 OVMax= 3.24D-02

 Cycle   7  Pass 1  IDiag  1:
 RMSU=  2.23D-04    CP:  9.14D-01  2.07D+00  8.01D-01  1.87D-01  9.35D-01
                    CP:  1.06D+00
 E= -244.531610245512     Delta-E=       -0.001031678699 Rises=F Damp=F
 DIIS: error= 8.42D-04 at cycle   7 NSaved=   7.
 NSaved= 7 IEnMin= 7 EnMin= -244.531610245512     IErMin= 7 ErrMin= 8.42D-04
 ErrMax= 8.42D-04  0.00D+00 EMaxC= 1.00D-01 BMatC= 3.21D-04 BMatP= 3.31D-03
 IDIUse=3 WtCom= 9.92D-01 WtEn= 8.42D-03
 Coeff-Com: -0.750D-03-0.561D-02 0.106D-01-0.138D-01 0.579D-01 0.228D+00
 Coeff-Com:  0.724D+00
 Coeff-En:   0.000D+00 0.000D+00 0.000D+00 0.000D+00 0.000D+00 0.000D+00
 Coeff-En:   0.100D+01
 Coeff:     -0.744D-03-0.556D-02 0.105D-01-0.137D-01 0.574D-01 0.226D+00
 Coeff:      0.726D+00
 Gap=     0.107 Goal=   None    Shift=    0.000
 Gap=     0.106 Goal=   None    Shift=    0.000
 RMSDP=1.79D-04 MaxDP=1.57D-02 DE=-1.03D-03 OVMax= 1.75D-02

 Cycle   8  Pass 1  IDiag  1:
 RMSU=  7.54D-05    CP:  9.13D-01  2.07D+00  8.25D-01  1.81D-01  9.52D-01
                    CP:  1.24D+00  1.30D+00
 E= -244.531836717977     Delta-E=       -0.000226472465 Rises=F Damp=F
 DIIS: error= 5.08D-04 at cycle   8 NSaved=   8.
 NSaved= 8 IEnMin= 8 EnMin= -244.531836717977     IErMin= 8 ErrMin= 5.08D-04
 ErrMax= 5.08D-04  0.00D+00 EMaxC= 1.00D-01 BMatC= 1.62D-04 BMatP= 3.21D-04
 IDIUse=3 WtCom= 9.95D-01 WtEn= 5.08D-03
 Coeff-Com:  0.319D-01-0.468D-01-0.573D-01 0.210D-01-0.127D+00-0.287D-01
 Coeff-Com:  0.514D+00 0.693D+00
 Coeff-En:   0.000D+00 0.000D+00 0.000D+00 0.000D+00 0.000D+00 0.000D+00
 Coeff-En:   0.000D+00 0.100D+01
 Coeff:      0.317D-01-0.466D-01-0.570D-01 0.209D-01-0.127D+00-0.286D-01
 Coeff:      0.512D+00 0.695D+00
 Gap=     0.108 Goal=   None    Shift=    0.000
 Gap=     0.106 Goal=   None    Shift=    0.000
 RMSDP=1.77D-04 MaxDP=1.30D-02 DE=-2.26D-04 OVMax= 1.86D-02

 Cycle   9  Pass 1  IDiag  1:
 RMSU=  5.50D-05    CP:  9.12D-01  2.07D+00  8.41D-01  1.71D-01  9.84D-01
                    CP:  1.48D+00  1.71D+00  1.43D+00
 E= -244.531994084200     Delta-E=       -0.000157366223 Rises=F Damp=F
 DIIS: error= 4.50D-04 at cycle   9 NSaved=   9.
 NSaved= 9 IEnMin= 9 EnMin= -244.531994084200     IErMin= 9 ErrMin= 4.50D-04
 ErrMax= 4.50D-04  0.00D+00 EMaxC= 1.00D-01 BMatC= 5.14D-05 BMatP= 1.62D-04
 IDIUse=3 WtCom= 9.95D-01 WtEn= 4.50D-03
 Coeff-Com:  0.233D-01-0.320D-01-0.409D-01 0.178D-01-0.909D-01-0.642D-01
 Coeff-Com:  0.136D+00 0.353D+00 0.698D+00
 Coeff-En:   0.000D+00 0.000D+00 0.000D+00 0.000D+00 0.000D+00 0.000D+00
 Coeff-En:   0.000D+00 0.000D+00 0.100D+01
 Coeff:      0.232D-01-0.319D-01-0.407D-01 0.177D-01-0.905D-01-0.639D-01
 Coeff:      0.136D+00 0.351D+00 0.699D+00
 Gap=     0.109 Goal=   None    Shift=    0.000
 Gap=     0.107 Goal=   None    Shift=    0.000
 RMSDP=1.00D-04 MaxDP=6.75D-03 DE=-1.57D-04 OVMax= 1.05D-02

 Cycle  10  Pass 1  IDiag  1:
 RMSU=  3.69D-05    CP:  9.11D-01  2.07D+00  8.50D-01  1.67D-01  1.00D+00
                    CP:  1.59D+00  1.94D+00  1.89D+00  1.24D+00
 E= -244.532061856586     Delta-E=       -0.000067772386 Rises=F Damp=F
 DIIS: error= 3.41D-04 at cycle  10 NSaved=  10.
 NSaved=10 IEnMin=10 EnMin= -244.532061856586     IErMin=10 ErrMin= 3.41D-04
 ErrMax= 3.41D-04  0.00D+00 EMaxC= 1.00D-01 BMatC= 3.98D-05 BMatP= 5.14D-05
 IDIUse=3 WtCom= 9.97D-01 WtEn= 3.41D-03
 Coeff-Com:  0.370D-02-0.319D-02-0.528D-02 0.367D-02-0.445D-02-0.404D-01
 Coeff-Com: -0.183D+00-0.152D+00 0.697D+00 0.684D+00
 Coeff-En:   0.000D+00 0.000D+00 0.000D+00 0.000D+00 0.000D+00 0.000D+00
 Coeff-En:   0.000D+00 0.000D+00 0.000D+00 0.100D+01
 Coeff:      0.369D-02-0.318D-02-0.526D-02 0.366D-02-0.444D-02-0.402D-01
 Coeff:     -0.183D+00-0.152D+00 0.695D+00 0.685D+00
 Gap=     0.110 Goal=   None    Shift=    0.000
 Gap=     0.107 Goal=   None    Shift=    0.000
 RMSDP=1.08D-04 MaxDP=7.90D-03 DE=-6.78D-05 OVMax= 1.03D-02

 Cycle  11  Pass 1  IDiag  1:
 RMSU=  2.83D-05    CP:  9.10D-01  2.07D+00  8.57D-01  1.64D-01  1.02D+00
                    CP:  1.72D+00  2.18D+00  2.40D+00  2.07D+00  1.22D+00
 E= -244.532121409758     Delta-E=       -0.000059553173 Rises=F Damp=F
 DIIS: error= 1.63D-04 at cycle  11 NSaved=  11.
 NSaved=11 IEnMin=11 EnMin= -244.532121409758     IErMin=11 ErrMin= 1.63D-04
 ErrMax= 1.63D-04  0.00D+00 EMaxC= 1.00D-01 BMatC= 1.13D-05 BMatP= 3.98D-05
 IDIUse=3 WtCom= 9.98D-01 WtEn= 1.63D-03
 Coeff-Com: -0.400D-02 0.599D-02 0.125D-01-0.393D-02 0.273D-01-0.123D-02
 Coeff-Com: -0.734D-01-0.193D+00-0.168D-01 0.318D+00 0.928D+00
 Coeff-En:   0.000D+00 0.000D+00 0.000D+00 0.000D+00 0.000D+00 0.000D+00
 Coeff-En:   0.000D+00 0.000D+00 0.000D+00 0.000D+00 0.100D+01
 Coeff:     -0.399D-02 0.598D-02 0.125D-01-0.392D-02 0.273D-01-0.123D-02
 Coeff:     -0.733D-01-0.193D+00-0.168D-01 0.318D+00 0.928D+00
 Gap=     0.111 Goal=   None    Shift=    0.000
 Gap=     0.107 Goal=   None    Shift=    0.000
 RMSDP=6.74D-05 MaxDP=3.60D-03 DE=-5.96D-05 OVMax= 5.94D-03

 Cycle  12  Pass 1  IDiag  1:
 RMSU=  1.75D-05    CP:  9.10D-01  2.07D+00  8.60D-01  1.61D-01  1.03D+00
                    CP:  1.77D+00  2.30D+00  2.71D+00  2.60D+00  1.91D+00
                    CP:  1.75D+00
 E= -244.532152062588     Delta-E=       -0.000030652829 Rises=F Damp=F
 DIIS: error= 1.12D-04 at cycle  12 NSaved=  12.
 NSaved=12 IEnMin=12 EnMin= -244.532152062588     IErMin=12 ErrMin= 1.12D-04
 ErrMax= 1.12D-04  0.00D+00 EMaxC= 1.00D-01 BMatC= 6.38D-06 BMatP= 1.13D-05
 IDIUse=3 WtCom= 9.99D-01 WtEn= 1.12D-03
 Coeff-Com:  0.134D-02-0.183D-02 0.131D-02 0.821D-04-0.487D-02-0.125D-02
 Coeff-Com:  0.789D-01 0.349D-01-0.195D+00-0.157D+00-0.623D-01 0.131D+01
 Coeff-En:   0.000D+00 0.000D+00 0.000D+00 0.000D+00 0.000D+00 0.000D+00
 Coeff-En:   0.000D+00 0.000D+00 0.000D+00 0.000D+00 0.000D+00 0.100D+01
 Coeff:      0.134D-02-0.183D-02 0.131D-02 0.820D-04-0.487D-02-0.125D-02
 Coeff:      0.788D-01 0.349D-01-0.195D+00-0.157D+00-0.622D-01 0.131D+01
 Gap=     0.111 Goal=   None    Shift=    0.000
 Gap=     0.107 Goal=   None    Shift=    0.000
 RMSDP=6.47D-05 MaxDP=3.81D-03 DE=-3.07D-05 OVMax= 7.13D-03

 Cycle  13  Pass 1  IDiag  1:
 RMSU=  1.39D-05    CP:  9.10D-01  2.07D+00  8.63D-01  1.60D-01  1.03D+00
                    CP:  1.79D+00  2.35D+00  2.96D+00  3.00D+00  2.66D+00
                    CP:  2.90D+00  2.33D+00
 E= -244.532180112955     Delta-E=       -0.000028050368 Rises=F Damp=F
 DIIS: error= 7.40D-05 at cycle  13 NSaved=  13.
 NSaved=13 IEnMin=13 EnMin= -244.532180112955     IErMin=13 ErrMin= 7.40D-05
 ErrMax= 7.40D-05  0.00D+00 EMaxC= 1.00D-01 BMatC= 4.86D-06 BMatP= 6.38D-06
 IDIUse=1 WtCom= 1.00D+00 WtEn= 0.00D+00
 Coeff-Com:  0.398D-03-0.588D-03-0.274D-02 0.617D-03-0.351D-02-0.409D-03
 Coeff-Com:  0.684D-02-0.262D-04 0.523D-01-0.120D-01-0.148D+00-0.219D+00
 Coeff-Com:  0.133D+01
 Coeff:      0.398D-03-0.588D-03-0.274D-02 0.617D-03-0.351D-02-0.409D-03
 Coeff:      0.684D-02-0.262D-04 0.523D-01-0.120D-01-0.148D+00-0.219D+00
 Coeff:      0.133D+01
 Gap=     0.111 Goal=   None    Shift=    0.000
 Gap=     0.108 Goal=   None    Shift=    0.000
 RMSDP=5.80D-05 MaxDP=3.63D-03 DE=-2.81D-05 OVMax= 6.78D-03

 Cycle  14  Pass 1  IDiag  1:
 RMSU=  3.80D-05    CP:  9.09D-01  2.07D+00  8.63D-01  1.61D-01  1.03D+00
                    CP:  1.80D+00  2.37D+00  3.00D+00  3.00D+00  3.00D+00
                    CP:  3.00D+00  3.00D+00  2.88D+00
 E= -244.532204657353     Delta-E=       -0.000024544397 Rises=F Damp=F
 DIIS: error= 7.20D-05 at cycle  14 NSaved=  14.
 NSaved=14 IEnMin=14 EnMin= -244.532204657353     IErMin=14 ErrMin= 7.20D-05
 ErrMax= 7.20D-05  0.00D+00 EMaxC= 1.00D-01 BMatC= 4.58D-06 BMatP= 4.86D-06
 IDIUse=1 WtCom= 1.00D+00 WtEn= 0.00D+00
 Coeff-Com: -0.157D-02 0.291D-02 0.181D-03-0.355D-03 0.442D-02-0.153D-02
 Coeff-Com: -0.632D-01-0.177D-01 0.588D-01 0.155D+00 0.204D+00-0.485D+00
 Coeff-Com: -0.262D+01 0.377D+01
 Coeff:     -0.157D-02 0.291D-02 0.181D-03-0.355D-03 0.442D-02-0.153D-02
 Coeff:     -0.632D-01-0.177D-01 0.588D-01 0.155D+00 0.204D+00-0.485D+00
 Coeff:     -0.262D+01 0.377D+01
 Gap=     0.111 Goal=   None    Shift=    0.000
 Gap=     0.108 Goal=   None    Shift=    0.000
 RMSDP=1.84D-04 MaxDP=1.14D-02 DE=-2.45D-05 OVMax= 2.13D-02

 Cycle  15  Pass 1  IDiag  1:
 RMSU=  1.22D-04    CP:  9.08D-01  2.07D+00  8.65D-01  1.65D-01  1.03D+00
                    CP:  1.81D+00  2.39D+00  3.00D+00  3.00D+00  3.00D+00
                    CP:  3.00D+00  3.00D+00  3.00D+00  3.00D+00
 E= -244.532276961572     Delta-E=       -0.000072304219 Rises=F Damp=F
 DIIS: error= 6.59D-05 at cycle  15 NSaved=  15.
 NSaved=15 IEnMin=15 EnMin= -244.532276961572     IErMin=15 ErrMin= 6.59D-05
 ErrMax= 6.59D-05  0.00D+00 EMaxC= 1.00D-01 BMatC= 3.80D-06 BMatP= 4.58D-06
 IDIUse=1 WtCom= 1.00D+00 WtEn= 0.00D+00
 Coeff-Com:  0.241D-02-0.279D-02 0.664D-02-0.500D-03-0.524D-03 0.439D-02
 Coeff-Com:  0.618D-01 0.121D+00-0.390D+00-0.280D+00 0.139D+00 0.247D+01
 Coeff-Com: -0.348D+01-0.167D+01 0.403D+01
 Coeff:      0.241D-02-0.279D-02 0.664D-02-0.500D-03-0.524D-03 0.439D-02
 Coeff:      0.618D-01 0.121D+00-0.390D+00-0.280D+00 0.139D+00 0.247D+01
 Coeff:     -0.348D+01-0.167D+01 0.403D+01
 Gap=     0.113 Goal=   None    Shift=    0.000
 Gap=     0.110 Goal=   None    Shift=    0.000
 RMSDP=5.51D-04 MaxDP=3.30D-02 DE=-7.23D-05 OVMax= 6.24D-02

 Cycle  16  Pass 1  IDiag  1:
 RMSU=  3.17D-04    CP:  9.03D-01  2.05D+00  8.71D-01  1.70D-01  1.05D+00
                    CP:  1.90D+00  2.49D+00  3.00D+00  3.00D+00  3.00D+00
                    CP:  3.00D+00  3.00D+00  3.00D+00  3.00D+00  3.00D+00
 E= -244.532389323186     Delta-E=       -0.000112361614 Rises=F Damp=F
 DIIS: error= 7.65D-05 at cycle  16 NSaved=  16.
 NSaved=16 IEnMin=16 EnMin= -244.532389323186     IErMin=15 ErrMin= 6.59D-05
 ErrMax= 7.65D-05  0.00D+00 EMaxC= 1.00D-01 BMatC= 4.26D-06 BMatP= 3.80D-06
 IDIUse=1 WtCom= 1.00D+00 WtEn= 0.00D+00
 Coeff-Com:  0.677D-04 0.146D-02-0.190D-02 0.273D-03-0.533D-02 0.346D-02
 Coeff-Com:  0.104D-01 0.422D-01-0.896D-01-0.742D-01 0.147D-02 0.520D+00
 Coeff-Com: -0.163D+01 0.246D+01-0.979D+00 0.740D+00
 Coeff:      0.677D-04 0.146D-02-0.190D-02 0.273D-03-0.533D-02 0.346D-02
 Coeff:      0.104D-01 0.422D-01-0.896D-01-0.742D-01 0.147D-02 0.520D+00
 Coeff:     -0.163D+01 0.246D+01-0.979D+00 0.740D+00
 Gap=     0.112 Goal=   None    Shift=    0.000
 Gap=     0.109 Goal=   None    Shift=    0.000
 RMSDP=3.04D-04 MaxDP=1.77D-02 DE=-1.12D-04 OVMax= 3.42D-02

 Cycle  17  Pass 1  IDiag  1:
 RMSU=  7.63D-05    CP:  9.06D-01  2.06D+00  8.66D-01  1.70D-01  1.05D+00
                    CP:  1.88D+00  2.46D+00  3.00D+00  3.00D+00  3.00D+00
                    CP:  3.00D+00  3.00D+00  3.00D+00  3.00D+00  2.87D+00
                    CP:  1.52D-01
 E= -244.532354704129     Delta-E=        0.000034619057 Rises=F Damp=F
 DIIS: error= 5.72D-05 at cycle  17 NSaved=  17.
 NSaved=17 IEnMin=16 EnMin= -244.532389323186     IErMin=17 ErrMin= 5.72D-05
 ErrMax= 5.72D-05  0.00D+00 EMaxC= 1.00D-01 BMatC= 2.46D-06 BMatP= 3.80D-06
 IDIUse=1 WtCom= 1.00D+00 WtEn= 0.00D+00
 Coeff-Com: -0.636D-04 0.359D-03-0.180D-02 0.231D-03-0.330D-02-0.996D-03
 Coeff-Com:  0.645D-02 0.198D-01 0.117D-01-0.585D-01-0.780D-01-0.217D-01
 Coeff-Com:  0.750D+00-0.326D+00-0.915D+00 0.646D+00 0.971D+00
 Coeff:     -0.636D-04 0.359D-03-0.180D-02 0.231D-03-0.330D-02-0.996D-03
 Coeff:      0.645D-02 0.198D-01 0.117D-01-0.585D-01-0.780D-01-0.217D-01
 Coeff:      0.750D+00-0.326D+00-0.915D+00 0.646D+00 0.971D+00
 Gap=     0.113 Goal=   None    Shift=    0.000
 Gap=     0.110 Goal=   None    Shift=    0.000
 RMSDP=2.72D-04 MaxDP=1.61D-02 DE= 3.46D-05 OVMax= 3.06D-02

 Cycle  18  Pass 1  IDiag  1:
 RMSU=  1.70D-05    CP:  9.04D-01  2.05D+00  8.70D-01  1.72D-01  1.06D+00
                    CP:  1.94D+00  2.53D+00  3.00D+00  3.00D+00  3.00D+00
                    CP:  3.00D+00  3.00D+00  3.00D+00  3.00D+00  3.00D+00
                    CP:  9.15D-01  3.04D-01
 E= -244.532391222570     Delta-E=       -0.000036518441 Rises=F Damp=F
 DIIS: error= 1.04D-05 at cycle  18 NSaved=  18.
 NSaved=18 IEnMin=18 EnMin= -244.532391222570     IErMin=18 ErrMin= 1.04D-05
 ErrMax= 1.04D-05  0.00D+00 EMaxC= 1.00D-01 BMatC= 3.76D-08 BMatP= 2.46D-06
 IDIUse=1 WtCom= 1.00D+00 WtEn= 0.00D+00
 Coeff-Com: -0.245D-03 0.268D-03-0.466D-03 0.406D-04 0.216D-04 0.857D-03
 Coeff-Com: -0.594D-02-0.356D-02 0.150D-01 0.119D-01-0.194D-01-0.965D-01
 Coeff-Com:  0.243D+00 0.288D-01-0.268D+00 0.635D-01 0.803D-01 0.950D+00
 Coeff:     -0.245D-03 0.268D-03-0.466D-03 0.406D-04 0.216D-04 0.857D-03
 Coeff:     -0.594D-02-0.356D-02 0.150D-01 0.119D-01-0.194D-01-0.965D-01
 Coeff:      0.243D+00 0.288D-01-0.268D+00 0.635D-01 0.803D-01 0.950D+00
 Gap=     0.113 Goal=   None    Shift=    0.000
 Gap=     0.110 Goal=   None    Shift=    0.000
 RMSDP=5.84D-06 MaxDP=3.71D-04 DE=-3.65D-05 OVMax= 6.40D-04

 Cycle  19  Pass 1  IDiag  1:
 RMSU=  8.79D-07    CP:  9.04D-01  2.05D+00  8.70D-01  1.72D-01  1.06D+00
                    CP:  1.94D+00  2.53D+00  3.00D+00  3.00D+00  3.00D+00
                    CP:  3.00D+00  3.00D+00  3.00D+00  3.00D+00  3.00D+00
                    CP:  8.99D-01  3.30D-01  1.04D+00
 E= -244.532391174972     Delta-E=        0.000000047598 Rises=F Damp=F
 DIIS: error= 6.08D-06 at cycle  19 NSaved=  19.
 NSaved=19 IEnMin=18 EnMin= -244.532391222570     IErMin=19 ErrMin= 6.08D-06
 ErrMax= 6.08D-06  0.00D+00 EMaxC= 1.00D-01 BMatC= 2.11D-08 BMatP= 3.76D-08
 IDIUse=1 WtCom= 1.00D+00 WtEn= 0.00D+00
 Coeff-Com: -0.771D-04 0.103D-03-0.660D-04 0.182D-06-0.208D-03 0.383D-03
 Coeff-Com:  0.132D-02 0.227D-02-0.330D-02-0.724D-03-0.537D-03 0.138D-01
 Coeff-Com: -0.514D-02-0.267D-01 0.715D-01-0.178D-01-0.150D+00-0.594D-01
 Coeff-Com:  0.117D+01
 Coeff:     -0.771D-04 0.103D-03-0.660D-04 0.182D-06-0.208D-03 0.383D-03
 Coeff:      0.132D-02 0.227D-02-0.330D-02-0.724D-03-0.537D-03 0.138D-01
 Coeff:     -0.514D-02-0.267D-01 0.715D-01-0.178D-01-0.150D+00-0.594D-01
 Coeff:      0.117D+01
 Gap=     0.113 Goal=   None    Shift=    0.000
 Gap=     0.110 Goal=   None    Shift=    0.000
 RMSDP=1.38D-05 MaxDP=8.01D-04 DE= 4.76D-08 OVMax= 1.54D-03

 Cycle  20  Pass 1  IDiag  1:
 RMSU=  6.05D-07    CP:  9.04D-01  2.05D+00  8.70D-01  1.72D-01  1.06D+00
                    CP:  1.94D+00  2.53D+00  3.00D+00  3.00D+00  3.00D+00
                    CP:  3.00D+00  3.00D+00  3.00D+00  3.00D+00  3.00D+00
                    CP:  9.40D-01  2.83D-01  1.06D+00  1.28D+00
 E= -244.532391279913     Delta-E=       -0.000000104941 Rises=F Damp=F
 DIIS: error= 1.18D-06 at cycle  20 NSaved=  20.
 NSaved=20 IEnMin=20 EnMin= -244.532391279913     IErMin=20 ErrMin= 1.18D-06
 ErrMax= 1.18D-06  0.00D+00 EMaxC= 1.00D-01 BMatC= 9.73D-10 BMatP= 2.11D-08
 IDIUse=1 WtCom= 1.00D+00 WtEn= 0.00D+00
 Coeff-Com: -0.405D-04 0.649D-04-0.137D-04-0.619D-05-0.420D-04 0.998D-04
 Coeff-Com:  0.445D-03 0.473D-03-0.128D-02-0.300D-03 0.210D-02 0.640D-02
 Coeff-Com: -0.206D-01 0.121D-01 0.259D-01-0.824D-02-0.510D-01-0.134D+00
 Coeff-Com:  0.283D+00 0.885D+00
 Coeff:     -0.405D-04 0.649D-04-0.137D-04-0.619D-05-0.420D-04 0.998D-04
 Coeff:      0.445D-03 0.473D-03-0.128D-02-0.300D-03 0.210D-02 0.640D-02
 Coeff:     -0.206D-01 0.121D-01 0.259D-01-0.824D-02-0.510D-01-0.134D+00
 Coeff:      0.283D+00 0.885D+00
 Gap=     0.113 Goal=   None    Shift=    0.000
 Gap=     0.110 Goal=   None    Shift=    0.000
 RMSDP=1.73D-06 MaxDP=1.03D-04 DE=-1.05D-07 OVMax= 1.97D-04

 Cycle  21  Pass 1  IDiag  1:
 Restarting incremental Fock formation.
 E= -244.532391279210     Delta-E=        0.000000000703 Rises=F Damp=F
 DIIS: error= 6.91D-07 at cycle  21 NSaved=  20.
 NSaved=20 IEnMin=19 EnMin= -244.532391279913     IErMin=20 ErrMin= 6.91D-07
 ErrMax= 6.91D-07  0.00D+00 EMaxC= 1.00D-01 BMatC= 3.05D-10 BMatP= 9.73D-10
 IDIUse=1 WtCom= 1.00D+00 WtEn= 0.00D+00
 Coeff-Com: -0.231D-05 0.314D-05 0.114D-05 0.171D-04-0.323D-04-0.161D-03
 Coeff-Com: -0.271D-03 0.288D-03-0.429D-04 0.188D-04-0.121D-02 0.171D-02
 Coeff-Com:  0.182D-02-0.669D-02 0.549D-02 0.957D-02-0.166D-01-0.143D+00
 Coeff-Com:  0.134D+00 0.102D+01
 Coeff:     -0.231D-05 0.314D-05 0.114D-05 0.171D-04-0.323D-04-0.161D-03
 Coeff:     -0.271D-03 0.288D-03-0.429D-04 0.188D-04-0.121D-02 0.171D-02
 Coeff:      0.182D-02-0.669D-02 0.549D-02 0.957D-02-0.166D-01-0.143D+00
 Coeff:      0.134D+00 0.102D+01
 Gap=     0.113 Goal=   None    Shift=    0.000
 Gap=     0.110 Goal=   None    Shift=    0.000
 RMSDP=1.66D-06 MaxDP=9.67D-05 DE= 7.03D-10 OVMax= 1.85D-04

 Cycle  22  Pass 1  IDiag  1:
 RMSU=  1.64D-06    CP:  1.00D+00
 E= -244.532391280585     Delta-E=       -0.000000001375 Rises=F Damp=F
 DIIS: error= 2.35D-07 at cycle  22 NSaved=  20.
 NSaved=20 IEnMin=20 EnMin= -244.532391280585     IErMin=20 ErrMin= 2.35D-07
 ErrMax= 2.35D-07  0.00D+00 EMaxC= 1.00D-01 BMatC= 1.64D-11 BMatP= 3.05D-10
 IDIUse=1 WtCom= 1.00D+00 WtEn= 0.00D+00
 Coeff-Com:  0.132D-06 0.447D-05-0.263D-05-0.250D-04-0.899D-04 0.811D-04
 Coeff-Com:  0.259D-03 0.305D-03-0.379D-03-0.174D-02 0.234D-02 0.482D-03
 Coeff-Com: -0.324D-02-0.649D-03 0.413D-02 0.208D-01-0.423D-02-0.120D+00
 Coeff-Com: -0.193D+00 0.130D+01
 Coeff:      0.132D-06 0.447D-05-0.263D-05-0.250D-04-0.899D-04 0.811D-04
 Coeff:      0.259D-03 0.305D-03-0.379D-03-0.174D-02 0.234D-02 0.482D-03
 Coeff:     -0.324D-02-0.649D-03 0.413D-02 0.208D-01-0.423D-02-0.120D+00
 Coeff:     -0.193D+00 0.130D+01
 Gap=     0.113 Goal=   None    Shift=    0.000
 Gap=     0.110 Goal=   None    Shift=    0.000
 RMSDP=1.30D-07 MaxDP=6.95D-06 DE=-1.38D-09 OVMax= 1.27D-05

 Cycle  23  Pass 1  IDiag  1:
 RMSU=  4.33D-08    CP:  1.00D+00  9.26D-01
 E= -244.532391280604     Delta-E=       -0.000000000019 Rises=F Damp=F
 DIIS: error= 4.28D-08 at cycle  23 NSaved=  20.
 NSaved=20 IEnMin=20 EnMin= -244.532391280604     IErMin=20 ErrMin= 4.28D-08
 ErrMax= 4.28D-08  0.00D+00 EMaxC= 1.00D-01 BMatC= 8.71D-13 BMatP= 1.64D-11
 IDIUse=1 WtCom= 1.00D+00 WtEn= 0.00D+00
 Coeff-Com:  0.797D-07 0.277D-05 0.636D-05-0.276D-04-0.138D-04 0.559D-04
 Coeff-Com:  0.772D-04 0.787D-04-0.549D-03 0.271D-03 0.963D-03-0.587D-03
 Coeff-Com: -0.220D-03-0.116D-02 0.411D-03 0.176D-01-0.964D-02-0.101D+00
 Coeff-Com: -0.847D-01 0.118D+01
 Coeff:      0.797D-07 0.277D-05 0.636D-05-0.276D-04-0.138D-04 0.559D-04
 Coeff:      0.772D-04 0.787D-04-0.549D-03 0.271D-03 0.963D-03-0.587D-03
 Coeff:     -0.220D-03-0.116D-02 0.411D-03 0.176D-01-0.964D-02-0.101D+00
 Coeff:     -0.847D-01 0.118D+01
 Gap=     0.113 Goal=   None    Shift=    0.000
 Gap=     0.110 Goal=   None    Shift=    0.000
 RMSDP=7.37D-08 MaxDP=4.05D-06 DE=-1.91D-11 OVMax= 7.54D-06

 Cycle  24  Pass 1  IDiag  1:
 RMSU=  1.95D-08    CP:  1.00D+00  8.84D-01  1.32D+00
 E= -244.532391280605     Delta-E=       -0.000000000001 Rises=F Damp=F
 DIIS: error= 3.85D-08 at cycle  24 NSaved=  20.
 NSaved=20 IEnMin=20 EnMin= -244.532391280605     IErMin=20 ErrMin= 3.85D-08
 ErrMax= 3.85D-08  0.00D+00 EMaxC= 1.00D-01 BMatC= 9.56D-13 BMatP= 8.71D-13
 IDIUse=1 WtCom= 1.00D+00 WtEn= 0.00D+00
 Coeff-Com:  0.270D-06 0.165D-05 0.918D-05-0.505D-05-0.238D-04-0.178D-04
 Coeff-Com:  0.367D-04 0.750D-04 0.105D-03-0.136D-03-0.474D-04 0.460D-03
 Coeff-Com: -0.483D-03-0.190D-02-0.181D-02 0.110D-01 0.228D-01-0.794D-01
 Coeff-Com: -0.238D+00 0.129D+01
 Coeff:      0.270D-06 0.165D-05 0.918D-05-0.505D-05-0.238D-04-0.178D-04
 Coeff:      0.367D-04 0.750D-04 0.105D-03-0.136D-03-0.474D-04 0.460D-03
 Coeff:     -0.483D-03-0.190D-02-0.181D-02 0.110D-01 0.228D-01-0.794D-01
 Coeff:     -0.238D+00 0.129D+01
 Gap=     0.113 Goal=   None    Shift=    0.000
 Gap=     0.110 Goal=   None    Shift=    0.000
 RMSDP=1.02D-07 MaxDP=5.89D-06 DE=-9.66D-13 OVMax= 1.14D-05

 Cycle  25  Pass 1  IDiag  1:
 RMSU=  7.22D-09    CP:  1.00D+00  9.45D-01  1.35D+00  1.11D+00
 E= -244.532391280606     Delta-E=       -0.000000000001 Rises=F Damp=F
 DIIS: error= 5.13D-09 at cycle  25 NSaved=  20.
 NSaved=20 IEnMin=20 EnMin= -244.532391280606     IErMin=20 ErrMin= 5.13D-09
 ErrMax= 5.13D-09  0.00D+00 EMaxC= 1.00D-01 BMatC= 1.73D-14 BMatP= 8.71D-13
 IDIUse=1 WtCom= 1.00D+00 WtEn= 0.00D+00
 Coeff-Com: -0.601D-06-0.143D-05 0.391D-06 0.421D-06 0.636D-05 0.330D-05
 Coeff-Com: -0.192D-04-0.473D-04 0.890D-04-0.135D-04-0.208D-04 0.955D-04
 Coeff-Com: -0.566D-06-0.122D-02 0.832D-03 0.636D-02 0.183D-01-0.137D+00
 Coeff-Com: -0.508D-01 0.116D+01
 Coeff:     -0.601D-06-0.143D-05 0.391D-06 0.421D-06 0.636D-05 0.330D-05
 Coeff:     -0.192D-04-0.473D-04 0.890D-04-0.135D-04-0.208D-04 0.955D-04
 Coeff:     -0.566D-06-0.122D-02 0.832D-03 0.636D-02 0.183D-01-0.137D+00
 Coeff:     -0.508D-01 0.116D+01
 Gap=     0.113 Goal=   None    Shift=    0.000
 Gap=     0.110 Goal=   None    Shift=    0.000
 RMSDP=2.06D-08 MaxDP=1.19D-06 DE=-1.08D-12 OVMax= 2.25D-06

 Cycle  26  Pass 1  IDiag  1:
 RMSU=  1.88D-09    CP:  1.00D+00  9.33D-01  1.40D+00  1.24D+00  9.97D-01
 E= -244.532391280609     Delta-E=       -0.000000000003 Rises=F Damp=F
 DIIS: error= 2.90D-09 at cycle  26 NSaved=  20.
 NSaved=20 IEnMin=20 EnMin= -244.532391280609     IErMin=20 ErrMin= 2.90D-09
 ErrMax= 2.90D-09  0.00D+00 EMaxC= 1.00D-01 BMatC= 7.57D-15 BMatP= 1.73D-14
 IDIUse=1 WtCom= 1.00D+00 WtEn= 0.00D+00
 Large coefficients: NSaved= 20 BigCof=    0.00 CofMax=   10.00 Det=-2.77D-15
 Inversion failed.  Reducing to 19 matrices.
 Large coefficients: NSaved= 19 BigCof=    0.00 CofMax=   10.00 Det=-2.78D-15
 Inversion failed.  Reducing to 18 matrices.
 Large coefficients: NSaved= 18 BigCof=    0.00 CofMax=   10.00 Det=-2.79D-15
 Inversion failed.  Reducing to 17 matrices.
 Large coefficients: NSaved= 17 BigCof=    0.00 CofMax=   10.00 Det=-2.81D-15
 Inversion failed.  Reducing to 16 matrices.
 Large coefficients: NSaved= 16 BigCof=    0.00 CofMax=   10.00 Det=-2.94D-15
 Inversion failed.  Reducing to 15 matrices.
 Coeff-Com: -0.104D-04 0.309D-04-0.130D-04-0.110D-04-0.824D-05 0.656D-05
 Coeff-Com:  0.234D-04 0.459D-04 0.301D-04 0.271D-04 0.794D-02-0.113D-01
 Coeff-Com: -0.104D+00 0.786D-01 0.103D+01
 Coeff:     -0.104D-04 0.309D-04-0.130D-04-0.110D-04-0.824D-05 0.656D-05
 Coeff:      0.234D-04 0.459D-04 0.301D-04 0.271D-04 0.794D-02-0.113D-01
 Coeff:     -0.104D+00 0.786D-01 0.103D+01
 Gap=     0.113 Goal=   None    Shift=    0.000
 Gap=     0.110 Goal=   None    Shift=    0.000
 RMSDP=8.29D-09 MaxDP=4.72D-07 DE=-2.84D-12 OVMax= 9.16D-07

 SCF Done:  E(UB3LYP) =  -244.532391281     A.U. after   26 cycles
            NFock= 26  Conv=0.83D-08     -V/T= 2.0040
 <Sx>= 0.0000 <Sy>= 0.0000 <Sz>= 1.0000 <S**2>= 2.1015 S= 1.0335
 <L.S>= 0.000000000000E+00
 KE= 2.435493777348D+02 PE=-8.815382894789D+02 EE= 2.319478858284D+02
 Annihilation of the first spin contaminant:
 S**2 before annihilation     2.1015,   after     2.0031
 Leave Link  502 at Tue Aug 16 18:03:21 2016, MaxMem=    33554432 cpu:      1613.5
 (Enter /home/proyectos/fulerenos/M3C-v2.0/M3C-deps_CCC/g09-AM64L-G09RevC.01/l801.exe)
 DoSCS=F DFT=T ScalE2(SS,OS)=  1.000000  1.000000
 Range of M.O.s used for correlation:     1   234
 NBasis=   234 NAE=    19 NBE=    17 NFC=     0 NFV=     0
 NROrb=    234 NOA=    19 NOB=    17 NVA=   215 NVB=   217

 **** Warning!!: The largest alpha MO coefficient is  0.11354263D+03


 **** Warning!!: The largest beta MO coefficient is  0.11660008D+03

 Leave Link  801 at Tue Aug 16 18:03:21 2016, MaxMem=    33554432 cpu:         0.0
 (Enter /home/proyectos/fulerenos/M3C-v2.0/M3C-deps_CCC/g09-AM64L-G09RevC.01/l1101.exe)
 Using compressed storage, NAtomX=     6.
 Will process      7 centers per pass.
 Leave Link 1101 at Tue Aug 16 18:03:22 2016, MaxMem=    33554432 cpu:         0.5
 (Enter /home/proyectos/fulerenos/M3C-v2.0/M3C-deps_CCC/g09-AM64L-G09RevC.01/l1102.exe)
 Symmetrizing basis deriv contribution to polar:
 IMax=3 JMax=2 DiffMx= 0.00D+00
 Leave Link 1102 at Tue Aug 16 18:03:22 2016, MaxMem=    33554432 cpu:         0.1
 (Enter /home/proyectos/fulerenos/M3C-v2.0/M3C-deps_CCC/g09-AM64L-G09RevC.01/l1110.exe)
 Forming Gx(P) for the SCF density, NAtomX=     6.
 Integral derivatives from FoFJK, PRISM(SPDF).
 Do as many integral derivatives as possible in FoFJK.
 G2DrvN: MDV=      33554280.
 G2DrvN: will do     7 centers at a time, making    1 passes.
 Calling FoFCou, ICntrl=  3107 FMM=F I1Cent=   0 AccDes= 0.00D+00.
 FoFJK:  IHMeth= 1 ICntrl=    3107 DoSepK=F KAlg= 0 I1Cent=   0 FoldK=F
 IRaf=         0 NMat=   1 IRICut=       1 DoRegI=T DoRafI=F ISym2E= 1.
 FoFCou: FMM=F IPFlag=           0 FMFlag=      100000 FMFlg1=           0
         NFxFlg=           0 DoJE=F BraDBF=F KetDBF=F FulRan=T
         wScrn=  0.000000 ICntrl=    3107 IOpCl=  1 I1Cent=           0 NGrid=           0
         NMat0=    1 NMatS0=      1 NMatT0=    0 NMatD0=    1 NMtDS0=    0 NMtDT0=    0
 Petite list used in FoFCou.
 End of G2Drv F.D. properties file   721 does not exist.
 End of G2Drv F.D. properties file   722 does not exist.
 End of G2Drv F.D. properties file   788 does not exist.
 Leave Link 1110 at Tue Aug 16 18:12:08 2016, MaxMem=    33554432 cpu:       525.4
 (Enter /home/proyectos/fulerenos/M3C-v2.0/M3C-deps_CCC/g09-AM64L-G09RevC.01/l1002.exe)
 Minotr:  UHF open shell wavefunction.
          IDoAtm=111111
          Direct CPHF calculation.
          Differentiating once with respect to electric field.
                with respect to dipole field.
          Differentiating once with respect to nuclear coordinates.
          Using symmetry in CPHF.
          Requested convergence is 1.0D-08 RMS, and 1.0D-07 maximum.
          Secondary convergence is 1.0D-12 RMS, and 1.0D-12 maximum.
          NewPWx=T KeepS1=F KeepF1=F KeepIn=T MapXYZ=F SortEE=F KeepMc=T.
          MDV=      33553900 using IRadAn=       2.
 Generate precomputed XC quadrature information.
          Solving linear equations simultaneously, MaxMat=       0.
 FoFJK:  IHMeth= 1 ICntrl=       0 DoSepK=F KAlg= 0 I1Cent=   0 FoldK=F
 IRaf= 990000000 NMat=  21 IRICut=      52 DoRegI=T DoRafI=T ISym2E= 2.
 FoFCou: FMM=F IPFlag=           0 FMFlag=      100000 FMFlg1=           0
         NFxFlg=           0 DoJE=F BraDBF=F KetDBF=F FulRan=T
         wScrn=  0.000000 ICntrl=       0 IOpCl=  1 I1Cent=           0 NGrid=           0
         NMat0=   21 NMatS0=     21 NMatT0=    0 NMatD0=   21 NMtDS0=    0 NMtDT0=    0
 Integrals replicated using symmetry in FoFCou.
          There are    21 degrees of freedom in the 1st order CPHF.  IDoFFX=6 NUNeed=     3.
     18 vectors produced by pass  0 Test12= 3.70D-14 4.76D-09 XBig12= 5.78D+02 1.48D+01.
 AX will form    18 AO Fock derivatives at one time.
     18 vectors produced by pass  1 Test12= 3.70D-14 4.76D-09 XBig12= 1.77D+02 3.02D+00.
     18 vectors produced by pass  2 Test12= 3.70D-14 4.76D-09 XBig12= 1.52D+01 1.37D+00.
     18 vectors produced by pass  3 Test12= 3.70D-14 4.76D-09 XBig12= 9.35D-01 2.30D-01.
     18 vectors produced by pass  4 Test12= 3.70D-14 4.76D-09 XBig12= 2.77D-02 2.82D-02.
     18 vectors produced by pass  5 Test12= 3.70D-14 4.76D-09 XBig12= 3.56D-04 3.57D-03.
     18 vectors produced by pass  6 Test12= 3.70D-14 4.76D-09 XBig12= 3.48D-06 2.74D-04.
     18 vectors produced by pass  7 Test12= 3.70D-14 4.76D-09 XBig12= 2.84D-08 2.26D-05.
     11 vectors produced by pass  8 Test12= 3.70D-14 4.76D-09 XBig12= 1.55D-10 1.79D-06.
      3 vectors produced by pass  9 Test12= 3.70D-14 4.76D-09 XBig12= 1.08D-12 1.41D-07.
      3 vectors produced by pass 10 Test12= 3.70D-14 4.76D-09 XBig12= 1.71D-13 9.51D-08.
      2 vectors produced by pass 11 Test12= 3.70D-14 4.76D-09 XBig12= 3.32D-15 2.32D-08.
      1 vectors produced by pass 12 Test12= 3.70D-14 4.76D-09 XBig12= 1.63D-16 5.22D-09.
 InvSVY:  IOpt=1 It=  1 EMax= 2.13D-14
 Solved reduced A of dimension   164 with    21 vectors.
 FullF1:  Do perturbations    1 to     3.
 Isotropic polarizability for W=    0.000000       57.44 Bohr**3.
 End of Minotr F.D. properties file   721 does not exist.
 End of Minotr F.D. properties file   722 does not exist.
 End of Minotr F.D. properties file   788 does not exist.
 Leave Link 1002 at Tue Aug 16 18:37:19 2016, MaxMem=    33554432 cpu:      1510.2
 (Enter /home/proyectos/fulerenos/M3C-v2.0/M3C-deps_CCC/g09-AM64L-G09RevC.01/l601.exe)
 Copying SCF densities to generalized density rwf, IOpCl= 1 IROHF=0.

 **********************************************************************

            Population analysis using the SCF density.

 **********************************************************************

 Orbital symmetries:
 Alpha Orbitals:
       Occupied  (A') (A') (A') (A') (A') (A') (A') (A') (A') (A')
                 (A') (A') (A") (A') (A') (A") (A') (A") (A')
       Virtual   (A') (A") (A') (A") (A") (A') (A') (A") (A') (A')
                 (A') (A') (A') (A") (A") (A') (A') (A") (A') (A')
                 (A') (A") (A') (A') (A") (A') (A') (A') (A') (A')
                 (A') (A') (A") (A') (A') (A') (A") (A') (A') (A")
                 (A") (A') (A') (A') (A") (A') (A') (A") (A') (A")
                 (A') (A") (A') (A") (A') (A") (A') (A') (A') (A")
                 (A') (A") (A') (A") (A') (A') (A") (A') (A") (A')
                 (A') (A") (A') (A') (A') (A') (A") (A') (A') (A')
                 (A") (A') (A") (A') (A') (A') (A') (A") (A') (A")
                 (A') (A') (A') (A") (A") (A') (A') (A") (A') (A")
                 (A') (A') (A') (A") (A') (A") (A') (A") (A') (A')
                 (A') (A') (A') (A") (A') (A") (A") (A") (A') (A")
                 (A') (A") (A') (A") (A') (A") (A") (A') (A') (A')
                 (A") (A") (A') (A") (A') (A') (A') (A") (A') (A')
                 (A") (A') (A') (A") (A") (A') (A') (A') (A') (A')
                 (A") (A') (A") (A') (A') (A') (A") (A') (A") (A')
                 (A') (A') (A") (A') (A') (A") (A') (A") (A") (A')
                 (A') (A") (A') (A') (A") (A') (A') (A') (A') (A")
                 (A") (A') (A") (A') (A') (A") (A") (A') (A") (A')
                 (A') (A") (A') (A") (A") (A') (A") (A') (A') (A')
                 (A') (A') (A') (A') (A") (A") (A') (A') (A') (A')
                 (A') (A') (A') (A') (A')
 Beta  Orbitals:
       Occupied  (A') (A') (A') (A') (A') (A') (A') (A') (A') (A')
                 (A') (A') (A") (A') (A") (A') (A')
       Virtual   (A") (A') (A') (A") (A') (A") (A") (A') (A') (A")
                 (A') (A') (A') (A') (A') (A") (A") (A') (A') (A")
                 (A') (A') (A') (A") (A') (A') (A') (A") (A') (A')
                 (A') (A') (A') (A') (A") (A') (A') (A') (A") (A')
                 (A") (A') (A") (A') (A') (A') (A") (A') (A') (A")
                 (A") (A') (A') (A") (A') (A") (A') (A') (A") (A')
                 (A') (A") (A') (A") (A') (A') (A") (A') (A") (A')
                 (A") (A') (A') (A") (A') (A') (A') (A') (A") (A')
                 (A') (A') (A") (A') (A') (A") (A') (A') (A') (A")
                 (A') (A") (A') (A') (A') (A") (A") (A') (A') (A")
                 (A') (A") (A') (A') (A') (A") (A') (A") (A') (A")
                 (A') (A') (A') (A') (A') (A') (A") (A") (A") (A")
                 (A') (A") (A') (A") (A') (A") (A') (A") (A') (A")
                 (A') (A') (A") (A") (A') (A") (A') (A') (A') (A")
                 (A') (A') (A") (A') (A') (A") (A') (A") (A') (A')
                 (A') (A') (A") (A') (A") (A') (A') (A') (A') (A")
                 (A") (A') (A') (A') (A") (A') (A') (A") (A') (A")
                 (A") (A') (A') (A") (A') (A') (A") (A') (A') (A')
                 (A') (A") (A") (A') (A") (A') (A') (A") (A") (A')
                 (A") (A') (A') (A") (A') (A") (A") (A') (A") (A')
                 (A') (A') (A') (A') (A') (A') (A") (A") (A') (A')
                 (A') (A') (A') (A') (A') (A') (A')
 The electronic state is 3-A".
 Alpha  occ. eigenvalues --  -14.67805 -10.59795 -10.58202 -10.56913 -10.54451
 Alpha  occ. eigenvalues --  -10.53132  -1.34145  -1.17904  -1.06682  -0.91358
 Alpha  occ. eigenvalues --   -0.84828  -0.79253  -0.76224  -0.69246  -0.61889
 Alpha  occ. eigenvalues --   -0.61417  -0.58710  -0.56473  -0.52592
 Alpha virt. eigenvalues --   -0.41289  -0.38399  -0.31311  -0.25527  -0.22054
 Alpha virt. eigenvalues --   -0.16916  -0.12871  -0.11522  -0.10436  -0.09243
 Alpha virt. eigenvalues --   -0.08574  -0.07691  -0.06467  -0.05963  -0.05717
 Alpha virt. eigenvalues --   -0.04132  -0.02773  -0.00862  -0.00854  -0.00386
 Alpha virt. eigenvalues --    0.00469   0.01036   0.02617   0.03220   0.04715
 Alpha virt. eigenvalues --    0.04801   0.06373   0.07241   0.08644   0.09239
 Alpha virt. eigenvalues --    0.10348   0.11245   0.11884   0.12322   0.15273
 Alpha virt. eigenvalues --    0.16601   0.17104   0.22594   0.23615   0.23622
 Alpha virt. eigenvalues --    0.25000   0.25430   0.26816   0.27768   0.28620
 Alpha virt. eigenvalues --    0.29320   0.31272   0.31548   0.32200   0.32380
 Alpha virt. eigenvalues --    0.33718   0.34137   0.36031   0.36090   0.40207
 Alpha virt. eigenvalues --    0.41068   0.41125   0.42389   0.45181   0.46973
 Alpha virt. eigenvalues --    0.47643   0.48048   0.50816   0.52768   0.53123
 Alpha virt. eigenvalues --    0.55811   0.58398   0.58934   0.63002   0.63773
 Alpha virt. eigenvalues --    0.65331   0.67073   0.68383   0.72513   0.74392
 Alpha virt. eigenvalues --    0.80043   0.80330   0.85868   0.88881   0.92663
 Alpha virt. eigenvalues --    0.93872   0.99323   1.03152   1.03162   1.05358
 Alpha virt. eigenvalues --    1.07273   1.13164   1.15135   1.15984   1.18581
 Alpha virt. eigenvalues --    1.19027   1.20809   1.26000   1.27946   1.32499
 Alpha virt. eigenvalues --    1.36367   1.38660   1.42767   1.45669   1.51789
 Alpha virt. eigenvalues --    1.53522   1.56561   1.59519   1.68500   1.72378
 Alpha virt. eigenvalues --    1.72842   1.73572   1.77147   1.77704   1.87095
 Alpha virt. eigenvalues --    1.90565   2.00922   2.09698   2.14960   2.15119
 Alpha virt. eigenvalues --    2.19790   2.26603   2.31678   2.34454   2.36439
 Alpha virt. eigenvalues --    2.42862   2.45238   2.47992   2.48697   2.49516
 Alpha virt. eigenvalues --    2.52292   2.55293   2.55334   2.56531   2.61505
 Alpha virt. eigenvalues --    2.62645   2.67432   2.68193   2.69190   2.70897
 Alpha virt. eigenvalues --    2.74494   2.79920   2.80900   2.85389   2.87922
 Alpha virt. eigenvalues --    2.95656   2.96251   3.00080   3.00696   3.09483
 Alpha virt. eigenvalues --    3.10397   3.14054   3.23147   3.27199   3.31269
 Alpha virt. eigenvalues --    3.31563   3.34484   3.47638   3.55238   3.63224
 Alpha virt. eigenvalues --    3.67324   3.67905   3.69209   3.75731   3.78292
 Alpha virt. eigenvalues --    3.81795   3.85780   3.86864   4.01121   4.07468
 Alpha virt. eigenvalues --    4.15279   4.18285   4.23817   4.36511   4.41847
 Alpha virt. eigenvalues --    4.57808   4.60927   4.75141   4.85789   4.92554
 Alpha virt. eigenvalues --    5.06374   5.15764   5.45619   6.18234   6.61498
 Alpha virt. eigenvalues --    6.64417   6.67635   6.76169   6.78248   6.81943
 Alpha virt. eigenvalues --    6.84074   6.87138   6.87181   6.94350   6.96228
 Alpha virt. eigenvalues --    6.99719   7.03627   7.13272   7.16364   7.20539
 Alpha virt. eigenvalues --    7.24337   7.33551   7.37609   7.44916   7.67748
 Alpha virt. eigenvalues --    7.92695   8.02632   8.14752   8.35587  10.11852
 Alpha virt. eigenvalues --   10.18920  10.26786  10.55619  11.16848  23.78716
 Alpha virt. eigenvalues --   23.85730  25.13914  25.17889  25.52580  35.87050
  Beta  occ. eigenvalues --  -14.66744 -10.59309 -10.56943 -10.56375 -10.54325
  Beta  occ. eigenvalues --  -10.52303  -1.32846  -1.16762  -1.04525  -0.89139
  Beta  occ. eigenvalues --   -0.83411  -0.77066  -0.72865  -0.66058  -0.58547
  Beta  occ. eigenvalues --   -0.58538  -0.57332
  Beta virt. eigenvalues --   -0.46326  -0.42095  -0.38342  -0.34361  -0.27745
  Beta virt. eigenvalues --   -0.22432  -0.19083  -0.16498  -0.12245  -0.11199
  Beta virt. eigenvalues --   -0.09719  -0.08601  -0.08277  -0.07336  -0.06089
  Beta virt. eigenvalues --   -0.05632  -0.05342  -0.03994  -0.02299  -0.00663
  Beta virt. eigenvalues --   -0.00360   0.00219   0.00765   0.01244   0.02863
  Beta virt. eigenvalues --    0.03501   0.05183   0.05206   0.06742   0.07501
  Beta virt. eigenvalues --    0.08851   0.09620   0.11156   0.11722   0.12779
  Beta virt. eigenvalues --    0.13111   0.16083   0.17200   0.17918   0.23078
  Beta virt. eigenvalues --    0.24090   0.24530   0.25691   0.26192   0.27632
  Beta virt. eigenvalues --    0.28788   0.29648   0.30196   0.32169   0.32358
  Beta virt. eigenvalues --    0.33149   0.33162   0.33645   0.34886   0.36643
  Beta virt. eigenvalues --    0.37020   0.40885   0.41832   0.42116   0.43154
  Beta virt. eigenvalues --    0.45943   0.47774   0.48623   0.48938   0.51508
  Beta virt. eigenvalues --    0.53471   0.53606   0.56331   0.59165   0.59347
  Beta virt. eigenvalues --    0.63945   0.64245   0.65906   0.67717   0.68898
  Beta virt. eigenvalues --    0.72871   0.74773   0.80739   0.81335   0.86300
  Beta virt. eigenvalues --    0.89585   0.93521   0.95894   1.00276   1.04709
  Beta virt. eigenvalues --    1.05038   1.06583   1.08452   1.14622   1.16493
  Beta virt. eigenvalues --    1.17055   1.19520   1.19805   1.22431   1.27037
  Beta virt. eigenvalues --    1.29511   1.33840   1.37075   1.41028   1.44786
  Beta virt. eigenvalues --    1.47127   1.54928   1.55340   1.58337   1.61366
  Beta virt. eigenvalues --    1.70226   1.74273   1.74673   1.75777   1.79261
  Beta virt. eigenvalues --    1.79447   1.88451   1.91997   2.02508   2.11263
  Beta virt. eigenvalues --    2.17264   2.17678   2.21335   2.29022   2.33510
  Beta virt. eigenvalues --    2.35709   2.38176   2.45567   2.46705   2.48938
  Beta virt. eigenvalues --    2.51023   2.51608   2.54216   2.56599   2.56665
  Beta virt. eigenvalues --    2.58161   2.63039   2.65282   2.68692   2.69180
  Beta virt. eigenvalues --    2.71000   2.72180   2.75788   2.81701   2.83002
  Beta virt. eigenvalues --    2.87622   2.89592   2.97298   2.97411   3.01449
  Beta virt. eigenvalues --    3.02189   3.11560   3.11719   3.15853   3.24405
  Beta virt. eigenvalues --    3.29002   3.32513   3.33187   3.35930   3.50065
  Beta virt. eigenvalues --    3.56661   3.64190   3.68931   3.70638   3.70980
  Beta virt. eigenvalues --    3.78293   3.79372   3.84519   3.88125   3.89687
  Beta virt. eigenvalues --    4.02169   4.09015   4.17080   4.19876   4.25494
  Beta virt. eigenvalues --    4.38127   4.43288   4.58540   4.62967   4.76316
  Beta virt. eigenvalues --    4.86651   4.94729   5.07304   5.16746   5.46621
  Beta virt. eigenvalues --    6.19196   6.64198   6.67218   6.69919   6.78020
  Beta virt. eigenvalues --    6.79952   6.83932   6.85613   6.88540   6.89158
  Beta virt. eigenvalues --    6.95850   6.97858   7.01132   7.06136   7.14548
  Beta virt. eigenvalues --    7.18160   7.21975   7.25960   7.35160   7.39662
  Beta virt. eigenvalues --    7.46142   7.69651   7.93476   8.03963   8.16471
  Beta virt. eigenvalues --    8.37276  10.16142  10.23228  10.32208  10.56583
  Beta virt. eigenvalues --   11.17529  23.79488  23.86488  25.15022  25.18375
  Beta virt. eigenvalues --   25.53360  35.88181
          Condensed to atoms (all electrons):
               1          2          3          4          5          6
     1  C    7.389301  -0.224654  -2.079976  -0.161452   0.171637   0.072853
     2  C   -0.224654   9.223615   0.114075  -2.508359  -0.287887  -0.115387
     3  C   -2.079976   0.114075   9.842568   0.294745  -2.018905  -0.059485
     4  C   -0.161452  -2.508359   0.294745   7.423699   0.025686   0.033580
     5  C    0.171637  -0.287887  -2.018905   0.025686   8.008262  -0.036670
     6  N    0.072853  -0.115387  -0.059485   0.033580  -0.036670   7.672956
          Atomic-Atomic Spin Densities.
               1          2          3          4          5          6
     1  C    0.934719   0.132919  -1.051230   0.008522   0.318342  -0.152100
     2  C    0.132919   0.556826  -0.202097  -0.224122   0.118528  -0.031700
     3  C   -1.051230  -0.202097   2.578430   0.006176  -1.132920   0.112590
     4  C    0.008522  -0.224122   0.006176   0.273468   0.036745  -0.032133
     5  C    0.318342   0.118528  -1.132920   0.036745   1.319076  -0.052668
     6  N   -0.152100  -0.031700   0.112590  -0.032133  -0.052668   0.627777
 Mulliken charges and spin densities:
               1          2
     1  C    0.832292   0.191171
     2  C   -0.201404   0.350354
     3  C   -0.093022   0.310950
     4  C    0.892102   0.068656
     5  C    0.137878   0.607102
     6  N   -0.567847   0.471766
 Sum of Mulliken charges =   1.00000   2.00000
 Mulliken charges and spin densities with hydrogens summed into heavy atoms:
               1          2
     1  C    0.832292   0.191171
     2  C   -0.201404   0.350354
     3  C   -0.093022   0.310950
     4  C    0.892102   0.068656
     5  C    0.137878   0.607102
     6  N   -0.567847   0.471766
 APT charges:
               1
     1  C    0.493014
     2  C    0.483183
     3  C    0.007102
     4  C   -0.324663
     5  C    0.277917
     6  N    0.063447
 Sum of APT charges =   1.00000
 APT charges with hydrogens summed into heavy atoms:
               1
     1  C    0.493014
     2  C    0.483183
     3  C    0.007102
     4  C   -0.324663
     5  C    0.277917
     6  N    0.063447
 Electronic spatial extent (au):  <R**2>=            336.2950
 Charge=              1.0000 electrons
 Dipole moment (field-independent basis, Debye):
    X=             -0.6859    Y=             -0.1372    Z=              0.0000  Tot=              0.6995
 Quadrupole moment (field-independent basis, Debye-Ang):
   XX=            -28.7045   YY=            -24.1649   ZZ=            -29.6069
   XY=             -0.9186   XZ=             -0.0000   YZ=              0.0000
 Traceless Quadrupole moment (field-independent basis, Debye-Ang):
   XX=             -1.2124   YY=              3.3272   ZZ=             -2.1148
   XY=             -0.9186   XZ=             -0.0000   YZ=              0.0000
 Octapole moment (field-independent basis, Debye-Ang**2):
  XXX=             -0.0437  YYY=             -3.0337  ZZZ=              0.0000  XYY=              4.2874
  XXY=             -1.3360  XXZ=             -0.0000  XZZ=              1.1795  YZZ=             -0.7294
  YYZ=              0.0000  XYZ=             -0.0000
 Hexadecapole moment (field-independent basis, Debye-Ang**3):
 XXXX=           -127.6938 YYYY=           -338.5696 ZZZZ=            -29.3647 XXXY=            -13.0277
 XXXZ=             -0.0000 YYYX=             -5.1538 YYYZ=             -0.0000 ZZZX=             -0.0000
 ZZZY=             -0.0000 XXYY=            -71.2780 XXZZ=            -25.2873 YYZZ=            -58.6662
 XXYZ=             -0.0000 YYXZ=             -0.0000 ZZXY=             -3.3573
 N-N= 1.615086346351D+02 E-N=-8.815382898859D+02  KE= 2.435493777348D+02
 Symmetry A'   KE= 2.370656227936D+02
 Symmetry A"   KE= 6.483754941148D+00
  Exact polarizability:  48.256   2.473  93.314   0.000   0.000  30.743
 Approx polarizability: 106.816  -0.217 212.374   0.000   0.000  47.139
                          Isotropic Fermi Contact Couplings
        Atom                 a.u.       MegaHertz       Gauss      10(-4) cm-1
     1  C(13)              0.28870     162.27519      57.90382      54.12918
     2  C(13)              0.01451       8.15433       2.90967       2.71999
     3  C(13)              0.64633     363.29864     129.63399     121.18338
     4  C(13)             -0.01258      -7.07252      -2.52365      -2.35914
     5  C(13)              0.47898     269.23245      96.06883      89.80628
     6  N(14)              0.15263      24.65717       8.79829       8.22475
 --------------------------------------------------------
       Center         ----  Spin Dipole Couplings  ----
                      3XX-RR        3YY-RR        3ZZ-RR
 --------------------------------------------------------
     1   Atom       -0.069034      0.092788     -0.023754
     2   Atom       -0.251710     -0.050959      0.302669
     3   Atom       -0.084520      0.233452     -0.148932
     4   Atom        0.107775     -0.064431     -0.043343
     5   Atom        0.182021     -0.325947      0.143926
     6   Atom       -0.541769     -0.602295      1.144064
 --------------------------------------------------------
                        XY            XZ            YZ
 --------------------------------------------------------
     1   Atom       -0.085821     -0.000000     -0.000000
     2   Atom        0.470719      0.000000      0.000000
     3   Atom        0.206295      0.000000      0.000000
     4   Atom        0.023262      0.000000     -0.000000
     5   Atom       -0.092584     -0.000000     -0.000000
     6   Atom       -0.052010      0.000000     -0.000000
 --------------------------------------------------------


 ---------------------------------------------------------------------------------
              Anisotropic Spin Dipole Couplings in Principal Axis System
 ---------------------------------------------------------------------------------

       Atom             a.u.   MegaHertz   Gauss  10(-4) cm-1        Axes

              Baa    -0.1061   -14.234    -5.079    -4.748  0.9181  0.3962 -0.0000
     1 C(13)  Bbb    -0.0238    -3.188    -1.137    -1.063  0.0000  0.0000  1.0000
              Bcc     0.1298    17.421     6.216     5.811 -0.3962  0.9181 -0.0000
 
              Baa    -0.6326   -84.894   -30.292   -28.317  0.7774 -0.6291 -0.0000
     2 C(13)  Bbb     0.3027    40.615    14.493    13.548  0.0000  0.0000  1.0000
              Bcc     0.3300    44.278    15.800    14.770  0.6291  0.7774 -0.0000
 
              Baa    -0.1860   -24.957    -8.905    -8.325  0.8973 -0.4413 -0.0000
     3 C(13)  Bbb    -0.1489   -19.985    -7.131    -6.666  0.0000  0.0000  1.0000
              Bcc     0.3349    44.942    16.037    14.991  0.4413  0.8973 -0.0000
 
              Baa    -0.0675    -9.060    -3.233    -3.022 -0.1315  0.9913 -0.0000
     4 C(13)  Bbb    -0.0433    -5.816    -2.075    -1.940  0.0000  0.0000  1.0000
              Bcc     0.1109    14.877     5.308     4.962  0.9913  0.1315  0.0000
 
              Baa    -0.3423   -45.933   -16.390   -15.322  0.1739  0.9848 -0.0000
     5 C(13)  Bbb     0.1439    19.314     6.892     6.442  0.0000  0.0000  1.0000
              Bcc     0.1984    26.619     9.498     8.879  0.9848 -0.1739 -0.0000
 
              Baa    -0.6322   -24.383    -8.700    -8.133  0.4985  0.8669 -0.0000
     6 N(14)  Bbb    -0.5119   -19.741    -7.044    -6.585  0.8669 -0.4985  0.0000
              Bcc     1.1441    44.124    15.745    14.718  0.0000  0.0000  1.0000
 

 ---------------------------------------------------------------------------------

 No NMR shielding tensors so no spin-rotation constants.
 Leave Link  601 at Tue Aug 16 18:37:20 2016, MaxMem=    33554432 cpu:         0.6
 (Enter /home/proyectos/fulerenos/M3C-v2.0/M3C-deps_CCC/g09-AM64L-G09RevC.01/l701.exe)
 Compute integral second derivatives.
 ... and contract with generalized density number  0.
 Leave Link  701 at Tue Aug 16 18:37:20 2016, MaxMem=    33554432 cpu:         0.5
 (Enter /home/proyectos/fulerenos/M3C-v2.0/M3C-deps_CCC/g09-AM64L-G09RevC.01/l702.exe)
 L702 exits ... SP integral derivatives will be done elsewhere.
 Leave Link  702 at Tue Aug 16 18:37:21 2016, MaxMem=    33554432 cpu:         0.0
 (Enter /home/proyectos/fulerenos/M3C-v2.0/M3C-deps_CCC/g09-AM64L-G09RevC.01/l703.exe)
 Compute integral second derivatives, UseDBF=F ICtDFT=           0.
 Integral derivatives from FoFJK, PRISM(SPDF).
 Calling FoFJK, ICntrl=    100127 FMM=F ISym2X=1 I1Cent= 0 IOpClX= 1 NMat=1 NMatS=1 NMatT=0.
 FoFJK:  IHMeth= 1 ICntrl=  100127 DoSepK=F KAlg= 0 I1Cent=   0 FoldK=F
 IRaf=         0 NMat=   1 IRICut=       1 DoRegI=T DoRafI=F ISym2E= 1.
 FoFCou: FMM=F IPFlag=           0 FMFlag=      100000 FMFlg1=         800
         NFxFlg=           0 DoJE=F BraDBF=F KetDBF=F FulRan=T
         wScrn=  0.000000 ICntrl=  100127 IOpCl=  1 I1Cent=           0 NGrid=           0
         NMat0=    1 NMatS0=      1 NMatT0=    0 NMatD0=    1 NMtDS0=    0 NMtDT0=    0
 Petite list used in FoFCou.
 Leave Link  703 at Tue Aug 16 18:45:57 2016, MaxMem=    33554432 cpu:       515.7
 (Enter /home/proyectos/fulerenos/M3C-v2.0/M3C-deps_CCC/g09-AM64L-G09RevC.01/l716.exe)
 Dipole        =-2.69845836D-01-5.39905483D-02 1.87960624D-17
 Polarizability= 4.82563012D+01 2.47259286D+00 9.33139138D+01
                 2.36864086D-08 1.43355527D-08 3.07434134D+01
 Full mass-weighted force constant matrix:
 Low frequencies ---   -0.0006   -0.0003    0.0003    8.7915   13.8334   14.1807
 Low frequencies ---  202.1250  222.1750  401.8988
 Diagonal vibrational polarizability:
        7.7959269       7.9649894       3.2424503
 Harmonic frequencies (cm**-1), IR intensities (KM/Mole), Raman scattering
 activities (A**4/AMU), depolarization ratios for plane and unpolarized
 incident light, reduced masses (AMU), force constants (mDyne/A),
 and normal coordinates:
                      1                      2                      3
                     A"                     A'                     A'
 Frequencies --    202.1246               222.1750               401.8984
 Red. masses --     12.0302                12.2417                12.0250
 Frc consts  --      0.2896                 0.3560                 1.1444
 IR Inten    --      2.2562                 9.5293                17.6737
  Atom  AN      X      Y      Z        X      Y      Z        X      Y      Z
     1   6    -0.00  -0.00  -0.24     0.06   0.06   0.00    -0.05  -0.29   0.00
     2   6     0.00   0.00  -0.54     0.67   0.18   0.00    -0.07   0.10   0.00
     3   6    -0.00  -0.00  -0.35     0.18  -0.19   0.00    -0.34  -0.12  -0.00
     4   6    -0.00  -0.00   0.57    -0.51  -0.05  -0.00    -0.29   0.07  -0.00
     5   6     0.00  -0.00   0.43    -0.08  -0.25  -0.00     0.80   0.14   0.00
     6   7    -0.00   0.00   0.12    -0.27   0.22  -0.00    -0.05   0.10  -0.00
                      4                      5                      6
                     A"                     A"                     A'
 Frequencies --    422.4794               558.8934               566.6225
 Red. masses --     12.1952                12.3326                12.0520
 Frc consts  --      1.2825                 2.2697                 2.2798
 IR Inten    --      7.0208                 8.0990                 0.0325
  Atom  AN      X      Y      Z        X      Y      Z        X      Y      Z
     1   6     0.00   0.00   0.72    -0.00   0.00   0.25    -0.32   0.16  -0.00
     2   6     0.00  -0.00   0.04    -0.00   0.00  -0.07    -0.06   0.48   0.00
     3   6     0.00   0.00  -0.54     0.00  -0.00   0.17     0.02  -0.48  -0.00
     4   6     0.00  -0.00  -0.13     0.00   0.00   0.66     0.33   0.38  -0.00
     5   6    -0.00  -0.00   0.28     0.00  -0.00  -0.55     0.08  -0.36   0.00
     6   7     0.00  -0.00  -0.31     0.00  -0.00  -0.41    -0.04  -0.16   0.00
                      7                      8                      9
                     A'                     A'                     A'
 Frequencies --    649.3875               884.7913              1048.3517
 Red. masses --     12.3402                12.6483                13.0563
 Frc consts  --      3.0661                 5.8340                 8.4544
 IR Inten    --      4.3180                16.3296                 2.7560
  Atom  AN      X      Y      Z        X      Y      Z        X      Y      Z
     1   6    -0.49   0.55  -0.00     0.20  -0.18  -0.00     0.07  -0.18  -0.00
     2   6     0.09  -0.36   0.00     0.04  -0.02   0.00    -0.09   0.38   0.00
     3   6    -0.09  -0.20   0.00    -0.51   0.04   0.00    -0.14  -0.07   0.00
     4   6    -0.05  -0.26  -0.00     0.36  -0.07   0.00    -0.43  -0.00  -0.00
     5   6     0.15  -0.00   0.00    -0.13  -0.44  -0.00    -0.27  -0.05   0.00
     6   7     0.34   0.23   0.00     0.03   0.57   0.00     0.72  -0.06   0.00
                     10                     11                     12
                     A'                     A'                     A'
 Frequencies --   1185.7828              1463.4254              1605.1101
 Red. masses --     12.2591                12.0280                12.0491
 Frc consts  --     10.1559                15.1770                18.2900
 IR Inten    --      6.4554               296.3534               274.4256
  Atom  AN      X      Y      Z        X      Y      Z        X      Y      Z
     1   6    -0.21  -0.45  -0.00     0.23   0.09  -0.00     0.52   0.37   0.00
     2   6     0.03  -0.08  -0.00     0.10  -0.53   0.00    -0.04   0.15   0.00
     3   6     0.23  -0.48   0.00    -0.19  -0.17   0.00    -0.33  -0.48  -0.00
     4   6     0.15   0.08  -0.00    -0.16   0.73  -0.00     0.05  -0.27  -0.00
     5   6    -0.23   0.51   0.00    -0.09  -0.03   0.00    -0.07   0.35   0.00
     6   7     0.02   0.36   0.00     0.09  -0.08   0.00    -0.12  -0.10  -0.00

 -------------------
 - Thermochemistry -
 -------------------
 Temperature   298.150 Kelvin.  Pressure   1.00000 Atm.
 Atom     1 has atomic number  6 and mass  12.00000
 Atom     2 has atomic number  6 and mass  12.00000
 Atom     3 has atomic number  6 and mass  12.00000
 Atom     4 has atomic number  6 and mass  12.00000
 Atom     5 has atomic number  6 and mass  12.00000
 Atom     6 has atomic number  7 and mass  14.00307
 Molecular mass:    74.00307 amu.
 Principal axes and moments of inertia in atomic units:
                           1         2         3
     Eigenvalues --   140.66307 409.30417 549.96724
           X            0.09809   0.99518   0.00000
           Y            0.99518  -0.09809   0.00000
           Z           -0.00000  -0.00000   1.00000
 This molecule is an asymmetric top.
 Rotational symmetry number  1.
 Rotational temperatures (Kelvin)      0.61575     0.21161     0.15749
 Rotational constants (GHZ):          12.83024     4.40929     3.28154
 Zero-point vibrational energy      55094.3 (Joules/Mol)
                                   13.16785 (Kcal/Mol)
 Warning -- explicit consideration of   6 degrees of freedom as
           vibrations may cause significant error
 Vibrational temperatures:    290.81   319.66   578.24   607.85   804.12
          (Kelvin)            815.24   934.32  1273.02  1508.34  1706.07
                             2105.54  2309.39
 
 Zero-point correction=                           0.020984 (Hartree/Particle)
 Thermal correction to Energy=                    0.026109
 Thermal correction to Enthalpy=                  0.027053
 Thermal correction to Gibbs Free Energy=        -0.007898
 Sum of electronic and zero-point Energies=           -244.511407
 Sum of electronic and thermal Energies=              -244.506282
 Sum of electronic and thermal Enthalpies=            -244.505338
 Sum of electronic and thermal Free Energies=         -244.540289
 
                     E (Thermal)             CV                S
                      KCal/Mol        Cal/Mol-Kelvin    Cal/Mol-Kelvin
 Total                   16.384             16.845             73.560
 Electronic               0.000              0.000              2.183
 Translational            0.889              2.981             38.821
 Rotational               0.889              2.981             24.963
 Vibrational             14.606             10.884              7.594
 Vibration     1          0.639              1.837              2.114
 Vibration     2          0.648              1.807              1.941
 Vibration     3          0.768              1.466              0.956
 Vibration     4          0.785              1.421              0.884
 Vibration     5          0.914              1.120              0.526
 Vibration     6          0.923              1.103              0.511
                       Q            Log10(Q)             Ln(Q)
 Total Bot       0.429200D+04          3.632660          8.364508
 Total V=0       0.192640D+14         13.284746         30.589258
 Vib (Bot)       0.897595D-09         -9.046920        -20.831302
 Vib (Bot)    1  0.985692D+00         -0.006259         -0.014411
 Vib (Bot)    2  0.889491D+00         -0.050858         -0.117106
 Vib (Bot)    3  0.442869D+00         -0.353725         -0.814481
 Vib (Bot)    4  0.414828D+00         -0.382132         -0.879892
 Vib (Bot)    5  0.278389D+00         -0.555347         -1.278735
 Vib (Bot)    6  0.272524D+00         -0.564594         -1.300027
 Vib (V=0)       0.402872D+01          0.605167          1.393448
 Vib (V=0)    1  0.160526D+01          0.205544          0.473283
 Vib (V=0)    2  0.152039D+01          0.181955          0.418966
 Vib (V=0)    3  0.116793D+01          0.067418          0.155235
 Vib (V=0)    4  0.114968D+01          0.060576          0.139482
 Vib (V=0)    5  0.107228D+01          0.030307          0.069784
 Vib (V=0)    6  0.106945D+01          0.029159          0.067141
 Electronic      0.300000D+01          0.477121          1.098612
 Translational   0.250225D+08          7.398330         17.035284
 Rotational      0.636983D+05          4.804128         11.061913
 
                                                              b3lyp opt
                                                             IR Spectrum
 
     1           1                     1          1                                                                                  
     6           4                     1          0           8                  6     55          4 4             2 2               
     0           6                     8          4           8                  4     65          2 0             2 0               
     5           3                     6          8           5                  9     79          2 2             2 2               
 
     X           X                     X          X           X                  X      X          X X             X X               
     X           X                                                                                                                   
     X           X                                                                                                                   
     X           X                                                                                                                   
     X           X                                                                                                                   
     X           X                                                                                                                   
     X           X                                                                                                                   
     X           X                                                                                                                   
     X           X                                                                                                                   
     X           X                                                                                                                   
     X           X                                                                                                                   
     X           X                                                                                                                   
     X           X                                                                                                                   
     X           X                                                                                                                   
     X           X                                                                                                                   
     X           X                                                                                                                   
     X           X                                                                                                                   
     X           X                                                                                                                   
     X           X                                                                                                                   
                 X                                                                                                                   
 
 ***** Axes restored to original set *****
 -------------------------------------------------------------------
 Center     Atomic                   Forces (Hartrees/Bohr)
 Number     Number              X              Y              Z
 -------------------------------------------------------------------
      1        6          -0.000391269    0.000073165    0.000146161
      2        6           0.000159537    0.000113276   -0.000156954
      3        6          -0.000256929   -0.000239802    0.000291801
      4        6          -0.000274398   -0.000225051    0.000290514
      5        6           0.000405948    0.000055484   -0.000241033
      6        7           0.000357111    0.000222927   -0.000330489
 -------------------------------------------------------------------
 Cartesian Forces:  Max     0.000405948 RMS     0.000255403
 Z-matrix is all fixed cartesians, so copy forces.
 Force constants in Cartesian coordinates: 
                1             2             3             4             5 
      1  0.189649D+00
      2  0.306033D-01  0.437277D+00
      3 -0.903017D-01 -0.278181D+00  0.285368D+00
      4 -0.127827D-01  0.585510D-02  0.359756D-02  0.342702D+00
      5 -0.914355D-03 -0.652255D-02  0.649776D-02  0.201399D-01  0.116197D-01
      6  0.820287D-02  0.310781D-02 -0.386641D-02 -0.182211D+00 -0.137714D-01
      7  0.956789D-02 -0.452723D-01  0.142525D-01 -0.101894D-01 -0.543008D-02
      8 -0.961049D-02 -0.290978D+00  0.186797D+00  0.581541D-02  0.278674D-02
      9 -0.100084D-01  0.204656D+00 -0.157691D+00  0.128336D-02  0.100960D-02
     10 -0.561559D-01 -0.845632D-02  0.405899D-01 -0.287587D+00 -0.233622D-01
     11 -0.113314D-01 -0.200166D-01  0.284154D-01 -0.582455D-01 -0.462948D-02
     12  0.425458D-01  0.269757D-01 -0.262464D-01  0.177563D+00  0.659287D-02
     13 -0.647045D-01  0.107260D+00 -0.431296D-01  0.193590D-01 -0.292327D-02
     14  0.550385D-01 -0.171798D-01 -0.193547D-01  0.579605D-02 -0.443736D-02
     15 -0.760307D-02 -0.455056D-01  0.296489D-01 -0.128694D-01  0.552613D-02
     16 -0.655741D-01 -0.899897D-01  0.749913D-01 -0.515020D-01  0.124899D-01
     17 -0.637856D-01 -0.102580D+00  0.758253D-01  0.206390D-01  0.118295D-02
     18  0.571644D-01  0.889476D-01 -0.127213D+00  0.126364D-01 -0.585500D-02
                6             7             8             9            10 
      6  0.106816D+00
      7  0.893374D-02  0.273098D+00
      8 -0.462180D-02  0.622212D-01  0.289306D+00
      9 -0.105578D-02 -0.164118D+00 -0.207638D+00  0.253338D+00
     10  0.153831D+00  0.149388D-01  0.162759D-02  0.858543D-04  0.548109D+00
     11  0.240614D-01 -0.288886D-01 -0.258004D-02  0.280056D-01 -0.737163D-02
     12 -0.105538D+00  0.208462D-01  0.127240D-01 -0.177406D-02 -0.235463D+00
     13 -0.693760D-02 -0.254525D+00 -0.703986D-01  0.161517D+00 -0.675783D-01
     14  0.115976D-02  0.826001D-03  0.196242D-01 -0.325578D-01 -0.659099D-01
     15  0.421899D-02  0.113063D+00  0.310938D-02 -0.863591D-01  0.545765D-01
     16  0.181802D-01 -0.328901D-01  0.103449D-01  0.112401D-01 -0.151727D+00
     17 -0.993580D-02  0.165438D-01 -0.181592D-01  0.652459D-02  0.103472D+00
     18 -0.574401D-03  0.702295D-02  0.962882D-02 -0.645814D-02 -0.136206D-01
               11            12            13            14            15 
     11  0.143600D+00
     12 -0.478125D-01  0.218333D+00
     13 -0.196459D-01  0.231029D-01  0.338509D+00
     14 -0.172650D-01  0.120059D-01 -0.122564D-01  0.100397D+00
     15 -0.111617D-01 -0.678700D-01 -0.135883D+00 -0.278001D-01  0.137469D+00
     16  0.125483D+00 -0.285946D-01  0.289406D-01  0.165057D-01 -0.112842D-01
     17 -0.991088D-01 -0.104859D-01 -0.203574D-02 -0.811386D-01  0.758319D-01
     18 -0.215082D-01 -0.169038D-01  0.132967D-02  0.665469D-01 -0.171079D-01
               16            17            18 
     16  0.272752D+00
     17 -0.748339D-01  0.299804D+00
     18 -0.645328D-01 -0.137760D+00  0.168257D+00
 Leave Link  716 at Tue Aug 16 18:45:57 2016, MaxMem=    33554432 cpu:         0.0
 (Enter /home/proyectos/fulerenos/M3C-v2.0/M3C-deps_CCC/g09-AM64L-G09RevC.01/l103.exe)

 GradGradGradGradGradGradGradGradGradGradGradGradGradGradGradGradGradGrad
 Berny optimization.
 Search for a local minimum.
 Step number   1 out of a maximum of    2
 All quantities printed in internal units (Hartrees-Bohrs-Radians)
 Second derivative matrix not updated -- analytic derivatives used.
 The second derivative matrix:
                          X1        Y1        Z1        X2        Y2
           X1           0.18965
           Y1           0.03060   0.43728
           Z1          -0.09030  -0.27818   0.28537
           X2          -0.01278   0.00586   0.00360   0.34270
           Y2          -0.00091  -0.00652   0.00650   0.02014   0.01162
           Z2           0.00820   0.00311  -0.00387  -0.18221  -0.01377
           X3           0.00957  -0.04527   0.01425  -0.01019  -0.00543
           Y3          -0.00961  -0.29098   0.18680   0.00582   0.00279
           Z3          -0.01001   0.20466  -0.15769   0.00128   0.00101
           X4          -0.05616  -0.00846   0.04059  -0.28759  -0.02336
           Y4          -0.01133  -0.02002   0.02842  -0.05825  -0.00463
           Z4           0.04255   0.02698  -0.02625   0.17756   0.00659
           X5          -0.06470   0.10726  -0.04313   0.01936  -0.00292
           Y5           0.05504  -0.01718  -0.01935   0.00580  -0.00444
           Z5          -0.00760  -0.04551   0.02965  -0.01287   0.00553
           X6          -0.06557  -0.08999   0.07499  -0.05150   0.01249
           Y6          -0.06379  -0.10258   0.07583   0.02064   0.00118
           Z6           0.05716   0.08895  -0.12721   0.01264  -0.00585
                          Z2        X3        Y3        Z3        X4
           Z2           0.10682
           X3           0.00893   0.27310
           Y3          -0.00462   0.06222   0.28931
           Z3          -0.00106  -0.16412  -0.20764   0.25334
           X4           0.15383   0.01494   0.00163   0.00009   0.54811
           Y4           0.02406  -0.02889  -0.00258   0.02801  -0.00737
           Z4          -0.10554   0.02085   0.01272  -0.00177  -0.23546
           X5          -0.00694  -0.25453  -0.07040   0.16152  -0.06758
           Y5           0.00116   0.00083   0.01962  -0.03256  -0.06591
           Z5           0.00422   0.11306   0.00311  -0.08636   0.05458
           X6           0.01818  -0.03289   0.01034   0.01124  -0.15173
           Y6          -0.00994   0.01654  -0.01816   0.00652   0.10347
           Z6          -0.00057   0.00702   0.00963  -0.00646  -0.01362
                          Y4        Z4        X5        Y5        Z5
           Y4           0.14360
           Z4          -0.04781   0.21833
           X5          -0.01965   0.02310   0.33851
           Y5          -0.01726   0.01201  -0.01226   0.10040
           Z5          -0.01116  -0.06787  -0.13588  -0.02780   0.13747
           X6           0.12548  -0.02859   0.02894   0.01651  -0.01128
           Y6          -0.09911  -0.01049  -0.00204  -0.08114   0.07583
           Z6          -0.02151  -0.01690   0.00133   0.06655  -0.01711
                          X6        Y6        Z6
           X6           0.27275
           Y6          -0.07483   0.29980
           Z6          -0.06453  -0.13776   0.16826
 ITU=  0
     Eigenvalues ---    0.01860   0.02288   0.07351   0.08243   0.14630
     Eigenvalues ---    0.14640   0.19680   0.37556   0.54601   0.65523
     Eigenvalues ---    0.97544   1.17590
 Angle between quadratic step and forces=  62.47 degrees.
 ClnCor:  largest displacement from symmetrization is 5.31D-11 for atom     4.
 Linear search not attempted -- first point.
 ClnCor:  largest displacement from symmetrization is 4.37D-15 for atom     3.
 B after Tr=     0.000048   -0.000013   -0.000016
         Rot=    1.000000   -0.000003   -0.000004   -0.000006 Ang=  -0.00 deg.
 Variable       Old X    -DE/DX   Delta X   Delta X   Delta X     New X
                                 (Linear)    (Quad)   (Total)
    X1        2.04742  -0.00039   0.00000  -0.00176  -0.00171   2.04571
    Y1       -0.33998   0.00007   0.00000   0.00049   0.00051  -0.33947
    Z1       -0.76476   0.00015   0.00000   0.00054   0.00051  -0.76425
    X2       -3.46690   0.00016   0.00000  -0.00132  -0.00125  -3.46815
    Y2       -0.50768   0.00011   0.00000   0.00467   0.00460  -0.50308
    Z2        2.11073  -0.00016   0.00000  -0.00252  -0.00251   2.10822
    X3        2.04441  -0.00026   0.00000  -0.00132  -0.00130   2.04311
    Y3        1.73367  -0.00024   0.00000  -0.00053  -0.00051   1.73317
    Z3       -2.17398   0.00029   0.00000   0.00102   0.00100  -2.17298
    X4       -1.21971  -0.00027   0.00000   0.00181   0.00187  -1.21784
    Y4       -0.34028  -0.00023   0.00000  -0.00518  -0.00521  -0.34550
    Z4        0.87152   0.00029   0.00000   0.00262   0.00261   0.87413
    X5       -0.22443   0.00041   0.00000  -0.00128  -0.00126  -0.22569
    Y5        1.68986   0.00006   0.00000   0.00157   0.00156   1.69143
    Z5       -1.00801  -0.00024   0.00000  -0.00043  -0.00043  -1.00844
    X6        0.85228   0.00036   0.00000   0.00358   0.00365   0.85594
    Y6       -1.90349   0.00022   0.00000  -0.00095  -0.00096  -1.90445
    Z6        0.89739  -0.00033   0.00000  -0.00115  -0.00118   0.89621
         Item               Value     Threshold  Converged?
 Maximum Force            0.000406     0.000450     YES
 RMS     Force            0.000255     0.000300     YES
 Maximum Displacement     0.005213     0.001800     NO 
 RMS     Displacement     0.002271     0.001200     NO 
 Predicted change in Energy=-2.412721D-06
 GradGradGradGradGradGradGradGradGradGradGradGradGradGradGradGradGradGrad

 Leave Link  103 at Tue Aug 16 18:45:57 2016, MaxMem=    33554432 cpu:         0.0
 (Enter /home/proyectos/fulerenos/M3C-v2.0/M3C-deps_CCC/g09-AM64L-G09RevC.01/l9999.exe)
 1\1\GINC-BLADI12\Freq\UB3LYP\6-311++G(3df,2p)\C5N1(1+,3)\ROOT\16-Aug-2
 016\0\\#p b3lyp/6-311++G(3df,2p) freq symmetry=Loose\\b3lyp opt\\1,3\C
 ,1.0834470001,-0.1799089999,-0.4046959999\C,-1.834605,-0.268654,1.1169
 51\C,1.08185651,0.917421035,-1.150420268\C,-0.645442322,-0.180069664,0
 .461189385\C,-0.118762688,0.8942377629,-0.5334143381\N,0.451008715,-1.
 0072852571,0.4748796179\\Version=EM64L-G09RevE.01\State=3-A"\HF=-244.5
 323913\S2=2.10148\S2-1=0.\S2A=2.003066\RMSD=8.295e-09\RMSF=2.554e-04\Z
 eroPoint=0.0209843\Thermal=0.0261091\Dipole=-0.0795921,0.2346339,-0.11
 97656\DipoleDeriv=0.372131,0.1685896,-0.1064101,0.3403969,0.4982652,-0
 .2450186,-0.2232917,-0.1589827,0.6086452,1.1126854,0.1198498,-0.602195
 3,0.1132511,-0.0290371,0.0126803,-0.5977061,0.0093759,0.3659004,0.1000
 046,-0.2764324,0.1510882,-0.4763817,0.0992557,0.1888419,0.287115,0.088
 7133,-0.1779536,-1.1966199,-0.2390424,0.9753415,-0.1682943,0.3687243,0
 .123459,0.9272111,0.1588875,-0.1460926,0.2210399,0.4945732,-0.3538964,
 0.3869759,0.1391972,-0.1617936,-0.2806973,-0.2156751,0.4735135,0.39075
 9,-0.2675378,-0.063928,-0.1959479,-0.0764053,0.081831,-0.1126311,0.117
 6811,-0.1240129\Polar=72.9866043,5.9009827,46.6211237,-25.1686038,-13.
 7567449,52.7059005\PG=CS [SG(C5N1)]\NImag=0\\0.18964926,0.03060329,0.4
 3727748,-0.09030168,-0.27818111,0.28536763,-0.01278273,0.00585510,0.00
 359756,0.34270190,-0.00091436,-0.00652255,0.00649776,0.02013992,0.0116
 1971,0.00820287,0.00310781,-0.00386641,-0.18221055,-0.01377137,0.10681
 607,0.00956789,-0.04527226,0.01425254,-0.01018940,-0.00543008,0.008933
 74,0.27309827,-0.00961049,-0.29097818,0.18679736,0.00581541,0.00278674
 ,-0.00462180,0.06222116,0.28930649,-0.01000839,0.20465571,-0.15769087,
 0.00128336,0.00100960,-0.00105578,-0.16411832,-0.20763773,0.25333796,-
 0.05615586,-0.00845632,0.04058989,-0.28758675,-0.02336217,0.15383133,0
 .01493876,0.00162759,0.00008585,0.54810900,-0.01133142,-0.02001656,0.0
 2841543,-0.05824549,-0.00462948,0.02406140,-0.02888863,-0.00258004,0.0
 2800559,-0.00737163,0.14359983,0.04254585,0.02697566,-0.02624640,0.177
 56268,0.00659287,-0.10553848,0.02084624,0.01272398,-0.00177406,-0.2354
 6298,-0.04781254,0.21833274,-0.06470450,0.10725989,-0.04312960,0.01935
 903,-0.00292327,-0.00693760,-0.25452539,-0.07039857,0.16151739,-0.0675
 7832,-0.01964591,0.02310286,0.33850862,0.05503854,-0.01717984,-0.01935
 473,0.00579605,-0.00443736,0.00115976,0.00082600,0.01962417,-0.0325577
 5,-0.06590986,-0.01726495,0.01200594,-0.01225642,0.10039654,-0.0076030
 7,-0.04550563,0.02964889,-0.01286941,0.00552613,0.00421899,0.11306285,
 0.00310938,-0.08635912,0.05457653,-0.01116166,-0.06786996,-0.13588272,
 -0.02780013,0.13746914,-0.06557405,-0.08998971,0.07499129,-0.05150204,
 0.01248994,0.01818022,-0.03289012,0.01034490,0.01124011,-0.15172682,0.
 12548308,-0.02859464,0.02894056,0.01650569,-0.01128418,0.27275248,-0.0
 6378556,-0.10258035,0.07582530,0.02063900,0.00118295,-0.00993580,0.016
 54381,-0.01815918,0.00652459,0.10347238,-0.09910880,-0.01048591,-0.002
 03574,-0.08113855,0.07583191,-0.07483389,0.29980393,0.05716443,0.08894
 756,-0.12721284,0.01263636,-0.00585500,-0.00057440,0.00702295,0.009628
 82,-0.00645814,-0.01362062,-0.02150821,-0.01690384,0.00132967,0.066546
 92,-0.01710794,-0.06453280,-0.13776009,0.16825717\\0.00039127,-0.00007
 317,-0.00014616,-0.00015954,-0.00011328,0.00015695,0.00025693,0.000239
 80,-0.00029180,0.00027440,0.00022505,-0.00029051,-0.00040595,-0.000055
 48,0.00024103,-0.00035711,-0.00022293,0.00033049\\\@


 MAN IS THE MEASURE OF ALL THINGS.
  -- PROTAGORAS (5TH CENTURY B.C.)
 Job cpu time:       0 days  1 hours  9 minutes 30.8 seconds.
 File lengths (MBytes):  RWF=     60 Int=      0 D2E=      0 Chk=      5 Scr=      1
 Normal termination of Gaussian 09 at Tue Aug 16 18:45:57 2016.
