1
Energy = -37.7100310140
  C           -0.00000000         -0.00000000         -0.00000000

FREQUENCIES 0

SYMMETRY R3
ELECTRONIC_STATE 1-D
