1
Energy = -37.3633216030
  C           -0.00000000         -0.00000000         -0.00000000

FREQUENCIES 0

SYMMETRY SO3
ELECTRONIC_STATE 2-P
