2
Energy = -75.7478039680
    C    0.625973    0.000000    0.000000
    C   -0.625973    0.000000    0.000000

FREQUENCIES 1
1867.5165

SYMMETRY D*H
ELECTRONIC_STATE 1-SGG
