2
Energy = -75.3025006970
    C    0.660731    0.000000    0.000000
    C   -0.660731    0.000000    0.000000

FREQUENCIES 1
1596.9243

SYMMETRY D*H
ELECTRONIC_STATE 2-PIU
