3
Energy = -150.5377751600
    C    1.269078    0.632677   -0.000000
    C    0.106883   -0.046980   -0.000000
    O   -0.878219   -0.622929   -0.000000

FREQUENCIES 4
530.1220
530.1220
1161.1761
2097.5783

SYMMETRY C*V
ELECTRONIC_STATE 4-SG
