3
Energy = -150.9050046700
    C   -0.156200   -0.078355    0.000000
    C   -1.518189    0.123971   -0.000000
    O    1.005300   -0.252303    0.000000

FREQUENCIES 4
363.3168
495.4430
1052.5922
1973.2322

SYMMETRY C*V
ELECTRONIC_STATE 1-SG
