3
Energy = -150.9366098000
    C   -0.120298   -0.005452   -0.000000
    C   -1.488316   -0.057953    0.000000
    O    1.046148    0.040231   -0.000000

FREQUENCIES 4
397.8544
397.8544
1063.8826
1990.3083

SYMMETRY C*V
ELECTRONIC_STATE 3-SG
