3
Energy = -113.6960572000
C  0.888000    0.941000    0.000000
C -0.888000   -0.941000    0.000000
C  0.000000    0.000000    0.000000

FREQUENCIES 4
242.3122
394.8553
418.8394
1217.7991

SYMMETRY D*H
ELECTRONIC_STATE 3-PIG
