3
Energy = -113.7754861800
    C    1.290898    0.000000    0.000000
    C    0.000000    0.000000    0.000000
    C   -1.290898    0.000000    0.000000

FREQUENCIES 4
153.8939
153.8939
1235.7067
2144.2513

SYMMETRY D*H
ELECTRONIC_STATE 1-SGG
