4
Energy = -188.4533157600
    C    1.626629   -0.994061   -0.213578
    C    0.654391   -0.309946   -0.067089
    C   -1.361812    1.108584    0.237079
    O   -0.406661    0.436586    0.092927

FREQUENCIES 7
167.0830
167.0830
289.2081
289.2081
905.0543
1872.5653
2280.0069

SYMMETRY C*V
ELECTRONIC_STATE 2-SG
