4
Energy = -188.4313414300
    C    0.970315   -0.728741    0.326412
    C   -0.082857    0.397657    0.126036
    C   -0.402063    1.653035   -0.205564
    O   -0.172638   -0.940081   -0.205079

FREQUENCIES 6
226.5359
285.4201
620.3975
794.4456
1067.7492
1586.6267

SYMMETRY C1
ELECTRONIC_STATE 2-A
