4
Energy = -188.9788739600
    C    0.054640   -0.608155    0.027312
    C    0.215770    0.672219   -0.081576
    C    0.373658    1.927926   -0.188066
    O   -0.088455   -1.744879    0.123856

FREQUENCIES 7
162.9615
162.9615
622.0229
622.0229
965.6844
1974.5371
2342.9449

SYMMETRY C*V
ELECTRONIC_STATE 1-SG
