4
Energy = -151.2788448600
C  0.134344251  0.080975406  1.174491229
C -0.869296413 -0.684406073 -1.259026854
C  0.887385633  0.723442494  0.305308230
C -0.152432471 -0.120011827 -0.220772606

FREQUENCIES 6
232.6699
323.0185
838.0096
845.9003
1322.9995
1689.5450

SYMMETRY C2V
ELECTRONIC_STATE 4-A2
