4
Energy = -151.6967712400
    C    0.000000   -0.000000    1.956044
    C   -0.000000   -0.000000    0.646365
    C   -0.000000    0.000000   -0.646365
    C    0.000000   -0.000000   -1.956044

FREQUENCIES 7
154.9981
209.0719
292.6173
467.5556
934.5330
1598.4975
2128.0896

SYMMETRY D*H
ELECTRONIC_STATE 1-SGG
