4
Energy = -151.7110810000
    C   -0.000000   -0.000000    1.953093
    C    0.000000   -0.000000    0.644582
    C    0.000000    0.000000   -0.644582
    C   -0.000000   -0.000000   -1.953093

FREQUENCIES 7
176.1679
176.1679
363.1377
363.1377
937.9365
1593.3831
2125.1653

SYMMETRY D*H
ELECTRONIC_STATE 3-SGG
