4
Energy = -151.3023580700
C  0.051511000  0.758406000 -0.039264000
C -0.049501773  0.063194344  1.155691827
C -0.051511000 -0.758406000  0.039264000
C  0.049501773 -0.063194344 -1.155691827

FREQUENCIES 6
580.7868
764.0342
834.3976
877.9230
1384.6938
1457.7937

SYMMETRY D2H
ELECTRONIC_STATE 4-B3U
