4
Energy = -151.6353178200
C  0.053347607  0.785470182 -0.040619416
C -0.051055507  0.065112690  1.191876081
C -0.053348593 -0.785469563  0.040631255
C  0.051055493 -0.065113310 -1.191886919

FREQUENCIES 6
471.7133
590.4993
621.7317
750.8760
884.6849
1290.2042

SYMMETRY C2V
ELECTRONIC_STATE 3-B1
