4
Energy = -151.7136819900
C -0.567861250  0.089151751  0.119367000
C  0.484625638  0.135619164  1.111015760
C  0.867872750 -0.104455251 -0.263299000
C -0.184614138 -0.150922664 -1.254947760

FREQUENCIES 6
318.6818
501.0356
947.0101
1010.4922
1293.5922
1394.6175

SYMMETRY D2H
ELECTRONIC_STATE 1-AG
