9
Energy = -229.4361328800
C 0.177422 -0.511842 0.830772
C 0.390335 2.037896 -1.613228
O -0.046833 -1.674737 1.486824
C 0.169095 0.976550 -1.084102
C -0.093203 -0.269130 -0.462330
H 0.615563 0.232289 1.483990
H -0.437124 -2.325861 0.890670
H 0.586976 2.970881 -2.081298
H -0.533953 -1.052335 -1.076883
 
FREQUENCIES 21
173.5155 
182.2136 
434.5106
447.5691 
499.0347 
549.8833
592.6087 
704.1554 
824.1132
963.5261 
1036.8867 
1143.3397
1247.1561 
1328.6086 
1384.4141
1681.4464 
2196.3342 
3118.7829
3208.4357 
3477.1382 
3800.7608
 
SYMMETRY C1
ELECTRONIC_STATE 1-A
