9
Energy = -229.4546868100
    O    2.737081    0.857454    0.000000
    C    0.754228   -0.444170    0.000000
    C    1.527841    0.814580    0.000000
    C   -0.558626   -0.437827    0.000000
    C   -1.857154   -0.395204    0.000000
    H    1.318684   -1.372585    0.000000
    H    0.916891    1.739303    0.000000
    H   -2.419522   -0.380776    0.928611
    H   -2.419522   -0.380776   -0.928611

FREQUENCIES 21
129.3148
166.1412
387.1945
475.9606
541.0925
558.7009
881.4364
907.8682
996.6327
1018.2232
1072.3137
1122.5122
1299.7567
1410.4799
1459.1358
1759.6878
2023.7208
2913.4153
3122.2157
3154.4812
3197.7307

SYMMETRY CS
ELECTRONIC_STATE 1-A'
