9
Energy = -229.4500622500
C 2.152811 -0.404469 0.000000
C -1.419728 0.242308 0.000000
O -1.601053 -0.952846 0.000000
C -0.097515 0.918362 0.000000
C 1.041076 0.263580 0.000000
H 2.632084 -0.697830 -0.929014
H -2.279098 0.943816 0.000000
H -0.100410 2.005648 0.000000
H 2.632084 -0.697830 0.929014
 
FREQUENCIES 21
148.2309 
149.2219 
361.8185
416.0588 
507.9352 
778.4982
873.8758 
890.4499 
902.3180
991.3281 
1022.3657 
1125.7587
1352.5466 
1420.0108 
1454.0900
1761.2195 
2024.8891 
2899.8404
3122.2963 
3140.2039 
3197.6320
 
SYMMETRY CS
ELECTRONIC_STATE 1-A'
