9
Energy = -229.4546977500
C -2.411837 -0.228177 0.000000
C 1.179730 -0.379192 0.000000
O 2.347305 -0.061298 0.000000
C 0.067465 0.593677 0.000000
C -1.184364 0.197778 0.000000
H -2.944426 -0.408780 -0.928806
H 0.870656 -1.443388 0.000000
H 0.331217 1.647712 0.000000
H -2.944426 -0.408780 0.928806
 
FREQUENCIES 21
129.6900 
166.3125 
387.6022
476.0534 
541.5060 
558.6300
881.6365 
907.8479 
996.9311
1017.8924 
1072.1464 
1122.1253
1299.5049 
1410.2476 
1458.9909
1759.1555 
2023.3604 
2914.7909
3121.4830 
3154.5761 
3197.1240
 
SYMMETRY CS
ELECTRONIC_STATE 1-A'
