9
Energy = -229.0823039000
    O   -2.576174    1.065676    0.319651
    C    1.792884    0.014933   -0.001121
    C    0.369170   -0.048715   -0.014622
    C   -0.854152   -0.173333   -0.046924
    C   -2.258845   -0.072066   -0.012904
    H    2.155649    0.210827    1.015209
    H    2.143658    0.804897   -0.676977
    H    2.214117   -0.942245   -0.342203
    H   -2.986407   -0.859976   -0.240110

FREQUENCIES 21
14.5936
123.6787
186.7875
341.3964
402.7859
543.4950
741.5167
952.7429
973.5918
995.0283
1190.6249
1270.7868
1366.8205
1389.8310
1404.4073
1557.1018
2216.8541
2986.2524
3049.2056
3071.0404
3078.8779

SYMMETRY C1
ELECTRONIC_STATE 2-A
