9
Energy = -229.4001715300
C -0.869382 -0.694363 0.000000
C 1.174389 0.197805 0.000000
O 0.354768 -1.126273 0.000000
C 0.242761 1.308891 0.000000
C -1.017024 0.693000 0.000000
H -1.637587 -1.462069 0.000000
H 1.797738 0.127229 0.894095
H 1.797738 0.127229 -0.894095
H -1.980574 1.185834 0.000000
 
FREQUENCIES 21
342.0141 
424.7464 
499.3533
783.5089 
804.1060 
877.6413
897.8555 
1009.7850 
1015.1060
1098.8990 
1145.4743 
1146.5402
1244.1586 
1296.9270 
1390.2411
1412.2765 
1502.8437 
3078.3470
3131.4342 
3179.5363 
3202.6672
 
SYMMETRY CS
ELECTRONIC_STATE 1-A'
