9
Energy = -229.4535189900
C  3.127271947  3.337002203  0.896479850
C  3.192279191  1.848236996  0.647960613
O  4.187237356  1.281904827  0.247167127
C  1.967149697  1.106046088  0.921012367
C  0.952346930  0.499675312  1.148474257
H  4.090045805  3.789484698  0.661873559
H  2.865382407  3.529747607  1.941203288
H  2.341188375  3.784073032  0.280538071
H  0.063407542 -0.050474767  1.344817004

FREQUENCIES 21
105.7428
175.6125
234.5088
439.4265
597.1304
601.8982
685.9127
742.1949
742.8668
979.4428
1042.9417
1207.2073
1386.7711
1461.9073
1466.7182
1748.8790
2192.3971
3032.3848
3091.1997
3141.7625
3467.7616

SYMMETRY CS
ELECTRONIC_STATE 1-A'
