9
Energy = -229.4410778100
C 0.348429 -1.246308 0.623306
C -0.001468 0.630641 -0.856564
O -0.486745 -0.817438 1.589868
C -0.538552 1.684897 -1.100275
C 0.607534 -0.607235 -0.533137
H 0.809038 -2.192174 0.877985
H -0.875412 0.029332 1.322622
H -1.016858 2.606713 -1.325121
H 1.301231 -1.055394 -1.233553
 
FREQUENCIES 21
140.4795 
281.5552 
407.6650
503.2600 
587.5017 
608.5712
710.9541 
740.9160 
742.9190
956.6292 
959.9170 
1103.1182
1234.0943 
1359.0497 
1419.3519
1663.9572 
2182.8339 
3184.6680
3213.8392 
3473.4206 
3733.0365
 
SYMMETRY C1
ELECTRONIC_STATE 1-A
