9
Energy = -229.1055416700
C -0.971384 0.684979 0.000000
C 0.261254 -1.149115 0.000000
O -0.921461 -0.816302 0.000000
C 1.237504 -0.036665 0.000000
C 0.275145 1.130157 0.000000
H -1.981894 1.058348 0.000000
H 1.893954 -0.100125 0.879729
H 1.893954 -0.100125 -0.879729
H 0.574636 2.168825 0.000000
 
FREQUENCIES 21
308.8783 
485.1599 
649.2680
718.6257 
791.4976 
832.4733
840.4296 
918.0035 
936.3345
964.2562 
1102.7771 
1118.5788
1243.5953 
1245.3288 
1347.6396
1603.1736 
1656.3370 
3022.0825
3047.0781 
3238.5082 
3298.5164
 
SYMMETRY CS
ELECTRONIC_STATE 2-A'
