9
Energy = -229.1701347300
O  1.854443000 -1.912012000  0.469156000
C  0.218643000  1.414742000 -0.098596000
C  0.829850567 -1.479881938  0.268520969
C -0.703122093  0.383954245 -0.145890612
C -0.424069502 -0.981227089  0.025812618
H -0.103318919  2.438623715 -0.244977337
H  1.276817807  1.251359556  0.082067853
H -1.745431537  0.622533495 -0.331131775
H -1.203990025 -1.738306376 -0.025003438

FREQUENCIES 21
150.3520
210.3684
420.4803
483.2103
527.8647
680.4128
729.2971
955.7502
968.3625
1004.2325
1040.2050
1153.1073
1295.1670
1418.7862
1480.2781
1545.6892
2280.9301
3142.2670
3154.2840
3186.7429
3249.9424

SYMMETRY CS
ELECTRONIC_STATE 2-A"
