9
Energy = -229.1249685100
C 0.334963 -1.256427 0.659609
C -0.009466 0.631757 -0.849546
O -0.458146 -0.868339 1.596101
C -0.530888 1.698324 -1.137790
C 0.587859 -0.567270 -0.544649
H 0.822238 -2.203334 0.873528
H -0.903665 -0.017337 1.416954
H -0.980437 2.632911 -1.403017
H 1.284740 -1.017251 -1.246059
 
FREQUENCIES 21
144.5495 
216.4830 
390.6685
425.1963 
674.6313 
722.1433
728.0993 
730.2116 
811.2803
974.9653 
1032.4214 
1152.0308
1230.9671 
1396.0371 
1462.7819
1571.9841 
2095.6132 
3171.6022
3197.3944 
3401.7458 
3640.3044
 
SYMMETRY C1
ELECTRONIC_STATE 2-A
