9
Energy = -229.1246092600
C 0.180525 -0.515321 0.846932
C 0.392570 2.025414 -1.594741
O -0.035188 -1.625763 1.466480
C 0.161486 0.944901 -1.069996
C -0.107611 -0.275674 -0.505401
H 0.620453 0.249866 1.480567
H -0.429950 -2.332258 0.923022
H 0.594603 2.971419 -2.052272
H -0.548608 -1.058872 -1.120175
 
FREQUENCIES 21
153.5178 
167.6861 
415.8833
433.8654 
547.6394 
646.5906
711.9031 
718.6970 
851.5215
1020.5002 
1085.9293 
1165.0419
1290.4942 
1367.7474 
1402.9038
1594.0249 
2101.5168 
3139.0367
3191.9399 
3404.2603 
3684.3639
 
SYMMETRY C1
ELECTRONIC_STATE 2-A
