9
Energy = -229.0946755400
C -1.240555 0.167633 0.343932
C 2.328060 -0.437344 -0.225861
O -1.328143 -0.840500 0.968660
C 1.237426 0.222020 0.072233
C 0.131210 0.877287 0.300433
H -2.078268 0.668848 -0.164148
H 3.120434 -0.562741 0.512741
H 2.479462 -0.865828 -1.216640
H 0.093788 1.945034 0.519948
 
FREQUENCIES 21
110.5974 
160.2179 
305.4253
355.9666 
474.2236 
611.0114
729.6140 
842.2574 
919.6794
958.8669 
987.6369 
1092.1094
1190.1017 
1290.9445 
1403.5023
1647.1260 
1851.9710 
3022.9101
3087.8889 
3122.0619 
3175.9239
 
SYMMETRY C1
ELECTRONIC_STATE 2-A
