5
Energy = -226.8987206000
    C   -0.132039   -0.008026    0.013470
    C   -1.073234    0.855043   -0.120312
    C    0.809557   -0.870689    0.147235
    C   -2.031607    1.734249   -0.256499
    O    1.662954   -1.653318    0.268494

FREQUENCIES 10
135.8328
135.8328
352.2493
352.2495
519.9416
519.9416
772.2309
1467.7754
1984.9996
2301.1551

SYMMETRY C*V
ELECTRONIC_STATE 3-SG
