5
Energy = -226.8854255000
C -1.955357710 -1.838231535  0.056755649
C -1.001032271 -0.947425420  0.028081296
C  0.983214667  0.681292877 -0.057876328
C -0.064738000 -0.064166000  0.001043000
O  1.897592736  1.402353309 -0.100962213

FREQUENCIES 9
61.7127
233.1296
353.7165
382.1885
447.4996
772.2346
1472.8155
1998.3263
2298.6535

SYMMETRY CS
ELECTRONIC_STATE 1-A'
