5
Energy = -226.8903554700
C -0.929790820  0.319659021  0.137180302
C -0.752992160  1.592860753 -0.473094839
C  0.291879426 -0.489822455  0.197462853
C  0.446170987  0.828241399 -0.427256463
O  0.797544425 -1.497735789  0.521978860

FREQUENCIES 9
263.9356
460.6562
675.6309
679.7260
773.9156
963.2243
977.6914
1409.2523
1985.2887

SYMMETRY C2V
ELECTRONIC_STATE 1-A1
