2
Energy = -113.0962699500
    C   -0.775860    0.000000    0.000000
    O    0.351826    0.000000    0.000000

FREQUENCIES 1
2211.7668

SYMMETRY C*V
ELECTRONIC_STATE 1-SG
