2
Energy = -112.5908195600
    C   -0.765565    0.000000    0.000000
    O    0.344925    0.000000    0.000000

FREQUENCIES 1
2302.3121

SYMMETRY C*V
ELECTRONIC_STATE 2-SG
