2
Energy = -112.3468188500
    C   -1.106322    0.000000    0.000000
    O    0.777087    0.000000    0.000000

FREQUENCIES 1
465.2498

SYMMETRY C*V
ELECTRONIC_STATE 4-PI
