2
Energy = -1.1683758157
    H    0.372033    0.000000    0.000000
    H   -0.372033    0.000000    0.000000

FREQUENCIES 1
4419.3323

SYMMETRY D*H
ELECTRONIC_STATE 1-SGG
