3
Energy = -38.9359640580
C  0.030496000 -0.005006000 -0.000000000
H  1.302664049 -0.342915178  0.000000000
H  1.219055951  0.560608178 -0.000000000

FREQUENCIES 3
906.1378
1458.0370
2645.1729

SYMMETRY C2V
ELECTRONIC_STATE 3-A2
