3
Energy = -39.0367176990
C -0.734003000 -0.103168000 -0.000000000
H -0.755696583  1.010360384 -0.000000000
H -1.820919417 -0.346126384  0.000000000

FREQUENCIES 3
1385.8433
2894.8845
2960.0117

SYMMETRY C2V
ELECTRONIC_STATE 1-A1
