3
Energy = -38.6810071460
C  0.737148000 -0.021895000  0.000000000
H  1.698551768 -0.554443972  0.000000000
H  0.316144232  0.993319972 -0.000000000

FREQUENCIES 3
909.5907
2973.9061
3230.2679

SYMMETRY C2V
ELECTRONIC_STATE 2-A1
