3
Energy = -38.5449277660
C -0.070339000 -0.088713000  0.000000000
H  1.056207901 -0.513908388 -0.000000000
H  0.540366099  0.949043388 -0.000000000

FREQUENCIES 3
1017.8936
1870.0369
2388.5790

SYMMETRY C2V
ELECTRONIC_STATE 4-A2
