4
Energy = -76.9797243240
C  0.557076308  0.317780038 -0.079097192
C -0.695939692 -0.019514962  0.372306808
H  0.851706308  1.360861538 -0.241113692
H -0.990569692 -1.062596462  0.534323308

FREQUENCIES 6
800.7554
848.4666
1105.0798
1420.5648
3049.2316
3058.4449

SYMMETRY C2H
ELECTRONIC_STATE 3-AU
