4
Energy = -76.6196017510
C  0.651348956 -0.181080334  0.164823403
C -0.649436956 -0.649172666 -0.177375403
H -0.998930857 -1.670744654 -0.380110538
H  1.587319857 -0.740073346  0.300256538

FREQUENCIES 6
815.0413
983.0675
1055.1371
1364.5975
3063.0971
3080.2753

SYMMETRY C2V
ELECTRONIC_STATE 4-A2
