5
Energy = -151.7489695700
C  1.370418000 -0.417278000  0.327582000
C  0.164425000  0.257150000  0.028720000
H  2.423540720 -0.164678242  0.389645834
H -1.149607881 -1.177060686  0.215785484
O -0.980273177 -0.220046505  0.009155480

FREQUENCIES 9
429.6562
550.3519
587.1598
801.3459
956.8315
1226.5084
1634.8929
3215.1259
3375.7662

SYMMETRY CS
ELECTRONIC_STATE 4-A"
