5
Energy = -152.1859518900
C  1.246710000 -0.583496000  0.572800000
C  0.064377000  0.230244000  0.542406000
H  2.126024244 -0.243634505  1.102698825
H  1.267450707 -1.546775473  0.063915332
O -0.981302622  0.004643249  0.008101553

FREQUENCIES 9
390.4671
463.4288
798.0797
992.8503
1061.6469
1437.0878
1779.6960
3089.8009
3245.0057

SYMMETRY CS
ELECTRONIC_STATE 3-A"
