4
Energy = -76.6067958630
C  0.559539962  0.394946038 -0.084525000
C -0.698415038 -0.096716962  0.377530000
H  0.925790462  1.407751538 -0.269470000
H -1.064665538 -1.109522462  0.562475000

FREQUENCIES 6
718.5387
801.3712
1030.3826
1341.8774
3131.8454
3139.6130

SYMMETRY C2H
ELECTRONIC_STATE 4-BG
