4
Energy = -77.1407419330
C  0.160984894 -0.428001169  0.507929014
C -0.396246700  0.586655095  0.193778462
H -0.889907645  1.485907651 -0.084995672
H  0.654431324 -1.327390769  0.786640955

FREQUENCIES 7
646.9713
646.9713
772.2621
772.2621
2061.5991
3420.4061
3523.1048

SYMMETRY C*V
ELECTRONIC_STATE 1-SG
