5
Energy = -151.9272125
C -1.417323 -0.216913 0.000123
O -0.446436 -0.784146 0.002173
C -2.606849 0.478292 -0.001181
H -3.060017 0.740291 -0.956169
H -3.059670 0.744690 0.952742
 
FREQUENCIES 9 
412.9109 
463.4585 
769.5697
1013.2725 
1052.1796 
1372.3726
2287.7533 
3097.8752 
3218.7633
 
SYMMETRY C1
ELECTRONIC_STATE 2-A

