5
Energy = -152.1371870800
C  1.546900000  0.384720000  0.338171000
C  0.539067000 -0.154508000 -0.308247000
H  0.978923650 -1.018381298 -0.835346127
H -1.085204810  0.802268694 -0.005907998
O -0.790033740  0.029405850 -0.501817930

FREQUENCIES 9
225.1466
345.8887
692.3280
960.6398
1092.7242
1343.0742
1743.3456
3012.0406
3816.8828

SYMMETRY CS
ELECTRONIC_STATE 1-A'
