5
Energy = -152.1351068800
    C    1.476054    0.377986   -0.601107
    C    0.434430   -0.061756    0.054467
    H    0.951703   -0.312129    1.008175
    H   -1.250244   -0.766195    0.612632
    O   -0.899988   -0.212222   -0.092412

FREQUENCIES 9
97.5020
234.8532
618.1367
937.7379
1113.4748
1274.0263
1820.6757
2924.1337
3841.9664

SYMMETRY C1
ELECTRONIC_STATE 1-A
