4
Energy = -77.0013993560
C  1.093409167 -0.143478764 -0.360566531
C -0.053404167 -0.276146236  0.265917531
H -0.454707479  0.525304407  0.890985077
H -0.643179521 -1.192248407  0.182258923

FREQUENCIES 6
738.8122
986.2526
1394.2353
1576.8130
3019.9131
3088.7303

SYMMETRY C2V
ELECTRONIC_STATE 3-B2
