5
Energy = -151.7596281300
C  1.443366000  0.089251000  0.322785000
C  0.144786000  0.343929000 -0.184186000
H  1.847688997 -0.682622886  0.982489204
H -1.045463802 -1.046963712  0.528151634
O -0.941768950 -0.238253963 -0.032107927

FREQUENCIES 9
453.3024
534.7182
750.7639
893.4767
971.8044
1212.0975
1642.2093
3122.9908
3448.1658

SYMMETRY CS
ELECTRONIC_STATE 4-A"
