5
Energy = -152.2675364700
C  0.746293017  0.234849454 -0.586790058
C -0.311678572 -0.209818506  0.045040015
H  1.657567680 -0.345213834 -0.578582910
H  0.699253502  1.178152816 -1.111126149
O -1.249656470 -0.604052834  0.605208786

FREQUENCIES 9
444.7114
555.4552
600.8028
987.8137
1169.5241
1405.4627
2221.1250
3176.4196
3269.9322

SYMMETRY C2V
ELECTRONIC_STATE 1-A1
