4
Energy = -76.7320794940
C 0.000000 0.000000 0.622853
C 0.000000 0.000000 -0.622853
H 0.000000 0.000000 1.703249
H 0.000000 0.000000 -1.703249
 
FREQUENCIES 7
651.1348 
725.0553 
762.6274
804.3859 
1889.6544 
3258.6604
3362.0317  
 
SYMMETRY D*H
ELECTRONIC_STATE 2-PIU
