5
Energy = -115.0246790000
C  0.258304344  0.067155554 -0.590145699
C  1.515165488  0.338621575 -0.484818101
C -0.972945023 -0.228576667 -0.343052416
H -1.783180514 -0.348938667 -1.051359758
H  2.216190812  0.562456117 -1.279254659

FREQUENCIES 9
202.2596
328.3385
463.5843
788.0502
970.0404
1229.8947
1815.2705
3224.4133
3229.6971

SYMMETRY C2
ELECTRONIC_STATE 1-A
