5
Energy = -114.6719225000
C -1.497347000 -0.057897000  0.000778000
C  1.119836000 -0.045289000 -0.001295000
C -0.187629037  0.142926819 -0.000988192
H  1.546267349 -1.055139312  0.002158605
H  1.807935099  0.808165478 -0.005025299

FREQUENCIES 9
264.7188
279.2577
855.8988
1052.2412
1052.8087
1369.4622
1618.1803
3032.4708
3125.0235

SYMMETRY CS
ELECTRONIC_STATE 2-A'
