5
Energy = -115.0687027300
C  0.130666478  0.194292419  0.484471165
C  0.829519931  0.088103829 -0.745852279
C -0.492166332  0.007099137 -0.776641799
H -1.408201522 -0.113219699 -1.334834237
H  1.778293591  0.082077069 -1.260602812

FREQUENCIES 9
802.7675
893.9429
902.6761
1001.8322
1077.9998
1309.5665
1642.4284
3224.5657
3259.9567

SYMMETRY C2V
ELECTRONIC_STATE 1-A1
