6
Energy = -190.0696760400
    C   -0.041000   -0.021021   -0.112112
    C   -0.475281    0.949257    0.643015
    C    0.974937    0.949895    0.429572
    H    0.678597   -1.453596   -1.100915
    H    1.596718    1.616961   -0.178512
    O   -0.185920   -1.082289   -0.877868

FREQUENCIES 12
270.3947
383.9861
416.3186
658.0733
928.1016
963.1652
1082.3014
1106.5684
1261.5840
1859.6915
2999.5002
3775.7631

SYMMETRY C1
ELECTRONIC_STATE 3-A
