6
Energy = -190.1480805500
C  0.895075000  1.543670000 -0.381280000
C -0.473170000 -0.587730000  0.277676000
C  0.322697580  0.499180612 -0.146175227
H  0.547479284 -1.706695606 -0.932578099
H  1.398011109  2.457820073 -0.588822354
O -0.186334960 -1.740477238 -0.284850489

FREQUENCIES 12
224.0015
261.0524
568.0096
636.3395
790.7274
811.7801
898.3578
1308.8252
1329.0933
2104.6650
3463.4688
3506.7158

SYMMETRY CS
ELECTRONIC_STATE 1-A'
