7
Energy = -227.7610799400
C -0.912055 0.700606 -0.216283
C 0.915423 -0.157449 0.365042
O 0.378319 1.039590 0.165343
C 0.188726 -1.169044 0.175592
C -1.064320 -0.748992 -0.217359
H -1.587981 1.518890 -0.446123
H -1.971271 -1.280416 -0.475098
 
FREQUENCIES 15
255.1995 
386.6772 
471.3688
689.8353 
774.4903 
875.7569
946.5919 
979.7075 
1133.1234
1224.8147 
1295.0537 
1395.1487
1797.3531 
3209.1952 
3234.9215
 
SYMMETRY C1
ELECTRONIC_STATE 2-A
