6
Energy = -152.9951693400
C  0.214695541  1.096431567  0.536498780
C -0.440589832 -0.107433998 -0.036496926
C -1.348647980 -0.727557394 -0.713035108
C  0.788240160 -0.024615420  0.794245652
H  1.547504137 -0.646861248  1.232055890
H  0.108933183  2.164961197  0.585572337

FREQUENCIES 12
183.4744
374.2283
666.0301
729.6143
818.0240
829.4376
968.1171
985.5662
1600.0811
1863.9879
3278.1411
3333.0080

SYMMETRY C2V
ELECTRONIC_STATE 1-A1
