7
Energy = -227.7801110800
C -0.729833 -0.364459 -0.304699
C 0.790157 0.955464 0.148048
O -0.507361 0.977724 -0.129938
C 1.110161 -0.425440 0.242789
C 0.213713 -1.374518 -0.013460
H 1.387628 1.856889 0.176326
H 0.092210 -2.447103 -0.014674
 
FREQUENCIES 15
281.6837 
402.2715 
541.4030
657.3350 
737.9569 
763.1251
872.2851 
973.5401 
1054.8843
1163.3476 
1200.4778 
1377.3433
1588.1928 
3243.0409 
3273.3986
 
SYMMETRY C1
ELECTRONIC_STATE 2-A
