6
Energy = -152.8628236600
    C   -1.778910   -0.508874    0.053052
    C   -0.633459    0.405808    0.004514
    C    0.726317   -0.076230    0.044350
    C    1.978144   -0.158043   -0.019865
    H   -0.951077    0.649678   -1.053788
    H   -0.795412    1.327344    0.585028

FREQUENCIES 12
182.4919
226.3289
397.8756
509.4470
890.1290
971.8567
1092.3903
1177.0558
1308.6104
1607.7256
2755.9740
2977.7192

SYMMETRY C1
ELECTRONIC_STATE 3-A
