7
Energy = -228.1569415900
    C    1.095095   -0.625063   -0.035351
    C   -1.559756    0.034784   -0.576466
    C   -1.229543    0.569521    0.676366
    C   -0.268680   -0.102952    0.043117
    H   -1.518512    1.128153    1.553873
    H    1.199225   -1.680831    0.284790
    O    2.031570    0.029251   -0.426695

FREQUENCIES 15
116.3133
210.9000
265.0118
585.6270
798.3193
922.0852
942.9843
984.1531
1097.5419
1267.1094
1399.7675
1729.9383
1761.7456
2918.8993
3246.1879

SYMMETRY C1
ELECTRONIC_STATE 1-A
