7
Energy = -227.7750124900
    C    1.300074    1.123323    0.216878
    C   -0.786057   -0.220348   -0.586853
    C   -1.847374   -0.736634   -1.006092
    C    0.335382    0.217760   -0.135350
    H   -2.761326   -1.163802   -1.367825
    H    1.186006    2.224177    0.091613
    O    2.412373    0.815712    0.716596

FREQUENCIES 15
96.7774
163.3638
388.3644
431.9503
442.4595
480.4383
679.1410
826.1304
864.8126
1155.0613
1394.7459
1615.5192
1929.5552
2855.6162
3375.8059

SYMMETRY C1
ELECTRONIC_STATE 4-A
