6
Energy = -152.7121987400
C  1.147288000 -0.000048733 -0.000010314
C -0.000030858 -0.793674240 -0.000013740
C -1.147293000  0.000033253 -0.000017166
C  0.000025858  0.793658760 -0.000013740
H  2.225345000 -0.000087253 -0.000007096
H -2.225350000  0.000071773 -0.000020384

FREQUENCIES 12
499.4411
517.4993
552.5173
741.8212
751.5310
857.1227
1032.2322
1050.9572
1370.3414
1405.6018
3287.7106
3305.1795

SYMMETRY C2H
ELECTRONIC_STATE 2-AG
