6
Energy = -152.5839797800
C  0.770176527  0.141956217 -0.437024349
C -0.603995012  0.472358281 -0.445446273
C -1.506202212  0.245811295  0.544818519
C  1.459252909 -0.467194662  0.562992987
H  1.411152172  0.375711571 -1.304039700
H -1.058561708  0.969522854 -1.319175905

FREQUENCIES 12
159.3816
229.6832
260.8673
534.6653
855.5715
978.4911
1023.9099
1035.8592
1493.0354
1596.2963
3004.3350
3018.3626

SYMMETRY C2V
ELECTRONIC_STATE 2-A2
