7
Energy = -227.7891567400
C -0.591234 0.899880 0.098619
C 1.054636 -0.530288 -0.077416
O 0.748316 0.812901 0.016007
C -0.145179 -1.243907 -0.047829
C -1.126874 -0.411780 0.055885
H -1.025820 1.888125 0.179095
H 2.102603 -0.785746 -0.152414
 
FREQUENCIES 15
383.6308 
489.7705 
669.5743
792.8883 
826.2701 
872.7408
909.8484 
1044.5217 
1147.9191
1181.3188 
1290.4465 
1394.3650
1517.1121 
3242.0484 
3257.6888
 
SYMMETRY C1
ELECTRONIC_STATE 2-A
