7
Energy = -227.8196490900
    C    1.197380    0.917773   -0.329711
    C   -1.143585   -0.564326    0.175870
    C   -1.550618    0.442333   -0.619601
    C   -0.249913    0.443016   -0.221357
    H   -1.265696   -1.481548    0.741157
    H    1.613632    1.472492    0.522930
    O    1.745895    0.637265   -1.347571

FREQUENCIES 15
58.5041
188.9954
295.2019
526.3704
777.4469
928.8095
929.0950
981.4184
1164.0568
1327.6032
1355.6727
1688.9045
1817.2119
3043.9845
3235.0114

SYMMETRY C1
ELECTRONIC_STATE 2-A
