6
Energy = -152.6266743800
C -0.000000 0.000000 -1.773469
C -0.000000 0.000000 -0.421970
C 0.000000 -0.000000 0.846751
C 0.000000 -0.000000 2.126794
H -0.935820 0.000000 -2.334323
H 0.935820 -0.000000 -2.334323
 
FREQUENCIES 12 
145.3905 
218.6823 
360.2597
506.4665 
915.2360 
998.3598
1027.4632 
1432.5734 
1534.4041
2019.7980 
3078.3934 
3177.7980
 
SYMMETRY C2V
ELECTRONIC_STATE 4-A2
