4
Energy = -114.1850037600
C  0.493019000 -0.286322000 -0.265772000
H  0.379257000 -1.393617000 -0.202069000
H -0.770490592  1.086266614 -0.371990091
O -0.753216150  0.118944462 -0.314076244

FREQUENCIES 6
1097.6087
1216.3498
1321.0525
1503.6177
2857.5259
3716.2344

SYMMETRY CS
ELECTRONIC_STATE 1-A'
