4
Energy = -114.0111018200
C  1.064514490  0.105426299 -0.014151140
H -0.766668502 -0.949671535 -0.503905896
H -0.968638954  0.667508582 -0.520780088
O -0.334841839 -0.073104852 -0.374962334

FREQUENCIES 6
472.2163
610.8477
806.4834
1626.2373
2867.9467
3294.7809

SYMMETRY C2V
ELECTRONIC_STATE 1-A1
