4
Energy = -113.6882157100
C  0.265292039  0.629508805 -0.324287890
H  0.830794444  0.314888282 -1.232591222
H -0.197364556  1.642178282 -0.389429222
O -0.768360460 -0.338624389 -0.060715305

FREQUENCIES 6
677.4558
798.0421
939.6342
1182.9942
2816.9759
2883.8221

SYMMETRY CS
ELECTRONIC_STATE 4-A"
