4
Energy = -113.8580695700
C  0.444698000  0.212562000 -0.449463000
H  0.803997000  1.137503000 -0.933639000
H -0.603571637  0.760622708  1.083657874
O -0.239187710  0.016878018  0.530200508

FREQUENCIES 6
905.6699
950.7224
1114.9721
1741.3580
3010.9266
3362.7800

SYMMETRY CS
ELECTRONIC_STATE 2-A'
