3
Energy = -75.8344361360
H -0.314354196  0.869600981  0.000000000
H -1.287065804 -0.457927981  0.000000000
O -0.334442000 -0.135809000 -0.000000000

FREQUENCIES 3
1416.3749
3341.5457
3393.6861

SYMMETRY C2V
ELECTRONIC_STATE 2-B1
