3
Energy = -1.3372186632
H  0.404124212 -0.309509476  0.000000000
H  0.065737000  0.505323000 -0.000000000
H -0.469861212 -0.195813524 -0.000000000

FREQUENCIES 3
2681.9788
2693.1791
3393.7448

SYMMETRY C2V
ELECTRONIC_STATE 1-A1
