4
Energy = -39.7336604550
C  0.795614600 -0.195181467 -0.094021867
H  0.267005912 -1.026861242 -0.537538132
H  1.622390630 -0.376824147  0.577746252
H  0.497447258  0.818140989 -0.322273720

FREQUENCIES 6
536.9941
1402.4375
1402.4390
3102.6632
3282.5829
3282.5842

SYMMETRY D3H
ELECTRONIC_STATE 2-A2"
