4
Energy = -39.3814869370
C -0.120935000 -0.498195667 -0.000869867
H  0.959043970 -0.613420691 -0.130831947
H -0.808084274 -1.194334827 -0.490500002
H -0.513764696  0.313168518  0.618722349

FREQUENCIES 6
1406.1089
1406.1101
1418.3439
3016.9173
3212.2213
3212.2215

SYMMETRY D3H
ELECTRONIC_STATE 1-A1'
