4
Energy = -39.2469814820
C  0.150076529  0.336004370 -0.054614636
H -0.860556680  0.286942880  0.562603540
H -0.622257680  1.199056880 -0.306378460
H  1.161527011  0.441170801  0.333139554

FREQUENCIES 6
796.8577
805.4169
1259.3669
2112.9779
2542.7130
3205.7821

SYMMETRY CS
ELECTRONIC_STATE 3-A"
