6
Energy = -152.6660054100
    C    1.282322   -0.399127    0.140237
    C    0.077690    0.542218    0.012075
    H    0.102109    0.986119   -0.987274
    H    0.210059    1.326215    0.770884
    H   -1.247467   -0.456434    1.026098
    O   -1.161173   -0.103255    0.132624

FREQUENCIES 12
384.1808
502.4164
846.0408
943.6681
1036.4213
1165.5890
1310.8805
1367.5549
1465.8024
2973.2397
3062.2461
3806.6802

SYMMETRY C1
ELECTRONIC_STATE 4-A
