5
Energy = -77.2510580350
C -0.474314130  0.348375136 -0.049084542
C  0.844540495  0.013256528 -0.449880102
H -0.171458185  1.429845427  0.149920401
H -1.202959715  0.349184411 -0.872892817
H -0.775031484 -0.098676808  0.909716141

FREQUENCIES 9
494.8946
911.0897
1109.5608
1139.1000
1201.9490
1376.0867
2712.4888
2972.1830
3064.4726

SYMMETRY CS
ELECTRONIC_STATE 3-A"
