6
Energy = -152.5259091500
C  1.167204806 -0.921691166  0.231902530
C  0.120464285 -0.461484384 -0.328219619
H  1.278144031 -0.867505634  1.316093653
H  1.946725277 -1.395351139 -0.367019868
H -1.631354942 -0.446155135 -1.028900199
O -0.820946404  0.095815532 -0.876951345

FREQUENCIES 12
385.2677
388.4299
816.1640
845.8241
896.0272
1124.0008
1180.5870
1339.2446
2125.1533
3087.6011
3169.9662
3517.0072

SYMMETRY CS
ELECTRONIC_STATE 1-A'
