6
Energy = -152.3989298600
C  1.174242820  0.626648108  0.714256296
C  0.957157739 -0.407452135 -0.098936315
H  1.688485377 -1.128820543 -0.452242632
H -0.912472028 -1.327400979 -0.192713985
H -0.598536315 -0.374759579 -1.487951360
O -0.416469797 -0.558185348 -0.542735612

FREQUENCIES 12
264.0032
281.5735
568.3959
685.4347
901.2811
1078.9856
1126.2461
1629.7855
1694.8065
3178.1817
3585.5385
3661.7996

SYMMETRY CS
ELECTRONIC_STATE 1-A'
