5
Energy = -77.5866755870
C -0.192246384 -0.233959983  0.544044245
C  1.186762049  0.068634975  0.041189081
H -0.472960743 -1.260953914  0.281589998
H -0.228731764 -0.125528542  1.634599496
H -0.917354478  0.455889549  0.096020596

FREQUENCIES 9
978.5815
1007.3822
1007.3831
1353.0512
1446.7000
1446.7004
2973.9716
3042.5077
3042.5078

SYMMETRY C3V
ELECTRONIC_STATE 4-A1
