6
Energy = -152.4617781000
C  0.056159000 -0.099731000 -0.554662000
C  0.949245000 -1.132701000 -0.245211000
H  1.980348539 -1.063285966 -0.575298208
H  0.606561956 -1.998591511  0.323535398
H -1.633269962  0.789635683 -0.560165116
O -1.160533346 -0.015521450 -0.255638942

FREQUENCIES 12
432.8890
502.7924
646.3473
926.0540
981.8668
1056.7135
1261.0373
1428.6057
1630.3570
3094.9252
3236.6995
3596.8738

SYMMETRY CS
ELECTRONIC_STATE 3-A"
