6
Energy = -152.5075557100
C  0.076924549  0.068929338 -0.531876155
C  0.609941019 -1.232559876 -0.264035324
H -0.894512079  0.160892220 -1.008114589
H  0.682520379  0.946752542 -0.327843183
H  1.172269814 -2.128306783 -0.532867451
O  0.006369754 -0.906408783  0.758412873

FREQUENCIES 12
509.1138
777.4566
1004.6375
1005.5962
1092.0106
1130.9501
1340.2576
1447.8828
1688.4687
3118.6659
3171.1574
3248.9557

SYMMETRY CS
ELECTRONIC_STATE 1-A'
