6
Energy = -115.3326982900
C -0.646064000  0.146829000 -0.406322000
C  0.533052000 -0.414499000 -0.862443000
C -0.932705329 -1.021454573  0.201589620
H  1.234022913  0.156967328 -1.478417634
H -1.049010465  1.141808006 -0.556402739
H  0.832840505 -1.447926457 -0.639103072

FREQUENCIES 12
280.7148
490.2136
760.7074
952.8869
1068.4239
1085.4137
1305.3289
1449.9973
1542.5153
3032.7712
3130.0077
3217.7408

SYMMETRY CS
ELECTRONIC_STATE 1-A'
