7
Energy = -190.5293842600
C  2.077789000 -0.610859000  0.216828000
C  1.006223000 -0.079832000  0.404001000
C -0.195315193  0.538989841  0.697117279
H  3.024298105 -1.082804370  0.041205777
H -0.973733655  0.399581293 -1.036223959
H -0.403836289  0.913661807  1.699359867
O -1.145435553  0.730453324 -0.131370877

FREQUENCIES 15
207.0388
255.6755
606.5937
742.8668
784.1670
849.0437
1023.4687
1055.4872
1243.2828
1413.6316
1566.9450
2195.4401
3158.4125
3398.0464
3639.9831

SYMMETRY CS
ELECTRONIC_STATE 1-A'
