7
Energy = -190.4521580200
C  0.635765851 -0.182306739  0.080316304
C  0.249729431  1.036958037 -0.711380387
C -0.519235845 -1.082484361  0.082851718
H  1.500541593 -0.727685777 -0.342819962
H  0.905249430  0.040271609  1.130153034
H  1.149873692  1.676306514 -0.680927392
O -1.434670185 -1.714389913  0.042338856

FREQUENCIES 15
111.7032
180.8114
351.7376
568.0889
690.4107
727.7001
888.7808
1078.1243
1179.1000
1254.1185
1317.9492
2374.1490
2943.1315
2981.5521
3021.2781

SYMMETRY CS
ELECTRONIC_STATE 1-A'
