7
Energy = -153.6356886900
C  0.093330000  0.885697145 -0.154567000
C -1.104918000 -0.000510086  0.083879000
H -1.909295000 -0.000700585 -0.648341000
C  0.093958000 -0.885805855 -0.154796000
H -1.464760000 -0.000770213  1.109361000
C  1.115386001  0.000272308  0.120287000
H  2.191012993  0.000649655  0.150955002

FREQUENCIES 15
501.3950
668.1665
765.2503
869.7059
922.6999
1031.0884
1052.4133
1100.4625
1121.9818
1177.4432
1466.5576
1495.4648
3103.5637
3169.2785
3285.6247

SYMMETRY CS
ELECTRONIC_STATE 2-A"
