8
Energy = -228.7727297200
C 0.822892 -1.007183 0.000000
C -0.002158 1.100386 0.000000
O 1.125403 0.357395 0.000000
C -1.133865 0.287560 -0.000000
C -0.644959 -1.007132 -0.000000
H 0.113346 2.175256 0.000000
H -2.155830 0.635262 -0.000000
H -1.224212 -1.919254 -0.000000
 
FREQUENCIES 18
499.7621 
699.9577 
718.6682
813.8751 
865.4330 
901.9595
913.4251 
919.4908 
1008.1795
1029.1890 
1096.9605 
1132.2423
1332.1447 
1400.1795 
1475.4444
3224.8992 
3232.5429 
3248.8633
 
SYMMETRY CS
ELECTRONIC_STATE 2-A"
