7
Energy = -153.3549659000
C -0.005115051  1.036333000  0.408217000
C -0.897171320  0.077197794 -0.200382784
H -1.801844389  0.162583829 -0.795609867
C  0.004591096 -0.937230000  0.149562000
H  0.009304944 -1.900750981  0.645494000
C  0.896370678  0.086009203 -0.200311216
H  1.800208619  0.180280187 -0.795466133

FREQUENCIES 15
521.2589
571.6595
751.7418
850.0095
939.3738
997.2744
1036.6462
1049.3376
1100.0551
1282.7138
1344.0200
1439.0983
3198.7379
3200.7943
3231.0364

SYMMETRY C1
ELECTRONIC_STATE 1-A
