7
Energy = -153.5447367600
C -1.674961000 -0.283207000  0.000677873
H -2.171676000 -0.530544000 -0.931712660
H -2.170936000 -0.530604000  0.933446340
C -0.424550000  0.486421000  0.000206532
H -0.481590999  1.579109000  0.000264313
C  0.816245000 -0.059715000 -0.000303321
C  2.092865999 -0.231113000 -0.000815333

FREQUENCIES 15
220.3794
266.2153
436.5800
447.4313
536.8162
585.0814
934.6661
964.8230
1119.7266
1173.7911
1407.5078
1458.2433
3048.4777
3112.2486
3212.8805

SYMMETRY CS
ELECTRONIC_STATE 4-A"
