7
Energy = -153.3164364700
    C   -0.008050    1.059677   -0.000000
    C   -1.050353   -0.025589    0.000000
    C    0.000454   -0.907699   -0.000000
    H    0.078893   -1.993978   -0.000000
    C    1.045164    0.182954   -0.000000
    H    2.126059    0.222588    0.000000
    H   -2.130149   -0.067069    0.000000

FREQUENCIES 15
322.2065
656.3781
760.0874
817.7994
845.9791
916.4503
1020.4498
1108.5189
1145.5630
1217.1299
1446.1662
1458.1293
3151.0906
3245.3863
3259.1481

SYMMETRY CS
ELECTRONIC_STATE 3-A"
