7
Energy = -153.3763675800
C -0.000000 0.000000 1.168851
H 0.920633 -0.000000 1.750919
H -0.920633 0.000000 1.750919
C 0.000000 0.783215 -0.089454
C 0.000000 -0.000000 -1.194522
H 0.000000 -0.000000 -2.274354
C -0.000000 -0.783215 -0.089454
 
FREQUENCIES 15
450.2034 
586.8925 
819.5225
858.3263 
1022.3805 
1036.2105
1052.7001 
1125.6915 
1170.6673
1190.7879 
1462.2691 
1653.6075
3099.8578 
3184.0853 
3283.3937
 
SYMMETRY C2V
ELECTRONIC_STATE 1-A1
