8
Energy = -228.4559363600
C 0.229362 1.031010 -0.027495
C -0.789779 -0.883567 0.085880
O -1.028116 0.422956 -0.008799
C 0.559029 -0.966423 -0.177982
C 1.303934 0.149486 0.077600
H 0.239070 2.048409 -0.401077
H -1.580491 -1.584311 0.309457
H 2.339117 0.398493 -0.107212
 
FREQUENCIES 18
422.7333 
524.6107 
641.2467
703.0733 
794.8028 
840.2536
889.8805 
974.7126 
1073.0215
1098.2298 
1224.3543 
1244.0156
1308.5883 
1433.2078 
1515.9862
3218.7158 
3245.4459 
3265.2797
 
SYMMETRY C1
ELECTRONIC_STATE 1-A
