7
Energy = -153.5926678700
C -0.021129 1.922491 0.000000
H -0.013906 2.476736 0.931227
H -0.013906 2.476736 -0.931227
C -0.007065 0.516398 0.000000
C 0.031088 -0.720856 -0.000000
C 0.100716 -2.062285 -0.000000
H -0.593810 -2.888623 -0.000000
 
FREQUENCIES 15
171.9962 
214.1741 
372.5717
408.5105 
461.2069 
558.1309
778.6491 
868.6312 
997.0862
1211.9789 
1438.8407 
2078.9102
3128.9114 
3224.0189 
3229.4705
 
SYMMETRY CS
ELECTRONIC_STATE 4-A"
