8
Energy = -228.4595280500
C -0.696925 0.851828 0.001077
C 0.050700 -1.032976 0.238276
O -1.097095 -0.428118 -0.109422
C 1.215044 -0.387686 -0.136108
C 0.718549 0.918027 0.029318
H -1.459222 1.587644 0.226592
H 2.229616 -0.754032 -0.182298
H 1.294666 1.806309 0.258711
 
FREQUENCIES 18
469.9724 
534.1372 
579.5084
680.5513 
791.2031 
878.9213
937.6780 
955.5087 
1066.4629
1080.2746 
1177.3309 
1219.7577
1289.8770 
1413.2670 
1440.8371
3214.8291 
3235.7374 
3261.6691
 
SYMMETRY C1
ELECTRONIC_STATE 1-A
