7
Energy = -153.2213768800
    C   -0.523091   -0.543008    0.217994
    H   -0.814359   -1.302569    0.949872
    C   -1.283491    0.479143   -0.220028
    C    0.871654   -0.686144   -0.426435
    C    0.774927    0.580617    0.169293
    H    0.420721    1.398759   -0.506818
    H    1.279560    0.908351    1.080813

FREQUENCIES 15
171.9290
335.2807
394.6354
682.6790
742.6276
772.9097
920.2991
984.0611
1011.5928
1208.3272
1359.5288
1479.1347
2839.4022
3096.9033
3126.4458

SYMMETRY C1
ELECTRONIC_STATE 1-A
