7
Energy = -153.6626886500
    C    0.369823   -1.831102   -0.000000
    H    0.709605   -2.837860    0.000000
    C    0.000535   -0.684594   -0.000000
    C   -0.490501    0.651909   -0.000000
    H   -1.581290    0.759722    0.000000
    C    0.252278    1.740874   -0.000000
    H    0.083938    2.807281    0.000000

FREQUENCIES 15
225.0979
329.5353
532.9825
650.0966
670.6079
691.8630
795.4272
834.5882
1007.9479
1260.1181
1635.0354
2203.3788
3024.9204
3247.5975
3476.1993

SYMMETRY CS
ELECTRONIC_STATE 2-A'
