7
Energy = -153.5439705200
C  1.081365001  0.000011055  0.000626000
C -0.101500999 -0.989510371  0.000074000
H  1.703132981 -0.000255002  0.897499992
H  1.703868985 -0.000052293 -0.895729007
C -0.100976999  0.990158629  0.000298000
C -1.085568000  0.000584660  0.000294000
H -2.165838997  0.000870612  0.000164001

FREQUENCIES 15
439.0957
819.7408
857.0345
881.5380
967.0202
984.3177
1030.6074
1032.2140
1134.8137
1267.5025
1358.9430
1473.6856
3060.5720
3111.6333
3228.4608

SYMMETRY CS
ELECTRONIC_STATE 4-A'
