7
Energy = -153.5164994500
    C    0.797749   -0.609151   -0.540759
    C   -0.274937   -0.288948    0.429451
    H   -0.316095   -0.791749    1.393973
    C    1.112231    0.472370    0.080352
    H    1.676464    1.358664    0.305903
    C   -1.551640    0.228023   -0.080140
    H   -1.844027    0.613597   -1.049590

FREQUENCIES 15
145.4244
368.1109
383.4117
570.2459
656.1157
846.1106
870.3770
910.1141
1024.2871
1161.1682
1338.7200
1712.5470
3102.1528
3206.1684
3298.6421

SYMMETRY C1
ELECTRONIC_STATE 4-A
