7
Energy = -153.6361545800
    C   -1.552207   -0.367621   -0.010393
    H   -1.376217   -1.435609    0.037397
    H   -2.577597   -0.019588   -0.061298
    C   -0.508159    0.512500   -0.005481
    H   -0.715581    1.579616   -0.061725
    C    0.815422    0.101537    0.078316
    C    2.029480   -0.267589   -0.050264

FREQUENCIES 15
198.7380
212.0323
521.0707
556.3314
912.2905
943.2724
988.6915
1107.1279
1287.1498
1411.3383
1535.4545
1883.4754
3126.5610
3144.6545
3247.0128

SYMMETRY C1
ELECTRONIC_STATE 2-A
