5
Energy = -114.8176745800
    C   -0.444218   -0.308069   -0.741930
    H    0.977111    0.825916   -0.122094
    H   -1.029720    0.533030   -1.093732
    H   -0.883833   -1.280923   -0.582011
    O    0.664107   -0.072478    0.021879

FREQUENCIES 9
402.7999
526.7404
1049.9328
1198.5053
1350.1998
1479.8562
3127.6118
3274.4727
3844.6193

SYMMETRY C1
ELECTRONIC_STATE 2-A
