5
Energy = -114.3987626400
C  0.097302729 -0.279917231  0.680778772
H  0.323074806  0.564474737 -1.081189240
H  0.443046298 -1.325470513  0.931847389
H  0.085511398  0.285903788  1.658256786
O  0.811699359  0.301591860 -0.257544825

FREQUENCIES 9
632.6244
729.6609
982.6321
1032.9316
1106.0203
1267.2482
2670.7934
2704.4504
3455.2679

SYMMETRY CS
ELECTRONIC_STATE 3-A"
