4
Energy = -1.8430675603
H  1.312971371 -0.333344744 -0.050606100
H -0.794737140  0.043644393 -0.356566747
H  0.173176242 -0.043967200 -0.006674764
H -0.691410473  0.333666552  0.413847612

FREQUENCIES 6
683.2595
899.4500
938.8194
1632.9013
1717.2243
3469.3264

SYMMETRY C2V
ELECTRONIC_STATE 2-A1
