5
Energy = -40.4062647710
C -0.165837437  0.480530938  0.024081313
H -0.541990412 -0.455677790  0.438984375
H  0.256926455  0.296263883 -0.964573702
H  0.606320239  0.884794889  0.680180066
H -0.984606032  1.196742768 -0.058265489

FREQUENCIES 9
1340.3192
1340.3192
1340.3192
1558.5156
1558.5156
3023.9032
3129.4881
3129.4881
3129.4881

SYMMETRY TD
ELECTRONIC_STATE 1-A1
