6
Energy = -77.8207592450
    C    0.900030    0.132992   -0.669715
    C   -0.424593   -0.430104    0.081205
    H   -1.187183    0.339934    0.200578
    H   -0.177388   -1.039743    0.950699
    H   -0.475434   -1.004991   -0.905073
    H    1.352025    0.861126    0.063907

FREQUENCIES 12
250.0496
585.6354
705.9771
713.6190
1008.6933
1135.1100
1147.7662
1429.7968
2629.2027
2743.9923
3091.5163
3193.3171

SYMMETRY C1
ELECTRONIC_STATE 4-A
