7
Energy = -153.4734438600
C -0.096360000  0.223459000  0.490067000
C -1.186414000  0.222969000 -0.274632000
H -2.019307982  0.866173906 -0.027112906
H  0.930690109 -1.077643555 -0.471680090
H  0.002296993  0.849887450  1.368866943
H -1.278884224 -0.406946915 -1.153602854
O  1.028882444 -0.524308118  0.312322807

FREQUENCIES 15
453.5164
490.1058
708.4770
825.0967
956.9648
990.9431
1118.3286
1314.7477
1349.0658
1444.6810
1691.9730
3140.1291
3191.6314
3239.2610
3808.4600

SYMMETRY CS
ELECTRONIC_STATE 1-A'
