6
Energy = -78.2653924120
    C    0.419217    0.486863   -0.160393
    C   -0.636761   -0.512539   -0.104475
    H   -0.893809   -0.883532    0.889960
    H    0.032000   -1.297651   -0.553484
    H   -1.511138   -0.451768   -0.767242
    H    0.380782    0.923738   -1.180223

FREQUENCIES 12
470.5924
615.4876
957.9913
1125.1959
1259.6784
1304.1525
1344.7594
1511.8715
2822.1561
2916.4197
2988.9296
3085.4409

SYMMETRY C1
ELECTRONIC_STATE 1-A
