7
Energy = -153.4713076100
C -0.176096000  0.076613000  0.261136000
C -1.110769000 -0.398482000 -0.554579000
H -1.943481526 -0.956443582 -0.150167599
H  1.460191601  1.045010806  0.541412374
H -1.060234133 -0.240111910 -1.624738746
H -0.215590500 -0.075636489  1.336658343
O  0.900112222  0.789930136 -0.196030961

FREQUENCIES 15
229.1655
482.1652
712.3479
856.6678
954.1763
971.8102
1133.8299
1279.8868
1347.2716
1434.4609
1719.4868
3142.3387
3161.2413
3252.9534
3869.6398

SYMMETRY CS
ELECTRONIC_STATE 1-A'
