8
Energy = -191.3609488400
    C   -1.292452    0.834277   -0.017708
    C    0.898164   -0.204647    0.503538
    C   -0.592076   -0.430990    0.219607
    H    1.111671    0.440862    1.380733
    H   -0.670624   -1.101424   -0.642657
    H   -1.709039    1.612987    0.607651
    H   -1.022852   -0.953153    1.092320
    O    1.787572   -0.658708   -0.166365

FREQUENCIES 18
79.4176
176.4975
361.8475
486.3217
716.2882
818.9312
1006.9283
1039.4790
1087.0789
1200.9167
1258.3670
1402.2447
1421.2696
1800.1644
2894.8898
2933.1392
3052.9166
3214.4962

SYMMETRY C1
ELECTRONIC_STATE 3-A
