8
Energy = -191.1169437600
C -0.251959550  0.642231706 -0.299086141
C  0.755114174  0.173244788  0.509967084
C -1.214653524  1.106341747 -1.009474400
H  1.701429523 -0.798455817 -0.848773661
H -1.135806080  2.071070482 -1.517778672
H  0.797795605  0.410466945  1.570204806
H -2.148644163  0.552604714 -1.137257308
O  1.730949620 -0.579734138  0.102606457

FREQUENCIES 18
208.6243
210.3787
287.9263
595.3501
659.9786
853.0892
940.3511
963.7441
982.4124
1227.0295
1339.1687
1372.2439
1482.9548
1961.1655
3056.1391
3128.2982
3176.7855
3666.1499

SYMMETRY CS
ELECTRONIC_STATE 2-A"
