7
Energy = -116.3241655100
 C  -0.650371   -0.242229   -0.321263
 C   0.712589   -0.420491    0.305030
 H  -0.769692   -0.373703   -1.397329
 H   0.478285    1.853179    0.352444
 C   0.309235    0.801132    0.200498
 H  -1.543571   -0.487894    0.254308
 H   1.463256   -1.129965    0.607706

FREQUENCIES 15
604.7912 
781.6161
868.5450
922.2265
1012.1933
1027.1435
1065.8696
1107.8689
1146.2403
1518.6268
1726.1267
3034.1593
3098.7623
3247.1866
3294.3678

SYMMETRY C2V
ELECTRONIC_STATE 1-A1
