7
Energy = -116.2779135200
C -1.187217000 -0.178101000  0.000694000
H -1.326595000 -1.252256000  0.000589000
H -2.068880000  0.449263000  0.000858176
C  0.080831000  0.378004000  0.000620645
H  2.312294000 -0.048476000  0.000334739
H  0.149190000  1.471791000  0.000735421
C  1.263096000 -0.303480000  0.000418327

FREQUENCIES 15
422.6325
525.6894
562.5034
799.2286
819.3627
904.0478
1012.5208
1210.3798
1232.9697
1415.2154
1499.5708
3032.2003
3146.8224
3240.3040
3245.6204

SYMMETRY C1
ELECTRONIC_STATE 3-A
