8
Energy = -191.4094716300
    C   -0.247987    1.001136   -0.176432
    C    0.638358   -0.170866   -0.062114
    C   -0.499479   -0.464231   -0.599617
    H    2.005967   -1.442674    0.231004
    H   -0.054839    1.755051   -0.942840
    H   -0.744455    1.395205    0.713116
    H   -1.208345   -1.139008   -1.041323
    O    1.858815   -0.498446    0.374413

FREQUENCIES 18
336.7258
419.7658
467.4673
675.3422
689.8807
949.5094
1001.5926
1019.8829
1066.5041
1107.4288
1161.6698
1376.0534
1521.0281
1868.5291
3018.4401
3079.6756
3301.7071
3782.8854

SYMMETRY C1
ELECTRONIC_STATE 1-A
