8
Energy = -191.3613525500
    C   -0.758300    0.190763    0.488186
    C    0.631039   -0.402082    0.457404
    C   -1.495888    0.976004   -0.229985
    H    1.583709    1.121586   -0.304218
    H    1.063309   -0.337554    1.464042
    H    0.562955   -1.460519    0.196232
    H   -1.424948   -0.048380    1.338190
    O    1.473957    0.187226   -0.511451

FREQUENCIES 18
138.0471
158.4541
343.8878
464.3113
549.3966
866.0002
899.6762
986.5917
1093.3384
1213.8422
1370.9014
1402.5531
1495.4883
1781.5419
2990.9737
3004.3032
3081.1057
3824.0184

SYMMETRY C1
ELECTRONIC_STATE 1-A
