8
Energy = -191.4353415300
    C   -0.419823    0.022635   -0.492196
    C    0.790423    0.722873   -0.060503
    C   -1.401430   -0.571379   -0.852165
    H    1.615491   -0.852825    0.756189
    H    1.451749    0.865205   -0.925575
    H    0.531619    1.714020    0.318742
    H   -2.272752   -1.093736   -1.164526
    O    1.477563    0.067615    1.003946

FREQUENCIES 18
198.9193
280.8621
349.9625
557.9563
664.2777
708.6285
914.1239
990.5100
1044.7680
1213.9404
1347.3527
1412.1854
1490.3838
2213.8974
2997.9447
3079.7497
3474.4119
3828.4963

SYMMETRY C1
ELECTRONIC_STATE 1-A
