7
Energy = -115.9733237000
C  0.826638998  0.000361316  0.000044545
H  1.463018858 -0.380095763  0.819195011
H  1.463279011  0.381440872 -0.818614277
C -0.494395544  0.658881497  0.076549966
C -0.493691423 -0.659450432 -0.077480978
H -0.984372932  1.621783736  0.004638993
H -0.982782302 -1.622831412 -0.005948124

FREQUENCIES 15
399.6440
554.3644
702.1242
820.7135
900.2948
920.5283
1009.2354
1018.8455
1114.9839
1307.0055
1561.7191
2915.4610
2943.9744
3215.5698
3259.4446

SYMMETRY C2
ELECTRONIC_STATE 2-B
