8
Energy = -154.2753574000
C 1.678034 0.185235 0.000000
H 2.605149 -0.374316 0.000000
H 1.753777 1.267063 0.000000
C 0.499205 -0.442651 0.000000
H 0.459462 -1.526553 0.000000
C -2.049178 -0.093679 -0.000000
C -0.790666 0.233344 -0.000000
H -0.842757 1.340307 -0.000000
 
FREQUENCIES 18
155.5088 
172.6439 
424.7717
538.2052 
742.5940 
858.1874
933.4748 
946.2385 
1011.9663
1161.2964 
1328.2663 
1442.4542
1661.7852 
1768.1518 
2971.4345
3142.2023 
3171.7812 
3231.7020
 
SYMMETRY CS
ELECTRONIC_STATE 1-A'
