8
Energy = -154.2710591600
C -1.579252 -0.331745 0.000000
H -2.196895 -0.098094 0.875880
H -1.326239 -1.390366 0.000000
H -2.196895 -0.098094 -0.875880
C -0.368374 0.534267 0.000000
H -0.548572 1.611668 0.000000
C 0.890784 0.101096 0.000000
C 2.101213 -0.308629 0.000000
 
FREQUENCIES 18
143.9555 
194.6304 
242.2670
531.4911 
779.1563 
868.4679
1064.0058 
1120.6577 
1184.7416
1386.4493 
1405.0815 
1468.0134
1487.5554 
2042.2232 
3011.7573
3054.2582 
3087.8312 
3144.6041
 
SYMMETRY CS
ELECTRONIC_STATE 1-A'
