9
Energy = -229.1104227400
    O    0.928937    1.418636    0.000000
    C    0.323656    0.258036    0.000000
    C    1.012163   -0.975246    0.000000
    C   -1.074543    0.286432    0.000000
    C   -2.285005    0.283455    0.000000
    H    2.097290   -1.014432    0.000000
    H    0.452896   -1.902269    0.000000
    H    1.899801    1.358935    0.000000
    H   -3.355195    0.286553    0.000000

FREQUENCIES 21
186.6656
224.8234
384.6620
437.2227
573.3117
592.2216
623.8599
750.4416
798.0146
839.1404
902.2461
1004.8292
1165.5367
1415.9353
1470.4886
1498.0991
2188.2994
3143.6828
3265.2517
3413.1852
3716.2712

SYMMETRY CS
ELECTRONIC_STATE 2-A"
