8
Energy = -153.8945541900
C  0.000000000 -0.000000000 -0.641059731
C -0.000000000  0.000000000  0.641058269
C -0.000000000  0.000000000  2.014882769
C  0.000000000 -0.000000000 -2.014884231
H  0.840320661  0.414422674 -2.573060231
H -0.840320661 -0.414422674 -2.573060231
H -0.840320339  0.414423326  2.573058769
H  0.840320339 -0.414423326  2.573058769

FREQUENCIES 18
105.9905
184.6834
353.6790
393.7640
525.6610
657.9750
666.7729
808.6564
891.6271
913.8488
977.4124
1348.4655
1356.8593
1968.1527
3055.9115
3068.1778
3161.9340
3162.5750

SYMMETRY D2
ELECTRONIC_STATE 4-B3
