9
Energy = -229.4396984700
O  1.854250583  0.645210147  0.002063500
C -0.616586900 -0.032385795 -0.000631598
C  0.816741900  0.029746795  0.000458611
C  0.075941323 -1.189206339 -0.001801922
C -1.954639863  0.598498281 -0.000664296
H -0.015246396 -2.268946764 -0.003409556
H -2.061215556  1.240751239  0.878222594
H -2.755254192 -0.144226394 -0.002285655
H -2.059988706  1.243262271 -0.877858929

FREQUENCIES 21
101.2241
232.9555
273.0279
556.6573
615.6552
743.3656
846.6234
856.5743
971.3079
1046.9188
1075.3104
1218.6821
1398.6511
1472.3958
1473.8129
1664.5957
1920.3358
3030.4166
3090.3713
3107.8349
3186.9974

SYMMETRY CS
ELECTRONIC_STATE 1-A'
