9
Energy = -229.1185810700
C -0.868717 0.683304 -0.000162
C 1.207090 -0.156222 -0.000508
O 0.367924 1.052727 -0.000321
C 0.187574 -1.208656 -0.000144
C -1.070874 -0.726541 0.000103
H -1.610122 1.477394 -0.000006
H 1.835832 -0.120941 -0.895889
H 1.836364 -0.120816 0.894492
H -2.022757 -1.237507 0.000408
 
FREQUENCIES 21
365.3584
488.8339 
797.7329
819.2312 
829.9550 
866.0992
914.7798 
997.1872 
1022.8463
1068.5623 
1172.5767 
1242.0444
1253.2477 
1344.5370 
1397.0310
1450.0595 
1581.0566 
3060.4050
3109.2189 
3201.1924 
3244.4211
 
SYMMETRY C1
ELECTRONIC_STATE 2-A
