9
Energy = -229.4064144200
C -0.953395 0.658146 0.000000
C 0.308410 -1.255070 0.000000
O -0.919872 -0.773545 0.000000
C 1.204311 -0.035814 0.000000
C 0.276445 1.147683 0.000000
H -1.941199 1.089234 0.000000
H 1.868744 -0.091015 0.872472
H 1.868744 -0.091015 -0.872472
H 0.549519 2.191372 0.000000
 
FREQUENCIES 21
293.0500 
520.4070 
714.2861
806.9202 
814.3804 
848.3783
866.0316 
900.2961 
926.9551
954.3430 
1103.6518 
1115.5178
1182.5690 
1254.8603 
1327.0541
1382.9569 
1648.7070 
3025.9360
3048.5010 
3241.8857 
3274.8981
 
SYMMETRY CS
ELECTRONIC_STATE 1-A'
