8
Energy = -154.2400158700
C -0.000545897  1.079798919  0.001763974
H -2.124766912  0.202731285 -0.000584735
C -1.047299109  0.172016689 -0.000228988
H  2.125024086  0.206002724  0.001037011
C  1.047604890  0.173629322  0.000570440
C  0.001027049 -0.961771945 -0.001822372
H  0.001163246 -1.584755740  0.897976002
H  0.001848380 -1.581590098 -0.903803926

FREQUENCIES 18
390.2683
533.3188
552.9204
837.3869
871.9633
890.9817
916.1873
1056.1924
1081.2065
1098.6533
1173.7022
1217.6941
1385.9389
1473.3887
3017.9707
3075.8343
3254.0468
3258.2291

SYMMETRY C2V
ELECTRONIC_STATE 3-A2
