8
Energy = -153.8248252000
    C    0.012900    0.024006    0.067457
    C   -1.472007   -0.096745   -0.003422
    H   -1.783580   -0.629287    0.904768
    H   -1.942909    0.884548   -0.034941
    H   -1.743861   -0.686305   -0.881830
    C    0.900923    1.052105   -0.105024
    C    1.141450   -0.734575   -0.090415
    H    1.976516   -1.120452    0.489888

FREQUENCIES 18
44.0291
228.2220
353.3845
375.4120
584.7825
756.9206
812.4991
945.2465
985.0249
1095.1579
1351.3133
1407.3780
1447.6642
1512.2635
3013.7135
3103.8478
3156.6719
3177.8109

SYMMETRY C1
ELECTRONIC_STATE 4-A
