8
Energy = -154.2499686200
    C   -1.862922    0.001705   -0.004476
    H   -2.305726   -0.908338   -0.422026
    H   -2.280777    0.881480   -0.505561
    H   -2.177772    0.060123    1.046314
    C   -0.420481   -0.008183   -0.015611
    C    0.818300   -0.014237   -0.003682
    C    2.149209    0.165274    0.005399
    H    2.714421   -0.776982    0.005351

FREQUENCIES 18
89.8789
127.6178
193.4608
407.8866
469.7381
784.4558
923.2211
1015.2453
1058.7001
1329.3710
1393.8678
1437.2356
1487.4879
2078.0742
2999.1325
3043.7395
3051.5770
3061.7730

SYMMETRY C1
ELECTRONIC_STATE 1-A
