9
Energy = -229.4671663800
O  1.849757298 -1.286296938  0.005601387
C  0.469981388  0.859660151 -0.026200329
C  0.823461976 -0.667007043  0.004699147
C -0.959135522  0.325341077  0.005072377
C -0.636429007 -0.982748780  0.031286567
H  0.773994931  1.384971186 -0.935819560
H  0.797518198  1.426555507  0.849660595
H -1.911232710  0.840924281  0.005607952
H -1.208116199 -1.901598817  0.060218676

FREQUENCIES 21
212.6789
455.5747
527.1222
698.6589
811.9173
859.6138
962.3918
969.0734
1009.8464
1027.4735
1084.1059
1103.7892
1208.5085
1301.4677
1466.4240
1580.8484
1849.8502
3042.5925
3090.3437
3194.6625
3222.2840

SYMMETRY CS
ELECTRONIC_STATE 1-A'
