8
Energy = -153.8178565700
C  1.767944002  0.167208058  0.000009251
H  2.325215316  0.287920043 -0.934923771
H  2.325233688  0.288537087  0.934851445
C  0.524916002 -0.105904928  0.000111595
C -0.853971999 -0.424006956  0.000230121
H -1.006760542 -1.115986437  0.860610377
H -1.006777446 -1.116554153 -0.859690225
C -1.879833006  0.638545782 -0.000110451

FREQUENCIES 18
70.6098
208.9625
268.1159
524.5470
551.4896
835.1740
872.1765
877.9818
1027.5794
1105.9872
1160.4156
1218.1018
1289.3950
1879.1648
2881.4640
2887.8883
3050.7377
3114.3648

SYMMETRY CS
ELECTRONIC_STATE 4-A"
