9
Energy = -229.4194705700
C -1.300197 0.263128 0.640672
C 1.129511 -0.419145 0.000000
O 1.608972 0.691352 0.000000
C -0.332398 -0.720272 0.000000
C -1.300197 0.263128 -0.640672
H -1.630539 0.637611 1.592794
H -0.570855 -1.784586 0.000000
H 1.788003 -1.315630 0.000000
H -1.630539 0.637611 -1.592794
 
FREQUENCIES 21
98.7760 
244.9387 
316.7445
622.5341 
761.9615 
763.2292
839.0325 
874.7122 
970.1049
991.5618 
1011.9522 
1068.6858
1109.6788 
1354.8859 
1408.8288
1752.2018 
1785.7149 
2869.5232
3076.2902 
3266.9582 
3318.6523
 
SYMMETRY CS
ELECTRONIC_STATE 1-A'
