9
Energy = -229.4451653100
C  2.267574437 -0.453863693 -0.529524472
C -1.164621834  0.309722382  0.207175074
O -0.778678298  1.444999867  0.248578989
C -0.306946001 -0.917345179 -0.082352759
C  1.102491996 -0.661890297 -0.326984938
H  3.296942475 -0.259041318 -0.707349220
H -2.232508090  0.058481996  0.386655409
H -0.440542780 -1.603281367  0.765812083
H -0.767751006 -1.429894746 -0.938326965

FREQUENCIES 21
142.5655
149.0778
321.3064
376.9485
681.5480
692.7348
714.0798
735.3498
829.9560
1017.2618
1045.3645
1235.4918
1324.6475
1411.7401
1436.8875
1822.8851
2230.4288
2879.3035
3002.7979
3024.1373
3476.8684

SYMMETRY CS
ELECTRONIC_STATE 1-A'
