8
Energy = -153.8865225800
    C   -0.479741    0.396642   -0.000126
    C    0.637596   -0.422572   -0.000128
    C    1.997562   -0.110549   -0.000795
    H    2.496448    0.863795   -0.001100
    H   -0.341024    1.481726    0.000182
    C   -1.755755   -0.138048   -0.000548
    H   -1.911455   -1.212071   -0.000517
    H   -2.626984    0.508490   -0.000665

FREQUENCIES 18
147.0060
246.8936
477.3781
485.8128
762.9259
910.5939
945.9425
959.2633
1067.2441
1177.7045
1269.1221
1333.4518
1499.8996
1605.8081
3076.8216
3092.7130
3144.4989
3255.0016

SYMMETRY C1
ELECTRONIC_STATE 4-A
