9
Energy = -229.4500194400
    O   -3.388515   -1.030683    0.000000
    C    1.241562    0.735854    0.000000
    C    0.248502   -0.380360    0.000000
    C   -1.071625   -0.227920    0.000000
    C   -2.255900   -0.733933    0.000000
    H    1.895706    0.656138    0.876680
    H    1.895706    0.656138   -0.876680
    H    0.754643    1.710327    0.000000
    H    0.680123   -1.385661    0.000000

FREQUENCIES 21
98.3511
133.5772
190.8753
430.5932
509.7176
619.3036
814.0366
814.3263
1063.0568
1084.0889
1125.3329
1357.2425
1394.9554
1473.0661
1473.2638
1774.3746
2236.0149
3010.3006
3052.5896
3053.9711
3131.7626

SYMMETRY CS
ELECTRONIC_STATE 1-A'
