8
Energy = -154.3089235100
    C    0.000239    1.591418    0.000000
    H   -0.928120    2.148469    0.000000
    H    0.928768    2.148187   -0.000000
    C    0.000037    0.261739    0.000000
    C   -0.659142   -1.019705    0.000000
    H   -1.571918   -1.593318   -0.000000
    C    0.658826   -1.019905   -0.000000
    H    1.571428   -1.593796    0.000000

FREQUENCIES 18
359.2586
427.3485
687.6425
707.4565
773.0962
840.8217
847.2856
913.1154
1017.6365
1060.0775
1116.1864
1452.6885
1594.5303
1818.9037
3142.0245
3225.8914
3234.9327
3276.2639

SYMMETRY C2V
ELECTRONIC_STATE 1-A1
