8
Energy = -154.2174790100
C -1.538461 -0.376889 0.000000
H -2.169614 -0.221511 0.881864
H -1.192626 -1.410431 0.000000
H -2.169614 -0.221511 -0.881864
C -0.385157 0.587406 0.000000
H -0.602132 1.654268 0.000000
C 0.922350 0.238289 0.000000
C 2.025819 -0.417103 0.000000
 
FREQUENCIES 18
88.4923 
205.7279 
430.9259
564.4010 
571.6879 
840.2365
1012.4273 
1033.4277 
1109.1633
1248.0046 
1387.1082 
1439.4356
1477.5355 
1507.3684 
3012.4023
3056.4047 
3116.4544 
3129.9099
 
SYMMETRY CS
ELECTRONIC_STATE 3-A"
