9
Energy = -229.4429027700
O    0.000000    0.000000    2.307199
C   -0.000000   -0.754889   -1.425534
C   -0.000000    0.754889   -1.425534
C    0.000000   -0.000000   -0.146861
C    0.000000    0.000000    1.136436
H    0.915936   -1.266363   -1.706423
H   -0.915936   -1.266363   -1.706423
H   -0.915936    1.266363   -1.706423
H    0.915936    1.266363   -1.706423

FREQUENCIES 21
66.5207
170.6182
518.0700
646.6886
659.3966
807.5880
932.4612
932.8288
1030.5083
1059.8795
1066.1760
1096.3494
1167.2899
1468.2039
1473.9749
1572.7626
2252.6108
3094.1832
3094.7532
3169.7647
3182.7763

SYMMETRY C2V
ELECTRONIC_STATE 1-A1
