8
Energy = -153.9834780900
    C    1.524483    0.078906   -0.000039
    H    1.821913    1.127814   -0.003145
    H    1.933141   -0.434161   -0.879723
    H    1.932035   -0.428218    0.883659
    C    0.081285   -0.085114   -0.000062
    C   -1.077134   -0.810597    0.000090
    C   -1.191700    0.526258   -0.000006
    H   -1.736942    1.462262   -0.000031

FREQUENCIES 18
58.0348
355.6673
406.9126
779.7275
886.2330
930.4306
1014.3611
1030.5727
1171.3551
1371.7753
1402.9427
1435.3869
1446.7340
1733.4897
3016.0299
3071.7352
3134.8960
3241.3450

SYMMETRY C1
ELECTRONIC_STATE 2-A
