8
Energy = -153.8798341400
C  0.000427019  0.910197997  0.000628152
H  0.000680204  1.583631715  0.883938446
H  0.000799470  1.584760273 -0.881820549
C -0.000511696 -1.112360994 -0.000664601
C  1.076889231 -0.138059383  0.000030882
H  2.156387943 -0.163960454  0.000087241
C -1.077007768 -0.137059618 -0.000113962
H -2.156530057 -0.161958547 -0.000202791

FREQUENCIES 18
297.7101
364.9890
562.5653
775.3774
879.3697
892.2189
910.1183
922.3951
1058.0310
1096.7523
1153.0197
1226.5858
1244.0109
1277.6621
2884.5917
2896.0533
3258.5748
3265.5310

SYMMETRY C2V
ELECTRONIC_STATE 4-B2
