8
Energy = -153.8828264100
    C    0.248351   -0.384851   -0.551993
    C    1.533338   -0.904827   -0.524937
    C   -1.410890    1.143987    0.367064
    C   -0.138193    0.609127    0.368330
    H    1.838580   -1.670449   -1.230899
    H    2.268331   -0.563076    0.197966
    H    0.565860    0.984130    1.116272
    H   -0.470348   -0.740155   -1.283174

FREQUENCIES 18
200.5702
317.9180
487.9944
540.5129
885.2287
963.8139
981.2371
1062.3249
1222.2331
1271.5014
1281.9185
1318.0129
1485.4604
1578.1432
3085.6652
3139.1174
3189.6084
3247.0248

SYMMETRY C1
ELECTRONIC_STATE 4-A
