8
Energy = -154.2458648700
    C    1.784369    0.186632    0.000443
    H    2.338715    0.336833   -0.925251
    H    2.338687    0.338242    0.925921
    C    0.530447   -0.156690    0.000696
    C   -0.774044   -0.504630    0.000795
    H   -1.005569   -1.571384   -0.000502
    H   -1.945600    1.455275   -0.000133
    C   -1.829243    0.381248   -0.000062

FREQUENCIES 18
206.5879
213.2343
471.0509
537.7198
582.3433
866.1095
866.2279
889.5002
981.0220
1008.8693
1190.0570
1343.8312
1442.9201
1898.7373
3071.5280
3084.4413
3132.6241
3234.6450

SYMMETRY C1
ELECTRONIC_STATE 3-A
