8
Energy = -153.8750349600
    C    1.884381    0.003053    0.000394
    H    2.308007    0.481080   -0.893771
    H    2.200852   -1.061093   -0.040825
    H    2.310563    0.421596    0.921427
    C    0.466092    0.058409    0.001027
    C   -0.819744    0.005272   -0.000026
    C   -2.154545   -0.106930    0.000101
    H   -3.080870    0.446063   -0.004605

FREQUENCIES 18
27.2735
154.0216
174.8385
332.7503
386.7435
559.9191
773.8063
798.7838
885.8781
1249.5879
1294.5282
1326.2502
1413.0850
1900.9985
2881.7406
2993.2915
3014.3788
3274.0256

SYMMETRY C1
ELECTRONIC_STATE 4-A
