8
Energy = -154.2097496000
    C   -0.095608    0.174849   -0.003363
    C   -1.533583   -0.101149   -0.004312
    H   -1.831059   -0.606393    0.920848
    H   -2.098164    0.831460   -0.091862
    H   -1.805879   -0.753267   -0.840432
    C    1.037140    0.817556   -0.045078
    C    1.275000   -0.576093    0.141716
    H    1.656169   -1.354072   -0.521997

FREQUENCIES 18
154.2744
287.4792
300.4793
585.7109
875.4629
901.8271
940.6328
1034.6354
1046.9810
1109.0000
1402.6059
1462.8561
1473.2481
1805.3598
3012.8527
3064.2825
3066.7946
3088.2735

SYMMETRY C1
ELECTRONIC_STATE 3-A
