8
Energy = -154.2044557000
    C   -1.686982   -0.107642    0.021521
    H   -2.565311    0.526701    0.007851
    H   -1.846720   -1.179962    0.062282
    C   -0.422274    0.415076   -0.017778
    H   -0.286479    1.492829   -0.039182
    C    2.049036    0.179697    0.034599
    C    0.748572   -0.380780   -0.043283
    H    0.604750   -1.469616   -0.022132

FREQUENCIES 18
137.4921
300.8473
484.5626
514.3999
705.4823
946.9231
950.3415
1019.9315
1119.9997
1211.6785
1279.0134
1312.6119
1455.4801
1535.8360
3001.7678
3137.9814
3159.8543
3235.4812

SYMMETRY C1
ELECTRONIC_STATE 3-A
