6
Energy = -115.0832021000
C  0.621584268 -0.592705628 -0.323096382
H  0.756155328 -0.891855746 -1.403976098
H  0.900062328  0.486293254 -0.507792098
H -0.975047814 -1.110175228  0.729049992
H  1.256902094 -1.119168064  0.384478177
O -0.713463572 -0.611563168 -0.079718650

FREQUENCIES 12
314.3358
945.8129
977.7035
1040.1760
1213.4202
1236.0050
1280.9819
1480.1544
2639.5194
2749.3616
3179.6575
3569.1260

SYMMETRY CS
ELECTRONIC_STATE 2-A"
