2
Energy = -38.0104804220
    C    0.736113    0.000000    0.000000
    H    1.875870    0.000000    0.000000

FREQUENCIES 1
2806.9700

SYMMETRY C*V
ELECTRONIC_STATE 1-SG
