2
Energy = -38.3696417040
    C    1.235137    0.000000    0.000000
    H    2.330969    0.000000    0.000000

FREQUENCIES 1
3047.0668

SYMMETRY C*V
ELECTRONIC_STATE 4-SG
