2
Energy = -38.3914460080
    C    0.829378    0.000000    0.000000
    H    1.955720    0.000000    0.000000

FREQUENCIES 1
2820.9811

SYMMETRY C*V
ELECTRONIC_STATE 2-PI
