3
Energy = -76.0104465770
    C    0.745116   -0.571315   -0.000000
    C   -0.116303    0.339752    0.000000
    H   -0.863212    1.131247    0.000000

FREQUENCIES 4
505.6876
810.1232
1884.1947
3237.7984

SYMMETRY C*V
ELECTRONIC_STATE 3-PI
