4
Energy = -151.1387282700
    C    0.229791   -1.516857   -0.246682
    C   -0.019427    1.125001    0.208150
    H   -0.796982    1.223068    1.004993
    O   -0.075031   -0.460034    0.142356

FREQUENCIES 6
222.2535
245.2123
376.4610
1257.0524
1887.2745
2947.0087

SYMMETRY C1
ELECTRONIC_STATE 1-A
