4
Energy = -151.0668156800
C -0.895126000  0.017703000 -0.095567000
C  0.259559000 -1.001380000  0.273764000
H  1.158708986  0.929447005 -0.601383068
O  0.472473063  0.269225500 -0.280616683

FREQUENCIES 6
515.4239
600.2506
783.6904
1037.2739
1139.5299
3290.7388

SYMMETRY CS
ELECTRONIC_STATE 1-A'
