4
Energy = -151.4207144900
C -1.087130000  0.793289000 -0.475344000
C  0.206838000  0.480922000  0.096863000
H  1.326876432 -0.868227128  0.792333369
O  0.434733723 -0.771904805  0.419907664

FREQUENCIES 6
490.1728
499.9546
997.2017
1169.1505
1301.7536
3715.9741

SYMMETRY CS
ELECTRONIC_STATE 4-A"
