4
Energy = -151.1349720400
C  0.287401000 -0.404061000  0.288606000
C  1.605403000 -0.661745000  0.367561000
H -0.983221229  0.663344055 -0.744537722
O -0.817333048  0.014221059 -0.013964892

FREQUENCIES 6
336.2638
366.9402
912.2874
959.6736
1828.9708
3463.8693

SYMMETRY CS
ELECTRONIC_STATE 3-A"
