4
Energy = -151.5115165500
C -0.348243000 -0.250673000  0.451244000
C -0.544692000  0.880358000 -0.264276000
H -0.692216234 -1.010034510  1.140831237
O  0.810267702 -0.134817093 -0.140186952

FREQUENCIES 6
291.0295
823.8031
1041.5322
1297.0428
1550.2276
3224.6043

SYMMETRY CS
ELECTRONIC_STATE 2-A"
