4
Energy = -151.1283865900
C -0.932025000 -0.020607000  0.522999000
C  1.433807000  0.133182000 -0.338718000
H -1.395832269  0.549409963  1.331419891
O  0.352779579  0.148301127  0.146014007

FREQUENCIES 6
256.2608
307.5745
796.3106
1030.8874
1657.9202
3131.6462

SYMMETRY CS
ELECTRONIC_STATE 3-A"
