4
Energy = -114.3492307100
    C    0.860528    0.470152    0.429938
    C   -0.337019    0.243256    0.126139
    C   -1.565801    0.010620   -0.185434
    H    1.873800    0.662109    0.686902

FREQUENCIES 7
277.7044
277.7054
444.1582
444.1583
1283.2839
1725.2862
3453.7769

SYMMETRY C*V
ELECTRONIC_STATE 4-SG
