4
Energy = -114.3023366200
C  0.764667146  0.340798006  0.529013579
C -0.601225248 -0.280350416  0.414340237
C -0.149771248  0.314919584 -0.665879763
H  1.039885206  1.215412901  1.126003362

FREQUENCIES 6
531.7317
885.1956
924.7619
1028.8287
1637.9788
3033.2112

SYMMETRY CS
ELECTRONIC_STATE 4-A"
