4
Energy = -114.0372962100
C  0.252949610  0.712310477  0.226683044
C  0.409710176 -0.586591408 -0.164850693
C -0.785635685  0.060111325 -0.407172516
H -1.798086208  0.057620268 -0.804269019

FREQUENCIES 6
889.2030
896.0406
1182.9032
1240.0971
1618.3738
3200.4799

SYMMETRY C2V
ELECTRONIC_STATE 3-B2
