4
Energy = -114.3980669700
C  0.490369928 -0.135224659 -0.722921543
C  0.225727708  0.374144686  0.524997362
C -0.793386935  0.180659515 -0.375426462
H  0.568090585  0.693084500  1.499867715

FREQUENCIES 6
559.3128
876.1699
918.8436
1228.1495
1615.8848
3228.3366

SYMMETRY C2V
ELECTRONIC_STATE 2-B2
