5
Energy = -189.5141272700
C  0.525841000  0.047638000 -0.244800000
C -1.876551000 -1.092183000 -0.222868000
C -0.817886363 -0.457078585 -0.077429884
H  1.117549314 -0.375387402 -1.072044110
O  0.956096565  0.895589401  0.503108857

FREQUENCIES 9
218.0592
220.5803
523.3485
886.4646
970.5370
1378.2833
1490.1071
1750.5668
2991.2958

SYMMETRY CS
ELECTRONIC_STATE 2-A'
