5
Energy = -189.1264070600
    C    0.073239    0.412724   -0.145229
    C    0.086025   -0.888333   -0.017855
    C   -0.006251   -2.118654   -0.169723
    H    0.619479    1.680630    1.177450
    O    0.263870    1.561894    0.263013

FREQUENCIES 9
197.9568
224.7335
350.4637
633.9338
935.4050
1116.7348
1775.1176
2004.9731
3461.0331

SYMMETRY C1
ELECTRONIC_STATE 3-A
