5
Energy = -189.1888077500
    C   -0.754077    0.701459   -0.561539
    C    0.094492    0.011555    0.033475
    C   -1.651895    1.431407   -1.191091
    H    1.031290   -0.839060    1.487569
    O    0.971835   -0.687628    0.515050

FREQUENCIES 9
137.7461
142.4162
502.5980
565.6317
928.2304
990.0685
1720.0417
2328.0695
3541.7734

SYMMETRY C1
ELECTRONIC_STATE 1-A
