5
Energy = -189.2368920900
C -1.749211512  0.378717778  0.142745408
C  0.631714144  0.170613771 -0.062007243
C -0.654255000 -0.126146000 -0.446854000
H -0.842351122 -0.816665490 -1.286710437
O  1.673804596  0.422629369  0.263822342

FREQUENCIES 9
216.2870
435.9296
533.0031
643.6587
970.3152
1024.3005
1617.3732
2367.1405
3005.0449

SYMMETRY CS
ELECTRONIC_STATE 1-A'
