5
Energy = -152.2845576800
C  0.905954000  0.026008000 -0.093300000
C -0.526461000  0.075842000  0.183249000
C -1.693411905 -0.544972595  0.622640204
C  0.131564093  1.148118982 -0.298290028
H -2.703340250 -0.155246636  0.702843881

FREQUENCIES 9
343.3944
403.7428
620.3153
679.8143
893.7375
941.7711
1305.7476
1649.4979
3175.2779

SYMMETRY CS
ELECTRONIC_STATE 4-A"
