5
Energy = -151.9820190100
    H    1.125764    1.657603   -0.000000
    C    0.829061    0.611322    0.000000
    C   -0.330800   -0.150131   -0.000000
    C    0.989790   -0.770532   -0.000000
    C   -1.693093    0.030363   -0.000000

FREQUENCIES 9
194.5775
239.6418
785.6896
875.5270
911.5402
992.4252
1295.4734
1640.3300
3204.2994

SYMMETRY CS
ELECTRONIC_STATE 1-A'
