5
Energy = -152.3209197100
C -0.193384000 -0.760348000  0.000004910
H -0.055805000 -1.836371000 -0.000003229
C  0.586420000  0.643163000 -0.000016903
C -0.191585637  0.213166965  1.090417505
C -0.191659362  0.213174035 -1.090401493

FREQUENCIES 9
510.7397
600.1481
746.1674
895.5980
974.5461
1051.0432
1228.1140
1344.3457
3177.1691

SYMMETRY CS
ELECTRONIC_STATE 2-A'
