5
Energy = -152.2605387100
    H    1.554790   -0.818994    0.000000
    C    0.477760   -0.618200   -0.000000
    C    0.003838    0.642096   -0.000000
    C   -0.384360    1.877605    0.000000
    C   -0.359145   -1.761459    0.000000

FREQUENCIES 9
187.4800
259.3477
529.3583
771.6478
1014.8484
1133.1209
1249.6936
1861.5423
3031.0012

SYMMETRY CS
ELECTRONIC_STATE 4-A"
