5
Energy = -152.2599247200
C -0.344097000 -0.021934000  0.000035000
C  1.014772000  0.492742000 -0.000074000
H  1.695377008  1.333061991 -0.000030320
C  0.785702960 -0.830301953 -0.000264185
C -1.741327961  0.134803954  0.000262795

FREQUENCIES 9
332.9350
333.4917
403.8811
739.6268
871.3734
959.2340
1345.6965
1608.7274
3219.7258

SYMMETRY CS
ELECTRONIC_STATE 4-A"
