5
Energy = -152.2934501600
C  0.531914000  0.400084000  0.110139000
C -0.511039000 -0.369453000  0.101223000
C -1.830125766 -0.302878418  0.421764076
C  1.683115673  1.042356485  0.053883587
H -2.435234883  0.515180193  0.820104048

FREQUENCIES 9
154.8161
220.6937
419.4789
716.6308
958.4837
996.6195
1386.4459
1901.9866
3073.2994

SYMMETRY CS
ELECTRONIC_STATE 4-A"
