5
Energy = -152.3416773400
    C    1.433361   -0.923353   -0.046818
    C    0.380004   -0.127146   -0.009398
    C   -0.948758    0.124117    0.380724
    C   -0.409607    1.148890   -0.291935
    H   -1.721192   -0.403944    0.915654

FREQUENCIES 9
184.9092
348.9299
663.5910
768.1853
919.5502
998.4364
1398.9003
1699.0673
3275.0345

SYMMETRY C1
ELECTRONIC_STATE 2-A
