5
Energy = -151.9837800300
    H   -0.000000   -1.811919   -0.000000
    C    0.000000   -0.718171    0.000000
    C    0.000000    0.708425    0.000000
    C    1.287148    0.177832   -0.000000
    C   -1.287148    0.177832   -0.000000

FREQUENCIES 9
249.0575
428.9282
612.5862
815.4302
874.7610
976.3592
1364.8249
1413.5447
3131.1165

SYMMETRY C2V
ELECTRONIC_STATE 1-A1
