6
Energy = -227.0210375800
    C   -0.130978    0.694240   -0.177803
    C    0.335848   -0.934936    1.013028
    C    1.010990    0.155329    0.535837
    C   -0.771153    1.748536   -0.717337
    H    0.340125   -1.826191    1.627720
    O   -0.488164   -0.722263   -0.080273

FREQUENCIES 12
209.3376
235.8027
276.4244
581.5810
659.5615
731.7732
867.5376
1033.1920
1163.5386
1389.5260
1680.3287
3254.2897

SYMMETRY C1
ELECTRONIC_STATE 1-A
