6
Energy = -227.1561328600
C -0.977850000 -2.416985000 -0.470503000
C  0.600824000  1.303722000 -0.229402000
C  0.130355104 -0.096242541 -0.426139126
C -0.451924241 -1.192467374 -0.396621822
H  1.453671479  1.697458256 -0.792476240
O -0.075865490  1.858302233  0.589268851

FREQUENCIES 12
109.1488
124.8252
236.0964
344.2171
526.8924
807.2304
980.6095
1298.9956
1355.3890
1746.4499
2230.1781
3099.8900

SYMMETRY CS
ELECTRONIC_STATE 1-A'
