6
Energy = -227.0882662400
C -1.777285000 -0.518668000 -0.042305000
C  0.865026000 -0.014084000  0.795314000
C  1.870449176  0.464989274  0.041862987
C -0.369303777 -0.192747816  0.190965487
H  1.020078859 -0.254840249  1.854234016
O -0.899810916 -0.021550078 -0.994964794

FREQUENCIES 12
148.9421
159.5022
372.3290
478.9443
718.3617
745.5893
988.3887
1034.3523
1183.9035
1550.8632
1707.1417
3061.5391

SYMMETRY CS
ELECTRONIC_STATE 1-A'
