6
Energy = -226.9810114200
    C   -1.910471    0.838978   -0.710311
    C   -0.666753    0.309836   -0.859762
    C    2.391687   -0.935976    0.596056
    C    1.186653   -0.431241    0.326846
    H   -0.234920    0.095734   -1.840200
    O    0.042827    0.048962    0.286561

FREQUENCIES 12
-33.9423
154.1851
221.7001
291.6459
499.0102
762.1002
888.3202
1116.9665
1153.7265
1519.3877
1884.8582
3113.1789

SYMMETRY C1
ELECTRONIC_STATE 1-A
