3
Energy = -113.2694969700
    C   -1.073563    0.334802   -0.000000
    H    0.620030   -1.015038    0.000000
    O   -0.165328   -0.388526    0.000000

FREQUENCIES 4
352.8568
352.8568
1940.3114
3340.7644

SYMMETRY C*V
ELECTRONIC_STATE 1-SG
