3
Energy = -113.1237251100
    C   -0.881283   -0.081236    0.000000
    H   -1.432344   -1.051728    0.000000
    O    0.383443   -0.124846    0.000000

FREQUENCIES 3
952.4909
1563.1068
2878.3412

SYMMETRY CS
ELECTRONIC_STATE 3-A'
