3
Energy = -113.1178882200
    C    1.017451   -0.195422    0.000000
    H   -0.421415    1.052847    0.000000
    O   -0.175978    0.081367    0.000000

FREQUENCIES 3
1174.1016
1659.9518
3277.7125

SYMMETRY CS
ELECTRONIC_STATE 3-A'
