2
Energy = -75.0386192370
    H    1.190019    0.000000    0.000000
    O    0.151097    0.000000    0.000000

FREQUENCIES 1
3061.9856

SYMMETRY C*V
ELECTRONIC_STATE 1-SG
