1
Energy = -74.8540800260
  O            0.00000000          0.00000000          0.00000000

FREQUENCIES 0

SYMMETRY R3
ELECTRONIC_STATE 1-D
