2
Energy =  -0.609942328411     
    H    0.000000    0.000000    0.000000
    H    1.114300    0.000000    0.000000

FREQUENCIES 1
1978.6379

SYMMETRY D*H
ELECTRONIC_STATE 2-SGG
