4
Energy =   -77.3620094173     
    H    0.001386    1.660309    0.000000
    C    0.000000    0.598053    0.000000
    C    0.000000   -0.598053    0.000000
    H   -0.001386   -1.660309    0.000000

FREQUENCIES 7
660.0131
660.0131
766.0831
766.0831
2066.6801
3407.3960
3508.1010

SYMMETRY C*V
ELECTRONIC_STATE 1-SG
