5
Energy =   -113.332104383     
C -1.330660000 -0.340361000 -0.000020000
C -0.142537000  0.300488000 -0.000007000
C  1.142696997 -0.141478994  0.000267256
H  2.280240955 -0.452378923  0.000491595
H -0.294280916  1.540611856 -0.000311663

FREQUENCIES 9
351.8421
517.2205
731.3930
777.3683
946.5753
1067.4893
1597.4670
1741.8021
2394.3089

SYMMETRY CS
ELECTRONIC_STATE 2-A'
