5
Energy =   -113.300602930     
C -1.558179909 -0.000248770 -0.000126210
C -0.214716034 -0.000088812  0.000082757
C  1.082004943  0.000065582  0.000284453
H  2.072281876  0.841116006  0.000435007
H  2.072482124 -0.840749006  0.000441993

FREQUENCIES 9
286.2205
290.9674
450.7612
600.7394
694.5134
1032.2691
1078.3892
1529.2198
1932.1956

SYMMETRY CS
ELECTRONIC_STATE 2-A'
