6
Energy =   -153.475996476     
C -1.743932970  0.000550608  0.000152986
C -0.446871893  0.000174911  0.000068890
C  0.839503983 -0.000197690 -0.000014512
C  2.117379881 -0.000567829 -0.000097364
H -2.299668858 -0.929223052  0.000186988
H -2.299130142  0.930646052  0.000191012

FREQUENCIES 12
160.6334
206.9483
427.2091
530.3962
794.9620
927.4657
949.3100
1379.2103
1749.3226
2157.4496
3130.1959
3207.5462

SYMMETRY CS
ELECTRONIC_STATE 1-A'
