7
Energy =   -191.466246880     
    C    0.469187   -0.000018   -0.060199
    C   -0.697576   -0.881757   -0.183340
    C   -1.634703    0.000037    0.296950
    C   -0.697511    0.881821   -0.183233
    C    1.783534   -0.000074    0.081569
    H    2.331241    0.928725    0.144816
    H    2.331174   -0.928922    0.144702

FREQUENCIES 15
274.1173
358.6713
587.7286
630.9799
661.2637
740.1458
910.5466
933.8197
1034.7401
1150.8232
1358.8572
1444.7778
1739.8045
3155.1776
3246.0965

SYMMETRY CS
ELECTRONIC_STATE 3-A"
