7
Energy =   -189.778973331     
C  2.478752996  0.000191796  0.000059918
C  1.065575983  0.000083465  0.000042362
C -0.216237018 -0.000014795  0.000026439
C -1.519721001 -0.000114717  0.000010246
C -2.824648961 -0.000214750 -0.000005965
H  3.048797316  0.967974010  0.000070002
H  3.048945684 -0.967503010  0.000063998

FREQUENCIES 15
150.8851
155.8970
335.1315
353.0800
546.9188
582.2141
690.4983
915.1936
1094.6127
1117.0892
1294.4760
1682.0813
1996.0331
2749.3961
2853.7997

SYMMETRY C2
ELECTRONIC_STATE 4-A
