7
Energy =   -191.466583203     
    C    0.883680    0.687096   -0.000042
    C    0.883222   -0.687685    0.000096
    C   -0.541193   -1.095893    0.000104
    C   -1.265439    0.000421   -0.000023
    C   -0.540463    1.096253   -0.000116
    H    1.741025    1.341225   -0.000088
    H    1.740132   -1.342384    0.000181

FREQUENCIES 15
416.1732
535.1263
625.1309
668.6497
700.2573
866.2299
954.3177
1008.2780
1059.9743
1081.0828
1285.0244
1374.8174
1457.7169
3211.9882
3232.9414

SYMMETRY C2V
ELECTRONIC_STATE 3-B2
