7
Energy =   -191.019143252     
    C   -0.344773    0.230637   -0.003258
    C    1.092549    0.510756   -0.006783
    C   -1.508080   -0.138007    0.675347
    C    1.794197   -0.801464    0.011326
    C   -1.506774   -0.160780   -0.671505
    H    1.418345    1.090269    0.872512
    H    1.418939    1.062886   -0.903281

FREQUENCIES 15
55.7059
187.6577
227.9241
362.7202
513.8416
756.5848
889.5938
1015.3318
1151.8753
1172.5980
1323.1645
1328.0106
1647.5755
2951.3269
2992.5419

SYMMETRY C1
ELECTRONIC_STATE 4-A
