7
Energy =   -189.657762289     
    C    1.325726   -0.359128    0.069813
    C   -0.000693   -0.836783   -0.000133
    C   -1.326318   -0.356905   -0.069918
    C   -0.716110    0.908380    0.164659
    C    0.717618    0.907247   -0.164340
    H    2.375649   -0.790415    0.063707
    H   -2.376955   -0.786454   -0.063956

FREQUENCIES 15
320.4944
452.6498
515.5621
572.9258
711.3191
723.0191
789.9728
880.0699
962.5537
988.3574
993.4159
1190.2542
1280.4193
2648.6505
2701.7232

SYMMETRY C2
ELECTRONIC_STATE 4-B
