7
Energy =   -191.121719369     
C  1.237162856 -0.398519019  0.000471457
C -0.210222073 -0.732267010 -0.000115802
C -1.536154727 -0.383052964 -0.000620104
C -0.683988849  0.700947020 -0.000228711
C  0.598544804  1.029225974  0.000293334
H  1.783614004 -0.649046737  0.909413009
H  1.784329874 -0.648953279 -0.908065100

FREQUENCIES 15
230.6461
365.1145
375.1120
575.2285
808.5705
872.2444
940.4084
1058.7276
1084.9800
1135.9824
1385.2898
1415.8110
1452.1561
3077.8087
3148.2098

SYMMETRY CS
ELECTRONIC_STATE 2-A"
