7
Energy =   -189.718062994     
C  1.937421650 -0.476297465  0.000020189
C  0.686188453 -0.105543513 -0.000010784
C -0.686278065 -0.105117476 -0.000046588
C -1.937741196 -0.475094549 -0.000080905
C  0.000417944  1.385408006 -0.000021953
H -3.049188738 -0.672696066 -0.000110793
H  3.048746300 -0.674588968  0.000048288

FREQUENCIES 15
174.4599
225.2340
240.6287
285.4755
406.7873
535.1074
745.3371
748.0719
848.4769
848.6272
863.2063
1528.6739
1893.1183
2815.0714
2830.2502

SYMMETRY C2
ELECTRONIC_STATE 2-A
