7
Energy =   -189.637556350     
C -1.323941000  0.216271000  0.000501000
C  0.047705000  0.643812000 -0.000057000
C  1.229283937 -0.067236034 -0.000334463
C  2.469210864 -0.426417074 -0.000698487
C -2.097211787 -0.821426885  0.000965569
H -2.200922158  0.994513914  0.000659774
H  0.217829993  1.759097996 -0.000326207

FREQUENCIES 15
152.4626
195.4908
265.4085
274.4353
483.0839
538.1869
801.7706
866.1320
949.5758
1103.0382
1333.8073
1646.4868
1672.6991
2401.6160
2720.9565

SYMMETRY CS
ELECTRONIC_STATE 2-A'
