7
Energy =   -191.556632422     
C -2.384835007  0.292757243 -0.000140528
C -1.219575058 -0.082983096 -0.000064703
C  0.000083024 -0.640338978  0.000020873
C  1.219598856 -0.082671910  0.000064233
C  2.384762896  0.293365740  0.000111595
H -3.381837257  0.658733068 -0.000207088
H  3.381671734  0.659595945  0.000150434

FREQUENCIES 15
119.9060
191.4524
212.3431
317.6355
324.1954
456.9297
540.7904
823.2225
823.8859
840.2722
1402.6201
1976.1014
2049.8386
3451.0847
3454.7621

SYMMETRY C2
ELECTRONIC_STATE 1-A
