7
Energy =   -152.186594175     
C  1.725070000  0.108304000  0.000077000
H  2.248714000  1.120813000  0.000104000
H  2.890000000 -0.474497000  0.000105635
H  2.114685001 -1.114798000  0.000075179
C  0.371862998 -0.010260001  0.000034917
C -0.885761000 -0.018428000 -0.000003062
C -2.419846999 -0.001386999 -0.000049090

FREQUENCIES 15
166.0172
177.0052
344.4233
365.4333
387.5463
685.5976
705.1616
894.3755
1091.8403
1289.0984
1433.7239
1482.5444
1994.5899
2263.2304
2668.5944

SYMMETRY C1
ELECTRONIC_STATE 1-A
