7
Energy =   -152.052657938     
    C   -0.225345    0.069810   -0.000737
    C   -0.980205    1.195409   -0.001649
    C   -0.997590   -1.256464    0.002992
    C    1.285599    0.075174   -0.000985
    H    1.801395    1.055300   -0.001506
    H    1.849934   -0.776888    0.665302
    H    1.847735   -0.782008   -0.660707

FREQUENCIES 15
189.4505
271.5837
359.6677
396.8445
501.0900
718.7221
789.9625
799.4136
877.0196
926.3500
1157.6922
1365.0427
1793.2761
2272.4825
2938.0542

SYMMETRY C1
ELECTRONIC_STATE 3-A
