7
Energy =   -153.720677043     
C -0.630808994 -0.823072001  0.000061345
H -0.682282996 -1.370092001 -0.935404567
H -0.682082996 -1.370131001  0.935515433
C -0.879371989  0.609178998  0.000117772
H -1.683029943  1.336706989  0.000218848
C  0.438291983  0.549767003 -0.000024324
C  1.579788994 -0.101954999 -0.000159935

FREQUENCIES 15
141.9688
152.0417
572.4017
661.3562
934.1936
938.8327
1041.2313
1067.0283
1154.1619
1252.9956
1449.0009
1885.0361
3098.2348
3205.9386
3217.3870

SYMMETRY C1
ELECTRONIC_STATE 1-A
