8
Energy =   -192.129210759     
    C   -1.851170   -0.031119   -0.079379
    H   -2.399708    0.878845   -0.272873
    H   -2.402710   -0.957071   -0.012224
    C   -0.538065   -0.012087    0.044459
    C    0.676322    0.793846    0.022457
    H    0.874411    1.698201    0.593602
    C    1.715666   -0.202012   -0.294576
    C    0.651914   -0.818624    0.255622

FREQUENCIES 18
256.6718
344.0975
576.4871
642.1708
665.1670
768.8113
804.3683
883.0534
934.9202
967.9236
1096.4614
1131.9150
1402.9984
1451.7439
1784.3045
3102.6766
3156.1611
3243.8957

SYMMETRY C1
ELECTRONIC_STATE 2-A
