8
Energy =   -190.478966141     
    C    2.583623   -0.114294   -0.000000
    H    3.695018   -0.227588    0.000000
    C    1.306717   -0.029853    0.000000
    C   -0.000080    0.123600    0.000000
    H    0.003926    1.378767   -0.000000
    C   -1.307302   -0.025701    0.000000
    C   -2.584244   -0.108888    0.000000
    H   -3.695715   -0.221236   -0.000000

FREQUENCIES 18
52.2488
145.8302
172.1476
289.0534
343.1612
416.1314
622.7609
725.7472
807.5281
811.8964
812.4608
812.6061
1380.7492
1858.1932
1960.5865
2049.5572
2943.5157
2946.8683

SYMMETRY CS
ELECTRONIC_STATE 1-A'
