8
Energy =   -192.044170914     
    C    0.507571    0.889580   -0.076736
    C   -0.618593   -0.000570    0.452313
    H   -0.662383   -0.001795    1.538514
    C   -1.901904    0.000032   -0.195644
    H   -2.225654    0.002460   -1.225128
    C    0.507869   -0.889493   -0.078189
    C    1.553119    0.000230   -0.097500
    H    2.599664    0.000659   -0.338847

FREQUENCIES 18
280.9957
283.4090
440.0366
575.1998
619.6230
729.3066
846.8436
892.3004
935.8687
1022.9379
1067.0433
1136.8481
1172.4925
1311.2744
1486.7222
3102.7352
3225.3796
3283.6754

SYMMETRY C1
ELECTRONIC_STATE 4-A
