8
Energy =   -190.276777748     
C  0.768324000 -0.000028008  0.345026996
C -0.404410000 -0.870638259  0.061672003
C -1.520018000  0.000017441 -0.166160000
C -0.404402000  0.870631741  0.061791003
H  1.125327001 -0.000105097  1.449034009
H -2.478590001 -0.000024401  0.510527992
H -2.161963000  0.000087202 -1.143788006
C  2.146377000  0.000019194 -0.438293002

FREQUENCIES 18
241.4338
245.1180
423.3218
511.2847
598.0908
712.4205
715.0304
739.5824
810.3786
857.5572
945.5453
981.4731
1000.4828
1141.4093
1291.4092
2267.8230
2401.7741
2470.2495

SYMMETRY C1
ELECTRONIC_STATE 1-A
