8
Energy =   -191.748042256     
    C   -0.656681   -0.458952    0.390103
    C    0.445282    1.160833    0.304888
    H   -0.759370   -0.939708    1.355191
    C    0.741240   -0.146779   -0.024266
    C    2.005226   -0.420282   -0.321180
    C   -1.696034   -0.026961   -0.356326
    H   -1.563591    0.527081   -1.277622
    H   -2.711240   -0.234523   -0.036882

FREQUENCIES 18
90.3215
134.6548
213.2101
336.9240
474.7643
615.8989
776.3695
980.3924
1055.5820
1093.8663
1215.1521
1314.6190
1407.4118
1573.3116
1698.2799
3135.6467
3181.5750
3236.0440

SYMMETRY C1
ELECTRONIC_STATE 1-A
