8
Energy =   -191.811294230     
    C    0.000000    0.233285    0.000000
    C   -1.055817   -0.722161    0.000000
    H   -2.086761   -0.371258    0.000000
    C    1.335477    0.556505    0.000000
    H    2.369553    0.247827    0.000000
    C   -0.780749   -2.023866    0.000000
    C    0.422006    1.543810    0.000000
    H    0.191708    2.597993    0.000000

FREQUENCIES 18
158.6341
240.2076
422.2730
549.4481
754.3635
824.0600
865.2605
985.2747
997.1298
1031.8098
1230.0780
1305.7017
1400.9993
1500.3706
1751.1469
3092.4032
3240.1564
3273.1216

SYMMETRY CS
ELECTRONIC_STATE 3-A'
