8
Energy =   -191.179896367     
    C    2.317054   -0.241199    0.000000
    H    3.279303   -0.763371    0.000000
    C    0.941163   -0.540326    0.000000
    H    0.619346   -1.587160    0.000000
    C    0.000000    0.519813    0.000000
    H    0.327933    1.562116    0.000000
    C   -1.363004    0.266491    0.000000
    C   -2.599643    0.126624    0.000000

FREQUENCIES 18
125.8939
146.5868
351.1707
359.1151
499.2867
593.4117
772.0713
882.9588
960.4945
1011.6392
1139.0139
1228.4949
1294.4724
1442.1561
2069.2838
3061.5031
3098.9556
3113.4606

SYMMETRY CS
ELECTRONIC_STATE 4-A"
