8
Energy =   -191.764302804     
C -0.344838013  1.282830966 -0.000331237
C -1.001849997  0.080790009  0.000034861
C  0.530304999  0.314526997 -0.000171865
C -1.953874984 -0.882867959  0.000369403
C  1.743929996 -0.463923010 -0.000092968
H  1.780831857 -1.103476459 -0.887207576
H  2.597107011  0.218827029 -0.000347234
H  1.781003119 -1.103029604  0.887336484

FREQUENCIES 18
86.2668
154.2868
313.7275
369.2928
395.0644
410.7075
864.4911
976.4126
1012.4699
1021.4760
1383.0710
1414.7139
1423.8101
1560.2605
1807.5940
3007.4165
3074.4020
3094.4914

SYMMETRY CS
ELECTRONIC_STATE 3-A"
