7
Energy =   -115.652371212     
C  1.088502000 -0.292463999  0.000163013
C -1.019748000 -0.242882999  0.000147321
C  0.092299000  0.647328999  0.000052781
H  1.771110000 -1.158248996  0.000263435
H -1.446375435 -0.635886105 -0.949925149
H  0.156468000  1.758007992 -0.000071530
H -1.446384565 -0.635672897  0.950303858

FREQUENCIES 15
260.8339
480.7546
498.4552
656.7419
683.8041
910.7061
936.7851
1094.6976
1147.0329
1272.4662
1354.4092
2833.7847
2887.9034
2922.7825
3046.9326

SYMMETRY C1
ELECTRONIC_STATE 3-A
