7
Energy =   -115.564206864     
C  1.448759980  0.390791967  0.000735753
C  0.193583986 -0.419940022 -0.000100155
C -1.106682967  0.214101054 -0.000185508
H  0.236879928 -1.103312658 -0.901731379
H  0.236296093 -1.104267307  0.900834585
H -1.968687104 -0.470212170 -0.000827120
H -1.295148909  1.294887148  0.000325840

FREQUENCIES 15
107.1535
369.4801
643.4366
754.5146
949.2706
1055.0996
1168.5301
1212.0608
1236.6066
1326.4932
1445.3032
2689.4762
2731.4075
2994.5148
3117.9887

SYMMETRY CS
ELECTRONIC_STATE 3-A"
