8
Energy =   -152.752236649     
C  1.324603996 -0.274096012  0.000083028
C  0.157431022 -0.917712940 -0.000289518
C -1.036201980 -0.137261947 -0.000171373
C  0.126330968  0.845388913  0.000318206
H -1.951278214 -0.199286834  0.799349369
H -1.951073710 -0.198731957 -0.799968955
H  0.234570857  1.649747298  0.892711628
H  0.234799002  1.650366319 -0.891489153

FREQUENCIES 18
321.6084
353.7903
383.0958
580.3323
602.2289
638.3105
681.2545
705.5417
814.4717
920.6957
980.8266
1031.8913
1138.3503
1574.3550
1701.5920
1798.1882
2119.0884
2283.0307

SYMMETRY CS
ELECTRONIC_STATE 4-A'
