8
Energy =   -154.722567930     
C -0.019677612 -1.015347569 -0.000140391
H -0.040550049 -2.092767477 -0.000186353
C  0.019662997  1.015385953 -0.000053763
H  0.040535433  2.092805862 -0.000007801
C  1.015359454 -0.019651111 -0.000118543
C -1.015374070  0.019689496 -0.000075611
H  2.092779363 -0.040523547 -0.000141321
H -2.092793979  0.040561931 -0.000052832

FREQUENCIES 18
468.9814
558.7004
610.1884
610.1888
716.5606
896.7681
896.7682
948.3991
1016.2377
1217.6134
1287.2524
1320.0396
1320.0397
1357.9483
3216.6149
3230.3386
3230.3386
3254.3398

SYMMETRY CI
ELECTRONIC_STATE 3-AG
