8
Energy =   -153.908314229     
C  0.633826212  0.000957286  0.000522587
C -0.634232751  0.000682252  0.000200605
C -1.957585282  0.000395225 -0.000135416
H -2.527576457  0.596353465 -0.735123939
H -2.527691063 -0.595810295  0.734563616
C  1.957178744  0.001244314  0.000858609
H  2.527537960 -0.733475798 -0.595078481
H  2.526916483  0.736211705  0.597085188

FREQUENCIES 18
193.2065
193.2065
431.7753
431.7753
708.4261
861.7440
906.6805
906.6805
1062.2852
1062.2852
1304.8110
1333.4567
1543.6247
1870.7108
2935.4698
2945.1982
3023.0628
3023.0628

SYMMETRY D2D
ELECTRONIC_STATE 1-A1
