8
Energy =   -154.737067034     
    C    1.522660    0.056306   -0.000414
    H    1.904014    1.075573   -0.026224
    H    1.908053   -0.497275   -0.858718
    H    1.902191   -0.448001    0.890434
    C    0.052591   -0.011193   -0.000695
    C   -1.084440   -0.854850    0.000063
    C   -1.147680    0.549871    0.000115
    H   -1.773047    1.428904    0.000097

FREQUENCIES 18
50.6660
339.4739
386.7299
757.3446
891.6324
927.7515
1012.1680
1036.6820
1198.9109
1315.8868
1398.6237
1477.2568
1480.0075
1772.2123
3028.8417
3085.1241
3108.7582
3219.7655

SYMMETRY C1
ELECTRONIC_STATE 1-A
