8
Energy =   -154.586781219     
    C    1.770821   -0.063370   -0.158134
    H    2.220793   -1.020200   -0.364671
    C    0.606223    0.450554    0.124010
    H    0.491178    1.521429    0.276648
    C   -0.672530   -0.358315    0.198170
    H   -1.129436   -0.245510    1.224184
    H   -0.506460   -1.436299    0.065889
    C   -1.883860    0.167894   -0.364388

FREQUENCIES 18
94.4941
296.1070
371.3667
483.1955
671.2528
789.6884
847.2836
970.3281
978.6893
1122.6651
1230.7935
1292.2307
1304.0302
1658.0576
2757.0752
2967.0184
3102.7304
3246.1692

SYMMETRY C1
ELECTRONIC_STATE 3-A
