9
Energy =   -191.031877043     
    C   -1.581826   -0.163153    0.227472
    C   -0.539244   -0.975766   -0.293854
    H   -2.605869   -0.263599    0.640373
    C    0.506925   -0.015294   -0.043994
    C    1.881475   -0.016713    0.097312
    H    2.805654   -0.819704    0.166958
    H    2.817155    0.749683    0.264961
    C   -0.642209    0.903339   -0.087267
    H   -0.767671    1.939147   -0.470305

FREQUENCIES 21
238.2981
321.4173
437.8487
463.1669
525.0775
573.5567
645.9048
838.1605
907.8114
932.6715
988.0701
1008.2082
1074.5619
1118.7477
1160.0693
1279.0256
1427.1216
1593.2326
2305.0221
2929.3208
2977.1829

SYMMETRY C1
ELECTRONIC_STATE 4-A
