9
Energy =   -190.984392601     
    C    0.685897   -1.066038   -0.188818
    C    1.691479   -0.144773    0.268133
    C   -0.325625   -0.038149   -0.061936
    C    0.775273    0.926523   -0.066753
    H    0.911831    1.992909   -0.351302
    C   -1.783934   -0.104826    0.042964
    H   -2.454916    0.731621    0.683271
    H   -2.383500    0.900878   -0.357832
    H   -2.331956   -1.061830    0.064323

FREQUENCIES 21
170.5234
222.5889
356.6452
424.6328
482.4086
650.0028
767.5735
789.6971
847.4803
956.2693
1046.3167
1066.0588
1156.0410
1204.9904
1245.4678
1340.8323
1480.4733
1783.7729
2277.5825
2927.7791
3002.4618

SYMMETRY C1
ELECTRONIC_STATE 4-A
