9
Energy =   -191.898670180     
    C   -0.270780   -1.121487   -0.000595
    H   -0.390952   -1.790639    0.871691
    H   -0.468128   -1.768185   -0.875991
    C    1.084778   -0.406360    0.017664
    H    2.031088   -0.764499    0.439270
    C    0.787453    0.908467   -0.330730
    C   -0.285545    1.166349    0.329961
    C   -1.151455    0.132724   -0.016481
    H   -2.158714    0.245166   -0.433887

FREQUENCIES 21
36.1574
443.3546
450.2716
718.4796
727.4866
834.2500
847.0840
933.3744
1010.9723
1125.9768
1170.2322
1184.1083
1232.8002
1251.2273
1289.2258
1368.3445
1644.0165
2932.3082
2948.5668
3082.4218
3089.4830

SYMMETRY C1
ELECTRONIC_STATE 1-A
