9
Energy =   -191.130707675     
C  1.994676902  0.535279051 -0.000062766
C -1.994692092  0.535218918 -0.000171694
C -0.714145349 -0.144775773  0.000003820
C  0.000020056 -1.299859945  0.000262062
C  0.714150652 -0.144754244  0.000042819
H  2.497419626  0.778576645  0.965249447
H -2.497442142  0.778102307 -0.965584394
H -2.497494865  0.778501356  0.965113062
H  2.497472349  0.778177597 -0.965448010

FREQUENCIES 21
208.3251
209.0945
312.1777
399.5014
406.5683
440.7145
679.9638
869.3238
945.9619
979.3097
1052.7375
1166.8931
1193.5971
1220.8885
1355.7234
1355.8148
1760.7839
2836.3034
2851.2977
2953.3672
2954.2225

SYMMETRY C2V
ELECTRONIC_STATE 2-A1
