9
Energy =   -191.114745858     
C -0.000028017 -1.087603005 -0.361811991
C  1.179848582 -0.509972682  0.132408437
H  2.145638776 -0.956158209  0.477273184
C  0.729780808  0.917206708 -0.001801339
H  1.415128558  1.774820624 -0.174171049
C -0.729700225  0.917279296 -0.001928668
H -1.414932578  1.774961377 -0.174417952
C -1.179933369 -0.509855318  0.132202563
H -2.145828100 -0.955944773  0.476898784

FREQUENCIES 21
48.9864
340.5212
499.4226
654.3538
774.1095
848.9628
858.2627
948.8162
979.7639
990.3362
1070.9529
1078.4298
1098.1737
1148.2338
1233.9963
1304.4591
1327.1003
2862.1328
2870.8312
2926.8315
2943.9415

SYMMETRY C1
ELECTRONIC_STATE 2-A
