9
Energy =   -192.788353825     
    H   -2.520878    0.103898    0.000350
    C    0.616500   -0.052810   -0.000109
    C    1.916616   -0.123859   -0.000299
    H    2.785127    0.509280   -0.000467
    C   -0.530584   -1.011839    0.000119
    H   -0.598522   -2.087285    0.000194
    C   -1.442963    0.053481    0.000192
    C   -0.437063    1.029585   -0.000017
    H   -0.400758    2.106756   -0.000087

FREQUENCIES 21
255.3595
340.2515
533.1141
567.5412
644.5566
691.0348
707.7232
756.5396
885.9284
899.2559
924.4592
975.8152
1141.3880
1168.8111
1304.7568
1404.8393
1685.9427
3211.6462
3231.6661
3245.6250
3273.4953

SYMMETRY CS
ELECTRONIC_STATE 3-A"
