9
Energy =   -191.866958996     
    C    0.000999   -1.024163    0.348755
    C   -1.064935   -0.000935    0.071358
    H   -2.151016   -0.002073    0.005897
    H    2.150964    0.002109    0.005530
    C   -0.000110   -0.001221   -0.987772
    C    1.064895    0.001135    0.071177
    H    0.002069   -2.116271    0.447778
    C   -0.000993    1.025052    0.346198
    H   -0.002047    2.117404    0.442496

FREQUENCIES 21
85.6670
527.1914
588.1510
608.5849
758.5585
863.9359
868.8413
889.9416
924.1394
955.3364
1009.5706
1015.6153
1124.3448
1135.6880
1219.8176
1244.5897
1267.6965
3078.3640
3080.1895
3163.7389
3174.4902

SYMMETRY C2V
ELECTRONIC_STATE 3-B2
