9
Energy =   -191.123406559     
C  1.459555876  0.000908741  0.418047962
C  0.657840069  1.020125707 -0.156914156
H  0.766314198  2.051789785 -0.555708948
C -0.384822193 -0.000275828 -0.079130060
C  0.659049676 -1.019468241 -0.156541922
H  0.768747497 -2.051148424 -0.554960145
H -2.306007634 -0.001195497  1.124758420
C -1.843870539 -0.001107624  0.104488142
H -2.515569718 -0.001669922 -0.793782913

FREQUENCIES 21
273.7963
275.3852
315.5822
408.7443
605.7416
754.4734
874.1505
955.1477
960.7730
1006.7856
1060.0418
1082.8724
1178.2457
1228.3981
1301.0477
1326.6808
1351.5203
2787.1484
2894.6967
2945.6157
2956.3553

SYMMETRY C1
ELECTRONIC_STATE 2-A
