9
Energy =   -192.691281647     
C -0.686560823  0.001694941  0.954681998
C  0.061429242  1.001580729  0.036361647
H  0.019492321  2.078240098  0.030585141
C  0.056569877 -1.001860472  0.036419351
H  0.009410585 -2.078304068  0.030704860
H  1.985436391 -0.004834721 -0.736438005
C  1.208898527 -0.002929129  0.030603006
C -0.698365853  0.001674717 -0.741609002
H -1.666166941  0.004008245 -1.223599001

FREQUENCIES 21
546.4584
566.9970
574.0604
652.4402
810.0429
823.2345
844.2827
904.2857
940.8614
943.6283
998.8479
1034.3096
1094.3096
1145.5816
1219.1974
1245.5685
1282.9050
3050.4281
3174.7952
3232.8427
3233.2154

SYMMETRY C1
ELECTRONIC_STATE 3-A
