9
Energy =   -192.756482390     
C -1.553544997  0.822145003 -0.000027994
C -1.671599998 -0.621650998 -0.000083828
H -1.869942019 -1.170319426  0.918090186
C -0.316378000  0.294951000 -0.000004428
H -1.869878973 -1.170253565 -0.918310812
C  0.968006996  0.092596996  0.000032409
C  2.256511999 -0.125302001  0.000068830
H  2.820891305 -0.217971611  0.923318887
H  2.820954696 -0.217905388 -0.923149117

FREQUENCIES 21
174.1008
184.8314
349.7741
461.6503
505.7814
575.8982
863.9131
877.7157
893.2725
999.0512
1009.6548
1010.5867
1089.1158
1400.6333
1473.5969
1530.4611
1895.0704
3048.9369
3083.4926
3125.3955
3148.2271

SYMMETRY C1
ELECTRONIC_STATE 3-A
