9
Energy =   -192.733392397     
    C    0.452230   -1.062624   -0.008479
    H    0.452338   -1.652941   -0.924314
    H    0.524000   -1.724593    0.855074
    C   -0.678279    0.023667    0.059459
    C   -2.066502   -0.007724   -0.019925
    C    1.357572    0.157933   -0.009234
    H    2.432423    0.269245    0.033980
    C    0.323612    1.051652   -0.010736
    H    0.260053    2.129947   -0.025278

FREQUENCIES 21
176.8103
342.5217
375.5123
658.6116
724.2031
840.8923
944.6408
955.0153
991.4803
1010.6474
1086.9251
1096.9214
1204.6510
1285.4947
1365.1623
1452.1138
1491.9413
3050.2007
3098.8544
3187.6389
3216.9690

SYMMETRY C1
ELECTRONIC_STATE 3-A
