9
Energy =   -191.996982850     
C  1.306500000 -0.071438000  0.000455000
C  0.101674000 -0.677016000  0.000397000
H  0.031959993 -1.787518993  0.000496250
C  2.439227979  0.400796020  0.000518794
H  3.435592963  0.823118037  0.000574246
C -1.136060990 -0.078485010  0.000220958
H -3.212096995 -0.284594005  0.000041129
C -2.327896987  0.386552987  0.000062063
H -2.543840997  1.473632997 -0.000062402

FREQUENCIES 21
109.8858
233.2157
293.3195
300.4681
425.4887
427.7358
719.4973
738.5192
838.7650
896.0954
914.1974
929.8598
1114.0591
1215.0514
1380.7005
1754.7781
2123.2360
2879.4595
2915.7538
2956.5694
3278.7673

SYMMETRY C1
ELECTRONIC_STATE 1-A
