9
Energy =   -192.443504535     
    C    1.320115    0.349565    0.000043
    H    2.190138    1.009049    0.000107
    C    1.558606   -1.031211    0.000035
    H    2.432172   -1.666907    0.000078
    C   -1.086239    0.186161   -0.000107
    C   -2.107770   -0.507257   -0.000181
    H   -2.997628   -1.100713   -0.000245
    C    0.050222    0.956533   -0.000025
    H   -0.032562    2.035414   -0.000012

FREQUENCIES 21
142.8731
199.9355
363.9436
447.4240
524.0377
614.5361
642.0515
669.4398
678.5604
877.3639
958.4146
980.1658
1102.8120
1228.4609
1402.2809
1477.0993
2035.4624
3087.2003
3187.5951
3230.0048
3381.5552

SYMMETRY CS
ELECTRONIC_STATE 4-A'
