9
Energy =   -190.999717530     
    C    1.475925   -0.629189    0.125904
    C    0.224525   -0.145321   -0.103450
    H    2.036747   -1.612705    0.255631
    C   -1.229473   -0.021433   -0.429071
    H   -1.557605   -0.927454   -1.051693
    H   -1.466603    0.807472   -1.171162
    C   -2.191655    0.091474    0.662323
    C    1.582648    0.694695    0.065762
    H    1.816212    1.788335    0.036920

FREQUENCIES 21
72.3891
226.5358
273.7980
446.8250
496.8321
555.1571
654.3935
707.3163
818.6444
840.4587
873.0736
902.8998
1036.0261
1074.3738
1222.1053
1248.7703
1598.1109
2534.4797
2606.6757
2641.4742
2889.5041

SYMMETRY C1
ELECTRONIC_STATE 4-A
