9
Energy =   -192.522986486     
    C    1.114272    1.179323    0.000000
    C   -0.022506   -2.001746    0.000000
    H    1.059506   -2.032715    0.000000
    H   -0.546571   -2.948360    0.000000
    C   -0.701774   -0.840464    0.000000
    H   -1.783523   -0.803560    0.000000
    C    0.000000    0.381830    0.000000
    C   -0.060116    1.801034    0.000000
    H   -0.708670    2.664774    0.000000

FREQUENCIES 21
136.2162
223.5034
381.6004
511.6353
684.5471
806.1753
888.2357
949.7035
991.7354
1074.8309
1088.7667
1133.7948
1323.2222
1421.5361
1458.7417
1621.7532
1736.3754
3149.3851
3181.4161
3247.0260
3247.7480

SYMMETRY CS
ELECTRONIC_STATE 2-A'
