9
Energy =   -192.714271535     
    C    1.439319    0.417248    0.641802
    C   -1.644958    0.593679    0.000267
    H   -2.725432    0.598969    0.001677
    H   -1.143368    1.551616   -0.000195
    C   -0.957711   -0.563080   -0.000325
    H   -1.507729   -1.498729    0.000316
    C    0.477008   -0.693160   -0.001921
    H    0.868383   -1.705585   -0.004722
    C    1.437950    0.420904   -0.640958

FREQUENCIES 21
145.6194
255.3685
271.5391
501.6128
585.2451
628.0035
770.1854
878.5851
943.0347
980.7788
1008.0767
1097.8849
1296.3227
1361.4839
1440.5542
1593.8207
1727.5404
3105.0320
3137.4365
3149.5129
3235.9603

SYMMETRY C1
ELECTRONIC_STATE 3-A
