9
Energy =   -192.769416779     
    C    0.857982   -0.753353   -0.000030
    C   -0.095774    0.000104    0.828070
    C   -1.366571   -0.000094   -0.000194
    C   -0.095675    0.000194   -0.827525
    H    1.477572   -1.627786   -0.000773
    H   -1.950833    0.913480   -0.000294
    H   -1.952153   -0.913377   -0.000428
    C    0.858066    0.753217    0.000068
    H    1.477252    1.627271   -0.000845

FREQUENCIES 21
441.6445
584.1389
751.8830
768.5897
807.3446
864.0843
898.7136
919.6259
950.3679
1047.7504
1055.6565
1083.4290
1117.4358
1168.0196
1169.9598
1409.2010
1494.6565
3104.2252
3186.7507
3290.4884
3305.6598

SYMMETRY C1
ELECTRONIC_STATE 1-A
