9
Energy =   -191.879366792     
    C   -0.914016    0.056418    0.000096
    C    1.799591    0.461529    0.000489
    H    1.807011    1.549850    0.007589
    H    2.371101    0.031279    0.855435
    H    2.361765    0.045715   -0.868370
    C    0.511663   -0.140419    0.000574
    C   -0.369349   -1.204099   -0.000028
    H   -0.615925   -2.271259   -0.000442
    C   -2.015215    0.933974   -0.000166

FREQUENCIES 21
102.8884
145.8628
224.6149
384.6221
398.1227
713.6937
829.5995
857.9698
891.3926
1009.9611
1018.2261
1044.3862
1196.0433
1312.3981
1400.0006
1446.4477
1697.2692
2841.0048
2849.4954
3107.8828
3129.6081

SYMMETRY C1
ELECTRONIC_STATE 1-A
