2
Energy =   -38.0908545418     
    H    0.000000    0.000000   -0.974430
    C    0.000000    0.000000    0.162405

FREQUENCIES 1
2801.7734

SYMMETRY C*V
ELECTRONIC_STATE 1-SG
