2
Energy =   -38.0573612341     
    H    0.000000    0.000000   -0.978702
    C    0.000000    0.000000    0.163117

FREQUENCIES 1
2614.3758

SYMMETRY C*V
ELECTRONIC_STATE ??
