2
Energy =   -38.4959051643     
    H    0.000000    0.000000   -0.961970
    C    0.000000    0.000000    0.160328

FREQUENCIES 1
2830.6066

SYMMETRY C*V
ELECTRONIC_STATE ??
