3
Energy =   -76.1567268005     
    H    0.517838    1.479991    0.000000
    C   -0.043153    0.541989    0.000000
    C   -0.043153   -0.788654    0.000000

FREQUENCIES 3
644.5767
1385.1719
3137.9457

SYMMETRY CS
ELECTRONIC_STATE 1-A'
