3
Energy =   -76.2116660611     
    H   -0.000209    1.576368    0.000000
    C    0.000017    0.492927    0.000000
    C    0.000017   -0.755655    0.000000

FREQUENCIES 4
489.8849
788.8318
1896.9660
3259.8340

SYMMETRY C*V
ELECTRONIC_STATE 3-PI
