4
Energy =   -112.570254809     
    H   -0.502137    2.534567    0.000000
    C   -0.271497    1.384457   -0.000000
    C   -0.001203    0.014638    0.000000
    C    0.356949   -1.821443    0.000000

FREQUENCIES 7
214.1592
275.8722
434.8256
628.9739
796.2023
1322.6867
2432.8362

SYMMETRY C*V
ELECTRONIC_STATE ??
