4
Energy =   -113.576385096     
    H   -0.002908   -2.302605    0.000000
    C   -0.002695   -1.191938    0.000000
    C    0.000000    0.122084    0.000000
    C    0.003179    1.453622    0.000000

FREQUENCIES 7
285.4189
295.3407
420.4827
855.9410
1164.1174
1512.1102
2981.6765

SYMMETRY C*V
ELECTRONIC_STATE ??
