4
Energy =   -112.615102579     
    H   -0.000195   -2.430424    0.000000
    C    0.000067   -1.232165    0.000000
    C   -0.000034    1.493231    0.000000
    C    0.000000    0.144005    0.000000

FREQUENCIES 7
284.4961
295.5065
739.5617
807.3623
1037.9686
1630.1975
2256.6562

SYMMETRY C*V
ELECTRONIC_STATE ??
