5
Energy =   -150.788538250     
    H    1.609598   -0.748124    0.000000
    C    0.468847   -0.543397    0.000000
    C    0.000000    0.705365    0.000000
    C   -0.389340    1.969898    0.000000
    C   -0.347774   -2.007178    0.000000

FREQUENCIES 9
221.7451
310.2201
462.3537
560.5321
673.0526
974.1489
1087.8666
1756.5616
2437.9606

SYMMETRY CS
ELECTRONIC_STATE 3-A'
