5
Energy =   -152.769892968     
H  1.259186000 -1.556995000 -0.000341000
C  0.883602000 -0.548971000  0.000188000
C -0.374574124  0.076881861 -0.000202488
C  0.966679141  0.781890037  0.001292498
C -1.685572017 -0.050301899 -0.001222009

FREQUENCIES 9
190.3602
357.8670
678.0901
767.6187
924.7048
1001.2723
1405.2207
1695.2708
3274.1476

SYMMETRY CS
ELECTRONIC_STATE 2-A"
