5
Energy =   -152.687169202     
    H    1.551461   -0.814743    0.000000
    C    0.475898   -0.617270    0.000000
    C    0.000000    0.638590    0.000000
    C   -0.378247    1.873195    0.000000
    C   -0.356228   -1.758724    0.000000

FREQUENCIES 9
186.6417
251.7551
530.0752
774.3797
1017.1639
1133.0084
1249.9377
1856.7891
3026.0485

SYMMETRY CS
ELECTRONIC_STATE 4-A"
