5
Energy =   -152.387564650     
    H   -0.000000   -1.809276    0.000000
    C   -0.000000   -0.717389    0.000000
    C    0.000000    0.706247    0.000000
    C    1.281549    0.177209   -0.000000
    C   -1.281549    0.177209    0.000000

FREQUENCIES 9
235.5601
427.5141
618.8891
821.8442
877.8588
980.0899
1357.8933
1414.8304
3128.4611

SYMMETRY C2V
ELECTRONIC_STATE 1-A1
