5
Energy =   -150.890499977     
    C   -2.345974   -0.000564    0.000019
    C   -0.668147    0.000131   -0.000176
    C    0.595544    0.001188    0.000237
    C    1.909480   -0.000317   -0.000025
    H    3.055875   -0.001584   -0.000325

FREQUENCIES 10
171.1233
171.1234
346.2584
346.2588
545.4022
848.6988
848.6990
1207.3089
2097.7430
2694.1117

SYMMETRY C*V
ELECTRONIC_STATE 1-SG
