5
Energy =   -151.822543311     
    C   -2.043882    0.000102    0.032783
    C   -0.763343   -0.000044    0.012189
    C    0.526934   -0.000170   -0.008418
    C    1.797505    0.000077   -0.028823
    H    2.896716    0.000213   -0.046390

FREQUENCIES 10
216.2108
216.2108
506.3756
506.3756
743.9907
743.9907
974.2797
1676.1312
2166.9293
3102.8738

SYMMETRY C*V
ELECTRONIC_STATE 4-SG
