5
Energy =   -152.690766798     
    C   -0.342763   -0.022169    0.000185
    C    1.012765    0.491380   -0.000007
    H    1.692514    1.330047   -0.000143
    C    0.783552   -0.825490   -0.000062
    C   -1.735640    0.134604   -0.000092

FREQUENCIES 9
337.7785
370.2323
405.8637
738.4503
875.9199
964.8447
1357.4298
1610.6429
3214.9195

SYMMETRY C1
ELECTRONIC_STATE 4-A
