5
Energy =   -152.775094109     
C  1.095818355 -0.002831786 -0.003828608
H  2.166389195 -0.005495252 -0.007449472
C -1.312983538  0.003161057  0.004318397
C -0.073822727 -0.752269276  0.000127422
C -0.070079273  0.752416276  0.000114578

FREQUENCIES 9
235.5929
369.1800
467.1386
755.5789
953.7651
1007.8462
1227.5648
1395.5624
3329.8059

SYMMETRY C2V
ELECTRONIC_STATE 2-B1
