5
Energy =   -152.389659172     
    H    1.104866    1.654349    0.000000
    C    0.821922    0.606403    0.000000
    C   -0.324827   -0.172038   -0.000000
    C    0.994344   -0.767344    0.000000
    C   -1.675584    0.057254   -0.000000

FREQUENCIES 9
195.3108
231.8574
796.2056
873.9919
922.4929
999.3899
1303.4559
1629.0405
3204.7429

SYMMETRY CS
ELECTRONIC_STATE 1-A'
