5
Energy =   -151.697580772     
    H    1.398911   -1.092917    0.000000
    C    0.349574   -0.696616    0.000000
    C    0.000000    0.584821    0.000000
    C    0.157307    1.963901    0.000000
    C   -0.740034   -1.669953    0.000000

FREQUENCIES 9
169.4714
212.1883
354.0127
668.2611
829.4900
940.2503
1096.5261
1568.2856
2785.2604

SYMMETRY CS
ELECTRONIC_STATE 2-A'
