5
Energy =   -151.719482656     
    C    0.166989    0.919367    0.000000
    H    0.145531    2.026992    0.000000
    C   -0.525222   -0.960186    0.000000
    C    0.166989   -0.148506    0.948763
    C    0.166989   -0.148506   -0.948763

FREQUENCIES 9
467.4038
662.6700
759.5953
931.7497
975.9242
1210.0667
1244.1197
1334.0225
2966.9778

SYMMETRY CS
ELECTRONIC_STATE 4-A"
