6
Energy =   -190.398283610     
    C    1.008801    0.004063   -0.038489
    C   -0.098446   -0.919272   -0.487556
    C   -1.125138   -0.003145    0.002551
    C   -0.105974    0.963388   -0.419075
    C   -0.027349   -0.046323    0.954353
    H    2.088639    0.007731   -0.070702

FREQUENCIES 12
124.8137
435.3400
505.6171
632.0782
670.0969
738.6323
908.3287
1016.6620
1057.1010
1312.0037
1364.7683
3247.6200

SYMMETRY C1
ELECTRONIC_STATE 3-A
