6
Energy =   -188.982127092     
    C   -1.916342    0.000310   -0.000115
    C   -0.601983    0.000184   -0.000046
    C    0.661140   -0.773231    0.000019
    C    1.704477   -0.000036    0.000076
    C    0.661288    0.773358    0.000022
    H   -3.051851    0.000418   -0.000175

FREQUENCIES 12
252.5965
293.5839
453.6393
640.2901
681.6552
694.9180
953.4955
973.5994
1447.7286
1730.7163
1777.8994
2763.7899

SYMMETRY C2V
ELECTRONIC_STATE 1-A1
