6
Energy =   -190.787233605     
    H    0.585494    1.759503   -0.660057
    C    0.469106    0.845417   -0.092688
    C   -0.642462   -0.073233   -0.103636
    C   -1.912521   -0.042284    0.191203
    C    1.370569   -0.085249    0.446135
    C    0.617726   -0.937900   -0.331005

FREQUENCIES 12
173.3694
244.5108
479.8886
535.2414
593.5908
865.2638
929.7882
1078.8683
1146.4338
1319.3726
1697.4023
3182.6557

SYMMETRY C1
ELECTRONIC_STATE 2-A
