6
Energy =   -188.876418128     
    C    1.023332    1.834190    0.000000
    C   -0.194103    0.744673    0.000000
    C   -0.194342   -0.556718    0.797519
    C   -0.246904   -1.688730    0.000000
    C   -0.194342   -0.556718   -0.797519
    H   -1.162628    1.337975    0.000000

FREQUENCIES 12
258.7233
302.6096
439.8846
457.9751
597.6769
849.5247
894.6042
1014.8680
1025.8710
1175.7125
1534.1570
2646.8542

SYMMETRY CS
ELECTRONIC_STATE 3-A'
