6
Energy =   -189.014506220     
C -2.353426000 -0.497862000  0.000059000
C -1.320494000  0.310017000 -0.000003000
C  0.052955001  0.105798003 -0.000018659
C  1.319952003 -0.024355992 -0.000036145
C  2.598534995 -0.124474012 -0.000055423
H -1.785635997  1.385648008 -0.000050271

FREQUENCIES 12
119.6293
199.6356
283.8263
420.6770
524.1109
596.4476
781.8409
936.1733
1424.2455
1615.3458
2131.7291
2362.2467

SYMMETRY C1
ELECTRONIC_STATE 3-A
