6
Energy =   -189.065105513     
    C   -0.012808   -1.372123    0.000000
    C    0.023632    2.527593    0.000000
    C    0.011029    1.222885    0.000000
    C   -0.001077   -0.080016    0.000000
    C   -0.026347   -2.907912   -0.000000
    H    0.034655    3.655779   -0.000000

FREQUENCIES 13
119.5314
133.6298
248.1849
267.5341
493.0760
589.7075
628.5936
710.3472
903.3075
1029.4964
1628.5218
1998.0988
2837.9540

SYMMETRY C*V
ELECTRONIC_STATE 1-SG
