6
Energy =   -189.811671442     
    C   -2.004193    0.018429   -0.086634
    C   -0.589339   -0.064137    0.038375
    C    0.539903    0.898846    0.037472
    C    1.492963   -0.126380   -0.176809
    C    0.463457   -1.055214    0.139352
    H    0.583258    1.970737    0.289465

FREQUENCIES 12
153.1652
285.4903
336.3899
660.2101
843.8698
892.5356
947.8756
1101.8338
1200.4552
1273.0861
1409.4180
3026.1657

SYMMETRY C1
ELECTRONIC_STATE 4-A
