6
Energy =   -190.475597268     
C  2.061046813 -0.000822850  0.000983189
C  0.779609241 -0.000158668  0.000084848
C -0.436271823 -0.800910178 -0.000765246
C -1.533856115  0.001040424 -0.001536987
C -0.435441092  0.801852817 -0.000769241
H -2.610501274  0.001598459 -0.002291760

FREQUENCIES 12
231.5649
418.3894
559.5264
580.0059
759.1264
782.2338
983.5409
1032.0311
1074.5545
1580.8271
1765.5981
3291.3281

SYMMETRY C2V
ELECTRONIC_STATE 3-B2
