6
Energy =   -188.835018973     
    H    0.856808    0.036372    1.384891
    C    0.588965    0.011916    0.243735
    C   -0.855588   -0.149045    0.056491
    C   -2.118683   -0.251594   -0.096959
    C    0.695337    1.512206   -0.198812
    C    1.548489   -1.128160   -0.236423

FREQUENCIES 12
69.2328
239.0572
318.5825
322.8584
481.4377
643.0292
688.1392
851.0386
898.7893
1029.6909
1857.5085
2344.1894

SYMMETRY C1
ELECTRONIC_STATE 3-A
