6
Energy =   -190.435092436     
    H    0.748019   -1.918243   -0.575622
    C    0.545345   -0.956678   -0.117937
    C   -0.529024   -0.034765    0.023400
    C    0.557469    1.139344   -0.313869
    C    1.164691    0.141165    0.417161
    C   -1.863151    0.030640    0.087182

FREQUENCIES 12
124.2576
247.0734
314.8056
498.7560
595.9517
848.8903
912.0213
1051.4515
1225.7149
1334.5308
1656.6110
3211.6301

SYMMETRY C1
ELECTRONIC_STATE 1-A
