6
Energy =   -190.724359047     
    C    0.951027   -0.000000   -0.259616
    C   -0.121318   -1.063733   -0.174703
    C   -0.121318    1.063733   -0.174703
    C   -1.118707    0.000000   -0.251587
    C    0.034089    0.000000    0.913720
    H    2.026222   -0.000000   -0.293152

FREQUENCIES 12
367.4362
551.1323
593.6846
821.1322
875.1036
888.7536
989.2004
1020.2557
1100.0700
1176.6833
1295.0543
3257.8077

SYMMETRY CS
ELECTRONIC_STATE 4-A"
