6
Energy =   -189.878789948     
C -0.066609000  0.647920000  0.000889000
C  0.583329000 -0.782560000  0.000202000
C -0.821051460 -0.677472502 -0.001141428
C -1.479999721  0.454185257 -0.000746697
C  1.388607270  0.238323327  0.001996264
H  2.372112929  0.720389013  0.003463342

FREQUENCIES 12
377.9991
452.1553
510.8183
590.3960
731.8025
738.9418
820.4783
1011.9532
1217.1828
1678.5771
1720.2779
3118.4894

SYMMETRY CS
ELECTRONIC_STATE 2-A'
