6
Energy =   -188.986450327     
C -2.164401000  0.729420000  0.000240000
C  0.693737000 -0.080468000 -0.000388000
C -0.130423086 -1.230073913 -0.000445838
C -0.798389062 -0.067025937 -0.000130860
C  1.900276128  0.501704871 -0.000493482
H  2.927690254  0.976963743 -0.000586842

FREQUENCIES 12
199.3308
300.6364
363.1606
406.2238
517.6391
581.9606
779.1561
862.7831
969.5505
1360.8523
1623.9330
2778.3436

SYMMETRY CS
ELECTRONIC_STATE 3-A"
