6
Energy =   -189.851055659     
    C    0.000000    0.000000    2.098205
    C    0.000000    0.000000    0.732193
    C    0.000000    0.838961   -0.425278
    C    0.000000    0.000000   -1.540613
    C    0.000000   -0.838961   -0.425278
    H    0.000000    0.000000   -2.635368

FREQUENCIES 12
260.6964
412.5168
572.4945
692.8861
725.9898
815.4368
968.9075
1026.6880
1135.7025
1411.3620
1590.0308
3127.4228

SYMMETRY C2V
ELECTRONIC_STATE 4-A2
