6
Energy =   -190.772183732     
    C    1.119568    0.157537   -0.000000
    C   -1.119568    0.157537    0.000000
    C    0.000000    0.441410   -0.937849
    C    0.000000    0.441410    0.937849
    C   -0.000000   -0.872426   -0.000000
    H   -0.000000   -1.945510   -0.000000

FREQUENCIES 12
420.7702
440.7546
502.1293
669.4983
775.8478
835.6768
917.6743
1015.5765
1015.7192
1057.4171
1265.2476
3288.0385

SYMMETRY C2V
ELECTRONIC_STATE 2-B2
