6
Energy =   -188.963765124     
    H   -2.498957   -0.515012    0.000000
    C   -1.419326   -0.162485    0.000000
    C   -0.490488    0.863480    0.000000
    C    0.862993    0.662502    0.000000
    C    1.463315   -0.579850    0.000000
    C    0.000000   -0.697811    0.000000

FREQUENCIES 12
347.9868
444.8478
483.4376
556.1750
634.1649
745.6494
811.2106
972.8958
1171.8381
1318.7479
1586.4589
2738.9266

SYMMETRY CS
ELECTRONIC_STATE 3-A"
