6
Energy =   -188.980214716     
    C    0.000000    0.000000    2.356104
    C    0.000000    0.000000    0.638778
    C    0.000000    0.869674   -0.459499
    C    0.000000    0.000000   -1.618702
    C    0.000000   -0.869674   -0.459499
    H    0.000000    0.000000   -2.743088

FREQUENCIES 12
217.5032
251.8152
417.0858
441.3932
674.3365
748.4120
884.7370
1002.0608
1203.1153
1229.0924
1440.8009
2853.5985

SYMMETRY C2V
ELECTRONIC_STATE 1-A1
