6
Energy =   -189.904178243     
    H    0.000000    0.000000    3.305649
    C    0.000000    0.000000    2.212591
    C    0.000000    0.000000    0.959423
    C    0.000000    0.000000   -0.428410
    C    0.000000    0.692243   -1.647272
    C    0.000000   -0.692243   -1.647272

FREQUENCIES 12
202.4394
211.5443
499.4628
532.7846
706.5583
710.5487
809.1925
1093.5713
1278.5423
1483.7493
1978.1054
3168.0106

SYMMETRY C2V
ELECTRONIC_STATE 4-A2
