6
Energy =   -190.475845616     
    C    1.388618    0.473098   -0.108905
    C    0.822908   -0.714296    0.189354
    C   -0.579078   -0.848466   -0.176835
    C   -1.294835    0.259111    0.070019
    C    0.044103    0.718446    0.018792
    H   -2.289617    0.672605    0.042566

FREQUENCIES 12
383.5028
477.8088
546.2946
569.3340
730.3955
819.8893
940.7125
1062.2665
1101.9806
1388.7173
1590.0053
3269.6167

SYMMETRY C1
ELECTRONIC_STATE 3-A
