6
Energy =   -190.865699525     
    H    0.000000    0.000000   -3.481617
    C    0.000000    0.000000   -2.419744
    C    0.000000    0.000000   -1.189747
    C    0.000000    0.000000    0.120757
    C    0.000000    0.000000    1.407801
    C    0.000000    0.000000    2.661202

FREQUENCIES 13
144.1806
144.1806
402.5713
402.5713
482.5547
482.5547
505.7812
505.7812
780.3464
1562.5514
1727.4081
1974.3725
3448.5222

SYMMETRY C*V
ELECTRONIC_STATE 4-SG
