6
Energy =   -190.805705735     
    H    0.341087   -3.209623    0.000000
    C   -0.032219   -2.210799    0.000000
    C    0.039418   -0.965551    0.000000
    C    0.000391    0.339580    0.000000
    C   -0.032219    1.685854    0.657260
    C   -0.032219    1.685854   -0.657260

FREQUENCIES 12
163.3516
190.4258
337.8394
364.3943
431.6785
537.1549
645.6689
693.9767
1390.9603
1630.5124
1862.3760
3384.5538

SYMMETRY CS
ELECTRONIC_STATE 4-A"
