6
Energy =   -188.982011111     
C  2.107487236 -0.746878732 -0.000191279
C -2.107087637 -0.748231247 -0.000590715
C -0.692354914 -0.033797226  0.000249370
C  0.692296127 -0.033352873  0.000380600
C -0.000418788  1.179670091  0.000816027
H -0.000777294  2.296855838  0.000673952

FREQUENCIES 12
193.8186
259.2109
336.6115
384.1592
608.8572
614.6710
897.4635
959.7783
1078.6524
1153.3216
1585.7181
2904.8248

SYMMETRY CS
ELECTRONIC_STATE 1-A'
