6
Energy =   -190.391590821     
C  1.116540441  0.151798453 -0.009353961
C -0.000832220 -0.066653658 -0.949702229
C -1.114674559  0.164671453 -0.008244961
C  0.005521349  0.908885681  0.509324489
C -0.004755955 -0.856207202  0.321014724
H -0.010038659 -1.814972720  0.821772249

FREQUENCIES 12
194.5210
469.0498
558.8608
729.0831
787.2209
862.3985
908.1957
930.5309
1080.3120
1226.9424
1307.3278
3229.1839

SYMMETRY CS
ELECTRONIC_STATE 3-A"
