6
Energy =   -190.759596303     
    C    2.064917   -0.000000   -0.027848
    C    0.686322   -0.000000   -0.065851
    C   -0.427468   -0.913758    0.210396
    C   -0.427468    0.913758    0.210396
    C   -1.460162    0.000000    0.004739
    H   -2.531759    0.000000   -0.071045

FREQUENCIES 12
246.3198
369.2672
586.0355
681.6360
707.4595
827.2408
926.1228
952.7309
1127.7009
1311.4267
1423.6342
3290.4689

SYMMETRY CS
ELECTRONIC_STATE 4-A'
