1
Energy =   -36.5129528685     
  C            0.00          0.00          0.000

FREQUENCIES 0

SYMMETRY OH
ELECTRONIC_STATE 1-A1G
