2
Energy =   -74.6652833383     
    C    0.750824    0.000000    0.000000
    C   -0.750824    0.000000    0.000000

FREQUENCIES 1
1178.4440

SYMMETRY D*H
ELECTRONIC_STATE 3-PIU
