2
Energy =   -74.6854901771     
    C    0.917553    0.000000    0.000000
    C   -0.917553    0.000000    0.000000

FREQUENCIES 1
459.3278

SYMMETRY D*H
ELECTRONIC_STATE 3-PIU
