4
Energy =   -150.981153735     
C -0.166647656  1.211978474  0.751976556
C -0.000000000  0.000000000 -0.000000250
C  0.400682124  0.059169858 -1.377710358
C -0.234034468 -1.271148331  0.625733052

FREQUENCIES 6
377.7235
383.8888
383.9030
900.1951
1233.0426
1233.0550

SYMMETRY D3H
ELECTRONIC_STATE 1-A1'
