4
Energy =   -150.737430926     
C  0.241571997 -0.196998118  0.834036074
C  0.655137564  0.451161739 -0.400037053
C -0.159014320 -0.752536180 -0.448536428
C -0.737695241  0.498373559  0.014537406

FREQUENCIES 6
949.9357
949.9357
949.9357
1058.1921
1058.1921
1397.7832

SYMMETRY TD
ELECTRONIC_STATE 1-A1
