5
Energy =   -189.092500608     
C  0.179457686 -0.651155180 -0.082748077
C -0.223616000 -2.045644000 -0.022626000
C  1.253508857  0.329904704 -0.363307091
C -1.084798000  1.701840000  0.401870000
C -0.124552543  0.665054476  0.066810168

FREQUENCIES 9
137.3351
212.9255
265.5858
279.7614
628.7081
741.6689
882.1957
1100.3678
1687.8513

SYMMETRY C2V
ELECTRONIC_STATE 1-A1
