6
Energy =   -227.882435644     
    C   -1.118598   -0.035394    0.903308
    C    2.532831    0.023970    0.892979
    C   -0.005115   -0.100417    0.134951
    C    1.195806    0.002142    0.896779
    C   -0.003476    0.065718    1.665444
    C    3.754801    0.043917    0.889529

FREQUENCIES 12
169.0253
171.3771
418.5562
485.6628
540.6259
570.2465
657.2338
936.8824
969.3755
1516.0559
1568.1727
2079.4643

SYMMETRY CS
ELECTRONIC_STATE 4-A'
