6
Energy =   -227.357895925     
    C   -1.932824   -0.167125    0.110995
    C    0.636595    0.055086   -0.036547
    C   -0.660682   -0.057051    0.037955
    C    1.884284    0.162935   -0.108200
    C   -3.188648   -0.275802    0.183042
    C    3.261276    0.281957   -0.187245

FREQUENCIES 13
90.8406
91.5500
195.2052
198.9579
374.6956
413.3354
628.6274
653.1331
700.8659
1139.9371
1621.8073
2001.7586
2077.1882

SYMMETRY C*V
ELECTRONIC_STATE ??
