6
Energy =   -227.960764942     
    C    0.000000    0.000000    3.240976
    C    0.000000    0.000000    1.906848
    C    0.000000    0.000000    0.651727
    C    0.000000    0.000000   -0.651727
    C    0.000000    0.000000   -1.906848
    C    0.000000    0.000000   -3.240976

FREQUENCIES 13
84.5307
95.0895
164.5685
195.4838
334.5244
384.0293
603.7001
660.7626
674.7953
1167.4175
1579.0350
2061.9282
2189.1093

SYMMETRY D*H
ELECTRONIC_STATE ??
