6
Energy =   -227.316938180     
C -0.326572579  1.136130464 -0.748263330
C -1.217540528  0.210720000 -0.465013555
C -1.049462021 -0.897980031  0.222716556
C  0.864441460  0.688191206 -0.153721841
C  1.425668661 -0.246741205  0.544504142
C  0.303464008 -0.890321434  0.599779028

FREQUENCIES 12
407.2191
423.6816
468.3964
512.3845
523.1640
574.3106
916.2705
1083.8604
1252.9911
1319.8257
1605.2985
1760.6673

SYMMETRY C2V
ELECTRONIC_STATE 3-B1
