6
Energy =   -227.791653858     
    C   -0.791074    0.055190   -0.943428
    C    0.195365    1.417604    0.071857
    C   -0.058347    0.310096    0.882447
    C    0.721448   -0.962427    0.464695
    C    0.669207    0.023337   -0.650997
    C   -0.736599   -0.843802    0.175425

FREQUENCIES 12
125.4545
296.2108
372.1033
526.1615
633.0394
687.1688
777.4111
854.5954
933.6895
1051.4345
1169.3597
1221.1089

SYMMETRY C1
ELECTRONIC_STATE 2-A
