7
Energy =   -265.326985349     
C  1.205368856 -0.421879898  0.313141176
C  0.910458596  0.778951964  0.541528490
C -0.452941491 -0.076439482 -0.182961684
C -0.411116562  1.257269914  0.202579182
C -1.329602752  2.304855320  0.165737582
C -0.136737694 -2.552318416 -0.758052753
C  0.214571047 -1.290439401 -0.281971993

FREQUENCIES 15
144.8472
155.9620
203.7918
226.0251
331.6547
360.6858
515.4415
594.0463
768.0188
852.2274
874.2964
1281.7007
1563.6021
1634.9009
1886.3493

SYMMETRY C2V
ELECTRONIC_STATE 1-A1
