7
Energy =   -265.972581979     
    C    0.000000    1.665867    0.000000
    C   -1.817692   -0.290653   -0.000000
    C    1.817692   -0.290653    0.000000
    C   -0.719244    0.509983    0.000000
    C    0.719244    0.509983    0.000000
    C   -2.761853   -1.049763   -0.000000
    C    2.761853   -1.049763    0.000000

FREQUENCIES 15
101.3643
194.0143
201.3657
217.9113
370.8670
459.9571
586.6518
603.5679
725.8998
824.7685
1044.8730
1445.3629
1755.7126
2165.7862
2182.3992

SYMMETRY C2V
ELECTRONIC_STATE 4-B2
