7
Energy =   -265.489442124     
    C    0.054762   -1.509200   -0.462409
    C    1.567599    0.327322    0.234773
    C   -0.680930    1.128918    0.291386
    C    0.620222    1.370962    0.477123
    C   -1.622859    0.327532   -0.036792
    C   -1.046923   -0.801963   -0.337351
    C    1.108129   -0.843571   -0.166730

FREQUENCIES 15
128.2291
363.9614
389.8277
468.2861
493.9833
511.9406
555.3457
556.9012
996.4300
1115.0397
1163.4027
1422.3394
1477.3920
1725.9885
1745.3551

SYMMETRY CS
ELECTRONIC_STATE 3-A'
