7
Energy =   -265.357415307     
C  1.010071970  0.926300358  0.936572354
C  1.874113666  1.680285835  1.760316266
C -0.332549129  0.589083913  0.743295934
C  0.990647871  0.058540913 -0.159018066
C -0.396329416 -0.310051024 -0.398892376
C -1.198362944 -0.975288825 -1.183886402
C -1.947593019 -1.968871171 -1.698386709

FREQUENCIES 15
90.2894
123.3019
170.4308
206.2134
324.8998
484.7263
554.4918
590.6829
629.6183
812.7892
960.5621
972.4302
1293.2238
1611.7107
1752.1784

SYMMETRY CS
ELECTRONIC_STATE 1-A'
