7
Energy =   -265.974038267     
    C   -1.390800    0.005574   -2.110077
    C   -2.124932    0.008204   -3.212799
    C   -0.700172   -0.014014    2.524799
    C    1.326848    0.001983    0.678392
    C    0.080224    0.000710    0.013520
    C   -0.694235    0.003119   -1.072278
    C    0.077658   -0.006014    1.423212

FREQUENCIES 15
80.3160
111.1540
154.7969
239.7209
292.1250
307.2402
570.1824
579.8845
594.1385
792.2528
936.6344
1203.5102
1502.5766
1704.6082
2150.1624

SYMMETRY CS
ELECTRONIC_STATE 2-A"
