7
Energy =   -265.911232165     
    C   -1.702416    0.000000    0.000000
    C   -3.022127    0.000000    0.000000
    C    3.244290   -0.000000   -0.000000
    C   -0.540447   -0.809510    0.000000
    C   -0.540447    0.809510   -0.000000
    C    0.618748   -0.000000   -0.000000
    C    1.944399   -0.000000   -0.000000

FREQUENCIES 15
118.3451
131.0692
302.1856
349.7886
506.8916
541.4620
579.9499
625.2353
744.1261
889.9843
921.2841
1076.6038
1293.9929
1606.7138
1937.1103

SYMMETRY C1
ELECTRONIC_STATE 4-A2
