7
Energy =   -265.965287639     
    C    1.421716    1.071953    0.471143
    C    0.410447    0.092794    0.043886
    C   -0.848911   -0.191938   -0.090891
    C    1.805454   -0.342413   -0.125756
    C   -2.083013   -0.470914   -0.222857
    C   -3.375609   -0.763201   -0.361131
    C    2.669915    0.603717    0.285607

FREQUENCIES 15
97.6471
104.1913
250.9656
334.8515
466.9706
494.5643
530.3532
570.6792
775.9535
831.7224
1146.4254
1179.6104
1545.8425
1647.5816
1938.3007

SYMMETRY C1
ELECTRONIC_STATE 4-A
