7
Energy =   -265.263444518     
    C   -1.637716   -0.551945   -0.047012
    C    0.922740   -0.717450   -0.473937
    C    0.520132    0.120424    1.238825
    C    0.269352    0.889084   -0.026721
    C   -1.164836    0.607589   -0.257655
    C    1.401118    0.444553   -0.805368
    C   -0.310789   -0.792254    0.371867

FREQUENCIES 15
224.7746
368.4560
395.2358
407.3822
514.8433
586.5561
703.1691
710.1342
832.4785
865.8910
1000.4130
1078.1397
1240.6250
1572.0714
1720.6350

SYMMETRY C1
ELECTRONIC_STATE 1-A
