7
Energy =   -266.072860862     
    C   -2.618217   -2.295188    1.604007
    C    2.828105    1.974215   -1.673436
    C    1.768818    1.493743   -1.075270
    C   -1.862058   -1.351423    1.105777
    C   -0.948414   -0.649617    0.556778
    C    0.867958    0.772751   -0.530064
    C   -0.036192    0.055517    0.012206

FREQUENCIES 15
72.1358
126.4456
144.9696
165.9178
248.8808
433.9255
528.9566
584.8328
607.8219
633.2473
1077.1648
1474.3595
1579.9389
1892.5722
2034.0844

SYMMETRY C1
ELECTRONIC_STATE 2-A
