7
Energy =   -265.234420950     
C  0.172208248  0.742365535  0.750097738
C  0.906734602 -0.517937309 -0.230178780
C -0.300465166 -0.672037612  0.638872073
C -0.238637461 -0.303257357 -1.119852192
C -1.459684906 -0.552195414 -0.383813765
C -0.859142389  0.761407132 -0.291745199
C  1.778987071  0.541654025  0.636621125

FREQUENCIES 15
190.6575
278.0942
516.4714
521.7393
552.4211
597.7737
664.2340
775.1439
785.0684
921.2424
937.4513
1006.8822
1104.6365
1217.7587
1250.6924

SYMMETRY CS
ELECTRONIC_STATE 1-A'
