7
Energy =   -265.281929372     
C -1.258179000 -0.729800000  0.380055000
C  1.019171000  0.677702000 -0.415574000
C  0.617628450  1.427283981 -1.517214424
C  0.093069423 -0.208030939  0.298022917
C -2.585787022 -0.842758774 -0.036841186
C  2.334753834  0.750949012  0.045702622
C -0.220656684 -1.075346280  1.245848070

FREQUENCIES 15
8.8255
128.4026
224.5791
241.9483
310.5988
314.9104
457.0860
487.5875
666.8614
859.8163
996.7345
1207.0296
1368.3291
1395.4968
1744.7445

SYMMETRY CS
ELECTRONIC_STATE 3-A"
