6
Energy = -244.0575638100
C  1.143867000 -0.181330000 -0.435356000
N -1.853867000 -0.234427000  1.104975000
C  1.084041337  0.959061338 -1.180187941
C -0.767771596 -0.176002237  0.520278306
C -0.073882221  0.777453939 -0.475750214
C  0.485078480 -0.969065039  0.430457849

FREQUENCIES 0

SYMMETRY CS
ELECTRONIC_STATE ??
