6
Energy =   -244.570010789     
C  1.143680000 -0.181122000 -0.435403000
N -1.853814000 -0.234383000  1.105014000
C  1.083980749  0.958945940 -1.180252787
C -0.767679752 -0.176048059  0.520318399
C -0.073837952  0.777523797 -0.475932042
C  0.485138955 -0.969223678  0.430676430

FREQUENCIES 0

SYMMETRY CS
ELECTRONIC_STATE ??
