6
Energy = -244.0575640500
C  1.144062000 -0.179075000 -0.435619000
N -1.853311000 -0.237703000  1.105365000
C  1.082037595  0.960823008 -1.180225502
C -0.767304500 -0.177320992  0.520402916
C -0.075332306  0.777473508 -0.475848602
C  0.487350211 -0.968456523  0.430415188

FREQUENCIES 0

SYMMETRY CS
ELECTRONIC_STATE ??
