 Entering Gaussian System, Link 0=/home/proyectos/fulerenos/M3C-v2.0/M3C-deps_CCC/g09-AM64L-G09RevC.01/g09
 Initial command:
 /home/proyectos/fulerenos/M3C-v2.0/M3C-deps_CCC/g09-AM64L-G09RevC.01/l1.exe "/scratch/naguirre/gaussian/Gau-28335.inp" -scrdir="/scratch/naguirre/gaussian/"
 Entering Link 1 = /home/proyectos/fulerenos/M3C-v2.0/M3C-deps_CCC/g09-AM64L-G09RevC.01/l1.exe PID=     28338.
  
 Copyright (c) 1988,1990,1992,1993,1995,1998,2003,2009,2015,
            Gaussian, Inc.  All Rights Reserved.
  
 This is part of the Gaussian(R) 09 program.  It is based on
 the Gaussian(R) 03 system (copyright 2003, Gaussian, Inc.),
 the Gaussian(R) 98 system (copyright 1998, Gaussian, Inc.),
 the Gaussian(R) 94 system (copyright 1995, Gaussian, Inc.),
 the Gaussian 92(TM) system (copyright 1992, Gaussian, Inc.),
 the Gaussian 90(TM) system (copyright 1990, Gaussian, Inc.),
 the Gaussian 88(TM) system (copyright 1988, Gaussian, Inc.),
 the Gaussian 86(TM) system (copyright 1986, Carnegie Mellon
 University), and the Gaussian 82(TM) system (copyright 1983,
 Carnegie Mellon University). Gaussian is a federally registered
 trademark of Gaussian, Inc.
  
 This software contains proprietary and confidential information,
 including trade secrets, belonging to Gaussian, Inc.
  
 This software is provided under written license and may be
 used, copied, transmitted, or stored only in accord with that
 written license.
  
 The following legend is applicable only to US Government
 contracts under FAR:
  
                    RESTRICTED RIGHTS LEGEND
  
 Use, reproduction and disclosure by the US Government is
 subject to restrictions as set forth in subparagraphs (a)
 and (c) of the Commercial Computer Software - Restricted
 Rights clause in FAR 52.227-19.
  
 Gaussian, Inc.
 340 Quinnipiac St., Bldg. 40, Wallingford CT 06492
  
  
 ---------------------------------------------------------------
 Warning -- This program may not be used in any manner that
 competes with the business of Gaussian, Inc. or will provide
 assistance to any competitor of Gaussian, Inc.  The licensee
 of this program is prohibited from giving any competitor of
 Gaussian, Inc. access to this program.  By using this program,
 the user acknowledges that Gaussian, Inc. is engaged in the
 business of creating and licensing software in the field of
 computational chemistry and represents and warrants to the
 licensee that it is not a competitor of Gaussian, Inc. and that
 it will not use this program in any manner prohibited above.
 ---------------------------------------------------------------
  

 Cite this work as:
 Gaussian 09, Revision E.01,
 M. J. Frisch, G. W. Trucks, H. B. Schlegel, G. E. Scuseria, 
 M. A. Robb, J. R. Cheeseman, G. Scalmani, V. Barone, B. Mennucci, 
 G. A. Petersson, H. Nakatsuji, M. Caricato, X. Li, H. P. Hratchian, 
 A. F. Izmaylov, J. Bloino, G. Zheng, J. L. Sonnenberg, M. Hada, 
 M. Ehara, K. Toyota, R. Fukuda, J. Hasegawa, M. Ishida, T. Nakajima, 
 Y. Honda, O. Kitao, H. Nakai, T. Vreven, J. A. Montgomery, Jr., 
 J. E. Peralta, F. Ogliaro, M. Bearpark, J. J. Heyd, E. Brothers, 
 K. N. Kudin, V. N. Staroverov, T. Keith, R. Kobayashi, J. Normand, 
 K. Raghavachari, A. Rendell, J. C. Burant, S. S. Iyengar, J. Tomasi, 
 M. Cossi, N. Rega, J. M. Millam, M. Klene, J. E. Knox, J. B. Cross, 
 V. Bakken, C. Adamo, J. Jaramillo, R. Gomperts, R. E. Stratmann, 
 O. Yazyev, A. J. Austin, R. Cammi, C. Pomelli, J. W. Ochterski, 
 R. L. Martin, K. Morokuma, V. G. Zakrzewski, G. A. Voth, 
 P. Salvador, J. J. Dannenberg, S. Dapprich, A. D. Daniels, 
 O. Farkas, J. B. Foresman, J. V. Ortiz, J. Cioslowski, 
 and D. J. Fox, Gaussian, Inc., Wallingford CT, 2013.
 
 ******************************************
 Gaussian 09:  EM64L-G09RevE.01 30-Nov-2015
                 7-Mar-2019 
 ******************************************
 %NProcShared=2
 Will use up to    2 processors via shared memory.
 ------------------------------------------------------
 #p b3lyp/6-311++G(3df,2p) freq IOp(2/17=3) IOp(2/18=3)
 ------------------------------------------------------
 1/10=4,30=1,38=1/1,3;
 2/12=2,17=3,18=3,40=1/2;
 3/5=4,6=6,7=1216,11=2,16=1,25=1,30=1,71=2,74=-5,140=1/1,2,3;
 4//1;
 5/5=2,38=5,98=1/2;
 8/6=4,10=90,11=11/1;
 11/6=1,8=1,9=11,15=111,16=1/1,2,10;
 10/6=1/2;
 6/7=2,8=2,9=2,10=2,18=1,28=1/1;
 7/8=1,10=1,25=1/1,2,3,16;
 1/10=4,30=1/3;
 99//99;
 Leave Link    1 at Thu Mar  7 11:20:47 2019, MaxMem=           0 cpu:         0.1
 (Enter /home/proyectos/fulerenos/M3C-v2.0/M3C-deps_CCC/g09-AM64L-G09RevC.01/l101.exe)
 ---------
 b3lyp opt
 ---------
 Symbolic Z-matrix:
 Charge = -1 Multiplicity = 2
 C                     1.34901   1.07962   0.24093 
 C                    -0.78559  -0.22407  -0.58563 
 C                    -1.86196  -0.69084  -1.01533 
 C                     0.35777   0.2113   -0.12498 
 H                    -2.75586  -1.13501  -1.36821 
 H                     1.05488   2.14431   0.04073 
 O                     2.48081   0.87487   0.74146 
 
 NAtoms=      7 NQM=        7 NQMF=       0 NMMI=      0 NMMIF=      0
                NMic=       0 NMicF=      0.
                    Isotopes and Nuclear Properties:
 (Nuclear quadrupole moments (NQMom) in fm**2, nuclear magnetic moments (NMagM)
  in nuclear magnetons)

  Atom         1           2           3           4           5           6           7
 IAtWgt=          12          12          12          12           1           1          16
 AtmWgt=  12.0000000  12.0000000  12.0000000  12.0000000   1.0078250   1.0078250  15.9949146
 NucSpn=           0           0           0           0           1           1           0
 AtZEff=   0.0000000   0.0000000   0.0000000   0.0000000   0.0000000   0.0000000   0.0000000
 NQMom=    0.0000000   0.0000000   0.0000000   0.0000000   0.0000000   0.0000000   0.0000000
 NMagM=    0.0000000   0.0000000   0.0000000   0.0000000   2.7928460   2.7928460   0.0000000
 AtZNuc=   6.0000000   6.0000000   6.0000000   6.0000000   1.0000000   1.0000000   8.0000000
 Leave Link  101 at Thu Mar  7 11:20:47 2019, MaxMem=    33554432 cpu:         0.4
 (Enter /home/proyectos/fulerenos/M3C-v2.0/M3C-deps_CCC/g09-AM64L-G09RevC.01/l103.exe)

 GradGradGradGradGradGradGradGradGradGradGradGradGradGradGradGradGradGrad
 Berny optimization.
 Initialization pass.
 Trust Radius=3.00D-01 FncErr=1.00D-07 GrdErr=1.00D-07
 Number of steps in this run=      2 maximum allowed number of steps=      2.
 GradGradGradGradGradGradGradGradGradGradGradGradGradGradGradGradGradGrad

 Leave Link  103 at Thu Mar  7 11:20:47 2019, MaxMem=    33554432 cpu:         0.1
 (Enter /home/proyectos/fulerenos/M3C-v2.0/M3C-deps_CCC/g09-AM64L-G09RevC.01/l202.exe)
                          Input orientation:                          
 ---------------------------------------------------------------------
 Center     Atomic      Atomic             Coordinates (Angstroms)
 Number     Number       Type             X           Y           Z
 ---------------------------------------------------------------------
      1          6           0        1.349013    1.079622    0.240927
      2          6           0       -0.785585   -0.224066   -0.585630
      3          6           0       -1.861959   -0.690837   -1.015332
      4          6           0        0.357773    0.211297   -0.124977
      5          1           0       -2.755855   -1.135007   -1.368207
      6          1           0        1.054882    2.144311    0.040728
      7          8           0        2.480809    0.874867    0.741459
 ---------------------------------------------------------------------
                    Distance matrix (angstroms):
                    1          2          3          4          5
     1  C    0.000000
     2  C    2.634257   0.000000
     3  C    3.875958   1.249440   0.000000
     4  C    1.367637   1.307291   2.556128   0.000000
     5  H    4.933947   2.307424   1.058706   3.612871   0.000000
     6  H    1.122566   3.064123   4.202534   2.061544   5.221182
     7  O    1.254360   3.692986   4.939370   2.387115   5.992740
                    6          7
     6  H    0.000000
     7  O    2.033662   0.000000
 Stoichiometry    C4H2O(1-,2)
 Framework group  CS[SG(C4H2O)]
 Deg. of freedom    11
 Full point group                 CS      NOp   2
 Largest Abelian subgroup         CS      NOp   2
 Largest concise Abelian subgroup C1      NOp   1
                         Standard orientation:                         
 ---------------------------------------------------------------------
 Center     Atomic      Atomic             Coordinates (Angstroms)
 Number     Number       Type             X           Y           Z
 ---------------------------------------------------------------------
      1          6           0        0.000000    1.304989    0.000000
      2          6           0       -0.318242   -1.309974   -0.000000
      3          6           0       -0.634949   -2.518608   -0.000000
      4          6           0        0.067757   -0.060969    0.000000
      5          1           0       -0.851588   -3.554912   -0.000000
      6          1           0       -1.064305    1.661935   -0.000000
      7          8           0        0.903562    2.175043    0.000000
 ---------------------------------------------------------------------
 Rotational constants (GHZ):     98.8377133      2.2541295      2.2038673
 Leave Link  202 at Thu Mar  7 11:20:47 2019, MaxMem=    33554432 cpu:         0.0
 (Enter /home/proyectos/fulerenos/M3C-v2.0/M3C-deps_CCC/g09-AM64L-G09RevC.01/l301.exe)
 Standard basis: 6-311++G(3df,2p) (5D, 7F)
 Ernie: Thresh=  0.10000D-02 Tol=  0.10000D-05 Strict=F.
 There are   171 symmetry adapted cartesian basis functions of A'  symmetry.
 There are    74 symmetry adapted cartesian basis functions of A"  symmetry.
 There are   146 symmetry adapted basis functions of A'  symmetry.
 There are    69 symmetry adapted basis functions of A"  symmetry.
   215 basis functions,   314 primitive gaussians,   245 cartesian basis functions
    18 alpha electrons       17 beta electrons
       nuclear repulsion energy       121.2065895647 Hartrees.
 IExCor=  402 DFT=T Ex+Corr=B3LYP ExCW=0 ScaHFX=  0.200000
 ScaDFX=  0.800000  0.720000  1.000000  0.810000 ScalE2=  1.000000  1.000000
 IRadAn=      0 IRanWt=     -1 IRanGd=            0 ICorTp=0 IEmpDi=  4
 NAtoms=    7 NActive=    7 NUniq=    7 SFac= 1.00D+00 NAtFMM=   60 NAOKFM=F Big=F
 Integral buffers will be    131072 words long.
 Raffenetti 2 integral format.
 Two-electron integral symmetry is turned on.
 Leave Link  301 at Thu Mar  7 11:20:48 2019, MaxMem=    33554432 cpu:         0.3
 (Enter /home/proyectos/fulerenos/M3C-v2.0/M3C-deps_CCC/g09-AM64L-G09RevC.01/l302.exe)
 NPDir=0 NMtPBC=     1 NCelOv=     1 NCel=       1 NClECP=     1 NCelD=      1
         NCelK=      1 NCelE2=     1 NClLst=     1 CellRange=     0.0.
 One-electron integrals computed using PRISM.
 NBasis=   215 RedAO= T EigKep=  3.29D-06  NBF=   146    69
 NBsUse=   214 1.00D-06 EigRej=  4.68D-07 NBFU=   145    69
 Precomputing XC quadrature grid using
 IXCGrd= 4 IRadAn=           0 IRanWt=          -1 IRanGd=           0 AccXCQ= 0.00D+00.
 Generated NRdTot=       0 NPtTot=           0 NUsed=           0 NTot=          32
 NSgBfM=   245   245   245   245   245 MxSgAt=     7 MxSgA2=     7.
 Leave Link  302 at Thu Mar  7 11:20:48 2019, MaxMem=    33554432 cpu:         0.9
 (Enter /home/proyectos/fulerenos/M3C-v2.0/M3C-deps_CCC/g09-AM64L-G09RevC.01/l303.exe)
 DipDrv:  MaxL=1.
 Leave Link  303 at Thu Mar  7 11:20:48 2019, MaxMem=    33554432 cpu:         0.2
 (Enter /home/proyectos/fulerenos/M3C-v2.0/M3C-deps_CCC/g09-AM64L-G09RevC.01/l401.exe)
 ExpMin= 3.60D-02 ExpMax= 8.59D+03 ExpMxC= 1.30D+03 IAcc=3 IRadAn=         5 AccDes= 0.00D+00
 Harris functional with IExCor=  402 and IRadAn=       5 diagonalized for initial guess.
 HarFok:  IExCor=  402 AccDes= 0.00D+00 IRadAn=         5 IDoV= 1 UseB2=F ITyADJ=14
 ICtDFT=  3500011 ScaDFX=  1.000000  1.000000  1.000000  1.000000
 FoFCou: FMM=F IPFlag=           0 FMFlag=      100000 FMFlg1=           0
         NFxFlg=           0 DoJE=T BraDBF=F KetDBF=T FulRan=T
         wScrn=  0.000000 ICntrl=     500 IOpCl=  0 I1Cent=   200000004 NGrid=           0
         NMat0=    1 NMatS0=      1 NMatT0=    0 NMatD0=    1 NMtDS0=    0 NMtDT0=    0
 Petite list used in FoFCou.
 Harris En= -229.026533823481    
 JPrj=0 DoOrth=F DoCkMO=F.
 Initial guess orbital symmetries:
 Alpha Orbitals:
       Occupied  (A') (A') (A') (A') (A') (A') (A') (A') (A') (A')
                 (A') (A') (A") (A') (A") (A') (A") (A')
       Virtual   (A") (A') (A') (A') (A") (A') (A') (A") (A') (A')
                 (A") (A') (A') (A') (A") (A') (A') (A') (A") (A')
                 (A') (A') (A") (A') (A') (A") (A') (A') (A') (A')
                 (A") (A') (A') (A') (A') (A") (A") (A') (A') (A")
                 (A') (A") (A') (A") (A') (A') (A') (A") (A') (A')
                 (A") (A') (A') (A') (A") (A') (A") (A') (A') (A")
                 (A') (A') (A") (A') (A') (A") (A') (A") (A') (A')
                 (A') (A') (A") (A') (A") (A') (A') (A") (A') (A')
                 (A') (A') (A") (A') (A") (A') (A') (A") (A') (A")
                 (A') (A') (A") (A') (A") (A') (A') (A') (A") (A')
                 (A') (A") (A') (A') (A") (A') (A") (A') (A") (A')
                 (A") (A') (A") (A') (A') (A") (A') (A") (A") (A')
                 (A') (A') (A") (A') (A') (A") (A') (A') (A") (A')
                 (A') (A") (A') (A') (A') (A") (A') (A") (A') (A')
                 (A') (A") (A") (A') (A') (A") (A') (A') (A') (A")
                 (A') (A') (A") (A") (A') (A') (A") (A') (A') (A')
                 (A') (A") (A") (A') (A') (A') (A") (A') (A") (A')
                 (A") (A') (A") (A") (A') (A") (A') (A") (A') (A')
                 (A") (A') (A') (A') (A') (A') (A") (A') (A") (A')
                 (A') (A') (A') (A') (A') (A')
 Beta  Orbitals:
       Occupied  (A') (A') (A') (A') (A') (A') (A') (A') (A') (A')
                 (A') (A') (A") (A') (A") (A') (A")
       Virtual   (A') (A") (A') (A') (A') (A") (A') (A') (A") (A')
                 (A') (A") (A') (A') (A') (A") (A') (A') (A') (A")
                 (A') (A') (A') (A") (A') (A') (A") (A') (A') (A')
                 (A') (A") (A') (A') (A') (A') (A") (A") (A') (A')
                 (A") (A') (A") (A') (A") (A') (A') (A') (A") (A')
                 (A') (A") (A') (A') (A') (A") (A') (A") (A') (A')
                 (A") (A') (A') (A") (A') (A') (A") (A') (A") (A')
                 (A') (A') (A') (A") (A') (A") (A') (A') (A") (A')
                 (A') (A') (A') (A") (A') (A") (A') (A') (A") (A')
                 (A") (A') (A') (A") (A') (A") (A') (A') (A') (A")
                 (A') (A') (A") (A') (A') (A") (A') (A") (A') (A")
                 (A') (A") (A') (A") (A') (A') (A") (A') (A") (A")
                 (A') (A') (A') (A") (A') (A') (A") (A') (A') (A")
                 (A') (A') (A") (A') (A') (A') (A") (A') (A") (A')
                 (A') (A') (A") (A") (A') (A') (A") (A') (A') (A')
                 (A") (A') (A') (A") (A") (A') (A') (A") (A') (A')
                 (A') (A') (A") (A") (A') (A') (A') (A") (A') (A")
                 (A') (A") (A') (A") (A") (A') (A") (A') (A") (A')
                 (A') (A") (A') (A') (A') (A') (A') (A") (A') (A")
                 (A') (A') (A') (A') (A') (A') (A')
 The electronic state of the initial guess is 2-A'.
 Initial guess <Sx>= 0.0000 <Sy>= 0.0000 <Sz>= 0.5000 <S**2>= 0.7500 S= 0.5000
 Leave Link  401 at Thu Mar  7 11:20:51 2019, MaxMem=    33554432 cpu:         4.7
 (Enter /home/proyectos/fulerenos/M3C-v2.0/M3C-deps_CCC/g09-AM64L-G09RevC.01/l502.exe)
 UHF open shell SCF:
 Using DIIS extrapolation, IDIIS=  1040.
 Integral symmetry usage will be decided dynamically.
 IVT=      201912 IEndB=      201912 NGot=    33554432 MDV=    33429431
 LenX=    33429431 LenY=    33368965
 Requested convergence on RMS density matrix=1.00D-08 within 128 cycles.
 Requested convergence on MAX density matrix=1.00D-06.
 Requested convergence on             energy=1.00D-06.
 No special actions if energy rises.
 Fock matrices will be formed incrementally for  20 cycles.

 Cycle   1  Pass 1  IDiag  1:
 FoFJK:  IHMeth= 1 ICntrl=       0 DoSepK=F KAlg= 0 I1Cent=   0 FoldK=F
 IRaf= 950000000 NMat=   1 IRICut=       1 DoRegI=T DoRafI=F ISym2E= 1.
 FoFCou: FMM=F IPFlag=           0 FMFlag=      100000 FMFlg1=           0
         NFxFlg=           0 DoJE=F BraDBF=F KetDBF=F FulRan=T
         wScrn=  0.000000 ICntrl=       0 IOpCl=  1 I1Cent=           0 NGrid=           0
         NMat0=    1 NMatS0=      1 NMatT0=    0 NMatD0=    1 NMtDS0=    0 NMtDT0=    0
 Petite list used in FoFCou.
 E= -228.606836339733    
 DIIS: error= 4.52D-02 at cycle   1 NSaved=   1.
 NSaved= 1 IEnMin= 1 EnMin= -228.606836339733     IErMin= 1 ErrMin= 4.52D-02
 ErrMax= 4.52D-02  0.00D+00 EMaxC= 1.00D-01 BMatC= 9.34D-01 BMatP= 9.34D-01
 IDIUse=3 WtCom= 5.48D-01 WtEn= 4.52D-01
 Coeff-Com:  0.100D+01
 Coeff-En:   0.100D+01
 Coeff:      0.100D+01
 Gap=     0.169 Goal=   None    Shift=    0.000
 Gap=     0.056 Goal=   None    Shift=    0.000
 GapD=    0.056 DampG=0.500 DampE=0.500 DampFc=0.2500 IDamp=-1.
 Damping current iteration by 2.50D-01
 RMSDP=9.43D+00 MaxDP=1.32D+03              OVMax= 9.98D-01

 Cycle   2  Pass 1  IDiag  1:
 RMSU=  2.34D+00    CP:  3.00D+00
 E= -228.573760346476     Delta-E=        0.033075993257 Rises=F Damp=T
 DIIS: error= 1.54D-02 at cycle   2 NSaved=   2.
 NSaved= 2 IEnMin= 1 EnMin= -228.606836339733     IErMin= 2 ErrMin= 1.54D-02
 ErrMax= 1.54D-02  0.00D+00 EMaxC= 1.00D-01 BMatC= 1.79D-01 BMatP= 9.34D-01
 IDIUse=3 WtCom= 8.46D-01 WtEn= 1.54D-01
 Coeff-Com: -0.244D-01 0.102D+01
 Coeff-En:   0.589D+00 0.411D+00
 Coeff:      0.703D-01 0.930D+00
 Gap=    -0.191 Goal=   None    Shift=    0.000
 Gap=    -0.134 Goal=   None    Shift=    0.000
 RMSDP=2.35D+00 MaxDP=3.29D+02 DE= 3.31D-02 OVMax= 9.35D-01

 Cycle   3  Pass 1  IDiag  1:
 RMSU=  8.49D-03    CP:  9.88D-01  1.73D-03
 E= -228.537801845747     Delta-E=        0.035958500729 Rises=F Damp=F
 DIIS: error= 4.24D-02 at cycle   3 NSaved=   3.
 NSaved= 3 IEnMin= 1 EnMin= -228.606836339733     IErMin= 2 ErrMin= 1.54D-02
 ErrMax= 4.24D-02  0.00D+00 EMaxC= 1.00D-01 BMatC= 9.15D-01 BMatP= 1.79D-01
 IDIUse=2 WtCom= 0.00D+00 WtEn= 1.00D+00
 EnCoef did     2 forward-backward iterations
 Coeff-En:   0.229D+00 0.408D+00 0.363D+00
 Coeff:      0.229D+00 0.408D+00 0.363D+00
 Gap=     0.149 Goal=   None    Shift=    0.000
 Gap=     0.112 Goal=   None    Shift=    0.000
 RMSDP=3.09D-02 MaxDP=1.82D+00 DE= 3.60D-02 OVMax= 5.00D-01

 Cycle   4  Pass 1  IDiag  1:
 RMSU=  3.01D-02    CP:  8.68D-01  3.74D-03  1.50D+00
 E= -228.683932817119     Delta-E=       -0.146130971372 Rises=F Damp=F
 DIIS: error= 3.72D-02 at cycle   4 NSaved=   4.
 NSaved= 4 IEnMin= 4 EnMin= -228.683932817119     IErMin= 2 ErrMin= 1.54D-02
 ErrMax= 3.72D-02  0.00D+00 EMaxC= 1.00D-01 BMatC= 6.32D-01 BMatP= 1.79D-01
 IDIUse=2 WtCom= 0.00D+00 WtEn= 1.00D+00
 EnCoef did     3 forward-backward iterations
 Coeff-En:   0.538D-01 0.000D+00 0.342D+00 0.604D+00
 Coeff:      0.538D-01 0.000D+00 0.342D+00 0.604D+00
 Gap=     0.147 Goal=   None    Shift=    0.000
 Gap=     0.100 Goal=   None    Shift=    0.000
 RMSDP=2.78D-02 MaxDP=1.81D+00 DE=-1.46D-01 OVMax= 2.16D-01

 Cycle   5  Pass 1  IDiag  1:
 RMSU=  6.37D-03    CP:  9.54D-01  2.52D-03  4.42D-01  1.60D-01
 E= -228.807049638383     Delta-E=       -0.123116821264 Rises=F Damp=F
 DIIS: error= 1.18D-02 at cycle   5 NSaved=   5.
 NSaved= 5 IEnMin= 5 EnMin= -228.807049638383     IErMin= 5 ErrMin= 1.18D-02
 ErrMax= 1.18D-02  0.00D+00 EMaxC= 1.00D-01 BMatC= 1.13D-01 BMatP= 1.79D-01
 IDIUse=3 WtCom= 8.82D-01 WtEn= 1.18D-01
 Coeff-Com: -0.123D+00 0.233D+00 0.126D+00 0.204D+00 0.560D+00
 Coeff-En:   0.000D+00 0.000D+00 0.000D+00 0.162D+00 0.838D+00
 Coeff:     -0.109D+00 0.206D+00 0.111D+00 0.199D+00 0.593D+00
 Gap=     0.128 Goal=   None    Shift=    0.000
 Gap=     0.094 Goal=   None    Shift=    0.000
 RMSDP=2.03D-03 MaxDP=1.01D-01 DE=-1.23D-01 OVMax= 4.11D-02

 Cycle   6  Pass 1  IDiag  1:
 RMSU=  1.07D-03    CP:  9.50D-01  2.91D-03  5.74D-01  1.91D-01  1.01D+00
 E= -228.823378568119     Delta-E=       -0.016328929736 Rises=F Damp=F
 DIIS: error= 6.75D-03 at cycle   6 NSaved=   6.
 NSaved= 6 IEnMin= 6 EnMin= -228.823378568119     IErMin= 6 ErrMin= 6.75D-03
 ErrMax= 6.75D-03  0.00D+00 EMaxC= 1.00D-01 BMatC= 1.99D-02 BMatP= 1.13D-01
 IDIUse=3 WtCom= 9.33D-01 WtEn= 6.75D-02
 Coeff-Com: -0.139D+00 0.152D+00-0.166D-01 0.640D-01 0.421D+00 0.519D+00
 Coeff-En:   0.000D+00 0.000D+00 0.000D+00 0.000D+00 0.000D+00 0.100D+01
 Coeff:     -0.130D+00 0.141D+00-0.154D-01 0.597D-01 0.393D+00 0.551D+00
 Gap=     0.126 Goal=   None    Shift=    0.000
 Gap=     0.092 Goal=   None    Shift=    0.000
 RMSDP=1.08D-03 MaxDP=6.19D-02 DE=-1.63D-02 OVMax= 2.74D-02

 Cycle   7  Pass 1  IDiag  1:
 RMSU=  3.50D-04    CP:  9.56D-01  3.08D-03  5.75D-01  2.16D-01  1.09D+00
                    CP:  7.75D-01
 E= -228.827178704839     Delta-E=       -0.003800136721 Rises=F Damp=F
 DIIS: error= 4.87D-03 at cycle   7 NSaved=   7.
 NSaved= 7 IEnMin= 7 EnMin= -228.827178704839     IErMin= 7 ErrMin= 4.87D-03
 ErrMax= 4.87D-03  0.00D+00 EMaxC= 1.00D-01 BMatC= 5.91D-03 BMatP= 1.99D-02
 IDIUse=3 WtCom= 9.51D-01 WtEn= 4.87D-02
 Coeff-Com: -0.811D-01 0.812D-01-0.260D-01 0.481D-01 0.210D+00 0.348D+00
 Coeff-Com:  0.420D+00
 Coeff-En:   0.000D+00 0.000D+00 0.000D+00 0.000D+00 0.000D+00 0.000D+00
 Coeff-En:   0.100D+01
 Coeff:     -0.772D-01 0.772D-01-0.248D-01 0.458D-01 0.199D+00 0.331D+00
 Coeff:      0.448D+00
 Gap=     0.121 Goal=   None    Shift=    0.000
 Gap=     0.091 Goal=   None    Shift=    0.000
 RMSDP=1.18D-03 MaxDP=8.09D-02 DE=-3.80D-03 OVMax= 2.17D-02

 Cycle   8  Pass 1  IDiag  1:
 RMSU=  2.99D-04    CP:  9.62D-01  3.34D-03  6.13D-01  2.43D-01  1.15D+00
                    CP:  8.66D-01  1.16D+00
 E= -228.829026667229     Delta-E=       -0.001847962390 Rises=F Damp=F
 DIIS: error= 1.57D-03 at cycle   8 NSaved=   8.
 NSaved= 8 IEnMin= 8 EnMin= -228.829026667229     IErMin= 8 ErrMin= 1.57D-03
 ErrMax= 1.57D-03  0.00D+00 EMaxC= 1.00D-01 BMatC= 1.14D-03 BMatP= 5.91D-03
 IDIUse=3 WtCom= 9.84D-01 WtEn= 1.57D-02
 Coeff-Com: -0.371D-01 0.517D-01-0.115D-01 0.796D-02 0.244D-01 0.327D-01
 Coeff-Com:  0.246D+00 0.686D+00
 Coeff-En:   0.000D+00 0.000D+00 0.000D+00 0.000D+00 0.000D+00 0.000D+00
 Coeff-En:   0.000D+00 0.100D+01
 Coeff:     -0.365D-01 0.508D-01-0.114D-01 0.783D-02 0.240D-01 0.322D-01
 Coeff:      0.242D+00 0.691D+00
 Gap=     0.121 Goal=   None    Shift=    0.000
 Gap=     0.091 Goal=   None    Shift=    0.000
 RMSDP=2.94D-04 MaxDP=2.25D-02 DE=-1.85D-03 OVMax= 5.71D-03

 Cycle   9  Pass 1  IDiag  1:
 RMSU=  6.19D-05    CP:  9.65D-01  3.41D-03  6.16D-01  2.48D-01  1.17D+00
                    CP:  8.45D-01  1.36D+00  1.12D+00
 E= -228.829218640823     Delta-E=       -0.000191973594 Rises=F Damp=F
 DIIS: error= 1.05D-03 at cycle   9 NSaved=   9.
 NSaved= 9 IEnMin= 9 EnMin= -228.829218640823     IErMin= 9 ErrMin= 1.05D-03
 ErrMax= 1.05D-03  0.00D+00 EMaxC= 1.00D-01 BMatC= 3.64D-04 BMatP= 1.14D-03
 IDIUse=3 WtCom= 9.90D-01 WtEn= 1.05D-02
 Coeff-Com:  0.484D-03 0.442D-02 0.323D-02-0.306D-02-0.356D-01-0.105D+00
 Coeff-Com: -0.127D+00 0.349D-01 0.123D+01
 Coeff-En:   0.000D+00 0.000D+00 0.000D+00 0.000D+00 0.000D+00 0.000D+00
 Coeff-En:   0.000D+00 0.000D+00 0.100D+01
 Coeff:      0.479D-03 0.438D-02 0.320D-02-0.303D-02-0.352D-01-0.104D+00
 Coeff:     -0.125D+00 0.345D-01 0.123D+01
 Gap=     0.119 Goal=   None    Shift=    0.000
 Gap=     0.091 Goal=   None    Shift=    0.000
 RMSDP=6.52D-04 MaxDP=3.98D-02 DE=-1.92D-04 OVMax= 9.83D-03

 Cycle  10  Pass 1  IDiag  1:
 RMSU=  7.77D-05    CP:  9.66D-01  3.52D-03  6.37D-01  2.65D-01  1.20D+00
                    CP:  8.79D-01  1.64D+00  1.44D+00  8.50D-01
 E= -228.829340180281     Delta-E=       -0.000121539458 Rises=F Damp=F
 DIIS: error= 1.53D-04 at cycle  10 NSaved=  10.
 NSaved=10 IEnMin=10 EnMin= -228.829340180281     IErMin=10 ErrMin= 1.53D-04
 ErrMax= 1.53D-04  0.00D+00 EMaxC= 1.00D-01 BMatC= 1.06D-05 BMatP= 3.64D-04
 IDIUse=3 WtCom= 9.98D-01 WtEn= 1.53D-03
 Coeff-Com:  0.143D-02-0.898D-04 0.262D-02-0.214D-02-0.155D-01-0.543D-01
 Coeff-Com: -0.886D-01-0.586D-01 0.673D+00 0.542D+00
 Coeff-En:   0.000D+00 0.000D+00 0.000D+00 0.000D+00 0.000D+00 0.000D+00
 Coeff-En:   0.000D+00 0.000D+00 0.000D+00 0.100D+01
 Coeff:      0.142D-02-0.897D-04 0.261D-02-0.214D-02-0.155D-01-0.542D-01
 Coeff:     -0.885D-01-0.585D-01 0.672D+00 0.543D+00
 Gap=     0.119 Goal=   None    Shift=    0.000
 Gap=     0.091 Goal=   None    Shift=    0.000
 RMSDP=2.60D-05 MaxDP=2.21D-03 DE=-1.22D-04 OVMax= 1.01D-03

 Cycle  11  Pass 1  IDiag  1:
 RMSU=  1.67D-05    CP:  9.66D-01  3.52D-03  6.37D-01  2.66D-01  1.20D+00
                    CP:  8.76D-01  1.65D+00  1.47D+00  9.62D-01  1.00D+00
 E= -228.829343114515     Delta-E=       -0.000002934234 Rises=F Damp=F
 DIIS: error= 5.28D-05 at cycle  11 NSaved=  11.
 NSaved=11 IEnMin=11 EnMin= -228.829343114515     IErMin=11 ErrMin= 5.28D-05
 ErrMax= 5.28D-05  0.00D+00 EMaxC= 1.00D-01 BMatC= 9.66D-07 BMatP= 1.06D-05
 IDIUse=1 WtCom= 1.00D+00 WtEn= 0.00D+00
 Coeff-Com:  0.995D-03-0.135D-02 0.357D-03-0.234D-03-0.937D-03-0.497D-02
 Coeff-Com: -0.107D-01-0.151D-01 0.532D-01 0.189D+00 0.790D+00
 Coeff:      0.995D-03-0.135D-02 0.357D-03-0.234D-03-0.937D-03-0.497D-02
 Coeff:     -0.107D-01-0.151D-01 0.532D-01 0.189D+00 0.790D+00
 Gap=     0.119 Goal=   None    Shift=    0.000
 Gap=     0.091 Goal=   None    Shift=    0.000
 RMSDP=1.58D-05 MaxDP=1.13D-03 DE=-2.93D-06 OVMax= 7.44D-04

 Cycle  12  Pass 1  IDiag  1:
 RMSU=  5.62D-06    CP:  9.66D-01  3.53D-03  6.38D-01  2.66D-01  1.20D+00
                    CP:  8.75D-01  1.66D+00  1.48D+00  9.72D-01  1.04D+00
                    CP:  1.04D+00
 E= -228.829343467592     Delta-E=       -0.000000353077 Rises=F Damp=F
 DIIS: error= 4.61D-05 at cycle  12 NSaved=  12.
 NSaved=12 IEnMin=12 EnMin= -228.829343467592     IErMin=12 ErrMin= 4.61D-05
 ErrMax= 4.61D-05  0.00D+00 EMaxC= 1.00D-01 BMatC= 5.62D-07 BMatP= 9.66D-07
 IDIUse=1 WtCom= 1.00D+00 WtEn= 0.00D+00
 Coeff-Com:  0.212D-03-0.443D-03-0.226D-03-0.101D-03 0.138D-02 0.670D-02
 Coeff-Com:  0.116D-01 0.145D-01-0.838D-01-0.863D-01-0.111D-02 0.114D+01
 Coeff:      0.212D-03-0.443D-03-0.226D-03-0.101D-03 0.138D-02 0.670D-02
 Coeff:      0.116D-01 0.145D-01-0.838D-01-0.863D-01-0.111D-02 0.114D+01
 Gap=     0.119 Goal=   None    Shift=    0.000
 Gap=     0.091 Goal=   None    Shift=    0.000
 RMSDP=2.08D-05 MaxDP=1.90D-03 DE=-3.53D-07 OVMax= 7.13D-04

 Cycle  13  Pass 1  IDiag  1:
 RMSU=  3.51D-06    CP:  9.66D-01  3.52D-03  6.37D-01  2.66D-01  1.20D+00
                    CP:  8.75D-01  1.66D+00  1.46D+00  9.57D-01  1.07D+00
                    CP:  1.16D+00  1.55D+00
 E= -228.829343780056     Delta-E=       -0.000000312463 Rises=F Damp=F
 DIIS: error= 1.60D-05 at cycle  13 NSaved=  13.
 NSaved=13 IEnMin=13 EnMin= -228.829343780056     IErMin=13 ErrMin= 1.60D-05
 ErrMax= 1.60D-05  0.00D+00 EMaxC= 1.00D-01 BMatC= 4.91D-08 BMatP= 5.62D-07
 IDIUse=1 WtCom= 1.00D+00 WtEn= 0.00D+00
 Coeff-Com:  0.261D-04-0.344D-04-0.197D-04-0.868D-04-0.423D-03 0.268D-03
 Coeff-Com:  0.748D-03 0.568D-02-0.872D-02-0.623D-01-0.253D+00-0.329D-01
 Coeff-Com:  0.135D+01
 Coeff:      0.261D-04-0.344D-04-0.197D-04-0.868D-04-0.423D-03 0.268D-03
 Coeff:      0.748D-03 0.568D-02-0.872D-02-0.623D-01-0.253D+00-0.329D-01
 Coeff:      0.135D+01
 Gap=     0.119 Goal=   None    Shift=    0.000
 Gap=     0.091 Goal=   None    Shift=    0.000
 RMSDP=7.25D-06 MaxDP=5.07D-04 DE=-3.12D-07 OVMax= 5.34D-04

 Cycle  14  Pass 1  IDiag  1:
 RMSU=  2.00D-06    CP:  9.66D-01  3.52D-03  6.37D-01  2.65D-01  1.20D+00
                    CP:  8.75D-01  1.66D+00  1.47D+00  9.76D-01  1.07D+00
                    CP:  1.28D+00  2.03D+00  1.49D+00
 E= -228.829343855953     Delta-E=       -0.000000075897 Rises=F Damp=F
 DIIS: error= 2.72D-06 at cycle  14 NSaved=  14.
 NSaved=14 IEnMin=14 EnMin= -228.829343855953     IErMin=14 ErrMin= 2.72D-06
 ErrMax= 2.72D-06  0.00D+00 EMaxC= 1.00D-01 BMatC= 3.24D-09 BMatP= 4.91D-08
 IDIUse=1 WtCom= 1.00D+00 WtEn= 0.00D+00
 Coeff-Com:  0.270D-06 0.106D-04 0.135D-04 0.173D-04-0.242D-03-0.784D-03
 Coeff-Com: -0.120D-02-0.145D-02 0.839D-02-0.928D-03-0.464D-01-0.152D+00
 Coeff-Com:  0.256D+00 0.938D+00
 Coeff:      0.270D-06 0.106D-04 0.135D-04 0.173D-04-0.242D-03-0.784D-03
 Coeff:     -0.120D-02-0.145D-02 0.839D-02-0.928D-03-0.464D-01-0.152D+00
 Coeff:      0.256D+00 0.938D+00
 Gap=     0.119 Goal=   None    Shift=    0.000
 Gap=     0.091 Goal=   None    Shift=    0.000
 RMSDP=1.16D-06 MaxDP=8.14D-05 DE=-7.59D-08 OVMax= 1.17D-04

 Cycle  15  Pass 1  IDiag  1:
 RMSU=  4.16D-07    CP:  9.66D-01  3.52D-03  6.37D-01  2.65D-01  1.20D+00
                    CP:  8.75D-01  1.66D+00  1.47D+00  9.82D-01  1.06D+00
                    CP:  1.28D+00  2.10D+00  1.65D+00  1.23D+00
 E= -228.829343859747     Delta-E=       -0.000000003795 Rises=F Damp=F
 DIIS: error= 1.14D-06 at cycle  15 NSaved=  15.
 NSaved=15 IEnMin=15 EnMin= -228.829343859747     IErMin=15 ErrMin= 1.14D-06
 ErrMax= 1.14D-06  0.00D+00 EMaxC= 1.00D-01 BMatC= 3.21D-10 BMatP= 3.24D-09
 IDIUse=1 WtCom= 1.00D+00 WtEn= 0.00D+00
 Coeff-Com: -0.557D-05 0.732D-05-0.588D-05 0.235D-04 0.283D-04-0.758D-04
 Coeff-Com: -0.863D-04-0.698D-03 0.132D-02 0.372D-02 0.104D-01-0.176D-01
 Coeff-Com: -0.618D-01 0.128D+00 0.937D+00
 Coeff:     -0.557D-05 0.732D-05-0.588D-05 0.235D-04 0.283D-04-0.758D-04
 Coeff:     -0.863D-04-0.698D-03 0.132D-02 0.372D-02 0.104D-01-0.176D-01
 Coeff:     -0.618D-01 0.128D+00 0.937D+00
 Gap=     0.119 Goal=   None    Shift=    0.000
 Gap=     0.091 Goal=   None    Shift=    0.000
 RMSDP=4.74D-07 MaxDP=3.46D-05 DE=-3.79D-09 OVMax= 2.06D-05

 Cycle  16  Pass 1  IDiag  1:
 RMSU=  1.33D-07    CP:  9.66D-01  3.52D-03  6.37D-01  2.65D-01  1.20D+00
                    CP:  8.75D-01  1.66D+00  1.47D+00  9.83D-01  1.06D+00
                    CP:  1.29D+00  2.10D+00  1.66D+00  1.31D+00  1.22D+00
 E= -228.829343859940     Delta-E=       -0.000000000192 Rises=F Damp=F
 DIIS: error= 3.40D-07 at cycle  16 NSaved=  16.
 NSaved=16 IEnMin=16 EnMin= -228.829343859940     IErMin=16 ErrMin= 3.40D-07
 ErrMax= 3.40D-07  0.00D+00 EMaxC= 1.00D-01 BMatC= 3.68D-11 BMatP= 3.21D-10
 IDIUse=1 WtCom= 1.00D+00 WtEn= 0.00D+00
 Coeff-Com: -0.422D-05 0.646D-05-0.191D-05 0.805D-06 0.231D-04 0.715D-04
 Coeff-Com:  0.867D-04 0.168D-03-0.756D-03-0.200D-03 0.271D-02 0.111D-01
 Coeff-Com: -0.123D-01-0.837D-01-0.644D-01 0.115D+01
 Coeff:     -0.422D-05 0.646D-05-0.191D-05 0.805D-06 0.231D-04 0.715D-04
 Coeff:      0.867D-04 0.168D-03-0.756D-03-0.200D-03 0.271D-02 0.111D-01
 Coeff:     -0.123D-01-0.837D-01-0.644D-01 0.115D+01
 Gap=     0.119 Goal=   None    Shift=    0.000
 Gap=     0.091 Goal=   None    Shift=    0.000
 RMSDP=1.47D-07 MaxDP=1.04D-05 DE=-1.92D-10 OVMax= 4.88D-06

 Cycle  17  Pass 1  IDiag  1:
 RMSU=  3.45D-08    CP:  9.66D-01  3.52D-03  6.37D-01  2.65D-01  1.20D+00
                    CP:  8.75D-01  1.66D+00  1.47D+00  9.83D-01  1.06D+00
                    CP:  1.29D+00  2.10D+00  1.67D+00  1.32D+00  1.34D+00
                    CP:  1.33D+00
 E= -228.829343859959     Delta-E=       -0.000000000019 Rises=F Damp=F
 DIIS: error= 1.80D-07 at cycle  17 NSaved=  17.
 NSaved=17 IEnMin=17 EnMin= -228.829343859959     IErMin=17 ErrMin= 1.80D-07
 ErrMax= 1.80D-07  0.00D+00 EMaxC= 1.00D-01 BMatC= 1.02D-11 BMatP= 3.68D-11
 IDIUse=1 WtCom= 1.00D+00 WtEn= 0.00D+00
 Coeff-Com: -0.117D-05 0.140D-05 0.716D-06-0.167D-05-0.309D-06 0.117D-04
 Coeff-Com:  0.182D-04 0.434D-04-0.228D-03-0.355D-03-0.740D-03 0.217D-02
 Coeff-Com:  0.606D-02-0.147D-01-0.101D+00-0.119D-01 0.112D+01
 Coeff:     -0.117D-05 0.140D-05 0.716D-06-0.167D-05-0.309D-06 0.117D-04
 Coeff:      0.182D-04 0.434D-04-0.228D-03-0.355D-03-0.740D-03 0.217D-02
 Coeff:      0.606D-02-0.147D-01-0.101D+00-0.119D-01 0.112D+01
 Gap=     0.119 Goal=   None    Shift=    0.000
 Gap=     0.091 Goal=   None    Shift=    0.000
 RMSDP=8.66D-08 MaxDP=5.79D-06 DE=-1.93D-11 OVMax= 2.02D-06

 Cycle  18  Pass 1  IDiag  1:
 RMSU=  1.03D-08    CP:  9.66D-01  3.52D-03  6.37D-01  2.65D-01  1.20D+00
                    CP:  8.75D-01  1.66D+00  1.47D+00  9.83D-01  1.06D+00
                    CP:  1.29D+00  2.10D+00  1.67D+00  1.32D+00  1.36D+00
                    CP:  1.43D+00  1.41D+00
 E= -228.829343859965     Delta-E=       -0.000000000006 Rises=F Damp=F
 DIIS: error= 2.74D-08 at cycle  18 NSaved=  18.
 NSaved=18 IEnMin=18 EnMin= -228.829343859965     IErMin=18 ErrMin= 2.74D-08
 ErrMax= 2.74D-08  0.00D+00 EMaxC= 1.00D-01 BMatC= 2.38D-13 BMatP= 1.02D-11
 IDIUse=1 WtCom= 1.00D+00 WtEn= 0.00D+00
 Coeff-Com: -0.123D-06-0.263D-07 0.115D-06-0.993D-07-0.346D-06-0.114D-05
 Coeff-Com:  0.838D-06-0.117D-04-0.202D-05-0.161D-04-0.227D-03-0.380D-03
 Coeff-Com:  0.980D-03 0.453D-02 0.276D-03-0.782D-01 0.502D-01 0.102D+01
 Coeff:     -0.123D-06-0.263D-07 0.115D-06-0.993D-07-0.346D-06-0.114D-05
 Coeff:      0.838D-06-0.117D-04-0.202D-05-0.161D-04-0.227D-03-0.380D-03
 Coeff:      0.980D-03 0.453D-02 0.276D-03-0.782D-01 0.502D-01 0.102D+01
 Gap=     0.119 Goal=   None    Shift=    0.000
 Gap=     0.091 Goal=   None    Shift=    0.000
 RMSDP=1.12D-08 MaxDP=9.23D-07 DE=-5.85D-12 OVMax= 3.55D-07

 Cycle  19  Pass 1  IDiag  1:
 RMSU=  3.65D-09    CP:  9.66D-01  3.52D-03  6.37D-01  2.65D-01  1.20D+00
                    CP:  8.75D-01  1.66D+00  1.47D+00  9.83D-01  1.06D+00
                    CP:  1.29D+00  2.10D+00  1.67D+00  1.32D+00  1.36D+00
                    CP:  1.42D+00  1.52D+00  1.32D+00
 E= -228.829343859964     Delta-E=        0.000000000000 Rises=F Damp=F
 DIIS: error= 6.45D-09 at cycle  19 NSaved=  19.
 NSaved=19 IEnMin=18 EnMin= -228.829343859965     IErMin=19 ErrMin= 6.45D-09
 ErrMax= 6.45D-09  0.00D+00 EMaxC= 1.00D-01 BMatC= 1.43D-14 BMatP= 2.38D-13
 IDIUse=1 WtCom= 1.00D+00 WtEn= 0.00D+00
 Coeff-Com:  0.929D-07-0.235D-07-0.558D-07 0.844D-07-0.422D-07-0.704D-06
 Coeff-Com: -0.190D-05-0.617D-06 0.178D-04 0.318D-04 0.539D-04-0.106D-03
 Coeff-Com: -0.532D-03 0.683D-03 0.783D-02 0.464D-02-0.987D-01-0.151D-01
 Coeff-Com:  0.110D+01
 Coeff:      0.929D-07-0.235D-07-0.558D-07 0.844D-07-0.422D-07-0.704D-06
 Coeff:     -0.190D-05-0.617D-06 0.178D-04 0.318D-04 0.539D-04-0.106D-03
 Coeff:     -0.532D-03 0.683D-03 0.783D-02 0.464D-02-0.987D-01-0.151D-01
 Coeff:      0.110D+01
 Gap=     0.119 Goal=   None    Shift=    0.000
 Gap=     0.091 Goal=   None    Shift=    0.000
 RMSDP=4.56D-09 MaxDP=3.54D-07 DE= 2.84D-13 OVMax= 8.11D-08

 SCF Done:  E(UB3LYP) =  -228.829343860     A.U. after   19 cycles
            NFock= 19  Conv=0.46D-08     -V/T= 2.0042
 <Sx>= 0.0000 <Sy>= 0.0000 <Sz>= 0.5000 <S**2>= 0.7710 S= 0.5104
 <L.S>= 0.000000000000E+00
 KE= 2.278631637402D+02 PE=-7.841984951218D+02 EE= 2.062993979569D+02
 Annihilation of the first spin contaminant:
 S**2 before annihilation     0.7710,   after     0.7502
 Leave Link  502 at Thu Mar  7 11:25:39 2019, MaxMem=    33554432 cpu:       575.4
 (Enter /home/proyectos/fulerenos/M3C-v2.0/M3C-deps_CCC/g09-AM64L-G09RevC.01/l801.exe)
 DoSCS=F DFT=T ScalE2(SS,OS)=  1.000000  1.000000
 Range of M.O.s used for correlation:     1   214
 NBasis=   215 NAE=    18 NBE=    17 NFC=     0 NFV=     0
 NROrb=    214 NOA=    18 NOB=    17 NVA=   196 NVB=   197

 **** Warning!!: The largest alpha MO coefficient is  0.19146414D+03


 **** Warning!!: The largest beta MO coefficient is  0.21005958D+03


 **** Warning!!: The smallest beta delta epsilon is  0.90539531D-01

 Leave Link  801 at Thu Mar  7 11:25:39 2019, MaxMem=    33554432 cpu:         0.1
 (Enter /home/proyectos/fulerenos/M3C-v2.0/M3C-deps_CCC/g09-AM64L-G09RevC.01/l1101.exe)
 Using compressed storage, NAtomX=     7.
 Will process      8 centers per pass.
 Leave Link 1101 at Thu Mar  7 11:25:39 2019, MaxMem=    33554432 cpu:         1.3
 (Enter /home/proyectos/fulerenos/M3C-v2.0/M3C-deps_CCC/g09-AM64L-G09RevC.01/l1102.exe)
 Symmetrizing basis deriv contribution to polar:
 IMax=3 JMax=2 DiffMx= 0.00D+00
 Leave Link 1102 at Thu Mar  7 11:25:39 2019, MaxMem=    33554432 cpu:         0.1
 (Enter /home/proyectos/fulerenos/M3C-v2.0/M3C-deps_CCC/g09-AM64L-G09RevC.01/l1110.exe)
 Forming Gx(P) for the SCF density, NAtomX=     7.
 Integral derivatives from FoFJK, PRISM(SPDF).
 Do as many integral derivatives as possible in FoFJK.
 G2DrvN: MDV=      33554272.
 G2DrvN: will do     8 centers at a time, making    1 passes.
 Calling FoFCou, ICntrl=  3107 FMM=F I1Cent=   0 AccDes= 0.00D+00.
 FoFJK:  IHMeth= 1 ICntrl=    3107 DoSepK=F KAlg= 0 I1Cent=   0 FoldK=F
 IRaf=         0 NMat=   1 IRICut=       1 DoRegI=T DoRafI=F ISym2E= 1.
 FoFCou: FMM=F IPFlag=           0 FMFlag=      100000 FMFlg1=           0
         NFxFlg=           0 DoJE=F BraDBF=F KetDBF=F FulRan=T
         wScrn=  0.000000 ICntrl=    3107 IOpCl=  1 I1Cent=           0 NGrid=           0
         NMat0=    1 NMatS0=      1 NMatT0=    0 NMatD0=    1 NMtDS0=    0 NMtDT0=    0
 Petite list used in FoFCou.
 End of G2Drv F.D. properties file   721 does not exist.
 End of G2Drv F.D. properties file   722 does not exist.
 End of G2Drv F.D. properties file   788 does not exist.
 Leave Link 1110 at Thu Mar  7 11:28:10 2019, MaxMem=    33554432 cpu:       301.6
 (Enter /home/proyectos/fulerenos/M3C-v2.0/M3C-deps_CCC/g09-AM64L-G09RevC.01/l1002.exe)
 Minotr:  UHF open shell wavefunction.
          IDoAtm=1111111
          Direct CPHF calculation.
          Differentiating once with respect to electric field.
                with respect to dipole field.
          Differentiating once with respect to nuclear coordinates.
          Using symmetry in CPHF.
          Requested convergence is 1.0D-08 RMS, and 1.0D-07 maximum.
          Secondary convergence is 1.0D-12 RMS, and 1.0D-12 maximum.
          NewPWx=T KeepS1=F KeepF1=F KeepIn=T MapXYZ=F SortEE=F KeepMc=T.
          MDV=      33553930 using IRadAn=       2.
 Generate precomputed XC quadrature information.
          Solving linear equations simultaneously, MaxMat=       0.
 FoFJK:  IHMeth= 1 ICntrl=       0 DoSepK=F KAlg= 0 I1Cent=   0 FoldK=F
 IRaf= 950000000 NMat=  24 IRICut=      60 DoRegI=T DoRafI=T ISym2E= 2.
 FoFCou: FMM=F IPFlag=           0 FMFlag=      100000 FMFlg1=           0
         NFxFlg=           0 DoJE=F BraDBF=F KetDBF=F FulRan=T
         wScrn=  0.000000 ICntrl=       0 IOpCl=  1 I1Cent=           0 NGrid=           0
         NMat0=   24 NMatS0=     24 NMatT0=    0 NMatD0=   24 NMtDS0=    0 NMtDT0=    0
 Integrals replicated using symmetry in FoFCou.
          There are    24 degrees of freedom in the 1st order CPHF.  IDoFFX=6 NUNeed=     3.
     22 vectors produced by pass  0 Test12= 2.87D-14 4.17D-09 XBig12= 4.93D+02 1.12D+01.
 AX will form    22 AO Fock derivatives at one time.
     21 vectors produced by pass  1 Test12= 2.87D-14 4.17D-09 XBig12= 9.02D+01 2.62D+00.
     21 vectors produced by pass  2 Test12= 2.87D-14 4.17D-09 XBig12= 2.09D+00 4.03D-01.
     21 vectors produced by pass  3 Test12= 2.87D-14 4.17D-09 XBig12= 3.39D-02 3.48D-02.
     21 vectors produced by pass  4 Test12= 2.87D-14 4.17D-09 XBig12= 5.81D-04 4.50D-03.
     21 vectors produced by pass  5 Test12= 2.87D-14 4.17D-09 XBig12= 5.23D-06 4.08D-04.
     21 vectors produced by pass  6 Test12= 2.87D-14 4.17D-09 XBig12= 3.83D-08 3.71D-05.
     16 vectors produced by pass  7 Test12= 2.87D-14 4.17D-09 XBig12= 1.81D-10 1.75D-06.
      6 vectors produced by pass  8 Test12= 2.87D-14 4.17D-09 XBig12= 1.14D-12 2.08D-07.
      5 vectors produced by pass  9 Test12= 2.87D-14 4.17D-09 XBig12= 7.03D-13 1.92D-07.
      3 vectors produced by pass 10 Test12= 2.87D-14 4.17D-09 XBig12= 5.37D-14 4.21D-08.
 InvSVY:  IOpt=1 It=  1 EMax= 7.11D-15
 Solved reduced A of dimension   178 with    24 vectors.
 FullF1:  Do perturbations    1 to     3.
 Isotropic polarizability for W=    0.000000       84.47 Bohr**3.
 End of Minotr F.D. properties file   721 does not exist.
 End of Minotr F.D. properties file   722 does not exist.
 End of Minotr F.D. properties file   788 does not exist.
 Leave Link 1002 at Thu Mar  7 11:39:08 2019, MaxMem=    33554432 cpu:      1315.3
 (Enter /home/proyectos/fulerenos/M3C-v2.0/M3C-deps_CCC/g09-AM64L-G09RevC.01/l601.exe)
 Copying SCF densities to generalized density rwf, IOpCl= 1 IROHF=0.

 **********************************************************************

            Population analysis using the SCF density.

 **********************************************************************

 Orbital symmetries:
 Alpha Orbitals:
       Occupied  (A') (A') (A') (A') (A') (A') (A') (A') (A') (A')
                 (A') (A') (A") (A') (A") (A') (A') (A")
       Virtual   (A') (A') (A") (A') (A') (A') (A") (A") (A') (A')
                 (A') (A') (A") (A') (A") (A') (A') (A') (A') (A")
                 (A') (A') (A") (A') (A') (A') (A") (A') (A') (A")
                 (A') (A') (A') (A') (A') (A") (A") (A') (A') (A")
                 (A') (A') (A") (A') (A") (A') (A') (A") (A') (A")
                 (A') (A') (A') (A') (A") (A') (A") (A') (A') (A")
                 (A') (A') (A") (A') (A') (A") (A") (A') (A') (A')
                 (A') (A") (A') (A') (A") (A') (A') (A') (A") (A')
                 (A') (A') (A') (A") (A") (A') (A') (A') (A") (A")
                 (A') (A') (A") (A') (A") (A') (A') (A') (A') (A")
                 (A') (A") (A') (A') (A") (A') (A") (A') (A") (A')
                 (A') (A") (A") (A') (A') (A") (A') (A") (A") (A')
                 (A') (A') (A") (A') (A') (A") (A') (A') (A") (A')
                 (A') (A") (A') (A') (A') (A") (A') (A") (A') (A')
                 (A") (A') (A") (A') (A') (A") (A') (A') (A') (A")
                 (A') (A') (A") (A") (A') (A') (A") (A') (A') (A')
                 (A') (A") (A") (A') (A') (A') (A") (A') (A") (A')
                 (A") (A') (A") (A") (A') (A") (A') (A") (A') (A')
                 (A") (A') (A') (A') (A') (A') (A") (A') (A") (A')
                 (A') (A') (A') (A') (A') (A')
 Beta  Orbitals:
       Occupied  (A') (A') (A') (A') (A') (A') (A') (A') (A') (A')
                 (A') (A') (A") (A") (A') (A') (A")
       Virtual   (A') (A') (A') (A") (A') (A') (A') (A") (A") (A')
                 (A') (A') (A') (A") (A') (A") (A') (A') (A') (A')
                 (A") (A') (A') (A") (A') (A') (A') (A") (A') (A')
                 (A') (A") (A') (A') (A') (A") (A') (A") (A') (A')
                 (A") (A') (A') (A") (A') (A") (A') (A') (A") (A')
                 (A") (A') (A') (A') (A') (A") (A') (A") (A') (A")
                 (A') (A') (A') (A") (A') (A') (A") (A") (A') (A')
                 (A') (A') (A") (A') (A') (A") (A') (A') (A') (A")
                 (A') (A') (A') (A') (A") (A") (A') (A') (A') (A")
                 (A") (A') (A') (A") (A') (A") (A') (A') (A') (A')
                 (A") (A') (A") (A') (A') (A") (A') (A") (A') (A")
                 (A') (A") (A') (A") (A') (A") (A') (A") (A') (A")
                 (A') (A') (A') (A") (A') (A') (A") (A') (A') (A")
                 (A') (A') (A") (A') (A') (A') (A") (A') (A") (A')
                 (A') (A") (A') (A") (A') (A') (A") (A') (A') (A')
                 (A") (A') (A') (A") (A") (A') (A') (A") (A') (A')
                 (A') (A') (A") (A") (A') (A') (A') (A") (A') (A")
                 (A') (A") (A") (A') (A") (A") (A') (A') (A") (A')
                 (A') (A") (A') (A') (A') (A') (A') (A") (A') (A")
                 (A') (A') (A') (A') (A') (A') (A')
 The electronic state is 2-A'.
 Alpha  occ. eigenvalues --  -18.89535 -10.05745 -10.01726  -9.99858  -9.98971
 Alpha  occ. eigenvalues --   -0.81236  -0.61271  -0.53858  -0.43718  -0.35109
 Alpha  occ. eigenvalues --   -0.30824  -0.23945  -0.19752  -0.16192  -0.14182
 Alpha  occ. eigenvalues --   -0.06465  -0.02352  -0.01768
 Alpha virt. eigenvalues --    0.10149   0.12873   0.15369   0.16670   0.17688
 Alpha virt. eigenvalues --    0.18791   0.19368   0.19945   0.20953   0.22361
 Alpha virt. eigenvalues --    0.23644   0.24427   0.26299   0.26584   0.28511
 Alpha virt. eigenvalues --    0.29235   0.29937   0.32748   0.33545   0.34208
 Alpha virt. eigenvalues --    0.35504   0.38640   0.39695   0.41301   0.43311
 Alpha virt. eigenvalues --    0.44860   0.46130   0.46788   0.48583   0.53381
 Alpha virt. eigenvalues --    0.53444   0.53757   0.55526   0.57694   0.58504
 Alpha virt. eigenvalues --    0.59295   0.61818   0.63542   0.67938   0.68310
 Alpha virt. eigenvalues --    0.68697   0.70350   0.71966   0.72381   0.74339
 Alpha virt. eigenvalues --    0.76587   0.78498   0.79896   0.81003   0.82954
 Alpha virt. eigenvalues --    0.83156   0.89685   0.92470   0.96264   1.01136
 Alpha virt. eigenvalues --    1.03059   1.04925   1.06658   1.08791   1.09495
 Alpha virt. eigenvalues --    1.14951   1.16754   1.20936   1.24455   1.27160
 Alpha virt. eigenvalues --    1.28083   1.30105   1.32292   1.33837   1.35018
 Alpha virt. eigenvalues --    1.37780   1.39884   1.42396   1.46479   1.49244
 Alpha virt. eigenvalues --    1.49444   1.55516   1.59178   1.62047   1.63169
 Alpha virt. eigenvalues --    1.66897   1.70315   1.75146   1.77459   1.78597
 Alpha virt. eigenvalues --    1.79174   1.82622   1.92274   1.93527   1.96614
 Alpha virt. eigenvalues --    1.99813   2.05048   2.06610   2.18503   2.23583
 Alpha virt. eigenvalues --    2.32309   2.40976   2.48102   2.65532   2.67356
 Alpha virt. eigenvalues --    2.74365   2.76550   2.79058   2.80844   2.82072
 Alpha virt. eigenvalues --    2.85551   2.88677   2.91058   2.95519   2.98266
 Alpha virt. eigenvalues --    3.01299   3.02437   3.04954   3.07596   3.11742
 Alpha virt. eigenvalues --    3.12788   3.16610   3.17113   3.17367   3.25168
 Alpha virt. eigenvalues --    3.26726   3.30627   3.30705   3.34721   3.38416
 Alpha virt. eigenvalues --    3.40261   3.50596   3.53525   3.56907   3.65507
 Alpha virt. eigenvalues --    3.68884   3.74866   3.81626   3.86611   3.99235
 Alpha virt. eigenvalues --    4.04218   4.13928   4.19346   4.22601   4.28366
 Alpha virt. eigenvalues --    4.34424   4.34935   4.43157   4.50426   4.54743
 Alpha virt. eigenvalues --    4.66802   4.71739   4.91754   5.12026   5.15404
 Alpha virt. eigenvalues --    5.29125   5.31659   5.32672   5.40302   5.52606
 Alpha virt. eigenvalues --    5.70872   5.73484   5.74793   5.77778   6.11851
 Alpha virt. eigenvalues --    6.22238   6.30349   6.44527   6.52705   6.72071
 Alpha virt. eigenvalues --    7.12637   7.12772   7.22887   7.23338   7.29473
 Alpha virt. eigenvalues --    7.29760   7.31854   7.33013   7.47703   7.54313
 Alpha virt. eigenvalues --    7.55414   7.55922   7.63944   7.66182   7.78966
 Alpha virt. eigenvalues --    7.91016   7.96669   8.22400   8.32922   8.72727
 Alpha virt. eigenvalues --    8.91038  14.56916  14.59113  14.83319  14.95625
 Alpha virt. eigenvalues --   15.22273  24.23037  25.66339  26.25067  26.81488
 Alpha virt. eigenvalues --   50.56195
  Beta  occ. eigenvalues --  -18.89546 -10.05836 -10.02022  -9.99102  -9.98002
  Beta  occ. eigenvalues --   -0.81165  -0.60117  -0.52218  -0.42840  -0.34427
  Beta  occ. eigenvalues --   -0.30107  -0.23546  -0.19713  -0.14040  -0.13458
  Beta  occ. eigenvalues --   -0.06187  -0.00853
  Beta virt. eigenvalues --    0.08200   0.10195   0.13030   0.15208   0.16857
  Beta virt. eigenvalues --    0.17711   0.19216   0.19534   0.19924   0.21112
  Beta virt. eigenvalues --    0.22498   0.24150   0.24870   0.26351   0.27811
  Beta virt. eigenvalues --    0.28595   0.29507   0.30754   0.32953   0.33813
  Beta virt. eigenvalues --    0.34609   0.35653   0.39188   0.39637   0.41446
  Beta virt. eigenvalues --    0.43683   0.45305   0.46585   0.47195   0.49239
  Beta virt. eigenvalues --    0.53615   0.53732   0.54533   0.55679   0.58349
  Beta virt. eigenvalues --    0.59895   0.59957   0.62193   0.63899   0.68467
  Beta virt. eigenvalues --    0.68552   0.69924   0.71718   0.72027   0.72945
  Beta virt. eigenvalues --    0.74466   0.77161   0.78946   0.79948   0.81600
  Beta virt. eigenvalues --    0.83423   0.83815   0.89974   0.92968   0.96525
  Beta virt. eigenvalues --    1.01275   1.03597   1.05215   1.07327   1.09816
  Beta virt. eigenvalues --    1.09829   1.15429   1.17296   1.20874   1.24829
  Beta virt. eigenvalues --    1.27472   1.28234   1.30158   1.32436   1.34211
  Beta virt. eigenvalues --    1.35394   1.38326   1.39980   1.42965   1.47089
  Beta virt. eigenvalues --    1.49251   1.49932   1.56141   1.60181   1.63084
  Beta virt. eigenvalues --    1.64098   1.67418   1.70706   1.75633   1.78674
  Beta virt. eigenvalues --    1.80182   1.81154   1.84344   1.93096   1.93808
  Beta virt. eigenvalues --    1.97023   2.01166   2.06218   2.07647   2.19574
  Beta virt. eigenvalues --    2.24140   2.33078   2.41553   2.48791   2.66526
  Beta virt. eigenvalues --    2.67863   2.75418   2.77900   2.80342   2.81782
  Beta virt. eigenvalues --    2.82778   2.86803   2.88920   2.91814   2.96646
  Beta virt. eigenvalues --    2.98938   3.03480   3.03931   3.05645   3.09265
  Beta virt. eigenvalues --    3.13119   3.14925   3.17668   3.18271   3.18598
  Beta virt. eigenvalues --    3.26013   3.27122   3.31190   3.32128   3.35791
  Beta virt. eigenvalues --    3.39497   3.40486   3.51127   3.54274   3.57952
  Beta virt. eigenvalues --    3.66262   3.69616   3.74766   3.81701   3.87384
  Beta virt. eigenvalues --    3.99933   4.04311   4.14936   4.19897   4.23207
  Beta virt. eigenvalues --    4.28884   4.34879   4.35297   4.43569   4.50971
  Beta virt. eigenvalues --    4.55142   4.67024   4.72647   4.92701   5.13043
  Beta virt. eigenvalues --    5.15625   5.29307   5.32241   5.32608   5.40126
  Beta virt. eigenvalues --    5.53219   5.71100   5.73509   5.74990   5.77904
  Beta virt. eigenvalues --    6.12770   6.22979   6.30634   6.44560   6.53103
  Beta virt. eigenvalues --    6.72415   7.14233   7.14312   7.25691   7.26486
  Beta virt. eigenvalues --    7.29991   7.30581   7.34026   7.34741   7.48067
  Beta virt. eigenvalues --    7.55706   7.55869   7.58010   7.63758   7.67517
  Beta virt. eigenvalues --    7.79295   7.91267   7.98057   8.23084   8.33079
  Beta virt. eigenvalues --    8.73533   8.91314  14.56718  14.58915  14.83268
  Beta virt. eigenvalues --   14.95737  15.22367  24.23501  25.66342  26.25749
  Beta virt. eigenvalues --   26.82011  50.56189
          Condensed to atoms (all electrons):
               1          2          3          4          5          6
     1  C    6.702488  -0.177582  -0.293415  -1.229647  -0.012138   0.549340
     2  C   -0.177582  12.085953  -3.877461  -1.691569   0.001760   0.205292
     3  C   -0.293415  -3.877461   8.820007   1.186538   0.364530  -0.171420
     4  C   -1.229647  -1.691569   1.186538   8.518117  -0.015332  -0.474361
     5  H   -0.012138   0.001760   0.364530  -0.015332   0.390458  -0.001042
     6  H    0.549340   0.205292  -0.171420  -0.474361  -0.001042   1.031520
     7  O    0.368820   0.011686  -0.015337  -0.282983  -0.000103  -0.143904
               7
     1  C    0.368820
     2  C    0.011686
     3  C   -0.015337
     4  C   -0.282983
     5  H   -0.000103
     6  H   -0.143904
     7  O    8.848115
          Atomic-Atomic Spin Densities.
               1          2          3          4          5          6
     1  C   -0.001807   0.031284  -0.003656  -0.096128   0.000998  -0.087131
     2  C    0.031284  -0.150171  -0.023426  -0.006534   0.011263  -0.052892
     3  C   -0.003656  -0.023426   0.625016  -0.037387  -0.007682   0.033613
     4  C   -0.096128  -0.006534  -0.037387   0.795945  -0.002307   0.038596
     5  H    0.000998   0.011263  -0.007682  -0.002307  -0.019535   0.000182
     6  H   -0.087131  -0.052892   0.033613   0.038596   0.000182   0.156405
     7  O    0.030993   0.005396  -0.002040  -0.010457  -0.000007  -0.015393
               7
     1  C    0.030993
     2  C    0.005396
     3  C   -0.002040
     4  C   -0.010457
     5  H   -0.000007
     6  H   -0.015393
     7  O   -0.020426
 Mulliken charges and spin densities:
               1          2
     1  C    0.092136  -0.125445
     2  C   -0.558079  -0.185080
     3  C   -0.013442   0.584439
     4  C   -0.010764   0.681727
     5  H    0.271866  -0.017088
     6  H    0.004575   0.073381
     7  O   -0.786292  -0.011933
 Sum of Mulliken charges =  -1.00000   1.00000
 Mulliken charges and spin densities with hydrogens summed into heavy atoms:
               1          2
     1  C    0.096710  -0.052065
     2  C   -0.558079  -0.185080
     3  C    0.258425   0.567351
     4  C   -0.010764   0.681727
     7  O   -0.786292  -0.011933
 APT charges:
               1
     1  C    1.295056
     2  C    0.726098
     3  C   -0.966503
     4  C   -0.931489
     5  H    0.217300
     6  H   -0.172472
     7  O   -1.167989
 Sum of APT charges =  -1.00000
 APT charges with hydrogens summed into heavy atoms:
               1
     1  C    1.122584
     2  C    0.726098
     3  C   -0.749204
     4  C   -0.931489
     7  O   -1.167989
 Electronic spatial extent (au):  <R**2>=            531.9290
 Charge=             -1.0000 electrons
 Dipole moment (field-independent basis, Debye):
    X=             -1.7162    Y=             -1.7832    Z=             -0.0000  Tot=              2.4749
 Quadrupole moment (field-independent basis, Debye-Ang):
   XX=            -36.7827   YY=            -52.0273   ZZ=            -34.4837
   XY=             -7.7132   XZ=             -0.0000   YZ=             -0.0000
 Traceless Quadrupole moment (field-independent basis, Debye-Ang):
   XX=              4.3152   YY=            -10.9294   ZZ=              6.6142
   XY=             -7.7132   XZ=             -0.0000   YZ=             -0.0000
 Octapole moment (field-independent basis, Debye-Ang**2):
  XXX=              4.1769  YYY=            -10.9633  ZZZ=              0.0000  XYY=            -10.5471
  XXY=              1.5911  XXZ=             -0.0000  XZZ=              2.9194  YZZ=              9.4846
  YYZ=             -0.0000  XYZ=             -0.0000
 Hexadecapole moment (field-independent basis, Debye-Ang**3):
 XXXX=           -117.0748 YYYY=           -734.6746 ZZZZ=            -49.0814 XXXY=            -89.8968
 XXXZ=             -0.0000 YYYX=           -103.1565 YYYZ=             -0.0000 ZZZX=             -0.0000
 ZZZY=             -0.0000 XXYY=           -148.7605 XXZZ=            -27.4198 YYZZ=           -133.2417
 XXYZ=             -0.0000 YYXZ=             -0.0000 ZZXY=            -29.6043
 N-N= 1.212065895647D+02 E-N=-7.841984951853D+02  KE= 2.278631637402D+02
 Symmetry A'   KE= 2.195142385856D+02
 Symmetry A"   KE= 8.348925154534D+00
  Exact polarizability:  59.604  22.357 146.641  -0.002   0.001  47.174
 Approx polarizability:  86.386  49.960 257.149   0.000   0.000  62.378
                          Isotropic Fermi Contact Couplings
        Atom                 a.u.       MegaHertz       Gauss      10(-4) cm-1
     1  C(13)             -0.02437     -27.39784      -9.77623      -9.13894
     2  C(13)             -0.03986     -44.81026     -15.98941     -14.94709
     3  C(13)              0.03506      39.41347      14.06371      13.14692
     4  C(13)              0.06420      72.17019      25.75212      24.07338
     5  H(1)              -0.00881     -39.38623     -14.05399     -13.13783
     6  H(1)               0.01771      79.17313      28.25094      26.40931
     7  O(17)              0.01578      -9.56721      -3.41382      -3.19128
 --------------------------------------------------------
       Center         ----  Spin Dipole Couplings  ----
                      3XX-RR        3YY-RR        3ZZ-RR
 --------------------------------------------------------
     1   Atom        0.000787      0.051266     -0.052053
     2   Atom       -0.141581      0.143406     -0.001825
     3   Atom        0.511823     -0.271052     -0.240771
     4   Atom        0.712162     -0.372598     -0.339564
     5   Atom        0.003584      0.036718     -0.040302
     6   Atom       -0.002677      0.011018     -0.008341
     7   Atom        0.041975      0.076064     -0.118039
 --------------------------------------------------------
                        XY            XZ            YZ
 --------------------------------------------------------
     1   Atom        0.000545      0.000000      0.000000
     2   Atom        0.066864      0.000000      0.000000
     3   Atom       -0.205534      0.000000      0.000000
     4   Atom       -0.197475      0.000000     -0.000000
     5   Atom        0.007564      0.000000      0.000000
     6   Atom       -0.004494      0.000000      0.000000
     7   Atom        0.054891      0.000000      0.000000
 --------------------------------------------------------


 ---------------------------------------------------------------------------------
              Anisotropic Spin Dipole Couplings in Principal Axis System
 ---------------------------------------------------------------------------------

       Atom             a.u.   MegaHertz   Gauss  10(-4) cm-1        Axes

              Baa    -0.0521    -6.985    -2.492    -2.330  0.0000  0.0000  1.0000
     1 C(13)  Bbb     0.0008     0.105     0.037     0.035  0.9999 -0.0108 -0.0000
              Bcc     0.0513     6.880     2.455     2.295  0.0108  0.9999 -0.0000
 
              Baa    -0.1565   -20.999    -7.493    -7.005  0.9760 -0.2176 -0.0000
     2 C(13)  Bbb    -0.0018    -0.245    -0.087    -0.082  0.0000 -0.0000  1.0000
              Bcc     0.1583    21.244     7.580     7.086  0.2176  0.9760  0.0000
 
              Baa    -0.3217   -43.173   -15.405   -14.401  0.2394  0.9709 -0.0000
     3 C(13)  Bbb    -0.2408   -32.309   -11.529   -10.777  0.0000  0.0000  1.0000
              Bcc     0.5625    75.482    26.934    25.178  0.9709 -0.2394 -0.0000
 
              Baa    -0.4074   -54.673   -19.509   -18.237  0.1737  0.9848 -0.0000
     4 C(13)  Bbb    -0.3396   -45.566   -16.259   -15.199  0.0000  0.0000  1.0000
              Bcc     0.7470   100.239    35.768    33.436  0.9848 -0.1737  0.0000
 
              Baa    -0.0403   -21.503    -7.673    -7.173  0.0000  0.0000  1.0000
     5 H(1)   Bbb     0.0019     1.035     0.369     0.345  0.9772 -0.2125 -0.0000
              Bcc     0.0384    20.469     7.304     6.828  0.2125  0.9772 -0.0000
 
              Baa    -0.0083    -4.450    -1.588    -1.484  0.0000  0.0000  1.0000
     6 H(1)   Bbb    -0.0040    -2.145    -0.765    -0.716  0.9581  0.2863  0.0000
              Bcc     0.0124     6.596     2.353     2.200 -0.2863  0.9581 -0.0000
 
              Baa    -0.1180     8.541     3.048     2.849  0.0000  0.0000  1.0000
     7 O(17)  Bbb     0.0015    -0.112    -0.040    -0.037  0.8052 -0.5931 -0.0000
              Bcc     0.1165    -8.430    -3.008    -2.812  0.5931  0.8052 -0.0000
 

 ---------------------------------------------------------------------------------

 No NMR shielding tensors so no spin-rotation constants.
 Leave Link  601 at Thu Mar  7 11:39:09 2019, MaxMem=    33554432 cpu:         1.4
 (Enter /home/proyectos/fulerenos/M3C-v2.0/M3C-deps_CCC/g09-AM64L-G09RevC.01/l701.exe)
 Compute integral second derivatives.
 ... and contract with generalized density number  0.
 Leave Link  701 at Thu Mar  7 11:39:10 2019, MaxMem=    33554432 cpu:         1.4
 (Enter /home/proyectos/fulerenos/M3C-v2.0/M3C-deps_CCC/g09-AM64L-G09RevC.01/l702.exe)
 L702 exits ... SP integral derivatives will be done elsewhere.
 Leave Link  702 at Thu Mar  7 11:39:10 2019, MaxMem=    33554432 cpu:         0.1
 (Enter /home/proyectos/fulerenos/M3C-v2.0/M3C-deps_CCC/g09-AM64L-G09RevC.01/l703.exe)
 Compute integral second derivatives, UseDBF=F ICtDFT=           0.
 Integral derivatives from FoFJK, PRISM(SPDF).
 Calling FoFJK, ICntrl=    100127 FMM=F ISym2X=1 I1Cent= 0 IOpClX= 1 NMat=1 NMatS=1 NMatT=0.
 FoFJK:  IHMeth= 1 ICntrl=  100127 DoSepK=F KAlg= 0 I1Cent=   0 FoldK=F
 IRaf=         0 NMat=   1 IRICut=       1 DoRegI=T DoRafI=F ISym2E= 1.
 FoFCou: FMM=F IPFlag=           0 FMFlag=      100000 FMFlg1=         800
         NFxFlg=           0 DoJE=F BraDBF=F KetDBF=F FulRan=T
         wScrn=  0.000000 ICntrl=  100127 IOpCl=  1 I1Cent=           0 NGrid=           0
         NMat0=    1 NMatS0=      1 NMatT0=    0 NMatD0=    1 NMtDS0=    0 NMtDT0=    0
 Petite list used in FoFCou.
 Leave Link  703 at Thu Mar  7 11:45:17 2019, MaxMem=    33554432 cpu:       734.0
 (Enter /home/proyectos/fulerenos/M3C-v2.0/M3C-deps_CCC/g09-AM64L-G09RevC.01/l716.exe)
 Dipole        =-6.75214501D-01-7.01555764D-01-1.55592220D-16
 Polarizability= 5.96035964D+01 2.23572794D+01 1.46640959D+02
                -2.46538756D-03 1.15724358D-03 4.71741547D+01
 Full mass-weighted force constant matrix:
 Low frequencies --- -341.9627  -41.2233   -5.9272   -0.0007   -0.0006   -0.0004
 Low frequencies ---    4.7807   22.3606   90.0489
 ******    2 imaginary frequencies (negative Signs) ****** 
 Diagonal vibrational polarizability:
       42.9304264      28.8727881      78.4884443
 Harmonic frequencies (cm**-1), IR intensities (KM/Mole), Raman scattering
 activities (A**4/AMU), depolarization ratios for plane and unpolarized
 incident light, reduced masses (AMU), force constants (mDyne/A),
 and normal coordinates:
                      1                      2                      3
                     A"                     A"                     A'
 Frequencies --   -341.9627               -41.0445                90.0487
 Red. masses --      1.3227                 6.9523                 4.6761
 Frc consts  --      0.0911                 0.0069                 0.0223
 IR Inten    --    133.4056                 2.9908                 3.4543
  Atom  AN      X      Y      Z        X      Y      Z        X      Y      Z
     1   6    -0.00   0.00   0.00     0.00  -0.00  -0.05     0.07  -0.11   0.00
     2   6     0.00   0.00   0.07    -0.00   0.00   0.09     0.05  -0.02  -0.00
     3   6    -0.00  -0.00  -0.15    -0.00   0.00  -0.29    -0.21   0.06   0.00
     4   6    -0.00   0.00  -0.00     0.00  -0.00   0.62     0.41  -0.11  -0.00
     5   1    -0.00   0.00   0.99    -0.00   0.00  -0.61    -0.69   0.16   0.00
     6   1    -0.00   0.00   0.01    -0.00  -0.00  -0.32    -0.04  -0.43   0.00
     7   8     0.00  -0.00  -0.00    -0.00   0.00  -0.22    -0.20   0.15   0.00
                      4                      5                      6
                     A'                     A'                     A"
 Frequencies --    224.0122               430.3251               492.8739
 Red. masses --      1.3893                 5.2106                 5.0081
 Frc consts  --      0.0411                 0.5685                 0.7168
 IR Inten    --     70.0125                 6.4178                 0.0133
  Atom  AN      X      Y      Z        X      Y      Z        X      Y      Z
     1   6     0.01  -0.01   0.00    -0.15   0.05   0.00     0.00   0.00  -0.02
     2   6     0.07  -0.02  -0.00     0.52  -0.09   0.00    -0.00  -0.00   0.52
     3   6    -0.16   0.04   0.00    -0.17   0.08  -0.00     0.00  -0.00  -0.19
     4   6     0.02  -0.01  -0.00    -0.14   0.07   0.00     0.00  -0.00  -0.24
     5   1     0.96  -0.20   0.00    -0.73   0.20  -0.00     0.00  -0.00  -0.79
     6   1     0.00  -0.03   0.00    -0.09   0.19  -0.00     0.00  -0.00  -0.09
     7   8    -0.01   0.01   0.00     0.01  -0.11  -0.00     0.00   0.00  -0.00
                      7                      8                      9
                     A'                     A'                     A"
 Frequencies --    544.0038               874.4168               908.1665
 Red. masses --      9.8238                 6.0382                 1.7959
 Frc consts  --      1.7129                 2.7202                 0.8727
 IR Inten    --      2.3140                21.4458                 0.3092
  Atom  AN      X      Y      Z        X      Y      Z        X      Y      Z
     1   6     0.33   0.09   0.00    -0.31   0.37   0.00    -0.00   0.00  -0.25
     2   6     0.07  -0.32  -0.00    -0.07  -0.18  -0.00    -0.00  -0.00   0.02
     3   6    -0.12  -0.32  -0.00    -0.08  -0.27   0.00    -0.00  -0.00  -0.00
     4   6    -0.34  -0.08   0.00     0.30   0.03  -0.00     0.00   0.00   0.05
     5   1    -0.31  -0.30   0.00    -0.02  -0.31  -0.00    -0.00  -0.00  -0.02
     6   1     0.31   0.08  -0.00    -0.14   0.66  -0.00    -0.00   0.00   0.96
     7   8     0.04   0.49  -0.00     0.12   0.01  -0.00     0.00   0.00   0.07
                     10                     11                     12
                     A'                     A'                     A'
 Frequencies --   1344.6780              1447.7331              1666.6465
 Red. masses --      1.1902                 9.1859                 8.2934
 Frc consts  --      1.2679                11.3435                13.5728
 IR Inten    --     30.3714               429.7137               713.9745
  Atom  AN      X      Y      Z        X      Y      Z        X      Y      Z
     1   6     0.06  -0.03  -0.00     0.41   0.25  -0.00     0.18   0.52   0.00
     2   6     0.00   0.00   0.00     0.02   0.06  -0.00    -0.02  -0.11   0.00
     3   6     0.01   0.02  -0.00    -0.08  -0.30   0.00     0.07   0.25   0.00
     4   6     0.02  -0.04   0.00     0.04   0.44   0.00    -0.06  -0.48  -0.00
     5   1     0.01   0.03   0.00    -0.10  -0.37  -0.00     0.09   0.35   0.00
     6   1     0.39   0.91   0.00     0.04  -0.41   0.00    -0.20  -0.42  -0.00
     7   8    -0.08  -0.02  -0.00    -0.29  -0.29  -0.00    -0.12  -0.13   0.00
                     13                     14                     15
                     A'                     A'                     A'
 Frequencies --   1881.5095              2688.8155              3469.0397
 Red. masses --      8.7781                 1.0701                 1.1208
 Frc consts  --     18.3090                 4.5583                 7.9472
 IR Inten    --    888.5518               291.3724                75.5450
  Atom  AN      X      Y      Z        X      Y      Z        X      Y      Z
     1   6    -0.04   0.06  -0.00    -0.07   0.03   0.00    -0.00  -0.00  -0.00
     2   6     0.16   0.65  -0.00    -0.00  -0.01   0.00     0.00   0.01  -0.00
     3   6    -0.09  -0.35   0.00     0.00   0.00   0.00    -0.02  -0.10   0.00
     4   6    -0.05  -0.35   0.00    -0.00   0.01  -0.00     0.00   0.00   0.00
     5   1    -0.14  -0.52  -0.00     0.00   0.01   0.00     0.21   0.97  -0.00
     6   1     0.04  -0.03   0.00     0.94  -0.35  -0.00    -0.00   0.00  -0.00
     7   8     0.02   0.02  -0.00    -0.01  -0.00   0.00     0.00   0.00  -0.00

 -------------------
 - Thermochemistry -
 -------------------
 Temperature   298.150 Kelvin.  Pressure   1.00000 Atm.
 Atom     1 has atomic number  6 and mass  12.00000
 Atom     2 has atomic number  6 and mass  12.00000
 Atom     3 has atomic number  6 and mass  12.00000
 Atom     4 has atomic number  6 and mass  12.00000
 Atom     5 has atomic number  1 and mass   1.00783
 Atom     6 has atomic number  1 and mass   1.00783
 Atom     7 has atomic number  8 and mass  15.99491
 Molecular mass:    66.01056 amu.
 Principal axes and moments of inertia in atomic units:
                           1         2         3
     Eigenvalues --    18.25964 800.63777 818.89742
           X            0.26916   0.96310  -0.00000
           Y            0.96310  -0.26916  -0.00000
           Z            0.00000   0.00000   1.00000
 This molecule is an asymmetric top.
 Rotational symmetry number  1.
 Rotational temperatures (Kelvin)      4.74346     0.10818     0.10577
 Rotational constants (GHZ):          98.83771     2.25413     2.20387
    2 imaginary frequencies ignored.
 Zero-point vibrational energy      96073.7 (Joules/Mol)
                                   22.96217 (Kcal/Mol)
 Warning -- explicit consideration of   5 degrees of freedom as
           vibrations may cause significant error
 Vibrational temperatures:    129.56   322.30   619.14   709.13   782.70
          (Kelvin)           1258.09  1306.65  1934.69  2082.96  2397.93
                             2707.07  3868.60  4991.17
 
 Zero-point correction=                           0.036593 (Hartree/Particle)
 Thermal correction to Energy=                    0.041538
 Thermal correction to Enthalpy=                  0.042482
 Thermal correction to Gibbs Free Energy=         0.008336
 Sum of electronic and zero-point Energies=           -228.792751
 Sum of electronic and thermal Energies=              -228.787806
 Sum of electronic and thermal Enthalpies=            -228.786862
 Sum of electronic and thermal Free Energies=         -228.821008
 
                     E (Thermal)             CV                S
                      KCal/Mol        Cal/Mol-Kelvin    Cal/Mol-Kelvin
 Total                   26.065             14.848             71.865
 Electronic               0.000              0.000              1.377
 Translational            0.889              2.981             38.480
 Rotational               0.889              2.981             23.997
 Vibrational             24.288              8.887              8.011
 Vibration     1          0.602              1.956              3.659
 Vibration     2          0.649              1.804              1.926
 Vibration     3          0.792              1.404              0.858
 Vibration     4          0.849              1.266              0.676
 Vibration     5          0.899              1.153              0.557
                       Q            Log10(Q)             Ln(Q)
 Total Bot       0.146405D-03         -3.834445         -8.829135
 Total V=0       0.992934D+13         12.996920         29.926515
 Vib (Bot)       0.886594D-16        -16.052275        -36.961730
 Vib (Bot)    1  0.228325D+01          0.358553          0.825598
 Vib (Bot)    2  0.881508D+00         -0.054774         -0.126121
 Vib (Bot)    3  0.404798D+00         -0.392762         -0.904368
 Vib (Bot)    4  0.335562D+00         -0.474227         -1.091949
 Vib (Bot)    5  0.290135D+00         -0.537400         -1.237410
 Vib (V=0)       0.601298D+01          0.779089          1.793920
 Vib (V=0)    1  0.283735D+01          0.452913          1.042871
 Vib (V=0)    2  0.151344D+01          0.179965          0.414384
 Vib (V=0)    3  0.114332D+01          0.058168          0.133937
 Vib (V=0)    4  0.110216D+01          0.042246          0.097276
 Vib (V=0)    5  0.107808D+01          0.032652          0.075183
 Electronic      0.200000D+01          0.301030          0.693147
 Translational   0.210802D+08          7.323875         16.863846
 Rotational      0.391675D+05          4.592925         10.575601
 
                                                              b3lyp opt
                                                             IR Spectrum
 
     3                            2                             1      1       1   1                                                 
     4                            6                             8      6       4   3               98            54  4      2        
     6                            8                             8      6       4   4               07            49  3      2    9   
     9                            9                             2      7       8   5               84            43  0      4    0   
 
     X                            X                             X      X       X   X               XX            X   X      X    X   
     X                            X                             X      X       X                                            X        
                                  X                             X      X       X                                                     
                                  X                             X      X       X                                                     
                                  X                             X      X       X                                                     
                                  X                             X      X       X                                                     
                                  X                             X      X       X                                                     
                                                                X      X       X                                                     
                                                                X      X       X                                                     
                                                                X      X       X                                                     
                                                                X      X                                                             
                                                                X      X                                                             
                                                                X      X                                                             
                                                                X      X                                                             
                                                                X      X                                                             
                                                                X      X                                                             
                                                                X                                                                    
                                                                X                                                                    
                                                                X                                                                    
                                                                X                                                                    
 
 ***** Axes restored to original set *****
 -------------------------------------------------------------------
 Center     Atomic                   Forces (Hartrees/Bohr)
 Number     Number              X              Y              Z
 -------------------------------------------------------------------
      1        6           0.000003324    0.000090672   -0.000004870
      2        6          -0.000011342    0.000022713   -0.000006450
      3        6           0.000022722    0.000012349    0.000008903
      4        6           0.000011674   -0.000080401    0.000010599
      5        1          -0.000011384   -0.000003133   -0.000004673
      6        1          -0.000009961   -0.000032860   -0.000001997
      7        8          -0.000005032   -0.000009340   -0.000001513
 -------------------------------------------------------------------
 Cartesian Forces:  Max     0.000090672 RMS     0.000029165
 Z-matrix is all fixed cartesians, so copy forces.
 Force constants in Cartesian coordinates: 
                1             2             3             4             5 
      1  0.683406D+00
      2  0.474557D-01  0.484226D+00
      3  0.224396D+00 -0.259240D-02  0.249945D+00
      4 -0.490873D-01 -0.138272D-01 -0.125061D-01  0.801337D+00
      5 -0.277891D-01 -0.949728D-02 -0.125106D-01  0.332771D+00  0.208619D+00
      6 -0.115333D-01 -0.651267D-02 -0.222491D-01  0.290695D+00  0.133380D+00
      7  0.291552D-01  0.150039D-01  0.101767D-01 -0.476587D+00 -0.206357D+00
      8  0.975015D-02  0.958336D-02  0.373574D-02 -0.205220D+00 -0.115592D+00
      9  0.105376D-01  0.599304D-02  0.716312D-02 -0.181549D+00 -0.820602D-01
     10 -0.193768D+00 -0.150328D+00 -0.596388D-01 -0.290001D+00 -0.109866D+00
     11 -0.118755D+00 -0.185751D+00 -0.402424D-01 -0.128076D+00 -0.816477D-01
     12 -0.618323D-01 -0.538064D-01 -0.534599D-01 -0.102895D+00 -0.435913D-01
     13 -0.380169D-03 -0.131670D-03 -0.773663D-03 -0.179820D-02  0.156100D-02
     14 -0.109277D-03  0.148018D-03  0.428077D-04  0.584354D-02 -0.378885D-02
     15 -0.775458D-03  0.334605D-04  0.110807D-02  0.401625D-02  0.931282D-04
     16 -0.525097D-01  0.211572D-01 -0.248693D-02 -0.177993D-02 -0.632311D-03
     17  0.255510D-01 -0.205813D+00  0.217866D-01  0.829629D-02  0.265648D-02
     18 -0.279209D-02  0.199001D-01 -0.527235D-01 -0.298455D-02 -0.190328D-03
     19 -0.416816D+00  0.806703D-01 -0.159167D+00  0.179171D-01  0.103127D-01
     20  0.638969D-01 -0.928966D-01  0.297803D-01  0.212701D-03 -0.750410D-03
     21 -0.158000D+00  0.369849D-01 -0.129784D+00  0.522324D-02  0.487964D-02
                6             7             8             9            10 
      6  0.186437D+00
      7 -0.181470D+00  0.874187D+00
      8 -0.815717D-01  0.394870D+00  0.193946D+00
      9 -0.930671D-01  0.349028D+00  0.156007D+00  0.136948D+00
     10 -0.104166D+00 -0.114696D+00 -0.473228D-01 -0.509770D-01  0.659722D+00
     11 -0.514144D-01 -0.453430D-01 -0.114334D-01 -0.178784D-01  0.344653D+00
     12 -0.709267D-01 -0.511242D-01 -0.187298D-01 -0.904055D-02  0.250388D+00
     13  0.431633D-02 -0.298434D+00 -0.146690D+00 -0.122061D+00  0.270138D-02
     14  0.193293D-02 -0.150960D+00 -0.736497D-01 -0.590787D-01 -0.790431D-03
     15 -0.103795D-01 -0.121762D+00 -0.572434D-01 -0.389015D-01 -0.506808D-03
     16 -0.236478D-02  0.728657D-03  0.105857D-02  0.305884D-03  0.798338D-02
     17  0.364469D-02 -0.613634D-02 -0.166547D-02 -0.253197D-02 -0.130676D-01
     18  0.255836D-02  0.805050D-03  0.559425D-03  0.151198D-03 -0.348003D-03
     19  0.452215D-02 -0.143541D-01 -0.644659D-02 -0.528404D-02 -0.719428D-01
     20  0.541458D-03 -0.107761D-02 -0.118960D-02 -0.450460D-03 -0.232780D-01
     21  0.762717D-02 -0.565394D-02 -0.275699D-02 -0.325364D-02 -0.347513D-01
               11            12            13            14            15 
     11  0.289732D+00
     12  0.129403D+00  0.119710D+00
     13 -0.876946D-03 -0.501419D-03  0.297710D+00
     14  0.343599D-02 -0.299422D-03  0.146036D+00  0.741408D-01
     15 -0.337356D-03  0.381265D-02  0.118658D+00  0.574366D-01  0.448607D-01
     16 -0.153701D-01 -0.187793D-03  0.332859D-05 -0.166808D-03  0.156918D-03
     17 -0.333301D-01 -0.253767D-02  0.122984D-03 -0.156751D-03  0.398332D-04
     18 -0.352968D-02  0.110032D-01  0.136630D-03 -0.840206D-04 -0.270477D-03
     19 -0.362319D-01 -0.338475D-01  0.198052D-03  0.147214D-03  0.213528D-03
     20  0.189939D-01 -0.104384D-01 -0.221174D-04 -0.129450D-03 -0.223312D-04
     21 -0.160008D-01 -0.109891D-02  0.225646D-03  0.497431D-04 -0.229917D-03
               16            17            18            19            20 
     16  0.673073D-01
     17 -0.442343D-01  0.242062D+00
     18  0.249084D-01 -0.346694D-01  0.295836D-01
     19 -0.217330D-01  0.294679D-01 -0.197255D-01  0.506731D+00
     20  0.381877D-01 -0.375327D-02  0.180139D-01 -0.779196D-01  0.797254D-01
     21 -0.203317D-01  0.142679D-01  0.969761D-02  0.213288D+00 -0.374244D-01
               21 
     21  0.117042D+00
 Leave Link  716 at Thu Mar  7 11:45:17 2019, MaxMem=    33554432 cpu:         0.1
 (Enter /home/proyectos/fulerenos/M3C-v2.0/M3C-deps_CCC/g09-AM64L-G09RevC.01/l103.exe)

 GradGradGradGradGradGradGradGradGradGradGradGradGradGradGradGradGradGrad
 Berny optimization.
 Search for a local minimum.
 Step number   1 out of a maximum of    2
 All quantities printed in internal units (Hartrees-Bohrs-Radians)
 Second derivative matrix not updated -- analytic derivatives used.
 ITU=  0
     Eigenvalues ---   -0.01182  -0.00056   0.00139   0.00628   0.06873
     Eigenvalues ---    0.09234   0.09930   0.13299   0.17759   0.22261
     Eigenvalues ---    0.45746   0.66299   1.13849   1.34877   1.86563
 Eigenvalue     1 is  -1.18D-02 should be greater than     0.000000 Eigenvector:
                          Z5        Z3        Z4        X5        X3
   1                    0.66027  -0.54429   0.29296  -0.28364   0.23382
                          X4        Z7        Z2        X7        Y5
   1                   -0.12584  -0.11014   0.09824   0.04731   0.04588
 Eigenvalue     2 is  -5.56D-04 should be greater than     0.000000 Eigenvector:
                          Z4        Z5        Z7        X4        X5
   1                    0.64272  -0.50476  -0.31749  -0.27600   0.21675
                          Z3        Z2        X7        Z6        X3
   1                   -0.16740   0.16264   0.13639  -0.13286   0.07192
 Angle between quadratic step and forces=  74.04 degrees.
 ClnCor:  largest displacement from symmetrization is 1.44D-05 for atom     4.
 Linear search not attempted -- first point.
 ClnCor:  largest displacement from symmetrization is 1.04D-14 for atom     5.
 B after Tr=     0.001311   -0.000411    0.000592
         Rot=    1.000000    0.000074   -0.000012   -0.000172 Ang=   0.02 deg.
 Variable       Old X    -DE/DX   Delta X   Delta X   Delta X     New X
                                 (Linear)    (Quad)   (Total)
    X1        2.54928   0.00000   0.00000  -0.00089  -0.00027   2.54901
    Y1        2.04019   0.00009   0.00000  -0.00215  -0.00162   2.03857
    Z1        0.45524  -0.00000   0.00000  -0.00023  -0.00000   0.45524
    X2       -1.48461  -0.00001   0.00000   0.00129   0.00272  -1.48189
    Y2       -0.42341   0.00002   0.00000  -0.00205  -0.00313  -0.42655
    Z2       -1.10652  -0.00001   0.00000   0.00069   0.00138  -1.10513
    X3       -3.51848   0.00002   0.00000   0.00006   0.00177  -3.51671
    Y3       -1.30551   0.00001   0.00000   0.00233   0.00042  -1.30509
    Z3       -1.91895   0.00001   0.00000  -0.00014   0.00073  -1.91822
    X4        0.67584   0.00001   0.00000   0.00407   0.00524   0.68108
    Y4        0.39933  -0.00008   0.00000  -0.00939  -0.00960   0.38974
    Z4       -0.23558   0.00001   0.00000   0.00240   0.00292  -0.23266
    X5       -5.20752  -0.00001   0.00000  -0.00413  -0.00215  -5.20967
    Y5       -2.14490  -0.00000   0.00000   0.01275   0.01016  -2.13474
    Z5       -2.58622  -0.00000   0.00000  -0.00266  -0.00163  -2.58785
    X6        1.99352  -0.00001   0.00000  -0.00857  -0.00866   1.98487
    Y6        4.05215  -0.00003   0.00000  -0.00490  -0.00462   4.04753
    Z6        0.07676  -0.00000   0.00000  -0.00334  -0.00340   0.07337
    X7        4.68815  -0.00001   0.00000   0.00058   0.00135   4.68950
    Y7        1.65324  -0.00001   0.00000   0.00698   0.00839   1.66164
    Z7        1.40092  -0.00000   0.00000  -0.00024  -0.00000   1.40092
         Item               Value     Threshold  Converged?
 Maximum Force            0.000091     0.000450     YES
 RMS     Force            0.000029     0.000300     YES
 Maximum Displacement     0.010156     0.001800     NO 
 RMS     Displacement     0.004599     0.001200     NO 
 Predicted change in Energy=-4.169708D-07
 GradGradGradGradGradGradGradGradGradGradGradGradGradGradGradGradGradGrad

 Leave Link  103 at Thu Mar  7 11:45:17 2019, MaxMem=    33554432 cpu:         0.1
 (Enter /home/proyectos/fulerenos/M3C-v2.0/M3C-deps_CCC/g09-AM64L-G09RevC.01/l9999.exe)

 Test job not archived.
 1\1\GINC-BERQUELIO\Freq\UB3LYP\6-311++G(3df,2p)\C4H2O1(1-,2)\NAGUIRRE\
 07-Mar-2019\0\\#p b3lyp/6-311++G(3df,2p) freq IOp(2/17=3) IOp(2/18=3)\
 \b3lyp opt\\-1,2\C,1.3490230696,1.0796203719,0.2409035592\C,-0.7856225
 126,-0.224059935,-0.5855426753\C,-1.8619015031,-0.6908462961,-1.015465
 8457\C,0.3576386358,0.211318724,-0.1246642164\H,-2.7556993808,-1.13503
 21605,-1.3685692625\H,1.0549279016,2.1443035786,0.0406211467\O,2.48086
 20426,0.8748584241,0.7413355232\\Version=EM64L-G09RevE.01\State=2-A'\H
 F=-228.8293439\S2=0.771001\S2-1=0.\S2A=0.750236\RMSD=4.561e-09\RMSF=2.
 916e-05\ZeroPoint=0.0365925\Thermal=0.0415377\Dipole=-0.8844397,0.1223
 933,-0.3884345\DipoleDeriv=2.4755863,0.5739376,1.0006932,0.2396766,0.9
 292607,0.0421711,1.023994,0.1858123,0.4803208,1.6598532,0.7588055,0.63
 05526,0.6299058,0.1959427,0.2618641,0.6393271,0.3172536,0.3224968,-1.4
 371835,-0.4353461,-0.30206,-0.3262699,-0.6782454,-0.1392231,-0.3093963
 ,-0.1860138,-0.7840811,-1.5996809,-0.5964294,-0.4847989,-0.7340868,-0.
 6323841,-0.2974791,-0.4754719,-0.2385386,-0.5624024,0.1609871,-0.04512
 94,-0.0653936,-0.0679768,0.197007,-0.020602,-0.0637874,-0.0107462,0.29
 39052,-0.0524893,0.1276291,-0.0516441,0.0254781,-0.4864565,0.048006,-0
 .0445643,0.0918598,0.0215313,-2.2070729,-0.3834672,-0.7273492,0.233273
 ,-0.5251245,0.1052631,-0.7701012,-0.159627,-0.7717705\Polar=124.667034
 4,32.901821,69.1355192,31.0034264,12.6114257,59.6161562\PG=CS [SG(C4H2
 O1)]\NImag=2\\0.68340600,0.04745569,0.48422602,0.22439553,-0.00259240,
 0.24994529,-0.04908726,-0.01382717,-0.01250607,0.80133659,-0.02778906,
 -0.00949728,-0.01251061,0.33277068,0.20861938,-0.01153328,-0.00651267,
 -0.02224906,0.29069518,0.13337964,0.18643688,0.02915520,0.01500386,0.0
 1017670,-0.47658747,-0.20635656,-0.18146964,0.87418734,0.00975015,0.00
 958336,0.00373574,-0.20521995,-0.11559162,-0.08157169,0.39487012,0.193
 94643,0.01053762,0.00599304,0.00716312,-0.18154939,-0.08206018,-0.0930
 6711,0.34902841,0.15600665,0.13694847,-0.19376767,-0.15032822,-0.05963
 884,-0.29000081,-0.10986647,-0.10416596,-0.11469575,-0.04732278,-0.050
 97700,0.65972226,-0.11875549,-0.18575098,-0.04024240,-0.12807609,-0.08
 164770,-0.05141435,-0.04534297,-0.01143336,-0.01787842,0.34465346,0.28
 973225,-0.06183228,-0.05380643,-0.05345987,-0.10289466,-0.04359129,-0.
 07092673,-0.05112420,-0.01872977,-0.00904055,0.25038786,0.12940298,0.1
 1971021,-0.00038017,-0.00013167,-0.00077366,-0.00179820,0.00156100,0.0
 0431633,-0.29843391,-0.14668952,-0.12206148,0.00270138,-0.00087695,-0.
 00050142,0.29770952,-0.00010928,0.00014802,0.00004281,0.00584354,-0.00
 378885,0.00193293,-0.15096050,-0.07364975,-0.05907866,-0.00079043,0.00
 343599,-0.00029942,0.14603626,0.07414079,-0.00077546,0.00003346,0.0011
 0807,0.00401625,0.00009313,-0.01037951,-0.12176238,-0.05724335,-0.0389
 0149,-0.00050681,-0.00033736,0.00381265,0.11865795,0.05743662,0.044860
 67,-0.05250973,0.02115720,-0.00248693,-0.00177993,-0.00063231,-0.00236
 478,0.00072866,0.00105857,0.00030588,0.00798338,-0.01537005,-0.0001877
 9,0.00000333,-0.00016681,0.00015692,0.06730731,0.02555105,-0.20581254,
 0.02178659,0.00829629,0.00265648,0.00364469,-0.00613634,-0.00166547,-0
 .00253197,-0.01306755,-0.03333012,-0.00253767,0.00012298,-0.00015675,0
 .00003983,-0.04423432,0.24206167,-0.00279209,0.01990014,-0.05272349,-0
 .00298455,-0.00019033,0.00255836,0.00080505,0.00055943,0.00015120,-0.0
 0034800,-0.00352968,0.01100320,0.00013663,-0.00008402,-0.00027048,0.02
 490843,-0.03466940,0.02958360,-0.41681638,0.08067030,-0.15916672,0.017
 91708,0.01031272,0.00452215,-0.01435408,-0.00644659,-0.00528404,-0.071
 94279,-0.03623191,-0.03384751,0.00019805,0.00014721,0.00021353,-0.0217
 3301,0.02946788,-0.01972547,0.50673112,0.06389694,-0.09289661,0.029780
 27,0.00021270,-0.00075041,0.00054146,-0.00107761,-0.00118960,-0.000450
 46,-0.02327801,0.01899393,-0.01043839,-0.00002212,-0.00012945,-0.00002
 233,0.03818772,-0.00375327,0.01801386,-0.07791962,0.07972541,-0.158000
 03,0.03698486,-0.12978406,0.00522324,0.00487964,0.00762717,-0.00565394
 ,-0.00275699,-0.00325364,-0.03475125,-0.01600077,-0.00109891,0.0002256
 5,0.00004974,-0.00022992,-0.02033172,0.01426793,0.00969761,0.21328806,
 -0.03742442,0.11704175\\-0.00000332,-0.00009067,0.00000487,0.00001134,
 -0.00002271,0.00000645,-0.00002272,-0.00001235,-0.00000890,-0.00001167
 ,0.00008040,-0.00001060,0.00001138,0.00000313,0.00000467,0.00000996,0.
 00003286,0.00000200,0.00000503,0.00000934,0.00000151\\\@


 GROWING OLD ISN'T SO BAD -- WHEN YOU CONSIDER THE ALTERNATIVE.

                     -- MAURICE CHEVALIER
 Job cpu time:       0 days  0 hours 48 minutes 58.6 seconds.
 File lengths (MBytes):  RWF=     59 Int=      0 D2E=      0 Chk=      5 Scr=      1
 Normal termination of Gaussian 09 at Thu Mar  7 11:45:17 2019.
