 Entering Gaussian System, Link 0=/home/proyectos/fulerenos/M3C-v2.0/M3C-deps_CCC/g09-AM64L-G09RevC.01/g09
 Initial command:
 /home/proyectos/fulerenos/M3C-v2.0/M3C-deps_CCC/g09-AM64L-G09RevC.01/l1.exe "/scratch/naguirre/gaussian/Gau-31336.inp" -scrdir="/scratch/naguirre/gaussian/"
 Entering Link 1 = /home/proyectos/fulerenos/M3C-v2.0/M3C-deps_CCC/g09-AM64L-G09RevC.01/l1.exe PID=     31340.
  
 Copyright (c) 1988,1990,1992,1993,1995,1998,2003,2009,2015,
            Gaussian, Inc.  All Rights Reserved.
  
 This is part of the Gaussian(R) 09 program.  It is based on
 the Gaussian(R) 03 system (copyright 2003, Gaussian, Inc.),
 the Gaussian(R) 98 system (copyright 1998, Gaussian, Inc.),
 the Gaussian(R) 94 system (copyright 1995, Gaussian, Inc.),
 the Gaussian 92(TM) system (copyright 1992, Gaussian, Inc.),
 the Gaussian 90(TM) system (copyright 1990, Gaussian, Inc.),
 the Gaussian 88(TM) system (copyright 1988, Gaussian, Inc.),
 the Gaussian 86(TM) system (copyright 1986, Carnegie Mellon
 University), and the Gaussian 82(TM) system (copyright 1983,
 Carnegie Mellon University). Gaussian is a federally registered
 trademark of Gaussian, Inc.
  
 This software contains proprietary and confidential information,
 including trade secrets, belonging to Gaussian, Inc.
  
 This software is provided under written license and may be
 used, copied, transmitted, or stored only in accord with that
 written license.
  
 The following legend is applicable only to US Government
 contracts under FAR:
  
                    RESTRICTED RIGHTS LEGEND
  
 Use, reproduction and disclosure by the US Government is
 subject to restrictions as set forth in subparagraphs (a)
 and (c) of the Commercial Computer Software - Restricted
 Rights clause in FAR 52.227-19.
  
 Gaussian, Inc.
 340 Quinnipiac St., Bldg. 40, Wallingford CT 06492
  
  
 ---------------------------------------------------------------
 Warning -- This program may not be used in any manner that
 competes with the business of Gaussian, Inc. or will provide
 assistance to any competitor of Gaussian, Inc.  The licensee
 of this program is prohibited from giving any competitor of
 Gaussian, Inc. access to this program.  By using this program,
 the user acknowledges that Gaussian, Inc. is engaged in the
 business of creating and licensing software in the field of
 computational chemistry and represents and warrants to the
 licensee that it is not a competitor of Gaussian, Inc. and that
 it will not use this program in any manner prohibited above.
 ---------------------------------------------------------------
  

 Cite this work as:
 Gaussian 09, Revision E.01,
 M. J. Frisch, G. W. Trucks, H. B. Schlegel, G. E. Scuseria, 
 M. A. Robb, J. R. Cheeseman, G. Scalmani, V. Barone, B. Mennucci, 
 G. A. Petersson, H. Nakatsuji, M. Caricato, X. Li, H. P. Hratchian, 
 A. F. Izmaylov, J. Bloino, G. Zheng, J. L. Sonnenberg, M. Hada, 
 M. Ehara, K. Toyota, R. Fukuda, J. Hasegawa, M. Ishida, T. Nakajima, 
 Y. Honda, O. Kitao, H. Nakai, T. Vreven, J. A. Montgomery, Jr., 
 J. E. Peralta, F. Ogliaro, M. Bearpark, J. J. Heyd, E. Brothers, 
 K. N. Kudin, V. N. Staroverov, T. Keith, R. Kobayashi, J. Normand, 
 K. Raghavachari, A. Rendell, J. C. Burant, S. S. Iyengar, J. Tomasi, 
 M. Cossi, N. Rega, J. M. Millam, M. Klene, J. E. Knox, J. B. Cross, 
 V. Bakken, C. Adamo, J. Jaramillo, R. Gomperts, R. E. Stratmann, 
 O. Yazyev, A. J. Austin, R. Cammi, C. Pomelli, J. W. Ochterski, 
 R. L. Martin, K. Morokuma, V. G. Zakrzewski, G. A. Voth, 
 P. Salvador, J. J. Dannenberg, S. Dapprich, A. D. Daniels, 
 O. Farkas, J. B. Foresman, J. V. Ortiz, J. Cioslowski, 
 and D. J. Fox, Gaussian, Inc., Wallingford CT, 2013.
 
 ******************************************
 Gaussian 09:  EM64L-G09RevE.01 30-Nov-2015
                 7-Mar-2019 
 ******************************************
 %NProcShared=2
 Will use up to    2 processors via shared memory.
 ------------------------------------------------------
 #p b3lyp/6-311++G(3df,2p) freq IOp(2/17=3) IOp(2/18=3)
 ------------------------------------------------------
 1/10=4,30=1,38=1/1,3;
 2/12=2,17=3,18=3,40=1/2;
 3/5=4,6=6,7=1216,11=2,16=1,25=1,30=1,71=2,74=-5,140=1/1,2,3;
 4//1;
 5/5=2,38=5,98=1/2;
 8/6=4,10=90,11=11/1;
 11/6=1,8=1,9=11,15=111,16=1/1,2,10;
 10/6=1/2;
 6/7=2,8=2,9=2,10=2,18=1,28=1/1;
 7/8=1,10=1,25=1/1,2,3,16;
 1/10=4,30=1/3;
 99//99;
 Leave Link    1 at Thu Mar  7 13:30:42 2019, MaxMem=           0 cpu:         0.1
 (Enter /home/proyectos/fulerenos/M3C-v2.0/M3C-deps_CCC/g09-AM64L-G09RevC.01/l101.exe)
 ---------
 b3lyp opt
 ---------
 Symbolic Z-matrix:
 Charge = -1 Multiplicity = 4
 H                     0.6074    1.30759   0. 
 H                     1.49797  -1.02958   0. 
 O                     0.12424  -0.21342   0. 
 
 NAtoms=      3 NQM=        3 NQMF=       0 NMMI=      0 NMMIF=      0
                NMic=       0 NMicF=      0.
                    Isotopes and Nuclear Properties:
 (Nuclear quadrupole moments (NQMom) in fm**2, nuclear magnetic moments (NMagM)
  in nuclear magnetons)

  Atom         1           2           3
 IAtWgt=           1           1          16
 AtmWgt=   1.0078250   1.0078250  15.9949146
 NucSpn=           1           1           0
 AtZEff=   0.0000000   0.0000000   0.0000000
 NQMom=    0.0000000   0.0000000   0.0000000
 NMagM=    2.7928460   2.7928460   0.0000000
 AtZNuc=   1.0000000   1.0000000   8.0000000
 Leave Link  101 at Thu Mar  7 13:30:42 2019, MaxMem=    33554432 cpu:         0.3
 (Enter /home/proyectos/fulerenos/M3C-v2.0/M3C-deps_CCC/g09-AM64L-G09RevC.01/l103.exe)

 GradGradGradGradGradGradGradGradGradGradGradGradGradGradGradGradGradGrad
 Berny optimization.
 Initialization pass.
 Trust Radius=3.00D-01 FncErr=1.00D-07 GrdErr=1.00D-07
 Number of steps in this run=      2 maximum allowed number of steps=      2.
 GradGradGradGradGradGradGradGradGradGradGradGradGradGradGradGradGradGrad

 Leave Link  103 at Thu Mar  7 13:30:42 2019, MaxMem=    33554432 cpu:         0.1
 (Enter /home/proyectos/fulerenos/M3C-v2.0/M3C-deps_CCC/g09-AM64L-G09RevC.01/l202.exe)
                          Input orientation:                          
 ---------------------------------------------------------------------
 Center     Atomic      Atomic             Coordinates (Angstroms)
 Number     Number       Type             X           Y           Z
 ---------------------------------------------------------------------
      1          1           0        0.607400    1.307593    0.000000
      2          1           0        1.497972   -1.029585    0.000000
      3          8           0        0.124236   -0.213417    0.000000
 ---------------------------------------------------------------------
                    Distance matrix (angstroms):
                    1          2          3
     1  H    0.000000
     2  H    2.501104   0.000000
     3  O    1.595907   1.597899   0.000000
 Stoichiometry    H2O(1-,4)
 Framework group  CS[SG(H2O)]
 Deg. of freedom     3
 Full point group                 CS      NOp   2
 Largest Abelian subgroup         CS      NOp   2
 Largest concise Abelian subgroup C1      NOp   1
                         Standard orientation:                         
 ---------------------------------------------------------------------
 Center     Atomic      Atomic             Coordinates (Angstroms)
 Number     Number       Type             X           Y           Z
 ---------------------------------------------------------------------
      1          1           0        1.250551   -0.792867    0.000000
      2          1           0       -1.250551   -0.796070    0.000000
      3          8           0        0.000000    0.198617    0.000000
 ---------------------------------------------------------------------
 Rotational constants (GHZ):    286.2696388    160.3237122    102.7686845
 Leave Link  202 at Thu Mar  7 13:30:42 2019, MaxMem=    33554432 cpu:         0.0
 (Enter /home/proyectos/fulerenos/M3C-v2.0/M3C-deps_CCC/g09-AM64L-G09RevC.01/l301.exe)
 Standard basis: 6-311++G(3df,2p) (5D, 7F)
 Ernie: Thresh=  0.10000D-02 Tol=  0.10000D-05 Strict=F.
 There are    47 symmetry adapted cartesian basis functions of A'  symmetry.
 There are    18 symmetry adapted cartesian basis functions of A"  symmetry.
 There are    42 symmetry adapted basis functions of A'  symmetry.
 There are    17 symmetry adapted basis functions of A"  symmetry.
    59 basis functions,    82 primitive gaussians,    65 cartesian basis functions
     7 alpha electrons        4 beta electrons
       nuclear repulsion energy         5.5136147403 Hartrees.
 IExCor=  402 DFT=T Ex+Corr=B3LYP ExCW=0 ScaHFX=  0.200000
 ScaDFX=  0.800000  0.720000  1.000000  0.810000 ScalE2=  1.000000  1.000000
 IRadAn=      0 IRanWt=     -1 IRanGd=            0 ICorTp=0 IEmpDi=  4
 NAtoms=    3 NActive=    3 NUniq=    3 SFac= 1.00D+00 NAtFMM=   60 NAOKFM=F Big=F
 Integral buffers will be    131072 words long.
 Raffenetti 2 integral format.
 Two-electron integral symmetry is turned on.
 Leave Link  301 at Thu Mar  7 13:30:43 2019, MaxMem=    33554432 cpu:         0.3
 (Enter /home/proyectos/fulerenos/M3C-v2.0/M3C-deps_CCC/g09-AM64L-G09RevC.01/l302.exe)
 NPDir=0 NMtPBC=     1 NCelOv=     1 NCel=       1 NClECP=     1 NCelD=      1
         NCelK=      1 NCelE2=     1 NClLst=     1 CellRange=     0.0.
 One-electron integrals computed using PRISM.
 NBasis=    59 RedAO= T EigKep=  2.64D-02  NBF=    42    17
 NBsUse=    59 1.00D-06 EigRej= -1.00D+00 NBFU=    42    17
 Precomputing XC quadrature grid using
 IXCGrd= 4 IRadAn=           0 IRanWt=          -1 IRanGd=           0 AccXCQ= 0.00D+00.
 Generated NRdTot=       0 NPtTot=           0 NUsed=           0 NTot=          32
 NSgBfM=    65    65    65    65    65 MxSgAt=     3 MxSgA2=     3.
 Leave Link  302 at Thu Mar  7 13:30:43 2019, MaxMem=    33554432 cpu:         0.6
 (Enter /home/proyectos/fulerenos/M3C-v2.0/M3C-deps_CCC/g09-AM64L-G09RevC.01/l303.exe)
 DipDrv:  MaxL=1.
 Leave Link  303 at Thu Mar  7 13:30:43 2019, MaxMem=    33554432 cpu:         0.1
 (Enter /home/proyectos/fulerenos/M3C-v2.0/M3C-deps_CCC/g09-AM64L-G09RevC.01/l401.exe)
 ExpMin= 3.60D-02 ExpMax= 8.59D+03 ExpMxC= 1.30D+03 IAcc=3 IRadAn=         5 AccDes= 0.00D+00
 Harris functional with IExCor=  402 and IRadAn=       5 diagonalized for initial guess.
 HarFok:  IExCor=  402 AccDes= 0.00D+00 IRadAn=         5 IDoV= 1 UseB2=F ITyADJ=14
 ICtDFT=  3500011 ScaDFX=  1.000000  1.000000  1.000000  1.000000
 FoFCou: FMM=F IPFlag=           0 FMFlag=      100000 FMFlg1=           0
         NFxFlg=           0 DoJE=T BraDBF=F KetDBF=T FulRan=T
         wScrn=  0.000000 ICntrl=     500 IOpCl=  0 I1Cent=   200000004 NGrid=           0
         NMat0=    1 NMatS0=      1 NMatT0=    0 NMatD0=    1 NMtDS0=    0 NMtDT0=    0
 Petite list used in FoFCou.
 Harris En= -76.2502210330269    
 JPrj=0 DoOrth=F DoCkMO=F.
 Initial guess orbital symmetries:
 Alpha Orbitals:
       Occupied  (A') (A') (A') (A') (A") (A') (A')
       Virtual   (A') (A') (A') (A") (A') (A') (A') (A') (A') (A")
                 (A") (A') (A') (A') (A") (A") (A') (A') (A") (A')
                 (A') (A') (A') (A') (A') (A") (A") (A') (A') (A')
                 (A") (A') (A") (A') (A') (A') (A") (A') (A') (A")
                 (A') (A") (A") (A') (A') (A') (A") (A") (A') (A')
                 (A') (A')
 Beta  Orbitals:
       Occupied  (A') (A') (A') (A')
       Virtual   (A") (A') (A') (A') (A') (A') (A") (A') (A') (A')
                 (A') (A') (A") (A") (A') (A') (A') (A") (A") (A')
                 (A') (A") (A') (A') (A') (A') (A') (A') (A") (A")
                 (A') (A') (A') (A") (A') (A") (A') (A') (A') (A")
                 (A') (A') (A") (A') (A") (A") (A') (A') (A') (A")
                 (A") (A') (A') (A') (A')
 The electronic state of the initial guess is 4-A".
 Initial guess <Sx>= 0.0000 <Sy>= 0.0000 <Sz>= 1.5000 <S**2>= 3.7500 S= 1.5000
 Leave Link  401 at Thu Mar  7 13:30:44 2019, MaxMem=    33554432 cpu:         1.0
 (Enter /home/proyectos/fulerenos/M3C-v2.0/M3C-deps_CCC/g09-AM64L-G09RevC.01/l502.exe)
 UHF open shell SCF:
 Using DIIS extrapolation, IDIIS=  1040.
 Integral symmetry usage will be decided dynamically.
 Keep R1 and R2 ints in memory in symmetry-blocked form, NReq=3620185.
 IVT=       32116 IEndB=       32116 NGot=    33554432 MDV=    31891308
 LenX=    31891308 LenY=    31886642
 Requested convergence on RMS density matrix=1.00D-08 within 128 cycles.
 Requested convergence on MAX density matrix=1.00D-06.
 Requested convergence on             energy=1.00D-06.
 No special actions if energy rises.
 FoFCou: FMM=F IPFlag=           0 FMFlag=           0 FMFlg1=           0
         NFxFlg=           0 DoJE=F BraDBF=F KetDBF=F FulRan=T
         wScrn=  0.000000 ICntrl=     600 IOpCl=  0 I1Cent=           0 NGrid=           0
         NMat0=    1 NMatS0=   1770 NMatT0=    0 NMatD0=    1 NMtDS0=    0 NMtDT0=    0
 Petite list used in FoFCou.

 Cycle   1  Pass 1  IDiag  1:
 E= -76.1740501094468    
 DIIS: error= 3.16D-02 at cycle   1 NSaved=   1.
 NSaved= 1 IEnMin= 1 EnMin= -76.1740501094468     IErMin= 1 ErrMin= 3.16D-02
 ErrMax= 3.16D-02  0.00D+00 EMaxC= 1.00D-01 BMatC= 1.25D-01 BMatP= 1.25D-01
 IDIUse=3 WtCom= 6.84D-01 WtEn= 3.16D-01
 Coeff-Com:  0.100D+01
 Coeff-En:   0.100D+01
 Coeff:      0.100D+01
 Gap=     0.100 Goal=   None    Shift=    0.000
 Gap=     0.182 Goal=   None    Shift=    0.000
 GapD=    0.100 DampG=0.500 DampE=0.500 DampFc=0.2500 IDamp=-1.
 Damping current iteration by 2.50D-01
 RMSDP=1.93D-02 MaxDP=6.30D-01              OVMax= 3.39D-01

 Cycle   2  Pass 1  IDiag  1:
 E= -76.1847027428648     Delta-E=       -0.010652633418 Rises=F Damp=T
 DIIS: error= 1.42D-02 at cycle   2 NSaved=   2.
 NSaved= 2 IEnMin= 2 EnMin= -76.1847027428648     IErMin= 2 ErrMin= 1.42D-02
 ErrMax= 1.42D-02  0.00D+00 EMaxC= 1.00D-01 BMatC= 2.35D-02 BMatP= 1.25D-01
 IDIUse=3 WtCom= 8.58D-01 WtEn= 1.42D-01
 Coeff-Com: -0.305D+00 0.131D+01
 Coeff-En:   0.000D+00 0.100D+01
 Coeff:     -0.262D+00 0.126D+01
 Gap=     0.142 Goal=   None    Shift=    0.000
 Gap=     0.156 Goal=   None    Shift=    0.000
 RMSDP=5.35D-03 MaxDP=1.19D-01 DE=-1.07D-02 OVMax= 1.79D-01

 Cycle   3  Pass 1  IDiag  1:
 E= -76.2101927214154     Delta-E=       -0.025489978551 Rises=F Damp=F
 DIIS: error= 8.13D-03 at cycle   3 NSaved=   3.
 NSaved= 3 IEnMin= 3 EnMin= -76.2101927214154     IErMin= 3 ErrMin= 8.13D-03
 ErrMax= 8.13D-03  0.00D+00 EMaxC= 1.00D-01 BMatC= 6.12D-03 BMatP= 2.35D-02
 IDIUse=3 WtCom= 9.19D-01 WtEn= 8.13D-02
 Coeff-Com: -0.259D+00 0.446D+00 0.813D+00
 Coeff-En:   0.000D+00 0.000D+00 0.100D+01
 Coeff:     -0.238D+00 0.410D+00 0.828D+00
 Gap=     0.148 Goal=   None    Shift=    0.000
 Gap=     0.163 Goal=   None    Shift=    0.000
 RMSDP=1.03D-03 MaxDP=3.42D-02 DE=-2.55D-02 OVMax= 3.21D-02

 Cycle   4  Pass 1  IDiag  1:
 E= -76.2118896582831     Delta-E=       -0.001696936868 Rises=F Damp=F
 DIIS: error= 1.78D-03 at cycle   4 NSaved=   4.
 NSaved= 4 IEnMin= 4 EnMin= -76.2118896582831     IErMin= 4 ErrMin= 1.78D-03
 ErrMax= 1.78D-03  0.00D+00 EMaxC= 1.00D-01 BMatC= 3.76D-04 BMatP= 6.12D-03
 IDIUse=3 WtCom= 9.82D-01 WtEn= 1.78D-02
 Coeff-Com: -0.313D-01 0.698D-02 0.231D+00 0.794D+00
 Coeff-En:   0.000D+00 0.000D+00 0.000D+00 0.100D+01
 Coeff:     -0.308D-01 0.686D-02 0.227D+00 0.797D+00
 Gap=     0.146 Goal=   None    Shift=    0.000
 Gap=     0.163 Goal=   None    Shift=    0.000
 RMSDP=4.00D-04 MaxDP=1.36D-02 DE=-1.70D-03 OVMax= 8.09D-03

 Cycle   5  Pass 1  IDiag  1:
 E= -76.2120366590827     Delta-E=       -0.000147000800 Rises=F Damp=F
 DIIS: error= 4.49D-04 at cycle   5 NSaved=   5.
 NSaved= 5 IEnMin= 5 EnMin= -76.2120366590827     IErMin= 5 ErrMin= 4.49D-04
 ErrMax= 4.49D-04  0.00D+00 EMaxC= 1.00D-01 BMatC= 1.91D-05 BMatP= 3.76D-04
 IDIUse=3 WtCom= 9.96D-01 WtEn= 4.49D-03
 Coeff-Com:  0.183D-01-0.346D-01-0.165D-01 0.260D-01 0.101D+01
 Coeff-En:   0.000D+00 0.000D+00 0.000D+00 0.000D+00 0.100D+01
 Coeff:      0.182D-01-0.344D-01-0.165D-01 0.259D-01 0.101D+01
 Gap=     0.146 Goal=   None    Shift=    0.000
 Gap=     0.163 Goal=   None    Shift=    0.000
 RMSDP=5.66D-05 MaxDP=7.34D-04 DE=-1.47D-04 OVMax= 1.88D-03

 Cycle   6  Pass 1  IDiag  1:
 E= -76.2120458232087     Delta-E=       -0.000009164126 Rises=F Damp=F
 DIIS: error= 2.05D-04 at cycle   6 NSaved=   6.
 NSaved= 6 IEnMin= 6 EnMin= -76.2120458232087     IErMin= 6 ErrMin= 2.05D-04
 ErrMax= 2.05D-04  0.00D+00 EMaxC= 1.00D-01 BMatC= 4.33D-06 BMatP= 1.91D-05
 IDIUse=3 WtCom= 9.98D-01 WtEn= 2.05D-03
 Coeff-Com:  0.723D-02-0.489D-02-0.105D-01-0.741D-01-0.136D+00 0.122D+01
 Coeff-En:   0.000D+00 0.000D+00 0.000D+00 0.000D+00 0.000D+00 0.100D+01
 Coeff:      0.722D-02-0.488D-02-0.105D-01-0.740D-01-0.135D+00 0.122D+01
 Gap=     0.147 Goal=   None    Shift=    0.000
 Gap=     0.163 Goal=   None    Shift=    0.000
 RMSDP=4.52D-05 MaxDP=8.13D-04 DE=-9.16D-06 OVMax= 9.21D-04

 Cycle   7  Pass 1  IDiag  1:
 E= -76.2120476806255     Delta-E=       -0.000001857417 Rises=F Damp=F
 DIIS: error= 2.34D-05 at cycle   7 NSaved=   7.
 NSaved= 7 IEnMin= 7 EnMin= -76.2120476806255     IErMin= 7 ErrMin= 2.34D-05
 ErrMax= 2.34D-05  0.00D+00 EMaxC= 1.00D-01 BMatC= 1.08D-07 BMatP= 4.33D-06
 IDIUse=1 WtCom= 1.00D+00 WtEn= 0.00D+00
 Coeff-Com: -0.126D-02 0.172D-02 0.370D-02 0.180D-02-0.316D-01-0.146D+00
 Coeff-Com:  0.117D+01
 Coeff:     -0.126D-02 0.172D-02 0.370D-02 0.180D-02-0.316D-01-0.146D+00
 Coeff:      0.117D+01
 Gap=     0.147 Goal=   None    Shift=    0.000
 Gap=     0.162 Goal=   None    Shift=    0.000
 RMSDP=9.75D-06 MaxDP=1.93D-04 DE=-1.86D-06 OVMax= 2.00D-04

 Cycle   8  Pass 1  IDiag  1:
 E= -76.2120477433063     Delta-E=       -0.000000062681 Rises=F Damp=F
 DIIS: error= 2.91D-06 at cycle   8 NSaved=   8.
 NSaved= 8 IEnMin= 8 EnMin= -76.2120477433063     IErMin= 8 ErrMin= 2.91D-06
 ErrMax= 2.91D-06  0.00D+00 EMaxC= 1.00D-01 BMatC= 1.48D-09 BMatP= 1.08D-07
 IDIUse=1 WtCom= 1.00D+00 WtEn= 0.00D+00
 Coeff-Com:  0.968D-04-0.146D-03-0.162D-03 0.819D-03 0.737D-03-0.400D-02
 Coeff-Com: -0.107D+00 0.111D+01
 Coeff:      0.968D-04-0.146D-03-0.162D-03 0.819D-03 0.737D-03-0.400D-02
 Coeff:     -0.107D+00 0.111D+01
 Gap=     0.147 Goal=   None    Shift=    0.000
 Gap=     0.162 Goal=   None    Shift=    0.000
 RMSDP=1.19D-06 MaxDP=2.66D-05 DE=-6.27D-08 OVMax= 3.60D-05

 Cycle   9  Pass 1  IDiag  1:
 E= -76.2120477441839     Delta-E=       -0.000000000878 Rises=F Damp=F
 DIIS: error= 8.60D-07 at cycle   9 NSaved=   9.
 NSaved= 9 IEnMin= 9 EnMin= -76.2120477441839     IErMin= 9 ErrMin= 8.60D-07
 ErrMax= 8.60D-07  0.00D+00 EMaxC= 1.00D-01 BMatC= 9.81D-11 BMatP= 1.48D-09
 IDIUse=1 WtCom= 1.00D+00 WtEn= 0.00D+00
 Coeff-Com:  0.568D-04-0.810D-04-0.697D-04 0.179D-03 0.539D-03 0.135D-02
 Coeff-Com: -0.399D-01 0.187D+00 0.851D+00
 Coeff:      0.568D-04-0.810D-04-0.697D-04 0.179D-03 0.539D-03 0.135D-02
 Coeff:     -0.399D-01 0.187D+00 0.851D+00
 Gap=     0.147 Goal=   None    Shift=    0.000
 Gap=     0.162 Goal=   None    Shift=    0.000
 RMSDP=1.57D-07 MaxDP=4.92D-06 DE=-8.78D-10 OVMax= 3.97D-06

 Cycle  10  Pass 1  IDiag  1:
 E= -76.2120477442181     Delta-E=       -0.000000000034 Rises=F Damp=F
 DIIS: error= 2.43D-07 at cycle  10 NSaved=  10.
 NSaved=10 IEnMin=10 EnMin= -76.2120477442181     IErMin=10 ErrMin= 2.43D-07
 ErrMax= 2.43D-07  0.00D+00 EMaxC= 1.00D-01 BMatC= 6.91D-12 BMatP= 9.81D-11
 IDIUse=1 WtCom= 1.00D+00 WtEn= 0.00D+00
 Coeff-Com: -0.633D-05 0.102D-04 0.273D-04-0.973D-04-0.130D-03 0.893D-03
 Coeff-Com:  0.146D-01-0.172D+00 0.975D-01 0.106D+01
 Coeff:     -0.633D-05 0.102D-04 0.273D-04-0.973D-04-0.130D-03 0.893D-03
 Coeff:      0.146D-01-0.172D+00 0.975D-01 0.106D+01
 Gap=     0.147 Goal=   None    Shift=    0.000
 Gap=     0.162 Goal=   None    Shift=    0.000
 RMSDP=7.71D-08 MaxDP=2.88D-06 DE=-3.42D-11 OVMax= 2.40D-06

 Cycle  11  Pass 1  IDiag  1:
 E= -76.2120477442222     Delta-E=       -0.000000000004 Rises=F Damp=F
 DIIS: error= 1.03D-07 at cycle  11 NSaved=  11.
 NSaved=11 IEnMin=11 EnMin= -76.2120477442222     IErMin=11 ErrMin= 1.03D-07
 ErrMax= 1.03D-07  0.00D+00 EMaxC= 1.00D-01 BMatC= 1.45D-12 BMatP= 6.91D-12
 IDIUse=1 WtCom= 1.00D+00 WtEn= 0.00D+00
 Coeff-Com: -0.419D-05 0.634D-05-0.370D-05-0.184D-04-0.186D-04 0.291D-03
 Coeff-Com:  0.113D-02-0.766D-02-0.428D-01 0.226D-02 0.105D+01
 Coeff:     -0.419D-05 0.634D-05-0.370D-05-0.184D-04-0.186D-04 0.291D-03
 Coeff:      0.113D-02-0.766D-02-0.428D-01 0.226D-02 0.105D+01
 Gap=     0.147 Goal=   None    Shift=    0.000
 Gap=     0.162 Goal=   None    Shift=    0.000
 RMSDP=2.21D-08 MaxDP=4.52D-07 DE=-4.06D-12 OVMax= 4.76D-07

 Cycle  12  Pass 1  IDiag  1:
 E= -76.2120477442225     Delta-E=       -0.000000000000 Rises=F Damp=F
 DIIS: error= 7.16D-09 at cycle  12 NSaved=  12.
 NSaved=12 IEnMin=12 EnMin= -76.2120477442225     IErMin=12 ErrMin= 7.16D-09
 ErrMax= 7.16D-09  0.00D+00 EMaxC= 1.00D-01 BMatC= 5.38D-15 BMatP= 1.45D-12
 IDIUse=1 WtCom= 1.00D+00 WtEn= 0.00D+00
 Coeff-Com:  0.227D-07-0.526D-07 0.729D-06 0.558D-06-0.185D-05-0.562D-04
 Coeff-Com: -0.177D-03 0.278D-02 0.233D-02-0.216D-01-0.114D+00 0.113D+01
 Coeff:      0.227D-07-0.526D-07 0.729D-06 0.558D-06-0.185D-05-0.562D-04
 Coeff:     -0.177D-03 0.278D-02 0.233D-02-0.216D-01-0.114D+00 0.113D+01
 Gap=     0.147 Goal=   None    Shift=    0.000
 Gap=     0.162 Goal=   None    Shift=    0.000
 RMSDP=2.36D-09 MaxDP=9.07D-08 DE=-3.41D-13 OVMax= 5.40D-08

 SCF Done:  E(UB3LYP) =  -76.2120477442     A.U. after   12 cycles
            NFock= 12  Conv=0.24D-08     -V/T= 2.0029
 <Sx>= 0.0000 <Sy>= 0.0000 <Sz>= 1.5000 <S**2>= 3.7588 S= 1.5022
 <L.S>= 0.000000000000E+00
 KE= 7.599361714950D+01 PE=-1.941294291533D+02 EE= 3.641014951935D+01
 Annihilation of the first spin contaminant:
 S**2 before annihilation     3.7588,   after     3.7500
 Leave Link  502 at Thu Mar  7 13:30:47 2019, MaxMem=    33554432 cpu:         5.4
 (Enter /home/proyectos/fulerenos/M3C-v2.0/M3C-deps_CCC/g09-AM64L-G09RevC.01/l801.exe)
 DoSCS=F DFT=T ScalE2(SS,OS)=  1.000000  1.000000
 Range of M.O.s used for correlation:     1    59
 NBasis=    59 NAE=     7 NBE=     4 NFC=     0 NFV=     0
 NROrb=     59 NOA=     7 NOB=     4 NVA=    52 NVB=    55
 Leave Link  801 at Thu Mar  7 13:30:47 2019, MaxMem=    33554432 cpu:         0.1
 (Enter /home/proyectos/fulerenos/M3C-v2.0/M3C-deps_CCC/g09-AM64L-G09RevC.01/l1101.exe)
 Using compressed storage, NAtomX=     3.
 Will process      4 centers per pass.
 Leave Link 1101 at Thu Mar  7 13:30:47 2019, MaxMem=    33554432 cpu:         0.6
 (Enter /home/proyectos/fulerenos/M3C-v2.0/M3C-deps_CCC/g09-AM64L-G09RevC.01/l1102.exe)
 Symmetrizing basis deriv contribution to polar:
 IMax=3 JMax=2 DiffMx= 0.00D+00
 Leave Link 1102 at Thu Mar  7 13:30:47 2019, MaxMem=    33554432 cpu:         0.1
 (Enter /home/proyectos/fulerenos/M3C-v2.0/M3C-deps_CCC/g09-AM64L-G09RevC.01/l1110.exe)
 Forming Gx(P) for the SCF density, NAtomX=     3.
 Integral derivatives from FoFJK, PRISM(SPDF).
 Do as many integral derivatives as possible in FoFJK.
 G2DrvN: MDV=      33554304.
 G2DrvN: will do     4 centers at a time, making    1 passes.
 Calling FoFCou, ICntrl=  3107 FMM=F I1Cent=   0 AccDes= 0.00D+00.
 FoFJK:  IHMeth= 1 ICntrl=    3107 DoSepK=F KAlg= 0 I1Cent=   0 FoldK=F
 IRaf=         0 NMat=   1 IRICut=       1 DoRegI=T DoRafI=F ISym2E= 1.
 FoFCou: FMM=F IPFlag=           0 FMFlag=      100000 FMFlg1=           0
         NFxFlg=           0 DoJE=F BraDBF=F KetDBF=F FulRan=T
         wScrn=  0.000000 ICntrl=    3107 IOpCl=  1 I1Cent=           0 NGrid=           0
         NMat0=    1 NMatS0=      1 NMatT0=    0 NMatD0=    1 NMtDS0=    0 NMtDT0=    0
 Petite list used in FoFCou.
 End of G2Drv F.D. properties file   721 does not exist.
 End of G2Drv F.D. properties file   722 does not exist.
 End of G2Drv F.D. properties file   788 does not exist.
 Leave Link 1110 at Thu Mar  7 13:30:50 2019, MaxMem=    33554432 cpu:         5.4
 (Enter /home/proyectos/fulerenos/M3C-v2.0/M3C-deps_CCC/g09-AM64L-G09RevC.01/l1002.exe)
 Minotr:  UHF open shell wavefunction.
          IDoAtm=111
          Direct CPHF calculation.
          Differentiating once with respect to electric field.
                with respect to dipole field.
          Differentiating once with respect to nuclear coordinates.
          Using symmetry in CPHF.
          Requested convergence is 1.0D-08 RMS, and 1.0D-07 maximum.
          Secondary convergence is 1.0D-12 RMS, and 1.0D-12 maximum.
          NewPWx=T KeepS1=F KeepF1=F KeepIn=T MapXYZ=F SortEE=F KeepMc=T.
          MDV=      33554280 using IRadAn=       2.
 Generate precomputed XC quadrature information.
 Keep R1 and R2 ints in memory in symmetry-blocked form, NReq=3598222.
 FoFCou: FMM=F IPFlag=           0 FMFlag=           0 FMFlg1=           0
         NFxFlg=           0 DoJE=F BraDBF=F KetDBF=F FulRan=T
         wScrn=  0.000000 ICntrl=     600 IOpCl=  0 I1Cent=           0 NGrid=           0
         NMat0=    1 NMatS0=   1770 NMatT0=    0 NMatD0=    1 NMtDS0=    0 NMtDT0=    0
 Petite list used in FoFCou.
          Solving linear equations simultaneously, MaxMat=       0.
          There are    12 degrees of freedom in the 1st order CPHF.  IDoFFX=6 NUNeed=     3.
      9 vectors produced by pass  0 Test12= 4.87D-15 8.33D-09 XBig12= 1.00D+02 4.78D+00.
 AX will form     9 AO Fock derivatives at one time.
      9 vectors produced by pass  1 Test12= 4.87D-15 8.33D-09 XBig12= 2.27D+01 2.13D+00.
      9 vectors produced by pass  2 Test12= 4.87D-15 8.33D-09 XBig12= 4.04D+00 5.89D-01.
      9 vectors produced by pass  3 Test12= 4.87D-15 8.33D-09 XBig12= 2.07D-01 1.21D-01.
      9 vectors produced by pass  4 Test12= 4.87D-15 8.33D-09 XBig12= 2.14D-03 1.48D-02.
      9 vectors produced by pass  5 Test12= 4.87D-15 8.33D-09 XBig12= 8.44D-06 8.70D-04.
      7 vectors produced by pass  6 Test12= 4.87D-15 8.33D-09 XBig12= 4.07D-08 6.54D-05.
      4 vectors produced by pass  7 Test12= 4.87D-15 8.33D-09 XBig12= 2.01D-10 4.25D-06.
      2 vectors produced by pass  8 Test12= 4.87D-15 8.33D-09 XBig12= 7.70D-13 3.32D-07.
      1 vectors produced by pass  9 Test12= 4.87D-15 8.33D-09 XBig12= 3.05D-15 1.65D-08.
 InvSVY:  IOpt=1 It=  1 EMax= 2.22D-16
 Solved reduced A of dimension    68 with     9 vectors.
 FullF1:  Do perturbations    1 to     3.
 Isotropic polarizability for W=    0.000000       40.43 Bohr**3.
 End of Minotr F.D. properties file   721 does not exist.
 End of Minotr F.D. properties file   722 does not exist.
 End of Minotr F.D. properties file   788 does not exist.
 Leave Link 1002 at Thu Mar  7 13:30:56 2019, MaxMem=    33554432 cpu:        12.9
 (Enter /home/proyectos/fulerenos/M3C-v2.0/M3C-deps_CCC/g09-AM64L-G09RevC.01/l601.exe)
 Copying SCF densities to generalized density rwf, IOpCl= 1 IROHF=0.

 **********************************************************************

            Population analysis using the SCF density.

 **********************************************************************

 Orbital symmetries:
 Alpha Orbitals:
       Occupied  (A') (A') (A') (A") (A') (A') (A')
       Virtual   (A') (A') (A') (A") (A') (A') (A') (A') (A') (A")
                 (A") (A') (A') (A') (A") (A") (A') (A') (A") (A')
                 (A') (A') (A') (A') (A') (A") (A") (A') (A') (A')
                 (A") (A') (A") (A') (A') (A') (A") (A') (A') (A")
                 (A") (A') (A") (A') (A') (A') (A") (A") (A') (A')
                 (A') (A')
 Beta  Orbitals:
       Occupied  (A') (A') (A') (A')
       Virtual   (A") (A') (A') (A') (A') (A') (A") (A') (A') (A')
                 (A') (A') (A") (A") (A') (A') (A') (A") (A") (A')
                 (A') (A") (A') (A') (A') (A') (A') (A') (A") (A")
                 (A') (A') (A') (A") (A') (A") (A') (A') (A') (A")
                 (A') (A') (A") (A') (A") (A') (A") (A') (A') (A")
                 (A') (A") (A') (A') (A')
 The electronic state is 4-A".
 Alpha  occ. eigenvalues --  -18.96401  -0.73155  -0.18853  -0.17812  -0.16218
 Alpha  occ. eigenvalues --    0.00706   0.04310
 Alpha virt. eigenvalues --    0.18962   0.19258   0.30739   0.31395   0.37158
 Alpha virt. eigenvalues --    0.40597   0.58142   0.58289   0.76221   0.76285
 Alpha virt. eigenvalues --    0.81457   0.92929   1.02375   1.10012   1.10948
 Alpha virt. eigenvalues --    1.15529   1.17353   1.19616   1.21161   1.26020
 Alpha virt. eigenvalues --    1.33237   1.75687   1.84239   2.72594   2.81360
 Alpha virt. eigenvalues --    3.53751   3.54709   3.56077   3.63428   3.72190
 Alpha virt. eigenvalues --    3.97169   3.98797   4.00957   4.03287   4.17661
 Alpha virt. eigenvalues --    4.19480   5.06181   5.13997   5.17962   5.20205
 Alpha virt. eigenvalues --    5.20947   5.20975   5.23464   5.25252   5.47719
 Alpha virt. eigenvalues --    5.50139  14.39586  14.39842  14.40686  14.46657
 Alpha virt. eigenvalues --   14.55258  49.98565
  Beta  occ. eigenvalues --  -18.92156  -0.61453  -0.10641  -0.09222
  Beta virt. eigenvalues --    0.07026   0.11892   0.15435   0.23240   0.23724
  Beta virt. eigenvalues --    0.31775   0.34549   0.38476   0.42433   0.62306
  Beta virt. eigenvalues --    0.62672   0.78809   0.79961   0.84949   0.97513
  Beta virt. eigenvalues --    1.07155   1.14054   1.16268   1.19942   1.21595
  Beta virt. eigenvalues --    1.23458   1.28838   1.29632   1.37111   1.80211
  Beta virt. eigenvalues --    1.90406   2.81518   2.90063   3.63843   3.65429
  Beta virt. eigenvalues --    3.67656   3.69999   3.77758   4.05773   4.07340
  Beta virt. eigenvalues --    4.09546   4.11745   4.25236   4.27113   5.18805
  Beta virt. eigenvalues --    5.18966   5.23955   5.27507   5.28857   5.30311
  Beta virt. eigenvalues --    5.30548   5.31061   5.52929   5.58043  14.52905
  Beta virt. eigenvalues --   14.53942  14.54209  14.57913  14.62724  50.02881
          Condensed to atoms (all electrons):
               1          2          3
     1  H    2.078494  -0.256357  -0.394604
     2  H   -0.256357   2.073369  -0.391453
     3  O   -0.394604  -0.391453   8.932965
          Atomic-Atomic Spin Densities.
               1          2          3
     1  H    1.795168  -0.246515  -0.580428
     2  H   -0.246515   1.790521  -0.576992
     3  O   -0.580428  -0.576992   2.222180
 Mulliken charges and spin densities:
               1          2
     1  H   -0.427533   0.968225
     2  H   -0.425558   0.967014
     3  O   -0.146909   1.064761
 Sum of Mulliken charges =  -1.00000   3.00000
 Mulliken charges and spin densities with hydrogens summed into heavy atoms:
               1          2
     3  O   -1.000000   3.000000
 APT charges:
               1
     1  H   -0.001934
     2  H   -0.002626
     3  O   -0.995440
 Sum of APT charges =  -1.00000
 APT charges with hydrogens summed into heavy atoms:
               1
     3  O   -1.000000
 Electronic spatial extent (au):  <R**2>=             57.0839
 Charge=             -1.0000 electrons
 Dipole moment (field-independent basis, Debye):
    X=             -0.0115    Y=              2.9144    Z=              0.0000  Tot=              2.9145
 Quadrupole moment (field-independent basis, Debye-Ang):
   XX=            -24.0487   YY=            -17.6870   ZZ=            -12.4416
   XY=              0.0020   XZ=              0.0000   YZ=              0.0000
 Traceless Quadrupole moment (field-independent basis, Debye-Ang):
   XX=             -5.9896   YY=              0.3721   ZZ=              5.6175
   XY=              0.0020   XZ=              0.0000   YZ=              0.0000
 Octapole moment (field-independent basis, Debye-Ang**2):
  XXX=             -0.1201  YYY=             18.9110  ZZZ=              0.0000  XYY=             -0.0170
  XXY=             15.7571  XXZ=              0.0000  XZZ=             -0.0278  YZZ=              5.3660
  YYZ=              0.0000  XYZ=             -0.0000
 Hexadecapole moment (field-independent basis, Debye-Ang**3):
 XXXX=           -161.5009 YYYY=            -73.4886 ZZZZ=            -29.0201 XXXY=              0.0233
 XXXZ=              0.0000 YYYX=             -0.0034 YYYZ=              0.0000 ZZZX=              0.0000
 ZZZY=              0.0000 XXYY=            -44.2966 XXZZ=            -27.9688 YYZZ=            -16.5178
 XXYZ=              0.0000 YYXZ=             -0.0000 ZZXY=              0.0062
 N-N= 5.513614740258D+00 E-N=-1.941294291517D+02  KE= 7.599361714950D+01
 Symmetry A'   KE= 7.349458585189D+01
 Symmetry A"   KE= 2.499031297605D+00
  Exact polarizability:  72.891   0.029  33.283  -0.000   0.000  15.107
 Approx polarizability:  50.439   0.007  36.593  -0.000  -0.000  17.041
                          Isotropic Fermi Contact Couplings
        Atom                 a.u.       MegaHertz       Gauss      10(-4) cm-1
     1  H(1)               0.15441     230.06005      82.09114      76.73977
     2  H(1)               0.15504     230.99773      82.42573      77.05255
     3  O(17)              0.48760     -98.52722     -35.15696     -32.86514
 --------------------------------------------------------
       Center         ----  Spin Dipole Couplings  ----
                      3XX-RR        3YY-RR        3ZZ-RR
 --------------------------------------------------------
     1   Atom        0.038740     -0.000431     -0.038308
     2   Atom        0.038392     -0.000249     -0.038144
     3   Atom       -0.909899     -1.658317      2.568216
 --------------------------------------------------------
                        XY            XZ            YZ
 --------------------------------------------------------
     1   Atom       -0.058698      0.000000      0.000000
     2   Atom        0.058483      0.000000      0.000000
     3   Atom        0.000959      0.000000      0.000000
 --------------------------------------------------------


 ---------------------------------------------------------------------------------
              Anisotropic Spin Dipole Couplings in Principal Axis System
 ---------------------------------------------------------------------------------

       Atom             a.u.   MegaHertz   Gauss  10(-4) cm-1        Axes

              Baa    -0.0427   -22.796    -8.134    -7.604  0.5846  0.8113  0.0000
     1 H(1)   Bbb    -0.0383   -20.440    -7.293    -6.818  0.0000  0.0000  1.0000
              Bcc     0.0810    43.235    15.427    14.422  0.8113 -0.5846 -0.0000
 
              Baa    -0.0425   -22.687    -8.095    -7.568 -0.5858  0.8105 -0.0000
     2 H(1)   Bbb    -0.0381   -20.352    -7.262    -6.789  0.0000  0.0000  1.0000
              Bcc     0.0807    43.039    15.357    14.356  0.8105  0.5858  0.0000
 
              Baa    -1.6583   119.995    42.817    40.026 -0.0013  1.0000  0.0000
     3 O(17)  Bbb    -0.9099    65.840    23.493    21.962  1.0000  0.0013  0.0000
              Bcc     2.5682  -185.834   -66.310   -61.988  0.0000  0.0000  1.0000
 

 ---------------------------------------------------------------------------------

 No NMR shielding tensors so no spin-rotation constants.
 Leave Link  601 at Thu Mar  7 13:30:57 2019, MaxMem=    33554432 cpu:         1.1
 (Enter /home/proyectos/fulerenos/M3C-v2.0/M3C-deps_CCC/g09-AM64L-G09RevC.01/l701.exe)
 Compute integral second derivatives.
 ... and contract with generalized density number  0.
 Leave Link  701 at Thu Mar  7 13:30:58 2019, MaxMem=    33554432 cpu:         1.7
 (Enter /home/proyectos/fulerenos/M3C-v2.0/M3C-deps_CCC/g09-AM64L-G09RevC.01/l702.exe)
 L702 exits ... SP integral derivatives will be done elsewhere.
 Leave Link  702 at Thu Mar  7 13:30:58 2019, MaxMem=    33554432 cpu:         0.2
 (Enter /home/proyectos/fulerenos/M3C-v2.0/M3C-deps_CCC/g09-AM64L-G09RevC.01/l703.exe)
 Compute integral second derivatives, UseDBF=F ICtDFT=           0.
 Integral derivatives from FoFJK, PRISM(SPDF).
 Calling FoFJK, ICntrl=    100127 FMM=F ISym2X=1 I1Cent= 0 IOpClX= 1 NMat=1 NMatS=1 NMatT=0.
 FoFJK:  IHMeth= 1 ICntrl=  100127 DoSepK=F KAlg= 0 I1Cent=   0 FoldK=F
 IRaf=         0 NMat=   1 IRICut=       1 DoRegI=T DoRafI=F ISym2E= 1.
 FoFCou: FMM=F IPFlag=           0 FMFlag=      100000 FMFlg1=         800
         NFxFlg=           0 DoJE=F BraDBF=F KetDBF=F FulRan=T
         wScrn=  0.000000 ICntrl=  100127 IOpCl=  1 I1Cent=           0 NGrid=           0
         NMat0=    1 NMatS0=      1 NMatT0=    0 NMatD0=    1 NMtDS0=    0 NMtDT0=    0
 Petite list used in FoFCou.
 Leave Link  703 at Thu Mar  7 13:31:07 2019, MaxMem=    33554432 cpu:        18.4
 (Enter /home/proyectos/fulerenos/M3C-v2.0/M3C-deps_CCC/g09-AM64L-G09RevC.01/l716.exe)
 Dipole        =-4.51167266D-03 1.14662544D+00 1.59448719D-34
 Polarizability= 7.28911659D+01 2.92119748D-02 3.32831031D+01
                -3.19043911D-08 6.90943243D-08 1.51072877D+01
 Full mass-weighted force constant matrix:
 Low frequencies --- -564.8722  -31.2129  -24.7346   -0.0006    0.0010    0.0010
 Low frequencies ---    9.5896  439.9450  512.2728
 ******    1 imaginary frequencies (negative Signs) ****** 
 Diagonal vibrational polarizability:
      146.3670880      24.6627118       0.0000000
 Harmonic frequencies (cm**-1), IR intensities (KM/Mole), Raman scattering
 activities (A**4/AMU), depolarization ratios for plane and unpolarized
 incident light, reduced masses (AMU), force constants (mDyne/A),
 and normal coordinates:
                      1                      2                      3
                     A'                     A'                     A'
 Frequencies --   -564.8715               439.9448               512.2728
 Red. masses --      1.0804                 1.1030                 1.0269
 Frc consts  --      0.2031                 0.1258                 0.1588
 IR Inten    --   1735.4127                85.1475               125.0740
  Atom  AN      X      Y      Z        X      Y      Z        X      Y      Z
     1   1     0.56  -0.44   0.00     0.31   0.63   0.00    -0.64   0.28  -0.00
     2   1     0.55   0.44   0.00    -0.31   0.63   0.00     0.65   0.29  -0.00
     3   8    -0.07   0.00   0.00    -0.00  -0.08   0.00    -0.00  -0.04  -0.00

 -------------------
 - Thermochemistry -
 -------------------
 Temperature   298.150 Kelvin.  Pressure   1.00000 Atm.
 Atom     1 has atomic number  1 and mass   1.00783
 Atom     2 has atomic number  1 and mass   1.00783
 Atom     3 has atomic number  8 and mass  15.99491
 Molecular mass:    18.01056 amu.
 Principal axes and moments of inertia in atomic units:
                           1         2         3
     Eigenvalues --     6.30434  11.25686  17.56120
           X            1.00000  -0.00291   0.00000
           Y            0.00291   1.00000   0.00000
           Z            0.00000   0.00000   1.00000
 This molecule is an asymmetric top.
 Rotational symmetry number  1.
 Rotational temperatures (Kelvin)     13.73876     7.69432     4.93211
 Rotational constants (GHZ):         286.26964   160.32371   102.76868
    1 imaginary frequencies ignored.
 Zero-point vibrational energy       5695.5 (Joules/Mol)
                                    1.36126 (Kcal/Mol)
 Warning -- explicit consideration of   2 degrees of freedom as
           vibrations may cause significant error
 Vibrational temperatures:    632.98   737.05
          (Kelvin)
 
 Zero-point correction=                           0.002169 (Hartree/Particle)
 Thermal correction to Energy=                    0.005490
 Thermal correction to Enthalpy=                  0.006434
 Thermal correction to Gibbs Free Energy=        -0.019082
 Sum of electronic and zero-point Energies=            -76.209878
 Sum of electronic and thermal Energies=               -76.206558
 Sum of electronic and thermal Enthalpies=             -76.205614
 Sum of electronic and thermal Free Energies=          -76.231130
 
                     E (Thermal)             CV                S
                      KCal/Mol        Cal/Mol-Kelvin    Cal/Mol-Kelvin
 Total                    3.445              8.567             53.703
 Electronic               0.000              0.000              2.755
 Translational            0.889              2.981             34.608
 Rotational               0.889              2.981             14.885
 Vibrational              1.667              2.606              1.455
 Vibration     1          0.800              1.383              0.827
 Vibration     2          0.867              1.223              0.628
                       Q            Log10(Q)             Ln(Q)
 Total Bot       0.598824D+09          8.777299         20.210479
 Total V=0       0.595814D+10          9.775111         22.508025
 Vib (Bot)       0.124693D+00         -0.904159         -2.081902
 Vib (Bot)    1  0.392956D+00         -0.405657         -0.934059
 Vib (Bot)    2  0.317320D+00         -0.498502         -1.147844
 Vib (V=0)       0.124066D+01          0.093653          0.215644
 Vib (V=0)    1  0.113594D+01          0.055354          0.127457
 Vib (V=0)    2  0.109219D+01          0.038299          0.088187
 Electronic      0.400000D+01          0.602060          1.386294
 Translational   0.300432D+07          6.477746         14.915562
 Rotational      0.399624D+03          2.601652          5.990525
 
                                                              b3lyp opt
                                                             IR Spectrum
 
                                                                                                                                     
      5                4                                                                                                             
      1                4                                                                                                             
      2                0                                                                                                             
 
      X                X                                                                                                             
      X                X                                                                                                             
      X                X                                                                                                             
      X                X                                                                                                             
      X                X                                                                                                             
      X                X                                                                                                             
      X                X                                                                                                             
      X                X                                                                                                             
      X                X                                                                                                             
      X                X                                                                                                             
      X                X                                                                                                             
      X                X                                                                                                             
      X                X                                                                                                             
      X                X                                                                                                             
      X                                                                                                                              
      X                                                                                                                              
      X                                                                                                                              
      X                                                                                                                              
      X                                                                                                                              
      X                                                                                                                              
 
 ***** Axes restored to original set *****
 -------------------------------------------------------------------
 Center     Atomic                   Forces (Hartrees/Bohr)
 Number     Number              X              Y              Z
 -------------------------------------------------------------------
      1        1          -0.000007387   -0.000014025   -0.000000000
      2        1           0.000021605   -0.000016180   -0.000000000
      3        8          -0.000014218    0.000030204    0.000000000
 -------------------------------------------------------------------
 Cartesian Forces:  Max     0.000030204 RMS     0.000015254
 Z-matrix is all fixed cartesians, so copy forces.
 Force constants in Cartesian coordinates: 
                1             2             3             4             5 
      1  0.281670D-02
      2 -0.174813D-02 -0.351603D-03
      3  0.000000D+00  0.000000D+00 -0.220294D-04
      4  0.390097D-02  0.784000D-02  0.000000D+00 -0.889524D-04
      5  0.139835D-02 -0.648559D-02  0.000000D+00  0.163147D-02  0.284518D-02
      6  0.000000D+00  0.000000D+00  0.117708D-05  0.000000D+00  0.000000D+00
      7 -0.671767D-02 -0.609187D-02  0.000000D+00 -0.381202D-02 -0.302982D-02
      8  0.349782D-03  0.683719D-02  0.000000D+00 -0.947147D-02  0.364041D-02
      9  0.000000D+00  0.000000D+00  0.208524D-04  0.000000D+00  0.000000D+00
                6             7             8             9 
      6 -0.350158D-04
      7  0.000000D+00  0.105297D-01
      8  0.000000D+00  0.912169D-02 -0.104776D-01
      9  0.338387D-04  0.000000D+00  0.000000D+00 -0.546910D-04
 Leave Link  716 at Thu Mar  7 13:31:08 2019, MaxMem=    33554432 cpu:         0.2
 (Enter /home/proyectos/fulerenos/M3C-v2.0/M3C-deps_CCC/g09-AM64L-G09RevC.01/l103.exe)

 GradGradGradGradGradGradGradGradGradGradGradGradGradGradGradGradGradGrad
 Berny optimization.
 Search for a local minimum.
 Step number   1 out of a maximum of    2
 All quantities printed in internal units (Hartrees-Bohrs-Radians)
 Second derivative matrix not updated -- analytic derivatives used.
 The second derivative matrix:
                          X1        Y1        Z1        X2        Y2
           X1           0.00282
           Y1          -0.00175  -0.00035
           Z1           0.00000  -0.00000  -0.00002
           X2           0.00390   0.00784   0.00000  -0.00009
           Y2           0.00140  -0.00649  -0.00000   0.00163   0.00285
           Z2           0.00000  -0.00000   0.00000   0.00000   0.00000
           X3          -0.00672  -0.00609  -0.00000  -0.00381  -0.00303
           Y3           0.00035   0.00684   0.00000  -0.00947   0.00364
           Z3          -0.00000   0.00000   0.00002  -0.00000   0.00000
                          Z2        X3        Y3        Z3
           Z2          -0.00004
           X3          -0.00000   0.01053
           Y3          -0.00000   0.00912  -0.01048
           Z3           0.00003   0.00000  -0.00000  -0.00005
 ITU=  0
     Eigenvalues ---   -0.02014   0.00925   0.01654
 Eigenvalue     1 is  -2.01D-02 should be greater than     0.000000 Eigenvector:
                          Y1        X2        Y3        Y2        X1
   1                    0.63212  -0.56151  -0.34164   0.33417   0.20131
                          X3        Z1        Z2        Z3
   1                    0.12735   0.00000   0.00000  -0.00000
 Angle between quadratic step and forces=  28.65 degrees.
 ClnCor:  largest displacement from symmetrization is 3.07D-19 for atom     2.
 Linear search not attempted -- first point.
 ClnCor:  largest displacement from symmetrization is 4.44D-16 for atom     1.
 B after Tr=    -0.000185    0.000577   -0.000000
         Rot=    1.000000   -0.000000    0.000000    0.000061 Ang=   0.01 deg.
 Variable       Old X    -DE/DX   Delta X   Delta X   Delta X     New X
                                 (Linear)    (Quad)   (Total)
    X1        1.14782  -0.00001   0.00000  -0.00057  -0.00045   1.14737
    Y1        2.47099  -0.00001   0.00000  -0.00063  -0.00019   2.47080
    Z1        0.00000  -0.00000   0.00000  -0.00000  -0.00000   0.00000
    X2        2.83076   0.00002   0.00000   0.00141   0.00099   2.83174
    Y2       -1.94563  -0.00002   0.00000  -0.00125  -0.00102  -1.94665
    Z2       -0.00000  -0.00000   0.00000  -0.00000   0.00000  -0.00000
    X3        0.23477  -0.00001   0.00000  -0.00030  -0.00053   0.23424
    Y3       -0.40330   0.00003   0.00000   0.00066   0.00121  -0.40209
    Z3        0.00000   0.00000   0.00000   0.00000  -0.00000  -0.00000
         Item               Value     Threshold  Converged?
 Maximum Force            0.000030     0.000450     YES
 RMS     Force            0.000015     0.000300     YES
 Maximum Displacement     0.001213     0.001800     YES
 RMS     Displacement     0.000667     0.001200     YES
 Predicted change in Energy=-1.235695D-07
 Optimization completed.
    -- Stationary point found.
 GradGradGradGradGradGradGradGradGradGradGradGradGradGradGradGradGradGrad

 Leave Link  103 at Thu Mar  7 13:31:08 2019, MaxMem=    33554432 cpu:         0.1
 (Enter /home/proyectos/fulerenos/M3C-v2.0/M3C-deps_CCC/g09-AM64L-G09RevC.01/l9999.exe)

 Test job not archived.
 1\1\GINC-BERQUELIO\Freq\UB3LYP\6-311++G(3df,2p)\H2O1(1-,4)\NAGUIRRE\07
 -Mar-2019\0\\#p b3lyp/6-311++G(3df,2p) freq IOp(2/17=3) IOp(2/18=3)\\b
 3lyp opt\\-1,4\H,0.6074,1.307593,0.\H,1.497972,-1.029585,0.\O,0.124236
 ,-0.213417,0.\\Version=EM64L-G09RevE.01\State=4-A"\HF=-76.2120477\S2=3
 .758762\S2-1=0.\S2A=3.750027\RMSD=2.356e-09\RMSF=1.525e-05\ZeroPoint=0
 .0021693\Thermal=0.0054895\Dipole=-1.070395,-0.4111262,0.\DipoleDeriv=
 -0.4049168,0.3900012,0.,-0.0383634,0.8056258,0.,0.,0.,-0.4065104,0.302
 7225,-0.8295473,0.,-0.4050767,0.0939981,0.,0.,0.,-0.4045979,-0.8978056
 ,0.4395462,0.,0.4434401,-1.8996239,0.,0.,0.,-0.1888917\Polar=38.290566
 4,-13.1629057,67.8837026,0.,0.,15.1072877\PG=CS [SG(H2O1)]\NImag=1\\0.
 00281670,-0.00174813,-0.00035160,0.,0.,-0.00002203,0.00390097,0.007840
 00,0.,-0.00008895,0.00139835,-0.00648559,0.,0.00163147,0.00284518,0.,0
 .,0.00000118,0.,0.,-0.00003502,-0.00671767,-0.00609187,0.,-0.00381202,
 -0.00302982,0.,0.01052969,0.00034978,0.00683719,0.,-0.00947147,0.00364
 041,0.,0.00912169,-0.01047759,0.,0.,0.00002085,0.,0.,0.00003384,0.,0.,
 -0.00005469\\0.00000739,0.00001402,0.,-0.00002161,0.00001618,0.,0.0000
 1422,-0.00003020,0.\\\@


 THE NUMBERS ARE MEANINGLESS, BUT THE TRENDS ARE IMPORTANT.
     -- LARRY BURGGRAF
 Job cpu time:       0 days  0 hours  0 minutes 50.3 seconds.
 File lengths (MBytes):  RWF=      5 Int=      0 D2E=      0 Chk=      1 Scr=      1
 Normal termination of Gaussian 09 at Thu Mar  7 13:31:08 2019.
