 Entering Gaussian System, Link 0=/usr/local/gaussian/2009-E.01/g09/g09
 Initial command:
 /usr/local/gaussian/2009-E.01/g09/l1.exe "/lustre/scratch/eerd/4986703.achilles/Gau-101576.inp" -scrdir="/lustre/scratch/eerd/4986703.achilles/"
 Entering Link 1 = /usr/local/gaussian/2009-E.01/g09/l1.exe PID=    101578.
  
 Copyright (c) 1988,1990,1992,1993,1995,1998,2003,2009,2015,
            Gaussian, Inc.  All Rights Reserved.
  
 This is part of the Gaussian(R) 09 program.  It is based on
 the Gaussian(R) 03 system (copyright 2003, Gaussian, Inc.),
 the Gaussian(R) 98 system (copyright 1998, Gaussian, Inc.),
 the Gaussian(R) 94 system (copyright 1995, Gaussian, Inc.),
 the Gaussian 92(TM) system (copyright 1992, Gaussian, Inc.),
 the Gaussian 90(TM) system (copyright 1990, Gaussian, Inc.),
 the Gaussian 88(TM) system (copyright 1988, Gaussian, Inc.),
 the Gaussian 86(TM) system (copyright 1986, Carnegie Mellon
 University), and the Gaussian 82(TM) system (copyright 1983,
 Carnegie Mellon University). Gaussian is a federally registered
 trademark of Gaussian, Inc.
  
 This software contains proprietary and confidential information,
 including trade secrets, belonging to Gaussian, Inc.
  
 This software is provided under written license and may be
 used, copied, transmitted, or stored only in accord with that
 written license.
  
 The following legend is applicable only to US Government
 contracts under FAR:
  
                    RESTRICTED RIGHTS LEGEND
  
 Use, reproduction and disclosure by the US Government is
 subject to restrictions as set forth in subparagraphs (a)
 and (c) of the Commercial Computer Software - Restricted
 Rights clause in FAR 52.227-19.
  
 Gaussian, Inc.
 340 Quinnipiac St., Bldg. 40, Wallingford CT 06492
  
  
 ---------------------------------------------------------------
 Warning -- This program may not be used in any manner that
 competes with the business of Gaussian, Inc. or will provide
 assistance to any competitor of Gaussian, Inc.  The licensee
 of this program is prohibited from giving any competitor of
 Gaussian, Inc. access to this program.  By using this program,
 the user acknowledges that Gaussian, Inc. is engaged in the
 business of creating and licensing software in the field of
 computational chemistry and represents and warrants to the
 licensee that it is not a competitor of Gaussian, Inc. and that
 it will not use this program in any manner prohibited above.
 ---------------------------------------------------------------
  

 Cite this work as:
 Gaussian 09, Revision E.01,
 M. J. Frisch, G. W. Trucks, H. B. Schlegel, G. E. Scuseria, 
 M. A. Robb, J. R. Cheeseman, G. Scalmani, V. Barone, B. Mennucci, 
 G. A. Petersson, H. Nakatsuji, M. Caricato, X. Li, H. P. Hratchian, 
 A. F. Izmaylov, J. Bloino, G. Zheng, J. L. Sonnenberg, M. Hada, 
 M. Ehara, K. Toyota, R. Fukuda, J. Hasegawa, M. Ishida, T. Nakajima, 
 Y. Honda, O. Kitao, H. Nakai, T. Vreven, J. A. Montgomery, Jr., 
 J. E. Peralta, F. Ogliaro, M. Bearpark, J. J. Heyd, E. Brothers, 
 K. N. Kudin, V. N. Staroverov, T. Keith, R. Kobayashi, J. Normand, 
 K. Raghavachari, A. Rendell, J. C. Burant, S. S. Iyengar, J. Tomasi, 
 M. Cossi, N. Rega, J. M. Millam, M. Klene, J. E. Knox, J. B. Cross, 
 V. Bakken, C. Adamo, J. Jaramillo, R. Gomperts, R. E. Stratmann, 
 O. Yazyev, A. J. Austin, R. Cammi, C. Pomelli, J. W. Ochterski, 
 R. L. Martin, K. Morokuma, V. G. Zakrzewski, G. A. Voth, 
 P. Salvador, J. J. Dannenberg, S. Dapprich, A. D. Daniels, 
 O. Farkas, J. B. Foresman, J. V. Ortiz, J. Cioslowski, 
 and D. J. Fox, Gaussian, Inc., Wallingford CT, 2013.
 
 ******************************************
 Gaussian 09:  ES64L-G09RevE.01 30-Nov-2015
                 9-Oct-2017 
 ******************************************
 %NProcShared=8
 Will use up to    8 processors via shared memory.
 -----------------------------------
 #p ccsd(t,maxcyc=200)/6-311++G(d,p)
 -----------------------------------
 1/38=1/1;
 2/12=2,17=6,18=5,40=1/2;
 3/5=4,6=6,7=1111,11=9,16=1,25=1,30=1/1,2,3;
 4//1;
 5/5=2,38=5/2;
 8/6=4,9=120000,10=2/1,4;
 9/5=7,6=200,14=2/13;
 6/7=2,8=2,9=2,10=2/1;
 99/5=1,9=1/99;
 Leave Link    1 at Mon Oct  9 12:02:21 2017, MaxMem=           0 cpu:         2.9
 (Enter /usr/local/gaussian/2009-E.01/g09/l101.exe)
 -------------
 ccsd(t) iener
 -------------
 Symbolic Z-matrix:
 Charge =  0 Multiplicity = 1
 C                     0.24039   0.87313   0. 
 C                     0.82212  -0.50478   0. 
 O                    -0.4995   -0.251     0. 
 
 NAtoms=      3 NQM=        3 NQMF=       0 NMMI=      0 NMMIF=      0
                NMic=       0 NMicF=      0.
                    Isotopes and Nuclear Properties:
 (Nuclear quadrupole moments (NQMom) in fm**2, nuclear magnetic moments (NMagM)
  in nuclear magnetons)

  Atom         1           2           3
 IAtWgt=          12          12          16
 AtmWgt=  12.0000000  12.0000000  15.9949146
 NucSpn=           0           0           0
 AtZEff=   0.0000000   0.0000000   0.0000000
 NQMom=    0.0000000   0.0000000   0.0000000
 NMagM=    0.0000000   0.0000000   0.0000000
 AtZNuc=   6.0000000   6.0000000   8.0000000
 Leave Link  101 at Mon Oct  9 12:02:21 2017, MaxMem=    33554432 cpu:         0.4
 (Enter /usr/local/gaussian/2009-E.01/g09/l202.exe)
                          Input orientation:                          
 ---------------------------------------------------------------------
 Center     Atomic      Atomic             Coordinates (Angstroms)
 Number     Number       Type             X           Y           Z
 ---------------------------------------------------------------------
      1          6           0        0.240393    0.873125    0.000000
      2          6           0        0.822123   -0.504781    0.000000
      3          8           0       -0.499495   -0.250995    0.000000
 ---------------------------------------------------------------------
                    Distance matrix (angstroms):
                    1          2          3
     1  C    0.000000
     2  C    1.495673   0.000000
     3  O    1.345764   1.345764   0.000000
 Stoichiometry    C2O
 Framework group  C2V[C2(O),SGV(C2)]
 Deg. of freedom     2
 Full point group                 C2V     NOp   4
 Largest Abelian subgroup         C2V     NOp   4
 Largest concise Abelian subgroup C2      NOp   2
                         Standard orientation:                         
 ---------------------------------------------------------------------
 Center     Atomic      Atomic             Coordinates (Angstroms)
 Number     Number       Type             X           Y           Z
 ---------------------------------------------------------------------
      1          6           0        0.000000    0.747836   -0.447539
      2          6           0       -0.000000   -0.747836   -0.447539
      3          8           0       -0.000000   -0.000000    0.671309
 ---------------------------------------------------------------------
 Rotational constants (GHZ):     42.0616399     37.6524148     19.8675418
 Leave Link  202 at Mon Oct  9 12:02:21 2017, MaxMem=    33554432 cpu:         0.1
 (Enter /usr/local/gaussian/2009-E.01/g09/l301.exe)
 Standard basis: 6-311++G(d,p) (5D, 7F)
 Ernie: Thresh=  0.10000D-02 Tol=  0.10000D-05 Strict=F.
 There are    29 symmetry adapted cartesian basis functions of A1  symmetry.
 There are     7 symmetry adapted cartesian basis functions of A2  symmetry.
 There are    11 symmetry adapted cartesian basis functions of B1  symmetry.
 There are    22 symmetry adapted cartesian basis functions of B2  symmetry.
 There are    27 symmetry adapted basis functions of A1  symmetry.
 There are     7 symmetry adapted basis functions of A2  symmetry.
 There are    11 symmetry adapted basis functions of B1  symmetry.
 There are    21 symmetry adapted basis functions of B2  symmetry.
    66 basis functions,   108 primitive gaussians,    69 cartesian basis functions
    10 alpha electrons       10 beta electrons
       nuclear repulsion energy        50.4858194361 Hartrees.
 IExCor=    0 DFT=F Ex=HF Corr=None ExCW=0 ScaHFX=  1.000000
 ScaDFX=  1.000000  1.000000  1.000000  1.000000 ScalE2=  1.000000  1.000000
 IRadAn=      0 IRanWt=     -1 IRanGd=            0 ICorTp=0 IEmpDi=  4
 NAtoms=    3 NActive=    3 NUniq=    2 SFac= 2.25D+00 NAtFMM=   60 NAOKFM=F Big=F
 Integral buffers will be    131072 words long.
 Raffenetti 1 integral format.
 Two-electron integral symmetry is turned on.
 Leave Link  301 at Mon Oct  9 12:02:21 2017, MaxMem=    33554432 cpu:         0.4
 (Enter /usr/local/gaussian/2009-E.01/g09/l302.exe)
 NPDir=0 NMtPBC=     1 NCelOv=     1 NCel=       1 NClECP=     1 NCelD=      1
         NCelK=      1 NCelE2=     1 NClLst=     1 CellRange=     0.0.
 One-electron integrals computed using PRISM.
 One-electron integral symmetry used in STVInt
 NBasis=    66 RedAO= T EigKep=  2.57D-04  NBF=    27     7    11    21
 NBsUse=    66 1.00D-06 EigRej= -1.00D+00 NBFU=    27     7    11    21
 Leave Link  302 at Mon Oct  9 12:02:21 2017, MaxMem=    33554432 cpu:         1.1
 (Enter /usr/local/gaussian/2009-E.01/g09/l303.exe)
 DipDrv:  MaxL=1.
 Leave Link  303 at Mon Oct  9 12:02:21 2017, MaxMem=    33554432 cpu:         0.1
 (Enter /usr/local/gaussian/2009-E.01/g09/l401.exe)
 ExpMin= 4.38D-02 ExpMax= 8.59D+03 ExpMxC= 1.30D+03 IAcc=2 IRadAn=         4 AccDes= 0.00D+00
 Harris functional with IExCor=  205 and IRadAn=       4 diagonalized for initial guess.
 HarFok:  IExCor=  205 AccDes= 0.00D+00 IRadAn=         4 IDoV= 1 UseB2=F ITyADJ=14
 ICtDFT=  3500011 ScaDFX=  1.000000  1.000000  1.000000  1.000000
 FoFCou: FMM=F IPFlag=           0 FMFlag=      100000 FMFlg1=           0
         NFxFlg=           0 DoJE=T BraDBF=F KetDBF=T FulRan=T
         wScrn=  0.000000 ICntrl=     500 IOpCl=  0 I1Cent=   200000004 NGrid=           0
         NMat0=    1 NMatS0=      1 NMatT0=    0 NMatD0=    1 NMtDS0=    0 NMtDT0=    0
 Petite list used in FoFCou.
 Harris En= -150.411430780995    
 JPrj=0 DoOrth=F DoCkMO=F.
 Initial guess orbital symmetries:
       Occupied  (A1) (A1) (B2) (A1) (A1) (B2) (B1) (A1) (B2) (A1)
       Virtual   (B1) (A2) (A1) (B2) (A1) (B1) (B2) (A1) (B2) (A2)
                 (A1) (A1) (B2) (B1) (B2) (A1) (B2) (A1) (B1) (B2)
                 (A1) (A2) (B2) (A1) (B2) (A1) (B1) (B1) (B2) (A1)
                 (B1) (A2) (A1) (B2) (A1) (A2) (A1) (B2) (B2) (B1)
                 (A1) (A2) (B2) (A1) (A2) (A1) (B1) (B2) (A1) (B2)
                 (B1) (B2) (A1) (A1) (B2) (A1)
 The electronic state of the initial guess is 1-A1.
 Leave Link  401 at Mon Oct  9 12:02:21 2017, MaxMem=    33554432 cpu:         1.2
 (Enter /usr/local/gaussian/2009-E.01/g09/l502.exe)
 Closed shell SCF:
 Using DIIS extrapolation, IDIIS=  1040.
 Integral symmetry usage will be decided dynamically.
 Keep R1 ints in memory in symmetry-blocked form, NReq=3321608.
 IVT=       34021 IEndB=       34021 NGot=    33554432 MDV=    32872038
 LenX=    32872038 LenY=    32866836
 Requested convergence on RMS density matrix=1.00D-08 within 128 cycles.
 Requested convergence on MAX density matrix=1.00D-06.
 Requested convergence on             energy=1.00D-06.
 No special actions if energy rises.
 FoFCou: FMM=F IPFlag=           0 FMFlag=           0 FMFlg1=           0
         NFxFlg=           0 DoJE=F BraDBF=F KetDBF=F FulRan=T
         wScrn=  0.000000 ICntrl=     600 IOpCl=  0 I1Cent=           0 NGrid=           0
         NMat0=    1 NMatS0=   2211 NMatT0=    0 NMatD0=    1 NMtDS0=    0 NMtDT0=    0
 Petite list used in FoFCou.

 Cycle   1  Pass 1  IDiag  1:
 E= -150.362723707180    
 DIIS: error= 6.27D-02 at cycle   1 NSaved=   1.
 NSaved= 1 IEnMin= 1 EnMin= -150.362723707180     IErMin= 1 ErrMin= 6.27D-02
 ErrMax= 6.27D-02  0.00D+00 EMaxC= 1.00D-01 BMatC= 1.93D-01 BMatP= 1.93D-01
 IDIUse=3 WtCom= 3.73D-01 WtEn= 6.27D-01
 Coeff-Com:  0.100D+01
 Coeff-En:   0.100D+01
 Coeff:      0.100D+01
 Gap=     0.453 Goal=   None    Shift=    0.000
 GapD=    0.453 DampG=2.000 DampE=0.500 DampFc=1.0000 IDamp=-1.
 RMSDP=3.37D-03 MaxDP=3.00D-02              OVMax= 8.96D-02

 Cycle   2  Pass 1  IDiag  1:
 E= -150.410915836996     Delta-E=       -0.048192129816 Rises=F Damp=F
 DIIS: error= 1.27D-02 at cycle   2 NSaved=   2.
 NSaved= 2 IEnMin= 2 EnMin= -150.410915836996     IErMin= 2 ErrMin= 1.27D-02
 ErrMax= 1.27D-02  0.00D+00 EMaxC= 1.00D-01 BMatC= 7.88D-03 BMatP= 1.93D-01
 IDIUse=3 WtCom= 8.73D-01 WtEn= 1.27D-01
 Coeff-Com:  0.495D-02 0.995D+00
 Coeff-En:   0.000D+00 0.100D+01
 Coeff:      0.432D-02 0.996D+00
 Gap=     0.463 Goal=   None    Shift=    0.000
 RMSDP=1.47D-03 MaxDP=3.66D-02 DE=-4.82D-02 OVMax= 3.09D-02

 Cycle   3  Pass 1  IDiag  1:
 E= -150.413036145612     Delta-E=       -0.002120308615 Rises=F Damp=F
 DIIS: error= 1.35D-02 at cycle   3 NSaved=   3.
 NSaved= 3 IEnMin= 3 EnMin= -150.413036145612     IErMin= 2 ErrMin= 1.27D-02
 ErrMax= 1.35D-02  0.00D+00 EMaxC= 1.00D-01 BMatC= 4.79D-03 BMatP= 7.88D-03
 IDIUse=3 WtCom= 8.65D-01 WtEn= 1.35D-01
 Coeff-Com: -0.258D-01 0.449D+00 0.577D+00
 Coeff-En:   0.000D+00 0.348D+00 0.652D+00
 Coeff:     -0.223D-01 0.435D+00 0.587D+00
 Gap=     0.454 Goal=   None    Shift=    0.000
 RMSDP=5.30D-04 MaxDP=1.12D-02 DE=-2.12D-03 OVMax= 2.35D-02

 Cycle   4  Pass 1  IDiag  1:
 E= -150.416542593793     Delta-E=       -0.003506448181 Rises=F Damp=F
 DIIS: error= 1.03D-03 at cycle   4 NSaved=   4.
 NSaved= 4 IEnMin= 4 EnMin= -150.416542593793     IErMin= 4 ErrMin= 1.03D-03
 ErrMax= 1.03D-03  0.00D+00 EMaxC= 1.00D-01 BMatC= 5.85D-05 BMatP= 4.79D-03
 IDIUse=3 WtCom= 9.90D-01 WtEn= 1.03D-02
 Coeff-Com:  0.182D-02-0.737D-01-0.183D-02 0.107D+01
 Coeff-En:   0.000D+00 0.000D+00 0.000D+00 0.100D+01
 Coeff:      0.180D-02-0.729D-01-0.181D-02 0.107D+01
 Gap=     0.454 Goal=   None    Shift=    0.000
 RMSDP=1.62D-04 MaxDP=2.76D-03 DE=-3.51D-03 OVMax= 4.29D-03

 Cycle   5  Pass 1  IDiag  1:
 E= -150.416638299985     Delta-E=       -0.000095706193 Rises=F Damp=F
 DIIS: error= 4.21D-04 at cycle   5 NSaved=   5.
 NSaved= 5 IEnMin= 5 EnMin= -150.416638299985     IErMin= 5 ErrMin= 4.21D-04
 ErrMax= 4.21D-04  0.00D+00 EMaxC= 1.00D-01 BMatC= 7.46D-06 BMatP= 5.85D-05
 IDIUse=3 WtCom= 9.96D-01 WtEn= 4.21D-03
 Coeff-Com:  0.118D-02-0.152D-01-0.186D-01-0.359D+00 0.139D+01
 Coeff-En:   0.000D+00 0.000D+00 0.000D+00 0.000D+00 0.100D+01
 Coeff:      0.118D-02-0.151D-01-0.185D-01-0.357D+00 0.139D+01
 Gap=     0.454 Goal=   None    Shift=    0.000
 RMSDP=9.46D-05 MaxDP=1.33D-03 DE=-9.57D-05 OVMax= 2.98D-03

 Cycle   6  Pass 1  IDiag  1:
 E= -150.416660954431     Delta-E=       -0.000022654445 Rises=F Damp=F
 DIIS: error= 1.98D-04 at cycle   6 NSaved=   6.
 NSaved= 6 IEnMin= 6 EnMin= -150.416660954431     IErMin= 6 ErrMin= 1.98D-04
 ErrMax= 1.98D-04  0.00D+00 EMaxC= 1.00D-01 BMatC= 7.51D-07 BMatP= 7.46D-06
 IDIUse=3 WtCom= 9.98D-01 WtEn= 1.98D-03
 Coeff-Com: -0.288D-03 0.105D-01 0.802D-02-0.210D-01-0.351D+00 0.135D+01
 Coeff-En:   0.000D+00 0.000D+00 0.000D+00 0.000D+00 0.000D+00 0.100D+01
 Coeff:     -0.288D-03 0.105D-01 0.800D-02-0.210D-01-0.350D+00 0.135D+01
 Gap=     0.454 Goal=   None    Shift=    0.000
 RMSDP=2.60D-05 MaxDP=3.41D-04 DE=-2.27D-05 OVMax= 1.26D-03

 Cycle   7  Pass 1  IDiag  1:
 E= -150.416663875911     Delta-E=       -0.000002921480 Rises=F Damp=F
 DIIS: error= 6.93D-05 at cycle   7 NSaved=   7.
 NSaved= 7 IEnMin= 7 EnMin= -150.416663875911     IErMin= 7 ErrMin= 6.93D-05
 ErrMax= 6.93D-05  0.00D+00 EMaxC= 1.00D-01 BMatC= 7.48D-08 BMatP= 7.51D-07
 IDIUse=1 WtCom= 1.00D+00 WtEn= 0.00D+00
 Coeff-Com: -0.896D-04 0.552D-03 0.177D-02 0.453D-01-0.135D+00-0.181D+00
 Coeff-Com:  0.127D+01
 Coeff:     -0.896D-04 0.552D-03 0.177D-02 0.453D-01-0.135D+00-0.181D+00
 Coeff:      0.127D+01
 Gap=     0.454 Goal=   None    Shift=    0.000
 RMSDP=8.83D-06 MaxDP=1.32D-04 DE=-2.92D-06 OVMax= 4.27D-04

 Cycle   8  Pass 1  IDiag  1:
 E= -150.416664177188     Delta-E=       -0.000000301277 Rises=F Damp=F
 DIIS: error= 1.03D-05 at cycle   8 NSaved=   8.
 NSaved= 8 IEnMin= 8 EnMin= -150.416664177188     IErMin= 8 ErrMin= 1.03D-05
 ErrMax= 1.03D-05  0.00D+00 EMaxC= 1.00D-01 BMatC= 4.19D-09 BMatP= 7.48D-08
 IDIUse=1 WtCom= 1.00D+00 WtEn= 0.00D+00
 Coeff-Com:  0.423D-04-0.819D-03-0.927D-03-0.145D-01 0.705D-01-0.206D-01
 Coeff-Com: -0.471D+00 0.144D+01
 Coeff:      0.423D-04-0.819D-03-0.927D-03-0.145D-01 0.705D-01-0.206D-01
 Coeff:     -0.471D+00 0.144D+01
 Gap=     0.454 Goal=   None    Shift=    0.000
 RMSDP=3.62D-06 MaxDP=4.36D-05 DE=-3.01D-07 OVMax= 7.32D-05

 Cycle   9  Pass 1  IDiag  1:
 E= -150.416664194328     Delta-E=       -0.000000017140 Rises=F Damp=F
 DIIS: error= 1.83D-06 at cycle   9 NSaved=   9.
 NSaved= 9 IEnMin= 9 EnMin= -150.416664194328     IErMin= 9 ErrMin= 1.83D-06
 ErrMax= 1.83D-06  0.00D+00 EMaxC= 1.00D-01 BMatC= 1.59D-10 BMatP= 4.19D-09
 IDIUse=1 WtCom= 1.00D+00 WtEn= 0.00D+00
 Coeff-Com: -0.103D-04 0.274D-03 0.204D-03 0.159D-02-0.145D-01 0.256D-01
 Coeff-Com:  0.403D-01-0.381D+00 0.133D+01
 Coeff:     -0.103D-04 0.274D-03 0.204D-03 0.159D-02-0.145D-01 0.256D-01
 Coeff:      0.403D-01-0.381D+00 0.133D+01
 Gap=     0.454 Goal=   None    Shift=    0.000
 RMSDP=5.24D-07 MaxDP=4.61D-06 DE=-1.71D-08 OVMax= 1.67D-05

 Cycle  10  Pass 1  IDiag  1:
 E= -150.416664194886     Delta-E=       -0.000000000558 Rises=F Damp=F
 DIIS: error= 1.85D-07 at cycle  10 NSaved=  10.
 NSaved=10 IEnMin=10 EnMin= -150.416664194886     IErMin=10 ErrMin= 1.85D-07
 ErrMax= 1.85D-07  0.00D+00 EMaxC= 1.00D-01 BMatC= 2.39D-12 BMatP= 1.59D-10
 IDIUse=1 WtCom= 1.00D+00 WtEn= 0.00D+00
 Coeff-Com:  0.106D-05-0.343D-04-0.141D-04 0.221D-04 0.111D-02-0.453D-02
 Coeff-Com:  0.296D-02 0.489D-01-0.303D+00 0.125D+01
 Coeff:      0.106D-05-0.343D-04-0.141D-04 0.221D-04 0.111D-02-0.453D-02
 Coeff:      0.296D-02 0.489D-01-0.303D+00 0.125D+01
 Gap=     0.454 Goal=   None    Shift=    0.000
 RMSDP=1.40D-07 MaxDP=2.05D-06 DE=-5.58D-10 OVMax= 1.52D-06

 Cycle  11  Pass 1  IDiag  1:
 E= -150.416664194893     Delta-E=       -0.000000000007 Rises=F Damp=F
 DIIS: error= 1.92D-08 at cycle  11 NSaved=  11.
 NSaved=11 IEnMin=11 EnMin= -150.416664194893     IErMin=11 ErrMin= 1.92D-08
 ErrMax= 1.92D-08  0.00D+00 EMaxC= 1.00D-01 BMatC= 2.77D-14 BMatP= 2.39D-12
 IDIUse=1 WtCom= 1.00D+00 WtEn= 0.00D+00
 Coeff-Com: -0.169D-07 0.234D-06-0.769D-06-0.159D-04 0.471D-04 0.200D-03
 Coeff-Com: -0.747D-03-0.159D-02 0.209D-01-0.173D+00 0.115D+01
 Coeff:     -0.169D-07 0.234D-06-0.769D-06-0.159D-04 0.471D-04 0.200D-03
 Coeff:     -0.747D-03-0.159D-02 0.209D-01-0.173D+00 0.115D+01
 Gap=     0.454 Goal=   None    Shift=    0.000
 RMSDP=2.09D-08 MaxDP=3.27D-07 DE=-6.82D-12 OVMax= 2.09D-07

 Cycle  12  Pass 1  IDiag  1:
 E= -150.416664194893     Delta-E=        0.000000000000 Rises=F Damp=F
 DIIS: error= 4.95D-09 at cycle  12 NSaved=  12.
 NSaved=12 IEnMin=11 EnMin= -150.416664194893     IErMin=12 ErrMin= 4.95D-09
 ErrMax= 4.95D-09  0.00D+00 EMaxC= 1.00D-01 BMatC= 1.30D-15 BMatP= 2.77D-14
 IDIUse=1 WtCom= 1.00D+00 WtEn= 0.00D+00
 Coeff-Com: -0.503D-07 0.147D-05 0.115D-05 0.949D-05-0.829D-04 0.130D-03
 Coeff-Com:  0.232D-03-0.168D-02 0.530D-02 0.629D-02-0.293D+00 0.128D+01
 Coeff:     -0.503D-07 0.147D-05 0.115D-05 0.949D-05-0.829D-04 0.130D-03
 Coeff:      0.232D-03-0.168D-02 0.530D-02 0.629D-02-0.293D+00 0.128D+01
 Gap=     0.454 Goal=   None    Shift=    0.000
 RMSDP=2.79D-09 MaxDP=4.19D-08 DE= 1.42D-13 OVMax= 4.85D-08

 SCF Done:  E(RHF) =  -150.416664195     A.U. after   12 cycles
            NFock= 12  Conv=0.28D-08     -V/T= 2.0012
 KE= 1.502428586305D+02 PE=-4.538384709217D+02 EE= 1.026931286601D+02
 Leave Link  502 at Mon Oct  9 12:02:22 2017, MaxMem=    33554432 cpu:         2.2
 (Enter /usr/local/gaussian/2009-E.01/g09/l801.exe)
 Windowed orbitals will be sorted by symmetry type.
 ExpMin= 4.38D-02 ExpMax= 8.59D+03 ExpMxC= 1.30D+03 IAcc=3 IRadAn=         5 AccDes= 0.00D+00
 HarFok:  IExCor=  205 AccDes= 0.00D+00 IRadAn=         5 IDoV=-2 UseB2=F ITyADJ=14
 ICtDFT= 12500011 ScaDFX=  1.000000  1.000000  1.000000  1.000000
 Largest valence mixing into a core orbital is  1.79D-04
 Largest core mixing into a valence orbital is  4.88D-05
 Range of M.O.s used for correlation:     4    66
 NBasis=    66 NAE=    10 NBE=    10 NFC=     3 NFV=     0
 NROrb=     63 NOA=     7 NOB=     7 NVA=    56 NVB=    56

 **** Warning!!: The largest alpha MO coefficient is  0.31395262D+02

 Leave Link  801 at Mon Oct  9 12:02:22 2017, MaxMem=    33554432 cpu:         1.2
 (Enter /usr/local/gaussian/2009-E.01/g09/l804.exe)
 Closed-shell transformation, MDV=    33554432 ITran=4 ISComp=2.
 Semi-Direct transformation.
 ModeAB=           4 MOrb=             7 LenV=      33334482
 LASXX=       209254 LTotXX=      209254 LenRXX=      430688
 LTotAB=      221434 MaxLAS=      650034 LenRXY=           0
 NonZer=      639942 LenScr=     1571840 LnRSAI=      650034
 LnScr1=     1571840 LExtra=           0 Total=      4224402
 MaxDsk=          -1 SrtSym=           T ITran=            4
 DoSDTr:  NPSUse=  8
 JobTyp=0 Pass  1:  I=   1 to   7.
 (rs|ai) integrals will be sorted in core.
 Complete sort for first half transformation.
 First half transformation complete.
 Complete sort for second half transformation.
 Second half transformation complete.
 Spin components of T(2) and E(2):
     alpha-alpha T2 =       0.1802959329D-01 E2=     -0.5487408317D-01
     alpha-beta  T2 =       0.1064123326D+00 E2=     -0.3148160905D+00
     beta-beta   T2 =       0.1802959329D-01 E2=     -0.5487408317D-01
 ANorm=    0.1068864593D+01
 E2 =    -0.4245642569D+00 EUMP2 =    -0.15084122845176D+03
 Leave Link  804 at Mon Oct  9 12:02:22 2017, MaxMem=    33554432 cpu:         1.2
 (Enter /usr/local/gaussian/2009-E.01/g09/l913.exe)
 CIDS:  MDV=    33554432.
 Frozen-core window:  NFC=   3 NFV=   0.
 IFCWin=0 IBDFC=1 NFBD=     0     0 NFCmp=     0     0 NFFFC=     0     0
 Using DD3R+UMP44R for 1st iteration, S=T.
 Using DD4RQ for 2nd and later iterations.
 Keep R2 and R3 ints in memory in symmetry-blocked form, NReq=3272776.
 FoFCou: FMM=F IPFlag=           0 FMFlag=           0 FMFlg1=           0
         NFxFlg=           0 DoJE=F BraDBF=F KetDBF=F FulRan=T
         wScrn=  0.000000 ICntrl=     600 IOpCl=  0 I1Cent=           0 NGrid=           0
         NMat0=    1 NMatS0=   2211 NMatT0=    0 NMatD0=    1 NMtDS0=    0 NMtDT0=    0
 Petite list used in FoFCou.
 CCSD(T)
 =======
 Iterations= 200 Convergence= 0.100D-06
 Iteration Nr.   1
 **********************
 DD1Dir will call FoFMem   1 times, MxPair=        56
 NAB=    28 NAA=     0 NBB=     0.
 MP4(R+Q)=  0.99384956D-02
 Maximum subspace dimension=  5
 Norm of the A-vectors is  6.2250823D-01 conv= 1.00D-05.
 RLE energy=       -0.4202138796
 E3=       -0.60558648D-02        EUMP3=      -0.15084728432D+03
 E4(DQ)=   -0.49201258D-02        UMP4(DQ)=   -0.15085220444D+03
 E4(SDQ)=  -0.13316150D-01        UMP4(SDQ)=  -0.15086060047D+03
 VARIATIONAL ENERGIES WITH THE FIRST-ORDER WAVEFUNCTION:
 DE(Corr)= -0.42016945     E(Corr)=     -150.83683365    
 NORM(A)=   0.10736392D+01
 Iteration Nr.   2
 **********************
 DD1Dir will call FoFMem   1 times, MxPair=        56
 NAB=    28 NAA=     0 NBB=     0.
 Norm of the A-vectors is  2.5270586D-01 conv= 1.00D-05.
 RLE energy=       -0.4406883526
 DE(Corr)= -0.43935154     E(CORR)=     -150.85601574     Delta=-1.92D-02
 NORM(A)=   0.10841570D+01
 Iteration Nr.   3
 **********************
 DD1Dir will call FoFMem   1 times, MxPair=        56
 NAB=    28 NAA=     0 NBB=     0.
 Norm of the A-vectors is  7.9699859D-02 conv= 1.00D-05.
 RLE energy=       -0.4421916364
 DE(Corr)= -0.44001042     E(CORR)=     -150.85667461     Delta=-6.59D-04
 NORM(A)=   0.10879944D+01
 Iteration Nr.   4
 **********************
 DD1Dir will call FoFMem   1 times, MxPair=        56
 NAB=    28 NAA=     0 NBB=     0.
 Norm of the A-vectors is  2.7915672D-02 conv= 1.00D-05.
 RLE energy=       -0.4424648997
 DE(Corr)= -0.44226837     E(CORR)=     -150.85893256     Delta=-2.26D-03
 NORM(A)=   0.10890860D+01
 Iteration Nr.   5
 **********************
 DD1Dir will call FoFMem   1 times, MxPair=        56
 NAB=    28 NAA=     0 NBB=     0.
 Norm of the A-vectors is  8.2466798D-03 conv= 1.00D-05.
 RLE energy=       -0.4426058162
 DE(Corr)= -0.44254412     E(CORR)=     -150.85920832     Delta=-2.76D-04
 NORM(A)=   0.10894176D+01
 Iteration Nr.   6
 **********************
 DD1Dir will call FoFMem   1 times, MxPair=        56
 NAB=    28 NAA=     0 NBB=     0.
 Norm of the A-vectors is  2.9064414D-03 conv= 1.00D-05.
 RLE energy=       -0.4425611609
 DE(Corr)= -0.44257916     E(CORR)=     -150.85924336     Delta=-3.50D-05
 NORM(A)=   0.10894330D+01
 Iteration Nr.   7
 **********************
 DD1Dir will call FoFMem   1 times, MxPair=        56
 NAB=    28 NAA=     0 NBB=     0.
 Norm of the A-vectors is  1.0875376D-03 conv= 1.00D-05.
 RLE energy=       -0.4425811586
 DE(Corr)= -0.44258262     E(CORR)=     -150.85924681     Delta=-3.45D-06
 NORM(A)=   0.10894452D+01
 Iteration Nr.   8
 **********************
 DD1Dir will call FoFMem   1 times, MxPair=        56
 NAB=    28 NAA=     0 NBB=     0.
 Norm of the A-vectors is  3.4908710D-04 conv= 1.00D-05.
 RLE energy=       -0.4425767595
 DE(Corr)= -0.44257803     E(CORR)=     -150.85924222     Delta= 4.59D-06
 NORM(A)=   0.10894457D+01
 Iteration Nr.   9
 **********************
 DD1Dir will call FoFMem   1 times, MxPair=        56
 NAB=    28 NAA=     0 NBB=     0.
 Norm of the A-vectors is  1.5643952D-04 conv= 1.00D-05.
 RLE energy=       -0.4425811313
 DE(Corr)= -0.44258077     E(CORR)=     -150.85924496     Delta=-2.74D-06
 NORM(A)=   0.10894477D+01
 Iteration Nr.  10
 **********************
 DD1Dir will call FoFMem   1 times, MxPair=        56
 NAB=    28 NAA=     0 NBB=     0.
 Norm of the A-vectors is  7.9635806D-05 conv= 1.00D-05.
 RLE energy=       -0.4425805906
 DE(Corr)= -0.44258016     E(CORR)=     -150.85924435     Delta= 6.12D-07
 NORM(A)=   0.10894483D+01
 Iteration Nr.  11
 **********************
 DD1Dir will call FoFMem   1 times, MxPair=        56
 NAB=    28 NAA=     0 NBB=     0.
 Norm of the A-vectors is  3.5829865D-05 conv= 1.00D-05.
 RLE energy=       -0.4425808904
 DE(Corr)= -0.44258089     E(CORR)=     -150.85924509     Delta=-7.35D-07
 NORM(A)=   0.10894485D+01
 Iteration Nr.  12
 **********************
 DD1Dir will call FoFMem   1 times, MxPair=        56
 NAB=    28 NAA=     0 NBB=     0.
 Norm of the A-vectors is  1.6164426D-05 conv= 1.00D-05.
 RLE energy=       -0.4425809350
 DE(Corr)= -0.44258087     E(CORR)=     -150.85924506     Delta= 2.52D-08
 NORM(A)=   0.10894487D+01
 Iteration Nr.  13
 **********************
 DD1Dir will call FoFMem   1 times, MxPair=        56
 NAB=    28 NAA=     0 NBB=     0.
 Norm of the A-vectors is  7.3850784D-06 conv= 1.00D-05.
 RLE energy=       -0.4425809135
 DE(Corr)= -0.44258091     E(CORR)=     -150.85924511     Delta=-4.81D-08
 NORM(A)=   0.10894487D+01
 CI/CC converged in   13 iterations to DelEn=-4.81D-08 Conv= 1.00D-07 ErrA1= 7.39D-06 Conv= 1.00D-05
 Largest amplitude= 6.75D-02
 IPart=  7 IA=    4   10.52% done.
 IPart=  3 IA=    7   20.45% done.
 IPart=  3 IA=   11   32.79% done.
 IPart=  7 IA=   14   41.36% done.
 IPart=  4 IA=   18   51.88% done.
 IPart=  1 IA=   22   61.36% done.
 IPart=  2 IA=   27   71.75% done.
 IPart=  6 IA=   32   80.52% done.
 IPart=  1 IA=   39   90.06% done.
 Time for triples=       10.02 seconds.
 T4(CCSD)= -0.23250387D-01
 T5(CCSD)=  0.17290718D-02
 CCSD(T)= -0.15088076642D+03
 Discarding MO integrals.
 Leave Link  913 at Mon Oct  9 12:02:29 2017, MaxMem=    33554432 cpu:        51.9
 (Enter /usr/local/gaussian/2009-E.01/g09/l601.exe)
 Copying SCF densities to generalized density rwf, IOpCl= 0 IROHF=0.

 **********************************************************************

            Population analysis using the SCF density.

 **********************************************************************

 Orbital symmetries:
       Occupied  (A1) (A1) (B2) (A1) (A1) (B2) (B1) (A1) (B2) (A1)
       Virtual   (B1) (A2) (A1) (A1) (B2) (B1) (B2) (A1) (A2) (B2)
                 (A1) (B1) (B2) (A1) (B2) (A1) (B2) (A1) (B1) (A2)
                 (B2) (A1) (B2) (B2) (A1) (A1) (B1) (B2) (B1) (A1)
                 (B1) (A2) (A1) (B2) (A1) (A2) (A1) (B2) (B2) (B1)
                 (A1) (A2) (B2) (A1) (A2) (A1) (B1) (B2) (A1) (B2)
                 (B1) (B2) (A1) (A1) (B2) (A1)
 The electronic state is 1-A1.
 Alpha  occ. eigenvalues --  -20.73356 -11.37405 -11.37324  -1.59405  -0.94442
 Alpha  occ. eigenvalues --   -0.86311  -0.67716  -0.62160  -0.48766  -0.43583
 Alpha virt. eigenvalues --    0.01837   0.08855   0.08905   0.09900   0.10046
 Alpha virt. eigenvalues --    0.12213   0.13303   0.14733   0.18999   0.21621
 Alpha virt. eigenvalues --    0.25373   0.27708   0.29070   0.33727   0.35620
 Alpha virt. eigenvalues --    0.43575   0.50046   0.63301   0.68072   0.74987
 Alpha virt. eigenvalues --    0.76339   0.78282   0.79318   0.99390   0.99643
 Alpha virt. eigenvalues --    1.15945   1.21763   1.30653   1.32886   1.33502
 Alpha virt. eigenvalues --    1.55554   1.57750   1.66275   1.81253   1.87325
 Alpha virt. eigenvalues --    2.08797   2.11694   2.20060   2.35539   2.93019
 Alpha virt. eigenvalues --    3.00167   3.01805   3.18267   3.30512   3.41314
 Alpha virt. eigenvalues --    3.45210   3.49819   3.74511   3.93403   4.27236
 Alpha virt. eigenvalues --    5.39084   5.74606   5.89254  24.57957  24.83784
 Alpha virt. eigenvalues --   51.40399
          Condensed to atoms (all electrons):
               1          2          3
     1  C    5.714030   0.269298   0.062475
     2  C    0.269298   5.714030   0.062475
     3  O    0.062475   0.062475   7.783444
 Mulliken charges:
               1
     1  C   -0.045803
     2  C   -0.045803
     3  O    0.091606
 Sum of Mulliken charges =  -0.00000
 Mulliken charges with hydrogens summed into heavy atoms:
               1
     1  C   -0.045803
     2  C   -0.045803
     3  O    0.091606
 Electronic spatial extent (au):  <R**2>=             85.5187
 Charge=             -0.0000 electrons
 Dipole moment (field-independent basis, Debye):
    X=             -0.0000    Y=             -0.0000    Z=              0.2019  Tot=              0.2019
 Quadrupole moment (field-independent basis, Debye-Ang):
   XX=            -14.7129   YY=            -21.2116   ZZ=            -18.0049
   XY=             -0.0000   XZ=             -0.0000   YZ=             -0.0000
 Traceless Quadrupole moment (field-independent basis, Debye-Ang):
   XX=              3.2636   YY=             -3.2351   ZZ=             -0.0284
   XY=             -0.0000   XZ=             -0.0000   YZ=             -0.0000
 Octapole moment (field-independent basis, Debye-Ang**2):
  XXX=              0.0000  YYY=             -0.0000  ZZZ=              5.9792  XYY=              0.0000
  XXY=             -0.0000  XXZ=              1.2432  XZZ=              0.0000  YZZ=             -0.0000
  YYZ=              5.3382  XYZ=              0.0000
 Hexadecapole moment (field-independent basis, Debye-Ang**3):
 XXXX=            -13.4457 YYYY=            -76.8014 ZZZZ=            -46.2247 XXXY=             -0.0000
 XXXZ=             -0.0000 YYYX=             -0.0000 YYYZ=             -0.0000 ZZZX=             -0.0000
 ZZZY=              0.0000 XXYY=            -12.6121 XXZZ=             -9.4579 YYZZ=            -19.9332
 XXYZ=              0.0000 YYXZ=             -0.0000 ZZXY=             -0.0000
 N-N= 5.048581943614D+01 E-N=-4.538384709521D+02  KE= 1.502428586305D+02
 Symmetry A1   KE= 1.067392427474D+02
 Symmetry A2   KE= 4.176292646562D-32
 Symmetry B1   KE= 3.736890447789D+00
 Symmetry B2   KE= 3.976672543529D+01
 Leave Link  601 at Mon Oct  9 12:02:30 2017, MaxMem=    33554432 cpu:         0.3
 (Enter /usr/local/gaussian/2009-E.01/g09/l9999.exe)
 1\1\ WCSS.PL-BEM-WN1424\SP\RCCSD(T)-FC\6-311++G(d,p)\C2O1\ROOT\09-Oct-
 2017\0\\#p ccsd(t,maxcyc=200)/6-311++G(d,p)\\ccsd(t) iener\\0,1\C,0,0.
 24039317,0.873125428,0.\C,0,0.82212283,-0.504781428,0.\O,0,-0.499495,-
 0.250995,0.\\Version=ES64L-G09RevE.01\State=1-A1\HF=-150.4166642\MP2=-
 150.8412285\MP3=-150.8472843\MP4D=-150.8621429\MP4DQ=-150.8522044\MP4S
 DQ=-150.8606005\CCSD=-150.8592451\CCSD(T)=-150.8807664\RMSD=2.792e-09\
 PG=C02V [C2(O1),SGV(C2)]\\@


 MOST BUREAUCRACIES FUNCTION LIKE A SEPTIC TANK.
 THE LARGE CHUNKS RISE TO THE TOP.
 Job cpu time:       0 days  0 hours  1 minutes  5.0 seconds.
 File lengths (MBytes):  RWF=     40 Int=      0 D2E=      0 Chk=      1 Scr=      1
 Normal termination of Gaussian 09 at Mon Oct  9 12:02:30 2017.
