 Entering Gaussian System, Link 0=/usr/local/gaussian/2009-E.01/g09/g09
 Initial command:
 /usr/local/gaussian/2009-E.01/g09/l1.exe "/lustre/scratch/eerd/4986703.achilles/Gau-166422.inp" -scrdir="/lustre/scratch/eerd/4986703.achilles/"
 Entering Link 1 = /usr/local/gaussian/2009-E.01/g09/l1.exe PID=    166424.
  
 Copyright (c) 1988,1990,1992,1993,1995,1998,2003,2009,2015,
            Gaussian, Inc.  All Rights Reserved.
  
 This is part of the Gaussian(R) 09 program.  It is based on
 the Gaussian(R) 03 system (copyright 2003, Gaussian, Inc.),
 the Gaussian(R) 98 system (copyright 1998, Gaussian, Inc.),
 the Gaussian(R) 94 system (copyright 1995, Gaussian, Inc.),
 the Gaussian 92(TM) system (copyright 1992, Gaussian, Inc.),
 the Gaussian 90(TM) system (copyright 1990, Gaussian, Inc.),
 the Gaussian 88(TM) system (copyright 1988, Gaussian, Inc.),
 the Gaussian 86(TM) system (copyright 1986, Carnegie Mellon
 University), and the Gaussian 82(TM) system (copyright 1983,
 Carnegie Mellon University). Gaussian is a federally registered
 trademark of Gaussian, Inc.
  
 This software contains proprietary and confidential information,
 including trade secrets, belonging to Gaussian, Inc.
  
 This software is provided under written license and may be
 used, copied, transmitted, or stored only in accord with that
 written license.
  
 The following legend is applicable only to US Government
 contracts under FAR:
  
                    RESTRICTED RIGHTS LEGEND
  
 Use, reproduction and disclosure by the US Government is
 subject to restrictions as set forth in subparagraphs (a)
 and (c) of the Commercial Computer Software - Restricted
 Rights clause in FAR 52.227-19.
  
 Gaussian, Inc.
 340 Quinnipiac St., Bldg. 40, Wallingford CT 06492
  
  
 ---------------------------------------------------------------
 Warning -- This program may not be used in any manner that
 competes with the business of Gaussian, Inc. or will provide
 assistance to any competitor of Gaussian, Inc.  The licensee
 of this program is prohibited from giving any competitor of
 Gaussian, Inc. access to this program.  By using this program,
 the user acknowledges that Gaussian, Inc. is engaged in the
 business of creating and licensing software in the field of
 computational chemistry and represents and warrants to the
 licensee that it is not a competitor of Gaussian, Inc. and that
 it will not use this program in any manner prohibited above.
 ---------------------------------------------------------------
  

 Cite this work as:
 Gaussian 09, Revision E.01,
 M. J. Frisch, G. W. Trucks, H. B. Schlegel, G. E. Scuseria, 
 M. A. Robb, J. R. Cheeseman, G. Scalmani, V. Barone, B. Mennucci, 
 G. A. Petersson, H. Nakatsuji, M. Caricato, X. Li, H. P. Hratchian, 
 A. F. Izmaylov, J. Bloino, G. Zheng, J. L. Sonnenberg, M. Hada, 
 M. Ehara, K. Toyota, R. Fukuda, J. Hasegawa, M. Ishida, T. Nakajima, 
 Y. Honda, O. Kitao, H. Nakai, T. Vreven, J. A. Montgomery, Jr., 
 J. E. Peralta, F. Ogliaro, M. Bearpark, J. J. Heyd, E. Brothers, 
 K. N. Kudin, V. N. Staroverov, T. Keith, R. Kobayashi, J. Normand, 
 K. Raghavachari, A. Rendell, J. C. Burant, S. S. Iyengar, J. Tomasi, 
 M. Cossi, N. Rega, J. M. Millam, M. Klene, J. E. Knox, J. B. Cross, 
 V. Bakken, C. Adamo, J. Jaramillo, R. Gomperts, R. E. Stratmann, 
 O. Yazyev, A. J. Austin, R. Cammi, C. Pomelli, J. W. Ochterski, 
 R. L. Martin, K. Morokuma, V. G. Zakrzewski, G. A. Voth, 
 P. Salvador, J. J. Dannenberg, S. Dapprich, A. D. Daniels, 
 O. Farkas, J. B. Foresman, J. V. Ortiz, J. Cioslowski, 
 and D. J. Fox, Gaussian, Inc., Wallingford CT, 2013.
 
 ******************************************
 Gaussian 09:  ES64L-G09RevE.01 30-Nov-2015
                10-Oct-2017 
 ******************************************
 %NProcShared=8
 Will use up to    8 processors via shared memory.
 -----------------------------------
 #p ccsd(t,maxcyc=200)/6-311++G(d,p)
 -----------------------------------
 1/38=1/1;
 2/12=2,17=6,18=5,40=1/2;
 3/5=4,6=6,7=1111,11=9,16=1,25=1,30=1/1,2,3;
 4//1;
 5/5=2,38=5/2;
 8/6=4,9=120000,10=2/1,4;
 9/5=7,6=200,14=2/13;
 6/7=2,8=2,9=2,10=2/1;
 99/5=1,9=1/99;
 Leave Link    1 at Tue Oct 10 01:19:42 2017, MaxMem=           0 cpu:         1.6
 (Enter /usr/local/gaussian/2009-E.01/g09/l101.exe)
 -------------
 ccsd(t) iener
 -------------
 Symbolic Z-matrix:
 Charge =  0 Multiplicity = 1
 C                     0.        0.        1.95604 
 C                     0.        0.        0.64637 
 C                     0.        0.       -0.64637 
 C                     0.        0.       -1.95604 
 
 NAtoms=      4 NQM=        4 NQMF=       0 NMMI=      0 NMMIF=      0
                NMic=       0 NMicF=      0.
                    Isotopes and Nuclear Properties:
 (Nuclear quadrupole moments (NQMom) in fm**2, nuclear magnetic moments (NMagM)
  in nuclear magnetons)

  Atom         1           2           3           4
 IAtWgt=          12          12          12          12
 AtmWgt=  12.0000000  12.0000000  12.0000000  12.0000000
 NucSpn=           0           0           0           0
 AtZEff=   0.0000000   0.0000000   0.0000000   0.0000000
 NQMom=    0.0000000   0.0000000   0.0000000   0.0000000
 NMagM=    0.0000000   0.0000000   0.0000000   0.0000000
 AtZNuc=   6.0000000   6.0000000   6.0000000   6.0000000
 Leave Link  101 at Tue Oct 10 01:19:42 2017, MaxMem=    33554432 cpu:         0.4
 (Enter /usr/local/gaussian/2009-E.01/g09/l202.exe)
                          Input orientation:                          
 ---------------------------------------------------------------------
 Center     Atomic      Atomic             Coordinates (Angstroms)
 Number     Number       Type             X           Y           Z
 ---------------------------------------------------------------------
      1          6           0        0.000000    0.000000    1.956044
      2          6           0        0.000000    0.000000    0.646365
      3          6           0        0.000000    0.000000   -0.646365
      4          6           0        0.000000    0.000000   -1.956044
 ---------------------------------------------------------------------
                    Distance matrix (angstroms):
                    1          2          3          4
     1  C    0.000000
     2  C    1.309679   0.000000
     3  C    2.602409   1.292730   0.000000
     4  C    3.912088   2.602409   1.309679   0.000000
 Stoichiometry    C4
 Framework group  D*H[C*(CC.CC)]
 Deg. of freedom     2
 Full point group                 D*H     NOp   8
 Largest Abelian subgroup         D2H     NOp   8
 Largest concise Abelian subgroup C2      NOp   2
                         Standard orientation:                         
 ---------------------------------------------------------------------
 Center     Atomic      Atomic             Coordinates (Angstroms)
 Number     Number       Type             X           Y           Z
 ---------------------------------------------------------------------
      1          6           0        0.000000    0.000000    1.956044
      2          6           0        0.000000    0.000000    0.646365
      3          6           0        0.000000    0.000000   -0.646365
      4          6           0        0.000000    0.000000   -1.956044
 ---------------------------------------------------------------------
 Rotational constants (GHZ):      0.0000000      4.9618227      4.9618227
 Leave Link  202 at Tue Oct 10 01:19:42 2017, MaxMem=    33554432 cpu:         2.3
 (Enter /usr/local/gaussian/2009-E.01/g09/l301.exe)
 Standard basis: 6-311++G(d,p) (5D, 7F)
 Ernie: Thresh=  0.10000D-02 Tol=  0.10000D-05 Strict=F.
 There are    24 symmetry adapted cartesian basis functions of AG  symmetry.
 There are     2 symmetry adapted cartesian basis functions of B1G symmetry.
 There are    10 symmetry adapted cartesian basis functions of B2G symmetry.
 There are    10 symmetry adapted cartesian basis functions of B3G symmetry.
 There are     2 symmetry adapted cartesian basis functions of AU  symmetry.
 There are    24 symmetry adapted cartesian basis functions of B1U symmetry.
 There are    10 symmetry adapted cartesian basis functions of B2U symmetry.
 There are    10 symmetry adapted cartesian basis functions of B3U symmetry.
 There are    22 symmetry adapted basis functions of AG  symmetry.
 There are     2 symmetry adapted basis functions of B1G symmetry.
 There are    10 symmetry adapted basis functions of B2G symmetry.
 There are    10 symmetry adapted basis functions of B3G symmetry.
 There are     2 symmetry adapted basis functions of AU  symmetry.
 There are    22 symmetry adapted basis functions of B1U symmetry.
 There are    10 symmetry adapted basis functions of B2U symmetry.
 There are    10 symmetry adapted basis functions of B3U symmetry.
    88 basis functions,   144 primitive gaussians,    92 cartesian basis functions
    12 alpha electrons       12 beta electrons
       nuclear repulsion energy        63.3384192449 Hartrees.
 IExCor=    0 DFT=F Ex=HF Corr=None ExCW=0 ScaHFX=  1.000000
 ScaDFX=  1.000000  1.000000  1.000000  1.000000 ScalE2=  1.000000  1.000000
 IRadAn=      0 IRanWt=     -1 IRanGd=            0 ICorTp=0 IEmpDi=  4
 NAtoms=    4 NActive=    4 NUniq=    2 SFac= 4.00D+00 NAtFMM=   60 NAOKFM=F Big=F
 Integral buffers will be    131072 words long.
 Raffenetti 1 integral format.
 Two-electron integral symmetry is turned on.
 Leave Link  301 at Tue Oct 10 01:19:42 2017, MaxMem=    33554432 cpu:         0.5
 (Enter /usr/local/gaussian/2009-E.01/g09/l302.exe)
 NPDir=0 NMtPBC=     1 NCelOv=     1 NCel=       1 NClECP=     1 NCelD=      1
         NCelK=      1 NCelE2=     1 NClLst=     1 CellRange=     0.0.
 One-electron integrals computed using PRISM.
 One-electron integral symmetry used in STVInt
 NBasis=    88 RedAO= T EigKep=  3.33D-06  NBF=    22     2    10    10     2    22    10    10
 NBsUse=    87 1.00D-06 EigRej=  6.69D-08 NBFU=    22     2    10    10     2    21    10    10
 Leave Link  302 at Tue Oct 10 01:19:43 2017, MaxMem=    33554432 cpu:         1.1
 (Enter /usr/local/gaussian/2009-E.01/g09/l303.exe)
 DipDrv:  MaxL=1.
 Leave Link  303 at Tue Oct 10 01:19:43 2017, MaxMem=    33554432 cpu:         0.2
 (Enter /usr/local/gaussian/2009-E.01/g09/l401.exe)
 ExpMin= 4.38D-02 ExpMax= 4.56D+03 ExpMxC= 6.82D+02 IAcc=2 IRadAn=         4 AccDes= 0.00D+00
 Harris functional with IExCor=  205 and IRadAn=       4 diagonalized for initial guess.
 HarFok:  IExCor=  205 AccDes= 0.00D+00 IRadAn=         4 IDoV= 1 UseB2=F ITyADJ=14
 ICtDFT=  3500011 ScaDFX=  1.000000  1.000000  1.000000  1.000000
 FoFCou: FMM=F IPFlag=           0 FMFlag=      100000 FMFlg1=           0
         NFxFlg=           0 DoJE=T BraDBF=F KetDBF=T FulRan=T
         wScrn=  0.000000 ICntrl=     500 IOpCl=  0 I1Cent=   200000004 NGrid=           0
         NMat0=    1 NMatS0=      1 NMatT0=    0 NMatD0=    1 NMtDS0=    0 NMtDT0=    0
 Petite list used in FoFCou.
 Harris En= -151.197424538199    
 JPrj=0 DoOrth=F DoCkMO=F.
 Initial guess orbital symmetries:
       Occupied  (SGG) (SGU) (SGU) (SGG) (SGG) (SGU) (SGG) (PIU)
                 (PIU) (SGU) (SGG) (PIG)
       Virtual   (PIG) (PIU) (PIU) (SGG) (PIG) (PIG) (SGU) (PIU)
                 (PIU) (SGG) (PIG) (PIG) (SGU) (PIU) (PIU) (SGU)
                 (SGG) (PIG) (PIG) (SGU) (SGG) (SGG) (SGU) (PIU)
                 (PIU) (SGG) (PIG) (PIG) (PIU) (PIU) (SGU) (SGG)
                 (PIG) (PIG) (SGG) (SGU) (SGU) (PIU) (PIU) (SGG)
                 (DLTG) (DLTG) (DLTU) (DLTU) (SGU) (DLTG) (DLTG)
                 (PIG) (PIG) (DLTU) (DLTU) (PIU) (PIU) (SGG) (SGU)
                 (PIG) (PIG) (SGG) (PIU) (PIU) (SGU) (PIG) (PIG)
                 (PIU) (PIU) (PIG) (PIG) (SGG) (SGU) (SGG) (SGU)
                 (SGG) (SGU) (SGG) (SGU)
 Leave Link  401 at Tue Oct 10 01:19:43 2017, MaxMem=    33554432 cpu:         1.2
 (Enter /usr/local/gaussian/2009-E.01/g09/l502.exe)
 Closed shell SCF:
 Using DIIS extrapolation, IDIIS=  1040.
 Integral symmetry usage will be decided dynamically.
 Keep R1 ints in memory in symmetry-blocked form, NReq=8778166.
 IVT=       45634 IEndB=       45634 NGot=    33554432 MDV=    32445841
 LenX=    32445841 LenY=    32436936
 Requested convergence on RMS density matrix=1.00D-08 within 128 cycles.
 Requested convergence on MAX density matrix=1.00D-06.
 Requested convergence on             energy=1.00D-06.
 No special actions if energy rises.
 FoFCou: FMM=F IPFlag=           0 FMFlag=           0 FMFlg1=           0
         NFxFlg=           0 DoJE=F BraDBF=F KetDBF=F FulRan=T
         wScrn=  0.000000 ICntrl=     600 IOpCl=  0 I1Cent=           0 NGrid=           0
         NMat0=    1 NMatS0=   3916 NMatT0=    0 NMatD0=    1 NMtDS0=    0 NMtDT0=    0
 Petite list used in FoFCou.

 Cycle   1  Pass 1  IDiag  1:
 E= -151.074515374261    
 DIIS: error= 6.59D-02 at cycle   1 NSaved=   1.
 NSaved= 1 IEnMin= 1 EnMin= -151.074515374261     IErMin= 1 ErrMin= 6.59D-02
 ErrMax= 6.59D-02  0.00D+00 EMaxC= 1.00D-01 BMatC= 2.27D-01 BMatP= 2.27D-01
 IDIUse=3 WtCom= 3.41D-01 WtEn= 6.59D-01
 Coeff-Com:  0.100D+01
 Coeff-En:   0.100D+01
 Coeff:      0.100D+01
 Gap=     0.291 Goal=   None    Shift=    0.000
 GapD=    0.291 DampG=1.000 DampE=0.500 DampFc=0.5000 IDamp=-1.
 Damping current iteration by 5.00D-01
 RMSDP=3.02D-02 MaxDP=6.48D-01              OVMax= 1.00D-01

 Cycle   2  Pass 1  IDiag  1:
 E= -151.119320365243     Delta-E=       -0.044804990983 Rises=F Damp=T
 DIIS: error= 3.54D-02 at cycle   2 NSaved=   2.
 NSaved= 2 IEnMin= 2 EnMin= -151.119320365243     IErMin= 2 ErrMin= 3.54D-02
 ErrMax= 3.54D-02  0.00D+00 EMaxC= 1.00D-01 BMatC= 6.03D-02 BMatP= 2.27D-01
 IDIUse=3 WtCom= 6.46D-01 WtEn= 3.54D-01
 Coeff-Com: -0.990D+00 0.199D+01
 Coeff-En:   0.000D+00 0.100D+01
 Coeff:     -0.639D+00 0.164D+01
 Gap=     0.286 Goal=   None    Shift=    0.000
 RMSDP=6.03D-03 MaxDP=9.01D-02 DE=-4.48D-02 OVMax= 4.35D-02

 Cycle   3  Pass 1  IDiag  1:
 E= -151.166579193033     Delta-E=       -0.047258827789 Rises=F Damp=F
 DIIS: error= 6.87D-03 at cycle   3 NSaved=   3.
 NSaved= 3 IEnMin= 3 EnMin= -151.166579193033     IErMin= 3 ErrMin= 6.87D-03
 ErrMax= 6.87D-03  0.00D+00 EMaxC= 1.00D-01 BMatC= 8.52D-04 BMatP= 6.03D-02
 IDIUse=3 WtCom= 9.31D-01 WtEn= 6.87D-02
 Coeff-Com: -0.215D+00 0.388D+00 0.827D+00
 Coeff-En:   0.000D+00 0.000D+00 0.100D+01
 Coeff:     -0.200D+00 0.361D+00 0.839D+00
 Gap=     0.291 Goal=   None    Shift=    0.000
 RMSDP=1.65D-03 MaxDP=2.41D-02 DE=-4.73D-02 OVMax= 2.04D-02

 Cycle   4  Pass 1  IDiag  1:
 E= -151.167891391083     Delta-E=       -0.001312198050 Rises=F Damp=F
 DIIS: error= 3.03D-03 at cycle   4 NSaved=   4.
 NSaved= 4 IEnMin= 4 EnMin= -151.167891391083     IErMin= 4 ErrMin= 3.03D-03
 ErrMax= 3.03D-03  0.00D+00 EMaxC= 1.00D-01 BMatC= 1.06D-04 BMatP= 8.52D-04
 IDIUse=3 WtCom= 9.70D-01 WtEn= 3.03D-02
 Coeff-Com:  0.612D-01-0.125D+00 0.114D+00 0.949D+00
 Coeff-En:   0.000D+00 0.000D+00 0.000D+00 0.100D+01
 Coeff:      0.593D-01-0.121D+00 0.111D+00 0.951D+00
 Gap=     0.294 Goal=   None    Shift=    0.000
 RMSDP=4.03D-04 MaxDP=7.81D-03 DE=-1.31D-03 OVMax= 1.08D-02

 Cycle   5  Pass 1  IDiag  1:
 E= -151.168170430001     Delta-E=       -0.000279038918 Rises=F Damp=F
 DIIS: error= 9.65D-04 at cycle   5 NSaved=   5.
 NSaved= 5 IEnMin= 5 EnMin= -151.168170430001     IErMin= 5 ErrMin= 9.65D-04
 ErrMax= 9.65D-04  0.00D+00 EMaxC= 1.00D-01 BMatC= 1.28D-05 BMatP= 1.06D-04
 IDIUse=3 WtCom= 9.90D-01 WtEn= 9.65D-03
 Coeff-Com:  0.100D-01-0.149D-01-0.145D+00-0.297D+00 0.145D+01
 Coeff-En:   0.000D+00 0.000D+00 0.000D+00 0.000D+00 0.100D+01
 Coeff:      0.994D-02-0.148D-01-0.144D+00-0.295D+00 0.144D+01
 Gap=     0.297 Goal=   None    Shift=    0.000
 RMSDP=2.64D-04 MaxDP=5.22D-03 DE=-2.79D-04 OVMax= 6.81D-03

 Cycle   6  Pass 1  IDiag  1:
 E= -151.168243432630     Delta-E=       -0.000073002629 Rises=F Damp=F
 DIIS: error= 2.43D-04 at cycle   6 NSaved=   6.
 NSaved= 6 IEnMin= 6 EnMin= -151.168243432630     IErMin= 6 ErrMin= 2.43D-04
 ErrMax= 2.43D-04  0.00D+00 EMaxC= 1.00D-01 BMatC= 8.37D-07 BMatP= 1.28D-05
 IDIUse=3 WtCom= 9.98D-01 WtEn= 2.43D-03
 Coeff-Com: -0.764D-02 0.131D-01 0.673D-01 0.667D-01-0.658D+00 0.152D+01
 Coeff-En:   0.000D+00 0.000D+00 0.000D+00 0.000D+00 0.000D+00 0.100D+01
 Coeff:     -0.763D-02 0.130D-01 0.671D-01 0.665D-01-0.657D+00 0.152D+01
 Gap=     0.297 Goal=   None    Shift=    0.000
 RMSDP=6.51D-05 MaxDP=9.08D-04 DE=-7.30D-05 OVMax= 1.62D-03

 Cycle   7  Pass 1  IDiag  1:
 E= -151.168247744080     Delta-E=       -0.000004311450 Rises=F Damp=F
 DIIS: error= 4.14D-05 at cycle   7 NSaved=   7.
 NSaved= 7 IEnMin= 7 EnMin= -151.168247744080     IErMin= 7 ErrMin= 4.14D-05
 ErrMax= 4.14D-05  0.00D+00 EMaxC= 1.00D-01 BMatC= 4.28D-08 BMatP= 8.37D-07
 IDIUse=1 WtCom= 1.00D+00 WtEn= 0.00D+00
 Coeff-Com:  0.185D-02-0.335D-02-0.114D-01-0.106D-01 0.135D+00-0.524D+00
 Coeff-Com:  0.141D+01
 Coeff:      0.185D-02-0.335D-02-0.114D-01-0.106D-01 0.135D+00-0.524D+00
 Coeff:      0.141D+01
 Gap=     0.297 Goal=   None    Shift=    0.000
 RMSDP=3.28D-05 MaxDP=5.75D-04 DE=-4.31D-06 OVMax= 2.62D-04

 Cycle   8  Pass 1  IDiag  1:
 E= -151.168247914026     Delta-E=       -0.000000169946 Rises=F Damp=F
 DIIS: error= 5.92D-06 at cycle   8 NSaved=   8.
 NSaved= 8 IEnMin= 8 EnMin= -151.168247914026     IErMin= 8 ErrMin= 5.92D-06
 ErrMax= 5.92D-06  0.00D+00 EMaxC= 1.00D-01 BMatC= 1.04D-09 BMatP= 4.28D-08
 IDIUse=1 WtCom= 1.00D+00 WtEn= 0.00D+00
 Coeff-Com: -0.208D-03 0.365D-03 0.209D-02 0.690D-03-0.213D-01 0.115D+00
 Coeff-Com: -0.414D+00 0.132D+01
 Coeff:     -0.208D-03 0.365D-03 0.209D-02 0.690D-03-0.213D-01 0.115D+00
 Coeff:     -0.414D+00 0.132D+01
 Gap=     0.297 Goal=   None    Shift=    0.000
 RMSDP=2.55D-06 MaxDP=4.57D-05 DE=-1.70D-07 OVMax= 2.18D-05

 Cycle   9  Pass 1  IDiag  1:
 E= -151.168247916055     Delta-E=       -0.000000002029 Rises=F Damp=F
 DIIS: error= 8.90D-07 at cycle   9 NSaved=   9.
 NSaved= 9 IEnMin= 9 EnMin= -151.168247916055     IErMin= 9 ErrMin= 8.90D-07
 ErrMax= 8.90D-07  0.00D+00 EMaxC= 1.00D-01 BMatC= 2.84D-11 BMatP= 1.04D-09
 IDIUse=1 WtCom= 1.00D+00 WtEn= 0.00D+00
 Coeff-Com:  0.869D-05-0.166D-04-0.763D-05 0.733D-04 0.189D-03-0.759D-02
 Coeff-Com:  0.438D-01-0.283D+00 0.125D+01
 Coeff:      0.869D-05-0.166D-04-0.763D-05 0.733D-04 0.189D-03-0.759D-02
 Coeff:      0.438D-01-0.283D+00 0.125D+01
 Gap=     0.297 Goal=   None    Shift=    0.000
 RMSDP=9.35D-07 MaxDP=1.64D-05 DE=-2.03D-09 OVMax= 2.87D-06

 Cycle  10  Pass 1  IDiag  1:
 E= -151.168247916114     Delta-E=       -0.000000000059 Rises=F Damp=F
 DIIS: error= 1.76D-07 at cycle  10 NSaved=  10.
 NSaved=10 IEnMin=10 EnMin= -151.168247916114     IErMin=10 ErrMin= 1.76D-07
 ErrMax= 1.76D-07  0.00D+00 EMaxC= 1.00D-01 BMatC= 9.55D-13 BMatP= 2.84D-11
 IDIUse=1 WtCom= 1.00D+00 WtEn= 0.00D+00
 Coeff-Com:  0.485D-05-0.871D-05-0.503D-04-0.755D-04 0.663D-03-0.190D-02
 Coeff-Com:  0.331D-02 0.211D-01-0.311D+00 0.129D+01
 Coeff:      0.485D-05-0.871D-05-0.503D-04-0.755D-04 0.663D-03-0.190D-02
 Coeff:      0.331D-02 0.211D-01-0.311D+00 0.129D+01
 Gap=     0.297 Goal=   None    Shift=    0.000
 RMSDP=2.52D-07 MaxDP=4.06D-06 DE=-5.89D-11 OVMax= 7.38D-07

 Cycle  11  Pass 1  IDiag  1:
 E= -151.168247916116     Delta-E=       -0.000000000002 Rises=F Damp=F
 DIIS: error= 1.78D-08 at cycle  11 NSaved=  11.
 NSaved=11 IEnMin=11 EnMin= -151.168247916116     IErMin=11 ErrMin= 1.78D-08
 ErrMax= 1.78D-08  0.00D+00 EMaxC= 1.00D-01 BMatC= 1.20D-14 BMatP= 9.55D-13
 IDIUse=1 WtCom= 1.00D+00 WtEn= 0.00D+00
 Coeff-Com: -0.200D-05 0.359D-05 0.154D-04 0.153D-04-0.188D-03 0.653D-03
 Coeff-Com: -0.152D-02-0.157D-02 0.627D-01-0.348D+00 0.129D+01
 Coeff:     -0.200D-05 0.359D-05 0.154D-04 0.153D-04-0.188D-03 0.653D-03
 Coeff:     -0.152D-02-0.157D-02 0.627D-01-0.348D+00 0.129D+01
 Gap=     0.297 Goal=   None    Shift=    0.000
 RMSDP=1.65D-08 MaxDP=3.30D-07 DE=-2.10D-12 OVMax= 9.73D-08

 Cycle  12  Pass 1  IDiag  1:
 E= -151.168247916116     Delta-E=       -0.000000000000 Rises=F Damp=F
 DIIS: error= 3.02D-09 at cycle  12 NSaved=  12.
 NSaved=12 IEnMin=12 EnMin= -151.168247916116     IErMin=12 ErrMin= 3.02D-09
 ErrMax= 3.02D-09  0.00D+00 EMaxC= 1.00D-01 BMatC= 3.65D-16 BMatP= 1.20D-14
 IDIUse=1 WtCom= 1.00D+00 WtEn= 0.00D+00
 Coeff-Com:  0.491D-06-0.880D-06-0.354D-05-0.291D-05 0.420D-04-0.158D-03
 Coeff-Com:  0.392D-03-0.138D-03-0.111D-01 0.789D-01-0.440D+00 0.137D+01
 Coeff:      0.491D-06-0.880D-06-0.354D-05-0.291D-05 0.420D-04-0.158D-03
 Coeff:      0.392D-03-0.138D-03-0.111D-01 0.789D-01-0.440D+00 0.137D+01
 Gap=     0.297 Goal=   None    Shift=    0.000
 RMSDP=7.15D-09 MaxDP=1.24D-07 DE=-2.27D-13 OVMax= 1.85D-08

 SCF Done:  E(RHF) =  -151.168247916     A.U. after   12 cycles
            NFock= 12  Conv=0.72D-08     -V/T= 2.0010
 KE= 1.510132459690D+02 PE=-4.781749080793D+02 EE= 1.126549949492D+02
 Leave Link  502 at Tue Oct 10 01:19:45 2017, MaxMem=    33554432 cpu:        14.1
 (Enter /usr/local/gaussian/2009-E.01/g09/l801.exe)
 Windowed orbitals will be sorted by symmetry type.
 ExpMin= 4.38D-02 ExpMax= 4.56D+03 ExpMxC= 6.82D+02 IAcc=3 IRadAn=         5 AccDes= 0.00D+00
 HarFok:  IExCor=  205 AccDes= 0.00D+00 IRadAn=         5 IDoV=-2 UseB2=F ITyADJ=14
 ICtDFT= 12500011 ScaDFX=  1.000000  1.000000  1.000000  1.000000
 Largest valence mixing into a core orbital is  1.64D-04
 Largest core mixing into a valence orbital is  5.49D-05
 Range of M.O.s used for correlation:     5    87
 NBasis=    88 NAE=    12 NBE=    12 NFC=     4 NFV=     0
 NROrb=     83 NOA=     8 NOB=     8 NVA=    75 NVB=    75

 **** Warning!!: The largest alpha MO coefficient is  0.19372532D+03

 Leave Link  801 at Tue Oct 10 01:19:45 2017, MaxMem=    33554432 cpu:         0.5
 (Enter /usr/local/gaussian/2009-E.01/g09/l804.exe)
 Closed-shell transformation, MDV=    33554432 ITran=4 ISComp=2.
 Semi-Direct transformation.
 ModeAB=           4 MOrb=             8 LenV=      33272505
 LASXX=       287254 LTotXX=      287254 LenRXX=      588299
 LTotAB=      301045 MaxLAS=     1525208 LenRXY=           0
 NonZer=      875553 LenScr=     1969152 LnRSAI=     1525208
 LnScr1=     3049472 LExtra=           0 Total=      7132131
 MaxDsk=          -1 SrtSym=           T ITran=            4
 DoSDTr:  NPSUse=  8
 JobTyp=0 Pass  1:  I=   1 to   8.
 (rs|ai) integrals will be sorted in core.
 Complete sort for first half transformation.
 First half transformation complete.
 Complete sort for second half transformation.
 Second half transformation complete.
 Spin components of T(2) and E(2):
     alpha-alpha T2 =       0.2504332699D-01 E2=     -0.5702765237D-01
     alpha-beta  T2 =       0.1561330179D+00 E2=     -0.3476463627D+00
     beta-beta   T2 =       0.2504332699D-01 E2=     -0.5702765237D-01
 ANorm=    0.1098280325D+01
 E2 =    -0.4617016674D+00 EUMP2 =    -0.15162994958355D+03
 Leave Link  804 at Tue Oct 10 01:19:45 2017, MaxMem=    33554432 cpu:         2.1
 (Enter /usr/local/gaussian/2009-E.01/g09/l913.exe)
 CIDS:  MDV=    33554432.
 Frozen-core window:  NFC=   4 NFV=   0.
 IFCWin=0 IBDFC=1 NFBD=     0     0 NFCmp=     0     0 NFFFC=     0     0
 Using DD3R+UMP44R for 1st iteration, S=T.
 Using DD4RQ for 2nd and later iterations.
 Keep R2 and R3 ints in memory in symmetry-blocked form, NReq=8734076.
 FoFCou: FMM=F IPFlag=           0 FMFlag=           0 FMFlg1=           0
         NFxFlg=           0 DoJE=F BraDBF=F KetDBF=F FulRan=T
         wScrn=  0.000000 ICntrl=     600 IOpCl=  0 I1Cent=           0 NGrid=           0
         NMat0=    1 NMatS0=   3916 NMatT0=    0 NMatD0=    1 NMtDS0=    0 NMtDT0=    0
 Petite list used in FoFCou.
 CCSD(T)
 =======
 Iterations= 200 Convergence= 0.100D-06
 Iteration Nr.   1
 **********************
 DD1Dir will call FoFMem   1 times, MxPair=        72
 NAB=    36 NAA=     0 NBB=     0.
 MP4(R+Q)=  0.17845706D-01
 Maximum subspace dimension=  5
 Norm of the A-vectors is  8.1966409D-01 conv= 1.00D-05.
 RLE energy=       -0.4673131610
 E3=       -0.23580493D-01        EUMP3=      -0.15165353008D+03
 E4(DQ)=   -0.41549431D-03        UMP4(DQ)=   -0.15165394557D+03
 E4(SDQ)=  -0.10424502D-01        UMP4(SDQ)=  -0.15166395458D+03
 VARIATIONAL ENERGIES WITH THE FIRST-ORDER WAVEFUNCTION:
 DE(Corr)= -0.46724586     E(Corr)=     -151.63549377    
 NORM(A)=   0.11076834D+01
 Iteration Nr.   2
 **********************
 DD1Dir will call FoFMem   1 times, MxPair=        72
 NAB=    36 NAA=     0 NBB=     0.
 Norm of the A-vectors is  3.8486090D-01 conv= 1.00D-05.
 RLE energy=       -0.4935026846
 DE(Corr)= -0.49097961     E(CORR)=     -151.65922752     Delta=-2.37D-02
 NORM(A)=   0.11259635D+01
 Iteration Nr.   3
 **********************
 DD1Dir will call FoFMem   1 times, MxPair=        72
 NAB=    36 NAA=     0 NBB=     0.
 Norm of the A-vectors is  1.3637249D-01 conv= 1.00D-05.
 RLE energy=       -0.4956674158
 DE(Corr)= -0.49219061     E(CORR)=     -151.66043853     Delta=-1.21D-03
 NORM(A)=   0.11323020D+01
 Iteration Nr.   4
 **********************
 DD1Dir will call FoFMem   1 times, MxPair=        72
 NAB=    36 NAA=     0 NBB=     0.
 Norm of the A-vectors is  5.7069195D-02 conv= 1.00D-05.
 RLE energy=       -0.4961484969
 DE(Corr)= -0.49578394     E(CORR)=     -151.66403186     Delta=-3.59D-03
 NORM(A)=   0.11347828D+01
 Iteration Nr.   5
 **********************
 DD1Dir will call FoFMem   1 times, MxPair=        72
 NAB=    36 NAA=     0 NBB=     0.
 Norm of the A-vectors is  1.7341745D-02 conv= 1.00D-05.
 RLE energy=       -0.4965083943
 DE(Corr)= -0.49634146     E(CORR)=     -151.66458938     Delta=-5.58D-04
 NORM(A)=   0.11355930D+01
 Iteration Nr.   6
 **********************
 DD1Dir will call FoFMem   1 times, MxPair=        72
 NAB=    36 NAA=     0 NBB=     0.
 Norm of the A-vectors is  7.7191849D-03 conv= 1.00D-05.
 RLE energy=       -0.4964245290
 DE(Corr)= -0.49643876     E(CORR)=     -151.66468667     Delta=-9.73D-05
 NORM(A)=   0.11356365D+01
 Iteration Nr.   7
 **********************
 DD1Dir will call FoFMem   1 times, MxPair=        72
 NAB=    36 NAA=     0 NBB=     0.
 Norm of the A-vectors is  3.3143409D-03 conv= 1.00D-05.
 RLE energy=       -0.4964241223
 DE(Corr)= -0.49644826     E(CORR)=     -151.66469617     Delta=-9.50D-06
 NORM(A)=   0.11356434D+01
 Iteration Nr.   8
 **********************
 DD1Dir will call FoFMem   1 times, MxPair=        72
 NAB=    36 NAA=     0 NBB=     0.
 Norm of the A-vectors is  1.7428096D-03 conv= 1.00D-05.
 RLE energy=       -0.4964428589
 DE(Corr)= -0.49644318     E(CORR)=     -151.66469109     Delta= 5.08D-06
 NORM(A)=   0.11356561D+01
 Iteration Nr.   9
 **********************
 DD1Dir will call FoFMem   1 times, MxPair=        72
 NAB=    36 NAA=     0 NBB=     0.
 Norm of the A-vectors is  8.1070382D-04 conv= 1.00D-05.
 RLE energy=       -0.4964426109
 DE(Corr)= -0.49644445     E(CORR)=     -151.66469236     Delta=-1.27D-06
 NORM(A)=   0.11356574D+01
 Iteration Nr.  10
 **********************
 DD1Dir will call FoFMem   1 times, MxPair=        72
 NAB=    36 NAA=     0 NBB=     0.
 Norm of the A-vectors is  4.8479799D-04 conv= 1.00D-05.
 RLE energy=       -0.4964452337
 DE(Corr)= -0.49644512     E(CORR)=     -151.66469304     Delta=-6.73D-07
 NORM(A)=   0.11356617D+01
 Iteration Nr.  11
 **********************
 DD1Dir will call FoFMem   1 times, MxPair=        72
 NAB=    36 NAA=     0 NBB=     0.
 Norm of the A-vectors is  2.6669539D-04 conv= 1.00D-05.
 RLE energy=       -0.4964475713
 DE(Corr)= -0.49644660     E(CORR)=     -151.66469452     Delta=-1.48D-06
 NORM(A)=   0.11356669D+01
 Iteration Nr.  12
 **********************
 DD1Dir will call FoFMem   1 times, MxPair=        72
 NAB=    36 NAA=     0 NBB=     0.
 Norm of the A-vectors is  1.4896678D-04 conv= 1.00D-05.
 RLE energy=       -0.4964475639
 DE(Corr)= -0.49644723     E(CORR)=     -151.66469515     Delta=-6.28D-07
 NORM(A)=   0.11356698D+01
 Iteration Nr.  13
 **********************
 DD1Dir will call FoFMem   1 times, MxPair=        72
 NAB=    36 NAA=     0 NBB=     0.
 Norm of the A-vectors is  6.8574225D-05 conv= 1.00D-05.
 RLE energy=       -0.4964480054
 DE(Corr)= -0.49644782     E(CORR)=     -151.66469574     Delta=-5.92D-07
 NORM(A)=   0.11356716D+01
 Iteration Nr.  14
 **********************
 DD1Dir will call FoFMem   1 times, MxPair=        72
 NAB=    36 NAA=     0 NBB=     0.
 Norm of the A-vectors is  3.8089190D-05 conv= 1.00D-05.
 RLE energy=       -0.4964482020
 DE(Corr)= -0.49644810     E(CORR)=     -151.66469601     Delta=-2.75D-07
 NORM(A)=   0.11356723D+01
 Iteration Nr.  15
 **********************
 DD1Dir will call FoFMem   1 times, MxPair=        72
 NAB=    36 NAA=     0 NBB=     0.
 Norm of the A-vectors is  2.0548330D-05 conv= 1.00D-05.
 RLE energy=       -0.4964482088
 DE(Corr)= -0.49644817     E(CORR)=     -151.66469609     Delta=-7.47D-08
 NORM(A)=   0.11356726D+01
 Iteration Nr.  16
 **********************
 DD1Dir will call FoFMem   1 times, MxPair=        72
 NAB=    36 NAA=     0 NBB=     0.
 Norm of the A-vectors is  1.1906859D-05 conv= 1.00D-05.
 RLE energy=       -0.4964482677
 DE(Corr)= -0.49644825     E(CORR)=     -151.66469617     Delta=-8.19D-08
 NORM(A)=   0.11356728D+01
 Iteration Nr.  17
 **********************
 DD1Dir will call FoFMem   1 times, MxPair=        72
 NAB=    36 NAA=     0 NBB=     0.
 Norm of the A-vectors is  5.5511650D-06 conv= 1.00D-05.
 RLE energy=       -0.4964482787
 DE(Corr)= -0.49644827     E(CORR)=     -151.66469618     Delta=-1.61D-08
 NORM(A)=   0.11356728D+01
 CI/CC converged in   17 iterations to DelEn=-1.61D-08 Conv= 1.00D-07 ErrA1= 5.55D-06 Conv= 1.00D-05
 Dominant configurations:
 ***********************
 Spin Case        I    J    A    B          Value
   ABAB          12   12   14   14      -0.108236D+00
   ABAB          11   11   13   13      -0.126983D+00
 Largest amplitude= 1.27D-01
 IPart=  2 IA=    5   10.45% done.
 IPart=  7 IA=    9   20.32% done.
 IPart=  1 IA=   14   31.86% done.
 IPart=  6 IA=   18   40.43% done.
 IPart=  3 IA=   23   50.34% done.
 IPart=  3 IA=   29   61.05% done.
 IPart=  7 IA=   35   70.45% done.
 IPart=  7 IA=   43   80.97% done.
 IPart=  3 IA=   52   90.05% done.
 Time for triples=       56.13 seconds.
 T4(CCSD)= -0.33818763D-01
 T5(CCSD)=  0.17437069D-02
 CCSD(T)= -0.15169677124D+03
 Discarding MO integrals.
 Leave Link  913 at Tue Oct 10 01:20:07 2017, MaxMem=    33554432 cpu:       163.4
 (Enter /usr/local/gaussian/2009-E.01/g09/l601.exe)
 Copying SCF densities to generalized density rwf, IOpCl= 0 IROHF=0.

 **********************************************************************

            Population analysis using the SCF density.

 **********************************************************************

 Orbital symmetries:
       Occupied  (SGG) (SGU) (SGG) (SGU) (SGG) (SGU) (SGG) (?A)
                 (SGU) (SGG) (?A) (?B)
       Virtual   (?B) (?A) (?A) (SGG) (SGU) (SGG) (?A) (?B) (?A)
                 (?B) (SGU) (?A) (?A) (SGG) (PIG) (PIG) (SGU) (PIG)
                 (PIG) (SGG) (SGU) (SGG) (SGU) (SGG) (PIU) (PIU)
                 (PIG) (PIG) (PIU) (PIU) (SGU) (SGG) (PIG) (PIG)
                 (SGU) (SGG) (SGG) (DLTG) (DLTG) (PIU) (PIU) (SGU)
                 (DLTU) (DLTU) (SGU) (DLTG) (DLTG) (PIG) (PIG)
                 (DLTU) (DLTU) (SGG) (PIU) (PIU) (SGU) (PIG) (PIG)
                 (SGG) (PIU) (PIU) (SGU) (PIG) (PIU) (PIG) (PIU)
                 (PIG) (PIG) (SGG) (SGU) (SGG) (SGU) (SGG) (SGU)
                 (SGG) (SGU)
 Unable to determine electronic state:  an orbital has unidentified symmetry.
 Alpha  occ. eigenvalues --  -11.35778 -11.35778 -11.32806 -11.32596  -1.15021
 Alpha  occ. eigenvalues --   -1.04599  -0.90267  -0.54366  -0.51999  -0.50669
 Alpha  occ. eigenvalues --   -0.49708  -0.38996
 Alpha virt. eigenvalues --   -0.09294   0.04589   0.06861   0.08190   0.10024
 Alpha virt. eigenvalues --    0.10666   0.11507   0.12776   0.12788   0.12842
 Alpha virt. eigenvalues --    0.16565   0.19253   0.19302   0.22005   0.23915
 Alpha virt. eigenvalues --    0.24271   0.29873   0.31103   0.32927   0.35240
 Alpha virt. eigenvalues --    0.41427   0.58732   0.61121   0.64156   0.65422
 Alpha virt. eigenvalues --    0.65732   0.72891   0.73093   0.77802   0.78292
 Alpha virt. eigenvalues --    0.81101   0.84273   0.86253   0.87042   1.01411
 Alpha virt. eigenvalues --    1.07697   1.19110   1.26631   1.26640   1.30051
 Alpha virt. eigenvalues --    1.30612   1.31786   1.42643   1.42646   1.47744
 Alpha virt. eigenvalues --    1.65122   1.65128   1.72692   1.74042   1.88566
 Alpha virt. eigenvalues --    1.88567   2.16355   2.16427   2.18127   2.31661
 Alpha virt. eigenvalues --    2.76695   2.78316   2.79614   2.99162   3.00334
 Alpha virt. eigenvalues --    3.13302   3.21436   3.22579   3.23450   3.24421
 Alpha virt. eigenvalues --    3.32778   3.33860   3.45961   3.67851   3.81388
 Alpha virt. eigenvalues --    4.12314  24.23323  24.64210  25.20858  26.15733
          Condensed to atoms (all electrons):
               1          2          3          4
     1  C    9.935477  -3.717200  -1.667377   1.500886
     2  C   -3.717200   9.429575   1.903216  -1.667377
     3  C   -1.667377   1.903216   9.429575  -3.717200
     4  C    1.500886  -1.667377  -3.717200   9.935477
 Mulliken charges:
               1
     1  C   -0.051786
     2  C    0.051786
     3  C    0.051786
     4  C   -0.051786
 Sum of Mulliken charges =   0.00000
 Mulliken charges with hydrogens summed into heavy atoms:
               1
     1  C   -0.051786
     2  C    0.051786
     3  C    0.051786
     4  C   -0.051786
 Electronic spatial extent (au):  <R**2>=            240.0551
 Charge=              0.0000 electrons
 Dipole moment (field-independent basis, Debye):
    X=             -0.0000    Y=             -0.0000    Z=             -0.0000  Tot=              0.0000
 Quadrupole moment (field-independent basis, Debye-Ang):
   XX=            -20.8716   YY=            -24.8193   ZZ=            -32.5800
   XY=             -0.0000   XZ=              0.0000   YZ=              0.0000
 Traceless Quadrupole moment (field-independent basis, Debye-Ang):
   XX=              5.2187   YY=              1.2710   ZZ=             -6.4897
   XY=             -0.0000   XZ=              0.0000   YZ=              0.0000
 Octapole moment (field-independent basis, Debye-Ang**2):
  XXX=             -0.0000  YYY=             -0.0000  ZZZ=             -0.0000  XYY=             -0.0000
  XXY=             -0.0000  XXZ=             -0.0000  XZZ=             -0.0000  YZZ=              0.0000
  YYZ=             -0.0000  XYZ=              0.0000
 Hexadecapole moment (field-independent basis, Debye-Ang**3):
 XXXX=            -23.3462 YYYY=            -30.9332 ZZZZ=           -446.1899 XXXY=             -0.0000
 XXXZ=              0.0000 YYYX=             -0.0000 YYYZ=             -0.0000 ZZZX=              0.0000
 ZZZY=             -0.0000 XXYY=             -9.0465 XXZZ=            -54.1146 YYZZ=            -67.6468
 XXYZ=             -0.0000 YYXZ=              0.0000 ZZXY=             -0.0000
 N-N= 6.333841924491D+01 E-N=-4.781749080816D+02  KE= 1.510132459690D+02
 Symmetry AG   KE= 7.404586090077D+01
 Symmetry B1G  KE= 3.828444576249D-34
 Symmetry B2G  KE= 1.663673111080D-31
 Symmetry B3G  KE= 2.239539880294D+00
 Symmetry AU   KE= 4.868289433347D-34
 Symmetry B1U  KE= 7.066482849626D+01
 Symmetry B2U  KE= 2.062124820024D+00
 Symmetry B3U  KE= 2.000891871680D+00
 Leave Link  601 at Tue Oct 10 01:20:07 2017, MaxMem=    33554432 cpu:         0.2
 (Enter /usr/local/gaussian/2009-E.01/g09/l9999.exe)
 1\1\ WCSS.PL-BEM-WN1424\SP\RCCSD(T)-FC\6-311++G(d,p)\C4\ROOT\10-Oct-20
 17\0\\#p ccsd(t,maxcyc=200)/6-311++G(d,p)\\ccsd(t) iener\\0,1\C,0,0.,0
 .,1.956044\C,0,0.,0.,0.646365\C,0,0.,0.,-0.646365\C,0,0.,0.,-1.956044\
 \Version=ES64L-G09RevE.01\HF=-151.1682479\MP2=-151.6299496\MP3=-151.65
 35301\MP4D=-151.6717913\MP4DQ=-151.6539456\MP4SDQ=-151.6639546\CCSD=-1
 51.6646962\CCSD(T)=-151.6967712\RMSD=7.153e-09\PG=D*H [C*(C1C1.C1C1)]\
 \@


 ABOVE ALL I AM AN OPTIMIST FOR NUMBER THEORY,
 AND I HOLD THE HOPE THAT WE MAY NOT BE FAR FROM
 A TIME WHEN IRREFUTABLE ARITHMETIC WILL CELEBRATE
 ITS TRIUMPHS IN PHYSICS AND CHEMISTRY.
   -- HERMANN MINKOWSKI, 1905
 Job cpu time:       0 days  0 hours  3 minutes 11.1 seconds.
 File lengths (MBytes):  RWF=     63 Int=      0 D2E=      0 Chk=      2 Scr=      1
 Normal termination of Gaussian 09 at Tue Oct 10 01:20:08 2017.
