 Entering Gaussian System, Link 0=/usr/local/gaussian/2009-E.01/g09/g09
 Initial command:
 /usr/local/gaussian/2009-E.01/g09/l1.exe "/lustre/scratch/eerd/4986703.achilles/Gau-157411.inp" -scrdir="/lustre/scratch/eerd/4986703.achilles/"
 Entering Link 1 = /usr/local/gaussian/2009-E.01/g09/l1.exe PID=    157413.
  
 Copyright (c) 1988,1990,1992,1993,1995,1998,2003,2009,2015,
            Gaussian, Inc.  All Rights Reserved.
  
 This is part of the Gaussian(R) 09 program.  It is based on
 the Gaussian(R) 03 system (copyright 2003, Gaussian, Inc.),
 the Gaussian(R) 98 system (copyright 1998, Gaussian, Inc.),
 the Gaussian(R) 94 system (copyright 1995, Gaussian, Inc.),
 the Gaussian 92(TM) system (copyright 1992, Gaussian, Inc.),
 the Gaussian 90(TM) system (copyright 1990, Gaussian, Inc.),
 the Gaussian 88(TM) system (copyright 1988, Gaussian, Inc.),
 the Gaussian 86(TM) system (copyright 1986, Carnegie Mellon
 University), and the Gaussian 82(TM) system (copyright 1983,
 Carnegie Mellon University). Gaussian is a federally registered
 trademark of Gaussian, Inc.
  
 This software contains proprietary and confidential information,
 including trade secrets, belonging to Gaussian, Inc.
  
 This software is provided under written license and may be
 used, copied, transmitted, or stored only in accord with that
 written license.
  
 The following legend is applicable only to US Government
 contracts under FAR:
  
                    RESTRICTED RIGHTS LEGEND
  
 Use, reproduction and disclosure by the US Government is
 subject to restrictions as set forth in subparagraphs (a)
 and (c) of the Commercial Computer Software - Restricted
 Rights clause in FAR 52.227-19.
  
 Gaussian, Inc.
 340 Quinnipiac St., Bldg. 40, Wallingford CT 06492
  
  
 ---------------------------------------------------------------
 Warning -- This program may not be used in any manner that
 competes with the business of Gaussian, Inc. or will provide
 assistance to any competitor of Gaussian, Inc.  The licensee
 of this program is prohibited from giving any competitor of
 Gaussian, Inc. access to this program.  By using this program,
 the user acknowledges that Gaussian, Inc. is engaged in the
 business of creating and licensing software in the field of
 computational chemistry and represents and warrants to the
 licensee that it is not a competitor of Gaussian, Inc. and that
 it will not use this program in any manner prohibited above.
 ---------------------------------------------------------------
  

 Cite this work as:
 Gaussian 09, Revision E.01,
 M. J. Frisch, G. W. Trucks, H. B. Schlegel, G. E. Scuseria, 
 M. A. Robb, J. R. Cheeseman, G. Scalmani, V. Barone, B. Mennucci, 
 G. A. Petersson, H. Nakatsuji, M. Caricato, X. Li, H. P. Hratchian, 
 A. F. Izmaylov, J. Bloino, G. Zheng, J. L. Sonnenberg, M. Hada, 
 M. Ehara, K. Toyota, R. Fukuda, J. Hasegawa, M. Ishida, T. Nakajima, 
 Y. Honda, O. Kitao, H. Nakai, T. Vreven, J. A. Montgomery, Jr., 
 J. E. Peralta, F. Ogliaro, M. Bearpark, J. J. Heyd, E. Brothers, 
 K. N. Kudin, V. N. Staroverov, T. Keith, R. Kobayashi, J. Normand, 
 K. Raghavachari, A. Rendell, J. C. Burant, S. S. Iyengar, J. Tomasi, 
 M. Cossi, N. Rega, J. M. Millam, M. Klene, J. E. Knox, J. B. Cross, 
 V. Bakken, C. Adamo, J. Jaramillo, R. Gomperts, R. E. Stratmann, 
 O. Yazyev, A. J. Austin, R. Cammi, C. Pomelli, J. W. Ochterski, 
 R. L. Martin, K. Morokuma, V. G. Zakrzewski, G. A. Voth, 
 P. Salvador, J. J. Dannenberg, S. Dapprich, A. D. Daniels, 
 O. Farkas, J. B. Foresman, J. V. Ortiz, J. Cioslowski, 
 and D. J. Fox, Gaussian, Inc., Wallingford CT, 2013.
 
 ******************************************
 Gaussian 09:  ES64L-G09RevE.01 30-Nov-2015
                 9-Oct-2017 
 ******************************************
 %NProcShared=8
 Will use up to    8 processors via shared memory.
 -----------------------------------
 #p ccsd(t,maxcyc=200)/6-311++G(d,p)
 -----------------------------------
 1/38=1/1;
 2/12=2,17=6,18=5,40=1/2;
 3/5=4,6=6,7=1111,11=9,16=1,25=1,30=1/1,2,3;
 4//1;
 5/5=2,38=5/2;
 8/6=4,9=120000,10=2/1,4;
 9/5=7,6=200,14=2/13;
 6/7=2,8=2,9=2,10=2/1;
 99/5=1,9=1/99;
 Leave Link    1 at Mon Oct  9 23:09:11 2017, MaxMem=           0 cpu:         9.2
 (Enter /usr/local/gaussian/2009-E.01/g09/l101.exe)
 -------------
 ccsd(t) iener
 -------------
 Symbolic Z-matrix:
 Charge =  1 Multiplicity = 2
 O                     0.92894   1.41864   0. 
 C                     0.32366   0.25804   0. 
 C                     1.01216  -0.97525   0. 
 C                    -1.07454   0.28643   0. 
 C                    -2.285     0.28346   0. 
 H                     2.09729  -1.01443   0. 
 H                     0.4529   -1.90227   0. 
 H                     1.8998    1.35894   0. 
 H                    -3.3552    0.28655   0. 
 
 NAtoms=      9 NQM=        9 NQMF=       0 NMMI=      0 NMMIF=      0
                NMic=       0 NMicF=      0.
                    Isotopes and Nuclear Properties:
 (Nuclear quadrupole moments (NQMom) in fm**2, nuclear magnetic moments (NMagM)
  in nuclear magnetons)

  Atom         1           2           3           4           5           6           7           8           9
 IAtWgt=          16          12          12          12          12           1           1           1           1
 AtmWgt=  15.9949146  12.0000000  12.0000000  12.0000000  12.0000000   1.0078250   1.0078250   1.0078250   1.0078250
 NucSpn=           0           0           0           0           0           1           1           1           1
 AtZEff=   0.0000000   0.0000000   0.0000000   0.0000000   0.0000000   0.0000000   0.0000000   0.0000000   0.0000000
 NQMom=    0.0000000   0.0000000   0.0000000   0.0000000   0.0000000   0.0000000   0.0000000   0.0000000   0.0000000
 NMagM=    0.0000000   0.0000000   0.0000000   0.0000000   0.0000000   2.7928460   2.7928460   2.7928460   2.7928460
 AtZNuc=   8.0000000   6.0000000   6.0000000   6.0000000   6.0000000   1.0000000   1.0000000   1.0000000   1.0000000
 Leave Link  101 at Mon Oct  9 23:09:11 2017, MaxMem=    33554432 cpu:         1.7
 (Enter /usr/local/gaussian/2009-E.01/g09/l202.exe)
                          Input orientation:                          
 ---------------------------------------------------------------------
 Center     Atomic      Atomic             Coordinates (Angstroms)
 Number     Number       Type             X           Y           Z
 ---------------------------------------------------------------------
      1          8           0        0.928937    1.418636    0.000000
      2          6           0        0.323656    0.258036    0.000000
      3          6           0        1.012163   -0.975246    0.000000
      4          6           0       -1.074543    0.286432    0.000000
      5          6           0       -2.285005    0.283455    0.000000
      6          1           0        2.097290   -1.014432    0.000000
      7          1           0        0.452896   -1.902269    0.000000
      8          1           0        1.899801    1.358935    0.000000
      9          1           0       -3.355195    0.286553    0.000000
 ---------------------------------------------------------------------
                    Distance matrix (angstroms):
                    1          2          3          4          5
     1  O    0.000000
     2  C    1.308953   0.000000
     3  C    2.395328   1.412454   0.000000
     4  C    2.301264   1.398487   2.438478   0.000000
     5  C    3.408527   2.608785   3.529256   1.210466   0.000000
     6  H    2.699050   2.182877   1.085834   3.428232   4.570451
     7  H    3.354851   2.164167   1.082659   2.668985   3.503354
     8  H    0.972698   1.922553   2.497259   3.161801   4.320794
     9  H    4.431185   3.678962   4.545982   2.280652   1.070194
                    6          7          8          9
     6  H    0.000000
     7  H    1.868766   0.000000
     8  H    2.381569   3.567770   0.000000
     9  H    5.605547   4.392323   5.363300   0.000000
 Stoichiometry    C4H4O(1+,2)
 Framework group  CS[SG(C4H4O)]
 Deg. of freedom    15
 Full point group                 CS      NOp   2
 Largest Abelian subgroup         CS      NOp   2
 Largest concise Abelian subgroup C1      NOp   1
                         Standard orientation:                         
 ---------------------------------------------------------------------
 Center     Atomic      Atomic             Coordinates (Angstroms)
 Number     Number       Type             X           Y           Z
 ---------------------------------------------------------------------
      1          8           0       -1.156797    1.036629    0.000000
      2          6           0        0.000000    0.424111    0.000000
      3          6           0        1.237558    1.104902    0.000000
      4          6           0       -0.037128   -0.973883    0.000000
      5          6           0       -0.041711   -2.184340    0.000000
      6          1           0        1.283521    2.189763    0.000000
      7          1           0        2.161070    0.539856    0.000000
      8          1           0       -1.091033    2.007101    0.000000
      9          1           0       -0.051493   -3.254490    0.000000
 ---------------------------------------------------------------------
 Rotational constants (GHZ):     10.6829345      4.1265973      2.9767429
 Leave Link  202 at Mon Oct  9 23:09:12 2017, MaxMem=    33554432 cpu:         5.9
 (Enter /usr/local/gaussian/2009-E.01/g09/l301.exe)
 Standard basis: 6-311++G(d,p) (5D, 7F)
 Ernie: Thresh=  0.10000D-02 Tol=  0.10000D-05 Strict=F.
 There are   109 symmetry adapted cartesian basis functions of A'  symmetry.
 There are    34 symmetry adapted cartesian basis functions of A"  symmetry.
 There are   104 symmetry adapted basis functions of A'  symmetry.
 There are    34 symmetry adapted basis functions of A"  symmetry.
   138 basis functions,   216 primitive gaussians,   143 cartesian basis functions
    18 alpha electrons       17 beta electrons
       nuclear repulsion energy       144.0420558417 Hartrees.
 IExCor=    0 DFT=F Ex=HF Corr=None ExCW=0 ScaHFX=  1.000000
 ScaDFX=  1.000000  1.000000  1.000000  1.000000 ScalE2=  1.000000  1.000000
 IRadAn=      0 IRanWt=     -1 IRanGd=            0 ICorTp=0 IEmpDi=  4
 NAtoms=    9 NActive=    9 NUniq=    9 SFac= 1.00D+00 NAtFMM=   60 NAOKFM=F Big=F
 Integral buffers will be    131072 words long.
 Raffenetti 2 integral format.
 Two-electron integral symmetry is turned on.
 Leave Link  301 at Mon Oct  9 23:09:13 2017, MaxMem=    33554432 cpu:         7.6
 (Enter /usr/local/gaussian/2009-E.01/g09/l302.exe)
 NPDir=0 NMtPBC=     1 NCelOv=     1 NCel=       1 NClECP=     1 NCelD=      1
         NCelK=      1 NCelE2=     1 NClLst=     1 CellRange=     0.0.
 One-electron integrals computed using PRISM.
 NBasis=   138 RedAO= T EigKep=  1.46D-06  NBF=   104    34
 NBsUse=   138 1.00D-06 EigRej= -1.00D+00 NBFU=   104    34
 Leave Link  302 at Mon Oct  9 23:09:14 2017, MaxMem=    33554432 cpu:         5.4
 (Enter /usr/local/gaussian/2009-E.01/g09/l303.exe)
 DipDrv:  MaxL=1.
 Leave Link  303 at Mon Oct  9 23:09:14 2017, MaxMem=    33554432 cpu:         0.8
 (Enter /usr/local/gaussian/2009-E.01/g09/l401.exe)
 ExpMin= 3.60D-02 ExpMax= 8.59D+03 ExpMxC= 1.30D+03 IAcc=3 IRadAn=         5 AccDes= 0.00D+00
 Harris functional with IExCor=  205 and IRadAn=       5 diagonalized for initial guess.
 HarFok:  IExCor=  205 AccDes= 0.00D+00 IRadAn=         5 IDoV= 1 UseB2=F ITyADJ=14
 ICtDFT=  3500011 ScaDFX=  1.000000  1.000000  1.000000  1.000000
 FoFCou: FMM=F IPFlag=           0 FMFlag=      100000 FMFlg1=           0
         NFxFlg=           0 DoJE=T BraDBF=F KetDBF=T FulRan=T
         wScrn=  0.000000 ICntrl=     500 IOpCl=  0 I1Cent=   200000004 NGrid=           0
         NMat0=    1 NMatS0=      1 NMatT0=    0 NMatD0=    1 NMtDS0=    0 NMtDT0=    0
 Petite list used in FoFCou.
 Harris En= -228.563922348141    
 JPrj=0 DoOrth=F DoCkMO=F.
 Initial guess orbital symmetries:
 Alpha Orbitals:
       Occupied  (A') (A') (A') (A') (A') (A') (A') (A') (A') (A')
                 (A') (A') (A') (A") (A') (A") (A') (A")
       Virtual   (A") (A') (A') (A") (A') (A') (A') (A') (A") (A')
                 (A') (A') (A") (A') (A") (A') (A') (A') (A') (A")
                 (A') (A') (A') (A') (A') (A') (A') (A") (A') (A')
                 (A') (A') (A') (A') (A') (A') (A") (A') (A") (A')
                 (A') (A") (A') (A") (A') (A') (A') (A') (A') (A')
                 (A') (A') (A') (A') (A") (A") (A") (A") (A') (A')
                 (A') (A") (A') (A') (A") (A') (A") (A') (A') (A")
                 (A') (A') (A") (A') (A') (A") (A') (A') (A') (A")
                 (A") (A') (A') (A') (A') (A") (A') (A') (A') (A")
                 (A') (A') (A') (A") (A') (A') (A") (A') (A") (A')
                 (A") (A') (A') (A") (A') (A') (A') (A') (A') (A')
                 (A') (A') (A") (A') (A') (A') (A') (A') (A') (A')
 Beta  Orbitals:
       Occupied  (A') (A') (A') (A') (A') (A') (A') (A') (A') (A')
                 (A') (A') (A') (A") (A') (A") (A')
       Virtual   (A") (A") (A') (A') (A") (A') (A') (A') (A') (A")
                 (A') (A') (A') (A") (A') (A") (A') (A') (A') (A')
                 (A") (A') (A') (A') (A') (A') (A') (A') (A") (A')
                 (A') (A') (A') (A') (A') (A') (A') (A") (A') (A")
                 (A') (A') (A") (A') (A") (A') (A') (A') (A') (A')
                 (A') (A') (A') (A') (A') (A") (A") (A") (A") (A')
                 (A') (A') (A") (A') (A') (A") (A') (A") (A') (A')
                 (A") (A') (A') (A") (A') (A') (A") (A') (A') (A')
                 (A") (A") (A') (A') (A') (A') (A") (A') (A') (A')
                 (A") (A') (A') (A') (A") (A') (A') (A") (A') (A")
                 (A') (A") (A') (A') (A") (A') (A') (A') (A') (A')
                 (A') (A') (A') (A") (A') (A') (A') (A') (A') (A')
                 (A')
 The electronic state of the initial guess is 2-A".
 Initial guess <Sx>= 0.0000 <Sy>= 0.0000 <Sz>= 0.5000 <S**2>= 0.7500 S= 0.5000
 Leave Link  401 at Mon Oct  9 23:09:16 2017, MaxMem=    33554432 cpu:         9.5
 (Enter /usr/local/gaussian/2009-E.01/g09/l502.exe)
 UHF open shell SCF:
 Using DIIS extrapolation, IDIIS=  1040.
 Integral symmetry usage will be decided dynamically.
 IVT=       82159 IEndB=       82159 NGot=    33554432 MDV=    33509506
 LenX=    33509506 LenY=    33488616
 Requested convergence on RMS density matrix=1.00D-08 within 128 cycles.
 Requested convergence on MAX density matrix=1.00D-06.
 Requested convergence on             energy=1.00D-06.
 No special actions if energy rises.
 Fock matrices will be formed incrementally for  20 cycles.

 Cycle   1  Pass 0  IDiag  1:
 FoFJK:  IHMeth= 1 ICntrl=       0 DoSepK=F KAlg= 0 I1Cent=   0 FoldK=F
 IRaf= 970000000 NMat=   1 IRICut=       1 DoRegI=T DoRafI=F ISym2E= 1.
 FoFCou: FMM=F IPFlag=           0 FMFlag=      100000 FMFlg1=           0
         NFxFlg=           0 DoJE=F BraDBF=F KetDBF=F FulRan=T
         wScrn=  0.000000 ICntrl=       0 IOpCl=  1 I1Cent=           0 NGrid=           0
         NMat0=    1 NMatS0=      1 NMatT0=    0 NMatD0=    1 NMtDS0=    0 NMtDT0=    0
 Petite list used in FoFCou.
 E= -228.178301180428    
 DIIS: error= 4.30D-02 at cycle   1 NSaved=   1.
 NSaved= 1 IEnMin= 1 EnMin= -228.178301180428     IErMin= 1 ErrMin= 4.30D-02
 ErrMax= 4.30D-02  0.00D+00 EMaxC= 1.00D-01 BMatC= 1.55D+00 BMatP= 1.55D+00
 IDIUse=3 WtCom= 5.70D-01 WtEn= 4.30D-01
 Coeff-Com:  0.100D+01
 Coeff-En:   0.100D+01
 Coeff:      0.100D+01
 Gap=     0.419 Goal=   None    Shift=    0.000
 Gap=     0.313 Goal=   None    Shift=    0.000
 GapD=    0.313 DampG=1.000 DampE=0.500 DampFc=0.5000 IDamp=-1.
 Damping current iteration by 5.00D-01
 RMSDP=6.45D-02 MaxDP=4.63D+00              OVMax= 1.64D-01

 Cycle   2  Pass 0  IDiag  1:
 RMSU=  8.29D-03    CP:  1.18D+00
 E= -228.260970327985     Delta-E=       -0.082669147557 Rises=F Damp=T
 DIIS: error= 2.28D-02 at cycle   2 NSaved=   2.
 NSaved= 2 IEnMin= 2 EnMin= -228.260970327985     IErMin= 2 ErrMin= 2.28D-02
 ErrMax= 2.28D-02  0.00D+00 EMaxC= 1.00D-01 BMatC= 3.78D-01 BMatP= 1.55D+00
 IDIUse=3 WtCom= 7.72D-01 WtEn= 2.28D-01
 Coeff-Com: -0.841D+00 0.184D+01
 Coeff-En:   0.000D+00 0.100D+01
 Coeff:     -0.649D+00 0.165D+01
 Gap=     0.468 Goal=   None    Shift=    0.000
 Gap=     0.377 Goal=   None    Shift=    0.000
 RMSDP=1.31D-02 MaxDP=8.46D-01 DE=-8.27D-02 OVMax= 5.17D-02

 Cycle   3  Pass 0  IDiag  1:
 RMSU=  6.30D-03    CP:  1.11D+00  1.42D+00
 E= -228.341439872366     Delta-E=       -0.080469544381 Rises=F Damp=F
 DIIS: error= 6.57D-03 at cycle   3 NSaved=   3.
 NSaved= 3 IEnMin= 3 EnMin= -228.341439872366     IErMin= 3 ErrMin= 6.57D-03
 ErrMax= 6.57D-03  0.00D+00 EMaxC= 1.00D-01 BMatC= 1.00D-02 BMatP= 3.78D-01
 IDIUse=3 WtCom= 9.34D-01 WtEn= 6.57D-02
 Coeff-Com: -0.213D+00 0.391D+00 0.822D+00
 Coeff-En:   0.000D+00 0.000D+00 0.100D+01
 Coeff:     -0.199D+00 0.365D+00 0.833D+00
 Gap=     0.452 Goal=   None    Shift=    0.000
 Gap=     0.374 Goal=   None    Shift=    0.000
 RMSDP=4.03D-03 MaxDP=2.76D-01 DE=-8.05D-02 OVMax= 3.29D-02

 Cycle   4  Pass 0  IDiag  1:
 RMSU=  1.34D-03    CP:  1.14D+00  1.56D+00  9.80D-01
 E= -228.344437797340     Delta-E=       -0.002997924974 Rises=F Damp=F
 DIIS: error= 4.02D-03 at cycle   4 NSaved=   4.
 NSaved= 4 IEnMin= 4 EnMin= -228.344437797340     IErMin= 4 ErrMin= 4.02D-03
 ErrMax= 4.02D-03  0.00D+00 EMaxC= 1.00D-01 BMatC= 1.74D-03 BMatP= 1.00D-02
 IDIUse=3 WtCom= 9.60D-01 WtEn= 4.02D-02
 Coeff-Com: -0.190D-01 0.207D-01 0.240D+00 0.758D+00
 Coeff-En:   0.000D+00 0.000D+00 0.000D+00 0.100D+01
 Coeff:     -0.183D-01 0.199D-01 0.231D+00 0.768D+00
 Gap=     0.453 Goal=   None    Shift=    0.000
 Gap=     0.379 Goal=   None    Shift=    0.000
 RMSDP=6.30D-04 MaxDP=3.84D-02 DE=-3.00D-03 OVMax= 1.32D-02

 Cycle   5  Pass 0  IDiag  1:
 RMSU=  5.58D-04    CP:  1.13D+00  1.55D+00  1.01D+00  1.11D+00
 E= -228.345316827367     Delta-E=       -0.000879030027 Rises=F Damp=F
 DIIS: error= 2.57D-03 at cycle   5 NSaved=   5.
 NSaved= 5 IEnMin= 5 EnMin= -228.345316827367     IErMin= 5 ErrMin= 2.57D-03
 ErrMax= 2.57D-03  0.00D+00 EMaxC= 1.00D-01 BMatC= 5.14D-04 BMatP= 1.74D-03
 IDIUse=3 WtCom= 9.74D-01 WtEn= 2.57D-02
 Coeff-Com:  0.372D-01-0.651D-01-0.216D+00-0.543D-01 0.130D+01
 Coeff-En:   0.000D+00 0.000D+00 0.000D+00 0.000D+00 0.100D+01
 Coeff:      0.363D-01-0.635D-01-0.210D+00-0.529D-01 0.129D+01
 Gap=     0.458 Goal=   None    Shift=    0.000
 Gap=     0.386 Goal=   None    Shift=    0.000
 RMSDP=8.08D-04 MaxDP=5.63D-02 DE=-8.79D-04 OVMax= 1.95D-02

 Cycle   6  Pass 0  IDiag  1:
 RMSU=  2.95D-04    CP:  1.13D+00  1.54D+00  1.02D+00  1.44D+00  1.83D+00
 E= -228.345995836319     Delta-E=       -0.000679008952 Rises=F Damp=F
 DIIS: error= 1.70D-03 at cycle   6 NSaved=   6.
 NSaved= 6 IEnMin= 6 EnMin= -228.345995836319     IErMin= 6 ErrMin= 1.70D-03
 ErrMax= 1.70D-03  0.00D+00 EMaxC= 1.00D-01 BMatC= 2.04D-04 BMatP= 5.14D-04
 IDIUse=3 WtCom= 9.83D-01 WtEn= 1.70D-02
 Coeff-Com:  0.166D-03 0.277D-02-0.376D-01-0.161D+00-0.204D+00 0.140D+01
 Coeff-En:   0.000D+00 0.000D+00 0.000D+00 0.000D+00 0.000D+00 0.100D+01
 Coeff:      0.164D-03 0.273D-02-0.369D-01-0.159D+00-0.201D+00 0.139D+01
 Gap=     0.461 Goal=   None    Shift=    0.000
 Gap=     0.389 Goal=   None    Shift=    0.000
 RMSDP=7.46D-04 MaxDP=4.48D-02 DE=-6.79D-04 OVMax= 1.80D-02

 Cycle   7  Pass 0  IDiag  1:
 RMSU=  2.39D-04    CP:  1.13D+00  1.52D+00  1.00D+00  1.69D+00  2.62D+00
                    CP:  2.03D+00
 E= -228.346398437035     Delta-E=       -0.000402600716 Rises=F Damp=F
 DIIS: error= 1.43D-03 at cycle   7 NSaved=   7.
 NSaved= 7 IEnMin= 7 EnMin= -228.346398437035     IErMin= 7 ErrMin= 1.43D-03
 ErrMax= 1.43D-03  0.00D+00 EMaxC= 1.00D-01 BMatC= 1.10D-04 BMatP= 2.04D-04
 IDIUse=3 WtCom= 9.86D-01 WtEn= 1.43D-02
 Coeff-Com: -0.170D-01 0.290D-01 0.131D+00 0.115D+00-0.619D+00-0.258D+00
 Coeff-Com:  0.162D+01
 Coeff-En:   0.000D+00 0.000D+00 0.000D+00 0.000D+00 0.000D+00 0.000D+00
 Coeff-En:   0.100D+01
 Coeff:     -0.168D-01 0.286D-01 0.129D+00 0.113D+00-0.610D+00-0.254D+00
 Coeff:      0.161D+01
 Gap=     0.463 Goal=   None    Shift=    0.000
 Gap=     0.392 Goal=   None    Shift=    0.000
 RMSDP=8.08D-04 MaxDP=5.45D-02 DE=-4.03D-04 OVMax= 2.04D-02

 Cycle   8  Pass 0  IDiag  1:
 RMSU=  3.41D-04    CP:  1.13D+00  1.49D+00  9.78D-01  1.85D+00  3.00D+00
                    CP:  3.00D+00  2.02D+00
 E= -228.346701496161     Delta-E=       -0.000303059126 Rises=F Damp=F
 DIIS: error= 9.81D-04 at cycle   8 NSaved=   8.
 NSaved= 8 IEnMin= 8 EnMin= -228.346701496161     IErMin= 8 ErrMin= 9.81D-04
 ErrMax= 9.81D-04  0.00D+00 EMaxC= 1.00D-01 BMatC= 6.95D-05 BMatP= 1.10D-04
 IDIUse=3 WtCom= 9.90D-01 WtEn= 9.81D-03
 Coeff-Com: -0.276D-02 0.355D-02 0.404D-01 0.608D-01-0.118D+00-0.274D+00
 Coeff-Com:  0.179D+00 0.111D+01
 Coeff-En:   0.000D+00 0.000D+00 0.000D+00 0.000D+00 0.000D+00 0.000D+00
 Coeff-En:   0.000D+00 0.100D+01
 Coeff:     -0.274D-02 0.351D-02 0.400D-01 0.602D-01-0.117D+00-0.272D+00
 Coeff:      0.177D+00 0.111D+01
 Gap=     0.465 Goal=   None    Shift=    0.000
 Gap=     0.393 Goal=   None    Shift=    0.000
 RMSDP=4.74D-04 MaxDP=2.86D-02 DE=-3.03D-04 OVMax= 1.22D-02

 Cycle   9  Pass 0  IDiag  1:
 RMSU=  1.22D-04    CP:  1.13D+00  1.48D+00  9.74D-01  1.95D+00  3.00D+00
                    CP:  3.00D+00  2.82D+00  2.12D+00
 E= -228.346861131672     Delta-E=       -0.000159635511 Rises=F Damp=F
 DIIS: error= 8.83D-04 at cycle   9 NSaved=   9.
 NSaved= 9 IEnMin= 9 EnMin= -228.346861131672     IErMin= 9 ErrMin= 8.83D-04
 ErrMax= 8.83D-04  0.00D+00 EMaxC= 1.00D-01 BMatC= 5.46D-05 BMatP= 6.95D-05
 IDIUse=3 WtCom= 9.91D-01 WtEn= 8.83D-03
 Coeff-Com:  0.141D-01-0.246D-01-0.831D-01-0.644D-01 0.375D+00 0.287D+00
 Coeff-Com: -0.118D+01-0.563D+00 0.224D+01
 Coeff-En:   0.000D+00 0.000D+00 0.000D+00 0.000D+00 0.000D+00 0.000D+00
 Coeff-En:   0.000D+00 0.000D+00 0.100D+01
 Coeff:      0.140D-01-0.244D-01-0.823D-01-0.638D-01 0.371D+00 0.285D+00
 Coeff:     -0.117D+01-0.558D+00 0.223D+01
 Gap=     0.467 Goal=   None    Shift=    0.000
 Gap=     0.394 Goal=   None    Shift=    0.000
 RMSDP=8.96D-04 MaxDP=5.88D-02 DE=-1.60D-04 OVMax= 2.31D-02

 Cycle  10  Pass 0  IDiag  1:
 RMSU=  5.40D-04    CP:  1.13D+00  1.46D+00  9.71D-01  2.11D+00  3.00D+00
                    CP:  3.00D+00  3.00D+00  3.00D+00  2.84D+00
 E= -228.347128221776     Delta-E=       -0.000267090104 Rises=F Damp=F
 DIIS: error= 7.48D-04 at cycle  10 NSaved=  10.
 NSaved=10 IEnMin=10 EnMin= -228.347128221776     IErMin=10 ErrMin= 7.48D-04
 ErrMax= 7.48D-04  0.00D+00 EMaxC= 1.00D-01 BMatC= 3.97D-05 BMatP= 5.46D-05
 IDIUse=3 WtCom= 9.93D-01 WtEn= 7.48D-03
 Coeff-Com: -0.137D-01 0.246D-01 0.821D-01 0.596D-01-0.461D+00 0.477D-03
 Coeff-Com:  0.139D+01-0.108D+01-0.186D+01 0.286D+01
 Coeff-En:   0.000D+00 0.000D+00 0.000D+00 0.000D+00 0.000D+00 0.000D+00
 Coeff-En:   0.000D+00 0.000D+00 0.000D+00 0.100D+01
 Coeff:     -0.136D-01 0.244D-01 0.815D-01 0.591D-01-0.458D+00 0.473D-03
 Coeff:      0.138D+01-0.107D+01-0.185D+01 0.285D+01
 Gap=     0.471 Goal=   None    Shift=    0.000
 Gap=     0.396 Goal=   None    Shift=    0.000
 RMSDP=1.24D-03 MaxDP=8.70D-02 DE=-2.67D-04 OVMax= 2.96D-02

 Cycle  11  Pass 0  IDiag  1:
 RMSU=  3.87D-04    CP:  1.13D+00  1.43D+00  9.68D-01  2.30D+00  3.00D+00
                    CP:  3.00D+00  3.00D+00  3.00D+00  3.00D+00  3.00D+00
 E= -228.347416033216     Delta-E=       -0.000287811440 Rises=F Damp=F
 DIIS: error= 4.00D-04 at cycle  11 NSaved=  11.
 NSaved=11 IEnMin=11 EnMin= -228.347416033216     IErMin=11 ErrMin= 4.00D-04
 ErrMax= 4.00D-04  0.00D+00 EMaxC= 1.00D-01 BMatC= 2.18D-05 BMatP= 3.97D-05
 IDIUse=3 WtCom= 9.96D-01 WtEn= 4.00D-03
 Coeff-Com:  0.201D-02-0.399D-02-0.181D-01 0.563D-02 0.134D+00-0.160D+00
 Coeff-Com: -0.536D+00 0.140D+01 0.519D+00-0.295D+01 0.262D+01
 Coeff-En:   0.000D+00 0.000D+00 0.000D+00 0.000D+00 0.000D+00 0.000D+00
 Coeff-En:   0.000D+00 0.000D+00 0.000D+00 0.000D+00 0.100D+01
 Coeff:      0.201D-02-0.397D-02-0.180D-01 0.561D-02 0.133D+00-0.160D+00
 Coeff:     -0.534D+00 0.139D+01 0.516D+00-0.294D+01 0.261D+01
 Gap=     0.472 Goal=   None    Shift=    0.000
 Gap=     0.397 Goal=   None    Shift=    0.000
 RMSDP=8.14D-04 MaxDP=5.49D-02 DE=-2.88D-04 OVMax= 1.71D-02

 Cycle  12  Pass 0  IDiag  1:
 RMSU=  6.49D-04    CP:  1.13D+00  1.42D+00  9.62D-01  2.37D+00  3.00D+00
                    CP:  3.00D+00  3.00D+00  3.00D+00  3.00D+00  3.00D+00
                    CP:  2.00D+00
 E= -228.347557443087     Delta-E=       -0.000141409871 Rises=F Damp=F
 DIIS: error= 2.25D-04 at cycle  12 NSaved=  12.
 NSaved=12 IEnMin=12 EnMin= -228.347557443087     IErMin=12 ErrMin= 2.25D-04
 ErrMax= 2.25D-04  0.00D+00 EMaxC= 1.00D-01 BMatC= 1.13D-05 BMatP= 2.18D-05
 IDIUse=3 WtCom= 9.98D-01 WtEn= 2.25D-03
 Coeff-Com:  0.535D-02-0.914D-02-0.391D-01-0.370D-01 0.193D+00 0.810D-01
 Coeff-Com: -0.399D+00-0.213D+00 0.436D+00 0.703D+00-0.198D+01 0.226D+01
 Coeff-En:   0.000D+00 0.000D+00 0.000D+00 0.000D+00 0.000D+00 0.000D+00
 Coeff-En:   0.000D+00 0.000D+00 0.000D+00 0.000D+00 0.000D+00 0.100D+01
 Coeff:      0.534D-02-0.912D-02-0.390D-01-0.369D-01 0.193D+00 0.808D-01
 Coeff:     -0.398D+00-0.212D+00 0.435D+00 0.701D+00-0.197D+01 0.225D+01
 Gap=     0.473 Goal=   None    Shift=    0.000
 Gap=     0.398 Goal=   None    Shift=    0.000
 RMSDP=4.82D-04 MaxDP=2.14D-02 DE=-1.41D-04 OVMax= 1.16D-02

 Cycle  13  Pass 0  IDiag  1:
 RMSU=  3.36D-04    CP:  1.13D+00  1.43D+00  9.59D-01  2.36D+00  3.00D+00
                    CP:  3.00D+00  3.00D+00  3.00D+00  3.00D+00  3.00D+00
                    CP:  2.45D+00  1.32D+00
 E= -228.347614728799     Delta-E=       -0.000057285712 Rises=F Damp=F
 DIIS: error= 1.66D-04 at cycle  13 NSaved=  13.
 NSaved=13 IEnMin=13 EnMin= -228.347614728799     IErMin=13 ErrMin= 1.66D-04
 ErrMax= 1.66D-04  0.00D+00 EMaxC= 1.00D-01 BMatC= 5.77D-06 BMatP= 1.13D-05
 IDIUse=3 WtCom= 9.98D-01 WtEn= 1.66D-03
 Coeff-Com: -0.466D-02 0.849D-02 0.312D-01 0.852D-02-0.178D+00 0.166D-01
 Coeff-Com:  0.570D+00-0.645D+00-0.836D+00 0.179D+01-0.842D+00-0.106D+01
 Coeff-Com:  0.214D+01
 Coeff-En:   0.000D+00 0.000D+00 0.000D+00 0.000D+00 0.000D+00 0.000D+00
 Coeff-En:   0.000D+00 0.000D+00 0.000D+00 0.000D+00 0.000D+00 0.000D+00
 Coeff-En:   0.100D+01
 Coeff:     -0.465D-02 0.848D-02 0.311D-01 0.850D-02-0.178D+00 0.166D-01
 Coeff:      0.569D+00-0.644D+00-0.835D+00 0.179D+01-0.840D+00-0.106D+01
 Coeff:      0.214D+01
 Gap=     0.473 Goal=   None    Shift=    0.000
 Gap=     0.400 Goal=   None    Shift=    0.000
 RMSDP=4.72D-04 MaxDP=1.74D-02 DE=-5.73D-05 OVMax= 1.15D-02

 Cycle  14  Pass 0  IDiag  1:
 RMSU=  6.51D-05    CP:  1.13D+00  1.44D+00  9.58D-01  2.33D+00  3.00D+00
                    CP:  3.00D+00  3.00D+00  3.00D+00  3.00D+00  3.00D+00
                    CP:  2.90D+00  1.55D+00  2.19D+00
 E= -228.347648510323     Delta-E=       -0.000033781523 Rises=F Damp=F
 DIIS: error= 1.08D-04 at cycle  14 NSaved=  14.
 NSaved=14 IEnMin=14 EnMin= -228.347648510323     IErMin=14 ErrMin= 1.08D-04
 ErrMax= 1.08D-04  0.00D+00 EMaxC= 1.00D-01 BMatC= 2.11D-06 BMatP= 5.77D-06
 IDIUse=3 WtCom= 9.99D-01 WtEn= 1.08D-03
 Coeff-Com: -0.257D-02 0.441D-02 0.171D-01 0.191D-01-0.760D-01-0.959D-02
 Coeff-Com:  0.818D-01 0.299D+00-0.193D+00-0.562D+00 0.111D+01-0.104D+01
 Coeff-Com: -0.276D+00 0.162D+01
 Coeff-En:   0.000D+00 0.000D+00 0.000D+00 0.000D+00 0.000D+00 0.000D+00
 Coeff-En:   0.000D+00 0.000D+00 0.000D+00 0.000D+00 0.000D+00 0.000D+00
 Coeff-En:   0.000D+00 0.100D+01
 Coeff:     -0.257D-02 0.440D-02 0.171D-01 0.191D-01-0.759D-01-0.958D-02
 Coeff:      0.817D-01 0.298D+00-0.193D+00-0.561D+00 0.111D+01-0.104D+01
 Coeff:     -0.275D+00 0.162D+01
 Gap=     0.473 Goal=   None    Shift=    0.000
 Gap=     0.400 Goal=   None    Shift=    0.000
 RMSDP=3.35D-04 MaxDP=2.17D-02 DE=-3.38D-05 OVMax= 5.12D-03

 Cycle  15  Pass 0  IDiag  1:
 RMSU=  4.95D-05    CP:  1.13D+00  1.44D+00  9.55D-01  2.28D+00  3.00D+00
                    CP:  3.00D+00  3.00D+00  3.00D+00  3.00D+00  3.00D+00
                    CP:  2.99D+00  1.51D+00  3.00D+00  1.43D+00
 E= -228.347657194211     Delta-E=       -0.000008683888 Rises=F Damp=F
 DIIS: error= 7.06D-05 at cycle  15 NSaved=  15.
 NSaved=15 IEnMin=15 EnMin= -228.347657194211     IErMin=15 ErrMin= 7.06D-05
 ErrMax= 7.06D-05  0.00D+00 EMaxC= 1.00D-01 BMatC= 6.66D-07 BMatP= 2.11D-06
 IDIUse=1 WtCom= 1.00D+00 WtEn= 0.00D+00
 Coeff-Com:  0.269D-02-0.480D-02-0.175D-01-0.150D-01 0.984D-01-0.333D-01
 Coeff-Com: -0.181D+00 0.327D-01 0.353D+00-0.304D+00-0.268D+00 0.878D+00
 Coeff-Com: -0.638D+00-0.714D+00 0.181D+01
 Coeff:      0.269D-02-0.480D-02-0.175D-01-0.150D-01 0.984D-01-0.333D-01
 Coeff:     -0.181D+00 0.327D-01 0.353D+00-0.304D+00-0.268D+00 0.878D+00
 Coeff:     -0.638D+00-0.714D+00 0.181D+01
 Gap=     0.473 Goal=   None    Shift=    0.000
 Gap=     0.401 Goal=   None    Shift=    0.000
 RMSDP=1.74D-04 MaxDP=8.06D-03 DE=-8.68D-06 OVMax= 4.23D-03

 Cycle  16  Pass 0  IDiag  1:
 RMSU=  8.80D-05    CP:  1.13D+00  1.44D+00  9.52D-01  2.28D+00  3.00D+00
                    CP:  3.00D+00  3.00D+00  3.00D+00  3.00D+00  3.00D+00
                    CP:  3.00D+00  1.67D+00  3.00D+00  2.00D+00  2.82D+00
 E= -228.347660209294     Delta-E=       -0.000003015083 Rises=F Damp=F
 DIIS: error= 5.76D-05 at cycle  16 NSaved=  16.
 NSaved=16 IEnMin=16 EnMin= -228.347660209294     IErMin=16 ErrMin= 5.76D-05
 ErrMax= 5.76D-05  0.00D+00 EMaxC= 1.00D-01 BMatC= 1.81D-07 BMatP= 6.66D-07
 IDIUse=1 WtCom= 1.00D+00 WtEn= 0.00D+00
 Coeff-Com: -0.102D-02 0.189D-02 0.651D-02 0.552D-02-0.489D-01 0.450D-01
 Coeff-Com:  0.102D+00-0.220D+00-0.131D+00 0.533D+00-0.372D+00-0.958D-01
 Coeff-Com:  0.506D+00-0.241D+00-0.977D+00 0.189D+01
 Coeff:     -0.102D-02 0.189D-02 0.651D-02 0.552D-02-0.489D-01 0.450D-01
 Coeff:      0.102D+00-0.220D+00-0.131D+00 0.533D+00-0.372D+00-0.958D-01
 Coeff:      0.506D+00-0.241D+00-0.977D+00 0.189D+01
 Gap=     0.473 Goal=   None    Shift=    0.000
 Gap=     0.400 Goal=   None    Shift=    0.000
 RMSDP=6.98D-05 MaxDP=5.85D-03 DE=-3.02D-06 OVMax= 1.19D-03

 Cycle  17  Pass 0  IDiag  1:
 RMSU=  4.62D-05    CP:  1.13D+00  1.45D+00  9.51D-01  2.28D+00  3.00D+00
                    CP:  3.00D+00  3.00D+00  3.00D+00  3.00D+00  3.00D+00
                    CP:  3.00D+00  1.64D+00  3.00D+00  2.16D+00  3.00D+00
                    CP:  1.10D+00
 E= -228.347660641491     Delta-E=       -0.000000432197 Rises=F Damp=F
 DIIS: error= 1.35D-05 at cycle  17 NSaved=  17.
 NSaved=17 IEnMin=17 EnMin= -228.347660641491     IErMin=17 ErrMin= 1.35D-05
 ErrMax= 1.35D-05  0.00D+00 EMaxC= 1.00D-01 BMatC= 3.75D-08 BMatP= 1.81D-07
 IDIUse=1 WtCom= 1.00D+00 WtEn= 0.00D+00
 Coeff-Com: -0.584D-04 0.679D-04 0.189D-02 0.127D-02-0.723D-02-0.612D-02
 Coeff-Com:  0.241D-01 0.136D-02-0.157D-01-0.639D-01 0.128D+00-0.136D+00
 Coeff-Com:  0.219D-02 0.212D+00-0.159D+00-0.497D+00 0.151D+01
 Coeff:     -0.584D-04 0.679D-04 0.189D-02 0.127D-02-0.723D-02-0.612D-02
 Coeff:      0.241D-01 0.136D-02-0.157D-01-0.639D-01 0.128D+00-0.136D+00
 Coeff:      0.219D-02 0.212D+00-0.159D+00-0.497D+00 0.151D+01
 Gap=     0.473 Goal=   None    Shift=    0.000
 Gap=     0.400 Goal=   None    Shift=    0.000
 RMSDP=4.69D-05 MaxDP=2.50D-03 DE=-4.32D-07 OVMax= 1.12D-03

 Cycle  18  Pass 0  IDiag  1:
 RMSU=  1.61D-05    CP:  1.13D+00  1.44D+00  9.51D-01  2.28D+00  3.00D+00
                    CP:  3.00D+00  3.00D+00  3.00D+00  3.00D+00  3.00D+00
                    CP:  3.00D+00  1.70D+00  3.00D+00  2.31D+00  3.00D+00
                    CP:  1.34D+00  1.18D+00
 E= -228.347660755306     Delta-E=       -0.000000113816 Rises=F Damp=F
 DIIS: error= 9.57D-06 at cycle  18 NSaved=  18.
 NSaved=18 IEnMin=18 EnMin= -228.347660755306     IErMin=18 ErrMin= 9.57D-06
 ErrMax= 9.57D-06  0.00D+00 EMaxC= 1.00D-01 BMatC= 5.17D-09 BMatP= 3.75D-08
 IDIUse=1 WtCom= 1.00D+00 WtEn= 0.00D+00
 Coeff-Com:  0.161D-03-0.288D-03-0.120D-02-0.106D-02 0.750D-02-0.270D-02
 Coeff-Com: -0.191D-01 0.172D-01 0.305D-01-0.457D-01 0.745D-02 0.545D-01
 Coeff-Com: -0.711D-01-0.260D-01 0.216D+00-0.267D+00-0.177D+00 0.128D+01
 Coeff:      0.161D-03-0.288D-03-0.120D-02-0.106D-02 0.750D-02-0.270D-02
 Coeff:     -0.191D-01 0.172D-01 0.305D-01-0.457D-01 0.745D-02 0.545D-01
 Coeff:     -0.711D-01-0.260D-01 0.216D+00-0.267D+00-0.177D+00 0.128D+01
 Gap=     0.473 Goal=   None    Shift=    0.000
 Gap=     0.400 Goal=   None    Shift=    0.000
 RMSDP=1.61D-05 MaxDP=1.01D-03 DE=-1.14D-07 OVMax= 3.21D-04

 Cycle  19  Pass 0  IDiag  1:
 RMSU=  2.61D-06    CP:  1.13D+00  1.44D+00  9.50D-01  2.28D+00  3.00D+00
                    CP:  3.00D+00  3.00D+00  3.00D+00  3.00D+00  3.00D+00
                    CP:  3.00D+00  1.68D+00  3.00D+00  2.32D+00  3.00D+00
                    CP:  1.28D+00  1.30D+00  8.49D-01
 E= -228.347660773285     Delta-E=       -0.000000017979 Rises=F Damp=F
 DIIS: error= 1.03D-06 at cycle  19 NSaved=  19.
 NSaved=19 IEnMin=19 EnMin= -228.347660773285     IErMin=19 ErrMin= 1.03D-06
 ErrMax= 1.03D-06  0.00D+00 EMaxC= 1.00D-01 BMatC= 3.82D-10 BMatP= 5.17D-09
 IDIUse=1 WtCom= 1.00D+00 WtEn= 0.00D+00
 Coeff-Com: -0.312D-04 0.582D-04 0.141D-03 0.125D-03-0.107D-02 0.784D-03
 Coeff-Com:  0.336D-02-0.445D-02-0.764D-02 0.180D-01-0.142D-01-0.138D-03
 Coeff-Com:  0.164D-01-0.123D-01-0.453D-01 0.129D+00-0.108D+00-0.336D+00
 Coeff-Com:  0.136D+01
 Coeff:     -0.312D-04 0.582D-04 0.141D-03 0.125D-03-0.107D-02 0.784D-03
 Coeff:      0.336D-02-0.445D-02-0.764D-02 0.180D-01-0.142D-01-0.138D-03
 Coeff:      0.164D-01-0.123D-01-0.453D-01 0.129D+00-0.108D+00-0.336D+00
 Coeff:      0.136D+01
 Gap=     0.473 Goal=   None    Shift=    0.000
 Gap=     0.400 Goal=   None    Shift=    0.000
 RMSDP=1.76D-06 MaxDP=8.79D-05 DE=-1.80D-08 OVMax= 3.77D-05

 Initial convergence to 1.0D-05 achieved.  Increase integral accuracy.
 Cycle  20  Pass 1  IDiag  1:
 E= -228.347660773876     Delta-E=       -0.000000000590 Rises=F Damp=F
 DIIS: error= 3.52D-07 at cycle   1 NSaved=   1.
 NSaved= 1 IEnMin= 1 EnMin= -228.347660773876     IErMin= 1 ErrMin= 3.52D-07
 ErrMax= 3.52D-07  0.00D+00 EMaxC= 1.00D-01 BMatC= 6.43D-11 BMatP= 6.43D-11
 IDIUse=1 WtCom= 1.00D+00 WtEn= 0.00D+00
 Coeff-Com:  0.100D+01
 Coeff:      0.100D+01
 Gap=     0.473 Goal=   None    Shift=    0.000
 Gap=     0.400 Goal=   None    Shift=    0.000
 RMSDP=1.76D-06 MaxDP=8.79D-05 DE=-5.90D-10 OVMax= 2.11D-06

 Cycle  21  Pass 1  IDiag  1:
 RMSU=  2.00D-07    CP:  1.00D+00
 E= -228.347660773916     Delta-E=       -0.000000000041 Rises=F Damp=F
 DIIS: error= 3.72D-07 at cycle   2 NSaved=   2.
 NSaved= 2 IEnMin= 2 EnMin= -228.347660773916     IErMin= 1 ErrMin= 3.52D-07
 ErrMax= 3.72D-07  0.00D+00 EMaxC= 1.00D-01 BMatC= 2.60D-11 BMatP= 6.43D-11
 IDIUse=1 WtCom= 1.00D+00 WtEn= 0.00D+00
 Coeff-Com: -0.581D+00 0.158D+01
 Coeff:     -0.581D+00 0.158D+01
 Gap=     0.473 Goal=   None    Shift=    0.000
 Gap=     0.400 Goal=   None    Shift=    0.000
 RMSDP=3.49D-07 MaxDP=2.25D-05 DE=-4.06D-11 OVMax= 3.86D-06

 Cycle  22  Pass 1  IDiag  1:
 RMSU=  1.28D-07    CP:  1.00D+00  1.75D+00
 E= -228.347660773942     Delta-E=       -0.000000000026 Rises=F Damp=F
 DIIS: error= 1.47D-07 at cycle   3 NSaved=   3.
 NSaved= 3 IEnMin= 3 EnMin= -228.347660773942     IErMin= 3 ErrMin= 1.47D-07
 ErrMax= 1.47D-07  0.00D+00 EMaxC= 1.00D-01 BMatC= 1.09D-11 BMatP= 2.60D-11
 IDIUse=1 WtCom= 1.00D+00 WtEn= 0.00D+00
 Coeff-Com: -0.671D+00 0.686D+00 0.985D+00
 Coeff:     -0.671D+00 0.686D+00 0.985D+00
 Gap=     0.473 Goal=   None    Shift=    0.000
 Gap=     0.400 Goal=   None    Shift=    0.000
 RMSDP=1.53D-07 MaxDP=7.84D-06 DE=-2.55D-11 OVMax= 2.62D-06

 Cycle  23  Pass 1  IDiag  1:
 RMSU=  4.76D-08    CP:  1.00D+00  2.24D+00  1.69D+00
 E= -228.347660773951     Delta-E=       -0.000000000009 Rises=F Damp=F
 DIIS: error= 1.39D-07 at cycle   4 NSaved=   4.
 NSaved= 4 IEnMin= 4 EnMin= -228.347660773951     IErMin= 4 ErrMin= 1.39D-07
 ErrMax= 1.39D-07  0.00D+00 EMaxC= 1.00D-01 BMatC= 1.43D-12 BMatP= 1.09D-11
 IDIUse=1 WtCom= 1.00D+00 WtEn= 0.00D+00
 Coeff-Com:  0.758D-01-0.150D+00-0.907D-01 0.116D+01
 Coeff:      0.758D-01-0.150D+00-0.907D-01 0.116D+01
 Gap=     0.473 Goal=   None    Shift=    0.000
 Gap=     0.400 Goal=   None    Shift=    0.000
 RMSDP=8.13D-08 MaxDP=4.44D-06 DE=-8.81D-12 OVMax= 1.48D-06

 Cycle  24  Pass 1  IDiag  1:
 RMSU=  2.54D-08    CP:  1.00D+00  2.33D+00  1.97D+00  1.38D+00
 E= -228.347660773953     Delta-E=       -0.000000000002 Rises=F Damp=F
 DIIS: error= 1.01D-07 at cycle   5 NSaved=   5.
 NSaved= 5 IEnMin= 5 EnMin= -228.347660773953     IErMin= 5 ErrMin= 1.01D-07
 ErrMax= 1.01D-07  0.00D+00 EMaxC= 1.00D-01 BMatC= 8.44D-13 BMatP= 1.43D-12
 IDIUse=1 WtCom= 1.00D+00 WtEn= 0.00D+00
 Coeff-Com:  0.171D+00-0.134D+00-0.298D+00-0.376D+00 0.164D+01
 Coeff:      0.171D+00-0.134D+00-0.298D+00-0.376D+00 0.164D+01
 Gap=     0.473 Goal=   None    Shift=    0.000
 Gap=     0.400 Goal=   None    Shift=    0.000
 RMSDP=5.81D-08 MaxDP=2.97D-06 DE=-1.99D-12 OVMax= 1.73D-06

 Cycle  25  Pass 1  IDiag  1:
 RMSU=  2.45D-08    CP:  1.00D+00  2.42D+00  2.12D+00  1.65D+00  2.53D+00
 E= -228.347660773955     Delta-E=       -0.000000000003 Rises=F Damp=F
 DIIS: error= 7.61D-08 at cycle   6 NSaved=   6.
 NSaved= 6 IEnMin= 6 EnMin= -228.347660773955     IErMin= 6 ErrMin= 7.61D-08
 ErrMax= 7.61D-08  0.00D+00 EMaxC= 1.00D-01 BMatC= 5.56D-13 BMatP= 8.44D-13
 IDIUse=1 WtCom= 1.00D+00 WtEn= 0.00D+00
 Coeff-Com: -0.429D-01 0.964D-01 0.237D-01-0.643D+00 0.148D+00 0.142D+01
 Coeff:     -0.429D-01 0.964D-01 0.237D-01-0.643D+00 0.148D+00 0.142D+01
 Gap=     0.473 Goal=   None    Shift=    0.000
 Gap=     0.400 Goal=   None    Shift=    0.000
 RMSDP=6.26D-08 MaxDP=4.51D-06 DE=-2.90D-12 OVMax= 1.54D-06

 Cycle  26  Pass 1  IDiag  1:
 RMSU=  3.19D-08    CP:  1.00D+00  2.51D+00  2.12D+00  1.70D+00  3.00D+00
                    CP:  2.50D+00
 E= -228.347660773957     Delta-E=       -0.000000000002 Rises=F Damp=F
 DIIS: error= 5.58D-08 at cycle   7 NSaved=   7.
 NSaved= 7 IEnMin= 7 EnMin= -228.347660773957     IErMin= 7 ErrMin= 5.58D-08
 ErrMax= 5.58D-08  0.00D+00 EMaxC= 1.00D-01 BMatC= 3.38D-13 BMatP= 5.56D-13
 IDIUse=1 WtCom= 1.00D+00 WtEn= 0.00D+00
 Coeff-Com: -0.142D+00 0.116D+00 0.237D+00 0.373D+00-0.132D+01-0.291D+00
 Coeff-Com:  0.203D+01
 Coeff:     -0.142D+00 0.116D+00 0.237D+00 0.373D+00-0.132D+01-0.291D+00
 Coeff:      0.203D+01
 Gap=     0.473 Goal=   None    Shift=    0.000
 Gap=     0.400 Goal=   None    Shift=    0.000
 RMSDP=9.35D-08 MaxDP=6.81D-06 DE=-1.82D-12 OVMax= 1.82D-06

 Cycle  27  Pass 1  IDiag  1:
 RMSU=  4.47D-08    CP:  1.00D+00  2.64D+00  1.98D+00  1.63D+00  3.00D+00
                    CP:  3.00D+00  3.00D+00
 E= -228.347660773959     Delta-E=       -0.000000000002 Rises=F Damp=F
 DIIS: error= 4.19D-08 at cycle   8 NSaved=   8.
 NSaved= 8 IEnMin= 8 EnMin= -228.347660773959     IErMin= 8 ErrMin= 4.19D-08
 ErrMax= 4.19D-08  0.00D+00 EMaxC= 1.00D-01 BMatC= 1.82D-13 BMatP= 3.38D-13
 IDIUse=1 WtCom= 1.00D+00 WtEn= 0.00D+00
 Coeff-Com:  0.598D-01-0.847D-01-0.607D-01 0.262D+00 0.167D+00-0.572D+00
 Coeff-Com: -0.366D+00 0.159D+01
 Coeff:      0.598D-01-0.847D-01-0.607D-01 0.262D+00 0.167D+00-0.572D+00
 Coeff:     -0.366D+00 0.159D+01
 Gap=     0.473 Goal=   None    Shift=    0.000
 Gap=     0.400 Goal=   None    Shift=    0.000
 RMSDP=4.74D-08 MaxDP=3.61D-06 DE=-1.93D-12 OVMax= 8.99D-07

 Cycle  28  Pass 1  IDiag  1:
 RMSU=  3.04D-08    CP:  1.00D+00  2.67D+00  1.96D+00  1.66D+00  3.00D+00
                    CP:  3.00D+00  3.00D+00  1.60D+00
 E= -228.347660773960     Delta-E=       -0.000000000001 Rises=F Damp=F
 DIIS: error= 3.02D-08 at cycle   9 NSaved=   9.
 NSaved= 9 IEnMin= 9 EnMin= -228.347660773960     IErMin= 9 ErrMin= 3.02D-08
 ErrMax= 3.02D-08  0.00D+00 EMaxC= 1.00D-01 BMatC= 1.09D-13 BMatP= 1.82D-13
 IDIUse=1 WtCom= 1.00D+00 WtEn= 0.00D+00
 Coeff-Com:  0.882D-01-0.686D-01-0.130D+00-0.401D+00 0.766D+00 0.553D+00
 Coeff-Com: -0.117D+01-0.107D+01 0.243D+01
 Coeff:      0.882D-01-0.686D-01-0.130D+00-0.401D+00 0.766D+00 0.553D+00
 Coeff:     -0.117D+01-0.107D+01 0.243D+01
 Gap=     0.473 Goal=   None    Shift=    0.000
 Gap=     0.400 Goal=   None    Shift=    0.000
 RMSDP=4.72D-08 MaxDP=1.83D-06 DE=-7.39D-13 OVMax= 1.29D-06

 Cycle  29  Pass 1  IDiag  1:
 RMSU=  1.72D-08    CP:  1.00D+00  2.68D+00  2.05D+00  1.93D+00  3.00D+00
                    CP:  3.00D+00  3.00D+00  1.95D+00  2.22D+00
 E= -228.347660773960     Delta-E=        0.000000000000 Rises=F Damp=F
 DIIS: error= 1.24D-08 at cycle  10 NSaved=  10.
 NSaved=10 IEnMin= 9 EnMin= -228.347660773960     IErMin=10 ErrMin= 1.24D-08
 ErrMax= 1.24D-08  0.00D+00 EMaxC= 1.00D-01 BMatC= 4.26D-14 BMatP= 1.09D-13
 IDIUse=1 WtCom= 1.00D+00 WtEn= 0.00D+00
 Coeff-Com: -0.981D-01 0.920D-01 0.148D+00 0.128D+00-0.718D+00 0.204D-01
 Coeff-Com:  0.121D+01-0.680D+00-0.120D+01 0.209D+01
 Coeff:     -0.981D-01 0.920D-01 0.148D+00 0.128D+00-0.718D+00 0.204D-01
 Coeff:      0.121D+01-0.680D+00-0.120D+01 0.209D+01
 Gap=     0.473 Goal=   None    Shift=    0.000
 Gap=     0.400 Goal=   None    Shift=    0.000
 RMSDP=4.01D-08 MaxDP=2.24D-06 DE= 3.98D-13 OVMax= 8.62D-07

 Cycle  30  Pass 1  IDiag  1:
 RMSU=  6.05D-09    CP:  1.00D+00  2.67D+00  2.18D+00  2.18D+00  3.00D+00
                    CP:  3.00D+00  3.00D+00  1.90D+00  2.79D+00  2.46D+00
 E= -228.347660773961     Delta-E=       -0.000000000001 Rises=F Damp=F
 DIIS: error= 5.92D-09 at cycle  11 NSaved=  11.
 NSaved=11 IEnMin=11 EnMin= -228.347660773961     IErMin=11 ErrMin= 5.92D-09
 ErrMax= 5.92D-09  0.00D+00 EMaxC= 1.00D-01 BMatC= 1.17D-14 BMatP= 4.26D-14
 IDIUse=1 WtCom= 1.00D+00 WtEn= 0.00D+00
 Coeff-Com: -0.100D-01 0.631D-02 0.130D-01 0.927D-01-0.159D+00-0.947D-01
 Coeff-Com:  0.154D+00 0.262D+00-0.278D+00-0.456D+00 0.147D+01
 Coeff:     -0.100D-01 0.631D-02 0.130D-01 0.927D-01-0.159D+00-0.947D-01
 Coeff:      0.154D+00 0.262D+00-0.278D+00-0.456D+00 0.147D+01
 Gap=     0.473 Goal=   None    Shift=    0.000
 Gap=     0.400 Goal=   None    Shift=    0.000
 RMSDP=1.85D-08 MaxDP=1.24D-06 DE=-1.02D-12 OVMax= 3.38D-07

 Cycle  31  Pass 1  IDiag  1:
 RMSU=  1.86D-09    CP:  1.00D+00  2.67D+00  2.24D+00  2.27D+00  3.00D+00
                    CP:  3.00D+00  3.00D+00  1.88D+00  3.00D+00  3.00D+00
                    CP:  1.63D+00
 E= -228.347660773961     Delta-E=       -0.000000000000 Rises=F Damp=F
 DIIS: error= 4.27D-09 at cycle  12 NSaved=  12.
 NSaved=12 IEnMin=12 EnMin= -228.347660773961     IErMin=12 ErrMin= 4.27D-09
 ErrMax= 4.27D-09  0.00D+00 EMaxC= 1.00D-01 BMatC= 4.77D-15 BMatP= 1.17D-14
 IDIUse=1 WtCom= 1.00D+00 WtEn= 0.00D+00
 Coeff-Com:  0.480D-01-0.441D-01-0.726D-01-0.791D-01 0.351D+00 0.754D-01
 Coeff-Com: -0.631D+00 0.155D+00 0.756D+00-0.919D+00-0.422D+00 0.178D+01
 Coeff:      0.480D-01-0.441D-01-0.726D-01-0.791D-01 0.351D+00 0.754D-01
 Coeff:     -0.631D+00 0.155D+00 0.756D+00-0.919D+00-0.422D+00 0.178D+01
 Gap=     0.473 Goal=   None    Shift=    0.000
 Gap=     0.400 Goal=   None    Shift=    0.000
 RMSDP=1.33D-08 MaxDP=9.58D-07 DE=-1.71D-13 OVMax= 2.14D-07

 Cycle  32  Pass 1  IDiag  1:
 RMSU=  7.11D-09    CP:  1.00D+00  2.67D+00  2.29D+00  2.35D+00  3.00D+00
                    CP:  3.00D+00  3.00D+00  1.85D+00  3.00D+00  3.00D+00
                    CP:  2.12D+00  3.00D+00
 E= -228.347660773960     Delta-E=        0.000000000000 Rises=F Damp=F
 DIIS: error= 3.34D-09 at cycle  13 NSaved=  13.
 NSaved=13 IEnMin=12 EnMin= -228.347660773961     IErMin=13 ErrMin= 3.34D-09
 ErrMax= 3.34D-09  0.00D+00 EMaxC= 1.00D-01 BMatC= 1.25D-15 BMatP= 4.77D-15
 IDIUse=1 WtCom= 1.00D+00 WtEn= 0.00D+00
 Coeff-Com: -0.135D-01 0.123D-01 0.231D-01 0.182D-02-0.906D-01 0.165D-01
 Coeff-Com:  0.173D+00-0.142D+00-0.169D+00 0.446D+00-0.273D+00-0.604D+00
 Coeff-Com:  0.162D+01
 Coeff:     -0.135D-01 0.123D-01 0.231D-01 0.182D-02-0.906D-01 0.165D-01
 Coeff:      0.173D+00-0.142D+00-0.169D+00 0.446D+00-0.273D+00-0.604D+00
 Coeff:      0.162D+01
 Gap=     0.473 Goal=   None    Shift=    0.000
 Gap=     0.400 Goal=   None    Shift=    0.000
 RMSDP=5.37D-09 MaxDP=2.33D-07 DE= 4.55D-13 OVMax= 9.58D-08

 SCF Done:  E(UHF) =  -228.347660774     A.U. after   32 cycles
            NFock= 32  Conv=0.54D-08     -V/T= 2.0011
 <Sx>= 0.0000 <Sy>= 0.0000 <Sz>= 0.5000 <S**2>= 0.8974 S= 0.5712
 <L.S>= 0.000000000000E+00
 KE= 2.281053833129D+02 PE=-8.143473474189D+02 EE= 2.138522474904D+02
 Annihilation of the first spin contaminant:
 S**2 before annihilation     0.8974,   after     0.7613
 Leave Link  502 at Mon Oct  9 23:09:49 2017, MaxMem=    33554432 cpu:       241.5
 (Enter /usr/local/gaussian/2009-E.01/g09/l801.exe)
 Windowed orbitals will be sorted by symmetry type.
 ExpMin= 3.60D-02 ExpMax= 8.59D+03 ExpMxC= 1.30D+03 IAcc=3 IRadAn=         5 AccDes= 0.00D+00
 HarFok:  IExCor=  205 AccDes= 0.00D+00 IRadAn=         5 IDoV=-2 UseB2=F ITyADJ=14
 ICtDFT= 12500011 ScaDFX=  1.000000  1.000000  1.000000  1.000000
 Largest valence mixing into a core orbital is  1.24D-04
 Largest core mixing into a valence orbital is  3.42D-05
 Largest valence mixing into a core orbital is  1.39D-04
 Largest core mixing into a valence orbital is  4.31D-05
 Range of M.O.s used for correlation:     6   138
 NBasis=   138 NAE=    18 NBE=    17 NFC=     5 NFV=     0
 NROrb=    133 NOA=    13 NOB=    12 NVA=   120 NVB=   121

 **** Warning!!: The largest alpha MO coefficient is  0.38553258D+03


 **** Warning!!: The largest beta MO coefficient is  0.39110709D+03

 Leave Link  801 at Mon Oct  9 23:09:49 2017, MaxMem=    33554432 cpu:         1.2
 (Enter /usr/local/gaussian/2009-E.01/g09/l804.exe)
 Open-shell transformation, MDV=    33554432 ITran=4 ISComp=2.
 Semi-Direct transformation.
 ModeAB=           2 MOrb=            13 LenV=      32932341
 LASXX=      7556877 LTotXX=     7556877 LenRXX=     7556877
 LTotAB=     7832142 MaxLAS=    17801784 LenRXY=    17801784
 NonZer=    17903795 LenScr=    27611136 LnRSAI=           0
 LnScr1=           0 LExtra=           0 Total=     52969797
 MaxDsk=          -1 SrtSym=           F ITran=            4
 DoSDTr:  NPSUse=  8
 JobTyp=1 Pass  1:  I=   1 to  13.
 Complete sort for first half transformation.
 First half transformation complete.
 Begin second half transformation for I=  10.
 Begin second half transformation for I=  10.
 Complete sort for second half transformation.
 Second half transformation complete.
 ModeAB=           2 MOrb=            12 LenV=      32932341
 LASXX=      7100519 LTotXX=     7100519 LenRXX=    16432416
 LTotAB=     5984174 MaxLAS=    16432416 LenRXY=     5984174
 NonZer=    16526580 LenScr=    25563648 LnRSAI=           0
 LnScr1=           0 LExtra=           0 Total=     47980238
 MaxDsk=          -1 SrtSym=           F ITran=            4
 DoSDTr:  NPSUse=  8
 JobTyp=2 Pass  1:  I=   1 to  12.
 Complete sort for first half transformation.
 First half transformation complete.
 Begin second half transformation for I=  10.
 Begin second half transformation for I=  10.
 Complete sort for second half transformation.
 Second half transformation complete.
 Spin components of T(2) and E(2):
     alpha-alpha T2 =       0.3319065159D-01 E2=     -0.9676484543D-01
     alpha-beta  T2 =       0.1677107389D+00 E2=     -0.5123267319D+00
     beta-beta   T2 =       0.2784095997D-01 E2=     -0.8205376087D-01
 ANorm=    0.1108486513D+01
 E2 =    -0.6911453382D+00 EUMP2 =    -0.22903880611219D+03
 (S**2,0)=  0.89738D+00           (S**2,1)=  0.85584D+00
 E(PUHF)=      -0.22835784082D+03        E(PMP2)=      -0.22904761393D+03
 Leave Link  804 at Mon Oct  9 23:10:29 2017, MaxMem=    33554432 cpu:       297.3
 (Enter /usr/local/gaussian/2009-E.01/g09/l913.exe)
 CIDS:  MDV=    33554432.
 Frozen-core window:  NFC=   5 NFV=   0.
 IFCWin=0 IBDFC=1 NFBD=     0     0 NFCmp=     0     0 NFFFC=     0     0
 Using original routines for 1st iteration, S=T.
 Using DD4UQ or CC4UQ for 2nd and later iterations.
 Would need an additional        40232487 words for in-memory AO integral storage.
 CCSD(T)
 =======
 Iterations= 200 Convergence= 0.100D-06
 Iteration Nr.   1
 **********************
 DD1Dir will call FoFJK   5 times, MxPair=        92
 NAB=   156 NAA=    78 NBB=    66 NumPrc=  8.
 DD1Dir:  Pass   1 NRAB=    46 NRAA=     0 NRBB=     0 NR=    92.
 FoFJK:  IHMeth= 1 ICntrl=     200 DoSepK=F KAlg= 0 I1Cent=   0 FoldK=F
 IRaf= 990000000 NMat=  92 IRICut=     115 DoRegI=T DoRafI=T ISym2E=-1.
 FoFCou: FMM=F IPFlag=           0 FMFlag=      100000 FMFlg1=           0
         NFxFlg=           0 DoJE=F BraDBF=F KetDBF=F FulRan=T
         wScrn=  0.000000 ICntrl=     200 IOpCl=  0 I1Cent=           0 NGrid=           0
         NMat0=   92 NMatS0=      0 NMatT0=   46 NMatD0=   92 NMtDS0=    0 NMtDT0=    0
 Petite list used in FoFCou.
 DD1Dir:  Pass   2 NRAB=    46 NRAA=     0 NRBB=     0 NR=    92.
 DD1Dir:  Pass   3 NRAB=    46 NRAA=     0 NRBB=     0 NR=    92.
 DD1Dir:  Pass   4 NRAB=    18 NRAA=    56 NRBB=     0 NR=    92.
 DD1Dir:  Pass   5 NRAB=     0 NRAA=    22 NRBB=    66 NR=    88.
 E(PMP3)=      -0.22906751422D+03
 MP4(R+Q)=  0.15426888D-01
 Maximum subspace dimension=  5
 Norm of the A-vectors is  1.1292083D+00 conv= 1.00D-05.
 RLE energy=       -0.6978829415
 E3=       -0.22301812D-01        EUMP3=      -0.22906110792D+03
 E4(DQ)=   -0.17172358D-02        UMP4(DQ)=   -0.22906282516D+03
 E4(SDQ)=  -0.13528789D-01        UMP4(SDQ)=  -0.22907463671D+03
 VARIATIONAL ENERGIES WITH THE FIRST-ORDER WAVEFUNCTION:
 DE(Corr)= -0.69781795     E(Corr)=     -229.04547873    
 NORM(A)=   0.11159850D+01
 Iteration Nr.   2
 **********************
 DD1Dir will call FoFJK   5 times, MxPair=        92
 NAB=   156 NAA=    78 NBB=    66 NumPrc=  8.
 DD1Dir:  Pass   1 NRAB=    46 NRAA=     0 NRBB=     0 NR=    92.
 DD1Dir:  Pass   2 NRAB=    46 NRAA=     0 NRBB=     0 NR=    92.
 DD1Dir:  Pass   3 NRAB=    46 NRAA=     0 NRBB=     0 NR=    92.
 DD1Dir:  Pass   4 NRAB=    18 NRAA=    56 NRBB=     0 NR=    92.
 DD1Dir:  Pass   5 NRAB=     0 NRAA=    22 NRBB=    66 NR=    88.
 Norm of the A-vectors is  4.7597464D-01 conv= 1.00D-05.
 RLE energy=       -0.7252006742
 DE(Corr)= -0.72212098     E(CORR)=     -229.06978175     Delta=-2.43D-02
 NORM(A)=   0.11303484D+01
 Iteration Nr.   3
 **********************
 DD1Dir will call FoFJK   5 times, MxPair=        92
 NAB=   156 NAA=    78 NBB=    66 NumPrc=  8.
 DD1Dir:  Pass   1 NRAB=    46 NRAA=     0 NRBB=     0 NR=    92.
 DD1Dir:  Pass   2 NRAB=    46 NRAA=     0 NRBB=     0 NR=    92.
 DD1Dir:  Pass   3 NRAB=    46 NRAA=     0 NRBB=     0 NR=    92.
 DD1Dir:  Pass   4 NRAB=    18 NRAA=    56 NRBB=     0 NR=    92.
 DD1Dir:  Pass   5 NRAB=     0 NRAA=    22 NRBB=    66 NR=    88.
 Norm of the A-vectors is  1.5274283D-01 conv= 1.00D-05.
 RLE energy=       -0.7284354854
 DE(Corr)= -0.72443743     E(CORR)=     -229.07209820     Delta=-2.32D-03
 NORM(A)=   0.11389944D+01
 Iteration Nr.   4
 **********************
 DD1Dir will call FoFJK   5 times, MxPair=        92
 NAB=   156 NAA=    78 NBB=    66 NumPrc=  8.
 DD1Dir:  Pass   1 NRAB=    46 NRAA=     0 NRBB=     0 NR=    92.
 DD1Dir:  Pass   2 NRAB=    46 NRAA=     0 NRBB=     0 NR=    92.
 DD1Dir:  Pass   3 NRAB=    46 NRAA=     0 NRBB=     0 NR=    92.
 DD1Dir:  Pass   4 NRAB=    18 NRAA=    56 NRBB=     0 NR=    92.
 DD1Dir:  Pass   5 NRAB=     0 NRAA=    22 NRBB=    66 NR=    88.
 Norm of the A-vectors is  9.6474244D-02 conv= 1.00D-05.
 RLE energy=       -0.7297558223
 DE(Corr)= -0.72863655     E(CORR)=     -229.07629733     Delta=-4.20D-03
 NORM(A)=   0.11446764D+01
 Iteration Nr.   5
 **********************
 DD1Dir will call FoFJK   5 times, MxPair=        92
 NAB=   156 NAA=    78 NBB=    66 NumPrc=  8.
 DD1Dir:  Pass   1 NRAB=    46 NRAA=     0 NRBB=     0 NR=    92.
 DD1Dir:  Pass   2 NRAB=    46 NRAA=     0 NRBB=     0 NR=    92.
 DD1Dir:  Pass   3 NRAB=    46 NRAA=     0 NRBB=     0 NR=    92.
 DD1Dir:  Pass   4 NRAB=    18 NRAA=    56 NRBB=     0 NR=    92.
 DD1Dir:  Pass   5 NRAB=     0 NRAA=    22 NRBB=    66 NR=    88.
 Norm of the A-vectors is  4.5509144D-02 conv= 1.00D-05.
 RLE energy=       -0.7304105292
 DE(Corr)= -0.72987311     E(CORR)=     -229.07753389     Delta=-1.24D-03
 NORM(A)=   0.11480461D+01
 Iteration Nr.   6
 **********************
 DD1Dir will call FoFJK   5 times, MxPair=        92
 NAB=   156 NAA=    78 NBB=    66 NumPrc=  8.
 DD1Dir:  Pass   1 NRAB=    46 NRAA=     0 NRBB=     0 NR=    92.
 DD1Dir:  Pass   2 NRAB=    46 NRAA=     0 NRBB=     0 NR=    92.
 DD1Dir:  Pass   3 NRAB=    46 NRAA=     0 NRBB=     0 NR=    92.
 DD1Dir:  Pass   4 NRAB=    18 NRAA=    56 NRBB=     0 NR=    92.
 DD1Dir:  Pass   5 NRAB=     0 NRAA=    22 NRBB=    66 NR=    88.
 Norm of the A-vectors is  2.5627960D-02 conv= 1.00D-05.
 RLE energy=       -0.7302337313
 DE(Corr)= -0.73029478     E(CORR)=     -229.07795555     Delta=-4.22D-04
 NORM(A)=   0.11488180D+01
 Iteration Nr.   7
 **********************
 DD1Dir will call FoFJK   5 times, MxPair=        92
 NAB=   156 NAA=    78 NBB=    66 NumPrc=  8.
 DD1Dir:  Pass   1 NRAB=    46 NRAA=     0 NRBB=     0 NR=    92.
 DD1Dir:  Pass   2 NRAB=    46 NRAA=     0 NRBB=     0 NR=    92.
 DD1Dir:  Pass   3 NRAB=    46 NRAA=     0 NRBB=     0 NR=    92.
 DD1Dir:  Pass   4 NRAB=    18 NRAA=    56 NRBB=     0 NR=    92.
 DD1Dir:  Pass   5 NRAB=     0 NRAA=    22 NRBB=    66 NR=    88.
 Norm of the A-vectors is  1.2806407D-02 conv= 1.00D-05.
 RLE energy=       -0.7303247714
 DE(Corr)= -0.73037135     E(CORR)=     -229.07803212     Delta=-7.66D-05
 NORM(A)=   0.11491572D+01
 Iteration Nr.   8
 **********************
 DD1Dir will call FoFJK   5 times, MxPair=        92
 NAB=   156 NAA=    78 NBB=    66 NumPrc=  8.
 DD1Dir:  Pass   1 NRAB=    46 NRAA=     0 NRBB=     0 NR=    92.
 DD1Dir:  Pass   2 NRAB=    46 NRAA=     0 NRBB=     0 NR=    92.
 DD1Dir:  Pass   3 NRAB=    46 NRAA=     0 NRBB=     0 NR=    92.
 DD1Dir:  Pass   4 NRAB=    18 NRAA=    56 NRBB=     0 NR=    92.
 DD1Dir:  Pass   5 NRAB=     0 NRAA=    22 NRBB=    66 NR=    88.
 Norm of the A-vectors is  8.2446470D-03 conv= 1.00D-05.
 RLE energy=       -0.7303289604
 DE(Corr)= -0.73035309     E(CORR)=     -229.07801387     Delta= 1.83D-05
 NORM(A)=   0.11493122D+01
 Iteration Nr.   9
 **********************
 DD1Dir will call FoFJK   5 times, MxPair=        92
 NAB=   156 NAA=    78 NBB=    66 NumPrc=  8.
 DD1Dir:  Pass   1 NRAB=    46 NRAA=     0 NRBB=     0 NR=    92.
 DD1Dir:  Pass   2 NRAB=    46 NRAA=     0 NRBB=     0 NR=    92.
 DD1Dir:  Pass   3 NRAB=    46 NRAA=     0 NRBB=     0 NR=    92.
 DD1Dir:  Pass   4 NRAB=    18 NRAA=    56 NRBB=     0 NR=    92.
 DD1Dir:  Pass   5 NRAB=     0 NRAA=    22 NRBB=    66 NR=    88.
 Norm of the A-vectors is  5.4194050D-03 conv= 1.00D-05.
 RLE energy=       -0.7303799298
 DE(Corr)= -0.73038012     E(CORR)=     -229.07804089     Delta=-2.70D-05
 NORM(A)=   0.11493552D+01
 Iteration Nr.  10
 **********************
 DD1Dir will call FoFJK   5 times, MxPair=        92
 NAB=   156 NAA=    78 NBB=    66 NumPrc=  8.
 DD1Dir:  Pass   1 NRAB=    46 NRAA=     0 NRBB=     0 NR=    92.
 DD1Dir:  Pass   2 NRAB=    46 NRAA=     0 NRBB=     0 NR=    92.
 DD1Dir:  Pass   3 NRAB=    46 NRAA=     0 NRBB=     0 NR=    92.
 DD1Dir:  Pass   4 NRAB=    18 NRAA=    56 NRBB=     0 NR=    92.
 DD1Dir:  Pass   5 NRAB=     0 NRAA=    22 NRBB=    66 NR=    88.
 Norm of the A-vectors is  3.0191397D-03 conv= 1.00D-05.
 RLE energy=       -0.7303747351
 DE(Corr)= -0.73037164     E(CORR)=     -229.07803241     Delta= 8.48D-06
 NORM(A)=   0.11494066D+01
 Iteration Nr.  11
 **********************
 DD1Dir will call FoFJK   5 times, MxPair=        92
 NAB=   156 NAA=    78 NBB=    66 NumPrc=  8.
 DD1Dir:  Pass   1 NRAB=    46 NRAA=     0 NRBB=     0 NR=    92.
 DD1Dir:  Pass   2 NRAB=    46 NRAA=     0 NRBB=     0 NR=    92.
 DD1Dir:  Pass   3 NRAB=    46 NRAA=     0 NRBB=     0 NR=    92.
 DD1Dir:  Pass   4 NRAB=    18 NRAA=    56 NRBB=     0 NR=    92.
 DD1Dir:  Pass   5 NRAB=     0 NRAA=    22 NRBB=    66 NR=    88.
 Norm of the A-vectors is  2.1308001D-03 conv= 1.00D-05.
 RLE energy=       -0.7303927628
 DE(Corr)= -0.73039011     E(CORR)=     -229.07805089     Delta=-1.85D-05
 NORM(A)=   0.11494356D+01
 Iteration Nr.  12
 **********************
 DD1Dir will call FoFJK   5 times, MxPair=        92
 NAB=   156 NAA=    78 NBB=    66 NumPrc=  8.
 DD1Dir:  Pass   1 NRAB=    46 NRAA=     0 NRBB=     0 NR=    92.
 DD1Dir:  Pass   2 NRAB=    46 NRAA=     0 NRBB=     0 NR=    92.
 DD1Dir:  Pass   3 NRAB=    46 NRAA=     0 NRBB=     0 NR=    92.
 DD1Dir:  Pass   4 NRAB=    18 NRAA=    56 NRBB=     0 NR=    92.
 DD1Dir:  Pass   5 NRAB=     0 NRAA=    22 NRBB=    66 NR=    88.
 Norm of the A-vectors is  8.3555672D-04 conv= 1.00D-05.
 RLE energy=       -0.7303959566
 DE(Corr)= -0.73039126     E(CORR)=     -229.07805203     Delta=-1.15D-06
 NORM(A)=   0.11494709D+01
 Iteration Nr.  13
 **********************
 DD1Dir will call FoFJK   5 times, MxPair=        92
 NAB=   156 NAA=    78 NBB=    66 NumPrc=  8.
 DD1Dir:  Pass   1 NRAB=    46 NRAA=     0 NRBB=     0 NR=    92.
 DD1Dir:  Pass   2 NRAB=    46 NRAA=     0 NRBB=     0 NR=    92.
 DD1Dir:  Pass   3 NRAB=    46 NRAA=     0 NRBB=     0 NR=    92.
 DD1Dir:  Pass   4 NRAB=    18 NRAA=    56 NRBB=     0 NR=    92.
 DD1Dir:  Pass   5 NRAB=     0 NRAA=    22 NRBB=    66 NR=    88.
 Norm of the A-vectors is  6.0429197D-04 conv= 1.00D-05.
 RLE energy=       -0.7304011656
 DE(Corr)= -0.73039850     E(CORR)=     -229.07805927     Delta=-7.24D-06
 NORM(A)=   0.11494966D+01
 Iteration Nr.  14
 **********************
 DD1Dir will call FoFJK   5 times, MxPair=        92
 NAB=   156 NAA=    78 NBB=    66 NumPrc=  8.
 DD1Dir:  Pass   1 NRAB=    46 NRAA=     0 NRBB=     0 NR=    92.
 DD1Dir:  Pass   2 NRAB=    46 NRAA=     0 NRBB=     0 NR=    92.
 DD1Dir:  Pass   3 NRAB=    46 NRAA=     0 NRBB=     0 NR=    92.
 DD1Dir:  Pass   4 NRAB=    18 NRAA=    56 NRBB=     0 NR=    92.
 DD1Dir:  Pass   5 NRAB=     0 NRAA=    22 NRBB=    66 NR=    88.
 Norm of the A-vectors is  3.1146890D-04 conv= 1.00D-05.
 RLE energy=       -0.7304059818
 DE(Corr)= -0.73040269     E(CORR)=     -229.07806346     Delta=-4.19D-06
 NORM(A)=   0.11495169D+01
 Iteration Nr.  15
 **********************
 DD1Dir will call FoFJK   5 times, MxPair=        92
 NAB=   156 NAA=    78 NBB=    66 NumPrc=  8.
 DD1Dir:  Pass   1 NRAB=    46 NRAA=     0 NRBB=     0 NR=    92.
 DD1Dir:  Pass   2 NRAB=    46 NRAA=     0 NRBB=     0 NR=    92.
 DD1Dir:  Pass   3 NRAB=    46 NRAA=     0 NRBB=     0 NR=    92.
 DD1Dir:  Pass   4 NRAB=    18 NRAA=    56 NRBB=     0 NR=    92.
 DD1Dir:  Pass   5 NRAB=     0 NRAA=    22 NRBB=    66 NR=    88.
 Norm of the A-vectors is  2.1227467D-04 conv= 1.00D-05.
 RLE energy=       -0.7304067580
 DE(Corr)= -0.73040538     E(CORR)=     -229.07806616     Delta=-2.70D-06
 NORM(A)=   0.11495300D+01
 Iteration Nr.  16
 **********************
 DD1Dir will call FoFJK   5 times, MxPair=        92
 NAB=   156 NAA=    78 NBB=    66 NumPrc=  8.
 DD1Dir:  Pass   1 NRAB=    46 NRAA=     0 NRBB=     0 NR=    92.
 DD1Dir:  Pass   2 NRAB=    46 NRAA=     0 NRBB=     0 NR=    92.
 DD1Dir:  Pass   3 NRAB=    46 NRAA=     0 NRBB=     0 NR=    92.
 DD1Dir:  Pass   4 NRAB=    18 NRAA=    56 NRBB=     0 NR=    92.
 DD1Dir:  Pass   5 NRAB=     0 NRAA=    22 NRBB=    66 NR=    88.
 Norm of the A-vectors is  1.4999339D-04 conv= 1.00D-05.
 RLE energy=       -0.7304086275
 DE(Corr)= -0.73040784     E(CORR)=     -229.07806861     Delta=-2.45D-06
 NORM(A)=   0.11495348D+01
 Iteration Nr.  17
 **********************
 DD1Dir will call FoFJK   5 times, MxPair=        92
 NAB=   156 NAA=    78 NBB=    66 NumPrc=  8.
 DD1Dir:  Pass   1 NRAB=    46 NRAA=     0 NRBB=     0 NR=    92.
 DD1Dir:  Pass   2 NRAB=    46 NRAA=     0 NRBB=     0 NR=    92.
 DD1Dir:  Pass   3 NRAB=    46 NRAA=     0 NRBB=     0 NR=    92.
 DD1Dir:  Pass   4 NRAB=    18 NRAA=    56 NRBB=     0 NR=    92.
 DD1Dir:  Pass   5 NRAB=     0 NRAA=    22 NRBB=    66 NR=    88.
 Norm of the A-vectors is  9.2418297D-05 conv= 1.00D-05.
 RLE energy=       -0.7304080407
 DE(Corr)= -0.73040784     E(CORR)=     -229.07806861     Delta=-2.72D-09
 NORM(A)=   0.11495378D+01
 Iteration Nr.  18
 **********************
 DD1Dir will call FoFJK   5 times, MxPair=        92
 NAB=   156 NAA=    78 NBB=    66 NumPrc=  8.
 DD1Dir:  Pass   1 NRAB=    46 NRAA=     0 NRBB=     0 NR=    92.
 DD1Dir:  Pass   2 NRAB=    46 NRAA=     0 NRBB=     0 NR=    92.
 DD1Dir:  Pass   3 NRAB=    46 NRAA=     0 NRBB=     0 NR=    92.
 DD1Dir:  Pass   4 NRAB=    18 NRAA=    56 NRBB=     0 NR=    92.
 DD1Dir:  Pass   5 NRAB=     0 NRAA=    22 NRBB=    66 NR=    88.
 Norm of the A-vectors is  6.9451801D-05 conv= 1.00D-05.
 RLE energy=       -0.7304082351
 DE(Corr)= -0.73040841     E(CORR)=     -229.07806918     Delta=-5.70D-07
 NORM(A)=   0.11495384D+01
 Iteration Nr.  19
 **********************
 DD1Dir will call FoFJK   5 times, MxPair=        92
 NAB=   156 NAA=    78 NBB=    66 NumPrc=  8.
 DD1Dir:  Pass   1 NRAB=    46 NRAA=     0 NRBB=     0 NR=    92.
 DD1Dir:  Pass   2 NRAB=    46 NRAA=     0 NRBB=     0 NR=    92.
 DD1Dir:  Pass   3 NRAB=    46 NRAA=     0 NRBB=     0 NR=    92.
 DD1Dir:  Pass   4 NRAB=    18 NRAA=    56 NRBB=     0 NR=    92.
 DD1Dir:  Pass   5 NRAB=     0 NRAA=    22 NRBB=    66 NR=    88.
 Norm of the A-vectors is  3.8691163D-05 conv= 1.00D-05.
 RLE energy=       -0.7304081862
 DE(Corr)= -0.73040821     E(CORR)=     -229.07806898     Delta= 2.00D-07
 NORM(A)=   0.11495390D+01
 Iteration Nr.  20
 **********************
 DD1Dir will call FoFJK   5 times, MxPair=        92
 NAB=   156 NAA=    78 NBB=    66 NumPrc=  8.
 DD1Dir:  Pass   1 NRAB=    46 NRAA=     0 NRBB=     0 NR=    92.
 DD1Dir:  Pass   2 NRAB=    46 NRAA=     0 NRBB=     0 NR=    92.
 DD1Dir:  Pass   3 NRAB=    46 NRAA=     0 NRBB=     0 NR=    92.
 DD1Dir:  Pass   4 NRAB=    18 NRAA=    56 NRBB=     0 NR=    92.
 DD1Dir:  Pass   5 NRAB=     0 NRAA=    22 NRBB=    66 NR=    88.
 Norm of the A-vectors is  3.4169008D-05 conv= 1.00D-05.
 RLE energy=       -0.7304081702
 DE(Corr)= -0.73040823     E(CORR)=     -229.07806901     Delta=-2.08D-08
 NORM(A)=   0.11495394D+01
 Iteration Nr.  21
 **********************
 DD1Dir will call FoFJK   5 times, MxPair=        92
 NAB=   156 NAA=    78 NBB=    66 NumPrc=  8.
 DD1Dir:  Pass   1 NRAB=    46 NRAA=     0 NRBB=     0 NR=    92.
 DD1Dir:  Pass   2 NRAB=    46 NRAA=     0 NRBB=     0 NR=    92.
 DD1Dir:  Pass   3 NRAB=    46 NRAA=     0 NRBB=     0 NR=    92.
 DD1Dir:  Pass   4 NRAB=    18 NRAA=    56 NRBB=     0 NR=    92.
 DD1Dir:  Pass   5 NRAB=     0 NRAA=    22 NRBB=    66 NR=    88.
 Norm of the A-vectors is  1.5974817D-05 conv= 1.00D-05.
 RLE energy=       -0.7304083662
 DE(Corr)= -0.73040828     E(CORR)=     -229.07806906     Delta=-5.11D-08
 NORM(A)=   0.11495399D+01
 Iteration Nr.  22
 **********************
 DD1Dir will call FoFJK   5 times, MxPair=        92
 NAB=   156 NAA=    78 NBB=    66 NumPrc=  8.
 DD1Dir:  Pass   1 NRAB=    46 NRAA=     0 NRBB=     0 NR=    92.
 DD1Dir:  Pass   2 NRAB=    46 NRAA=     0 NRBB=     0 NR=    92.
 DD1Dir:  Pass   3 NRAB=    46 NRAA=     0 NRBB=     0 NR=    92.
 DD1Dir:  Pass   4 NRAB=    18 NRAA=    56 NRBB=     0 NR=    92.
 DD1Dir:  Pass   5 NRAB=     0 NRAA=    22 NRBB=    66 NR=    88.
 Norm of the A-vectors is  1.0247194D-05 conv= 1.00D-05.
 RLE energy=       -0.7304083613
 DE(Corr)= -0.73040833     E(CORR)=     -229.07806910     Delta=-4.35D-08
 NORM(A)=   0.11495403D+01
 Iteration Nr.  23
 **********************
 DD1Dir will call FoFJK   5 times, MxPair=        92
 NAB=   156 NAA=    78 NBB=    66 NumPrc=  8.
 DD1Dir:  Pass   1 NRAB=    46 NRAA=     0 NRBB=     0 NR=    92.
 DD1Dir:  Pass   2 NRAB=    46 NRAA=     0 NRBB=     0 NR=    92.
 DD1Dir:  Pass   3 NRAB=    46 NRAA=     0 NRBB=     0 NR=    92.
 DD1Dir:  Pass   4 NRAB=    18 NRAA=    56 NRBB=     0 NR=    92.
 DD1Dir:  Pass   5 NRAB=     0 NRAA=    22 NRBB=    66 NR=    88.
 Norm of the A-vectors is  7.6849337D-06 conv= 1.00D-05.
 RLE energy=       -0.7304084601
 DE(Corr)= -0.73040843     E(CORR)=     -229.07806920     Delta=-1.04D-07
 NORM(A)=   0.11495406D+01
 Iteration Nr.  24
 **********************
 DD1Dir will call FoFJK   5 times, MxPair=        92
 NAB=   156 NAA=    78 NBB=    66 NumPrc=  8.
 DD1Dir:  Pass   1 NRAB=    46 NRAA=     0 NRBB=     0 NR=    92.
 DD1Dir:  Pass   2 NRAB=    46 NRAA=     0 NRBB=     0 NR=    92.
 DD1Dir:  Pass   3 NRAB=    46 NRAA=     0 NRBB=     0 NR=    92.
 DD1Dir:  Pass   4 NRAB=    18 NRAA=    56 NRBB=     0 NR=    92.
 DD1Dir:  Pass   5 NRAB=     0 NRAA=    22 NRBB=    66 NR=    88.
 Norm of the A-vectors is  4.1780687D-06 conv= 1.00D-05.
 RLE energy=       -0.7304084722
 DE(Corr)= -0.73040844     E(CORR)=     -229.07806922     Delta=-1.39D-08
 NORM(A)=   0.11495408D+01
 CI/CC converged in   24 iterations to DelEn=-1.39D-08 Conv= 1.00D-07 ErrA1= 4.18D-06 Conv= 1.00D-05
 Largest amplitude= 7.80D-02
 Time for triples=    20173.42 seconds.
 T4(CCSD)= -0.34934340D-01
 T5(CCSD)=  0.25808166D-02
 CCSD(T)= -0.22911042274D+03

 S**2, projected HF & approx projected MPn energies after annihilation of
 unwanted spin states (see manual for definitions):

 spins       (S**2,0) (S**2,1)    PUHF        PMP2        PMP3        PMP4
 annihilated
 s+1         0.74331  0.74771 -228.357841 -229.047614 -229.067514
 s+1,s+2     0.75006  0.74998 -228.357400 -229.047202 -229.067141
 s+1 to s+3  0.75000  0.75000 -228.357405 -229.047206 -229.067142
 s+1 to s+4  0.75000  0.75000 -228.357405 -229.047206 -229.067142
 s+1 to s+5  0.75000  0.75000 -228.357405
 s+1 to s+6  0.75000  0.75000 -228.357405

 Discarding MO integrals.
 Leave Link  913 at Tue Oct 10 00:29:07 2017, MaxMem=    33554432 cpu:     33496.4
 (Enter /usr/local/gaussian/2009-E.01/g09/l601.exe)
 Copying SCF densities to generalized density rwf, IOpCl= 1 IROHF=0.

 **********************************************************************

            Population analysis using the SCF density.

 **********************************************************************

 Orbital symmetries:
 Alpha Orbitals:
       Occupied  (A') (A') (A') (A') (A') (A') (A') (A') (A') (A')
                 (A') (A') (A") (A') (A') (A") (A') (A")
       Virtual   (A") (A') (A') (A') (A') (A") (A') (A') (A') (A")
                 (A') (A') (A") (A") (A') (A') (A') (A') (A') (A')
                 (A") (A') (A') (A') (A') (A") (A') (A') (A') (A')
                 (A') (A') (A') (A') (A') (A') (A") (A') (A') (A")
                 (A') (A") (A') (A') (A") (A') (A') (A') (A') (A')
                 (A') (A') (A') (A") (A") (A") (A') (A") (A') (A')
                 (A') (A") (A') (A') (A") (A') (A") (A') (A') (A")
                 (A') (A') (A") (A') (A') (A') (A") (A') (A") (A")
                 (A') (A') (A') (A') (A') (A") (A') (A') (A') (A')
                 (A') (A") (A') (A') (A") (A') (A") (A') (A") (A')
                 (A") (A') (A') (A") (A') (A') (A') (A') (A') (A')
                 (A') (A') (A") (A') (A') (A') (A') (A') (A') (A')
 Beta  Orbitals:
       Occupied  (A') (A') (A') (A') (A') (A') (A') (A') (A') (A')
                 (A') (A') (A") (A') (A') (A') (A")
       Virtual   (A") (A') (A") (A') (A') (A') (A') (A') (A") (A')
                 (A") (A') (A') (A") (A') (A') (A") (A') (A') (A')
                 (A') (A') (A') (A") (A') (A') (A') (A") (A') (A')
                 (A') (A') (A') (A') (A') (A') (A') (A") (A') (A')
                 (A') (A") (A") (A') (A') (A") (A') (A') (A') (A')
                 (A') (A') (A') (A') (A") (A") (A') (A") (A") (A')
                 (A') (A') (A") (A') (A') (A") (A') (A") (A') (A')
                 (A") (A') (A') (A") (A') (A') (A") (A') (A') (A")
                 (A') (A') (A") (A') (A') (A') (A") (A') (A') (A')
                 (A') (A') (A') (A") (A') (A') (A") (A") (A') (A")
                 (A') (A") (A') (A') (A") (A') (A') (A') (A') (A')
                 (A') (A') (A') (A") (A') (A') (A') (A') (A') (A')
                 (A')
 The electronic state is 2-A".
 Alpha  occ. eigenvalues --  -20.85749 -11.62861 -11.52066 -11.49641 -11.45969
 Alpha  occ. eigenvalues --   -1.69012  -1.33750  -1.26342  -1.13856  -0.99834
 Alpha  occ. eigenvalues --   -0.94983  -0.92567  -0.85759  -0.83309  -0.80076
 Alpha  occ. eigenvalues --   -0.68028  -0.63848  -0.62506
 Alpha virt. eigenvalues --   -0.15204  -0.09847  -0.07277  -0.06432  -0.05085
 Alpha virt. eigenvalues --   -0.03373  -0.03272  -0.01932  -0.00855  -0.00700
 Alpha virt. eigenvalues --    0.00893   0.01623   0.01826   0.04296   0.04493
 Alpha virt. eigenvalues --    0.05081   0.05796   0.06943   0.07235   0.10029
 Alpha virt. eigenvalues --    0.11136   0.11150   0.12844   0.14982   0.19075
 Alpha virt. eigenvalues --    0.19414   0.19454   0.20261   0.23132   0.25628
 Alpha virt. eigenvalues --    0.26515   0.29567   0.35540   0.38499   0.43118
 Alpha virt. eigenvalues --    0.45399   0.46780   0.49928   0.51452   0.51890
 Alpha virt. eigenvalues --    0.54554   0.56872   0.60816   0.63570   0.65884
 Alpha virt. eigenvalues --    0.68141   0.70120   0.73667   0.76471   0.80538
 Alpha virt. eigenvalues --    0.83392   0.84737   0.91577   0.99320   1.01218
 Alpha virt. eigenvalues --    1.09722   1.10194   1.14600   1.16136   1.17548
 Alpha virt. eigenvalues --    1.20710   1.21996   1.26466   1.33818   1.41820
 Alpha virt. eigenvalues --    1.44925   1.46184   1.52698   1.55905   1.58726
 Alpha virt. eigenvalues --    1.62112   1.67704   1.70304   1.71345   1.80361
 Alpha virt. eigenvalues --    1.83862   1.83887   1.93115   2.01331   2.05445
 Alpha virt. eigenvalues --    2.05748   2.06583   2.21209   2.26021   2.29599
 Alpha virt. eigenvalues --    2.54643   2.60761   2.66375   2.68377   2.72760
 Alpha virt. eigenvalues --    2.74743   2.80689   2.80987   2.83468   2.90384
 Alpha virt. eigenvalues --    2.91300   3.03363   3.14419   3.15028   3.18791
 Alpha virt. eigenvalues --    3.21842   3.27446   3.35972   3.37455   3.44396
 Alpha virt. eigenvalues --    3.60675   3.67039   3.84307   3.89908   4.08956
 Alpha virt. eigenvalues --    4.29367   4.37596   5.30230   5.72391   6.08870
 Alpha virt. eigenvalues --   24.43290  24.73106  24.87299  26.07812  51.37972
  Beta  occ. eigenvalues --  -20.85475 -11.62842 -11.50368 -11.48201 -11.46984
  Beta  occ. eigenvalues --   -1.68415  -1.32052  -1.21538  -1.11577  -0.99705
  Beta  occ. eigenvalues --   -0.93658  -0.91643  -0.82875  -0.82705  -0.79401
  Beta  occ. eigenvalues --   -0.63238  -0.62914
  Beta virt. eigenvalues --   -0.22879  -0.09711  -0.08570  -0.07191  -0.06125
  Beta virt. eigenvalues --   -0.05203  -0.03432  -0.01665  -0.00823  -0.00577
  Beta virt. eigenvalues --   -0.00221   0.01233   0.02198   0.02666   0.04696
  Beta virt. eigenvalues --    0.05519   0.05779   0.06050   0.07101   0.07638
  Beta virt. eigenvalues --    0.09879   0.11160   0.13012   0.13097   0.15371
  Beta virt. eigenvalues --    0.19320   0.19727   0.19736   0.20501   0.23199
  Beta virt. eigenvalues --    0.25819   0.26952   0.29910   0.35391   0.38569
  Beta virt. eigenvalues --    0.43877   0.46914   0.49963   0.50169   0.52670
  Beta virt. eigenvalues --    0.55148   0.57226   0.59538   0.62477   0.63491
  Beta virt. eigenvalues --    0.65577   0.68691   0.70224   0.74218   0.76423
  Beta virt. eigenvalues --    0.80534   0.84242   0.85457   0.92336   1.02830
  Beta virt. eigenvalues --    1.04273   1.10511   1.10899   1.15441   1.16393
  Beta virt. eigenvalues --    1.17881   1.22094   1.24325   1.27168   1.34287
  Beta virt. eigenvalues --    1.42843   1.45220   1.46683   1.53784   1.57120
  Beta virt. eigenvalues --    1.59790   1.62660   1.67944   1.71042   1.71483
  Beta virt. eigenvalues --    1.80860   1.85073   1.85488   1.93465   2.04045
  Beta virt. eigenvalues --    2.05993   2.07200   2.07669   2.21341   2.26137
  Beta virt. eigenvalues --    2.30057   2.55398   2.61175   2.66508   2.68419
  Beta virt. eigenvalues --    2.73020   2.74646   2.81298   2.83461   2.83867
  Beta virt. eigenvalues --    2.92174   2.94465   3.04324   3.14993   3.15651
  Beta virt. eigenvalues --    3.17818   3.22576   3.27490   3.36581   3.38025
  Beta virt. eigenvalues --    3.44830   3.60940   3.67921   3.84471   3.91260
  Beta virt. eigenvalues --    4.09204   4.29587   4.38324   5.31141   5.72536
  Beta virt. eigenvalues --    6.09007  24.43371  24.73470  24.88151  26.07944
  Beta virt. eigenvalues --   51.38128
          Condensed to atoms (all electrons):
               1          2          3          4          5          6
     1  O    7.742957   0.753743   0.042735  -0.279274  -0.429446   0.000553
     2  C    0.753743  23.435988  -0.290208  -0.209795 -19.034120  -0.145759
     3  C    0.042735  -0.290208   6.084468   0.079674  -0.293865   0.421201
     4  C   -0.279274  -0.209795   0.079674  17.311405 -11.909656   0.076478
     5  C   -0.429446 -19.034120  -0.293865 -11.909656  39.311253   0.013372
     6  H    0.000553  -0.145759   0.421201   0.076478   0.013372   0.405689
     7  H    0.003740   0.005630   0.406904   0.027325  -0.084740  -0.000791
     8  H    0.299081   0.033478  -0.112410   0.079259  -0.016131   0.000163
     9  H   -0.006636  -0.274099  -0.017780  -0.490815   1.157438   0.000294
               7          8          9
     1  O    0.003740   0.299081  -0.006636
     2  C    0.005630   0.033478  -0.274099
     3  C    0.406904  -0.112410  -0.017780
     4  C    0.027325   0.079259  -0.490815
     5  C   -0.084740  -0.016131   1.157438
     6  H   -0.000791   0.000163   0.000294
     7  H    0.375132  -0.002320  -0.001572
     8  H   -0.002320   0.355658  -0.000015
     9  H   -0.001572  -0.000015   0.374177
          Atomic-Atomic Spin Densities.
               1          2          3          4          5          6
     1  O    0.060481  -0.113542  -0.005371   0.061541   0.060721   0.000868
     2  C   -0.113542  -0.012378  -0.018751   0.196970   0.014584   0.049260
     3  C   -0.005371  -0.018751   1.006973   0.000140  -0.001998  -0.016510
     4  C    0.061541   0.196970   0.000140  -0.251562  -0.611427  -0.037746
     5  C    0.060721   0.014584  -0.001998  -0.611427   1.256266  -0.015363
     6  H    0.000868   0.049260  -0.016510  -0.037746  -0.015363  -0.062482
     7  H   -0.001051  -0.021723  -0.006586  -0.004884   0.024721   0.002871
     8  H   -0.003036   0.001105  -0.003009  -0.000107   0.004084   0.001066
     9  H    0.000336   0.019625  -0.001094   0.015528  -0.042876   0.000048
               7          8          9
     1  O   -0.001051  -0.003036   0.000336
     2  C   -0.021723   0.001105   0.019625
     3  C   -0.006586  -0.003009  -0.001094
     4  C   -0.004884  -0.000107   0.015528
     5  C    0.024721   0.004084  -0.042876
     6  H    0.002871   0.001066   0.000048
     7  H   -0.056661  -0.000071   0.000247
     8  H   -0.000071  -0.003203   0.000104
     9  H    0.000247   0.000104  -0.034782
 Mulliken charges and spin densities:
               1          2
     1  O   -0.127453   0.060947
     2  C    1.725142   0.115149
     3  C   -0.320719   0.953795
     4  C    1.315398  -0.631546
     5  C   -2.714106   0.688712
     6  H    0.228799  -0.077988
     7  H    0.270692  -0.063137
     8  H    0.363237  -0.003067
     9  H    0.259008  -0.042865
 Sum of Mulliken charges =   1.00000   1.00000
 Mulliken charges and spin densities with hydrogens summed into heavy atoms:
               1          2
     1  O    0.235784   0.057880
     2  C    1.725142   0.115149
     3  C    0.178773   0.812670
     4  C    1.315398  -0.631546
     5  C   -2.455097   0.645847
 Electronic spatial extent (au):  <R**2>=            391.6608
 Charge=              1.0000 electrons
 Dipole moment (field-independent basis, Debye):
    X=              2.2745    Y=              1.2235    Z=              0.0000  Tot=              2.5827
 Quadrupole moment (field-independent basis, Debye-Ang):
   XX=            -23.6459   YY=             -1.9556   ZZ=            -28.3183
   XY=              0.8787   XZ=              0.0000   YZ=              0.0000
 Traceless Quadrupole moment (field-independent basis, Debye-Ang):
   XX=             -5.6726   YY=             16.0177   ZZ=            -10.3450
   XY=              0.8787   XZ=              0.0000   YZ=              0.0000
 Octapole moment (field-independent basis, Debye-Ang**2):
  XXX=              7.4030  YYY=            -15.7611  ZZZ=              0.0000  XYY=             -4.8166
  XXY=             11.1831  XXZ=              0.0000  XZZ=             -1.5839  YZZ=              2.9146
  YYZ=              0.0000  XYZ=              0.0000
 Hexadecapole moment (field-independent basis, Debye-Ang**3):
 XXXX=           -120.4333 YYYY=           -112.5108 ZZZZ=            -27.7909 XXXY=             -4.2652
 XXXZ=              0.0000 YYYX=            -12.2360 YYYZ=              0.0000 ZZZX=              0.0000
 ZZZY=              0.0000 XXYY=            -66.9230 XXZZ=            -29.4203 YYZZ=            -62.3995
 XXYZ=              0.0000 YYXZ=              0.0000 ZZXY=             -2.9753
 N-N= 1.440420558417D+02 E-N=-8.143473474391D+02  KE= 2.281053833129D+02
 Symmetry A'   KE= 2.204952435086D+02
 Symmetry A"   KE= 7.610139804359D+00
 Leave Link  601 at Tue Oct 10 00:29:10 2017, MaxMem=    33554432 cpu:        18.9
 (Enter /usr/local/gaussian/2009-E.01/g09/l9999.exe)
 1\1\ WCSS.PL-BEM-WN1424\SP\UCCSD(T)-FC\6-311++G(d,p)\C4H4O1(1+,2)\ROOT
 \10-Oct-2017\0\\#p ccsd(t,maxcyc=200)/6-311++G(d,p)\\ccsd(t) iener\\1,
 2\O,0,0.928937,1.418636,0.\C,0,0.323656,0.258036,0.\C,0,1.012163,-0.97
 5246,0.\C,0,-1.074543,0.286432,0.\C,0,-2.285005,0.283455,0.\H,0,2.0972
 9,-1.014432,0.\H,0,0.452896,-1.902269,0.\H,0,1.899801,1.358935,0.\H,0,
 -3.355195,0.286553,0.\\Version=ES64L-G09RevE.01\State=2-A"\HF=-228.347
 6608\MP2=-229.0388061\MP3=-229.0611079\MP4D=-229.078252\MP4DQ=-229.062
 8252\PUHF=-228.3578408\PMP2-0=-229.0476139\PMP3-0=-229.0675142\MP4SDQ=
 -229.0746367\CCSD=-229.0780692\CCSD(T)=-229.1104227\S2=0.897381\S2-1=0
 .855844\S2A=0.761288\RMSD=5.372e-09\PG=CS [SG(C4H4O1)]\\@


 THE HURRIEDER I GO, THE BEHINDER I GET.
 Job cpu time:       0 days  9 hours 28 minutes 27.4 seconds.
 File lengths (MBytes):  RWF=    842 Int=      0 D2E=      0 Chk=      3 Scr=      1
 Normal termination of Gaussian 09 at Tue Oct 10 00:29:12 2017.
