 Entering Gaussian System, Link 0=/usr/local/gaussian/2009-E.01/g09/g09
 Initial command:
 /usr/local/gaussian/2009-E.01/g09/l1.exe "/lustre/scratch/eerd/4986703.achilles/Gau-170052.inp" -scrdir="/lustre/scratch/eerd/4986703.achilles/"
 Entering Link 1 = /usr/local/gaussian/2009-E.01/g09/l1.exe PID=    170054.
  
 Copyright (c) 1988,1990,1992,1993,1995,1998,2003,2009,2015,
            Gaussian, Inc.  All Rights Reserved.
  
 This is part of the Gaussian(R) 09 program.  It is based on
 the Gaussian(R) 03 system (copyright 2003, Gaussian, Inc.),
 the Gaussian(R) 98 system (copyright 1998, Gaussian, Inc.),
 the Gaussian(R) 94 system (copyright 1995, Gaussian, Inc.),
 the Gaussian 92(TM) system (copyright 1992, Gaussian, Inc.),
 the Gaussian 90(TM) system (copyright 1990, Gaussian, Inc.),
 the Gaussian 88(TM) system (copyright 1988, Gaussian, Inc.),
 the Gaussian 86(TM) system (copyright 1986, Carnegie Mellon
 University), and the Gaussian 82(TM) system (copyright 1983,
 Carnegie Mellon University). Gaussian is a federally registered
 trademark of Gaussian, Inc.
  
 This software contains proprietary and confidential information,
 including trade secrets, belonging to Gaussian, Inc.
  
 This software is provided under written license and may be
 used, copied, transmitted, or stored only in accord with that
 written license.
  
 The following legend is applicable only to US Government
 contracts under FAR:
  
                    RESTRICTED RIGHTS LEGEND
  
 Use, reproduction and disclosure by the US Government is
 subject to restrictions as set forth in subparagraphs (a)
 and (c) of the Commercial Computer Software - Restricted
 Rights clause in FAR 52.227-19.
  
 Gaussian, Inc.
 340 Quinnipiac St., Bldg. 40, Wallingford CT 06492
  
  
 ---------------------------------------------------------------
 Warning -- This program may not be used in any manner that
 competes with the business of Gaussian, Inc. or will provide
 assistance to any competitor of Gaussian, Inc.  The licensee
 of this program is prohibited from giving any competitor of
 Gaussian, Inc. access to this program.  By using this program,
 the user acknowledges that Gaussian, Inc. is engaged in the
 business of creating and licensing software in the field of
 computational chemistry and represents and warrants to the
 licensee that it is not a competitor of Gaussian, Inc. and that
 it will not use this program in any manner prohibited above.
 ---------------------------------------------------------------
  

 Cite this work as:
 Gaussian 09, Revision E.01,
 M. J. Frisch, G. W. Trucks, H. B. Schlegel, G. E. Scuseria, 
 M. A. Robb, J. R. Cheeseman, G. Scalmani, V. Barone, B. Mennucci, 
 G. A. Petersson, H. Nakatsuji, M. Caricato, X. Li, H. P. Hratchian, 
 A. F. Izmaylov, J. Bloino, G. Zheng, J. L. Sonnenberg, M. Hada, 
 M. Ehara, K. Toyota, R. Fukuda, J. Hasegawa, M. Ishida, T. Nakajima, 
 Y. Honda, O. Kitao, H. Nakai, T. Vreven, J. A. Montgomery, Jr., 
 J. E. Peralta, F. Ogliaro, M. Bearpark, J. J. Heyd, E. Brothers, 
 K. N. Kudin, V. N. Staroverov, T. Keith, R. Kobayashi, J. Normand, 
 K. Raghavachari, A. Rendell, J. C. Burant, S. S. Iyengar, J. Tomasi, 
 M. Cossi, N. Rega, J. M. Millam, M. Klene, J. E. Knox, J. B. Cross, 
 V. Bakken, C. Adamo, J. Jaramillo, R. Gomperts, R. E. Stratmann, 
 O. Yazyev, A. J. Austin, R. Cammi, C. Pomelli, J. W. Ochterski, 
 R. L. Martin, K. Morokuma, V. G. Zakrzewski, G. A. Voth, 
 P. Salvador, J. J. Dannenberg, S. Dapprich, A. D. Daniels, 
 O. Farkas, J. B. Foresman, J. V. Ortiz, J. Cioslowski, 
 and D. J. Fox, Gaussian, Inc., Wallingford CT, 2013.
 
 ******************************************
 Gaussian 09:  ES64L-G09RevE.01 30-Nov-2015
                10-Oct-2017 
 ******************************************
 %NProcShared=8
 Will use up to    8 processors via shared memory.
 -----------------------------------
 #p ccsd(t,maxcyc=200)/6-311++G(d,p)
 -----------------------------------
 1/38=1/1;
 2/12=2,17=6,18=5,40=1/2;
 3/5=4,6=6,7=1111,11=9,16=1,25=1,30=1/1,2,3;
 4//1;
 5/5=2,38=5/2;
 8/6=4,9=120000,10=2/1,4;
 9/5=7,6=200,14=2/13;
 6/7=2,8=2,9=2,10=2/1;
 99/5=1,9=1/99;
 Leave Link    1 at Tue Oct 10 01:41:56 2017, MaxMem=           0 cpu:         3.1
 (Enter /usr/local/gaussian/2009-E.01/g09/l101.exe)
 -------------
 ccsd(t) iener
 -------------
 Symbolic Z-matrix:
 Charge =  0 Multiplicity = 1
 C                     1.5469    0.38472   0.33817 
 C                     0.53907  -0.15451  -0.30825 
 H                     0.97892  -1.01838  -0.83535 
 H                    -1.0852    0.80227  -0.00591 
 O                    -0.79003   0.02941  -0.50182 
 
 NAtoms=      5 NQM=        5 NQMF=       0 NMMI=      0 NMMIF=      0
                NMic=       0 NMicF=      0.
                    Isotopes and Nuclear Properties:
 (Nuclear quadrupole moments (NQMom) in fm**2, nuclear magnetic moments (NMagM)
  in nuclear magnetons)

  Atom         1           2           3           4           5
 IAtWgt=          12          12           1           1          16
 AtmWgt=  12.0000000  12.0000000   1.0078250   1.0078250  15.9949146
 NucSpn=           0           0           1           1           0
 AtZEff=   0.0000000   0.0000000   0.0000000   0.0000000   0.0000000
 NQMom=    0.0000000   0.0000000   0.0000000   0.0000000   0.0000000
 NMagM=    0.0000000   0.0000000   2.7928460   2.7928460   0.0000000
 AtZNuc=   6.0000000   6.0000000   1.0000000   1.0000000   8.0000000
 Leave Link  101 at Tue Oct 10 01:41:56 2017, MaxMem=    33554432 cpu:         1.0
 (Enter /usr/local/gaussian/2009-E.01/g09/l202.exe)
                          Input orientation:                          
 ---------------------------------------------------------------------
 Center     Atomic      Atomic             Coordinates (Angstroms)
 Number     Number       Type             X           Y           Z
 ---------------------------------------------------------------------
      1          6           0        1.546900    0.384720    0.338171
      2          6           0        0.539067   -0.154508   -0.308247
      3          1           0        0.978924   -1.018381   -0.835346
      4          1           0       -1.085205    0.802269   -0.005908
      5          8           0       -0.790034    0.029406   -0.501818
 ---------------------------------------------------------------------
                    Distance matrix (angstroms):
                    1          2          3          4          5
     1  C    0.000000
     2  C    1.313145   0.000000
     3  H    1.915315   1.103442   0.000000
     4  H    2.687138   1.909212   2.874606   0.000000
     5  O    2.508603   1.355656   2.082861   0.964557   0.000000
 Stoichiometry    C2H2O
 Framework group  CS[SG(C2H2O)]
 Deg. of freedom     7
 Full point group                 CS      NOp   2
 Largest Abelian subgroup         CS      NOp   2
 Largest concise Abelian subgroup C1      NOp   1
                         Standard orientation:                         
 ---------------------------------------------------------------------
 Center     Atomic      Atomic             Coordinates (Angstroms)
 Number     Number       Type             X           Y           Z
 ---------------------------------------------------------------------
      1          6           0        1.291129    0.593771    0.000000
      2          6           0       -0.000000    0.354322    0.000000
      3          1           0       -0.466772    1.354176   -0.000000
      4          1           0       -0.369539   -1.518785   -0.000000
      5          8           0       -0.863808   -0.690493   -0.000000
 ---------------------------------------------------------------------
 Rotational constants (GHZ):    104.4302439     11.2366713     10.1450646
 Leave Link  202 at Tue Oct 10 01:41:57 2017, MaxMem=    33554432 cpu:         5.4
 (Enter /usr/local/gaussian/2009-E.01/g09/l301.exe)
 Standard basis: 6-311++G(d,p) (5D, 7F)
 Ernie: Thresh=  0.10000D-02 Tol=  0.10000D-05 Strict=F.
 There are    63 symmetry adapted cartesian basis functions of A'  symmetry.
 There are    20 symmetry adapted cartesian basis functions of A"  symmetry.
 There are    60 symmetry adapted basis functions of A'  symmetry.
 There are    20 symmetry adapted basis functions of A"  symmetry.
    80 basis functions,   126 primitive gaussians,    83 cartesian basis functions
    11 alpha electrons       11 beta electrons
       nuclear repulsion energy        57.3548014834 Hartrees.
 IExCor=    0 DFT=F Ex=HF Corr=None ExCW=0 ScaHFX=  1.000000
 ScaDFX=  1.000000  1.000000  1.000000  1.000000 ScalE2=  1.000000  1.000000
 IRadAn=      0 IRanWt=     -1 IRanGd=            0 ICorTp=0 IEmpDi=  4
 NAtoms=    5 NActive=    5 NUniq=    5 SFac= 1.00D+00 NAtFMM=   60 NAOKFM=F Big=F
 Integral buffers will be    131072 words long.
 Raffenetti 1 integral format.
 Two-electron integral symmetry is turned on.
 Leave Link  301 at Tue Oct 10 01:41:57 2017, MaxMem=    33554432 cpu:         3.5
 (Enter /usr/local/gaussian/2009-E.01/g09/l302.exe)
 NPDir=0 NMtPBC=     1 NCelOv=     1 NCel=       1 NClECP=     1 NCelD=      1
         NCelK=      1 NCelE2=     1 NClLst=     1 CellRange=     0.0.
 One-electron integrals computed using PRISM.
 NBasis=    80 RedAO= T EigKep=  1.40D-04  NBF=    60    20
 NBsUse=    80 1.00D-06 EigRej= -1.00D+00 NBFU=    60    20
 Leave Link  302 at Tue Oct 10 01:41:58 2017, MaxMem=    33554432 cpu:         2.2
 (Enter /usr/local/gaussian/2009-E.01/g09/l303.exe)
 DipDrv:  MaxL=1.
 Leave Link  303 at Tue Oct 10 01:41:58 2017, MaxMem=    33554432 cpu:         0.7
 (Enter /usr/local/gaussian/2009-E.01/g09/l401.exe)
 ExpMin= 3.60D-02 ExpMax= 8.59D+03 ExpMxC= 1.30D+03 IAcc=3 IRadAn=         5 AccDes= 0.00D+00
 Harris functional with IExCor=  205 and IRadAn=       5 diagonalized for initial guess.
 HarFok:  IExCor=  205 AccDes= 0.00D+00 IRadAn=         5 IDoV= 1 UseB2=F ITyADJ=14
 ICtDFT=  3500011 ScaDFX=  1.000000  1.000000  1.000000  1.000000
 FoFCou: FMM=F IPFlag=           0 FMFlag=      100000 FMFlg1=           0
         NFxFlg=           0 DoJE=T BraDBF=F KetDBF=T FulRan=T
         wScrn=  0.000000 ICntrl=     500 IOpCl=  0 I1Cent=   200000004 NGrid=           0
         NMat0=    1 NMatS0=      1 NMatT0=    0 NMatD0=    1 NMtDS0=    0 NMtDT0=    0
 Petite list used in FoFCou.
 Harris En= -151.740277739347    
 JPrj=0 DoOrth=F DoCkMO=F.
 Initial guess orbital symmetries:
       Occupied  (A') (A') (A') (A') (A') (A') (A') (A') (A") (A')
                 (A")
       Virtual   (A') (A") (A') (A') (A') (A") (A') (A') (A') (A')
                 (A") (A') (A') (A') (A') (A") (A') (A') (A') (A')
                 (A') (A") (A') (A') (A') (A") (A') (A') (A') (A')
                 (A") (A') (A") (A') (A") (A') (A') (A") (A") (A')
                 (A') (A') (A') (A') (A") (A") (A') (A') (A') (A')
                 (A") (A') (A') (A") (A') (A') (A") (A") (A') (A')
                 (A') (A') (A') (A") (A') (A') (A') (A') (A')
 The electronic state of the initial guess is 1-A'.
 Leave Link  401 at Tue Oct 10 01:41:59 2017, MaxMem=    33554432 cpu:         5.1
 (Enter /usr/local/gaussian/2009-E.01/g09/l502.exe)
 Closed shell SCF:
 Using DIIS extrapolation, IDIIS=  1040.
 Integral symmetry usage will be decided dynamically.
 Keep R1 ints in memory in symmetry-blocked form, NReq=8100969.
 IVT=       40529 IEndB=       40529 NGot=    33554432 MDV=    30703964
 LenX=    30703964 LenY=    30696634
 Requested convergence on RMS density matrix=1.00D-08 within 128 cycles.
 Requested convergence on MAX density matrix=1.00D-06.
 Requested convergence on             energy=1.00D-06.
 No special actions if energy rises.
 FoFCou: FMM=F IPFlag=           0 FMFlag=           0 FMFlg1=           0
         NFxFlg=           0 DoJE=F BraDBF=F KetDBF=F FulRan=T
         wScrn=  0.000000 ICntrl=     600 IOpCl=  0 I1Cent=           0 NGrid=           0
         NMat0=    1 NMatS0=   3240 NMatT0=    0 NMatD0=    1 NMtDS0=    0 NMtDT0=    0
 Petite list used in FoFCou.

 Cycle   1  Pass 1  IDiag  1:
 E= -151.550201428648    
 DIIS: error= 4.72D-02 at cycle   1 NSaved=   1.
 NSaved= 1 IEnMin= 1 EnMin= -151.550201428648     IErMin= 1 ErrMin= 4.72D-02
 ErrMax= 4.72D-02  0.00D+00 EMaxC= 1.00D-01 BMatC= 2.51D-01 BMatP= 2.51D-01
 IDIUse=3 WtCom= 5.28D-01 WtEn= 4.72D-01
 Coeff-Com:  0.100D+01
 Coeff-En:   0.100D+01
 Coeff:      0.100D+01
 Gap=     0.438 Goal=   None    Shift=    0.000
 GapD=    0.438 DampG=2.000 DampE=0.500 DampFc=1.0000 IDamp=-1.
 RMSDP=6.05D-03 MaxDP=9.06D-02              OVMax= 9.19D-02

 Cycle   2  Pass 1  IDiag  1:
 E= -151.636371264938     Delta-E=       -0.086169836291 Rises=F Damp=F
 DIIS: error= 1.32D-02 at cycle   2 NSaved=   2.
 NSaved= 2 IEnMin= 2 EnMin= -151.636371264938     IErMin= 2 ErrMin= 1.32D-02
 ErrMax= 1.32D-02  0.00D+00 EMaxC= 1.00D-01 BMatC= 1.66D-02 BMatP= 2.51D-01
 IDIUse=3 WtCom= 8.68D-01 WtEn= 1.32D-01
 Coeff-Com:  0.110D+00 0.890D+00
 Coeff-En:   0.000D+00 0.100D+01
 Coeff:      0.954D-01 0.905D+00
 Gap=     0.423 Goal=   None    Shift=    0.000
 RMSDP=1.39D-03 MaxDP=3.34D-02 DE=-8.62D-02 OVMax= 3.40D-02

 Cycle   3  Pass 1  IDiag  1:
 E= -151.646129212972     Delta-E=       -0.009757948034 Rises=F Damp=F
 DIIS: error= 7.06D-03 at cycle   3 NSaved=   3.
 NSaved= 3 IEnMin= 3 EnMin= -151.646129212972     IErMin= 3 ErrMin= 7.06D-03
 ErrMax= 7.06D-03  0.00D+00 EMaxC= 1.00D-01 BMatC= 3.43D-03 BMatP= 1.66D-02
 IDIUse=3 WtCom= 9.29D-01 WtEn= 7.06D-02
 Coeff-Com: -0.179D-01 0.285D+00 0.733D+00
 Coeff-En:   0.000D+00 0.000D+00 0.100D+01
 Coeff:     -0.167D-01 0.265D+00 0.752D+00
 Gap=     0.409 Goal=   None    Shift=    0.000
 RMSDP=5.92D-04 MaxDP=9.99D-03 DE=-9.76D-03 OVMax= 1.69D-02

 Cycle   4  Pass 1  IDiag  1:
 E= -151.648574758768     Delta-E=       -0.002445545796 Rises=F Damp=F
 DIIS: error= 1.39D-03 at cycle   4 NSaved=   4.
 NSaved= 4 IEnMin= 4 EnMin= -151.648574758768     IErMin= 4 ErrMin= 1.39D-03
 ErrMax= 1.39D-03  0.00D+00 EMaxC= 1.00D-01 BMatC= 1.10D-04 BMatP= 3.43D-03
 IDIUse=3 WtCom= 9.86D-01 WtEn= 1.39D-02
 Coeff-Com: -0.489D-02 0.479D-02 0.137D+00 0.863D+00
 Coeff-En:   0.000D+00 0.000D+00 0.000D+00 0.100D+01
 Coeff:     -0.482D-02 0.473D-02 0.135D+00 0.865D+00
 Gap=     0.407 Goal=   None    Shift=    0.000
 RMSDP=1.73D-04 MaxDP=3.40D-03 DE=-2.45D-03 OVMax= 4.79D-03

 Cycle   5  Pass 1  IDiag  1:
 E= -151.648728413309     Delta-E=       -0.000153654541 Rises=F Damp=F
 DIIS: error= 4.56D-04 at cycle   5 NSaved=   5.
 NSaved= 5 IEnMin= 5 EnMin= -151.648728413309     IErMin= 5 ErrMin= 4.56D-04
 ErrMax= 4.56D-04  0.00D+00 EMaxC= 1.00D-01 BMatC= 9.28D-06 BMatP= 1.10D-04
 IDIUse=3 WtCom= 9.95D-01 WtEn= 4.56D-03
 Coeff-Com:  0.238D-02-0.318D-01-0.105D+00-0.147D+00 0.128D+01
 Coeff-En:   0.000D+00 0.000D+00 0.000D+00 0.000D+00 0.100D+01
 Coeff:      0.237D-02-0.317D-01-0.105D+00-0.146D+00 0.128D+01
 Gap=     0.408 Goal=   None    Shift=    0.000
 RMSDP=1.03D-04 MaxDP=1.94D-03 DE=-1.54D-04 OVMax= 2.29D-03

 Cycle   6  Pass 1  IDiag  1:
 E= -151.648759941904     Delta-E=       -0.000031528594 Rises=F Damp=F
 DIIS: error= 1.37D-04 at cycle   6 NSaved=   6.
 NSaved= 6 IEnMin= 6 EnMin= -151.648759941904     IErMin= 6 ErrMin= 1.37D-04
 ErrMax= 1.37D-04  0.00D+00 EMaxC= 1.00D-01 BMatC= 7.04D-07 BMatP= 9.28D-06
 IDIUse=3 WtCom= 9.99D-01 WtEn= 1.37D-03
 Coeff-Com: -0.848D-04 0.433D-02 0.131D-01-0.267D-01-0.204D+00 0.121D+01
 Coeff-En:   0.000D+00 0.000D+00 0.000D+00 0.000D+00 0.000D+00 0.100D+01
 Coeff:     -0.847D-04 0.433D-02 0.131D-01-0.267D-01-0.204D+00 0.121D+01
 Gap=     0.408 Goal=   None    Shift=    0.000
 RMSDP=2.97D-05 MaxDP=5.77D-04 DE=-3.15D-05 OVMax= 9.44D-04

 Cycle   7  Pass 1  IDiag  1:
 E= -151.648763071150     Delta-E=       -0.000003129247 Rises=F Damp=F
 DIIS: error= 5.51D-05 at cycle   7 NSaved=   7.
 NSaved= 7 IEnMin= 7 EnMin= -151.648763071150     IErMin= 7 ErrMin= 5.51D-05
 ErrMax= 5.51D-05  0.00D+00 EMaxC= 1.00D-01 BMatC= 1.60D-07 BMatP= 7.04D-07
 IDIUse=1 WtCom= 1.00D+00 WtEn= 0.00D+00
 Coeff-Com: -0.320D-03 0.399D-02 0.138D-01 0.161D-01-0.151D+00-0.152D+00
 Coeff-Com:  0.127D+01
 Coeff:     -0.320D-03 0.399D-02 0.138D-01 0.161D-01-0.151D+00-0.152D+00
 Coeff:      0.127D+01
 Gap=     0.408 Goal=   None    Shift=    0.000
 RMSDP=2.32D-05 MaxDP=5.61D-04 DE=-3.13D-06 OVMax= 7.03D-04

 Cycle   8  Pass 1  IDiag  1:
 E= -151.648763861988     Delta-E=       -0.000000790838 Rises=F Damp=F
 DIIS: error= 2.54D-05 at cycle   8 NSaved=   8.
 NSaved= 8 IEnMin= 8 EnMin= -151.648763861988     IErMin= 8 ErrMin= 2.54D-05
 ErrMax= 2.54D-05  0.00D+00 EMaxC= 1.00D-01 BMatC= 3.07D-08 BMatP= 1.60D-07
 IDIUse=1 WtCom= 1.00D+00 WtEn= 0.00D+00
 Coeff-Com: -0.210D-04-0.490D-03-0.130D-02 0.659D-02 0.377D-01-0.269D+00
 Coeff-Com:  0.128D+00 0.110D+01
 Coeff:     -0.210D-04-0.490D-03-0.130D-02 0.659D-02 0.377D-01-0.269D+00
 Coeff:      0.128D+00 0.110D+01
 Gap=     0.408 Goal=   None    Shift=    0.000
 RMSDP=1.01D-05 MaxDP=2.54D-04 DE=-7.91D-07 OVMax= 3.53D-04

 Cycle   9  Pass 1  IDiag  1:
 E= -151.648764022571     Delta-E=       -0.000000160582 Rises=F Damp=F
 DIIS: error= 1.29D-05 at cycle   9 NSaved=   9.
 NSaved= 9 IEnMin= 9 EnMin= -151.648764022571     IErMin= 9 ErrMin= 1.29D-05
 ErrMax= 1.29D-05  0.00D+00 EMaxC= 1.00D-01 BMatC= 5.97D-09 BMatP= 3.07D-08
 IDIUse=1 WtCom= 1.00D+00 WtEn= 0.00D+00
 Coeff-Com:  0.681D-04-0.739D-03-0.249D-02-0.456D-02 0.216D-01 0.812D-01
 Coeff-Com: -0.267D+00-0.260D+00 0.143D+01
 Coeff:      0.681D-04-0.739D-03-0.249D-02-0.456D-02 0.216D-01 0.812D-01
 Coeff:     -0.267D+00-0.260D+00 0.143D+01
 Gap=     0.408 Goal=   None    Shift=    0.000
 RMSDP=4.63D-06 MaxDP=8.01D-05 DE=-1.61D-07 OVMax= 2.26D-04

 Cycle  10  Pass 1  IDiag  1:
 E= -151.648764061941     Delta-E=       -0.000000039370 Rises=F Damp=F
 DIIS: error= 5.02D-06 at cycle  10 NSaved=  10.
 NSaved=10 IEnMin=10 EnMin= -151.648764061941     IErMin=10 ErrMin= 5.02D-06
 ErrMax= 5.02D-06  0.00D+00 EMaxC= 1.00D-01 BMatC= 8.03D-10 BMatP= 5.97D-09
 IDIUse=1 WtCom= 1.00D+00 WtEn= 0.00D+00
 Coeff-Com: -0.209D-04 0.320D-03 0.113D-02 0.136D-02-0.150D-01 0.508D-02
 Coeff-Com:  0.105D+00-0.126D+00-0.461D+00 0.149D+01
 Coeff:     -0.209D-04 0.320D-03 0.113D-02 0.136D-02-0.150D-01 0.508D-02
 Coeff:      0.105D+00-0.126D+00-0.461D+00 0.149D+01
 Gap=     0.408 Goal=   None    Shift=    0.000
 RMSDP=1.72D-06 MaxDP=2.24D-05 DE=-3.94D-08 OVMax= 8.71D-05

 Cycle  11  Pass 1  IDiag  1:
 E= -151.648764067106     Delta-E=       -0.000000005165 Rises=F Damp=F
 DIIS: error= 1.50D-06 at cycle  11 NSaved=  11.
 NSaved=11 IEnMin=11 EnMin= -151.648764067106     IErMin=11 ErrMin= 1.50D-06
 ErrMax= 1.50D-06  0.00D+00 EMaxC= 1.00D-01 BMatC= 7.71D-11 BMatP= 8.03D-10
 IDIUse=1 WtCom= 1.00D+00 WtEn= 0.00D+00
 Coeff-Com:  0.261D-06-0.313D-04-0.156D-03 0.182D-03 0.272D-02-0.127D-01
 Coeff-Com:  0.295D-02 0.474D-01 0.259D-01-0.534D+00 0.147D+01
 Coeff:      0.261D-06-0.313D-04-0.156D-03 0.182D-03 0.272D-02-0.127D-01
 Coeff:      0.295D-02 0.474D-01 0.259D-01-0.534D+00 0.147D+01
 Gap=     0.408 Goal=   None    Shift=    0.000
 RMSDP=5.97D-07 MaxDP=1.13D-05 DE=-5.16D-09 OVMax= 2.26D-05

 Cycle  12  Pass 1  IDiag  1:
 E= -151.648764067494     Delta-E=       -0.000000000388 Rises=F Damp=F
 DIIS: error= 2.52D-07 at cycle  12 NSaved=  12.
 NSaved=12 IEnMin=12 EnMin= -151.648764067494     IErMin=12 ErrMin= 2.52D-07
 ErrMax= 2.52D-07  0.00D+00 EMaxC= 1.00D-01 BMatC= 4.33D-12 BMatP= 7.71D-11
 IDIUse=1 WtCom= 1.00D+00 WtEn= 0.00D+00
 Coeff-Com:  0.184D-05-0.213D-04-0.655D-04-0.175D-03 0.603D-03 0.290D-02
 Coeff-Com: -0.950D-02-0.708D-02 0.515D-01-0.115D-01-0.347D+00 0.132D+01
 Coeff:      0.184D-05-0.213D-04-0.655D-04-0.175D-03 0.603D-03 0.290D-02
 Coeff:     -0.950D-02-0.708D-02 0.515D-01-0.115D-01-0.347D+00 0.132D+01
 Gap=     0.408 Goal=   None    Shift=    0.000
 RMSDP=8.22D-08 MaxDP=1.10D-06 DE=-3.88D-10 OVMax= 2.51D-06

 Cycle  13  Pass 1  IDiag  1:
 E= -151.648764067509     Delta-E=       -0.000000000016 Rises=F Damp=F
 DIIS: error= 5.15D-08 at cycle  13 NSaved=  13.
 NSaved=13 IEnMin=13 EnMin= -151.648764067509     IErMin=13 ErrMin= 5.15D-08
 ErrMax= 5.15D-08  0.00D+00 EMaxC= 1.00D-01 BMatC= 2.34D-13 BMatP= 4.33D-12
 IDIUse=1 WtCom= 1.00D+00 WtEn= 0.00D+00
 Coeff-Com: -0.435D-06 0.694D-05 0.258D-04 0.359D-04-0.343D-03 0.259D-03
 Coeff-Com:  0.217D-02-0.274D-02-0.114D-01 0.320D-01 0.823D-03-0.363D+00
 Coeff-Com:  0.134D+01
 Coeff:     -0.435D-06 0.694D-05 0.258D-04 0.359D-04-0.343D-03 0.259D-03
 Coeff:      0.217D-02-0.274D-02-0.114D-01 0.320D-01 0.823D-03-0.363D+00
 Coeff:      0.134D+01
 Gap=     0.408 Goal=   None    Shift=    0.000
 RMSDP=2.31D-08 MaxDP=6.08D-07 DE=-1.58D-11 OVMax= 5.36D-07

 Cycle  14  Pass 1  IDiag  1:
 E= -151.648764067510     Delta-E=       -0.000000000001 Rises=F Damp=F
 DIIS: error= 1.04D-08 at cycle  14 NSaved=  14.
 NSaved=14 IEnMin=14 EnMin= -151.648764067510     IErMin=14 ErrMin= 1.04D-08
 ErrMax= 1.04D-08  0.00D+00 EMaxC= 1.00D-01 BMatC= 8.22D-15 BMatP= 2.34D-13
 IDIUse=1 WtCom= 1.00D+00 WtEn= 0.00D+00
 Coeff-Com:  0.541D-07-0.109D-05-0.491D-05-0.223D-05 0.674D-04-0.178D-03
 Coeff-Com: -0.240D-03 0.975D-03 0.137D-02-0.902D-02 0.135D-01 0.501D-01
 Coeff-Com: -0.364D+00 0.131D+01
 Coeff:      0.541D-07-0.109D-05-0.491D-05-0.223D-05 0.674D-04-0.178D-03
 Coeff:     -0.240D-03 0.975D-03 0.137D-02-0.902D-02 0.135D-01 0.501D-01
 Coeff:     -0.364D+00 0.131D+01
 Gap=     0.408 Goal=   None    Shift=    0.000
 RMSDP=5.45D-09 MaxDP=1.20D-07 DE=-1.02D-12 OVMax= 8.69D-08

 SCF Done:  E(RHF) =  -151.648764068     A.U. after   14 cycles
            NFock= 14  Conv=0.55D-08     -V/T= 2.0010
 KE= 1.514935056552D+02 PE=-4.708786694927D+02 EE= 1.103815982867D+02
 Leave Link  502 at Tue Oct 10 01:42:01 2017, MaxMem=    33554432 cpu:        15.8
 (Enter /usr/local/gaussian/2009-E.01/g09/l801.exe)
 Windowed orbitals will be sorted by symmetry type.
 ExpMin= 3.60D-02 ExpMax= 8.59D+03 ExpMxC= 1.30D+03 IAcc=3 IRadAn=         5 AccDes= 0.00D+00
 HarFok:  IExCor=  205 AccDes= 0.00D+00 IRadAn=         5 IDoV=-2 UseB2=F ITyADJ=14
 ICtDFT= 12500011 ScaDFX=  1.000000  1.000000  1.000000  1.000000
 Largest valence mixing into a core orbital is  1.58D-04
 Largest core mixing into a valence orbital is  4.18D-05
 Range of M.O.s used for correlation:     4    80
 NBasis=    80 NAE=    11 NBE=    11 NFC=     3 NFV=     0
 NROrb=     77 NOA=     8 NOB=     8 NVA=    69 NVB=    69

 **** Warning!!: The largest alpha MO coefficient is  0.43544477D+02

 Leave Link  801 at Tue Oct 10 01:42:01 2017, MaxMem=    33554432 cpu:         0.5
 (Enter /usr/local/gaussian/2009-E.01/g09/l804.exe)
 Closed-shell transformation, MDV=    33554432 ITran=4 ISComp=2.
 Semi-Direct transformation.
 ModeAB=           2 MOrb=             8 LenV=      33287812
 LASXX=       884290 LTotXX=      884290 LenRXX=      884290
 LTotAB=      924210 MaxLAS=     2147376 LenRXY=     2147376
 NonZer=     2223144 LenScr=     3999744 LnRSAI=           0
 LnScr1=           0 LExtra=           0 Total=      7031410
 MaxDsk=          -1 SrtSym=           F ITran=            4
 DoSDTr:  NPSUse=  8
 JobTyp=0 Pass  1:  I=   1 to   8.
 (rs|ai) integrals will be sorted in core.
 Complete sort for first half transformation.
 First half transformation complete.
 Complete sort for second half transformation.
 Second half transformation complete.
 Spin components of T(2) and E(2):
     alpha-alpha T2 =       0.1719292387D-01 E2=     -0.5485534579D-01
     alpha-beta  T2 =       0.1073768716D+00 E2=     -0.3331319745D+00
     beta-beta   T2 =       0.1719292387D-01 E2=     -0.5485534579D-01
 ANorm=    0.1068532975D+01
 E2 =    -0.4428426661D+00 EUMP2 =    -0.15209160673359D+03
 Leave Link  804 at Tue Oct 10 01:42:02 2017, MaxMem=    33554432 cpu:         8.4
 (Enter /usr/local/gaussian/2009-E.01/g09/l913.exe)
 CIDS:  MDV=    33554432.
 Frozen-core window:  NFC=   3 NFV=   0.
 IFCWin=0 IBDFC=1 NFBD=     0     0 NFCmp=     0     0 NFFFC=     0     0
 Using DD3R+UMP44R for 1st iteration, S=T.
 Using DD4RQ for 2nd and later iterations.
 Keep R2 and R3 ints in memory in symmetry-blocked form, NReq=8416254.
 FoFCou: FMM=F IPFlag=           0 FMFlag=           0 FMFlg1=           0
         NFxFlg=           0 DoJE=F BraDBF=F KetDBF=F FulRan=T
         wScrn=  0.000000 ICntrl=     600 IOpCl=  0 I1Cent=           0 NGrid=           0
         NMat0=    1 NMatS0=   3240 NMatT0=    0 NMatD0=    1 NMtDS0=    0 NMtDT0=    0
 Petite list used in FoFCou.
 CCSD(T)
 =======
 Iterations= 200 Convergence= 0.100D-06
 Iteration Nr.   1
 **********************
 DD1Dir will call FoFMem   1 times, MxPair=        72
 NAB=    36 NAA=     0 NBB=     0.
 MP4(R+Q)=  0.89699089D-02
 Maximum subspace dimension=  5
 Norm of the A-vectors is  5.8940703D-01 conv= 1.00D-05.
 RLE energy=       -0.4518974134
 E3=       -0.18008382D-01        EUMP3=      -0.15210961512D+03
 E4(DQ)=   -0.29355184D-02        UMP4(DQ)=   -0.15211255063D+03
 E4(SDQ)=  -0.87849526D-02        UMP4(SDQ)=  -0.15211840007D+03
 VARIATIONAL ENERGIES WITH THE FIRST-ORDER WAVEFUNCTION:
 DE(Corr)= -0.45171604     E(Corr)=     -152.10048011    
 NORM(A)=   0.10763051D+01
 Iteration Nr.   2
 **********************
 DD1Dir will call FoFMem   1 times, MxPair=        72
 NAB=    36 NAA=     0 NBB=     0.
 Norm of the A-vectors is  2.4785409D-01 conv= 1.00D-05.
 RLE energy=       -0.4684802515
 DE(Corr)= -0.46615470     E(CORR)=     -152.11491876     Delta=-1.44D-02
 NORM(A)=   0.10854464D+01
 Iteration Nr.   3
 **********************
 DD1Dir will call FoFMem   1 times, MxPair=        72
 NAB=    36 NAA=     0 NBB=     0.
 Norm of the A-vectors is  8.3119729D-02 conv= 1.00D-05.
 RLE energy=       -0.4698585661
 DE(Corr)= -0.46809383     E(CORR)=     -152.11685789     Delta=-1.94D-03
 NORM(A)=   0.10886083D+01
 Iteration Nr.   4
 **********************
 DD1Dir will call FoFMem   1 times, MxPair=        72
 NAB=    36 NAA=     0 NBB=     0.
 Norm of the A-vectors is  3.6066251D-02 conv= 1.00D-05.
 RLE energy=       -0.4701497703
 DE(Corr)= -0.46994355     E(CORR)=     -152.11870762     Delta=-1.85D-03
 NORM(A)=   0.10896539D+01
 Iteration Nr.   5
 **********************
 DD1Dir will call FoFMem   1 times, MxPair=        72
 NAB=    36 NAA=     0 NBB=     0.
 Norm of the A-vectors is  1.1832049D-02 conv= 1.00D-05.
 RLE energy=       -0.4702620475
 DE(Corr)= -0.47019399     E(CORR)=     -152.11895806     Delta=-2.50D-04
 NORM(A)=   0.10899938D+01
 Iteration Nr.   6
 **********************
 DD1Dir will call FoFMem   1 times, MxPair=        72
 NAB=    36 NAA=     0 NBB=     0.
 Norm of the A-vectors is  4.9446469D-03 conv= 1.00D-05.
 RLE energy=       -0.4702259415
 DE(Corr)= -0.47024084     E(CORR)=     -152.11900491     Delta=-4.68D-05
 NORM(A)=   0.10900416D+01
 Iteration Nr.   7
 **********************
 DD1Dir will call FoFMem   1 times, MxPair=        72
 NAB=    36 NAA=     0 NBB=     0.
 Norm of the A-vectors is  2.5785291D-03 conv= 1.00D-05.
 RLE energy=       -0.4702303059
 DE(Corr)= -0.47024553     E(CORR)=     -152.11900960     Delta=-4.69D-06
 NORM(A)=   0.10900511D+01
 Iteration Nr.   8
 **********************
 DD1Dir will call FoFMem   1 times, MxPair=        72
 NAB=    36 NAA=     0 NBB=     0.
 Norm of the A-vectors is  1.1837216D-03 conv= 1.00D-05.
 RLE energy=       -0.4702370981
 DE(Corr)= -0.47024018     E(CORR)=     -152.11900425     Delta= 5.35D-06
 NORM(A)=   0.10900556D+01
 Iteration Nr.   9
 **********************
 DD1Dir will call FoFMem   1 times, MxPair=        72
 NAB=    36 NAA=     0 NBB=     0.
 Norm of the A-vectors is  6.4029346D-04 conv= 1.00D-05.
 RLE energy=       -0.4702418101
 DE(Corr)= -0.47024230     E(CORR)=     -152.11900636     Delta=-2.11D-06
 NORM(A)=   0.10900582D+01
 Iteration Nr.  10
 **********************
 DD1Dir will call FoFMem   1 times, MxPair=        72
 NAB=    36 NAA=     0 NBB=     0.
 Norm of the A-vectors is  3.8746958D-04 conv= 1.00D-05.
 RLE energy=       -0.4702436430
 DE(Corr)= -0.47024273     E(CORR)=     -152.11900680     Delta=-4.34D-07
 NORM(A)=   0.10900616D+01
 Iteration Nr.  11
 **********************
 DD1Dir will call FoFMem   1 times, MxPair=        72
 NAB=    36 NAA=     0 NBB=     0.
 Norm of the A-vectors is  2.3789189D-04 conv= 1.00D-05.
 RLE energy=       -0.4702454480
 DE(Corr)= -0.47024467     E(CORR)=     -152.11900873     Delta=-1.94D-06
 NORM(A)=   0.10900645D+01
 Iteration Nr.  12
 **********************
 DD1Dir will call FoFMem   1 times, MxPair=        72
 NAB=    36 NAA=     0 NBB=     0.
 Norm of the A-vectors is  1.2722076D-04 conv= 1.00D-05.
 RLE energy=       -0.4702451958
 DE(Corr)= -0.47024491     E(CORR)=     -152.11900898     Delta=-2.48D-07
 NORM(A)=   0.10900661D+01
 Iteration Nr.  13
 **********************
 DD1Dir will call FoFMem   1 times, MxPair=        72
 NAB=    36 NAA=     0 NBB=     0.
 Norm of the A-vectors is  6.7553643D-05 conv= 1.00D-05.
 RLE energy=       -0.4702455016
 DE(Corr)= -0.47024544     E(CORR)=     -152.11900951     Delta=-5.30D-07
 NORM(A)=   0.10900671D+01
 Iteration Nr.  14
 **********************
 DD1Dir will call FoFMem   1 times, MxPair=        72
 NAB=    36 NAA=     0 NBB=     0.
 Norm of the A-vectors is  3.0511158D-05 conv= 1.00D-05.
 RLE energy=       -0.4702455477
 DE(Corr)= -0.47024549     E(CORR)=     -152.11900956     Delta=-5.14D-08
 NORM(A)=   0.10900675D+01
 Iteration Nr.  15
 **********************
 DD1Dir will call FoFMem   1 times, MxPair=        72
 NAB=    36 NAA=     0 NBB=     0.
 Norm of the A-vectors is  1.6400618D-05 conv= 1.00D-05.
 RLE energy=       -0.4702455725
 DE(Corr)= -0.47024557     E(CORR)=     -152.11900963     Delta=-7.18D-08
 NORM(A)=   0.10900678D+01
 Iteration Nr.  16
 **********************
 DD1Dir will call FoFMem   1 times, MxPair=        72
 NAB=    36 NAA=     0 NBB=     0.
 Norm of the A-vectors is  8.6497354D-06 conv= 1.00D-05.
 RLE energy=       -0.4702456442
 DE(Corr)= -0.47024562     E(CORR)=     -152.11900969     Delta=-5.83D-08
 NORM(A)=   0.10900679D+01
 CI/CC converged in   16 iterations to DelEn=-5.83D-08 Conv= 1.00D-07 ErrA1= 8.65D-06 Conv= 1.00D-05
 Largest amplitude= 7.70D-02
 IPart=  4 IA=    5   11.34% done.
 IPart=  8 IA=    9   21.99% done.
 IPart=  6 IA=   13   31.97% done.
 IPart=  6 IA=   17   41.26% done.
 IPart=  3 IA=   22   51.92% done.
 IPart=  3 IA=   27   61.51% done.
 IPart=  6 IA=   32   70.03% done.
 IPart=  1 IA=   39   80.18% done.
 IPart=  6 IA=   48   90.15% done.
 Time for triples=      135.35 seconds.
 T4(CCSD)= -0.19174148D-01
 T5(CCSD)=  0.99676023D-03
 CCSD(T)= -0.15213718708D+03
 Discarding MO integrals.
 Leave Link  913 at Tue Oct 10 01:42:55 2017, MaxMem=    33554432 cpu:       377.9
 (Enter /usr/local/gaussian/2009-E.01/g09/l601.exe)
 Copying SCF densities to generalized density rwf, IOpCl= 0 IROHF=0.

 **********************************************************************

            Population analysis using the SCF density.

 **********************************************************************

 Orbital symmetries:
       Occupied  (A') (A') (A') (A') (A') (A') (A') (A") (A') (A')
                 (A")
       Virtual   (A') (A') (A') (A') (A") (A") (A') (A') (A') (A')
                 (A") (A') (A') (A') (A") (A') (A') (A') (A') (A')
                 (A') (A') (A") (A') (A') (A") (A') (A') (A') (A')
                 (A') (A") (A") (A') (A") (A') (A") (A') (A") (A')
                 (A') (A') (A') (A') (A") (A") (A') (A') (A') (A')
                 (A') (A') (A") (A') (A") (A") (A') (A") (A') (A')
                 (A') (A') (A') (A") (A') (A') (A') (A') (A')
 The electronic state is 1-A'.
 Alpha  occ. eigenvalues --  -20.63250 -11.31568 -11.29668  -1.44001  -1.05323
 Alpha  occ. eigenvalues --   -0.82567  -0.67632  -0.61485  -0.60997  -0.45891
 Alpha  occ. eigenvalues --   -0.38717
 Alpha virt. eigenvalues --    0.02116   0.05509   0.06483   0.10524   0.11981
 Alpha virt. eigenvalues --    0.13074   0.13843   0.15444   0.16877   0.19368
 Alpha virt. eigenvalues --    0.22262   0.22296   0.24723   0.29409   0.30367
 Alpha virt. eigenvalues --    0.31238   0.38370   0.41082   0.49157   0.56999
 Alpha virt. eigenvalues --    0.63135   0.67769   0.69263   0.71691   0.77438
 Alpha virt. eigenvalues --    0.79507   0.83589   0.91909   0.96828   1.10404
 Alpha virt. eigenvalues --    1.25061   1.25658   1.30122   1.37913   1.41642
 Alpha virt. eigenvalues --    1.52656   1.60022   1.62179   1.67593   1.70498
 Alpha virt. eigenvalues --    1.80824   1.92020   2.02217   2.07592   2.11380
 Alpha virt. eigenvalues --    2.26469   2.32353   2.53216   2.63670   2.73988
 Alpha virt. eigenvalues --    2.87689   2.88527   3.01980   3.23235   3.24034
 Alpha virt. eigenvalues --    3.43604   3.44123   3.55655   3.57840   3.79107
 Alpha virt. eigenvalues --    3.99475   4.22892   4.36028   5.49907   5.90925
 Alpha virt. eigenvalues --    6.20462  24.57246  25.40091  51.55051
          Condensed to atoms (all electrons):
               1          2          3          4          5
     1  C    5.964943  -0.051139   0.026851  -0.038220   0.018210
     2  C   -0.051139   5.891475   0.330754   0.017722   0.064966
     3  H    0.026851   0.330754   0.502505   0.012268  -0.038905
     4  H   -0.038220   0.017722   0.012268   0.438029   0.300412
     5  O    0.018210   0.064966  -0.038905   0.300412   7.917208
 Mulliken charges:
               1
     1  C    0.079354
     2  C   -0.253779
     3  H    0.166526
     4  H    0.269789
     5  O   -0.261890
 Sum of Mulliken charges =  -0.00000
 Mulliken charges with hydrogens summed into heavy atoms:
               1
     1  C    0.079354
     2  C   -0.087253
     5  O    0.007899
 Electronic spatial extent (au):  <R**2>=            139.7908
 Charge=             -0.0000 electrons
 Dipole moment (field-independent basis, Debye):
    X=             -1.1254    Y=             -1.3508    Z=             -0.0000  Tot=              1.7581
 Quadrupole moment (field-independent basis, Debye-Ang):
   XX=            -24.4989   YY=            -13.1766   ZZ=            -19.9446
   XY=             -3.7419   XZ=             -0.0000   YZ=              0.0000
 Traceless Quadrupole moment (field-independent basis, Debye-Ang):
   XX=             -5.2922   YY=              6.0301   ZZ=             -0.7379
   XY=             -3.7419   XZ=             -0.0000   YZ=              0.0000
 Octapole moment (field-independent basis, Debye-Ang**2):
  XXX=            -17.1063  YYY=            -10.8136  ZZZ=             -0.0000  XYY=             -5.4035
  XXY=             -5.2152  XXZ=             -0.0000  XZZ=             -4.3448  YZZ=             -3.0879
  YYZ=             -0.0000  XYZ=             -0.0000
 Hexadecapole moment (field-independent basis, Debye-Ang**3):
 XXXX=           -136.6266 YYYY=            -47.4928 ZZZZ=            -22.7158 XXXY=            -37.1035
 XXXZ=             -0.0000 YYYX=            -24.9074 YYYZ=              0.0000 ZZZX=             -0.0000
 ZZZY=             -0.0000 XXYY=            -32.3772 XXZZ=            -24.9318 YYZZ=            -15.4496
 XXYZ=             -0.0000 YYXZ=             -0.0000 ZZXY=             -9.8880
 N-N= 5.735480148336D+01 E-N=-4.708786693663D+02  KE= 1.514935056552D+02
 Symmetry A'   KE= 1.448291826703D+02
 Symmetry A"   KE= 6.664322984858D+00
 Leave Link  601 at Tue Oct 10 01:42:55 2017, MaxMem=    33554432 cpu:         0.2
 (Enter /usr/local/gaussian/2009-E.01/g09/l9999.exe)
 1\1\ WCSS.PL-BEM-WN1424\SP\RCCSD(T)-FC\6-311++G(d,p)\C2H2O1\ROOT\10-Oc
 t-2017\0\\#p ccsd(t,maxcyc=200)/6-311++G(d,p)\\ccsd(t) iener\\0,1\C,0,
 1.5469,0.38472,0.338171\C,0,0.539067,-0.154508,-0.308247\H,0,0.9789236
 5,-1.018381298,-0.835346127\H,0,-1.08520481,0.802268694,-0.005907998\O
 ,0,-0.79003374,0.02940585,-0.50181793\\Version=ES64L-G09RevE.01\State=
 1-A'\HF=-151.6487641\MP2=-152.0916067\MP3=-152.1096151\MP4D=-152.12152
 05\MP4DQ=-152.1125506\MP4SDQ=-152.1184001\CCSD=-152.1190097\CCSD(T)=-1
 52.1371871\RMSD=5.454e-09\PG=CS [SG(C2H2O1)]\\@


 FIREWORKS ENDED
 AND SPECTATORS GONE AWAY....
 AH, HOW VAST AND DARK
                     SHIKI
 Job cpu time:       0 days  0 hours  7 minutes  4.2 seconds.
 File lengths (MBytes):  RWF=     99 Int=      0 D2E=      0 Chk=      1 Scr=      1
 Normal termination of Gaussian 09 at Tue Oct 10 01:42:55 2017.
