 Entering Gaussian System, Link 0=/usr/local/gaussian/2009-E.01/g09/g09
 Initial command:
 /usr/local/gaussian/2009-E.01/g09/l1.exe "/lustre/scratch/eerd/4986703.achilles/Gau-171794.inp" -scrdir="/lustre/scratch/eerd/4986703.achilles/"
 Entering Link 1 = /usr/local/gaussian/2009-E.01/g09/l1.exe PID=    171796.
  
 Copyright (c) 1988,1990,1992,1993,1995,1998,2003,2009,2015,
            Gaussian, Inc.  All Rights Reserved.
  
 This is part of the Gaussian(R) 09 program.  It is based on
 the Gaussian(R) 03 system (copyright 2003, Gaussian, Inc.),
 the Gaussian(R) 98 system (copyright 1998, Gaussian, Inc.),
 the Gaussian(R) 94 system (copyright 1995, Gaussian, Inc.),
 the Gaussian 92(TM) system (copyright 1992, Gaussian, Inc.),
 the Gaussian 90(TM) system (copyright 1990, Gaussian, Inc.),
 the Gaussian 88(TM) system (copyright 1988, Gaussian, Inc.),
 the Gaussian 86(TM) system (copyright 1986, Carnegie Mellon
 University), and the Gaussian 82(TM) system (copyright 1983,
 Carnegie Mellon University). Gaussian is a federally registered
 trademark of Gaussian, Inc.
  
 This software contains proprietary and confidential information,
 including trade secrets, belonging to Gaussian, Inc.
  
 This software is provided under written license and may be
 used, copied, transmitted, or stored only in accord with that
 written license.
  
 The following legend is applicable only to US Government
 contracts under FAR:
  
                    RESTRICTED RIGHTS LEGEND
  
 Use, reproduction and disclosure by the US Government is
 subject to restrictions as set forth in subparagraphs (a)
 and (c) of the Commercial Computer Software - Restricted
 Rights clause in FAR 52.227-19.
  
 Gaussian, Inc.
 340 Quinnipiac St., Bldg. 40, Wallingford CT 06492
  
  
 ---------------------------------------------------------------
 Warning -- This program may not be used in any manner that
 competes with the business of Gaussian, Inc. or will provide
 assistance to any competitor of Gaussian, Inc.  The licensee
 of this program is prohibited from giving any competitor of
 Gaussian, Inc. access to this program.  By using this program,
 the user acknowledges that Gaussian, Inc. is engaged in the
 business of creating and licensing software in the field of
 computational chemistry and represents and warrants to the
 licensee that it is not a competitor of Gaussian, Inc. and that
 it will not use this program in any manner prohibited above.
 ---------------------------------------------------------------
  

 Cite this work as:
 Gaussian 09, Revision E.01,
 M. J. Frisch, G. W. Trucks, H. B. Schlegel, G. E. Scuseria, 
 M. A. Robb, J. R. Cheeseman, G. Scalmani, V. Barone, B. Mennucci, 
 G. A. Petersson, H. Nakatsuji, M. Caricato, X. Li, H. P. Hratchian, 
 A. F. Izmaylov, J. Bloino, G. Zheng, J. L. Sonnenberg, M. Hada, 
 M. Ehara, K. Toyota, R. Fukuda, J. Hasegawa, M. Ishida, T. Nakajima, 
 Y. Honda, O. Kitao, H. Nakai, T. Vreven, J. A. Montgomery, Jr., 
 J. E. Peralta, F. Ogliaro, M. Bearpark, J. J. Heyd, E. Brothers, 
 K. N. Kudin, V. N. Staroverov, T. Keith, R. Kobayashi, J. Normand, 
 K. Raghavachari, A. Rendell, J. C. Burant, S. S. Iyengar, J. Tomasi, 
 M. Cossi, N. Rega, J. M. Millam, M. Klene, J. E. Knox, J. B. Cross, 
 V. Bakken, C. Adamo, J. Jaramillo, R. Gomperts, R. E. Stratmann, 
 O. Yazyev, A. J. Austin, R. Cammi, C. Pomelli, J. W. Ochterski, 
 R. L. Martin, K. Morokuma, V. G. Zakrzewski, G. A. Voth, 
 P. Salvador, J. J. Dannenberg, S. Dapprich, A. D. Daniels, 
 O. Farkas, J. B. Foresman, J. V. Ortiz, J. Cioslowski, 
 and D. J. Fox, Gaussian, Inc., Wallingford CT, 2013.
 
 ******************************************
 Gaussian 09:  ES64L-G09RevE.01 30-Nov-2015
                10-Oct-2017 
 ******************************************
 %NProcShared=8
 Will use up to    8 processors via shared memory.
 -----------------------------------
 #p ccsd(t,maxcyc=200)/6-311++G(d,p)
 -----------------------------------
 1/38=1/1;
 2/12=2,17=6,18=5,40=1/2;
 3/5=4,6=6,7=1111,11=9,16=1,25=1,30=1/1,2,3;
 4//1;
 5/5=2,38=5/2;
 8/6=4,9=120000,10=2/1,4;
 9/5=7,6=200,14=2/13;
 6/7=2,8=2,9=2,10=2/1;
 99/5=1,9=1/99;
 Leave Link    1 at Tue Oct 10 01:50:42 2017, MaxMem=           0 cpu:         6.0
 (Enter /usr/local/gaussian/2009-E.01/g09/l101.exe)
 -------------
 ccsd(t) iener
 -------------
 Symbolic Z-matrix:
 Charge =  0 Multiplicity = 1
 C                     0.74077   0.48946   0.07969 
 C                     0.00762  -0.55293  -0.15062 
 H                    -0.06243  -1.35194   0.58572 
 H                    -0.54716  -0.64226  -1.08323 
 
 NAtoms=      4 NQM=        4 NQMF=       0 NMMI=      0 NMMIF=      0
                NMic=       0 NMicF=      0.
                    Isotopes and Nuclear Properties:
 (Nuclear quadrupole moments (NQMom) in fm**2, nuclear magnetic moments (NMagM)
  in nuclear magnetons)

  Atom         1           2           3           4
 IAtWgt=          12          12           1           1
 AtmWgt=  12.0000000  12.0000000   1.0078250   1.0078250
 NucSpn=           0           0           1           1
 AtZEff=   0.0000000   0.0000000   0.0000000   0.0000000
 NQMom=    0.0000000   0.0000000   0.0000000   0.0000000
 NMagM=    0.0000000   0.0000000   2.7928460   2.7928460
 AtZNuc=   6.0000000   6.0000000   1.0000000   1.0000000
 Leave Link  101 at Tue Oct 10 01:50:42 2017, MaxMem=    33554432 cpu:         0.6
 (Enter /usr/local/gaussian/2009-E.01/g09/l202.exe)
                          Input orientation:                          
 ---------------------------------------------------------------------
 Center     Atomic      Atomic             Coordinates (Angstroms)
 Number     Number       Type             X           Y           Z
 ---------------------------------------------------------------------
      1          6           0        0.740774    0.489456    0.079691
      2          6           0        0.007616   -0.552929   -0.150617
      3          1           0       -0.062425   -1.351943    0.585721
      4          1           0       -0.547159   -0.642263   -1.083231
 ---------------------------------------------------------------------
                    Distance matrix (angstroms):
                    1          2          3          4
     1  C    0.000000
     2  C    1.295039   0.000000
     3  H    2.071701   1.088818   0.000000
     4  H    2.071701   1.088818   1.877236   0.000000
 Stoichiometry    C2H2
 Framework group  C2V[C2(CC),SGV(H2)]
 Deg. of freedom     3
 Full point group                 C2V     NOp   4
 Largest Abelian subgroup         C2V     NOp   4
 Largest concise Abelian subgroup C2      NOp   2
                         Standard orientation:                         
 ---------------------------------------------------------------------
 Center     Atomic      Atomic             Coordinates (Angstroms)
 Number     Number       Type             X           Y           Z
 ---------------------------------------------------------------------
      1          6           0        0.000000   -0.000000    0.818856
      2          6           0       -0.000000    0.000000   -0.476183
      3          1           0       -0.000000    0.938618   -1.028017
      4          1           0       -0.000000   -0.938618   -1.028017
 ---------------------------------------------------------------------
 Rotational constants (GHZ):    284.5930485     39.6763794     34.8217278
 Leave Link  202 at Tue Oct 10 01:50:42 2017, MaxMem=    33554432 cpu:         0.1
 (Enter /usr/local/gaussian/2009-E.01/g09/l301.exe)
 Standard basis: 6-311++G(d,p) (5D, 7F)
 Ernie: Thresh=  0.10000D-02 Tol=  0.10000D-05 Strict=F.
 There are    30 symmetry adapted cartesian basis functions of A1  symmetry.
 There are     3 symmetry adapted cartesian basis functions of A2  symmetry.
 There are    11 symmetry adapted cartesian basis functions of B1  symmetry.
 There are    16 symmetry adapted cartesian basis functions of B2  symmetry.
 There are    28 symmetry adapted basis functions of A1  symmetry.
 There are     3 symmetry adapted basis functions of A2  symmetry.
 There are    11 symmetry adapted basis functions of B1  symmetry.
 There are    16 symmetry adapted basis functions of B2  symmetry.
    58 basis functions,    90 primitive gaussians,    60 cartesian basis functions
     7 alpha electrons        7 beta electrons
       nuclear repulsion energy        23.8894677383 Hartrees.
 IExCor=    0 DFT=F Ex=HF Corr=None ExCW=0 ScaHFX=  1.000000
 ScaDFX=  1.000000  1.000000  1.000000  1.000000 ScalE2=  1.000000  1.000000
 IRadAn=      0 IRanWt=     -1 IRanGd=            0 ICorTp=0 IEmpDi=  4
 NAtoms=    4 NActive=    4 NUniq=    3 SFac= 1.78D+00 NAtFMM=   60 NAOKFM=F Big=F
 Integral buffers will be    131072 words long.
 Raffenetti 1 integral format.
 Two-electron integral symmetry is turned on.
 Leave Link  301 at Tue Oct 10 01:50:43 2017, MaxMem=    33554432 cpu:         0.8
 (Enter /usr/local/gaussian/2009-E.01/g09/l302.exe)
 NPDir=0 NMtPBC=     1 NCelOv=     1 NCel=       1 NClECP=     1 NCelD=      1
         NCelK=      1 NCelE2=     1 NClLst=     1 CellRange=     0.0.
 One-electron integrals computed using PRISM.
 One-electron integral symmetry used in STVInt
 NBasis=    58 RedAO= T EigKep=  3.28D-04  NBF=    28     3    11    16
 NBsUse=    58 1.00D-06 EigRej= -1.00D+00 NBFU=    28     3    11    16
 Leave Link  302 at Tue Oct 10 01:50:43 2017, MaxMem=    33554432 cpu:         1.2
 (Enter /usr/local/gaussian/2009-E.01/g09/l303.exe)
 DipDrv:  MaxL=1.
 Leave Link  303 at Tue Oct 10 01:50:43 2017, MaxMem=    33554432 cpu:         0.9
 (Enter /usr/local/gaussian/2009-E.01/g09/l401.exe)
 ExpMin= 3.60D-02 ExpMax= 4.56D+03 ExpMxC= 6.82D+02 IAcc=3 IRadAn=         5 AccDes= 0.00D+00
 Harris functional with IExCor=  205 and IRadAn=       5 diagonalized for initial guess.
 HarFok:  IExCor=  205 AccDes= 0.00D+00 IRadAn=         5 IDoV= 1 UseB2=F ITyADJ=14
 ICtDFT=  3500011 ScaDFX=  1.000000  1.000000  1.000000  1.000000
 FoFCou: FMM=F IPFlag=           0 FMFlag=      100000 FMFlg1=           0
         NFxFlg=           0 DoJE=T BraDBF=F KetDBF=T FulRan=T
         wScrn=  0.000000 ICntrl=     500 IOpCl=  0 I1Cent=   200000004 NGrid=           0
         NMat0=    1 NMatS0=      1 NMatT0=    0 NMatD0=    1 NMtDS0=    0 NMtDT0=    0
 Petite list used in FoFCou.
 Harris En= -76.8727882146162    
 JPrj=0 DoOrth=F DoCkMO=F.
 Initial guess orbital symmetries:
       Occupied  (A1) (A1) (A1) (A1) (B2) (B1) (A1)
       Virtual   (B2) (B1) (A1) (B2) (A1) (B1) (A1) (B2) (A1) (B1)
                 (A1) (B2) (A1) (B2) (A1) (A1) (A1) (B1) (B2) (B2)
                 (B1) (B2) (A1) (A1) (A1) (A2) (B1) (A1) (A2) (B2)
                 (B2) (A1) (B1) (A1) (A2) (B2) (A1) (B1) (A1) (B2)
                 (A1) (B2) (B1) (A1) (B1) (B2) (A1) (A1) (B2) (A1)
                 (A1)
 The electronic state of the initial guess is 1-A1.
 Leave Link  401 at Tue Oct 10 01:50:43 2017, MaxMem=    33554432 cpu:         1.6
 (Enter /usr/local/gaussian/2009-E.01/g09/l502.exe)
 Closed shell SCF:
 Using DIIS extrapolation, IDIIS=  1040.
 Integral symmetry usage will be decided dynamically.
 Keep R1 ints in memory in symmetry-blocked form, NReq=2339831.
 IVT=       30414 IEndB=       30414 NGot=    33554432 MDV=    33116589
 LenX=    33116589 LenY=    33112548
 Requested convergence on RMS density matrix=1.00D-08 within 128 cycles.
 Requested convergence on MAX density matrix=1.00D-06.
 Requested convergence on             energy=1.00D-06.
 No special actions if energy rises.
 FoFCou: FMM=F IPFlag=           0 FMFlag=           0 FMFlg1=           0
         NFxFlg=           0 DoJE=F BraDBF=F KetDBF=F FulRan=T
         wScrn=  0.000000 ICntrl=     600 IOpCl=  0 I1Cent=           0 NGrid=           0
         NMat0=    1 NMatS0=   1711 NMatT0=    0 NMatD0=    1 NMtDS0=    0 NMtDT0=    0
 Petite list used in FoFCou.

 Cycle   1  Pass 1  IDiag  1:
 E= -76.6796124920848    
 DIIS: error= 5.75D-02 at cycle   1 NSaved=   1.
 NSaved= 1 IEnMin= 1 EnMin= -76.6796124920848     IErMin= 1 ErrMin= 5.75D-02
 ErrMax= 5.75D-02  0.00D+00 EMaxC= 1.00D-01 BMatC= 1.76D-01 BMatP= 1.76D-01
 IDIUse=3 WtCom= 4.25D-01 WtEn= 5.75D-01
 Coeff-Com:  0.100D+01
 Coeff-En:   0.100D+01
 Coeff:      0.100D+01
 Gap=     0.408 Goal=   None    Shift=    0.000
 GapD=    0.408 DampG=2.000 DampE=0.500 DampFc=1.0000 IDamp=-1.
 RMSDP=5.82D-03 MaxDP=1.11D-01              OVMax= 1.47D-01

 Cycle   2  Pass 1  IDiag  1:
 E= -76.7710099208650     Delta-E=       -0.091397428780 Rises=F Damp=F
 DIIS: error= 1.91D-02 at cycle   2 NSaved=   2.
 NSaved= 2 IEnMin= 2 EnMin= -76.7710099208650     IErMin= 2 ErrMin= 1.91D-02
 ErrMax= 1.91D-02  0.00D+00 EMaxC= 1.00D-01 BMatC= 1.62D-02 BMatP= 1.76D-01
 IDIUse=3 WtCom= 8.09D-01 WtEn= 1.91D-01
 Coeff-Com:  0.166D+00 0.834D+00
 Coeff-En:   0.000D+00 0.100D+01
 Coeff:      0.134D+00 0.866D+00
 Gap=     0.471 Goal=   None    Shift=    0.000
 RMSDP=1.60D-03 MaxDP=4.27D-02 DE=-9.14D-02 OVMax= 4.81D-02

 Cycle   3  Pass 1  IDiag  1:
 E= -76.7846802672261     Delta-E=       -0.013670346361 Rises=F Damp=F
 DIIS: error= 7.55D-03 at cycle   3 NSaved=   3.
 NSaved= 3 IEnMin= 3 EnMin= -76.7846802672261     IErMin= 3 ErrMin= 7.55D-03
 ErrMax= 7.55D-03  0.00D+00 EMaxC= 1.00D-01 BMatC= 1.41D-03 BMatP= 1.62D-02
 IDIUse=3 WtCom= 9.24D-01 WtEn= 7.55D-02
 Coeff-Com: -0.182D-01 0.183D+00 0.835D+00
 Coeff-En:   0.000D+00 0.000D+00 0.100D+01
 Coeff:     -0.168D-01 0.169D+00 0.847D+00
 Gap=     0.462 Goal=   None    Shift=    0.000
 RMSDP=6.99D-04 MaxDP=1.38D-02 DE=-1.37D-02 OVMax= 2.26D-02

 Cycle   4  Pass 1  IDiag  1:
 E= -76.7862801066497     Delta-E=       -0.001599839424 Rises=F Damp=F
 DIIS: error= 2.96D-03 at cycle   4 NSaved=   4.
 NSaved= 4 IEnMin= 4 EnMin= -76.7862801066497     IErMin= 4 ErrMin= 2.96D-03
 ErrMax= 2.96D-03  0.00D+00 EMaxC= 1.00D-01 BMatC= 9.26D-05 BMatP= 1.41D-03
 IDIUse=3 WtCom= 9.70D-01 WtEn= 2.96D-02
 Coeff-Com: -0.684D-02 0.612D-04 0.186D+00 0.821D+00
 Coeff-En:   0.000D+00 0.000D+00 0.000D+00 0.100D+01
 Coeff:     -0.664D-02 0.593D-04 0.180D+00 0.826D+00
 Gap=     0.459 Goal=   None    Shift=    0.000
 RMSDP=1.44D-04 MaxDP=2.95D-03 DE=-1.60D-03 OVMax= 6.98D-03

 Cycle   5  Pass 1  IDiag  1:
 E= -76.7864341776227     Delta-E=       -0.000154070973 Rises=F Damp=F
 DIIS: error= 9.19D-04 at cycle   5 NSaved=   5.
 NSaved= 5 IEnMin= 5 EnMin= -76.7864341776227     IErMin= 5 ErrMin= 9.19D-04
 ErrMax= 9.19D-04  0.00D+00 EMaxC= 1.00D-01 BMatC= 9.76D-06 BMatP= 9.26D-05
 IDIUse=3 WtCom= 9.91D-01 WtEn= 9.19D-03
 Coeff-Com:  0.402D-02-0.315D-01-0.157D+00-0.277D+00 0.146D+01
 Coeff-En:   0.000D+00 0.000D+00 0.000D+00 0.000D+00 0.100D+01
 Coeff:      0.398D-02-0.312D-01-0.155D+00-0.275D+00 0.146D+01
 Gap=     0.460 Goal=   None    Shift=    0.000
 RMSDP=1.36D-04 MaxDP=2.02D-03 DE=-1.54D-04 OVMax= 4.82D-03

 Cycle   6  Pass 1  IDiag  1:
 E= -76.7864793581760     Delta-E=       -0.000045180553 Rises=F Damp=F
 DIIS: error= 1.85D-04 at cycle   6 NSaved=   6.
 NSaved= 6 IEnMin= 6 EnMin= -76.7864793581760     IErMin= 6 ErrMin= 1.85D-04
 ErrMax= 1.85D-04  0.00D+00 EMaxC= 1.00D-01 BMatC= 7.01D-07 BMatP= 9.76D-06
 IDIUse=3 WtCom= 9.98D-01 WtEn= 1.85D-03
 Coeff-Com: -0.116D-02 0.109D-01 0.570D-01 0.271D-01-0.512D+00 0.142D+01
 Coeff-En:   0.000D+00 0.000D+00 0.000D+00 0.000D+00 0.000D+00 0.100D+01
 Coeff:     -0.116D-02 0.109D-01 0.569D-01 0.271D-01-0.511D+00 0.142D+01
 Gap=     0.460 Goal=   None    Shift=    0.000
 RMSDP=5.24D-05 MaxDP=1.06D-03 DE=-4.52D-05 OVMax= 1.22D-03

 Cycle   7  Pass 1  IDiag  1:
 E= -76.7864820052016     Delta-E=       -0.000002647026 Rises=F Damp=F
 DIIS: error= 5.76D-05 at cycle   7 NSaved=   7.
 NSaved= 7 IEnMin= 7 EnMin= -76.7864820052016     IErMin= 7 ErrMin= 5.76D-05
 ErrMax= 5.76D-05  0.00D+00 EMaxC= 1.00D-01 BMatC= 4.92D-08 BMatP= 7.01D-07
 IDIUse=1 WtCom= 1.00D+00 WtEn= 0.00D+00
 Coeff-Com:  0.207D-03-0.229D-02-0.124D-01-0.645D-02 0.143D+00-0.669D+00
 Coeff-Com:  0.155D+01
 Coeff:      0.207D-03-0.229D-02-0.124D-01-0.645D-02 0.143D+00-0.669D+00
 Coeff:      0.155D+01
 Gap=     0.460 Goal=   None    Shift=    0.000
 RMSDP=2.84D-05 MaxDP=5.57D-04 DE=-2.65D-06 OVMax= 3.86D-04

 Cycle   8  Pass 1  IDiag  1:
 E= -76.7864821905919     Delta-E=       -0.000000185390 Rises=F Damp=F
 DIIS: error= 7.33D-06 at cycle   8 NSaved=   8.
 NSaved= 8 IEnMin= 8 EnMin= -76.7864821905919     IErMin= 8 ErrMin= 7.33D-06
 ErrMax= 7.33D-06  0.00D+00 EMaxC= 1.00D-01 BMatC= 8.95D-10 BMatP= 4.92D-08
 IDIUse=1 WtCom= 1.00D+00 WtEn= 0.00D+00
 Coeff-Com: -0.209D-04 0.169D-03 0.137D-02-0.723D-03-0.140D-01 0.111D+00
 Coeff-Com: -0.371D+00 0.127D+01
 Coeff:     -0.209D-04 0.169D-03 0.137D-02-0.723D-03-0.140D-01 0.111D+00
 Coeff:     -0.371D+00 0.127D+01
 Gap=     0.460 Goal=   None    Shift=    0.000
 RMSDP=2.76D-06 MaxDP=5.22D-05 DE=-1.85D-07 OVMax= 2.19D-05

 Cycle   9  Pass 1  IDiag  1:
 E= -76.7864821924818     Delta-E=       -0.000000001890 Rises=F Damp=F
 DIIS: error= 4.17D-07 at cycle   9 NSaved=   9.
 NSaved= 9 IEnMin= 9 EnMin= -76.7864821924818     IErMin= 9 ErrMin= 4.17D-07
 ErrMax= 4.17D-07  0.00D+00 EMaxC= 1.00D-01 BMatC= 9.28D-12 BMatP= 8.95D-10
 IDIUse=1 WtCom= 1.00D+00 WtEn= 0.00D+00
 Coeff-Com: -0.239D-05 0.351D-04 0.151D-03 0.277D-03-0.190D-02 0.102D-02
 Coeff-Com:  0.185D-01-0.187D+00 0.117D+01
 Coeff:     -0.239D-05 0.351D-04 0.151D-03 0.277D-03-0.190D-02 0.102D-02
 Coeff:      0.185D-01-0.187D+00 0.117D+01
 Gap=     0.460 Goal=   None    Shift=    0.000
 RMSDP=3.50D-07 MaxDP=6.31D-06 DE=-1.89D-09 OVMax= 1.76D-06

 Cycle  10  Pass 1  IDiag  1:
 E= -76.7864821924991     Delta-E=       -0.000000000017 Rises=F Damp=F
 DIIS: error= 9.79D-08 at cycle  10 NSaved=  10.
 NSaved=10 IEnMin=10 EnMin= -76.7864821924991     IErMin=10 ErrMin= 9.79D-08
 ErrMax= 9.79D-08  0.00D+00 EMaxC= 1.00D-01 BMatC= 2.70D-13 BMatP= 9.28D-12
 IDIUse=1 WtCom= 1.00D+00 WtEn= 0.00D+00
 Coeff-Com:  0.579D-06-0.990D-05-0.453D-04-0.688D-04 0.632D-03-0.143D-02
 Coeff-Com: -0.974D-03 0.382D-01-0.364D+00 0.133D+01
 Coeff:      0.579D-06-0.990D-05-0.453D-04-0.688D-04 0.632D-03-0.143D-02
 Coeff:     -0.974D-03 0.382D-01-0.364D+00 0.133D+01
 Gap=     0.460 Goal=   None    Shift=    0.000
 RMSDP=9.69D-08 MaxDP=2.05D-06 DE=-1.73D-11 OVMax= 6.54D-07

 Cycle  11  Pass 1  IDiag  1:
 E= -76.7864821924999     Delta-E=       -0.000000000001 Rises=F Damp=F
 DIIS: error= 1.55D-08 at cycle  11 NSaved=  11.
 NSaved=11 IEnMin=11 EnMin= -76.7864821924999     IErMin=11 ErrMin= 1.55D-08
 ErrMax= 1.55D-08  0.00D+00 EMaxC= 1.00D-01 BMatC= 6.46D-15 BMatP= 2.70D-13
 IDIUse=1 WtCom= 1.00D+00 WtEn= 0.00D+00
 Coeff-Com: -0.135D-06 0.195D-05 0.951D-05 0.960D-05-0.123D-03 0.330D-03
 Coeff-Com: -0.106D-04-0.618D-02 0.646D-01-0.350D+00 0.129D+01
 Coeff:     -0.135D-06 0.195D-05 0.951D-05 0.960D-05-0.123D-03 0.330D-03
 Coeff:     -0.106D-04-0.618D-02 0.646D-01-0.350D+00 0.129D+01
 Gap=     0.460 Goal=   None    Shift=    0.000
 RMSDP=9.91D-09 MaxDP=1.77D-07 DE=-8.81D-13 OVMax= 1.20D-07

 SCF Done:  E(RHF) =  -76.7864821925     A.U. after   11 cycles
            NFock= 11  Conv=0.99D-08     -V/T= 2.0009
 KE= 7.671814717707D+01 PE=-2.263847753711D+02 EE= 4.899067826317D+01
 Leave Link  502 at Tue Oct 10 01:50:44 2017, MaxMem=    33554432 cpu:         3.3
 (Enter /usr/local/gaussian/2009-E.01/g09/l801.exe)
 Windowed orbitals will be sorted by symmetry type.
 ExpMin= 3.60D-02 ExpMax= 4.56D+03 ExpMxC= 6.82D+02 IAcc=3 IRadAn=         5 AccDes= 0.00D+00
 HarFok:  IExCor=  205 AccDes= 0.00D+00 IRadAn=         5 IDoV=-2 UseB2=F ITyADJ=14
 ICtDFT= 12500011 ScaDFX=  1.000000  1.000000  1.000000  1.000000
 Largest valence mixing into a core orbital is  1.56D-04
 Largest core mixing into a valence orbital is  3.97D-05
 Range of M.O.s used for correlation:     3    58
 NBasis=    58 NAE=     7 NBE=     7 NFC=     2 NFV=     0
 NROrb=     56 NOA=     5 NOB=     5 NVA=    51 NVB=    51

 **** Warning!!: The largest alpha MO coefficient is  0.43761880D+02

 Leave Link  801 at Tue Oct 10 01:50:44 2017, MaxMem=    33554432 cpu:         0.5
 (Enter /usr/local/gaussian/2009-E.01/g09/l804.exe)
 Closed-shell transformation, MDV=    33554432 ITran=4 ISComp=2.
 Semi-Direct transformation.
 ModeAB=           4 MOrb=             5 LenV=      33339653
 LASXX=       109907 LTotXX=      109907 LenRXX=      227580
 LTotAB=      117673 MaxLAS=      432040 LenRXY=           0
 NonZer=      337487 LenScr=     1011712 LnRSAI=      432040
 LnScr1=     1295360 LExtra=           0 Total=      2966692
 MaxDsk=          -1 SrtSym=           T ITran=            4
 DoSDTr:  NPSUse=  8
 JobTyp=0 Pass  1:  I=   1 to   5.
 (rs|ai) integrals will be sorted in core.
 Complete sort for first half transformation.
 First half transformation complete.
 Complete sort for second half transformation.
 Second half transformation complete.
 Spin components of T(2) and E(2):
     alpha-alpha T2 =       0.1037108793D-01 E2=     -0.2695952963D-01
     alpha-beta  T2 =       0.7356268440D-01 E2=     -0.1912160948D+00
     beta-beta   T2 =       0.1037108793D-01 E2=     -0.2695952963D-01
 ANorm=    0.1046090273D+01
 E2 =    -0.2451351541D+00 EUMP2 =    -0.77031617346576D+02
 Leave Link  804 at Tue Oct 10 01:50:44 2017, MaxMem=    33554432 cpu:         1.2
 (Enter /usr/local/gaussian/2009-E.01/g09/l913.exe)
 CIDS:  MDV=    33554432.
 Frozen-core window:  NFC=   2 NFV=   0.
 IFCWin=0 IBDFC=1 NFBD=     0     0 NFCmp=     0     0 NFFFC=     0     0
 Using DD3R+UMP44R for 1st iteration, S=T.
 Using DD4RQ for 2nd and later iterations.
 Keep R2 and R3 ints in memory in symmetry-blocked form, NReq=2291226.
 FoFCou: FMM=F IPFlag=           0 FMFlag=           0 FMFlg1=           0
         NFxFlg=           0 DoJE=F BraDBF=F KetDBF=F FulRan=T
         wScrn=  0.000000 ICntrl=     600 IOpCl=  0 I1Cent=           0 NGrid=           0
         NMat0=    1 NMatS0=   1711 NMatT0=    0 NMatD0=    1 NMtDS0=    0 NMtDT0=    0
 Petite list used in FoFCou.
 CCSD(T)
 =======
 Iterations= 200 Convergence= 0.100D-06
 Iteration Nr.   1
 **********************
 DD1Dir will call FoFMem   1 times, MxPair=        30
 NAB=    15 NAA=     0 NBB=     0.
 MP4(R+Q)=  0.61607616D-02
 Maximum subspace dimension=  5
 Norm of the A-vectors is  3.0374874D-01 conv= 1.00D-05.
 RLE energy=       -0.2626029237
 E3=       -0.22545869D-01        EUMP3=      -0.77054163216D+02
 E4(DQ)=   -0.20099964D-02        UMP4(DQ)=   -0.77056173212D+02
 E4(SDQ)=  -0.51803932D-02        UMP4(SDQ)=  -0.77059343609D+02
 VARIATIONAL ENERGIES WITH THE FIRST-ORDER WAVEFUNCTION:
 DE(Corr)= -0.26144103     E(Corr)=     -77.047923226    
 NORM(A)=   0.10564170D+01
 Iteration Nr.   2
 **********************
 DD1Dir will call FoFMem   1 times, MxPair=        30
 NAB=    15 NAA=     0 NBB=     0.
 Norm of the A-vectors is  1.2669268D-01 conv= 1.00D-05.
 RLE energy=       -0.2729243595
 DE(Corr)= -0.27071043     E(CORR)=     -77.057192620     Delta=-9.27D-03
 NORM(A)=   0.10635992D+01
 Iteration Nr.   3
 **********************
 DD1Dir will call FoFMem   1 times, MxPair=        30
 NAB=    15 NAA=     0 NBB=     0.
 Norm of the A-vectors is  4.0860164D-02 conv= 1.00D-05.
 RLE energy=       -0.2738423308
 DE(Corr)= -0.27270200     E(CORR)=     -77.059184193     Delta=-1.99D-03
 NORM(A)=   0.10661832D+01
 Iteration Nr.   4
 **********************
 DD1Dir will call FoFMem   1 times, MxPair=        30
 NAB=    15 NAA=     0 NBB=     0.
 Norm of the A-vectors is  1.5608399D-02 conv= 1.00D-05.
 RLE energy=       -0.2740825079
 DE(Corr)= -0.27393604     E(CORR)=     -77.060418237     Delta=-1.23D-03
 NORM(A)=   0.10669330D+01
 Iteration Nr.   5
 **********************
 DD1Dir will call FoFMem   1 times, MxPair=        30
 NAB=    15 NAA=     0 NBB=     0.
 Norm of the A-vectors is  4.8005548D-03 conv= 1.00D-05.
 RLE energy=       -0.2741300963
 DE(Corr)= -0.27409030     E(CORR)=     -77.060572496     Delta=-1.54D-04
 NORM(A)=   0.10671144D+01
 Iteration Nr.   6
 **********************
 DD1Dir will call FoFMem   1 times, MxPair=        30
 NAB=    15 NAA=     0 NBB=     0.
 Norm of the A-vectors is  2.0400667D-03 conv= 1.00D-05.
 RLE energy=       -0.2740926257
 DE(Corr)= -0.27411375     E(CORR)=     -77.060595943     Delta=-2.34D-05
 NORM(A)=   0.10671211D+01
 Iteration Nr.   7
 **********************
 DD1Dir will call FoFMem   1 times, MxPair=        30
 NAB=    15 NAA=     0 NBB=     0.
 Norm of the A-vectors is  8.4323218D-04 conv= 1.00D-05.
 RLE energy=       -0.2741155494
 DE(Corr)= -0.27411277     E(CORR)=     -77.060594962     Delta= 9.81D-07
 NORM(A)=   0.10671320D+01
 Iteration Nr.   8
 **********************
 DD1Dir will call FoFMem   1 times, MxPair=        30
 NAB=    15 NAA=     0 NBB=     0.
 Norm of the A-vectors is  2.6746229D-04 conv= 1.00D-05.
 RLE energy=       -0.2741109678
 DE(Corr)= -0.27411188     E(CORR)=     -77.060594074     Delta= 8.88D-07
 NORM(A)=   0.10671314D+01
 Iteration Nr.   9
 **********************
 DD1Dir will call FoFMem   1 times, MxPair=        30
 NAB=    15 NAA=     0 NBB=     0.
 Norm of the A-vectors is  8.1629942D-05 conv= 1.00D-05.
 RLE energy=       -0.2741139239
 DE(Corr)= -0.27411353     E(CORR)=     -77.060595724     Delta=-1.65D-06
 NORM(A)=   0.10671329D+01
 Iteration Nr.  10
 **********************
 DD1Dir will call FoFMem   1 times, MxPair=        30
 NAB=    15 NAA=     0 NBB=     0.
 Norm of the A-vectors is  3.9135790D-05 conv= 1.00D-05.
 RLE energy=       -0.2741138168
 DE(Corr)= -0.27411361     E(CORR)=     -77.060595804     Delta=-7.97D-08
 NORM(A)=   0.10671333D+01
 Iteration Nr.  11
 **********************
 DD1Dir will call FoFMem   1 times, MxPair=        30
 NAB=    15 NAA=     0 NBB=     0.
 Norm of the A-vectors is  1.4234602D-05 conv= 1.00D-05.
 RLE energy=       -0.2741140423
 DE(Corr)= -0.27411398     E(CORR)=     -77.060596170     Delta=-3.66D-07
 NORM(A)=   0.10671336D+01
 Iteration Nr.  12
 **********************
 DD1Dir will call FoFMem   1 times, MxPair=        30
 NAB=    15 NAA=     0 NBB=     0.
 Norm of the A-vectors is  6.1145589D-06 conv= 1.00D-05.
 RLE energy=       -0.2741141327
 DE(Corr)= -0.27411407     E(CORR)=     -77.060596260     Delta=-9.01D-08
 NORM(A)=   0.10671338D+01
 CI/CC converged in   12 iterations to DelEn=-9.01D-08 Conv= 1.00D-07 ErrA1= 6.11D-06 Conv= 1.00D-05
 Largest amplitude= 7.49D-02
 IPart=  3 IA=    4   11.53% done.
 IPart=  8 IA=    7   22.35% done.
 IPart=  8 IA=   10   32.47% done.
 IPart=  6 IA=   13   41.88% done.
 IPart=  1 IA=   16   50.59% done.
 IPart=  3 IA=   20   61.10% done.
 IPart=  5 IA=   24   70.35% done.
 IPart=  4 IA=   29   80.16% done.
 IPart=  7 IA=   36   90.59% done.
 Time for triples=       21.64 seconds.
 T4(CCSD)= -0.11833467D-01
 T5(CCSD)=  0.57657005D-03
 CCSD(T)= -0.77071853157D+02
 Discarding MO integrals.
 Leave Link  913 at Tue Oct 10 01:50:56 2017, MaxMem=    33554432 cpu:        85.3
 (Enter /usr/local/gaussian/2009-E.01/g09/l601.exe)
 Copying SCF densities to generalized density rwf, IOpCl= 0 IROHF=0.

 **********************************************************************

            Population analysis using the SCF density.

 **********************************************************************

 Orbital symmetries:
       Occupied  (A1) (A1) (A1) (A1) (B2) (A1) (B1)
       Virtual   (A1) (B2) (B2) (A1) (B1) (B1) (A1) (B2) (A1) (B2)
                 (B1) (A1) (A1) (B2) (A1) (A1) (A1) (B2) (B1) (B2)
                 (B1) (B2) (A1) (A1) (A1) (A2) (B1) (A1) (A2) (B2)
                 (B2) (A1) (B1) (A1) (A2) (A1) (B2) (B1) (A1) (B2)
                 (A1) (A1) (B2) (B1) (B1) (B2) (A1) (A1) (B2) (A1)
                 (A1)
 The electronic state is 1-A1.
 Alpha  occ. eigenvalues --  -11.30251 -11.24222  -1.06287  -0.73084  -0.62679
 Alpha  occ. eigenvalues --   -0.46216  -0.41524
 Alpha virt. eigenvalues --    0.04436   0.05379   0.06047   0.10463   0.10707
 Alpha virt. eigenvalues --    0.12760   0.14384   0.17356   0.18528   0.20341
 Alpha virt. eigenvalues --    0.22622   0.22641   0.25663   0.34404   0.48791
 Alpha virt. eigenvalues --    0.60694   0.67039   0.68027   0.69960   0.77077
 Alpha virt. eigenvalues --    0.80353   0.85495   0.90469   0.93570   1.10882
 Alpha virt. eigenvalues --    1.22699   1.39650   1.49809   1.58961   1.64281
 Alpha virt. eigenvalues --    1.73198   1.80826   1.93568   1.98241   2.27899
 Alpha virt. eigenvalues --    2.28619   2.29472   2.36035   2.56498   2.77413
 Alpha virt. eigenvalues --    2.88508   2.95991   2.97791   3.08319   3.26525
 Alpha virt. eigenvalues --    3.34126   3.57671   4.08281   4.09644  24.63655
 Alpha virt. eigenvalues --   25.49046
          Condensed to atoms (all electrons):
               1          2          3          4
     1  C    5.282894   0.579926   0.016037   0.016037
     2  C    0.579926   5.125003   0.366582   0.366582
     3  H    0.016037   0.366582   0.461449  -0.010562
     4  H    0.016037   0.366582  -0.010562   0.461449
 Mulliken charges:
               1
     1  C    0.105106
     2  C   -0.438094
     3  H    0.166494
     4  H    0.166494
 Sum of Mulliken charges =  -0.00000
 Mulliken charges with hydrogens summed into heavy atoms:
               1
     1  C    0.105106
     2  C   -0.105106
 Electronic spatial extent (au):  <R**2>=             62.7071
 Charge=             -0.0000 electrons
 Dipole moment (field-independent basis, Debye):
    X=             -0.0000    Y=              0.0000    Z=             -2.3838  Tot=              2.3838
 Quadrupole moment (field-independent basis, Debye-Ang):
   XX=            -14.7576   YY=            -10.4992   ZZ=            -14.6120
   XY=             -0.0000   XZ=             -0.0000   YZ=             -0.0000
 Traceless Quadrupole moment (field-independent basis, Debye-Ang):
   XX=             -1.4680   YY=              2.7904   ZZ=             -1.3224
   XY=             -0.0000   XZ=             -0.0000   YZ=             -0.0000
 Octapole moment (field-independent basis, Debye-Ang**2):
  XXX=             -0.0000  YYY=              0.0000  ZZZ=            -10.5772  XYY=             -0.0000
  XXY=              0.0000  XXZ=             -1.4008  XZZ=             -0.0000  YZZ=              0.0000
  YYZ=             -2.4734  XYZ=             -0.0000
 Hexadecapole moment (field-independent basis, Debye-Ang**3):
 XXXX=            -19.2932 YYYY=            -17.6088 ZZZZ=            -67.0221 XXXY=             -0.0000
 XXXZ=             -0.0000 YYYX=             -0.0000 YYYZ=              0.0000 ZZZX=             -0.0000
 ZZZY=              0.0000 XXYY=             -6.6375 XXZZ=            -13.9091 YYZZ=            -10.6780
 XXYZ=              0.0000 YYXZ=             -0.0000 ZZXY=             -0.0000
 N-N= 2.388946773831D+01 E-N=-2.263847754296D+02  KE= 7.671814717707D+01
 Symmetry A1   KE= 7.278163081017D+01
 Symmetry A2   KE= 5.409697238795D-20
 Symmetry B1   KE= 2.015509278922D+00
 Symmetry B2   KE= 1.921007087983D+00
 Leave Link  601 at Tue Oct 10 01:50:56 2017, MaxMem=    33554432 cpu:         0.2
 (Enter /usr/local/gaussian/2009-E.01/g09/l9999.exe)
 1\1\ WCSS.PL-BEM-WN1424\SP\RCCSD(T)-FC\6-311++G(d,p)\C2H2\ROOT\10-Oct-
 2017\0\\#p ccsd(t,maxcyc=200)/6-311++G(d,p)\\ccsd(t) iener\\0,1\C,0,0.
 740773596,0.489455653,0.079691314\C,0,0.007616404,-0.552928653,-0.1506
 17314\H,0,-0.06242531,-1.351943291,0.585721201\H,0,-0.54715869,-0.6422
 62709,-1.083231201\\Version=ES64L-G09RevE.01\State=1-A1\HF=-76.7864822
 \MP2=-77.0316173\MP3=-77.0541632\MP4D=-77.062334\MP4DQ=-77.0561732\MP4
 SDQ=-77.0593436\CCSD=-77.0605963\CCSD(T)=-77.0718532\RMSD=9.915e-09\PG
 =C02V [C2(C1C1),SGV(H2)]\\@


 Experience is what you get when you don't get what you want.
 -- Dan Stanford
 Job cpu time:       0 days  0 hours  1 minutes 42.2 seconds.
 File lengths (MBytes):  RWF=     30 Int=      0 D2E=      0 Chk=      1 Scr=      1
 Normal termination of Gaussian 09 at Tue Oct 10 01:50:56 2017.
