 Entering Gaussian System, Link 0=/usr/local/gaussian/2009-E.01/g09/g09
 Initial command:
 /usr/local/gaussian/2009-E.01/g09/l1.exe "/lustre/scratch/eerd/4986703.achilles/Gau-172973.inp" -scrdir="/lustre/scratch/eerd/4986703.achilles/"
 Entering Link 1 = /usr/local/gaussian/2009-E.01/g09/l1.exe PID=    172975.
  
 Copyright (c) 1988,1990,1992,1993,1995,1998,2003,2009,2015,
            Gaussian, Inc.  All Rights Reserved.
  
 This is part of the Gaussian(R) 09 program.  It is based on
 the Gaussian(R) 03 system (copyright 2003, Gaussian, Inc.),
 the Gaussian(R) 98 system (copyright 1998, Gaussian, Inc.),
 the Gaussian(R) 94 system (copyright 1995, Gaussian, Inc.),
 the Gaussian 92(TM) system (copyright 1992, Gaussian, Inc.),
 the Gaussian 90(TM) system (copyright 1990, Gaussian, Inc.),
 the Gaussian 88(TM) system (copyright 1988, Gaussian, Inc.),
 the Gaussian 86(TM) system (copyright 1986, Carnegie Mellon
 University), and the Gaussian 82(TM) system (copyright 1983,
 Carnegie Mellon University). Gaussian is a federally registered
 trademark of Gaussian, Inc.
  
 This software contains proprietary and confidential information,
 including trade secrets, belonging to Gaussian, Inc.
  
 This software is provided under written license and may be
 used, copied, transmitted, or stored only in accord with that
 written license.
  
 The following legend is applicable only to US Government
 contracts under FAR:
  
                    RESTRICTED RIGHTS LEGEND
  
 Use, reproduction and disclosure by the US Government is
 subject to restrictions as set forth in subparagraphs (a)
 and (c) of the Commercial Computer Software - Restricted
 Rights clause in FAR 52.227-19.
  
 Gaussian, Inc.
 340 Quinnipiac St., Bldg. 40, Wallingford CT 06492
  
  
 ---------------------------------------------------------------
 Warning -- This program may not be used in any manner that
 competes with the business of Gaussian, Inc. or will provide
 assistance to any competitor of Gaussian, Inc.  The licensee
 of this program is prohibited from giving any competitor of
 Gaussian, Inc. access to this program.  By using this program,
 the user acknowledges that Gaussian, Inc. is engaged in the
 business of creating and licensing software in the field of
 computational chemistry and represents and warrants to the
 licensee that it is not a competitor of Gaussian, Inc. and that
 it will not use this program in any manner prohibited above.
 ---------------------------------------------------------------
  

 Cite this work as:
 Gaussian 09, Revision E.01,
 M. J. Frisch, G. W. Trucks, H. B. Schlegel, G. E. Scuseria, 
 M. A. Robb, J. R. Cheeseman, G. Scalmani, V. Barone, B. Mennucci, 
 G. A. Petersson, H. Nakatsuji, M. Caricato, X. Li, H. P. Hratchian, 
 A. F. Izmaylov, J. Bloino, G. Zheng, J. L. Sonnenberg, M. Hada, 
 M. Ehara, K. Toyota, R. Fukuda, J. Hasegawa, M. Ishida, T. Nakajima, 
 Y. Honda, O. Kitao, H. Nakai, T. Vreven, J. A. Montgomery, Jr., 
 J. E. Peralta, F. Ogliaro, M. Bearpark, J. J. Heyd, E. Brothers, 
 K. N. Kudin, V. N. Staroverov, T. Keith, R. Kobayashi, J. Normand, 
 K. Raghavachari, A. Rendell, J. C. Burant, S. S. Iyengar, J. Tomasi, 
 M. Cossi, N. Rega, J. M. Millam, M. Klene, J. E. Knox, J. B. Cross, 
 V. Bakken, C. Adamo, J. Jaramillo, R. Gomperts, R. E. Stratmann, 
 O. Yazyev, A. J. Austin, R. Cammi, C. Pomelli, J. W. Ochterski, 
 R. L. Martin, K. Morokuma, V. G. Zakrzewski, G. A. Voth, 
 P. Salvador, J. J. Dannenberg, S. Dapprich, A. D. Daniels, 
 O. Farkas, J. B. Foresman, J. V. Ortiz, J. Cioslowski, 
 and D. J. Fox, Gaussian, Inc., Wallingford CT, 2013.
 
 ******************************************
 Gaussian 09:  ES64L-G09RevE.01 30-Nov-2015
                10-Oct-2017 
 ******************************************
 %NProcShared=8
 Will use up to    8 processors via shared memory.
 -----------------------------------
 #p ccsd(t,maxcyc=200)/6-311++G(d,p)
 -----------------------------------
 1/38=1/1;
 2/12=2,17=6,18=5,40=1/2;
 3/5=4,6=6,7=1111,11=9,16=1,25=1,30=1/1,2,3;
 4//1;
 5/5=2,38=5/2;
 8/6=4,9=120000,10=2/1,4;
 9/5=7,6=200,14=2/13;
 6/7=2,8=2,9=2,10=2/1;
 99/5=1,9=1/99;
 Leave Link    1 at Tue Oct 10 01:54:54 2017, MaxMem=           0 cpu:         5.9
 (Enter /usr/local/gaussian/2009-E.01/g09/l101.exe)
 -------------
 ccsd(t) iener
 -------------
 Symbolic Z-matrix:
 Charge =  1 Multiplicity = 4
 C                     0.19492  -0.93469   0.02783 
 C                    -0.4146    0.33116  -0.00908 
 H                    -0.41053  -1.83204  -0.143 
 H                     1.26976  -1.01217   0.22708 
 
 NAtoms=      4 NQM=        4 NQMF=       0 NMMI=      0 NMMIF=      0
                NMic=       0 NMicF=      0.
                    Isotopes and Nuclear Properties:
 (Nuclear quadrupole moments (NQMom) in fm**2, nuclear magnetic moments (NMagM)
  in nuclear magnetons)

  Atom         1           2           3           4
 IAtWgt=          12          12           1           1
 AtmWgt=  12.0000000  12.0000000   1.0078250   1.0078250
 NucSpn=           0           0           1           1
 AtZEff=   0.0000000   0.0000000   0.0000000   0.0000000
 NQMom=    0.0000000   0.0000000   0.0000000   0.0000000
 NMagM=    0.0000000   0.0000000   2.7928460   2.7928460
 AtZNuc=   6.0000000   6.0000000   1.0000000   1.0000000
 Leave Link  101 at Tue Oct 10 01:54:54 2017, MaxMem=    33554432 cpu:         0.4
 (Enter /usr/local/gaussian/2009-E.01/g09/l202.exe)
                          Input orientation:                          
 ---------------------------------------------------------------------
 Center     Atomic      Atomic             Coordinates (Angstroms)
 Number     Number       Type             X           Y           Z
 ---------------------------------------------------------------------
      1          6           0        0.194922   -0.934692    0.027831
      2          6           0       -0.414602    0.331156   -0.009079
      3          1           0       -0.410526   -1.832043   -0.142996
      4          1           0        1.269764   -1.012168    0.227084
 ---------------------------------------------------------------------
                    Distance matrix (angstroms):
                    1          2          3          4
     1  C    0.000000
     2  C    1.405437   0.000000
     3  H    1.095896   2.167344   0.000000
     4  H    1.095896   2.167344   1.905919   0.000000
 Stoichiometry    C2H2(1+,4)
 Framework group  C2V[C2(CC),SGV(H2)]
 Deg. of freedom     3
 Full point group                 C2V     NOp   4
 Largest Abelian subgroup         C2V     NOp   4
 Largest concise Abelian subgroup C2      NOp   2
                         Standard orientation:                         
 ---------------------------------------------------------------------
 Center     Atomic      Atomic             Coordinates (Angstroms)
 Number     Number       Type             X           Y           Z
 ---------------------------------------------------------------------
      1          6           0        0.000000    0.000000   -0.525021
      2          6           0       -0.000000   -0.000000    0.880416
      3          1           0       -0.000000    0.952959   -1.066184
      4          1           0       -0.000000   -0.952959   -1.066184
 ---------------------------------------------------------------------
 Rotational constants (GHZ):    276.0917096     34.3128278     30.5198093
 Leave Link  202 at Tue Oct 10 01:54:54 2017, MaxMem=    33554432 cpu:         0.1
 (Enter /usr/local/gaussian/2009-E.01/g09/l301.exe)
 Standard basis: 6-311++G(d,p) (5D, 7F)
 Ernie: Thresh=  0.10000D-02 Tol=  0.10000D-05 Strict=F.
 There are    30 symmetry adapted cartesian basis functions of A1  symmetry.
 There are     3 symmetry adapted cartesian basis functions of A2  symmetry.
 There are    11 symmetry adapted cartesian basis functions of B1  symmetry.
 There are    16 symmetry adapted cartesian basis functions of B2  symmetry.
 There are    28 symmetry adapted basis functions of A1  symmetry.
 There are     3 symmetry adapted basis functions of A2  symmetry.
 There are    11 symmetry adapted basis functions of B1  symmetry.
 There are    16 symmetry adapted basis functions of B2  symmetry.
    58 basis functions,    90 primitive gaussians,    60 cartesian basis functions
     8 alpha electrons        5 beta electrons
       nuclear repulsion energy        22.5567990301 Hartrees.
 IExCor=    0 DFT=F Ex=HF Corr=None ExCW=0 ScaHFX=  1.000000
 ScaDFX=  1.000000  1.000000  1.000000  1.000000 ScalE2=  1.000000  1.000000
 IRadAn=      0 IRanWt=     -1 IRanGd=            0 ICorTp=0 IEmpDi=  4
 NAtoms=    4 NActive=    4 NUniq=    3 SFac= 1.78D+00 NAtFMM=   60 NAOKFM=F Big=F
 Integral buffers will be    131072 words long.
 Raffenetti 2 integral format.
 Two-electron integral symmetry is turned on.
 Leave Link  301 at Tue Oct 10 01:54:54 2017, MaxMem=    33554432 cpu:         1.4
 (Enter /usr/local/gaussian/2009-E.01/g09/l302.exe)
 NPDir=0 NMtPBC=     1 NCelOv=     1 NCel=       1 NClECP=     1 NCelD=      1
         NCelK=      1 NCelE2=     1 NClLst=     1 CellRange=     0.0.
 One-electron integrals computed using PRISM.
 One-electron integral symmetry used in STVInt
 NBasis=    58 RedAO= T EigKep=  5.26D-04  NBF=    28     3    11    16
 NBsUse=    58 1.00D-06 EigRej= -1.00D+00 NBFU=    28     3    11    16
 Leave Link  302 at Tue Oct 10 01:54:54 2017, MaxMem=    33554432 cpu:         1.4
 (Enter /usr/local/gaussian/2009-E.01/g09/l303.exe)
 DipDrv:  MaxL=1.
 Leave Link  303 at Tue Oct 10 01:54:54 2017, MaxMem=    33554432 cpu:         0.2
 (Enter /usr/local/gaussian/2009-E.01/g09/l401.exe)
 ExpMin= 3.60D-02 ExpMax= 4.56D+03 ExpMxC= 6.82D+02 IAcc=3 IRadAn=         5 AccDes= 0.00D+00
 Harris functional with IExCor=  205 and IRadAn=       5 diagonalized for initial guess.
 HarFok:  IExCor=  205 AccDes= 0.00D+00 IRadAn=         5 IDoV= 1 UseB2=F ITyADJ=14
 ICtDFT=  3500011 ScaDFX=  1.000000  1.000000  1.000000  1.000000
 FoFCou: FMM=F IPFlag=           0 FMFlag=      100000 FMFlg1=           0
         NFxFlg=           0 DoJE=T BraDBF=F KetDBF=T FulRan=T
         wScrn=  0.000000 ICntrl=     500 IOpCl=  0 I1Cent=   200000004 NGrid=           0
         NMat0=    1 NMatS0=      1 NMatT0=    0 NMatD0=    1 NMtDS0=    0 NMtDT0=    0
 Petite list used in FoFCou.
 Harris En= -76.3556085950389    
 JPrj=0 DoOrth=F DoCkMO=F.
 Initial guess orbital symmetries:
 Alpha Orbitals:
       Occupied  (A1) (A1) (A1) (A1) (B2) (B1) (A1) (B2)
       Virtual   (B1) (A1) (B2) (A1) (B1) (A1) (B2) (A1) (B1) (A1)
                 (B2) (A1) (B2) (A1) (A1) (A1) (B1) (B2) (B2) (B1)
                 (A1) (B2) (A1) (A1) (A2) (B1) (A1) (A2) (B2) (B2)
                 (A1) (A1) (B1) (B2) (B1) (A1) (A2) (A1) (B2) (A1)
                 (B2) (B1) (A1) (B1) (B2) (A1) (B2) (A1) (A1) (A1)
 Beta  Orbitals:
       Occupied  (A1) (A1) (A1) (A1) (B2)
       Virtual   (B1) (A1) (B2) (B1) (A1) (B2) (A1) (B1) (A1) (B2)
                 (A1) (B1) (A1) (B2) (A1) (B2) (A1) (A1) (A1) (B1)
                 (B2) (B2) (B1) (A1) (B2) (A1) (A1) (A2) (B1) (A1)
                 (A2) (B2) (B2) (A1) (A1) (B1) (B2) (B1) (A1) (A2)
                 (A1) (B2) (A1) (B2) (B1) (A1) (B1) (B2) (A1) (B2)
                 (A1) (A1) (A1)
 The electronic state of the initial guess is 4-A2.
 Initial guess <Sx>= 0.0000 <Sy>= 0.0000 <Sz>= 1.5000 <S**2>= 3.7500 S= 1.5000
 Leave Link  401 at Tue Oct 10 01:54:54 2017, MaxMem=    33554432 cpu:         1.2
 (Enter /usr/local/gaussian/2009-E.01/g09/l502.exe)
 UHF open shell SCF:
 Using DIIS extrapolation, IDIIS=  1040.
 Integral symmetry usage will be decided dynamically.
 Keep R1 and R2 ints in memory in symmetry-blocked form, NReq=2339771.
 IVT=       30414 IEndB=       30414 NGot=    33554432 MDV=    32714387
 LenX=    32714387 LenY=    32710346
 Requested convergence on RMS density matrix=1.00D-08 within 128 cycles.
 Requested convergence on MAX density matrix=1.00D-06.
 Requested convergence on             energy=1.00D-06.
 No special actions if energy rises.
 FoFCou: FMM=F IPFlag=           0 FMFlag=           0 FMFlg1=           0
         NFxFlg=           0 DoJE=F BraDBF=F KetDBF=F FulRan=T
         wScrn=  0.000000 ICntrl=     600 IOpCl=  0 I1Cent=           0 NGrid=           0
         NMat0=    1 NMatS0=   1711 NMatT0=    0 NMatD0=    1 NMtDS0=    0 NMtDT0=    0
 Petite list used in FoFCou.

 Cycle   1  Pass 1  IDiag  1:
 E= -76.3389191448172    
 DIIS: error= 6.44D-02 at cycle   1 NSaved=   1.
 NSaved= 1 IEnMin= 1 EnMin= -76.3389191448172     IErMin= 1 ErrMin= 6.44D-02
 ErrMax= 6.44D-02  0.00D+00 EMaxC= 1.00D-01 BMatC= 4.82D-01 BMatP= 4.82D-01
 IDIUse=3 WtCom= 3.56D-01 WtEn= 6.44D-01
 Coeff-Com:  0.100D+01
 Coeff-En:   0.100D+01
 Coeff:      0.100D+01
 Gap=     0.507 Goal=   None    Shift=    0.000
 Gap=     0.541 Goal=   None    Shift=    0.000
 GapD=    0.507 DampG=2.000 DampE=0.500 DampFc=1.0000 IDamp=-1.
 RMSDP=5.45D-03 MaxDP=1.02D-01              OVMax= 1.37D-01

 Cycle   2  Pass 1  IDiag  1:
 E= -76.3989801048240     Delta-E=       -0.060060960007 Rises=F Damp=F
 DIIS: error= 2.02D-02 at cycle   2 NSaved=   2.
 NSaved= 2 IEnMin= 2 EnMin= -76.3989801048240     IErMin= 2 ErrMin= 2.02D-02
 ErrMax= 2.02D-02  0.00D+00 EMaxC= 1.00D-01 BMatC= 2.43D-02 BMatP= 4.82D-01
 IDIUse=3 WtCom= 7.98D-01 WtEn= 2.02D-01
 Coeff-Com:  0.393D-01 0.961D+00
 Coeff-En:   0.000D+00 0.100D+01
 Coeff:      0.313D-01 0.969D+00
 Gap=     0.502 Goal=   None    Shift=    0.000
 Gap=     0.647 Goal=   None    Shift=    0.000
 RMSDP=2.21D-03 MaxDP=4.29D-02 DE=-6.01D-02 OVMax= 5.72D-02

 Cycle   3  Pass 1  IDiag  1:
 E= -76.4074686954589     Delta-E=       -0.008488590635 Rises=F Damp=F
 DIIS: error= 9.33D-03 at cycle   3 NSaved=   3.
 NSaved= 3 IEnMin= 3 EnMin= -76.4074686954589     IErMin= 3 ErrMin= 9.33D-03
 ErrMax= 9.33D-03  0.00D+00 EMaxC= 1.00D-01 BMatC= 3.65D-03 BMatP= 2.43D-02
 IDIUse=3 WtCom= 9.07D-01 WtEn= 9.33D-02
 Coeff-Com: -0.315D-01 0.150D+00 0.881D+00
 Coeff-En:   0.000D+00 0.000D+00 0.100D+01
 Coeff:     -0.286D-01 0.136D+00 0.892D+00
 Gap=     0.508 Goal=   None    Shift=    0.000
 Gap=     0.623 Goal=   None    Shift=    0.000
 RMSDP=7.12D-04 MaxDP=1.15D-02 DE=-8.49D-03 OVMax= 3.17D-02

 Cycle   4  Pass 1  IDiag  1:
 E= -76.4096611021698     Delta-E=       -0.002192406711 Rises=F Damp=F
 DIIS: error= 4.31D-03 at cycle   4 NSaved=   4.
 NSaved= 4 IEnMin= 4 EnMin= -76.4096611021698     IErMin= 4 ErrMin= 4.31D-03
 ErrMax= 4.31D-03  0.00D+00 EMaxC= 1.00D-01 BMatC= 9.23D-04 BMatP= 3.65D-03
 IDIUse=3 WtCom= 9.57D-01 WtEn= 4.31D-02
 Coeff-Com:  0.136D-01-0.171D+00-0.289D+00 0.145D+01
 Coeff-En:   0.000D+00 0.000D+00 0.000D+00 0.100D+01
 Coeff:      0.130D-01-0.163D+00-0.276D+00 0.143D+01
 Gap=     0.510 Goal=   None    Shift=    0.000
 Gap=     0.626 Goal=   None    Shift=    0.000
 RMSDP=6.21D-04 MaxDP=1.34D-02 DE=-2.19D-03 OVMax= 2.80D-02

 Cycle   5  Pass 1  IDiag  1:
 E= -76.4109104198516     Delta-E=       -0.001249317682 Rises=F Damp=F
 DIIS: error= 3.28D-03 at cycle   5 NSaved=   5.
 NSaved= 5 IEnMin= 5 EnMin= -76.4109104198516     IErMin= 5 ErrMin= 3.28D-03
 ErrMax= 3.28D-03  0.00D+00 EMaxC= 1.00D-01 BMatC= 3.33D-04 BMatP= 9.23D-04
 IDIUse=3 WtCom= 9.67D-01 WtEn= 3.28D-02
 Coeff-Com: -0.790D-03 0.670D-01 0.163D+00-0.115D+01 0.192D+01
 Coeff-En:   0.000D+00 0.000D+00 0.000D+00 0.000D+00 0.100D+01
 Coeff:     -0.765D-03 0.648D-01 0.158D+00-0.111D+01 0.189D+01
 Gap=     0.509 Goal=   None    Shift=    0.000
 Gap=     0.630 Goal=   None    Shift=    0.000
 RMSDP=4.56D-04 MaxDP=1.01D-02 DE=-1.25D-03 OVMax= 2.99D-02

 Cycle   6  Pass 1  IDiag  1:
 E= -76.4115585193498     Delta-E=       -0.000648099498 Rises=F Damp=F
 DIIS: error= 2.11D-03 at cycle   6 NSaved=   6.
 NSaved= 6 IEnMin= 6 EnMin= -76.4115585193498     IErMin= 6 ErrMin= 2.11D-03
 ErrMax= 2.11D-03  0.00D+00 EMaxC= 1.00D-01 BMatC= 1.08D-04 BMatP= 3.33D-04
 IDIUse=3 WtCom= 9.79D-01 WtEn= 2.11D-02
 Coeff-Com: -0.430D-02 0.178D-01 0.110D+00-0.296D-01-0.103D+01 0.194D+01
 Coeff-En:   0.000D+00 0.000D+00 0.000D+00 0.000D+00 0.000D+00 0.100D+01
 Coeff:     -0.421D-02 0.174D-01 0.108D+00-0.290D-01-0.101D+01 0.192D+01
 Gap=     0.507 Goal=   None    Shift=    0.000
 Gap=     0.631 Goal=   None    Shift=    0.000
 RMSDP=3.77D-04 MaxDP=8.13D-03 DE=-6.48D-04 OVMax= 2.71D-02

 Cycle   7  Pass 1  IDiag  1:
 E= -76.4118291340737     Delta-E=       -0.000270614724 Rises=F Damp=F
 DIIS: error= 8.80D-04 at cycle   7 NSaved=   7.
 NSaved= 7 IEnMin= 7 EnMin= -76.4118291340737     IErMin= 7 ErrMin= 8.80D-04
 ErrMax= 8.80D-04  0.00D+00 EMaxC= 1.00D-01 BMatC= 2.05D-05 BMatP= 1.08D-04
 IDIUse=3 WtCom= 9.91D-01 WtEn= 8.80D-03
 Coeff-Com:  0.402D-02-0.405D-01-0.936D-01 0.296D+00 0.271D+00-0.148D+01
 Coeff-Com:  0.204D+01
 Coeff-En:   0.000D+00 0.000D+00 0.000D+00 0.000D+00 0.000D+00 0.000D+00
 Coeff-En:   0.100D+01
 Coeff:      0.399D-02-0.401D-01-0.928D-01 0.294D+00 0.269D+00-0.146D+01
 Coeff:      0.203D+01
 Gap=     0.506 Goal=   None    Shift=    0.000
 Gap=     0.632 Goal=   None    Shift=    0.000
 RMSDP=1.96D-04 MaxDP=4.40D-03 DE=-2.71D-04 OVMax= 1.45D-02

 Cycle   8  Pass 1  IDiag  1:
 E= -76.4118781830716     Delta-E=       -0.000049048998 Rises=F Damp=F
 DIIS: error= 1.35D-04 at cycle   8 NSaved=   8.
 NSaved= 8 IEnMin= 8 EnMin= -76.4118781830716     IErMin= 8 ErrMin= 1.35D-04
 ErrMax= 1.35D-04  0.00D+00 EMaxC= 1.00D-01 BMatC= 1.75D-06 BMatP= 2.05D-05
 IDIUse=3 WtCom= 9.99D-01 WtEn= 1.35D-03
 Coeff-Com: -0.114D-02 0.140D-01 0.385D-01-0.143D+00 0.114D-01 0.437D+00
 Coeff-Com: -0.967D+00 0.161D+01
 Coeff-En:   0.000D+00 0.000D+00 0.000D+00 0.000D+00 0.000D+00 0.000D+00
 Coeff-En:   0.000D+00 0.100D+01
 Coeff:     -0.113D-02 0.140D-01 0.385D-01-0.143D+00 0.114D-01 0.437D+00
 Coeff:     -0.966D+00 0.161D+01
 Gap=     0.506 Goal=   None    Shift=    0.000
 Gap=     0.632 Goal=   None    Shift=    0.000
 RMSDP=4.40D-05 MaxDP=8.21D-04 DE=-4.90D-05 OVMax= 2.77D-03

 Cycle   9  Pass 1  IDiag  1:
 E= -76.4118805419162     Delta-E=       -0.000002358845 Rises=F Damp=F
 DIIS: error= 3.02D-05 at cycle   9 NSaved=   9.
 NSaved= 9 IEnMin= 9 EnMin= -76.4118805419162     IErMin= 9 ErrMin= 3.02D-05
 ErrMax= 3.02D-05  0.00D+00 EMaxC= 1.00D-01 BMatC= 1.22D-07 BMatP= 1.75D-06
 IDIUse=1 WtCom= 1.00D+00 WtEn= 0.00D+00
 Coeff-Com:  0.955D-04-0.178D-02-0.895D-02 0.317D-01-0.214D-01-0.622D-01
 Coeff-Com:  0.241D+00-0.685D+00 0.151D+01
 Coeff:      0.955D-04-0.178D-02-0.895D-02 0.317D-01-0.214D-01-0.622D-01
 Coeff:      0.241D+00-0.685D+00 0.151D+01
 Gap=     0.506 Goal=   None    Shift=    0.000
 Gap=     0.632 Goal=   None    Shift=    0.000
 RMSDP=6.57D-06 MaxDP=1.00D-04 DE=-2.36D-06 OVMax= 2.46D-04

 Cycle  10  Pass 1  IDiag  1:
 E= -76.4118806476984     Delta-E=       -0.000000105782 Rises=F Damp=F
 DIIS: error= 9.32D-06 at cycle  10 NSaved=  10.
 NSaved=10 IEnMin=10 EnMin= -76.4118806476984     IErMin=10 ErrMin= 9.32D-06
 ErrMax= 9.32D-06  0.00D+00 EMaxC= 1.00D-01 BMatC= 1.04D-08 BMatP= 1.22D-07
 IDIUse=1 WtCom= 1.00D+00 WtEn= 0.00D+00
 Coeff-Com:  0.251D-04-0.269D-03 0.112D-02-0.150D-02 0.150D-02 0.630D-02
 Coeff-Com: -0.413D-01 0.156D+00-0.617D+00 0.150D+01
 Coeff:      0.251D-04-0.269D-03 0.112D-02-0.150D-02 0.150D-02 0.630D-02
 Coeff:     -0.413D-01 0.156D+00-0.617D+00 0.150D+01
 Gap=     0.506 Goal=   None    Shift=    0.000
 Gap=     0.632 Goal=   None    Shift=    0.000
 RMSDP=1.88D-06 MaxDP=4.48D-05 DE=-1.06D-07 OVMax= 6.05D-05

 Cycle  11  Pass 1  IDiag  1:
 E= -76.4118806572633     Delta-E=       -0.000000009565 Rises=F Damp=F
 DIIS: error= 3.97D-06 at cycle  11 NSaved=  11.
 NSaved=11 IEnMin=11 EnMin= -76.4118806572633     IErMin=11 ErrMin= 3.97D-06
 ErrMax= 3.97D-06  0.00D+00 EMaxC= 1.00D-01 BMatC= 9.76D-10 BMatP= 1.04D-08
 IDIUse=1 WtCom= 1.00D+00 WtEn= 0.00D+00
 Coeff-Com: -0.185D-04 0.261D-03-0.183D-03-0.106D-02 0.815D-03-0.232D-03
 Coeff-Com:  0.878D-02-0.424D-01 0.230D+00-0.791D+00 0.159D+01
 Coeff:     -0.185D-04 0.261D-03-0.183D-03-0.106D-02 0.815D-03-0.232D-03
 Coeff:      0.878D-02-0.424D-01 0.230D+00-0.791D+00 0.159D+01
 Gap=     0.506 Goal=   None    Shift=    0.000
 Gap=     0.632 Goal=   None    Shift=    0.000
 RMSDP=6.27D-07 MaxDP=1.10D-05 DE=-9.56D-09 OVMax= 1.82D-05

 Cycle  12  Pass 1  IDiag  1:
 E= -76.4118806582057     Delta-E=       -0.000000000942 Rises=F Damp=F
 DIIS: error= 1.76D-06 at cycle  12 NSaved=  12.
 NSaved=12 IEnMin=12 EnMin= -76.4118806582057     IErMin=12 ErrMin= 1.76D-06
 ErrMax= 1.76D-06  0.00D+00 EMaxC= 1.00D-01 BMatC= 1.11D-10 BMatP= 9.76D-10
 IDIUse=1 WtCom= 1.00D+00 WtEn= 0.00D+00
 Coeff-Com:  0.359D-05-0.479D-04 0.611D-04 0.217D-03-0.243D-03 0.657D-03
 Coeff-Com: -0.367D-02 0.119D-01-0.611D-01 0.263D+00-0.886D+00 0.167D+01
 Coeff:      0.359D-05-0.479D-04 0.611D-04 0.217D-03-0.243D-03 0.657D-03
 Coeff:     -0.367D-02 0.119D-01-0.611D-01 0.263D+00-0.886D+00 0.167D+01
 Gap=     0.506 Goal=   None    Shift=    0.000
 Gap=     0.632 Goal=   None    Shift=    0.000
 RMSDP=2.87D-07 MaxDP=5.94D-06 DE=-9.42D-10 OVMax= 1.06D-05

 Cycle  13  Pass 1  IDiag  1:
 E= -76.4118806583063     Delta-E=       -0.000000000101 Rises=F Damp=F
 DIIS: error= 1.35D-07 at cycle  13 NSaved=  13.
 NSaved=13 IEnMin=13 EnMin= -76.4118806583063     IErMin=13 ErrMin= 1.35D-07
 ErrMax= 1.35D-07  0.00D+00 EMaxC= 1.00D-01 BMatC= 2.39D-12 BMatP= 1.11D-10
 IDIUse=1 WtCom= 1.00D+00 WtEn= 0.00D+00
 Coeff-Com: -0.870D-06 0.633D-05 0.604D-05-0.558D-04-0.307D-04 0.383D-04
 Coeff-Com:  0.498D-03-0.172D-02 0.896D-02-0.460D-01 0.193D+00-0.477D+00
 Coeff-Com:  0.132D+01
 Coeff:     -0.870D-06 0.633D-05 0.604D-05-0.558D-04-0.307D-04 0.383D-04
 Coeff:      0.498D-03-0.172D-02 0.896D-02-0.460D-01 0.193D+00-0.477D+00
 Coeff:      0.132D+01
 Gap=     0.506 Goal=   None    Shift=    0.000
 Gap=     0.632 Goal=   None    Shift=    0.000
 RMSDP=2.94D-08 MaxDP=5.15D-07 DE=-1.01D-10 OVMax= 6.47D-07

 Cycle  14  Pass 1  IDiag  1:
 E= -76.4118806583078     Delta-E=       -0.000000000002 Rises=F Damp=F
 DIIS: error= 3.85D-08 at cycle  14 NSaved=  14.
 NSaved=14 IEnMin=14 EnMin= -76.4118806583078     IErMin=14 ErrMin= 3.85D-08
 ErrMax= 3.85D-08  0.00D+00 EMaxC= 1.00D-01 BMatC= 1.40D-13 BMatP= 2.39D-12
 IDIUse=1 WtCom= 1.00D+00 WtEn= 0.00D+00
 Coeff-Com:  0.150D-06 0.631D-06-0.109D-04 0.110D-04 0.472D-04-0.121D-03
 Coeff-Com:  0.211D-03-0.493D-03 0.201D-02-0.515D-02 0.374D-02 0.266D-01
 Coeff-Com: -0.356D+00 0.133D+01
 Coeff:      0.150D-06 0.631D-06-0.109D-04 0.110D-04 0.472D-04-0.121D-03
 Coeff:      0.211D-03-0.493D-03 0.201D-02-0.515D-02 0.374D-02 0.266D-01
 Coeff:     -0.356D+00 0.133D+01
 Gap=     0.506 Goal=   None    Shift=    0.000
 Gap=     0.632 Goal=   None    Shift=    0.000
 RMSDP=7.88D-09 MaxDP=1.33D-07 DE=-1.51D-12 OVMax= 4.46D-07

 SCF Done:  E(UHF) =  -76.4118806583     A.U. after   14 cycles
            NFock= 14  Conv=0.79D-08     -V/T= 2.0011
 <Sx>= 0.0000 <Sy>= 0.0000 <Sz>= 1.5000 <S**2>= 3.7530 S= 1.5008
 <L.S>= 0.000000000000E+00
 KE= 7.633042660996D+01 PE=-2.186511013392D+02 EE= 4.335199504083D+01
 Annihilation of the first spin contaminant:
 S**2 before annihilation     3.7530,   after     3.7500
 Leave Link  502 at Tue Oct 10 01:54:55 2017, MaxMem=    33554432 cpu:         3.8
 (Enter /usr/local/gaussian/2009-E.01/g09/l801.exe)
 Windowed orbitals will be sorted by symmetry type.
 ExpMin= 3.60D-02 ExpMax= 4.56D+03 ExpMxC= 6.82D+02 IAcc=3 IRadAn=         5 AccDes= 0.00D+00
 HarFok:  IExCor=  205 AccDes= 0.00D+00 IRadAn=         5 IDoV=-2 UseB2=F ITyADJ=14
 ICtDFT= 12500011 ScaDFX=  1.000000  1.000000  1.000000  1.000000
 Largest valence mixing into a core orbital is  1.07D-04
 Largest core mixing into a valence orbital is  2.93D-05
 Largest valence mixing into a core orbital is  1.76D-04
 Largest core mixing into a valence orbital is  4.89D-05
 Range of M.O.s used for correlation:     3    58
 NBasis=    58 NAE=     8 NBE=     5 NFC=     2 NFV=     0
 NROrb=     56 NOA=     6 NOB=     3 NVA=    50 NVB=    53

 **** Warning!!: The largest alpha MO coefficient is  0.35652381D+02


 **** Warning!!: The largest beta MO coefficient is  0.33699798D+02

 Leave Link  801 at Tue Oct 10 01:54:55 2017, MaxMem=    33554432 cpu:         0.4
 (Enter /usr/local/gaussian/2009-E.01/g09/l804.exe)
 Open-shell transformation, MDV=    33554432 ITran=4 ISComp=2.
 Semi-Direct transformation.
 ModeAB=           4 MOrb=             6 LenV=      33326185
 LASXX=       130262 LTotXX=      130262 LenRXX=      271356
 LTotAB=      141094 MaxLAS=      518448 LenRXY=           0
 NonZer=      401618 LenScr=     1204224 LnRSAI=      518448
 LnScr1=     1554432 LExtra=           0 Total=      3548460
 MaxDsk=          -1 SrtSym=           T ITran=            4
 DoSDTr:  NPSUse=  8
 JobTyp=1 Pass  1:  I=   1 to   6.
 (rs|ai) integrals will be sorted in core.
 Complete sort for first half transformation.
 First half transformation complete.
 Complete sort for second half transformation.
 Second half transformation complete.
 ModeAB=           4 MOrb=             3 LenV=      33326185
 LASXX=        69832 LTotXX=       69832 LenRXX=      129511
 LTotAB=       59679 MaxLAS=      259224 LenRXY=           0
 NonZer=      199343 LenScr=      785920 LnRSAI=      259224
 LnScr1=      785920 LExtra=           0 Total=      1960575
 MaxDsk=          -1 SrtSym=           T ITran=            4
 DoSDTr:  NPSUse=  8
 JobTyp=2 Pass  1:  I=   1 to   3.
 (rs|ai) integrals will be sorted in core.
 Complete sort for first half transformation.
 First half transformation complete.
 Complete sort for second half transformation.
 Second half transformation complete.
 Spin components of T(2) and E(2):
     alpha-alpha T2 =       0.1311752726D-01 E2=     -0.3679643576D-01
     alpha-beta  T2 =       0.4093469516D-01 E2=     -0.1235440653D+00
     beta-beta   T2 =       0.2514590229D-02 E2=     -0.7549007436D-02
 ANorm=    0.1027894359D+01
 E2 =    -0.1678895085D+00 EUMP2 =    -0.76579770166849D+02
 (S**2,0)=  0.37530D+01           (S**2,1)=  0.37503D+01
 E(PUHF)=      -0.76412518265D+02        E(PMP2)=      -0.76580119332D+02
 Leave Link  804 at Tue Oct 10 01:54:56 2017, MaxMem=    33554432 cpu:         3.1
 (Enter /usr/local/gaussian/2009-E.01/g09/l913.exe)
 CIDS:  MDV=    33554432.
 Frozen-core window:  NFC=   2 NFV=   0.
 IFCWin=0 IBDFC=1 NFBD=     0     0 NFCmp=     0     0 NFFFC=     0     0
 Using original routines for 1st iteration, S=T.
 Using DD4UQ or CC4UQ for 2nd and later iterations.
 Keep R2 and R3 ints in memory in symmetry-blocked form, NReq=2291226.
 FoFCou: FMM=F IPFlag=           0 FMFlag=           0 FMFlg1=           0
         NFxFlg=           0 DoJE=F BraDBF=F KetDBF=F FulRan=T
         wScrn=  0.000000 ICntrl=     600 IOpCl=  0 I1Cent=           0 NGrid=           0
         NMat0=    1 NMatS0=   1711 NMatT0=    0 NMatD0=    1 NMtDS0=    0 NMtDT0=    0
 Petite list used in FoFCou.
 CCSD(T)
 =======
 Iterations= 200 Convergence= 0.100D-06
 Iteration Nr.   1
 **********************
 DD1Dir will call FoFMem   1 times, MxPair=        54
 NAB=    18 NAA=    15 NBB=     3.
 E(PMP3)=      -0.76603128130D+02
 MP4(R+Q)=  0.32744747D-02
 Maximum subspace dimension=  5
 Norm of the A-vectors is  2.2168056D-01 conv= 1.00D-05.
 RLE energy=       -0.1904451232
 E3=       -0.23159209D-01        EUMP3=      -0.76602929376D+02
 E4(DQ)=   -0.24385136D-02        UMP4(DQ)=   -0.76605367889D+02
 E4(SDQ)=  -0.40376554D-02        UMP4(SDQ)=  -0.76606967031D+02
 VARIATIONAL ENERGIES WITH THE FIRST-ORDER WAVEFUNCTION:
 DE(Corr)= -0.18777372     E(Corr)=     -76.599654378    
 NORM(A)=   0.10378823D+01
 Iteration Nr.   2
 **********************
 DD1Dir will call FoFMem   1 times, MxPair=        54
 NAB=    18 NAA=    15 NBB=     3.
 Norm of the A-vectors is  7.3098125D-02 conv= 1.00D-05.
 RLE energy=       -0.1959830578
 DE(Corr)= -0.19410134     E(CORR)=     -76.605982001     Delta=-6.33D-03
 NORM(A)=   0.10422966D+01
 Iteration Nr.   3
 **********************
 DD1Dir will call FoFMem   1 times, MxPair=        54
 NAB=    18 NAA=    15 NBB=     3.
 Norm of the A-vectors is  2.6543928D-02 conv= 1.00D-05.
 RLE energy=       -0.1970298518
 DE(Corr)= -0.19603142     E(CORR)=     -76.607912077     Delta=-1.93D-03
 NORM(A)=   0.10451840D+01
 Iteration Nr.   4
 **********************
 DD1Dir will call FoFMem   1 times, MxPair=        54
 NAB=    18 NAA=    15 NBB=     3.
 Norm of the A-vectors is  1.3771070D-02 conv= 1.00D-05.
 RLE energy=       -0.1974088208
 DE(Corr)= -0.19708599     E(CORR)=     -76.608966645     Delta=-1.05D-03
 NORM(A)=   0.10466912D+01
 Iteration Nr.   5
 **********************
 DD1Dir will call FoFMem   1 times, MxPair=        54
 NAB=    18 NAA=    15 NBB=     3.
 Norm of the A-vectors is  4.6566643D-03 conv= 1.00D-05.
 RLE energy=       -0.1973834594
 DE(Corr)= -0.19736789     E(CORR)=     -76.609248548     Delta=-2.82D-04
 NORM(A)=   0.10469207D+01
 Iteration Nr.   6
 **********************
 DD1Dir will call FoFMem   1 times, MxPair=        54
 NAB=    18 NAA=    15 NBB=     3.
 Norm of the A-vectors is  1.6608431D-03 conv= 1.00D-05.
 RLE energy=       -0.1973851069
 DE(Corr)= -0.19738848     E(CORR)=     -76.609269140     Delta=-2.06D-05
 NORM(A)=   0.10469549D+01
 Iteration Nr.   7
 **********************
 DD1Dir will call FoFMem   1 times, MxPair=        54
 NAB=    18 NAA=    15 NBB=     3.
 Norm of the A-vectors is  5.6266735D-04 conv= 1.00D-05.
 RLE energy=       -0.1973950268
 DE(Corr)= -0.19739031     E(CORR)=     -76.609270970     Delta=-1.83D-06
 NORM(A)=   0.10469706D+01
 Iteration Nr.   8
 **********************
 DD1Dir will call FoFMem   1 times, MxPair=        54
 NAB=    18 NAA=    15 NBB=     3.
 Norm of the A-vectors is  2.0133495D-04 conv= 1.00D-05.
 RLE energy=       -0.1973915457
 DE(Corr)= -0.19739191     E(CORR)=     -76.609272572     Delta=-1.60D-06
 NORM(A)=   0.10469709D+01
 Iteration Nr.   9
 **********************
 DD1Dir will call FoFMem   1 times, MxPair=        54
 NAB=    18 NAA=    15 NBB=     3.
 Norm of the A-vectors is  6.2934440D-05 conv= 1.00D-05.
 RLE energy=       -0.1973923446
 DE(Corr)= -0.19739201     E(CORR)=     -76.609272668     Delta=-9.65D-08
 NORM(A)=   0.10469717D+01
 Iteration Nr.  10
 **********************
 DD1Dir will call FoFMem   1 times, MxPair=        54
 NAB=    18 NAA=    15 NBB=     3.
 Norm of the A-vectors is  2.5499089D-05 conv= 1.00D-05.
 RLE energy=       -0.1973918439
 DE(Corr)= -0.19739198     E(CORR)=     -76.609272637     Delta= 3.15D-08
 NORM(A)=   0.10469714D+01
 Iteration Nr.  11
 **********************
 DD1Dir will call FoFMem   1 times, MxPair=        54
 NAB=    18 NAA=    15 NBB=     3.
 Norm of the A-vectors is  8.2752539D-06 conv= 1.00D-05.
 RLE energy=       -0.1973919272
 DE(Corr)= -0.19739193     E(CORR)=     -76.609272589     Delta= 4.80D-08
 NORM(A)=   0.10469713D+01
 CI/CC converged in   11 iterations to DelEn= 4.80D-08 Conv= 1.00D-07 ErrA1= 8.28D-06 Conv= 1.00D-05
 Largest amplitude= 5.94D-02
 Time for triples=       29.02 seconds.
 T4(CCSD)= -0.61313112D-02
 T5(CCSD)=  0.25920957D-03
 CCSD(T)= -0.76615144690D+02

 S**2, projected HF & approx projected MPn energies after annihilation of
 unwanted spin states (see manual for definitions):

 spins       (S**2,0) (S**2,1)    PUHF        PMP2        PMP3        PMP4
 annihilated
 s+1         3.75000  3.75000  -76.412518  -76.580119  -76.603128
 s+1,s+2     3.75000  3.75000  -76.412518  -76.580119  -76.603128
 s+1 to s+3  3.75000  3.75000  -76.412518  -76.580119  -76.603128

 Discarding MO integrals.
 Leave Link  913 at Tue Oct 10 01:55:15 2017, MaxMem=    33554432 cpu:       136.8
 (Enter /usr/local/gaussian/2009-E.01/g09/l601.exe)
 Copying SCF densities to generalized density rwf, IOpCl= 1 IROHF=0.

 **********************************************************************

            Population analysis using the SCF density.

 **********************************************************************

 Orbital symmetries:
 Alpha Orbitals:
       Occupied  (A1) (A1) (A1) (A1) (B2) (A1) (B1) (B2)
       Virtual   (B1) (A1) (B2) (A1) (B1) (A1) (B2) (A1) (B1) (B2)
                 (A1) (A1) (B2) (A1) (A1) (A1) (B2) (B1) (B2) (B1)
                 (A1) (B2) (A1) (A1) (A2) (B1) (A1) (A2) (B2) (B2)
                 (A1) (A1) (B1) (B1) (B2) (A2) (A1) (A1) (B2) (A1)
                 (B2) (A1) (B1) (B1) (B2) (A1) (A1) (B2) (A1) (A1)
 Beta  Orbitals:
       Occupied  (A1) (A1) (A1) (A1) (B2)
       Virtual   (B1) (A1) (B2) (A1) (B2) (B1) (A1) (B1) (A1) (A1)
                 (B2) (B2) (B1) (A1) (A1) (B2) (A1) (A1) (A1) (B2)
                 (B1) (B1) (B2) (B2) (A1) (A1) (A1) (A2) (B1) (A1)
                 (A2) (B2) (B2) (A1) (B1) (A1) (A2) (B1) (B2) (A1)
                 (A1) (B2) (A1) (B2) (A1) (B1) (B1) (B2) (A1) (B2)
                 (A1) (A1) (A1)
 The electronic state is 4-A2.
 Alpha  occ. eigenvalues --  -11.66247 -11.65151  -1.41463  -1.11552  -0.96822
 Alpha  occ. eigenvalues --   -0.89586  -0.77840  -0.73044
 Alpha virt. eigenvalues --   -0.22471  -0.11205  -0.08059  -0.07031  -0.05826
 Alpha virt. eigenvalues --   -0.02774  -0.01530  -0.00371   0.00111   0.04022
 Alpha virt. eigenvalues --    0.04430   0.05180   0.10684   0.17259   0.33992
 Alpha virt. eigenvalues --    0.40209   0.41131   0.41444   0.43994   0.48367
 Alpha virt. eigenvalues --    0.51044   0.56723   0.65025   0.74029   0.91430
 Alpha virt. eigenvalues --    0.97783   1.13260   1.19860   1.29638   1.37910
 Alpha virt. eigenvalues --    1.45599   1.56734   1.59700   1.91331   1.93073
 Alpha virt. eigenvalues --    1.93289   1.93757   2.15961   2.49536   2.55055
 Alpha virt. eigenvalues --    2.59186   2.66504   2.69857   2.86413   2.93651
 Alpha virt. eigenvalues --    3.12660   3.73964   3.75219  24.28130  24.72967
  Beta  occ. eigenvalues --  -11.64209 -11.58867  -1.27417  -0.97590  -0.91881
  Beta virt. eigenvalues --   -0.28633  -0.23983  -0.13187  -0.10215  -0.07715
  Beta virt. eigenvalues --   -0.07234  -0.05243  -0.04018  -0.01843   0.00756
  Beta virt. eigenvalues --    0.01599   0.04286   0.04566   0.05315   0.06880
  Beta virt. eigenvalues --    0.13954   0.23034   0.37221   0.43809   0.44591
  Beta virt. eigenvalues --    0.47362   0.55789   0.55969   0.58533   0.62771
  Beta virt. eigenvalues --    0.68839   0.79943   0.95817   1.08053   1.27605
  Beta virt. eigenvalues --    1.35479   1.35882   1.43482   1.50084   1.63424
  Beta virt. eigenvalues --    1.64912   1.96210   1.97501   1.98250   1.98830
  Beta virt. eigenvalues --    2.19618   2.50202   2.56395   2.65173   2.67537
  Beta virt. eigenvalues --    2.75815   2.92355   3.02096   3.19649   3.76200
  Beta virt. eigenvalues --    3.78024  24.32560  24.74985
          Condensed to atoms (all electrons):
               1          2          3          4
     1  C    4.690925   0.500159   0.391460   0.391460
     2  C    0.500159   5.045522  -0.017510  -0.017510
     3  H    0.391460  -0.017510   0.395275  -0.011556
     4  H    0.391460  -0.017510  -0.011556   0.395275
          Atomic-Atomic Spin Densities.
               1          2          3          4
     1  C    0.416044   0.079298   0.014278   0.014278
     2  C    0.079298   2.397399  -0.019306  -0.019306
     3  H    0.014278  -0.019306   0.032684  -0.008647
     4  H    0.014278  -0.019306  -0.008647   0.032684
 Mulliken charges and spin densities:
               1          2
     1  C    0.025997   0.523898
     2  C    0.489340   2.438084
     3  H    0.242332   0.019009
     4  H    0.242332   0.019009
 Sum of Mulliken charges =   1.00000   3.00000
 Mulliken charges and spin densities with hydrogens summed into heavy atoms:
               1          2
     1  C    0.510660   0.561916
     2  C    0.489340   2.438084
 Electronic spatial extent (au):  <R**2>=             55.2619
 Charge=              1.0000 electrons
 Dipole moment (field-independent basis, Debye):
    X=             -0.0000    Y=              0.0000    Z=             -0.8068  Tot=              0.8068
 Quadrupole moment (field-independent basis, Debye-Ang):
   XX=             -9.8686   YY=             -8.8041   ZZ=             -5.7298
   XY=              0.0000   XZ=              0.0000   YZ=             -0.0000
 Traceless Quadrupole moment (field-independent basis, Debye-Ang):
   XX=             -1.7344   YY=             -0.6700   ZZ=              2.4044
   XY=              0.0000   XZ=              0.0000   YZ=             -0.0000
 Octapole moment (field-independent basis, Debye-Ang**2):
  XXX=              0.0000  YYY=              0.0000  ZZZ=             -1.5162  XYY=             -0.0000
  XXY=              0.0000  XXZ=             -0.4911  XZZ=             -0.0000  YZZ=              0.0000
  YYZ=             -3.5201  XYZ=             -0.0000
 Hexadecapole moment (field-independent basis, Debye-Ang**3):
 XXXX=             -8.9792 YYYY=            -13.1861 ZZZZ=            -40.5256 XXXY=              0.0000
 XXXZ=             -0.0000 YYYX=              0.0000 YYYZ=              0.0000 ZZZX=              0.0000
 ZZZY=             -0.0000 XXYY=             -4.3163 XXZZ=             -8.8428 YYZZ=             -7.6039
 XXYZ=              0.0000 YYXZ=              0.0000 ZZXY=              0.0000
 N-N= 2.255679903013D+01 E-N=-2.186511013861D+02  KE= 7.633042660996D+01
 Symmetry A1   KE= 7.164311862411D+01
 Symmetry A2   KE= 4.531300922888D-32
 Symmetry B1   KE= 1.128923362067D+00
 Symmetry B2   KE= 3.558384623785D+00
 Leave Link  601 at Tue Oct 10 01:55:15 2017, MaxMem=    33554432 cpu:         0.2
 (Enter /usr/local/gaussian/2009-E.01/g09/l9999.exe)
 1\1\ WCSS.PL-BEM-WN1424\SP\UCCSD(T)-FC\6-311++G(d,p)\C2H2(1+,4)\ROOT\1
 0-Oct-2017\0\\#p ccsd(t,maxcyc=200)/6-311++G(d,p)\\ccsd(t) iener\\1,4\
 C,0,0.194922094,-0.934691729,0.027831468\C,0,-0.414602094,0.331155729,
 -0.009079468\H,0,-0.41052553,-1.832043052,-0.142995911\H,0,1.26976353,
 -1.012167948,0.227083911\\Version=ES64L-G09RevE.01\State=4-A2\HF=-76.4
 118807\MP2=-76.5797702\MP3=-76.6029294\MP4D=-76.6086424\MP4DQ=-76.6053
 679\PUHF=-76.4125183\PMP2-0=-76.5801193\PMP3-0=-76.6031281\MP4SDQ=-76.
 606967\CCSD=-76.6092726\CCSD(T)=-76.6151447\S2=3.753035\S2-1=3.750287\
 S2A=3.750003\RMSD=7.876e-09\PG=C02V [C2(C1C1),SGV(H2)]\\@


 THE TEST OF A FIRST RATE INTELLIGENCE IS THE ABILITY TO HOLD TWO OPPOSED
 IDEAS IN THE MIND AT THE SAME TIME, AND STILL RETAIN THE ABILITY TO FUNCTION.
 ONE SHOULD, FOR EXAMPLE, BE ABLE TO SEE THAT THINGS ARE HOPELESS AND YET BE
 DETERMINED TO MAKE THEM OTHERWISE.

                                                       -- F. SCOTT FITZGERALD
 Job cpu time:       0 days  0 hours  2 minutes 35.3 seconds.
 File lengths (MBytes):  RWF=     35 Int=      0 D2E=      0 Chk=      1 Scr=      1
 Normal termination of Gaussian 09 at Tue Oct 10 01:55:15 2017.
