 Entering Gaussian System, Link 0=/usr/local/gaussian/2009-E.01/g09/g09
 Initial command:
 /usr/local/gaussian/2009-E.01/g09/l1.exe "/lustre/scratch/eerd/4986703.achilles/Gau-171129.inp" -scrdir="/lustre/scratch/eerd/4986703.achilles/"
 Entering Link 1 = /usr/local/gaussian/2009-E.01/g09/l1.exe PID=    171131.
  
 Copyright (c) 1988,1990,1992,1993,1995,1998,2003,2009,2015,
            Gaussian, Inc.  All Rights Reserved.
  
 This is part of the Gaussian(R) 09 program.  It is based on
 the Gaussian(R) 03 system (copyright 2003, Gaussian, Inc.),
 the Gaussian(R) 98 system (copyright 1998, Gaussian, Inc.),
 the Gaussian(R) 94 system (copyright 1995, Gaussian, Inc.),
 the Gaussian 92(TM) system (copyright 1992, Gaussian, Inc.),
 the Gaussian 90(TM) system (copyright 1990, Gaussian, Inc.),
 the Gaussian 88(TM) system (copyright 1988, Gaussian, Inc.),
 the Gaussian 86(TM) system (copyright 1986, Carnegie Mellon
 University), and the Gaussian 82(TM) system (copyright 1983,
 Carnegie Mellon University). Gaussian is a federally registered
 trademark of Gaussian, Inc.
  
 This software contains proprietary and confidential information,
 including trade secrets, belonging to Gaussian, Inc.
  
 This software is provided under written license and may be
 used, copied, transmitted, or stored only in accord with that
 written license.
  
 The following legend is applicable only to US Government
 contracts under FAR:
  
                    RESTRICTED RIGHTS LEGEND
  
 Use, reproduction and disclosure by the US Government is
 subject to restrictions as set forth in subparagraphs (a)
 and (c) of the Commercial Computer Software - Restricted
 Rights clause in FAR 52.227-19.
  
 Gaussian, Inc.
 340 Quinnipiac St., Bldg. 40, Wallingford CT 06492
  
  
 ---------------------------------------------------------------
 Warning -- This program may not be used in any manner that
 competes with the business of Gaussian, Inc. or will provide
 assistance to any competitor of Gaussian, Inc.  The licensee
 of this program is prohibited from giving any competitor of
 Gaussian, Inc. access to this program.  By using this program,
 the user acknowledges that Gaussian, Inc. is engaged in the
 business of creating and licensing software in the field of
 computational chemistry and represents and warrants to the
 licensee that it is not a competitor of Gaussian, Inc. and that
 it will not use this program in any manner prohibited above.
 ---------------------------------------------------------------
  

 Cite this work as:
 Gaussian 09, Revision E.01,
 M. J. Frisch, G. W. Trucks, H. B. Schlegel, G. E. Scuseria, 
 M. A. Robb, J. R. Cheeseman, G. Scalmani, V. Barone, B. Mennucci, 
 G. A. Petersson, H. Nakatsuji, M. Caricato, X. Li, H. P. Hratchian, 
 A. F. Izmaylov, J. Bloino, G. Zheng, J. L. Sonnenberg, M. Hada, 
 M. Ehara, K. Toyota, R. Fukuda, J. Hasegawa, M. Ishida, T. Nakajima, 
 Y. Honda, O. Kitao, H. Nakai, T. Vreven, J. A. Montgomery, Jr., 
 J. E. Peralta, F. Ogliaro, M. Bearpark, J. J. Heyd, E. Brothers, 
 K. N. Kudin, V. N. Staroverov, T. Keith, R. Kobayashi, J. Normand, 
 K. Raghavachari, A. Rendell, J. C. Burant, S. S. Iyengar, J. Tomasi, 
 M. Cossi, N. Rega, J. M. Millam, M. Klene, J. E. Knox, J. B. Cross, 
 V. Bakken, C. Adamo, J. Jaramillo, R. Gomperts, R. E. Stratmann, 
 O. Yazyev, A. J. Austin, R. Cammi, C. Pomelli, J. W. Ochterski, 
 R. L. Martin, K. Morokuma, V. G. Zakrzewski, G. A. Voth, 
 P. Salvador, J. J. Dannenberg, S. Dapprich, A. D. Daniels, 
 O. Farkas, J. B. Foresman, J. V. Ortiz, J. Cioslowski, 
 and D. J. Fox, Gaussian, Inc., Wallingford CT, 2013.
 
 ******************************************
 Gaussian 09:  ES64L-G09RevE.01 30-Nov-2015
                10-Oct-2017 
 ******************************************
 %NProcShared=8
 Will use up to    8 processors via shared memory.
 -----------------------------------
 #p ccsd(t,maxcyc=200)/6-311++G(d,p)
 -----------------------------------
 1/38=1/1;
 2/12=2,17=6,18=5,40=1/2;
 3/5=4,6=6,7=1111,11=9,16=1,25=1,30=1/1,2,3;
 4//1;
 5/5=2,38=5/2;
 8/6=4,9=120000,10=2/1,4;
 9/5=7,6=200,14=2/13;
 6/7=2,8=2,9=2,10=2/1;
 99/5=1,9=1/99;
 Leave Link    1 at Tue Oct 10 01:47:12 2017, MaxMem=           0 cpu:         1.6
 (Enter /usr/local/gaussian/2009-E.01/g09/l101.exe)
 -------------
 ccsd(t) iener
 -------------
 Symbolic Z-matrix:
 Charge =  1 Multiplicity = 4
 C                     0.80199  -0.52539   0.42323 
 C                     0.06929   0.54069  -0.05125 
 H                     1.85834  -0.38301   0.68916 
 H                     0.37175  -1.53055   0.55076 
 O                    -1.18269   0.37566  -0.36735 
 
 NAtoms=      5 NQM=        5 NQMF=       0 NMMI=      0 NMMIF=      0
                NMic=       0 NMicF=      0.
                    Isotopes and Nuclear Properties:
 (Nuclear quadrupole moments (NQMom) in fm**2, nuclear magnetic moments (NMagM)
  in nuclear magnetons)

  Atom         1           2           3           4           5
 IAtWgt=          12          12           1           1          16
 AtmWgt=  12.0000000  12.0000000   1.0078250   1.0078250  15.9949146
 NucSpn=           0           0           1           1           0
 AtZEff=   0.0000000   0.0000000   0.0000000   0.0000000   0.0000000
 NQMom=    0.0000000   0.0000000   0.0000000   0.0000000   0.0000000
 NMagM=    0.0000000   0.0000000   2.7928460   2.7928460   0.0000000
 AtZNuc=   6.0000000   6.0000000   1.0000000   1.0000000   8.0000000
 Leave Link  101 at Tue Oct 10 01:47:12 2017, MaxMem=    33554432 cpu:         0.4
 (Enter /usr/local/gaussian/2009-E.01/g09/l202.exe)
                          Input orientation:                          
 ---------------------------------------------------------------------
 Center     Atomic      Atomic             Coordinates (Angstroms)
 Number     Number       Type             X           Y           Z
 ---------------------------------------------------------------------
      1          6           0        0.801989   -0.525386    0.423232
      2          6           0        0.069285    0.540687   -0.051253
      3          1           0        1.858343   -0.383009    0.689159
      4          1           0        0.371752   -1.530548    0.550763
      5          8           0       -1.182685    0.375659   -0.367350
 ---------------------------------------------------------------------
                    Distance matrix (angstroms):
                    1          2          3          4          5
     1  C    0.000000
     2  C    1.377862   0.000000
     3  H    1.098577   2.145263   0.000000
     4  H    1.100781   2.178055   1.883070   0.000000
     5  O    2.318585   1.301761   3.307513   2.625420   0.000000
 Stoichiometry    C2H2O(1+,4)
 Framework group  CS[SG(C2H2O)]
 Deg. of freedom     7
 Full point group                 CS      NOp   2
 Largest Abelian subgroup         CS      NOp   2
 Largest concise Abelian subgroup C1      NOp   1
                         Standard orientation:                         
 ---------------------------------------------------------------------
 Center     Atomic      Atomic             Coordinates (Angstroms)
 Number     Number       Type             X           Y           Z
 ---------------------------------------------------------------------
      1          6           0        1.089024   -0.325968    0.000000
      2          6           0       -0.000000    0.518147    0.000000
      3          1           0        2.103321    0.096019    0.000000
      4          1           0        0.989376   -1.422229    0.000000
      5          8           0       -1.203355    0.021642    0.000000
 ---------------------------------------------------------------------
 Rotational constants (GHZ):     90.1890083     11.6118865     10.2873804
 Leave Link  202 at Tue Oct 10 01:47:12 2017, MaxMem=    33554432 cpu:         0.1
 (Enter /usr/local/gaussian/2009-E.01/g09/l301.exe)
 Standard basis: 6-311++G(d,p) (5D, 7F)
 Ernie: Thresh=  0.10000D-02 Tol=  0.10000D-05 Strict=F.
 There are    63 symmetry adapted cartesian basis functions of A'  symmetry.
 There are    20 symmetry adapted cartesian basis functions of A"  symmetry.
 There are    60 symmetry adapted basis functions of A'  symmetry.
 There are    20 symmetry adapted basis functions of A"  symmetry.
    80 basis functions,   126 primitive gaussians,    83 cartesian basis functions
    12 alpha electrons        9 beta electrons
       nuclear repulsion energy        56.1793995625 Hartrees.
 IExCor=    0 DFT=F Ex=HF Corr=None ExCW=0 ScaHFX=  1.000000
 ScaDFX=  1.000000  1.000000  1.000000  1.000000 ScalE2=  1.000000  1.000000
 IRadAn=      0 IRanWt=     -1 IRanGd=            0 ICorTp=0 IEmpDi=  4
 NAtoms=    5 NActive=    5 NUniq=    5 SFac= 1.00D+00 NAtFMM=   60 NAOKFM=F Big=F
 Integral buffers will be    131072 words long.
 Raffenetti 2 integral format.
 Two-electron integral symmetry is turned on.
 Leave Link  301 at Tue Oct 10 01:47:12 2017, MaxMem=    33554432 cpu:         0.4
 (Enter /usr/local/gaussian/2009-E.01/g09/l302.exe)
 NPDir=0 NMtPBC=     1 NCelOv=     1 NCel=       1 NClECP=     1 NCelD=      1
         NCelK=      1 NCelE2=     1 NClLst=     1 CellRange=     0.0.
 One-electron integrals computed using PRISM.
 NBasis=    80 RedAO= T EigKep=  2.23D-04  NBF=    60    20
 NBsUse=    80 1.00D-06 EigRej= -1.00D+00 NBFU=    60    20
 Leave Link  302 at Tue Oct 10 01:47:12 2017, MaxMem=    33554432 cpu:         1.5
 (Enter /usr/local/gaussian/2009-E.01/g09/l303.exe)
 DipDrv:  MaxL=1.
 Leave Link  303 at Tue Oct 10 01:47:12 2017, MaxMem=    33554432 cpu:         0.1
 (Enter /usr/local/gaussian/2009-E.01/g09/l401.exe)
 ExpMin= 3.60D-02 ExpMax= 8.59D+03 ExpMxC= 1.30D+03 IAcc=3 IRadAn=         5 AccDes= 0.00D+00
 Harris functional with IExCor=  205 and IRadAn=       5 diagonalized for initial guess.
 HarFok:  IExCor=  205 AccDes= 0.00D+00 IRadAn=         5 IDoV= 1 UseB2=F ITyADJ=14
 ICtDFT=  3500011 ScaDFX=  1.000000  1.000000  1.000000  1.000000
 FoFCou: FMM=F IPFlag=           0 FMFlag=      100000 FMFlg1=           0
         NFxFlg=           0 DoJE=T BraDBF=F KetDBF=T FulRan=T
         wScrn=  0.000000 ICntrl=     500 IOpCl=  0 I1Cent=   200000004 NGrid=           0
         NMat0=    1 NMatS0=      1 NMatT0=    0 NMatD0=    1 NMtDS0=    0 NMtDT0=    0
 Petite list used in FoFCou.
 Harris En= -151.312529576117    
 JPrj=0 DoOrth=F DoCkMO=F.
 Initial guess orbital symmetries:
 Alpha Orbitals:
       Occupied  (A') (A') (A') (A') (A') (A') (A') (A') (A") (A')
                 (A") (A')
       Virtual   (A") (A') (A') (A') (A") (A') (A') (A') (A") (A')
                 (A') (A') (A') (A") (A') (A') (A') (A') (A') (A')
                 (A") (A') (A') (A') (A") (A') (A') (A') (A') (A")
                 (A') (A") (A") (A') (A') (A") (A') (A') (A') (A')
                 (A") (A') (A") (A") (A') (A') (A') (A') (A') (A")
                 (A') (A') (A") (A') (A") (A') (A') (A") (A') (A')
                 (A') (A') (A") (A') (A') (A') (A') (A')
 Beta  Orbitals:
       Occupied  (A') (A') (A') (A') (A') (A') (A') (A') (A")
       Virtual   (A') (A") (A') (A") (A') (A') (A') (A") (A') (A')
                 (A') (A") (A') (A') (A') (A') (A") (A') (A') (A')
                 (A') (A') (A') (A") (A') (A') (A') (A") (A') (A')
                 (A') (A') (A") (A') (A") (A") (A') (A') (A") (A')
                 (A') (A') (A') (A") (A') (A") (A") (A') (A') (A')
                 (A') (A') (A") (A') (A') (A") (A') (A") (A') (A')
                 (A") (A') (A') (A') (A') (A") (A') (A') (A') (A')
                 (A')
 The electronic state of the initial guess is 4-A".
 Initial guess <Sx>= 0.0000 <Sy>= 0.0000 <Sz>= 1.5000 <S**2>= 3.7500 S= 1.5000
 Leave Link  401 at Tue Oct 10 01:47:13 2017, MaxMem=    33554432 cpu:         2.6
 (Enter /usr/local/gaussian/2009-E.01/g09/l502.exe)
 UHF open shell SCF:
 Using DIIS extrapolation, IDIIS=  1040.
 Integral symmetry usage will be decided dynamically.
 Keep R1 and R2 ints in memory in symmetry-blocked form, NReq=8455389.
 IVT=       40529 IEndB=       40529 NGot=    33554432 MDV=    27901544
 LenX=    27901544 LenY=    27894214
 Requested convergence on RMS density matrix=1.00D-08 within 128 cycles.
 Requested convergence on MAX density matrix=1.00D-06.
 Requested convergence on             energy=1.00D-06.
 No special actions if energy rises.
 FoFCou: FMM=F IPFlag=           0 FMFlag=           0 FMFlg1=           0
         NFxFlg=           0 DoJE=F BraDBF=F KetDBF=F FulRan=T
         wScrn=  0.000000 ICntrl=     600 IOpCl=  0 I1Cent=           0 NGrid=           0
         NMat0=    1 NMatS0=   3240 NMatT0=    0 NMatD0=    1 NMtDS0=    0 NMtDT0=    0
 Petite list used in FoFCou.

 Cycle   1  Pass 1  IDiag  1:
 E= -151.194502307165    
 DIIS: error= 5.21D-02 at cycle   1 NSaved=   1.
 NSaved= 1 IEnMin= 1 EnMin= -151.194502307165     IErMin= 1 ErrMin= 5.21D-02
 ErrMax= 5.21D-02  0.00D+00 EMaxC= 1.00D-01 BMatC= 9.13D-01 BMatP= 9.13D-01
 IDIUse=3 WtCom= 4.79D-01 WtEn= 5.21D-01
 Coeff-Com:  0.100D+01
 Coeff-En:   0.100D+01
 Coeff:      0.100D+01
 Gap=     0.542 Goal=   None    Shift=    0.000
 Gap=     0.461 Goal=   None    Shift=    0.000
 GapD=    0.461 DampG=2.000 DampE=0.500 DampFc=1.0000 IDamp=-1.
 RMSDP=4.58D-03 MaxDP=8.76D-02              OVMax= 1.78D-01

 Cycle   2  Pass 1  IDiag  1:
 E= -151.292786488004     Delta-E=       -0.098284180839 Rises=F Damp=F
 DIIS: error= 1.90D-02 at cycle   2 NSaved=   2.
 NSaved= 2 IEnMin= 2 EnMin= -151.292786488004     IErMin= 2 ErrMin= 1.90D-02
 ErrMax= 1.90D-02  0.00D+00 EMaxC= 1.00D-01 BMatC= 8.31D-02 BMatP= 9.13D-01
 IDIUse=3 WtCom= 8.10D-01 WtEn= 1.90D-01
 Coeff-Com:  0.846D-01 0.915D+00
 Coeff-En:   0.000D+00 0.100D+01
 Coeff:      0.685D-01 0.932D+00
 Gap=     0.563 Goal=   None    Shift=    0.000
 Gap=     0.490 Goal=   None    Shift=    0.000
 RMSDP=1.82D-03 MaxDP=4.07D-02 DE=-9.83D-02 OVMax= 1.26D-01

 Cycle   3  Pass 1  IDiag  1:
 E= -151.315656581197     Delta-E=       -0.022870093193 Rises=F Damp=F
 DIIS: error= 1.30D-02 at cycle   3 NSaved=   3.
 NSaved= 3 IEnMin= 3 EnMin= -151.315656581197     IErMin= 3 ErrMin= 1.30D-02
 ErrMax= 1.30D-02  0.00D+00 EMaxC= 1.00D-01 BMatC= 2.12D-02 BMatP= 8.31D-02
 IDIUse=3 WtCom= 8.70D-01 WtEn= 1.30D-01
 Coeff-Com: -0.432D-01 0.286D+00 0.757D+00
 Coeff-En:   0.000D+00 0.000D+00 0.100D+01
 Coeff:     -0.376D-01 0.249D+00 0.789D+00
 Gap=     0.558 Goal=   None    Shift=    0.000
 Gap=     0.514 Goal=   None    Shift=    0.000
 RMSDP=8.47D-04 MaxDP=1.64D-02 DE=-2.29D-02 OVMax= 4.43D-02

 Cycle   4  Pass 1  IDiag  1:
 E= -151.322756058615     Delta-E=       -0.007099477417 Rises=F Damp=F
 DIIS: error= 4.08D-03 at cycle   4 NSaved=   4.
 NSaved= 4 IEnMin= 4 EnMin= -151.322756058615     IErMin= 4 ErrMin= 4.08D-03
 ErrMax= 4.08D-03  0.00D+00 EMaxC= 1.00D-01 BMatC= 2.17D-03 BMatP= 2.12D-02
 IDIUse=3 WtCom= 9.59D-01 WtEn= 4.08D-02
 Coeff-Com:  0.419D-02-0.153D+00-0.125D+00 0.127D+01
 Coeff-En:   0.000D+00 0.000D+00 0.000D+00 0.100D+01
 Coeff:      0.402D-02-0.146D+00-0.120D+00 0.126D+01
 Gap=     0.554 Goal=   None    Shift=    0.000
 Gap=     0.527 Goal=   None    Shift=    0.000
 RMSDP=5.34D-04 MaxDP=1.07D-02 DE=-7.10D-03 OVMax= 4.27D-02

 Cycle   5  Pass 1  IDiag  1:
 E= -151.324679403266     Delta-E=       -0.001923344651 Rises=F Damp=F
 DIIS: error= 1.96D-03 at cycle   5 NSaved=   5.
 NSaved= 5 IEnMin= 5 EnMin= -151.324679403266     IErMin= 5 ErrMin= 1.96D-03
 ErrMax= 1.96D-03  0.00D+00 EMaxC= 1.00D-01 BMatC= 4.08D-04 BMatP= 2.17D-03
 IDIUse=3 WtCom= 9.80D-01 WtEn= 1.96D-02
 Coeff-Com:  0.695D-02-0.598D-01-0.772D-01 0.167D+00 0.964D+00
 Coeff-En:   0.000D+00 0.000D+00 0.000D+00 0.000D+00 0.100D+01
 Coeff:      0.682D-02-0.586D-01-0.757D-01 0.163D+00 0.964D+00
 Gap=     0.555 Goal=   None    Shift=    0.000
 Gap=     0.530 Goal=   None    Shift=    0.000
 RMSDP=1.76D-04 MaxDP=2.16D-03 DE=-1.92D-03 OVMax= 1.65D-02

 Cycle   6  Pass 1  IDiag  1:
 E= -151.325061035182     Delta-E=       -0.000381631916 Rises=F Damp=F
 DIIS: error= 1.06D-03 at cycle   6 NSaved=   6.
 NSaved= 6 IEnMin= 6 EnMin= -151.325061035182     IErMin= 6 ErrMin= 1.06D-03
 ErrMax= 1.06D-03  0.00D+00 EMaxC= 1.00D-01 BMatC= 1.53D-04 BMatP= 4.08D-04
 IDIUse=3 WtCom= 9.89D-01 WtEn= 1.06D-02
 Coeff-Com: -0.493D-02 0.631D-01 0.117D+00-0.380D+00-0.545D+00 0.175D+01
 Coeff-En:   0.000D+00 0.000D+00 0.000D+00 0.000D+00 0.000D+00 0.100D+01
 Coeff:     -0.488D-02 0.625D-01 0.116D+00-0.376D+00-0.540D+00 0.174D+01
 Gap=     0.553 Goal=   None    Shift=    0.000
 Gap=     0.530 Goal=   None    Shift=    0.000
 RMSDP=1.66D-04 MaxDP=2.66D-03 DE=-3.82D-04 OVMax= 1.08D-02

 Cycle   7  Pass 1  IDiag  1:
 E= -151.325282222865     Delta-E=       -0.000221187683 Rises=F Damp=F
 DIIS: error= 6.11D-04 at cycle   7 NSaved=   7.
 NSaved= 7 IEnMin= 7 EnMin= -151.325282222865     IErMin= 7 ErrMin= 6.11D-04
 ErrMax= 6.11D-04  0.00D+00 EMaxC= 1.00D-01 BMatC= 4.22D-05 BMatP= 1.53D-04
 IDIUse=3 WtCom= 9.94D-01 WtEn= 6.11D-03
 Coeff-Com:  0.123D-02-0.215D-01-0.467D-01 0.183D+00 0.125D+00-0.111D+01
 Coeff-Com:  0.187D+01
 Coeff-En:   0.000D+00 0.000D+00 0.000D+00 0.000D+00 0.000D+00 0.000D+00
 Coeff-En:   0.100D+01
 Coeff:      0.122D-02-0.214D-01-0.464D-01 0.182D+00 0.124D+00-0.111D+01
 Coeff:      0.187D+01
 Gap=     0.552 Goal=   None    Shift=    0.000
 Gap=     0.533 Goal=   None    Shift=    0.000
 RMSDP=1.19D-04 MaxDP=2.30D-03 DE=-2.21D-04 OVMax= 8.26D-03

 Cycle   8  Pass 1  IDiag  1:
 E= -151.325370331962     Delta-E=       -0.000088109097 Rises=F Damp=F
 DIIS: error= 3.16D-04 at cycle   8 NSaved=   8.
 NSaved= 8 IEnMin= 8 EnMin= -151.325370331962     IErMin= 8 ErrMin= 3.16D-04
 ErrMax= 3.16D-04  0.00D+00 EMaxC= 1.00D-01 BMatC= 1.50D-05 BMatP= 4.22D-05
 IDIUse=3 WtCom= 9.97D-01 WtEn= 3.16D-03
 Coeff-Com:  0.209D-03-0.459D-02 0.189D-01-0.159D-01 0.451D-01 0.208D+00
 Coeff-Com: -0.125D+01 0.200D+01
 Coeff-En:   0.000D+00 0.000D+00 0.000D+00 0.000D+00 0.000D+00 0.000D+00
 Coeff-En:   0.000D+00 0.100D+01
 Coeff:      0.209D-03-0.457D-02 0.189D-01-0.158D-01 0.449D-01 0.207D+00
 Coeff:     -0.125D+01 0.200D+01
 Gap=     0.551 Goal=   None    Shift=    0.000
 Gap=     0.534 Goal=   None    Shift=    0.000
 RMSDP=8.72D-05 MaxDP=1.57D-03 DE=-8.81D-05 OVMax= 5.68D-03

 Cycle   9  Pass 1  IDiag  1:
 E= -151.325399622216     Delta-E=       -0.000029290254 Rises=F Damp=F
 DIIS: error= 1.08D-04 at cycle   9 NSaved=   9.
 NSaved= 9 IEnMin= 9 EnMin= -151.325399622216     IErMin= 9 ErrMin= 1.08D-04
 ErrMax= 1.08D-04  0.00D+00 EMaxC= 1.00D-01 BMatC= 2.13D-06 BMatP= 1.50D-05
 IDIUse=3 WtCom= 9.99D-01 WtEn= 1.08D-03
 Coeff-Com: -0.135D-03 0.422D-02-0.370D-02-0.181D-01-0.171D-01 0.200D-01
 Coeff-Com:  0.363D+00-0.109D+01 0.175D+01
 Coeff-En:   0.000D+00 0.000D+00 0.000D+00 0.000D+00 0.000D+00 0.000D+00
 Coeff-En:   0.000D+00 0.000D+00 0.100D+01
 Coeff:     -0.135D-03 0.421D-02-0.370D-02-0.181D-01-0.171D-01 0.200D-01
 Coeff:      0.362D+00-0.109D+01 0.174D+01
 Gap=     0.551 Goal=   None    Shift=    0.000
 Gap=     0.535 Goal=   None    Shift=    0.000
 RMSDP=3.44D-05 MaxDP=5.99D-04 DE=-2.93D-05 OVMax= 2.35D-03

 Cycle  10  Pass 1  IDiag  1:
 E= -151.325403616228     Delta-E=       -0.000003994011 Rises=F Damp=F
 DIIS: error= 4.04D-05 at cycle  10 NSaved=  10.
 NSaved=10 IEnMin=10 EnMin= -151.325403616228     IErMin=10 ErrMin= 4.04D-05
 ErrMax= 4.04D-05  0.00D+00 EMaxC= 1.00D-01 BMatC= 3.21D-07 BMatP= 2.13D-06
 IDIUse=1 WtCom= 1.00D+00 WtEn= 0.00D+00
 Coeff-Com: -0.753D-04 0.675D-03 0.836D-03-0.126D-02-0.609D-03 0.766D-03
 Coeff-Com: -0.245D-02 0.113D+00-0.596D+00 0.149D+01
 Coeff:     -0.753D-04 0.675D-03 0.836D-03-0.126D-02-0.609D-03 0.766D-03
 Coeff:     -0.245D-02 0.113D+00-0.596D+00 0.149D+01
 Gap=     0.551 Goal=   None    Shift=    0.000
 Gap=     0.535 Goal=   None    Shift=    0.000
 RMSDP=9.47D-06 MaxDP=1.44D-04 DE=-3.99D-06 OVMax= 5.47D-04

 Cycle  11  Pass 1  IDiag  1:
 E= -151.325404053984     Delta-E=       -0.000000437757 Rises=F Damp=F
 DIIS: error= 2.06D-05 at cycle  11 NSaved=  11.
 NSaved=11 IEnMin=11 EnMin= -151.325404053984     IErMin=11 ErrMin= 2.06D-05
 ErrMax= 2.06D-05  0.00D+00 EMaxC= 1.00D-01 BMatC= 6.34D-08 BMatP= 3.21D-07
 IDIUse=1 WtCom= 1.00D+00 WtEn= 0.00D+00
 Coeff-Com:  0.147D-04-0.667D-03 0.930D-03 0.114D-02 0.774D-02-0.404D-02
 Coeff-Com: -0.797D-01 0.204D+00-0.235D+00-0.320D+00 0.143D+01
 Coeff:      0.147D-04-0.667D-03 0.930D-03 0.114D-02 0.774D-02-0.404D-02
 Coeff:     -0.797D-01 0.204D+00-0.235D+00-0.320D+00 0.143D+01
 Gap=     0.551 Goal=   None    Shift=    0.000
 Gap=     0.535 Goal=   None    Shift=    0.000
 RMSDP=4.16D-06 MaxDP=6.57D-05 DE=-4.38D-07 OVMax= 2.36D-04

 Cycle  12  Pass 1  IDiag  1:
 E= -151.325404140805     Delta-E=       -0.000000086821 Rises=F Damp=F
 DIIS: error= 1.05D-05 at cycle  12 NSaved=  12.
 NSaved=12 IEnMin=12 EnMin= -151.325404140805     IErMin=12 ErrMin= 1.05D-05
 ErrMax= 1.05D-05  0.00D+00 EMaxC= 1.00D-01 BMatC= 1.18D-08 BMatP= 6.34D-08
 IDIUse=1 WtCom= 1.00D+00 WtEn= 0.00D+00
 Coeff-Com:  0.101D-04 0.156D-03-0.564D-03-0.528D-03-0.185D-03-0.946D-03
 Coeff-Com:  0.277D-01-0.833D-01 0.155D+00-0.187D-01-0.665D+00 0.159D+01
 Coeff:      0.101D-04 0.156D-03-0.564D-03-0.528D-03-0.185D-03-0.946D-03
 Coeff:      0.277D-01-0.833D-01 0.155D+00-0.187D-01-0.665D+00 0.159D+01
 Gap=     0.551 Goal=   None    Shift=    0.000
 Gap=     0.535 Goal=   None    Shift=    0.000
 RMSDP=1.71D-06 MaxDP=3.56D-05 DE=-8.68D-08 OVMax= 1.35D-04

 Cycle  13  Pass 1  IDiag  1:
 E= -151.325404160467     Delta-E=       -0.000000019662 Rises=F Damp=F
 DIIS: error= 6.65D-06 at cycle  13 NSaved=  13.
 NSaved=13 IEnMin=13 EnMin= -151.325404160467     IErMin=13 ErrMin= 6.65D-06
 ErrMax= 6.65D-06  0.00D+00 EMaxC= 1.00D-01 BMatC= 4.13D-09 BMatP= 1.18D-08
 IDIUse=1 WtCom= 1.00D+00 WtEn= 0.00D+00
 Coeff-Com: -0.111D-04-0.216D-04 0.275D-03 0.210D-03 0.251D-03 0.134D-02
 Coeff-Com: -0.181D-01 0.543D-01-0.125D+00 0.114D+00 0.333D+00-0.164D+01
 Coeff-Com:  0.228D+01
 Coeff:     -0.111D-04-0.216D-04 0.275D-03 0.210D-03 0.251D-03 0.134D-02
 Coeff:     -0.181D-01 0.543D-01-0.125D+00 0.114D+00 0.333D+00-0.164D+01
 Coeff:      0.228D+01
 Gap=     0.551 Goal=   None    Shift=    0.000
 Gap=     0.535 Goal=   None    Shift=    0.000
 RMSDP=1.47D-06 MaxDP=2.96D-05 DE=-1.97D-08 OVMax= 1.06D-04

 Cycle  14  Pass 1  IDiag  1:
 E= -151.325404169400     Delta-E=       -0.000000008933 Rises=F Damp=F
 DIIS: error= 2.72D-06 at cycle  14 NSaved=  14.
 NSaved=14 IEnMin=14 EnMin= -151.325404169400     IErMin=14 ErrMin= 2.72D-06
 ErrMax= 2.72D-06  0.00D+00 EMaxC= 1.00D-01 BMatC= 7.57D-10 BMatP= 4.13D-09
 IDIUse=1 WtCom= 1.00D+00 WtEn= 0.00D+00
 Coeff-Com:  0.525D-06 0.119D-04 0.543D-05-0.245D-03-0.999D-04 0.266D-04
 Coeff-Com:  0.320D-02-0.117D-01 0.325D-01-0.541D-01-0.252D-01 0.529D+00
 Coeff-Com: -0.135D+01 0.188D+01
 Coeff:      0.525D-06 0.119D-04 0.543D-05-0.245D-03-0.999D-04 0.266D-04
 Coeff:      0.320D-02-0.117D-01 0.325D-01-0.541D-01-0.252D-01 0.529D+00
 Coeff:     -0.135D+01 0.188D+01
 Gap=     0.551 Goal=   None    Shift=    0.000
 Gap=     0.535 Goal=   None    Shift=    0.000
 RMSDP=7.27D-07 MaxDP=1.30D-05 DE=-8.93D-09 OVMax= 4.97D-05

 Cycle  15  Pass 1  IDiag  1:
 E= -151.325404170972     Delta-E=       -0.000000001572 Rises=F Damp=F
 DIIS: error= 7.45D-07 at cycle  15 NSaved=  15.
 NSaved=15 IEnMin=15 EnMin= -151.325404170972     IErMin=15 ErrMin= 7.45D-07
 ErrMax= 7.45D-07  0.00D+00 EMaxC= 1.00D-01 BMatC= 8.18D-11 BMatP= 7.57D-10
 IDIUse=1 WtCom= 1.00D+00 WtEn= 0.00D+00
 Coeff-Com:  0.112D-05-0.686D-05-0.495D-04 0.138D-03-0.833D-04-0.121D-03
 Coeff-Com:  0.970D-03-0.149D-02 0.909D-03 0.879D-02-0.279D-01-0.160D-01
 Coeff-Com:  0.280D+00-0.777D+00 0.153D+01
 Coeff:      0.112D-05-0.686D-05-0.495D-04 0.138D-03-0.833D-04-0.121D-03
 Coeff:      0.970D-03-0.149D-02 0.909D-03 0.879D-02-0.279D-01-0.160D-01
 Coeff:      0.280D+00-0.777D+00 0.153D+01
 Gap=     0.551 Goal=   None    Shift=    0.000
 Gap=     0.535 Goal=   None    Shift=    0.000
 RMSDP=1.47D-07 MaxDP=2.48D-06 DE=-1.57D-09 OVMax= 9.07D-06

 Cycle  16  Pass 1  IDiag  1:
 E= -151.325404171084     Delta-E=       -0.000000000112 Rises=F Damp=F
 DIIS: error= 4.19D-07 at cycle  16 NSaved=  16.
 NSaved=16 IEnMin=16 EnMin= -151.325404171084     IErMin=16 ErrMin= 4.19D-07
 ErrMax= 4.19D-07  0.00D+00 EMaxC= 1.00D-01 BMatC= 1.99D-11 BMatP= 8.18D-11
 IDIUse=1 WtCom= 1.00D+00 WtEn= 0.00D+00
 Coeff-Com: -0.112D-05 0.663D-05 0.358D-04-0.563D-04-0.810D-04 0.393D-03
 Coeff-Com: -0.129D-02 0.257D-02-0.526D-02 0.265D-02 0.191D-01-0.651D-01
 Coeff-Com:  0.335D-01 0.167D+00-0.919D+00 0.177D+01
 Coeff:     -0.112D-05 0.663D-05 0.358D-04-0.563D-04-0.810D-04 0.393D-03
 Coeff:     -0.129D-02 0.257D-02-0.526D-02 0.265D-02 0.191D-01-0.651D-01
 Coeff:      0.335D-01 0.167D+00-0.919D+00 0.177D+01
 Gap=     0.551 Goal=   None    Shift=    0.000
 Gap=     0.535 Goal=   None    Shift=    0.000
 RMSDP=7.25D-08 MaxDP=1.39D-06 DE=-1.12D-10 OVMax= 5.13D-06

 Cycle  17  Pass 1  IDiag  1:
 E= -151.325404171117     Delta-E=       -0.000000000033 Rises=F Damp=F
 DIIS: error= 2.32D-07 at cycle  17 NSaved=  17.
 NSaved=17 IEnMin=17 EnMin= -151.325404171117     IErMin=17 ErrMin= 2.32D-07
 ErrMax= 2.32D-07  0.00D+00 EMaxC= 1.00D-01 BMatC= 5.32D-12 BMatP= 1.99D-11
 IDIUse=1 WtCom= 1.00D+00 WtEn= 0.00D+00
 Coeff-Com:  0.470D-06-0.310D-05-0.157D-04 0.161D-04 0.381D-05-0.152D-03
 Coeff-Com:  0.636D-03-0.144D-02 0.391D-02-0.486D-02-0.761D-02 0.574D-01
 Coeff-Com: -0.936D-01 0.494D-01 0.382D+00-0.140D+01 0.202D+01
 Coeff:      0.470D-06-0.310D-05-0.157D-04 0.161D-04 0.381D-05-0.152D-03
 Coeff:      0.636D-03-0.144D-02 0.391D-02-0.486D-02-0.761D-02 0.574D-01
 Coeff:     -0.936D-01 0.494D-01 0.382D+00-0.140D+01 0.202D+01
 Gap=     0.551 Goal=   None    Shift=    0.000
 Gap=     0.535 Goal=   None    Shift=    0.000
 RMSDP=4.43D-08 MaxDP=9.80D-07 DE=-3.26D-11 OVMax= 3.56D-06

 Cycle  18  Pass 1  IDiag  1:
 E= -151.325404171128     Delta-E=       -0.000000000011 Rises=F Damp=F
 DIIS: error= 8.89D-08 at cycle  18 NSaved=  18.
 NSaved=18 IEnMin=18 EnMin= -151.325404171128     IErMin=18 ErrMin= 8.89D-08
 ErrMax= 8.89D-08  0.00D+00 EMaxC= 1.00D-01 BMatC= 1.12D-12 BMatP= 5.32D-12
 IDIUse=1 WtCom= 1.00D+00 WtEn= 0.00D+00
 Coeff-Com: -0.107D-06 0.183D-06 0.242D-05 0.158D-04-0.309D-04 0.628D-04
 Coeff-Com: -0.107D-03 0.321D-03-0.139D-02 0.245D-02 0.111D-02-0.248D-01
 Coeff-Com:  0.626D-01-0.977D-01 0.134D-02 0.479D+00-0.138D+01 0.196D+01
 Coeff:     -0.107D-06 0.183D-06 0.242D-05 0.158D-04-0.309D-04 0.628D-04
 Coeff:     -0.107D-03 0.321D-03-0.139D-02 0.245D-02 0.111D-02-0.248D-01
 Coeff:      0.626D-01-0.977D-01 0.134D-02 0.479D+00-0.138D+01 0.196D+01
 Gap=     0.551 Goal=   None    Shift=    0.000
 Gap=     0.535 Goal=   None    Shift=    0.000
 RMSDP=2.51D-08 MaxDP=5.85D-07 DE=-1.08D-11 OVMax= 2.15D-06

 Cycle  19  Pass 1  IDiag  1:
 E= -151.325404171130     Delta-E=       -0.000000000002 Rises=F Damp=F
 DIIS: error= 2.18D-08 at cycle  19 NSaved=  19.
 NSaved=19 IEnMin=19 EnMin= -151.325404171130     IErMin=19 ErrMin= 2.18D-08
 ErrMax= 2.18D-08  0.00D+00 EMaxC= 1.00D-01 BMatC= 7.74D-14 BMatP= 1.12D-12
 IDIUse=1 WtCom= 1.00D+00 WtEn= 0.00D+00
 Coeff-Com: -0.119D-07 0.126D-06 0.771D-06-0.837D-05 0.110D-04-0.703D-05
 Coeff-Com: -0.474D-04 0.865D-04 0.321D-04-0.369D-03 0.373D-03 0.335D-02
 Coeff-Com: -0.137D-01 0.322D-01-0.428D-01-0.190D-01 0.316D+00-0.806D+00
 Coeff-Com:  0.153D+01
 Coeff:     -0.119D-07 0.126D-06 0.771D-06-0.837D-05 0.110D-04-0.703D-05
 Coeff:     -0.474D-04 0.865D-04 0.321D-04-0.369D-03 0.373D-03 0.335D-02
 Coeff:     -0.137D-01 0.322D-01-0.428D-01-0.190D-01 0.316D+00-0.806D+00
 Coeff:      0.153D+01
 Gap=     0.551 Goal=   None    Shift=    0.000
 Gap=     0.535 Goal=   None    Shift=    0.000
 RMSDP=5.24D-09 MaxDP=9.50D-08 DE=-2.10D-12 OVMax= 3.66D-07

 SCF Done:  E(UHF) =  -151.325404171     A.U. after   19 cycles
            NFock= 19  Conv=0.52D-08     -V/T= 2.0004
 <Sx>= 0.0000 <Sy>= 0.0000 <Sz>= 1.5000 <S**2>= 3.7689 S= 1.5047
 <L.S>= 0.000000000000E+00
 KE= 1.512635981326D+02 PE=-4.614718109243D+02 EE= 1.027034090580D+02
 Annihilation of the first spin contaminant:
 S**2 before annihilation     3.7689,   after     3.7501
 Leave Link  502 at Tue Oct 10 01:47:17 2017, MaxMem=    33554432 cpu:        29.1
 (Enter /usr/local/gaussian/2009-E.01/g09/l801.exe)
 Windowed orbitals will be sorted by symmetry type.
 ExpMin= 3.60D-02 ExpMax= 8.59D+03 ExpMxC= 1.30D+03 IAcc=3 IRadAn=         5 AccDes= 0.00D+00
 HarFok:  IExCor=  205 AccDes= 0.00D+00 IRadAn=         5 IDoV=-2 UseB2=F ITyADJ=14
 ICtDFT= 12500011 ScaDFX=  1.000000  1.000000  1.000000  1.000000
 Largest valence mixing into a core orbital is  1.05D-04
 Largest core mixing into a valence orbital is  3.01D-05
 Largest valence mixing into a core orbital is  1.49D-04
 Largest core mixing into a valence orbital is  4.62D-05
 Range of M.O.s used for correlation:     4    80
 NBasis=    80 NAE=    12 NBE=     9 NFC=     3 NFV=     0
 NROrb=     77 NOA=     9 NOB=     6 NVA=    68 NVB=    71

 **** Warning!!: The largest alpha MO coefficient is  0.30768933D+02


 **** Warning!!: The largest beta MO coefficient is  0.31976269D+02

 Leave Link  801 at Tue Oct 10 01:47:17 2017, MaxMem=    33554432 cpu:         0.5
 (Enter /usr/local/gaussian/2009-E.01/g09/l804.exe)
 Open-shell transformation, MDV=    33554432 ITran=4 ISComp=2.
 Semi-Direct transformation.
 ModeAB=           2 MOrb=             9 LenV=      33263449
 LASXX=       990310 LTotXX=      990310 LenRXX=      990310
 LTotAB=     1050471 MaxLAS=     2415798 LenRXY=     2415798
 NonZer=     2500344 LenScr=     4500480 LnRSAI=           0
 LnScr1=           0 LExtra=           0 Total=      7906588
 MaxDsk=          -1 SrtSym=           F ITran=            4
 DoSDTr:  NPSUse=  8
 JobTyp=1 Pass  1:  I=   1 to   9.
 (rs|ai) integrals will be sorted in core.
 Complete sort for first half transformation.
 First half transformation complete.
 Complete sort for second half transformation.
 Second half transformation complete.
 ModeAB=           2 MOrb=             6 LenV=      33263449
 LASXX=       685854 LTotXX=      685854 LenRXX=     1610532
 LTotAB=      563370 MaxLAS=     1610532 LenRXY=      563370
 NonZer=     1666896 LenScr=     3143680 LnRSAI=           0
 LnScr1=           0 LExtra=           0 Total=      5317582
 MaxDsk=          -1 SrtSym=           F ITran=            4
 DoSDTr:  NPSUse=  8
 JobTyp=2 Pass  1:  I=   1 to   6.
 (rs|ai) integrals will be sorted in core.
 Complete sort for first half transformation.
 First half transformation complete.
 Complete sort for second half transformation.
 Second half transformation complete.
 Spin components of T(2) and E(2):
     alpha-alpha T2 =       0.1780277703D-01 E2=     -0.6190980271D-01
     alpha-beta  T2 =       0.7811100130D-01 E2=     -0.2668310707D+00
     beta-beta   T2 =       0.9231747693D-02 E2=     -0.2837808107D-01
 ANorm=    0.1051259019D+01
 E2 =    -0.3571189545D+00 EUMP2 =    -0.15168252312558D+03
 (S**2,0)=  0.37689D+01           (S**2,1)=  0.37552D+01
 E(PUHF)=      -0.15132899602D+03        E(PMP2)=      -0.15168481933D+03
 Leave Link  804 at Tue Oct 10 01:47:19 2017, MaxMem=    33554432 cpu:        14.6
 (Enter /usr/local/gaussian/2009-E.01/g09/l913.exe)
 CIDS:  MDV=    33554432.
 Frozen-core window:  NFC=   3 NFV=   0.
 IFCWin=0 IBDFC=1 NFBD=     0     0 NFCmp=     0     0 NFFFC=     0     0
 Using original routines for 1st iteration, S=T.
 Using DD4UQ or CC4UQ for 2nd and later iterations.
 Keep R2 and R3 ints in memory in symmetry-blocked form, NReq=8416254.
 FoFCou: FMM=F IPFlag=           0 FMFlag=           0 FMFlg1=           0
         NFxFlg=           0 DoJE=F BraDBF=F KetDBF=F FulRan=T
         wScrn=  0.000000 ICntrl=     600 IOpCl=  0 I1Cent=           0 NGrid=           0
         NMat0=    1 NMatS0=   3240 NMatT0=    0 NMatD0=    1 NMtDS0=    0 NMtDT0=    0
 Petite list used in FoFCou.
 CCSD(T)
 =======
 Iterations= 200 Convergence= 0.100D-06
 Iteration Nr.   1
 **********************
 DD1Dir will call FoFMem   1 times, MxPair=       160
 NAB=    54 NAA=    36 NBB=    15.
 E(PMP3)=      -0.15171151762D+03
 MP4(R+Q)=  0.69255206D-02
 Maximum subspace dimension=  5
 Norm of the A-vectors is  4.4135184D-01 conv= 1.00D-05.
 RLE energy=       -0.3789135741
 E3=       -0.27666666D-01        EUMP3=      -0.15171018979D+03
 E4(DQ)=   -0.17086511D-02        UMP4(DQ)=   -0.15171189844D+03
 E4(SDQ)=  -0.78103272D-02        UMP4(SDQ)=  -0.15171800012D+03
 VARIATIONAL ENERGIES WITH THE FIRST-ORDER WAVEFUNCTION:
 DE(Corr)= -0.37766009     E(Corr)=     -151.70306427    
 NORM(A)=   0.10622861D+01
 Iteration Nr.   2
 **********************
 DD1Dir will call FoFMem   1 times, MxPair=       160
 NAB=    54 NAA=    36 NBB=    15.
 Norm of the A-vectors is  2.3132949D-01 conv= 1.00D-05.
 RLE energy=       -0.3924506761
 DE(Corr)= -0.39004932     E(CORR)=     -151.71545349     Delta=-1.24D-02
 NORM(A)=   0.10703081D+01
 Iteration Nr.   3
 **********************
 DD1Dir will call FoFMem   1 times, MxPair=       160
 NAB=    54 NAA=    36 NBB=    15.
 Norm of the A-vectors is  7.6094997D-02 conv= 1.00D-05.
 RLE energy=       -0.3946146073
 DE(Corr)= -0.39208555     E(CORR)=     -151.71748972     Delta=-2.04D-03
 NORM(A)=   0.10766993D+01
 Iteration Nr.   4
 **********************
 DD1Dir will call FoFMem   1 times, MxPair=       160
 NAB=    54 NAA=    36 NBB=    15.
 Norm of the A-vectors is  5.6328943D-02 conv= 1.00D-05.
 RLE energy=       -0.3955820699
 DE(Corr)= -0.39473973     E(CORR)=     -151.72014390     Delta=-2.65D-03
 NORM(A)=   0.10816362D+01
 Iteration Nr.   5
 **********************
 DD1Dir will call FoFMem   1 times, MxPair=       160
 NAB=    54 NAA=    36 NBB=    15.
 Norm of the A-vectors is  2.4918491D-02 conv= 1.00D-05.
 RLE energy=       -0.3959148103
 DE(Corr)= -0.39559478     E(CORR)=     -151.72099895     Delta=-8.55D-04
 NORM(A)=   0.10841759D+01
 Iteration Nr.   6
 **********************
 DD1Dir will call FoFMem   1 times, MxPair=       160
 NAB=    54 NAA=    36 NBB=    15.
 Norm of the A-vectors is  1.2086349D-02 conv= 1.00D-05.
 RLE energy=       -0.3958139472
 DE(Corr)= -0.39586388     E(CORR)=     -151.72126805     Delta=-2.69D-04
 NORM(A)=   0.10848004D+01
 Iteration Nr.   7
 **********************
 DD1Dir will call FoFMem   1 times, MxPair=       160
 NAB=    54 NAA=    36 NBB=    15.
 Norm of the A-vectors is  6.8791663D-03 conv= 1.00D-05.
 RLE energy=       -0.3959190282
 DE(Corr)= -0.39591622     E(CORR)=     -151.72132039     Delta=-5.23D-05
 NORM(A)=   0.10849885D+01
 Iteration Nr.   8
 **********************
 DD1Dir will call FoFMem   1 times, MxPair=       160
 NAB=    54 NAA=    36 NBB=    15.
 Norm of the A-vectors is  3.5549812D-03 conv= 1.00D-05.
 RLE energy=       -0.3958939809
 DE(Corr)= -0.39590327     E(CORR)=     -151.72130745     Delta= 1.29D-05
 NORM(A)=   0.10850968D+01
 Iteration Nr.   9
 **********************
 DD1Dir will call FoFMem   1 times, MxPair=       160
 NAB=    54 NAA=    36 NBB=    15.
 Norm of the A-vectors is  2.7419975D-03 conv= 1.00D-05.
 RLE energy=       -0.3959503455
 DE(Corr)= -0.39593567     E(CORR)=     -151.72133984     Delta=-3.24D-05
 NORM(A)=   0.10851083D+01
 Iteration Nr.  10
 **********************
 DD1Dir will call FoFMem   1 times, MxPair=       160
 NAB=    54 NAA=    36 NBB=    15.
 Norm of the A-vectors is  1.6759410D-03 conv= 1.00D-05.
 RLE energy=       -0.3959260589
 DE(Corr)= -0.39592132     E(CORR)=     -151.72132550     Delta= 1.43D-05
 NORM(A)=   0.10851254D+01
 Iteration Nr.  11
 **********************
 DD1Dir will call FoFMem   1 times, MxPair=       160
 NAB=    54 NAA=    36 NBB=    15.
 Norm of the A-vectors is  1.1520844D-03 conv= 1.00D-05.
 RLE energy=       -0.3959336415
 DE(Corr)= -0.39593383     E(CORR)=     -151.72133800     Delta=-1.25D-05
 NORM(A)=   0.10851349D+01
 Iteration Nr.  12
 **********************
 DD1Dir will call FoFMem   1 times, MxPair=       160
 NAB=    54 NAA=    36 NBB=    15.
 Norm of the A-vectors is  5.9257499D-04 conv= 1.00D-05.
 RLE energy=       -0.3959345085
 DE(Corr)= -0.39593160     E(CORR)=     -151.72133577     Delta= 2.23D-06
 NORM(A)=   0.10851545D+01
 Iteration Nr.  13
 **********************
 DD1Dir will call FoFMem   1 times, MxPair=       160
 NAB=    54 NAA=    36 NBB=    15.
 Norm of the A-vectors is  3.7667086D-04 conv= 1.00D-05.
 RLE energy=       -0.3959348885
 DE(Corr)= -0.39593414     E(CORR)=     -151.72133832     Delta=-2.54D-06
 NORM(A)=   0.10851722D+01
 Iteration Nr.  14
 **********************
 DD1Dir will call FoFMem   1 times, MxPair=       160
 NAB=    54 NAA=    36 NBB=    15.
 Norm of the A-vectors is  2.2805541D-04 conv= 1.00D-05.
 RLE energy=       -0.3959391844
 DE(Corr)= -0.39593666     E(CORR)=     -151.72134083     Delta=-2.51D-06
 NORM(A)=   0.10851870D+01
 Iteration Nr.  15
 **********************
 DD1Dir will call FoFMem   1 times, MxPair=       160
 NAB=    54 NAA=    36 NBB=    15.
 Norm of the A-vectors is  1.3333036D-04 conv= 1.00D-05.
 RLE energy=       -0.3959387450
 DE(Corr)= -0.39593808     E(CORR)=     -151.72134225     Delta=-1.42D-06
 NORM(A)=   0.10851972D+01
 Iteration Nr.  16
 **********************
 DD1Dir will call FoFMem   1 times, MxPair=       160
 NAB=    54 NAA=    36 NBB=    15.
 Norm of the A-vectors is  9.4860213D-05 conv= 1.00D-05.
 RLE energy=       -0.3959408441
 DE(Corr)= -0.39594003     E(CORR)=     -151.72134420     Delta=-1.96D-06
 NORM(A)=   0.10852018D+01
 Iteration Nr.  17
 **********************
 DD1Dir will call FoFMem   1 times, MxPair=       160
 NAB=    54 NAA=    36 NBB=    15.
 Norm of the A-vectors is  5.4348093D-05 conv= 1.00D-05.
 RLE energy=       -0.3959404877
 DE(Corr)= -0.39594012     E(CORR)=     -151.72134429     Delta=-8.55D-08
 NORM(A)=   0.10852047D+01
 Iteration Nr.  18
 **********************
 DD1Dir will call FoFMem   1 times, MxPair=       160
 NAB=    54 NAA=    36 NBB=    15.
 Norm of the A-vectors is  3.6641934D-05 conv= 1.00D-05.
 RLE energy=       -0.3959407059
 DE(Corr)= -0.39594065     E(CORR)=     -151.72134482     Delta=-5.35D-07
 NORM(A)=   0.10852057D+01
 Iteration Nr.  19
 **********************
 DD1Dir will call FoFMem   1 times, MxPair=       160
 NAB=    54 NAA=    36 NBB=    15.
 Norm of the A-vectors is  2.5792387D-05 conv= 1.00D-05.
 RLE energy=       -0.3959406923
 DE(Corr)= -0.39594063     E(CORR)=     -151.72134480     Delta= 2.28D-08
 NORM(A)=   0.10852062D+01
 Iteration Nr.  20
 **********************
 DD1Dir will call FoFMem   1 times, MxPair=       160
 NAB=    54 NAA=    36 NBB=    15.
 Norm of the A-vectors is  1.8725687D-05 conv= 1.00D-05.
 RLE energy=       -0.3959405972
 DE(Corr)= -0.39594066     E(CORR)=     -151.72134483     Delta=-3.13D-08
 NORM(A)=   0.10852064D+01
 Iteration Nr.  21
 **********************
 DD1Dir will call FoFMem   1 times, MxPair=       160
 NAB=    54 NAA=    36 NBB=    15.
 Norm of the A-vectors is  1.2168445D-05 conv= 1.00D-05.
 RLE energy=       -0.3959407450
 DE(Corr)= -0.39594068     E(CORR)=     -151.72134485     Delta=-2.02D-08
 NORM(A)=   0.10852066D+01
 Iteration Nr.  22
 **********************
 DD1Dir will call FoFMem   1 times, MxPair=       160
 NAB=    54 NAA=    36 NBB=    15.
 Norm of the A-vectors is  8.8735903D-06 conv= 1.00D-05.
 RLE energy=       -0.3959406450
 DE(Corr)= -0.39594066     E(CORR)=     -151.72134483     Delta= 2.43D-08
 NORM(A)=   0.10852068D+01
 CI/CC converged in   22 iterations to DelEn= 2.43D-08 Conv= 1.00D-07 ErrA1= 8.87D-06 Conv= 1.00D-05
 Dominant configurations:
 ***********************
 Spin Case        I    J    A    B          Value
    BB            8        10            0.105028D+00
    BB            9        11            0.106937D+00
 Largest amplitude= 1.07D-01
 Time for triples=       67.19 seconds.
 T4(CCSD)= -0.16699519D-01
 T5(CCSD)=  0.18693213D-02
 CCSD(T)= -0.15173617503D+03

 S**2, projected HF & approx projected MPn energies after annihilation of
 unwanted spin states (see manual for definitions):

 spins       (S**2,0) (S**2,1)    PUHF        PMP2        PMP3        PMP4
 annihilated
 s+1         3.74991  3.75005 -151.328996 -151.684819 -151.711517
 s+1,s+2     3.75000  3.75000 -151.328980 -151.684806 -151.711506
 s+1 to s+3  3.75000  3.75000 -151.328980 -151.684806 -151.711506
 s+1 to s+4  3.75000  3.75000 -151.328980 -151.684806 -151.711506
 s+1 to s+5  3.75000  3.75000 -151.328980
 s+1 to s+6  3.75000  3.75000 -151.328980

 Discarding MO integrals.
 Leave Link  913 at Tue Oct 10 01:48:34 2017, MaxMem=    33554432 cpu:       553.2
 (Enter /usr/local/gaussian/2009-E.01/g09/l601.exe)
 Copying SCF densities to generalized density rwf, IOpCl= 1 IROHF=0.

 **********************************************************************

            Population analysis using the SCF density.

 **********************************************************************

 Orbital symmetries:
 Alpha Orbitals:
       Occupied  (A') (A') (A') (A') (A') (A') (A') (A') (A") (A')
                 (A') (A")
       Virtual   (A") (A') (A') (A') (A") (A') (A') (A') (A") (A')
                 (A') (A') (A') (A") (A') (A') (A') (A') (A') (A')
                 (A") (A') (A') (A') (A") (A') (A') (A') (A') (A")
                 (A") (A') (A") (A') (A") (A') (A') (A') (A') (A')
                 (A") (A') (A") (A") (A') (A') (A') (A') (A') (A")
                 (A') (A') (A") (A') (A') (A") (A') (A") (A') (A')
                 (A') (A') (A") (A') (A') (A') (A') (A')
 Beta  Orbitals:
       Occupied  (A') (A') (A') (A') (A') (A') (A') (A') (A")
       Virtual   (A') (A") (A') (A') (A') (A") (A') (A") (A') (A')
                 (A') (A") (A') (A') (A') (A') (A") (A') (A') (A')
                 (A') (A') (A') (A') (A") (A') (A") (A') (A') (A')
                 (A') (A') (A") (A') (A") (A") (A') (A") (A') (A')
                 (A') (A') (A') (A") (A') (A") (A") (A') (A') (A')
                 (A') (A') (A') (A") (A') (A") (A') (A') (A") (A')
                 (A") (A') (A') (A') (A') (A") (A') (A') (A') (A')
                 (A')
 The electronic state is 4-A".
 Alpha  occ. eigenvalues --  -21.00559 -11.69908 -11.59393  -1.81196  -1.38553
 Alpha  occ. eigenvalues --   -1.11749  -1.06632  -0.98759  -0.97440  -0.89454
 Alpha  occ. eigenvalues --   -0.78245  -0.72681
 Alpha virt. eigenvalues --   -0.17623  -0.10491  -0.07777  -0.07004  -0.05655
 Alpha virt. eigenvalues --   -0.03338  -0.02611  -0.00106  -0.00044   0.04115
 Alpha virt. eigenvalues --    0.04752   0.05909   0.07336   0.10900   0.11641
 Alpha virt. eigenvalues --    0.15750   0.18871   0.23633   0.26914   0.36957
 Alpha virt. eigenvalues --    0.41852   0.42540   0.44427   0.47315   0.48780
 Alpha virt. eigenvalues --    0.60333   0.64564   0.68551   0.75837   0.94237
 Alpha virt. eigenvalues --    0.98068   0.98373   1.01286   1.02742   1.26210
 Alpha virt. eigenvalues --    1.26527   1.40030   1.41826   1.48439   1.56186
 Alpha virt. eigenvalues --    1.61107   1.70300   1.93211   1.93696   1.95231
 Alpha virt. eigenvalues --    2.05210   2.20413   2.52340   2.58754   2.67188
 Alpha virt. eigenvalues --    2.68177   2.70837   2.74573   2.79919   2.87795
 Alpha virt. eigenvalues --    2.90060   3.22653   3.26038   3.41195   3.67439
 Alpha virt. eigenvalues --    3.78868   4.16600   5.14605   5.16197   5.76544
 Alpha virt. eigenvalues --   24.40849  24.85069  51.14898
  Beta  occ. eigenvalues --  -20.95083 -11.66610 -11.57796  -1.63130  -1.26703
  Beta  occ. eigenvalues --   -1.02122  -0.93044  -0.87979  -0.83103
  Beta virt. eigenvalues --   -0.29618  -0.26239  -0.14114  -0.08156  -0.07363
  Beta virt. eigenvalues --   -0.06590  -0.05924  -0.04073  -0.01993  -0.01698
  Beta virt. eigenvalues --    0.01309   0.03199   0.04466   0.05284   0.08099
  Beta virt. eigenvalues --    0.09775   0.12330   0.12898   0.18434   0.20871
  Beta virt. eigenvalues --    0.26861   0.31372   0.40152   0.45981   0.46582
  Beta virt. eigenvalues --    0.49302   0.54048   0.54881   0.61796   0.66763
  Beta virt. eigenvalues --    0.72517   0.79593   0.99411   1.01175   1.03911
  Beta virt. eigenvalues --    1.07914   1.15234   1.32591   1.33941   1.41538
  Beta virt. eigenvalues --    1.44850   1.54237   1.60465   1.63615   1.75425
  Beta virt. eigenvalues --    1.96756   1.97621   1.98445   2.09511   2.22300
  Beta virt. eigenvalues --    2.53426   2.60291   2.70167   2.71497   2.74346
  Beta virt. eigenvalues --    2.86702   2.92985   2.96906   2.98322   3.25937
  Beta virt. eigenvalues --    3.30792   3.50241   3.71797   3.80384   4.19949
  Beta virt. eigenvalues --    5.20539   5.30638   5.80194  24.43021  24.86609
  Beta virt. eigenvalues --   51.18068
          Condensed to atoms (all electrons):
               1          2          3          4          5
     1  C    5.038778   0.396751   0.389090   0.404297  -0.095417
     2  C    0.396751   5.012712  -0.005918  -0.049420   0.256903
     3  H    0.389090  -0.005918   0.358142  -0.004087   0.002267
     4  H    0.404297  -0.049420  -0.004087   0.375495   0.005958
     5  O   -0.095417   0.256903   0.002267   0.005958   7.614026
          Atomic-Atomic Spin Densities.
               1          2          3          4          5
     1  C    0.790931   0.052284  -0.025730   0.020801  -0.024028
     2  C    0.052284   1.181999   0.015548  -0.025023  -0.189545
     3  H   -0.025730   0.015548  -0.010179  -0.008464   0.000130
     4  H    0.020801  -0.025023  -0.008464   0.007434  -0.000259
     5  O   -0.024028  -0.189545   0.000130  -0.000259   1.398384
 Mulliken charges and spin densities:
               1          2
     1  C   -0.133498   0.814259
     2  C    0.388972   1.035264
     3  H    0.260505  -0.028695
     4  H    0.267758  -0.005510
     5  O    0.216263   1.184682
 Sum of Mulliken charges =   1.00000   3.00000
 Mulliken charges and spin densities with hydrogens summed into heavy atoms:
               1          2
     1  C    0.394765   0.780054
     2  C    0.388972   1.035264
     5  O    0.216263   1.184682
 Electronic spatial extent (au):  <R**2>=            128.5137
 Charge=              1.0000 electrons
 Dipole moment (field-independent basis, Debye):
    X=              2.8314    Y=             -0.0375    Z=              0.0000  Tot=              2.8317
 Quadrupole moment (field-independent basis, Debye-Ang):
   XX=             -9.0406   YY=            -12.0736   ZZ=            -15.3913
   XY=             -1.9972   XZ=              0.0000   YZ=             -0.0000
 Traceless Quadrupole moment (field-independent basis, Debye-Ang):
   XX=              3.1279   YY=              0.0949   ZZ=             -3.2228
   XY=             -1.9972   XZ=              0.0000   YZ=             -0.0000
 Octapole moment (field-independent basis, Debye-Ang**2):
  XXX=              7.0132  YYY=             -3.8201  ZZZ=             -0.0000  XYY=              0.1944
  XXY=              0.0929  XXZ=             -0.0000  XZZ=             -1.1313  YZZ=              0.0620
  YYZ=             -0.0000  XYZ=              0.0000
 Hexadecapole moment (field-independent basis, Debye-Ang**3):
 XXXX=            -80.6042 YYYY=            -23.8406 ZZZZ=            -13.2734 XXXY=              6.3767
 XXXZ=              0.0000 YYYX=              3.1903 YYYZ=             -0.0000 ZZZX=              0.0000
 ZZZY=             -0.0000 XXYY=            -19.8969 XXZZ=            -20.6936 YYZZ=             -7.2220
 XXYZ=             -0.0000 YYXZ=              0.0000 ZZXY=              2.3307
 N-N= 5.617939956251D+01 E-N=-4.614718112255D+02  KE= 1.512635981326D+02
 Symmetry A'   KE= 1.456788259755D+02
 Symmetry A"   KE= 5.584772157127D+00
 Leave Link  601 at Tue Oct 10 01:48:34 2017, MaxMem=    33554432 cpu:         0.2
 (Enter /usr/local/gaussian/2009-E.01/g09/l9999.exe)
 1\1\ WCSS.PL-BEM-WN1424\SP\UCCSD(T)-FC\6-311++G(d,p)\C2H2O1(1+,4)\ROOT
 \10-Oct-2017\0\\#p ccsd(t,maxcyc=200)/6-311++G(d,p)\\ccsd(t) iener\\1,
 4\C,0,0.801989,-0.525386,0.423232\C,0,0.069285,0.540687,-0.051253\H,0,
 1.858342925,-0.383008532,0.689159047\H,0,0.371752102,-1.530547597,0.55
 0763222\O,0,-1.182685252,0.375659383,-0.367349704\\Version=ES64L-G09Re
 vE.01\State=4-A"\HF=-151.3254042\MP2=-151.6825231\MP3=-151.7101898\MP4
 D=-151.718824\MP4DQ=-151.7118984\PUHF=-151.328996\PMP2-0=-151.6848193\
 PMP3-0=-151.7115176\MP4SDQ=-151.7180001\CCSD=-151.7213448\CCSD(T)=-151
 .736175\S2=3.768907\S2-1=3.755202\S2A=3.750126\RMSD=5.235e-09\PG=CS [S
 G(C2H2O1)]\\@


 BE NOT THE FIRST BY WHOM THE NEW ARE TRIED,
 NOR YET THE THE LAST TO LAY THE OLD ASIDE.

                          -- ALEXANDER POPE
 Job cpu time:       0 days  0 hours 10 minutes  4.5 seconds.
 File lengths (MBytes):  RWF=    110 Int=      0 D2E=      0 Chk=      2 Scr=      1
 Normal termination of Gaussian 09 at Tue Oct 10 01:48:34 2017.
