 Entering Gaussian System, Link 0=/usr/local/gaussian/2009-E.01/g09/g09
 Initial command:
 /usr/local/gaussian/2009-E.01/g09/l1.exe "/lustre/scratch/eerd/4986703.achilles/Gau-177019.inp" -scrdir="/lustre/scratch/eerd/4986703.achilles/"
 Entering Link 1 = /usr/local/gaussian/2009-E.01/g09/l1.exe PID=    177021.
  
 Copyright (c) 1988,1990,1992,1993,1995,1998,2003,2009,2015,
            Gaussian, Inc.  All Rights Reserved.
  
 This is part of the Gaussian(R) 09 program.  It is based on
 the Gaussian(R) 03 system (copyright 2003, Gaussian, Inc.),
 the Gaussian(R) 98 system (copyright 1998, Gaussian, Inc.),
 the Gaussian(R) 94 system (copyright 1995, Gaussian, Inc.),
 the Gaussian 92(TM) system (copyright 1992, Gaussian, Inc.),
 the Gaussian 90(TM) system (copyright 1990, Gaussian, Inc.),
 the Gaussian 88(TM) system (copyright 1988, Gaussian, Inc.),
 the Gaussian 86(TM) system (copyright 1986, Carnegie Mellon
 University), and the Gaussian 82(TM) system (copyright 1983,
 Carnegie Mellon University). Gaussian is a federally registered
 trademark of Gaussian, Inc.
  
 This software contains proprietary and confidential information,
 including trade secrets, belonging to Gaussian, Inc.
  
 This software is provided under written license and may be
 used, copied, transmitted, or stored only in accord with that
 written license.
  
 The following legend is applicable only to US Government
 contracts under FAR:
  
                    RESTRICTED RIGHTS LEGEND
  
 Use, reproduction and disclosure by the US Government is
 subject to restrictions as set forth in subparagraphs (a)
 and (c) of the Commercial Computer Software - Restricted
 Rights clause in FAR 52.227-19.
  
 Gaussian, Inc.
 340 Quinnipiac St., Bldg. 40, Wallingford CT 06492
  
  
 ---------------------------------------------------------------
 Warning -- This program may not be used in any manner that
 competes with the business of Gaussian, Inc. or will provide
 assistance to any competitor of Gaussian, Inc.  The licensee
 of this program is prohibited from giving any competitor of
 Gaussian, Inc. access to this program.  By using this program,
 the user acknowledges that Gaussian, Inc. is engaged in the
 business of creating and licensing software in the field of
 computational chemistry and represents and warrants to the
 licensee that it is not a competitor of Gaussian, Inc. and that
 it will not use this program in any manner prohibited above.
 ---------------------------------------------------------------
  

 Cite this work as:
 Gaussian 09, Revision E.01,
 M. J. Frisch, G. W. Trucks, H. B. Schlegel, G. E. Scuseria, 
 M. A. Robb, J. R. Cheeseman, G. Scalmani, V. Barone, B. Mennucci, 
 G. A. Petersson, H. Nakatsuji, M. Caricato, X. Li, H. P. Hratchian, 
 A. F. Izmaylov, J. Bloino, G. Zheng, J. L. Sonnenberg, M. Hada, 
 M. Ehara, K. Toyota, R. Fukuda, J. Hasegawa, M. Ishida, T. Nakajima, 
 Y. Honda, O. Kitao, H. Nakai, T. Vreven, J. A. Montgomery, Jr., 
 J. E. Peralta, F. Ogliaro, M. Bearpark, J. J. Heyd, E. Brothers, 
 K. N. Kudin, V. N. Staroverov, T. Keith, R. Kobayashi, J. Normand, 
 K. Raghavachari, A. Rendell, J. C. Burant, S. S. Iyengar, J. Tomasi, 
 M. Cossi, N. Rega, J. M. Millam, M. Klene, J. E. Knox, J. B. Cross, 
 V. Bakken, C. Adamo, J. Jaramillo, R. Gomperts, R. E. Stratmann, 
 O. Yazyev, A. J. Austin, R. Cammi, C. Pomelli, J. W. Ochterski, 
 R. L. Martin, K. Morokuma, V. G. Zakrzewski, G. A. Voth, 
 P. Salvador, J. J. Dannenberg, S. Dapprich, A. D. Daniels, 
 O. Farkas, J. B. Foresman, J. V. Ortiz, J. Cioslowski, 
 and D. J. Fox, Gaussian, Inc., Wallingford CT, 2013.
 
 ******************************************
 Gaussian 09:  ES64L-G09RevE.01 30-Nov-2015
                10-Oct-2017 
 ******************************************
 %NProcShared=8
 Will use up to    8 processors via shared memory.
 -----------------------------------
 #p ccsd(t,maxcyc=200)/6-311++G(d,p)
 -----------------------------------
 1/38=1/1;
 2/12=2,17=6,18=5,40=1/2;
 3/5=4,6=6,7=1111,11=9,16=1,25=1,30=1/1,2,3;
 4//1;
 5/5=2,38=5/2;
 8/6=4,9=120000,10=2/1,4;
 9/5=7,6=200,14=2/13;
 6/7=2,8=2,9=2,10=2/1;
 99/5=1,9=1/99;
 Leave Link    1 at Tue Oct 10 02:31:31 2017, MaxMem=           0 cpu:         0.4
 (Enter /usr/local/gaussian/2009-E.01/g09/l101.exe)
 -------------
 ccsd(t) iener
 -------------
 Symbolic Z-matrix:
 Charge =  1 Multiplicity = 2
 C                     0.13906   0.59724  -0.82314 
 C                     0.14871  -0.74965  -0.7094 
 C                    -0.62655  -0.05028   0.14909 
 H                     0.43169   1.54564  -1.25992 
 H                    -1.32517   0.05974   0.9711 
 
 NAtoms=      5 NQM=        5 NQMF=       0 NMMI=      0 NMMIF=      0
                NMic=       0 NMicF=      0.
                    Isotopes and Nuclear Properties:
 (Nuclear quadrupole moments (NQMom) in fm**2, nuclear magnetic moments (NMagM)
  in nuclear magnetons)

  Atom         1           2           3           4           5
 IAtWgt=          12          12          12           1           1
 AtmWgt=  12.0000000  12.0000000  12.0000000   1.0078250   1.0078250
 NucSpn=           0           0           0           1           1
 AtZEff=   0.0000000   0.0000000   0.0000000   0.0000000   0.0000000
 NQMom=    0.0000000   0.0000000   0.0000000   0.0000000   0.0000000
 NMagM=    0.0000000   0.0000000   0.0000000   2.7928460   2.7928460
 AtZNuc=   6.0000000   6.0000000   6.0000000   1.0000000   1.0000000
 Leave Link  101 at Tue Oct 10 02:31:31 2017, MaxMem=    33554432 cpu:         0.4
 (Enter /usr/local/gaussian/2009-E.01/g09/l202.exe)
                          Input orientation:                          
 ---------------------------------------------------------------------
 Center     Atomic      Atomic             Coordinates (Angstroms)
 Number     Number       Type             X           Y           Z
 ---------------------------------------------------------------------
      1          6           0        0.139055    0.597238   -0.823136
      2          6           0        0.148705   -0.749653   -0.709399
      3          6           0       -0.626546   -0.050281    0.149093
      4          1           0        0.431694    1.545636   -1.259923
      5          1           0       -1.325171    0.059739    0.971101
 ---------------------------------------------------------------------
                    Distance matrix (angstroms):
                    1          2          3          4          5
     1  C    0.000000
     2  C    1.351719   0.000000
     3  C    1.396659   1.351719   0.000000
     4  H    1.084379   2.377290   2.377425   0.000000
     5  H    2.377425   2.377290   1.084379   3.204985   0.000000
 Stoichiometry    C3H2(1+,2)
 Framework group  C2V[C2(C),SGV(C2H2)]
 Deg. of freedom     4
 Full point group                 C2V     NOp   4
 Largest Abelian subgroup         C2V     NOp   4
 Largest concise Abelian subgroup C2      NOp   2
                         Standard orientation:                         
 ---------------------------------------------------------------------
 Center     Atomic      Atomic             Coordinates (Angstroms)
 Number     Number       Type             X           Y           Z
 ---------------------------------------------------------------------
      1          6           0        0.000000    0.698329   -0.287344
      2          6           0        0.000000    0.000000    0.870016
      3          6           0       -0.000000   -0.698329   -0.287344
      4          1           0        0.000000    1.602493   -0.885982
      5          1           0       -0.000000   -1.602493   -0.885982
 ---------------------------------------------------------------------
 Rotational constants (GHZ):     40.2191524     29.9393593     17.1630730
 Leave Link  202 at Tue Oct 10 02:31:31 2017, MaxMem=    33554432 cpu:         0.1
 (Enter /usr/local/gaussian/2009-E.01/g09/l301.exe)
 Standard basis: 6-311++G(d,p) (5D, 7F)
 Ernie: Thresh=  0.10000D-02 Tol=  0.10000D-05 Strict=F.
 There are    35 symmetry adapted cartesian basis functions of A1  symmetry.
 There are     8 symmetry adapted cartesian basis functions of A2  symmetry.
 There are    12 symmetry adapted cartesian basis functions of B1  symmetry.
 There are    28 symmetry adapted cartesian basis functions of B2  symmetry.
 There are    33 symmetry adapted basis functions of A1  symmetry.
 There are     8 symmetry adapted basis functions of A2  symmetry.
 There are    12 symmetry adapted basis functions of B1  symmetry.
 There are    27 symmetry adapted basis functions of B2  symmetry.
    80 basis functions,   126 primitive gaussians,    83 cartesian basis functions
    10 alpha electrons        9 beta electrons
       nuclear repulsion energy        53.1901369221 Hartrees.
 IExCor=    0 DFT=F Ex=HF Corr=None ExCW=0 ScaHFX=  1.000000
 ScaDFX=  1.000000  1.000000  1.000000  1.000000 ScalE2=  1.000000  1.000000
 IRadAn=      0 IRanWt=     -1 IRanGd=            0 ICorTp=0 IEmpDi=  4
 NAtoms=    5 NActive=    5 NUniq=    3 SFac= 2.78D+00 NAtFMM=   60 NAOKFM=F Big=F
 Integral buffers will be    131072 words long.
 Raffenetti 2 integral format.
 Two-electron integral symmetry is turned on.
 Leave Link  301 at Tue Oct 10 02:31:31 2017, MaxMem=    33554432 cpu:         0.4
 (Enter /usr/local/gaussian/2009-E.01/g09/l302.exe)
 NPDir=0 NMtPBC=     1 NCelOv=     1 NCel=       1 NClECP=     1 NCelD=      1
         NCelK=      1 NCelE2=     1 NClLst=     1 CellRange=     0.0.
 One-electron integrals computed using PRISM.
 One-electron integral symmetry used in STVInt
 NBasis=    80 RedAO= T EigKep=  4.51D-05  NBF=    33     8    12    27
 NBsUse=    80 1.00D-06 EigRej= -1.00D+00 NBFU=    33     8    12    27
 Leave Link  302 at Tue Oct 10 02:31:31 2017, MaxMem=    33554432 cpu:         1.1
 (Enter /usr/local/gaussian/2009-E.01/g09/l303.exe)
 DipDrv:  MaxL=1.
 Leave Link  303 at Tue Oct 10 02:31:31 2017, MaxMem=    33554432 cpu:         0.2
 (Enter /usr/local/gaussian/2009-E.01/g09/l401.exe)
 ExpMin= 3.60D-02 ExpMax= 4.56D+03 ExpMxC= 6.82D+02 IAcc=3 IRadAn=         5 AccDes= 0.00D+00
 Harris functional with IExCor=  205 and IRadAn=       5 diagonalized for initial guess.
 HarFok:  IExCor=  205 AccDes= 0.00D+00 IRadAn=         5 IDoV= 1 UseB2=F ITyADJ=14
 ICtDFT=  3500011 ScaDFX=  1.000000  1.000000  1.000000  1.000000
 FoFCou: FMM=F IPFlag=           0 FMFlag=      100000 FMFlg1=           0
         NFxFlg=           0 DoJE=T BraDBF=F KetDBF=T FulRan=T
         wScrn=  0.000000 ICntrl=     500 IOpCl=  0 I1Cent=   200000004 NGrid=           0
         NMat0=    1 NMatS0=      1 NMatT0=    0 NMatD0=    1 NMtDS0=    0 NMtDT0=    0
 Petite list used in FoFCou.
 Harris En= -114.440262027130    
 JPrj=0 DoOrth=F DoCkMO=F.
 Initial guess orbital symmetries:
 Alpha Orbitals:
       Occupied  (A1) (B2) (A1) (A1) (B2) (A1) (A1) (B1) (B2) (A1)
       Virtual   (A2) (B1) (A1) (B2) (A1) (B1) (B2) (A1) (B2) (A1)
                 (B2) (A2) (B1) (A1) (A1) (B2) (B2) (A1) (B2) (A1)
                 (B2) (A1) (B1) (B2) (A1) (A2) (B1) (A1) (B2) (A1)
                 (B2) (B2) (A1) (A1) (B2) (B1) (A2) (A1) (B1) (A1)
                 (B2) (A2) (B1) (A1) (A1) (A2) (B2) (B2) (A1) (B2)
                 (B1) (A1) (A2) (B2) (A1) (B1) (B2) (A1) (A2) (B1)
                 (A1) (B2) (B2) (A1) (A1) (B2) (B2) (A1) (B2) (A1)
 Beta  Orbitals:
       Occupied  (A1) (B2) (A1) (A1) (B2) (A1) (A1) (B1) (B2)
       Virtual   (A1) (A2) (B1) (A1) (B2) (A1) (B1) (B2) (A1) (B2)
                 (A1) (B2) (A2) (B1) (A1) (A1) (B2) (B2) (A1) (B2)
                 (A1) (B2) (A1) (B1) (B2) (A1) (A2) (B1) (A1) (B2)
                 (A1) (B2) (B2) (A1) (A1) (B2) (B1) (A2) (A1) (B1)
                 (A1) (B2) (A2) (B1) (A1) (A1) (A2) (B2) (B2) (A1)
                 (B2) (B1) (A1) (A2) (B2) (A1) (B1) (B2) (A1) (A2)
                 (B1) (A1) (B2) (B2) (A1) (A1) (B2) (B2) (A1) (B2)
                 (A1)
 The electronic state of the initial guess is 2-A1.
 Initial guess <Sx>= 0.0000 <Sy>= 0.0000 <Sz>= 0.5000 <S**2>= 0.7500 S= 0.5000
 Leave Link  401 at Tue Oct 10 02:31:31 2017, MaxMem=    33554432 cpu:         2.1
 (Enter /usr/local/gaussian/2009-E.01/g09/l502.exe)
 UHF open shell SCF:
 Using DIIS extrapolation, IDIIS=  1040.
 Integral symmetry usage will be decided dynamically.
 Keep R1 and R2 ints in memory in symmetry-blocked form, NReq=6702778.
 IVT=       40673 IEndB=       40673 NGot=    33554432 MDV=    30698902
 LenX=    30698902 LenY=    30691572
 Requested convergence on RMS density matrix=1.00D-08 within 128 cycles.
 Requested convergence on MAX density matrix=1.00D-06.
 Requested convergence on             energy=1.00D-06.
 No special actions if energy rises.
 FoFCou: FMM=F IPFlag=           0 FMFlag=           0 FMFlg1=           0
         NFxFlg=           0 DoJE=F BraDBF=F KetDBF=F FulRan=T
         wScrn=  0.000000 ICntrl=     600 IOpCl=  0 I1Cent=           0 NGrid=           0
         NMat0=    1 NMatS0=   3240 NMatT0=    0 NMatD0=    1 NMtDS0=    0 NMtDT0=    0
 Petite list used in FoFCou.

 Cycle   1  Pass 1  IDiag  1:
 E= -114.293261300663    
 DIIS: error= 4.84D-02 at cycle   1 NSaved=   1.
 NSaved= 1 IEnMin= 1 EnMin= -114.293261300663     IErMin= 1 ErrMin= 4.84D-02
 ErrMax= 4.84D-02  0.00D+00 EMaxC= 1.00D-01 BMatC= 6.71D-01 BMatP= 6.71D-01
 IDIUse=3 WtCom= 5.16D-01 WtEn= 4.84D-01
 Coeff-Com:  0.100D+01
 Coeff-En:   0.100D+01
 Coeff:      0.100D+01
 Gap=     0.611 Goal=   None    Shift=    0.000
 Gap=     0.526 Goal=   None    Shift=    0.000
 GapD=    0.526 DampG=2.000 DampE=0.500 DampFc=1.0000 IDamp=-1.
 RMSDP=5.81D-03 MaxDP=1.63D-01              OVMax= 6.03D-02

 Cycle   2  Pass 1  IDiag  1:
 E= -114.350407616055     Delta-E=       -0.057146315391 Rises=F Damp=F
 DIIS: error= 1.09D-02 at cycle   2 NSaved=   2.
 NSaved= 2 IEnMin= 2 EnMin= -114.350407616055     IErMin= 2 ErrMin= 1.09D-02
 ErrMax= 1.09D-02  0.00D+00 EMaxC= 1.00D-01 BMatC= 1.40D-02 BMatP= 6.71D-01
 IDIUse=3 WtCom= 8.91D-01 WtEn= 1.09D-01
 Coeff-Com: -0.302D-01 0.103D+01
 Coeff-En:   0.000D+00 0.100D+01
 Coeff:     -0.269D-01 0.103D+01
 Gap=     0.579 Goal=   None    Shift=    0.000
 Gap=     0.550 Goal=   None    Shift=    0.000
 RMSDP=2.26D-03 MaxDP=6.70D-02 DE=-5.71D-02 OVMax= 4.91D-02

 Cycle   3  Pass 1  IDiag  1:
 E= -114.355054617891     Delta-E=       -0.004647001836 Rises=F Damp=F
 DIIS: error= 4.25D-03 at cycle   3 NSaved=   3.
 NSaved= 3 IEnMin= 3 EnMin= -114.355054617891     IErMin= 3 ErrMin= 4.25D-03
 ErrMax= 4.25D-03  0.00D+00 EMaxC= 1.00D-01 BMatC= 2.62D-03 BMatP= 1.40D-02
 IDIUse=3 WtCom= 9.57D-01 WtEn= 4.25D-02
 Coeff-Com: -0.234D-01 0.211D+00 0.812D+00
 Coeff-En:   0.000D+00 0.000D+00 0.100D+01
 Coeff:     -0.224D-01 0.202D+00 0.820D+00
 Gap=     0.586 Goal=   None    Shift=    0.000
 Gap=     0.545 Goal=   None    Shift=    0.000
 RMSDP=9.63D-04 MaxDP=3.54D-02 DE=-4.65D-03 OVMax= 1.39D-02

 Cycle   4  Pass 1  IDiag  1:
 E= -114.356148942273     Delta-E=       -0.001094324382 Rises=F Damp=F
 DIIS: error= 3.11D-03 at cycle   4 NSaved=   4.
 NSaved= 4 IEnMin= 4 EnMin= -114.356148942273     IErMin= 4 ErrMin= 3.11D-03
 ErrMax= 3.11D-03  0.00D+00 EMaxC= 1.00D-01 BMatC= 4.81D-04 BMatP= 2.62D-03
 IDIUse=3 WtCom= 9.69D-01 WtEn= 3.11D-02
 Coeff-Com:  0.561D-02-0.114D+00-0.133D+00 0.124D+01
 Coeff-En:   0.000D+00 0.000D+00 0.000D+00 0.100D+01
 Coeff:      0.543D-02-0.111D+00-0.129D+00 0.123D+01
 Gap=     0.587 Goal=   None    Shift=    0.000
 Gap=     0.551 Goal=   None    Shift=    0.000
 RMSDP=7.02D-04 MaxDP=3.03D-02 DE=-1.09D-03 OVMax= 2.23D-02

 Cycle   5  Pass 1  IDiag  1:
 E= -114.356698408218     Delta-E=       -0.000549465945 Rises=F Damp=F
 DIIS: error= 1.39D-03 at cycle   5 NSaved=   5.
 NSaved= 5 IEnMin= 5 EnMin= -114.356698408218     IErMin= 5 ErrMin= 1.39D-03
 ErrMax= 1.39D-03  0.00D+00 EMaxC= 1.00D-01 BMatC= 1.83D-04 BMatP= 4.81D-04
 IDIUse=3 WtCom= 9.86D-01 WtEn= 1.39D-02
 Coeff-Com:  0.494D-02-0.441D-01-0.190D+00 0.123D+00 0.111D+01
 Coeff-En:   0.000D+00 0.000D+00 0.000D+00 0.000D+00 0.100D+01
 Coeff:      0.487D-02-0.435D-01-0.188D+00 0.121D+00 0.111D+01
 Gap=     0.590 Goal=   None    Shift=    0.000
 Gap=     0.552 Goal=   None    Shift=    0.000
 RMSDP=3.29D-04 MaxDP=1.06D-02 DE=-5.49D-04 OVMax= 1.27D-02

 Cycle   6  Pass 1  IDiag  1:
 E= -114.356926876796     Delta-E=       -0.000228468577 Rises=F Damp=F
 DIIS: error= 8.16D-04 at cycle   6 NSaved=   6.
 NSaved= 6 IEnMin= 6 EnMin= -114.356926876796     IErMin= 6 ErrMin= 8.16D-04
 ErrMax= 8.16D-04  0.00D+00 EMaxC= 1.00D-01 BMatC= 6.60D-05 BMatP= 1.83D-04
 IDIUse=3 WtCom= 9.92D-01 WtEn= 8.16D-03
 Coeff-Com: -0.599D-02 0.864D-01 0.201D+00-0.544D+00-0.833D+00 0.210D+01
 Coeff-En:   0.000D+00 0.000D+00 0.000D+00 0.000D+00 0.000D+00 0.100D+01
 Coeff:     -0.594D-02 0.857D-01 0.199D+00-0.539D+00-0.826D+00 0.209D+01
 Gap=     0.591 Goal=   None    Shift=    0.000
 Gap=     0.553 Goal=   None    Shift=    0.000
 RMSDP=2.44D-04 MaxDP=1.09D-02 DE=-2.28D-04 OVMax= 1.34D-02

 Cycle   7  Pass 1  IDiag  1:
 E= -114.357068659444     Delta-E=       -0.000141782648 Rises=F Damp=F
 DIIS: error= 4.05D-04 at cycle   7 NSaved=   7.
 NSaved= 7 IEnMin= 7 EnMin= -114.357068659444     IErMin= 7 ErrMin= 4.05D-04
 ErrMax= 4.05D-04  0.00D+00 EMaxC= 1.00D-01 BMatC= 1.36D-05 BMatP= 6.60D-05
 IDIUse=3 WtCom= 9.96D-01 WtEn= 4.05D-03
 Coeff-Com:  0.258D-02-0.433D-01-0.889D-01 0.305D+00 0.354D+00-0.145D+01
 Coeff-Com:  0.192D+01
 Coeff-En:   0.000D+00 0.000D+00 0.000D+00 0.000D+00 0.000D+00 0.000D+00
 Coeff-En:   0.100D+01
 Coeff:      0.257D-02-0.431D-01-0.885D-01 0.304D+00 0.352D+00-0.145D+01
 Coeff:      0.192D+01
 Gap=     0.591 Goal=   None    Shift=    0.000
 Gap=     0.554 Goal=   None    Shift=    0.000
 RMSDP=1.13D-04 MaxDP=4.17D-03 DE=-1.42D-04 OVMax= 7.12D-03

 Cycle   8  Pass 1  IDiag  1:
 E= -114.357099181076     Delta-E=       -0.000030521633 Rises=F Damp=F
 DIIS: error= 1.70D-04 at cycle   8 NSaved=   8.
 NSaved= 8 IEnMin= 8 EnMin= -114.357099181076     IErMin= 8 ErrMin= 1.70D-04
 ErrMax= 1.70D-04  0.00D+00 EMaxC= 1.00D-01 BMatC= 2.72D-06 BMatP= 1.36D-05
 IDIUse=3 WtCom= 9.98D-01 WtEn= 1.70D-03
 Coeff-Com: -0.556D-03 0.113D-01 0.304D-01-0.115D+00-0.524D-01 0.569D+00
 Coeff-Com: -0.140D+01 0.196D+01
 Coeff-En:   0.000D+00 0.000D+00 0.000D+00 0.000D+00 0.000D+00 0.000D+00
 Coeff-En:   0.000D+00 0.100D+01
 Coeff:     -0.555D-03 0.113D-01 0.304D-01-0.115D+00-0.523D-01 0.568D+00
 Coeff:     -0.140D+01 0.196D+01
 Gap=     0.592 Goal=   None    Shift=    0.000
 Gap=     0.554 Goal=   None    Shift=    0.000
 RMSDP=4.88D-05 MaxDP=8.52D-04 DE=-3.05D-05 OVMax= 3.13D-03

 Cycle   9  Pass 1  IDiag  1:
 E= -114.357104565300     Delta-E=       -0.000005384224 Rises=F Damp=F
 DIIS: error= 6.50D-05 at cycle   9 NSaved=   9.
 NSaved= 9 IEnMin= 9 EnMin= -114.357104565300     IErMin= 9 ErrMin= 6.50D-05
 ErrMax= 6.50D-05  0.00D+00 EMaxC= 1.00D-01 BMatC= 2.75D-07 BMatP= 2.72D-06
 IDIUse=1 WtCom= 1.00D+00 WtEn= 0.00D+00
 Coeff-Com: -0.175D-04-0.240D-03-0.491D-02 0.206D-01-0.252D-01-0.976D-01
 Coeff-Com:  0.483D+00-0.105D+01 0.167D+01
 Coeff:     -0.175D-04-0.240D-03-0.491D-02 0.206D-01-0.252D-01-0.976D-01
 Coeff:      0.483D+00-0.105D+01 0.167D+01
 Gap=     0.592 Goal=   None    Shift=    0.000
 Gap=     0.554 Goal=   None    Shift=    0.000
 RMSDP=1.43D-05 MaxDP=3.99D-04 DE=-5.38D-06 OVMax= 8.62D-04

 Cycle  10  Pass 1  IDiag  1:
 E= -114.357105045796     Delta-E=       -0.000000480496 Rises=F Damp=F
 DIIS: error= 1.87D-05 at cycle  10 NSaved=  10.
 NSaved=10 IEnMin=10 EnMin= -114.357105045796     IErMin=10 ErrMin= 1.87D-05
 ErrMax= 1.87D-05  0.00D+00 EMaxC= 1.00D-01 BMatC= 2.67D-08 BMatP= 2.75D-07
 IDIUse=1 WtCom= 1.00D+00 WtEn= 0.00D+00
 Coeff-Com:  0.547D-04-0.969D-03-0.115D-02 0.282D-02 0.165D-01-0.162D-01
 Coeff-Com: -0.604D-01 0.233D+00-0.698D+00 0.152D+01
 Coeff:      0.547D-04-0.969D-03-0.115D-02 0.282D-02 0.165D-01-0.162D-01
 Coeff:     -0.604D-01 0.233D+00-0.698D+00 0.152D+01
 Gap=     0.592 Goal=   None    Shift=    0.000
 Gap=     0.554 Goal=   None    Shift=    0.000
 RMSDP=4.01D-06 MaxDP=6.79D-05 DE=-4.80D-07 OVMax= 2.34D-04

 Cycle  11  Pass 1  IDiag  1:
 E= -114.357105085561     Delta-E=       -0.000000039765 Rises=F Damp=F
 DIIS: error= 5.83D-06 at cycle  11 NSaved=  11.
 NSaved=11 IEnMin=11 EnMin= -114.357105085561     IErMin=11 ErrMin= 5.83D-06
 ErrMax= 5.83D-06  0.00D+00 EMaxC= 1.00D-01 BMatC= 3.53D-09 BMatP= 2.67D-08
 IDIUse=1 WtCom= 1.00D+00 WtEn= 0.00D+00
 Coeff-Com: -0.345D-04 0.650D-03 0.168D-02-0.493D-02-0.766D-02 0.248D-01
 Coeff-Com: -0.332D-01 0.825D-02 0.183D+00-0.890D+00 0.172D+01
 Coeff:     -0.345D-04 0.650D-03 0.168D-02-0.493D-02-0.766D-02 0.248D-01
 Coeff:     -0.332D-01 0.825D-02 0.183D+00-0.890D+00 0.172D+01
 Gap=     0.592 Goal=   None    Shift=    0.000
 Gap=     0.554 Goal=   None    Shift=    0.000
 RMSDP=1.66D-06 MaxDP=2.66D-05 DE=-3.98D-08 OVMax= 8.51D-05

 Cycle  12  Pass 1  IDiag  1:
 E= -114.357105090617     Delta-E=       -0.000000005056 Rises=F Damp=F
 DIIS: error= 1.54D-06 at cycle  12 NSaved=  12.
 NSaved=12 IEnMin=12 EnMin= -114.357105090617     IErMin=12 ErrMin= 1.54D-06
 ErrMax= 1.54D-06  0.00D+00 EMaxC= 1.00D-01 BMatC= 2.09D-10 BMatP= 3.53D-09
 IDIUse=1 WtCom= 1.00D+00 WtEn= 0.00D+00
 Coeff-Com:  0.109D-04-0.194D-03-0.610D-03 0.162D-02 0.229D-02-0.920D-02
 Coeff-Com:  0.177D-01-0.206D-01-0.216D-01 0.254D+00-0.740D+00 0.152D+01
 Coeff:      0.109D-04-0.194D-03-0.610D-03 0.162D-02 0.229D-02-0.920D-02
 Coeff:      0.177D-01-0.206D-01-0.216D-01 0.254D+00-0.740D+00 0.152D+01
 Gap=     0.592 Goal=   None    Shift=    0.000
 Gap=     0.554 Goal=   None    Shift=    0.000
 RMSDP=3.08D-07 MaxDP=5.84D-06 DE=-5.06D-09 OVMax= 2.31D-05

 Cycle  13  Pass 1  IDiag  1:
 E= -114.357105090872     Delta-E=       -0.000000000255 Rises=F Damp=F
 DIIS: error= 4.63D-07 at cycle  13 NSaved=  13.
 NSaved=13 IEnMin=13 EnMin= -114.357105090872     IErMin=13 ErrMin= 4.63D-07
 ErrMax= 4.63D-07  0.00D+00 EMaxC= 1.00D-01 BMatC= 1.48D-11 BMatP= 2.09D-10
 IDIUse=1 WtCom= 1.00D+00 WtEn= 0.00D+00
 Coeff-Com: -0.201D-05 0.281D-04 0.129D-03-0.339D-03-0.583D-04 0.142D-02
 Coeff-Com: -0.413D-02 0.708D-02-0.482D-02-0.341D-01 0.161D+00-0.547D+00
 Coeff-Com:  0.142D+01
 Coeff:     -0.201D-05 0.281D-04 0.129D-03-0.339D-03-0.583D-04 0.142D-02
 Coeff:     -0.413D-02 0.708D-02-0.482D-02-0.341D-01 0.161D+00-0.547D+00
 Coeff:      0.142D+01
 Gap=     0.592 Goal=   None    Shift=    0.000
 Gap=     0.554 Goal=   None    Shift=    0.000
 RMSDP=1.02D-07 MaxDP=2.35D-06 DE=-2.55D-10 OVMax= 2.30D-06

 Cycle  14  Pass 1  IDiag  1:
 E= -114.357105090884     Delta-E=       -0.000000000012 Rises=F Damp=F
 DIIS: error= 8.03D-08 at cycle  14 NSaved=  14.
 NSaved=14 IEnMin=14 EnMin= -114.357105090884     IErMin=14 ErrMin= 8.03D-08
 ErrMax= 8.03D-08  0.00D+00 EMaxC= 1.00D-01 BMatC= 1.07D-12 BMatP= 1.48D-11
 IDIUse=1 WtCom= 1.00D+00 WtEn= 0.00D+00
 Coeff-Com:  0.140D-06 0.135D-05-0.132D-04 0.182D-04-0.121D-03 0.431D-04
 Coeff-Com:  0.442D-03-0.128D-02 0.285D-02-0.144D-02-0.200D-01 0.132D+00
 Coeff-Com: -0.652D+00 0.154D+01
 Coeff:      0.140D-06 0.135D-05-0.132D-04 0.182D-04-0.121D-03 0.431D-04
 Coeff:      0.442D-03-0.128D-02 0.285D-02-0.144D-02-0.200D-01 0.132D+00
 Coeff:     -0.652D+00 0.154D+01
 Gap=     0.592 Goal=   None    Shift=    0.000
 Gap=     0.554 Goal=   None    Shift=    0.000
 RMSDP=2.97D-08 MaxDP=7.51D-07 DE=-1.20D-11 OVMax= 9.77D-07

 Cycle  15  Pass 1  IDiag  1:
 E= -114.357105090885     Delta-E=       -0.000000000001 Rises=F Damp=F
 DIIS: error= 2.11D-08 at cycle  15 NSaved=  15.
 NSaved=15 IEnMin=15 EnMin= -114.357105090885     IErMin=15 ErrMin= 2.11D-08
 ErrMax= 2.11D-08  0.00D+00 EMaxC= 1.00D-01 BMatC= 8.22D-14 BMatP= 1.07D-12
 IDIUse=1 WtCom= 1.00D+00 WtEn= 0.00D+00
 Coeff-Com: -0.329D-07-0.104D-05 0.438D-05-0.132D-05 0.573D-04-0.659D-04
 Coeff-Com: -0.266D-04 0.211D-03-0.913D-03 0.165D-02 0.311D-02-0.390D-01
 Coeff-Com:  0.247D+00-0.797D+00 0.158D+01
 Coeff:     -0.329D-07-0.104D-05 0.438D-05-0.132D-05 0.573D-04-0.659D-04
 Coeff:     -0.266D-04 0.211D-03-0.913D-03 0.165D-02 0.311D-02-0.390D-01
 Coeff:      0.247D+00-0.797D+00 0.158D+01
 Gap=     0.592 Goal=   None    Shift=    0.000
 Gap=     0.554 Goal=   None    Shift=    0.000
 RMSDP=8.96D-09 MaxDP=2.31D-07 DE=-1.05D-12 OVMax= 1.75D-07

 SCF Done:  E(UHF) =  -114.357105091     A.U. after   15 cycles
            NFock= 15  Conv=0.90D-08     -V/T= 2.0014
 <Sx>= 0.0000 <Sy>= 0.0000 <Sz>= 0.5000 <S**2>= 0.7677 S= 0.5088
 <L.S>= 0.000000000000E+00
 KE= 1.141968967143D+02 PE=-3.666133509212D+02 EE= 8.486921219393D+01
 Annihilation of the first spin contaminant:
 S**2 before annihilation     0.7677,   after     0.7502
 Leave Link  502 at Tue Oct 10 02:31:32 2017, MaxMem=    33554432 cpu:         6.5
 (Enter /usr/local/gaussian/2009-E.01/g09/l801.exe)
 Windowed orbitals will be sorted by symmetry type.
 ExpMin= 3.60D-02 ExpMax= 4.56D+03 ExpMxC= 6.82D+02 IAcc=3 IRadAn=         5 AccDes= 0.00D+00
 HarFok:  IExCor=  205 AccDes= 0.00D+00 IRadAn=         5 IDoV=-2 UseB2=F ITyADJ=14
 ICtDFT= 12500011 ScaDFX=  1.000000  1.000000  1.000000  1.000000
 Largest valence mixing into a core orbital is  1.23D-04
 Largest core mixing into a valence orbital is  3.50D-05
 Largest valence mixing into a core orbital is  1.41D-04
 Largest core mixing into a valence orbital is  3.63D-05
 Range of M.O.s used for correlation:     4    80
 NBasis=    80 NAE=    10 NBE=     9 NFC=     3 NFV=     0
 NROrb=     77 NOA=     7 NOB=     6 NVA=    70 NVB=    71

 **** Warning!!: The largest alpha MO coefficient is  0.59368507D+02


 **** Warning!!: The largest beta MO coefficient is  0.59710789D+02

 Leave Link  801 at Tue Oct 10 02:31:32 2017, MaxMem=    33554432 cpu:         0.5
 (Enter /usr/local/gaussian/2009-E.01/g09/l804.exe)
 Open-shell transformation, MDV=    33554432 ITran=4 ISComp=2.
 Semi-Direct transformation.
 ModeAB=           4 MOrb=             7 LenV=      33264024
 LASXX=       398135 LTotXX=      398135 LenRXX=      819388
 LTotAB=      421253 MaxLAS=     1088241 LenRXY=           0
 NonZer=     1217523 LenScr=     2433024 LnRSAI=     1088241
 LnScr1=     2357760 LExtra=           0 Total=      6698413
 MaxDsk=          -1 SrtSym=           T ITran=            4
 DoSDTr:  NPSUse=  8
 JobTyp=1 Pass  1:  I=   1 to   7.
 (rs|ai) integrals will be sorted in core.
 Complete sort for first half transformation.
 First half transformation complete.
 Complete sort for second half transformation.
 Second half transformation complete.
 ModeAB=           4 MOrb=             6 LenV=      33264024
 LASXX=       342968 LTotXX=      342968 LenRXX=      640500
 LTotAB=      297532 MaxLAS=      932778 LenRXY=           0
 NonZer=      983468 LenScr=     2211840 LnRSAI=      932778
 LnScr1=     2098176 LExtra=           0 Total=      5883294
 MaxDsk=          -1 SrtSym=           T ITran=            4
 DoSDTr:  NPSUse=  8
 JobTyp=2 Pass  1:  I=   1 to   6.
 (rs|ai) integrals will be sorted in core.
 Complete sort for first half transformation.
 First half transformation complete.
 Complete sort for second half transformation.
 Second half transformation complete.
 Spin components of T(2) and E(2):
     alpha-alpha T2 =       0.1700664363D-01 E2=     -0.4675407899D-01
     alpha-beta  T2 =       0.9239890372D-01 E2=     -0.2557341692D+00
     beta-beta   T2 =       0.1489015447D-01 E2=     -0.3888049036D-01
 ANorm=    0.1060328110D+01
 E2 =    -0.3413687385D+00 EUMP2 =    -0.11469847382942D+03
 (S**2,0)=  0.76771D+00           (S**2,1)=  0.75828D+00
 E(PUHF)=      -0.11435991992D+03        E(PMP2)=      -0.11470054324D+03
 Leave Link  804 at Tue Oct 10 02:31:33 2017, MaxMem=    33554432 cpu:         4.8
 (Enter /usr/local/gaussian/2009-E.01/g09/l913.exe)
 CIDS:  MDV=    33554432.
 Frozen-core window:  NFC=   3 NFV=   0.
 IFCWin=0 IBDFC=1 NFBD=     0     0 NFCmp=     0     0 NFFFC=     0     0
 Using original routines for 1st iteration, S=T.
 Using DD4UQ or CC4UQ for 2nd and later iterations.
 Keep R2 and R3 ints in memory in symmetry-blocked form, NReq=6663555.
 FoFCou: FMM=F IPFlag=           0 FMFlag=           0 FMFlg1=           0
         NFxFlg=           0 DoJE=F BraDBF=F KetDBF=F FulRan=T
         wScrn=  0.000000 ICntrl=     600 IOpCl=  0 I1Cent=           0 NGrid=           0
         NMat0=    1 NMatS0=   3240 NMatT0=    0 NMatD0=    1 NMtDS0=    0 NMtDT0=    0
 Petite list used in FoFCou.
 CCSD(T)
 =======
 Iterations= 200 Convergence= 0.100D-06
 Iteration Nr.   1
 **********************
 DD1Dir will call FoFMem   1 times, MxPair=       120
 NAB=    42 NAA=    21 NBB=    15.
 E(PMP3)=      -0.11471831102D+03
 MP4(R+Q)=  0.91058227D-02
 Maximum subspace dimension=  5
 Norm of the A-vectors is  4.2244134D-01 conv= 1.00D-05.
 RLE energy=       -0.3509228049
 E3=       -0.18434343D-01        EUMP3=      -0.11471690817D+03
 E4(DQ)=    0.46757267D-03        UMP4(DQ)=   -0.11471644060D+03
 E4(SDQ)=  -0.37446618D-02        UMP4(SDQ)=  -0.11472065283D+03
 VARIATIONAL ENERGIES WITH THE FIRST-ORDER WAVEFUNCTION:
 DE(Corr)= -0.35066269     E(Corr)=     -114.70776778    
 NORM(A)=   0.10655431D+01
 Iteration Nr.   2
 **********************
 DD1Dir will call FoFMem   1 times, MxPair=       120
 NAB=    42 NAA=    21 NBB=    15.
 Norm of the A-vectors is  1.5522550D-01 conv= 1.00D-05.
 RLE energy=       -0.3635423543
 DE(Corr)= -0.36144729     E(CORR)=     -114.71855238     Delta=-1.08D-02
 NORM(A)=   0.10724093D+01
 Iteration Nr.   3
 **********************
 DD1Dir will call FoFMem   1 times, MxPair=       120
 NAB=    42 NAA=    21 NBB=    15.
 Norm of the A-vectors is  4.9069697D-02 conv= 1.00D-05.
 RLE energy=       -0.3643697770
 DE(Corr)= -0.36321674     E(CORR)=     -114.72032183     Delta=-1.77D-03
 NORM(A)=   0.10748533D+01
 Iteration Nr.   4
 **********************
 DD1Dir will call FoFMem   1 times, MxPair=       120
 NAB=    42 NAA=    21 NBB=    15.
 Norm of the A-vectors is  2.2234013D-02 conv= 1.00D-05.
 RLE energy=       -0.3648294073
 DE(Corr)= -0.36451979     E(CORR)=     -114.72162488     Delta=-1.30D-03
 NORM(A)=   0.10762909D+01
 Iteration Nr.   5
 **********************
 DD1Dir will call FoFMem   1 times, MxPair=       120
 NAB=    42 NAA=    21 NBB=    15.
 Norm of the A-vectors is  8.5899819D-03 conv= 1.00D-05.
 RLE energy=       -0.3648898981
 DE(Corr)= -0.36480599     E(CORR)=     -114.72191109     Delta=-2.86D-04
 NORM(A)=   0.10767584D+01
 Iteration Nr.   6
 **********************
 DD1Dir will call FoFMem   1 times, MxPair=       120
 NAB=    42 NAA=    21 NBB=    15.
 Norm of the A-vectors is  3.9733161D-03 conv= 1.00D-05.
 RLE energy=       -0.3648250287
 DE(Corr)= -0.36486008     E(CORR)=     -114.72196517     Delta=-5.41D-05
 NORM(A)=   0.10767820D+01
 Iteration Nr.   7
 **********************
 DD1Dir will call FoFMem   1 times, MxPair=       120
 NAB=    42 NAA=    21 NBB=    15.
 Norm of the A-vectors is  1.4329792D-03 conv= 1.00D-05.
 RLE energy=       -0.3648673184
 DE(Corr)= -0.36486031     E(CORR)=     -114.72196540     Delta=-2.31D-07
 NORM(A)=   0.10768167D+01
 Iteration Nr.   8
 **********************
 DD1Dir will call FoFMem   1 times, MxPair=       120
 NAB=    42 NAA=    21 NBB=    15.
 Norm of the A-vectors is  5.5921234D-04 conv= 1.00D-05.
 RLE energy=       -0.3648568624
 DE(Corr)= -0.36485889     E(CORR)=     -114.72196398     Delta= 1.42D-06
 NORM(A)=   0.10768174D+01
 Iteration Nr.   9
 **********************
 DD1Dir will call FoFMem   1 times, MxPair=       120
 NAB=    42 NAA=    21 NBB=    15.
 Norm of the A-vectors is  2.6355043D-04 conv= 1.00D-05.
 RLE energy=       -0.3648632919
 DE(Corr)= -0.36486164     E(CORR)=     -114.72196673     Delta=-2.75D-06
 NORM(A)=   0.10768208D+01
 Iteration Nr.  10
 **********************
 DD1Dir will call FoFMem   1 times, MxPair=       120
 NAB=    42 NAA=    21 NBB=    15.
 Norm of the A-vectors is  1.1128380D-04 conv= 1.00D-05.
 RLE energy=       -0.3648611677
 DE(Corr)= -0.36486118     E(CORR)=     -114.72196627     Delta= 4.57D-07
 NORM(A)=   0.10768209D+01
 Iteration Nr.  11
 **********************
 DD1Dir will call FoFMem   1 times, MxPair=       120
 NAB=    42 NAA=    21 NBB=    15.
 Norm of the A-vectors is  5.6825383D-05 conv= 1.00D-05.
 RLE energy=       -0.3648616052
 DE(Corr)= -0.36486165     E(CORR)=     -114.72196674     Delta=-4.68D-07
 NORM(A)=   0.10768215D+01
 Iteration Nr.  12
 **********************
 DD1Dir will call FoFMem   1 times, MxPair=       120
 NAB=    42 NAA=    21 NBB=    15.
 Norm of the A-vectors is  2.1872782D-05 conv= 1.00D-05.
 RLE energy=       -0.3648616910
 DE(Corr)= -0.36486159     E(CORR)=     -114.72196668     Delta= 6.47D-08
 NORM(A)=   0.10768221D+01
 Iteration Nr.  13
 **********************
 DD1Dir will call FoFMem   1 times, MxPair=       120
 NAB=    42 NAA=    21 NBB=    15.
 Norm of the A-vectors is  1.0975337D-05 conv= 1.00D-05.
 RLE energy=       -0.3648616809
 DE(Corr)= -0.36486168     E(CORR)=     -114.72196677     Delta=-9.37D-08
 NORM(A)=   0.10768224D+01
 Iteration Nr.  14
 **********************
 DD1Dir will call FoFMem   1 times, MxPair=       120
 NAB=    42 NAA=    21 NBB=    15.
 Norm of the A-vectors is  5.1061810D-06 conv= 1.00D-05.
 RLE energy=       -0.3648617954
 DE(Corr)= -0.36486174     E(CORR)=     -114.72196683     Delta=-6.36D-08
 NORM(A)=   0.10768226D+01
 CI/CC converged in   14 iterations to DelEn=-6.36D-08 Conv= 1.00D-07 ErrA1= 5.11D-06 Conv= 1.00D-05
 Largest amplitude= 7.22D-02
 Time for triples=       72.02 seconds.
 T4(CCSD)= -0.18914464D-01
 T5(CCSD)=  0.67649447D-03
 CCSD(T)= -0.11474020480D+03

 S**2, projected HF & approx projected MPn energies after annihilation of
 unwanted spin states (see manual for definitions):

 spins       (S**2,0) (S**2,1)    PUHF        PMP2        PMP3        PMP4
 annihilated
 s+1         0.74990  0.75005 -114.359920 -114.700543 -114.718311
 s+1,s+2     0.75000  0.75000 -114.359904 -114.700530 -114.718300
 s+1 to s+3  0.75000  0.75000 -114.359904 -114.700530 -114.718300
 s+1 to s+4  0.75000  0.75000 -114.359904 -114.700530 -114.718300
 s+1 to s+5  0.75000  0.75000 -114.359904
 s+1 to s+6  0.75000  0.75000 -114.359904

 Discarding MO integrals.
 Leave Link  913 at Tue Oct 10 02:32:03 2017, MaxMem=    33554432 cpu:       220.7
 (Enter /usr/local/gaussian/2009-E.01/g09/l601.exe)
 Copying SCF densities to generalized density rwf, IOpCl= 1 IROHF=0.

 **********************************************************************

            Population analysis using the SCF density.

 **********************************************************************

 Orbital symmetries:
 Alpha Orbitals:
       Occupied  (A1) (A1) (B2) (A1) (B2) (A1) (A1) (B2) (B1) (A1)
       Virtual   (B1) (A2) (A1) (B2) (A1) (B1) (B2) (A1) (A1) (B2)
                 (A2) (B1) (A1) (B2) (B2) (A1) (A1) (B2) (B2) (A1)
                 (B2) (A1) (A1) (B1) (B2) (A1) (A2) (B1) (B2) (A1)
                 (B2) (B2) (A1) (A1) (B2) (B1) (A2) (A1) (B1) (A1)
                 (B2) (A2) (B1) (A1) (A1) (A2) (B2) (B2) (A1) (B1)
                 (B2) (A1) (A2) (B2) (A1) (B2) (B1) (A1) (A2) (B1)
                 (B2) (A1) (B2) (A1) (A1) (B2) (B2) (A1) (B2) (A1)
 Beta  Orbitals:
       Occupied  (A1) (B2) (A1) (A1) (B2) (A1) (A1) (B2) (B1)
       Virtual   (A1) (A2) (B1) (A1) (B2) (A1) (B1) (B2) (A1) (A1)
                 (A2) (B2) (B1) (A1) (B2) (B2) (A1) (A1) (B2) (B2)
                 (A1) (B2) (A1) (B1) (B2) (A1) (A1) (A2) (B1) (B2)
                 (B2) (A1) (B2) (A1) (A1) (B2) (B1) (A2) (A1) (B1)
                 (A1) (B2) (A2) (B1) (A1) (A1) (B2) (A2) (B2) (A1)
                 (B1) (B2) (A1) (A2) (B2) (A1) (B2) (B1) (A1) (A2)
                 (B1) (B2) (A1) (B2) (A1) (A1) (B2) (B2) (A1) (B2)
                 (A1)
 The electronic state is 2-A1.
 Alpha  occ. eigenvalues --  -11.62148 -11.59656 -11.59534  -1.54505  -1.09161
 Alpha  occ. eigenvalues --   -1.06776  -0.95233  -0.83114  -0.78878  -0.73654
 Alpha virt. eigenvalues --   -0.14496  -0.14473  -0.09853  -0.08338  -0.07026
 Alpha virt. eigenvalues --   -0.05407  -0.02935  -0.02839  -0.01375   0.01342
 Alpha virt. eigenvalues --    0.01529   0.01791   0.02893   0.03372   0.07021
 Alpha virt. eigenvalues --    0.07765   0.09601   0.11583   0.15865   0.23776
 Alpha virt. eigenvalues --    0.28447   0.33027   0.42228   0.42381   0.43470
 Alpha virt. eigenvalues --    0.50594   0.52404   0.52809   0.61275   0.63631
 Alpha virt. eigenvalues --    0.64714   0.76143   0.76169   0.80306   0.85459
 Alpha virt. eigenvalues --    0.95458   1.05425   1.11951   1.13425   1.30268
 Alpha virt. eigenvalues --    1.42207   1.51731   1.60397   1.63617   1.75787
 Alpha virt. eigenvalues --    1.78565   1.79495   1.85046   1.97124   2.12404
 Alpha virt. eigenvalues --    2.12838   2.24905   2.28081   2.50387   2.59271
 Alpha virt. eigenvalues --    2.67640   2.77179   2.89176   2.96004   2.96126
 Alpha virt. eigenvalues --    3.01604   3.01746   3.23464   3.36183   3.56669
 Alpha virt. eigenvalues --    3.82753   4.06748  24.25279  25.10841  25.19407
  Beta  occ. eigenvalues --  -11.59531 -11.59396 -11.58812  -1.52485  -1.08143
  Beta  occ. eigenvalues --   -1.03712  -0.84351  -0.80980  -0.77732
  Beta virt. eigenvalues --   -0.22320  -0.15311  -0.10120  -0.09572  -0.08280
  Beta virt. eigenvalues --   -0.06296  -0.05393  -0.02859  -0.02449  -0.00199
  Beta virt. eigenvalues --    0.01341   0.02378   0.02949   0.03066   0.03489
  Beta virt. eigenvalues --    0.07069   0.08720   0.09880   0.14209   0.17441
  Beta virt. eigenvalues --    0.25050   0.29756   0.33748   0.42619   0.43996
  Beta virt. eigenvalues --    0.45783   0.51014   0.52037   0.54629   0.63026
  Beta virt. eigenvalues --    0.64905   0.71189   0.77679   0.77996   0.82308
  Beta virt. eigenvalues --    0.85730   0.96611   1.06438   1.14074   1.16616
  Beta virt. eigenvalues --    1.31351   1.43459   1.52390   1.62149   1.65339
  Beta virt. eigenvalues --    1.78048   1.80095   1.80198   1.86418   2.02151
  Beta virt. eigenvalues --    2.15199   2.15823   2.25957   2.28197   2.51678
  Beta virt. eigenvalues --    2.59428   2.67898   2.77527   2.89742   2.95839
  Beta virt. eigenvalues --    2.97751   3.02266   3.02964   3.24204   3.42748
  Beta virt. eigenvalues --    3.57057   3.84218   4.06829  24.26584  25.10955
  Beta virt. eigenvalues --   25.20790
          Condensed to atoms (all electrons):
               1          2          3          4          5
     1  C    4.859509   0.425615   0.331333   0.348897   0.009858
     2  C    0.425615   4.832347   0.425615  -0.004650  -0.004650
     3  C    0.331333   0.425615   4.859509   0.009858   0.348897
     4  H    0.348897  -0.004650   0.009858   0.331477   0.002066
     5  H    0.009858  -0.004650   0.348897   0.002066   0.331477
          Atomic-Atomic Spin Densities.
               1          2          3          4          5
     1  C    0.084089  -0.053422   0.049913   0.009196  -0.002364
     2  C   -0.053422   0.974084  -0.053422  -0.016567  -0.016567
     3  C    0.049913  -0.053422   0.084089  -0.002364   0.009196
     4  H    0.009196  -0.016567  -0.002364   0.004501   0.000769
     5  H   -0.002364  -0.016567   0.009196   0.000769   0.004501
 Mulliken charges and spin densities:
               1          2
     1  C    0.024788   0.087412
     2  C    0.325722   0.834106
     3  C    0.024788   0.087412
     4  H    0.312351  -0.004465
     5  H    0.312351  -0.004465
 Sum of Mulliken charges =   1.00000   1.00000
 Mulliken charges and spin densities with hydrogens summed into heavy atoms:
               1          2
     1  C    0.337139   0.082947
     2  C    0.325722   0.834106
     3  C    0.337139   0.082947
 Electronic spatial extent (au):  <R**2>=             91.1807
 Charge=              1.0000 electrons
 Dipole moment (field-independent basis, Debye):
    X=             -0.0000    Y=              0.0000    Z=             -1.2000  Tot=              1.2000
 Quadrupole moment (field-independent basis, Debye-Ang):
   XX=            -15.1334   YY=             -8.4589   ZZ=            -12.1578
   XY=              0.0000   XZ=              0.0000   YZ=             -0.0000
 Traceless Quadrupole moment (field-independent basis, Debye-Ang):
   XX=             -3.2168   YY=              3.4578   ZZ=             -0.2411
   XY=              0.0000   XZ=              0.0000   YZ=             -0.0000
 Octapole moment (field-independent basis, Debye-Ang**2):
  XXX=              0.0000  YYY=              0.0000  ZZZ=             -1.4173  XYY=             -0.0000
  XXY=              0.0000  XXZ=             -0.3826  XZZ=              0.0000  YZZ=              0.0000
  YYZ=             -7.7453  XYZ=             -0.0000
 Hexadecapole moment (field-independent basis, Debye-Ang**3):
 XXXX=            -14.3500 YYYY=            -38.4273 ZZZZ=            -42.9033 XXXY=             -0.0000
 XXXZ=             -0.0000 YYYX=             -0.0000 YYYZ=             -0.0000 ZZZX=             -0.0000
 ZZZY=             -0.0000 XXYY=            -11.9576 XXZZ=             -9.7761 YYZZ=            -11.0122
 XXYZ=              0.0000 YYXZ=              0.0000 ZZXY=             -0.0000
 N-N= 5.319013692209D+01 E-N=-3.666133509668D+02  KE= 1.141968967143D+02
 Symmetry A1   KE= 7.444957418488D+01
 Symmetry A2   KE= 1.126911904531D-18
 Symmetry B1   KE= 2.087348980337D+00
 Symmetry B2   KE= 3.765997354907D+01
 Leave Link  601 at Tue Oct 10 02:32:03 2017, MaxMem=    33554432 cpu:         0.2
 (Enter /usr/local/gaussian/2009-E.01/g09/l9999.exe)
 1\1\ WCSS.PL-BEM-WN1424\SP\UCCSD(T)-FC\6-311++G(d,p)\C3H2(1+,2)\ROOT\1
 0-Oct-2017\0\\#p ccsd(t,maxcyc=200)/6-311++G(d,p)\\ccsd(t) iener\\1,2\
 C,0,0.13905501,0.59723841,-0.8231358\C,0,0.148705464,-0.749652932,-0.7
 09399393\C,0,-0.626546278,-0.050281065,0.149092957\H,0,0.431693818,1.5
 45635783,-1.259922966\H,0,-1.325171166,0.05973926,0.971100787\\Version
 =ES64L-G09RevE.01\State=2-A1\HF=-114.3571051\MP2=-114.6984738\MP3=-114
 .7169082\MP4D=-114.7255464\MP4DQ=-114.7164406\PUHF=-114.3599199\PMP2-0
 =-114.7005432\PMP3-0=-114.718311\MP4SDQ=-114.7206528\CCSD=-114.7219668
 \CCSD(T)=-114.7402048\S2=0.767712\S2-1=0.758276\S2A=0.750172\RMSD=8.95
 8e-09\PG=C02V [C2(C1),SGV(C2H2)]\\@


 "WHERE SHALL I START, PLEASE YOUR MAJESTY?" HE ASKED.
 "BEGIN AT THE BEGINNING," THE KING SAID GRAVELY,
 "AND GO ON TILL YOU COME TO THE END: THEN STOP." 

                                      -- LEWIS CARROLL
 Job cpu time:       0 days  0 hours  3 minutes 58.5 seconds.
 File lengths (MBytes):  RWF=     61 Int=      0 D2E=      0 Chk=      2 Scr=      1
 Normal termination of Gaussian 09 at Tue Oct 10 02:32:03 2017.
