 Entering Gaussian System, Link 0=/usr/local/gaussian/2009-E.01/g09/g09
 Initial command:
 /usr/local/gaussian/2009-E.01/g09/l1.exe "/lustre/scratch/eerd/4986703.achilles/Gau-175785.inp" -scrdir="/lustre/scratch/eerd/4986703.achilles/"
 Entering Link 1 = /usr/local/gaussian/2009-E.01/g09/l1.exe PID=    175787.
  
 Copyright (c) 1988,1990,1992,1993,1995,1998,2003,2009,2015,
            Gaussian, Inc.  All Rights Reserved.
  
 This is part of the Gaussian(R) 09 program.  It is based on
 the Gaussian(R) 03 system (copyright 2003, Gaussian, Inc.),
 the Gaussian(R) 98 system (copyright 1998, Gaussian, Inc.),
 the Gaussian(R) 94 system (copyright 1995, Gaussian, Inc.),
 the Gaussian 92(TM) system (copyright 1992, Gaussian, Inc.),
 the Gaussian 90(TM) system (copyright 1990, Gaussian, Inc.),
 the Gaussian 88(TM) system (copyright 1988, Gaussian, Inc.),
 the Gaussian 86(TM) system (copyright 1986, Carnegie Mellon
 University), and the Gaussian 82(TM) system (copyright 1983,
 Carnegie Mellon University). Gaussian is a federally registered
 trademark of Gaussian, Inc.
  
 This software contains proprietary and confidential information,
 including trade secrets, belonging to Gaussian, Inc.
  
 This software is provided under written license and may be
 used, copied, transmitted, or stored only in accord with that
 written license.
  
 The following legend is applicable only to US Government
 contracts under FAR:
  
                    RESTRICTED RIGHTS LEGEND
  
 Use, reproduction and disclosure by the US Government is
 subject to restrictions as set forth in subparagraphs (a)
 and (c) of the Commercial Computer Software - Restricted
 Rights clause in FAR 52.227-19.
  
 Gaussian, Inc.
 340 Quinnipiac St., Bldg. 40, Wallingford CT 06492
  
  
 ---------------------------------------------------------------
 Warning -- This program may not be used in any manner that
 competes with the business of Gaussian, Inc. or will provide
 assistance to any competitor of Gaussian, Inc.  The licensee
 of this program is prohibited from giving any competitor of
 Gaussian, Inc. access to this program.  By using this program,
 the user acknowledges that Gaussian, Inc. is engaged in the
 business of creating and licensing software in the field of
 computational chemistry and represents and warrants to the
 licensee that it is not a competitor of Gaussian, Inc. and that
 it will not use this program in any manner prohibited above.
 ---------------------------------------------------------------
  

 Cite this work as:
 Gaussian 09, Revision E.01,
 M. J. Frisch, G. W. Trucks, H. B. Schlegel, G. E. Scuseria, 
 M. A. Robb, J. R. Cheeseman, G. Scalmani, V. Barone, B. Mennucci, 
 G. A. Petersson, H. Nakatsuji, M. Caricato, X. Li, H. P. Hratchian, 
 A. F. Izmaylov, J. Bloino, G. Zheng, J. L. Sonnenberg, M. Hada, 
 M. Ehara, K. Toyota, R. Fukuda, J. Hasegawa, M. Ishida, T. Nakajima, 
 Y. Honda, O. Kitao, H. Nakai, T. Vreven, J. A. Montgomery, Jr., 
 J. E. Peralta, F. Ogliaro, M. Bearpark, J. J. Heyd, E. Brothers, 
 K. N. Kudin, V. N. Staroverov, T. Keith, R. Kobayashi, J. Normand, 
 K. Raghavachari, A. Rendell, J. C. Burant, S. S. Iyengar, J. Tomasi, 
 M. Cossi, N. Rega, J. M. Millam, M. Klene, J. E. Knox, J. B. Cross, 
 V. Bakken, C. Adamo, J. Jaramillo, R. Gomperts, R. E. Stratmann, 
 O. Yazyev, A. J. Austin, R. Cammi, C. Pomelli, J. W. Ochterski, 
 R. L. Martin, K. Morokuma, V. G. Zakrzewski, G. A. Voth, 
 P. Salvador, J. J. Dannenberg, S. Dapprich, A. D. Daniels, 
 O. Farkas, J. B. Foresman, J. V. Ortiz, J. Cioslowski, 
 and D. J. Fox, Gaussian, Inc., Wallingford CT, 2013.
 
 ******************************************
 Gaussian 09:  ES64L-G09RevE.01 30-Nov-2015
                10-Oct-2017 
 ******************************************
 %NProcShared=8
 Will use up to    8 processors via shared memory.
 -----------------------------------
 #p ccsd(t,maxcyc=200)/6-311++G(d,p)
 -----------------------------------
 1/38=1/1;
 2/12=2,17=6,18=5,40=1/2;
 3/5=4,6=6,7=1111,11=9,16=1,25=1,30=1/1,2,3;
 4//1;
 5/5=2,38=5/2;
 8/6=4,9=120000,10=2/1,4;
 9/5=7,6=200,14=2/13;
 6/7=2,8=2,9=2,10=2/1;
 99/5=1,9=1/99;
 Leave Link    1 at Tue Oct 10 02:26:48 2017, MaxMem=           0 cpu:         6.7
 (Enter /usr/local/gaussian/2009-E.01/g09/l101.exe)
 -------------
 ccsd(t) iener
 -------------
 Symbolic Z-matrix:
 Charge =  0 Multiplicity = 1
 C                    -0.8876    0.61484   0.78048 
 C                     0.5414   -0.06948  -1.28994 
 C                    -0.18397   0.27789  -0.23897 
 H                     0.08094  -0.42632  -2.20967 
 H                     1.62856  -0.01275  -1.2782 
 
 NAtoms=      5 NQM=        5 NQMF=       0 NMMI=      0 NMMIF=      0
                NMic=       0 NMicF=      0.
                    Isotopes and Nuclear Properties:
 (Nuclear quadrupole moments (NQMom) in fm**2, nuclear magnetic moments (NMagM)
  in nuclear magnetons)

  Atom         1           2           3           4           5
 IAtWgt=          12          12          12           1           1
 AtmWgt=  12.0000000  12.0000000  12.0000000   1.0078250   1.0078250
 NucSpn=           0           0           0           1           1
 AtZEff=   0.0000000   0.0000000   0.0000000   0.0000000   0.0000000
 NQMom=    0.0000000   0.0000000   0.0000000   0.0000000   0.0000000
 NMagM=    0.0000000   0.0000000   0.0000000   2.7928460   2.7928460
 AtZNuc=   6.0000000   6.0000000   6.0000000   1.0000000   1.0000000
 Leave Link  101 at Tue Oct 10 02:26:48 2017, MaxMem=    33554432 cpu:         0.8
 (Enter /usr/local/gaussian/2009-E.01/g09/l202.exe)
                          Input orientation:                          
 ---------------------------------------------------------------------
 Center     Atomic      Atomic             Coordinates (Angstroms)
 Number     Number       Type             X           Y           Z
 ---------------------------------------------------------------------
      1          6           0       -0.887598    0.614836    0.780482
      2          6           0        0.541400   -0.069477   -1.289937
      3          6           0       -0.183974    0.277888   -0.238971
      4          1           0        0.080936   -0.426316   -2.209672
      5          1           0        1.628560   -0.012747   -1.278198
 ---------------------------------------------------------------------
                    Distance matrix (angstroms):
                    1          2          3          4          5
     1  C    0.000000
     2  C    2.607097   0.000000
     3  C    1.283708   1.323389   0.000000
     4  H    3.311054   1.088702   2.109441   0.000000
     5  H    3.311054   1.088702   2.109441   1.853057   0.000000
 Stoichiometry    C3H2
 Framework group  C2V[C2(CCC),SGV(H2)]
 Deg. of freedom     4
 Full point group                 C2V     NOp   4
 Largest Abelian subgroup         C2V     NOp   4
 Largest concise Abelian subgroup C2      NOp   2
                         Standard orientation:                         
 ---------------------------------------------------------------------
 Center     Atomic      Atomic             Coordinates (Angstroms)
 Number     Number       Type             X           Y           Z
 ---------------------------------------------------------------------
      1          6           0        0.000000    0.000000    1.485119
      2          6           0       -0.000000   -0.000000   -1.121978
      3          6           0        0.000000    0.000000    0.201411
      4          1           0       -0.000000    0.926529   -1.693657
      5          1           0        0.000000   -0.926529   -1.693657
 ---------------------------------------------------------------------
 Rotational constants (GHZ):    292.0682890     10.6296040     10.2563325
 Leave Link  202 at Tue Oct 10 02:26:48 2017, MaxMem=    33554432 cpu:         1.1
 (Enter /usr/local/gaussian/2009-E.01/g09/l301.exe)
 Standard basis: 6-311++G(d,p) (5D, 7F)
 Ernie: Thresh=  0.10000D-02 Tol=  0.10000D-05 Strict=F.
 There are    42 symmetry adapted cartesian basis functions of A1  symmetry.
 There are     4 symmetry adapted cartesian basis functions of A2  symmetry.
 There are    16 symmetry adapted cartesian basis functions of B1  symmetry.
 There are    21 symmetry adapted cartesian basis functions of B2  symmetry.
 There are    39 symmetry adapted basis functions of A1  symmetry.
 There are     4 symmetry adapted basis functions of A2  symmetry.
 There are    16 symmetry adapted basis functions of B1  symmetry.
 There are    21 symmetry adapted basis functions of B2  symmetry.
    80 basis functions,   126 primitive gaussians,    83 cartesian basis functions
    10 alpha electrons       10 beta electrons
       nuclear repulsion energy        47.5889019693 Hartrees.
 IExCor=    0 DFT=F Ex=HF Corr=None ExCW=0 ScaHFX=  1.000000
 ScaDFX=  1.000000  1.000000  1.000000  1.000000 ScalE2=  1.000000  1.000000
 IRadAn=      0 IRanWt=     -1 IRanGd=            0 ICorTp=0 IEmpDi=  4
 NAtoms=    5 NActive=    5 NUniq=    4 SFac= 1.56D+00 NAtFMM=   60 NAOKFM=F Big=F
 Integral buffers will be    131072 words long.
 Raffenetti 1 integral format.
 Two-electron integral symmetry is turned on.
 Leave Link  301 at Tue Oct 10 02:26:49 2017, MaxMem=    33554432 cpu:         5.3
 (Enter /usr/local/gaussian/2009-E.01/g09/l302.exe)
 NPDir=0 NMtPBC=     1 NCelOv=     1 NCel=       1 NClECP=     1 NCelD=      1
         NCelK=      1 NCelE2=     1 NClLst=     1 CellRange=     0.0.
 One-electron integrals computed using PRISM.
 One-electron integral symmetry used in STVInt
 NBasis=    80 RedAO= T EigKep=  6.94D-06  NBF=    39     4    16    21
 NBsUse=    80 1.00D-06 EigRej= -1.00D+00 NBFU=    39     4    16    21
 Leave Link  302 at Tue Oct 10 02:26:49 2017, MaxMem=    33554432 cpu:         1.8
 (Enter /usr/local/gaussian/2009-E.01/g09/l303.exe)
 DipDrv:  MaxL=1.
 Leave Link  303 at Tue Oct 10 02:26:49 2017, MaxMem=    33554432 cpu:         0.4
 (Enter /usr/local/gaussian/2009-E.01/g09/l401.exe)
 ExpMin= 3.60D-02 ExpMax= 4.56D+03 ExpMxC= 6.82D+02 IAcc=3 IRadAn=         5 AccDes= 0.00D+00
 Harris functional with IExCor=  205 and IRadAn=       5 diagonalized for initial guess.
 HarFok:  IExCor=  205 AccDes= 0.00D+00 IRadAn=         5 IDoV= 1 UseB2=F ITyADJ=14
 ICtDFT=  3500011 ScaDFX=  1.000000  1.000000  1.000000  1.000000
 FoFCou: FMM=F IPFlag=           0 FMFlag=      100000 FMFlg1=           0
         NFxFlg=           0 DoJE=T BraDBF=F KetDBF=T FulRan=T
         wScrn=  0.000000 ICntrl=     500 IOpCl=  0 I1Cent=   200000004 NGrid=           0
         NMat0=    1 NMatS0=      1 NMatT0=    0 NMatD0=    1 NMtDS0=    0 NMtDT0=    0
 Petite list used in FoFCou.
 Harris En= -114.730596886518    
 JPrj=0 DoOrth=F DoCkMO=F.
 Initial guess orbital symmetries:
       Occupied  (A1) (A1) (A1) (A1) (A1) (A1) (B2) (B1) (A1) (B2)
       Virtual   (B1) (B2) (B1) (A1) (B2) (A1) (B1) (A1) (B2) (A1)
                 (B1) (A1) (A1) (B2) (B2) (B1) (A1) (A1) (A1) (B2)
                 (A1) (A1) (B1) (A1) (B2) (B1) (B2) (B2) (B1) (A1)
                 (B2) (A1) (A1) (A1) (A2) (A1) (B1) (A1) (A2) (B2)
                 (A1) (B2) (A2) (B1) (A1) (B2) (B1) (A1) (A2) (A1)
                 (A1) (B2) (B1) (A1) (B2) (B2) (B1) (A1) (A1) (B1)
                 (B2) (B1) (B2) (A1) (A1) (B2) (A1) (A1) (A1) (A1)
 The electronic state of the initial guess is 1-A1.
 Leave Link  401 at Tue Oct 10 02:26:50 2017, MaxMem=    33554432 cpu:         3.4
 (Enter /usr/local/gaussian/2009-E.01/g09/l502.exe)
 Closed shell SCF:
 Using DIIS extrapolation, IDIIS=  1040.
 Integral symmetry usage will be decided dynamically.
 Keep R1 ints in memory in symmetry-blocked form, NReq=6732682.
 IVT=       40673 IEndB=       40673 NGot=    33554432 MDV=    32072251
 LenX=    32072251 LenY=    32064921
 Requested convergence on RMS density matrix=1.00D-08 within 128 cycles.
 Requested convergence on MAX density matrix=1.00D-06.
 Requested convergence on             energy=1.00D-06.
 No special actions if energy rises.
 FoFCou: FMM=F IPFlag=           0 FMFlag=           0 FMFlg1=           0
         NFxFlg=           0 DoJE=F BraDBF=F KetDBF=F FulRan=T
         wScrn=  0.000000 ICntrl=     600 IOpCl=  0 I1Cent=           0 NGrid=           0
         NMat0=    1 NMatS0=   3240 NMatT0=    0 NMatD0=    1 NMtDS0=    0 NMtDT0=    0
 Petite list used in FoFCou.

 Cycle   1  Pass 1  IDiag  1:
 E= -114.502955644541    
 DIIS: error= 5.47D-02 at cycle   1 NSaved=   1.
 NSaved= 1 IEnMin= 1 EnMin= -114.502955644541     IErMin= 1 ErrMin= 5.47D-02
 ErrMax= 5.47D-02  0.00D+00 EMaxC= 1.00D-01 BMatC= 2.12D-01 BMatP= 2.12D-01
 IDIUse=3 WtCom= 4.53D-01 WtEn= 5.47D-01
 Coeff-Com:  0.100D+01
 Coeff-En:   0.100D+01
 Coeff:      0.100D+01
 Gap=     0.362 Goal=   None    Shift=    0.000
 GapD=    0.362 DampG=1.000 DampE=0.500 DampFc=0.5000 IDamp=-1.
 Damping current iteration by 5.00D-01
 RMSDP=3.98D-02 MaxDP=1.46D+00              OVMax= 1.57D-01

 Cycle   2  Pass 1  IDiag  1:
 E= -114.563357860327     Delta-E=       -0.060402215787 Rises=F Damp=T
 DIIS: error= 2.95D-02 at cycle   2 NSaved=   2.
 NSaved= 2 IEnMin= 2 EnMin= -114.563357860327     IErMin= 2 ErrMin= 2.95D-02
 ErrMax= 2.95D-02  0.00D+00 EMaxC= 1.00D-01 BMatC= 5.05D-02 BMatP= 2.12D-01
 IDIUse=3 WtCom= 7.05D-01 WtEn= 2.95D-01
 Coeff-Com: -0.823D+00 0.182D+01
 Coeff-En:   0.000D+00 0.100D+01
 Coeff:     -0.580D+00 0.158D+01
 Gap=     0.399 Goal=   None    Shift=    0.000
 RMSDP=6.79D-03 MaxDP=1.79D-01 DE=-6.04D-02 OVMax= 4.32D-02

 Cycle   3  Pass 1  IDiag  1:
 E= -114.620286141376     Delta-E=       -0.056928281049 Rises=F Damp=F
 DIIS: error= 5.00D-03 at cycle   3 NSaved=   3.
 NSaved= 3 IEnMin= 3 EnMin= -114.620286141376     IErMin= 3 ErrMin= 5.00D-03
 ErrMax= 5.00D-03  0.00D+00 EMaxC= 1.00D-01 BMatC= 5.87D-04 BMatP= 5.05D-02
 IDIUse=3 WtCom= 9.50D-01 WtEn= 5.00D-02
 Coeff-Com: -0.107D+00 0.186D+00 0.922D+00
 Coeff-En:   0.000D+00 0.000D+00 0.100D+01
 Coeff:     -0.102D+00 0.176D+00 0.926D+00
 Gap=     0.382 Goal=   None    Shift=    0.000
 RMSDP=1.09D-03 MaxDP=2.86D-02 DE=-5.69D-02 OVMax= 2.23D-02

 Cycle   4  Pass 1  IDiag  1:
 E= -114.621308616476     Delta-E=       -0.001022475100 Rises=F Damp=F
 DIIS: error= 1.56D-03 at cycle   4 NSaved=   4.
 NSaved= 4 IEnMin= 4 EnMin= -114.621308616476     IErMin= 4 ErrMin= 1.56D-03
 ErrMax= 1.56D-03  0.00D+00 EMaxC= 1.00D-01 BMatC= 1.27D-04 BMatP= 5.87D-04
 IDIUse=3 WtCom= 9.84D-01 WtEn= 1.56D-02
 Coeff-Com:  0.146D-01-0.423D-01 0.241D+00 0.787D+00
 Coeff-En:   0.000D+00 0.000D+00 0.000D+00 0.100D+01
 Coeff:      0.144D-01-0.416D-01 0.237D+00 0.790D+00
 Gap=     0.386 Goal=   None    Shift=    0.000
 RMSDP=7.23D-04 MaxDP=2.19D-02 DE=-1.02D-03 OVMax= 5.77D-03

 Cycle   5  Pass 1  IDiag  1:
 E= -114.621537074100     Delta-E=       -0.000228457624 Rises=F Damp=F
 DIIS: error= 1.26D-03 at cycle   5 NSaved=   5.
 NSaved= 5 IEnMin= 5 EnMin= -114.621537074100     IErMin= 5 ErrMin= 1.26D-03
 ErrMax= 1.26D-03  0.00D+00 EMaxC= 1.00D-01 BMatC= 1.92D-05 BMatP= 1.27D-04
 IDIUse=3 WtCom= 9.87D-01 WtEn= 1.26D-02
 Coeff-Com:  0.175D-01-0.288D-01-0.132D+00-0.337D+00 0.148D+01
 Coeff-En:   0.000D+00 0.000D+00 0.000D+00 0.000D+00 0.100D+01
 Coeff:      0.172D-01-0.284D-01-0.130D+00-0.333D+00 0.147D+01
 Gap=     0.388 Goal=   None    Shift=    0.000
 RMSDP=3.27D-04 MaxDP=5.81D-03 DE=-2.28D-04 OVMax= 9.72D-03

 Cycle   6  Pass 1  IDiag  1:
 E= -114.621651105460     Delta-E=       -0.000114031360 Rises=F Damp=F
 DIIS: error= 4.01D-04 at cycle   6 NSaved=   6.
 NSaved= 6 IEnMin= 6 EnMin= -114.621651105460     IErMin= 6 ErrMin= 4.01D-04
 ErrMax= 4.01D-04  0.00D+00 EMaxC= 1.00D-01 BMatC= 5.71D-06 BMatP= 1.92D-05
 IDIUse=3 WtCom= 9.96D-01 WtEn= 4.01D-03
 Coeff-Com:  0.263D-02-0.294D-02-0.391D-01-0.239D+00 0.317D+00 0.962D+00
 Coeff-En:   0.000D+00 0.000D+00 0.000D+00 0.000D+00 0.000D+00 0.100D+01
 Coeff:      0.262D-02-0.293D-02-0.389D-01-0.238D+00 0.315D+00 0.962D+00
 Gap=     0.389 Goal=   None    Shift=    0.000
 RMSDP=1.42D-04 MaxDP=3.04D-03 DE=-1.14D-04 OVMax= 2.99D-03

 Cycle   7  Pass 1  IDiag  1:
 E= -114.621672380048     Delta-E=       -0.000021274588 Rises=F Damp=F
 DIIS: error= 2.13D-04 at cycle   7 NSaved=   7.
 NSaved= 7 IEnMin= 7 EnMin= -114.621672380048     IErMin= 7 ErrMin= 2.13D-04
 ErrMax= 2.13D-04  0.00D+00 EMaxC= 1.00D-01 BMatC= 1.21D-06 BMatP= 5.71D-06
 IDIUse=3 WtCom= 9.98D-01 WtEn= 2.13D-03
 Coeff-Com: -0.532D-02 0.809D-02 0.711D-01 0.995D-01-0.527D+00-0.186D-01
 Coeff-Com:  0.137D+01
 Coeff-En:   0.000D+00 0.000D+00 0.000D+00 0.000D+00 0.000D+00 0.000D+00
 Coeff-En:   0.100D+01
 Coeff:     -0.531D-02 0.807D-02 0.709D-01 0.993D-01-0.526D+00-0.186D-01
 Coeff:      0.137D+01
 Gap=     0.390 Goal=   None    Shift=    0.000
 RMSDP=7.12D-05 MaxDP=1.39D-03 DE=-2.13D-05 OVMax= 2.41D-03

 Cycle   8  Pass 1  IDiag  1:
 E= -114.621677939466     Delta-E=       -0.000005559417 Rises=F Damp=F
 DIIS: error= 2.99D-05 at cycle   8 NSaved=   8.
 NSaved= 8 IEnMin= 8 EnMin= -114.621677939466     IErMin= 8 ErrMin= 2.99D-05
 ErrMax= 2.99D-05  0.00D+00 EMaxC= 1.00D-01 BMatC= 3.36D-08 BMatP= 1.21D-06
 IDIUse=1 WtCom= 1.00D+00 WtEn= 0.00D+00
 Coeff-Com:  0.112D-02-0.186D-02-0.124D-01-0.176D-01 0.108D+00-0.301D-01
 Coeff-Com: -0.389D+00 0.134D+01
 Coeff:      0.112D-02-0.186D-02-0.124D-01-0.176D-01 0.108D+00-0.301D-01
 Coeff:     -0.389D+00 0.134D+01
 Gap=     0.390 Goal=   None    Shift=    0.000
 RMSDP=3.20D-05 MaxDP=8.73D-04 DE=-5.56D-06 OVMax= 3.46D-04

 Cycle   9  Pass 1  IDiag  1:
 E= -114.621678081660     Delta-E=       -0.000000142195 Rises=F Damp=F
 DIIS: error= 4.99D-06 at cycle   9 NSaved=   9.
 NSaved= 9 IEnMin= 9 EnMin= -114.621678081660     IErMin= 9 ErrMin= 4.99D-06
 ErrMax= 4.99D-06  0.00D+00 EMaxC= 1.00D-01 BMatC= 8.53D-10 BMatP= 3.36D-08
 IDIUse=1 WtCom= 1.00D+00 WtEn= 0.00D+00
 Coeff-Com: -0.184D-03 0.307D-03 0.222D-02 0.308D-02-0.218D-01 0.213D-01
 Coeff-Com:  0.741D-01-0.423D+00 0.134D+01
 Coeff:     -0.184D-03 0.307D-03 0.222D-02 0.308D-02-0.218D-01 0.213D-01
 Coeff:      0.741D-01-0.423D+00 0.134D+01
 Gap=     0.390 Goal=   None    Shift=    0.000
 RMSDP=3.71D-06 MaxDP=9.95D-05 DE=-1.42D-07 OVMax= 2.35D-05

 Cycle  10  Pass 1  IDiag  1:
 E= -114.621678083531     Delta-E=       -0.000000001871 Rises=F Damp=F
 DIIS: error= 7.25D-07 at cycle  10 NSaved=  10.
 NSaved=10 IEnMin=10 EnMin= -114.621678083531     IErMin=10 ErrMin= 7.25D-07
 ErrMax= 7.25D-07  0.00D+00 EMaxC= 1.00D-01 BMatC= 1.65D-11 BMatP= 8.53D-10
 IDIUse=1 WtCom= 1.00D+00 WtEn= 0.00D+00
 Coeff-Com:  0.242D-04-0.408D-04-0.270D-03-0.436D-03 0.276D-02-0.342D-02
 Coeff-Com: -0.115D-01 0.766D-01-0.350D+00 0.129D+01
 Coeff:      0.242D-04-0.408D-04-0.270D-03-0.436D-03 0.276D-02-0.342D-02
 Coeff:     -0.115D-01 0.766D-01-0.350D+00 0.129D+01
 Gap=     0.390 Goal=   None    Shift=    0.000
 RMSDP=1.40D-06 MaxDP=4.13D-05 DE=-1.87D-09 OVMax= 3.36D-06

 Cycle  11  Pass 1  IDiag  1:
 E= -114.621678083570     Delta-E=       -0.000000000039 Rises=F Damp=F
 DIIS: error= 1.69D-07 at cycle  11 NSaved=  11.
 NSaved=11 IEnMin=11 EnMin= -114.621678083570     IErMin=11 ErrMin= 1.69D-07
 ErrMax= 1.69D-07  0.00D+00 EMaxC= 1.00D-01 BMatC= 5.97D-13 BMatP= 1.65D-11
 IDIUse=1 WtCom= 1.00D+00 WtEn= 0.00D+00
 Coeff-Com: -0.589D-06 0.136D-05-0.202D-04-0.454D-05 0.103D-03 0.252D-03
 Coeff-Com: -0.482D-03-0.115D-02 0.271D-01-0.261D+00 0.123D+01
 Coeff:     -0.589D-06 0.136D-05-0.202D-04-0.454D-05 0.103D-03 0.252D-03
 Coeff:     -0.482D-03-0.115D-02 0.271D-01-0.261D+00 0.123D+01
 Gap=     0.390 Goal=   None    Shift=    0.000
 RMSDP=1.76D-07 MaxDP=4.10D-06 DE=-3.93D-11 OVMax= 5.06D-07

 Cycle  12  Pass 1  IDiag  1:
 E= -114.621678083572     Delta-E=       -0.000000000002 Rises=F Damp=F
 DIIS: error= 3.48D-08 at cycle  12 NSaved=  12.
 NSaved=12 IEnMin=12 EnMin= -114.621678083572     IErMin=12 ErrMin= 3.48D-08
 ErrMax= 3.48D-08  0.00D+00 EMaxC= 1.00D-01 BMatC= 2.93D-14 BMatP= 5.97D-13
 IDIUse=1 WtCom= 1.00D+00 WtEn= 0.00D+00
 Coeff-Com: -0.525D-06 0.794D-06 0.122D-04 0.135D-04-0.102D-03 0.173D-04
 Coeff-Com:  0.384D-03-0.134D-02-0.150D-02 0.631D-01-0.496D+00 0.144D+01
 Coeff:     -0.525D-06 0.794D-06 0.122D-04 0.135D-04-0.102D-03 0.173D-04
 Coeff:      0.384D-03-0.134D-02-0.150D-02 0.631D-01-0.496D+00 0.144D+01
 Gap=     0.390 Goal=   None    Shift=    0.000
 RMSDP=5.01D-08 MaxDP=1.70D-06 DE=-1.59D-12 OVMax= 1.43D-07

 Cycle  13  Pass 1  IDiag  1:
 E= -114.621678083572     Delta-E=        0.000000000000 Rises=F Damp=F
 DIIS: error= 8.06D-09 at cycle  13 NSaved=  13.
 NSaved=13 IEnMin=12 EnMin= -114.621678083572     IErMin=13 ErrMin= 8.06D-09
 ErrMax= 8.06D-09  0.00D+00 EMaxC= 1.00D-01 BMatC= 1.57D-15 BMatP= 2.93D-14
 IDIUse=1 WtCom= 1.00D+00 WtEn= 0.00D+00
 Coeff-Com:  0.275D-06-0.434D-06-0.412D-05-0.482D-05 0.341D-04-0.228D-04
 Coeff-Com: -0.141D-03 0.697D-03-0.175D-02-0.252D-02 0.810D-01-0.464D+00
 Coeff-Com:  0.139D+01
 Coeff:      0.275D-06-0.434D-06-0.412D-05-0.482D-05 0.341D-04-0.228D-04
 Coeff:     -0.141D-03 0.697D-03-0.175D-02-0.252D-02 0.810D-01-0.464D+00
 Coeff:      0.139D+01
 Gap=     0.390 Goal=   None    Shift=    0.000
 RMSDP=1.22D-08 MaxDP=3.66D-07 DE= 1.99D-13 OVMax= 5.14D-08

 Cycle  14  Pass 1  IDiag  1:
 E= -114.621678083572     Delta-E=       -0.000000000000 Rises=F Damp=F
 DIIS: error= 1.22D-09 at cycle  14 NSaved=  14.
 NSaved=14 IEnMin=14 EnMin= -114.621678083572     IErMin=14 ErrMin= 1.22D-09
 ErrMax= 1.22D-09  0.00D+00 EMaxC= 1.00D-01 BMatC= 8.31D-17 BMatP= 1.57D-15
 IDIUse=1 WtCom= 1.00D+00 WtEn= 0.00D+00
 Coeff-Com: -0.790D-07 0.134D-06 0.650D-06 0.134D-05-0.652D-05 0.909D-05
 Coeff-Com:  0.259D-04-0.178D-03 0.757D-03-0.284D-02-0.143D-02 0.810D-01
 Coeff-Com: -0.448D+00 0.137D+01
 Coeff:     -0.790D-07 0.134D-06 0.650D-06 0.134D-05-0.652D-05 0.909D-05
 Coeff:      0.259D-04-0.178D-03 0.757D-03-0.284D-02-0.143D-02 0.810D-01
 Coeff:     -0.448D+00 0.137D+01
 Gap=     0.390 Goal=   None    Shift=    0.000
 RMSDP=2.36D-09 MaxDP=7.39D-08 DE=-3.13D-13 OVMax= 1.33D-08

 SCF Done:  E(RHF) =  -114.621678084     A.U. after   14 cycles
            NFock= 14  Conv=0.24D-08     -V/T= 2.0012
 KE= 1.144845853550D+02 PE=-3.617152378424D+02 EE= 8.502007243444D+01
 Leave Link  502 at Tue Oct 10 02:26:55 2017, MaxMem=    33554432 cpu:        32.8
 (Enter /usr/local/gaussian/2009-E.01/g09/l801.exe)
 Windowed orbitals will be sorted by symmetry type.
 ExpMin= 3.60D-02 ExpMax= 4.56D+03 ExpMxC= 6.82D+02 IAcc=3 IRadAn=         5 AccDes= 0.00D+00
 HarFok:  IExCor=  205 AccDes= 0.00D+00 IRadAn=         5 IDoV=-2 UseB2=F ITyADJ=14
 ICtDFT= 12500011 ScaDFX=  1.000000  1.000000  1.000000  1.000000
 Largest valence mixing into a core orbital is  1.57D-04
 Largest core mixing into a valence orbital is  4.29D-05
 Range of M.O.s used for correlation:     4    80
 NBasis=    80 NAE=    10 NBE=    10 NFC=     3 NFV=     0
 NROrb=     77 NOA=     7 NOB=     7 NVA=    70 NVB=    70

 **** Warning!!: The largest alpha MO coefficient is  0.25066084D+03

 Leave Link  801 at Tue Oct 10 02:26:55 2017, MaxMem=    33554432 cpu:         0.9
 (Enter /usr/local/gaussian/2009-E.01/g09/l804.exe)
 Closed-shell transformation, MDV=    33554432 ITran=4 ISComp=2.
 Semi-Direct transformation.
 ModeAB=           4 MOrb=             7 LenV=      33286996
 LASXX=       404043 LTotXX=      404043 LenRXX=      828652
 LTotAB=      424609 MaxLAS=     1658503 LenRXY=           0
 NonZer=     1232695 LenScr=     2463744 LnRSAI=     1658503
 LnScr1=     3143680 LExtra=           0 Total=      8094579
 MaxDsk=          -1 SrtSym=           T ITran=            4
 DoSDTr:  NPSUse=  8
 JobTyp=0 Pass  1:  I=   1 to   7.
 (rs|ai) integrals will be sorted in core.
 Complete sort for first half transformation.
 First half transformation complete.
 Complete sort for second half transformation.
 Second half transformation complete.
 Spin components of T(2) and E(2):
     alpha-alpha T2 =       0.1803894743D-01 E2=     -0.4450574267D-01
     alpha-beta  T2 =       0.1164102102D+00 E2=     -0.2859000536D+00
     beta-beta   T2 =       0.1803894743D-01 E2=     -0.4450574267D-01
 ANorm=    0.1073539988D+01
 E2 =    -0.3749115390D+00 EUMP2 =    -0.11499658962253D+03
 Leave Link  804 at Tue Oct 10 02:26:56 2017, MaxMem=    33554432 cpu:         3.4
 (Enter /usr/local/gaussian/2009-E.01/g09/l913.exe)
 CIDS:  MDV=    33554432.
 Frozen-core window:  NFC=   3 NFV=   0.
 IFCWin=0 IBDFC=1 NFBD=     0     0 NFCmp=     0     0 NFFFC=     0     0
 Using DD3R+UMP44R for 1st iteration, S=T.
 Using DD4RQ for 2nd and later iterations.
 Keep R2 and R3 ints in memory in symmetry-blocked form, NReq=6693459.
 FoFCou: FMM=F IPFlag=           0 FMFlag=           0 FMFlg1=           0
         NFxFlg=           0 DoJE=F BraDBF=F KetDBF=F FulRan=T
         wScrn=  0.000000 ICntrl=     600 IOpCl=  0 I1Cent=           0 NGrid=           0
         NMat0=    1 NMatS0=   3240 NMatT0=    0 NMatD0=    1 NMtDS0=    0 NMtDT0=    0
 Petite list used in FoFCou.
 CCSD(T)
 =======
 Iterations= 200 Convergence= 0.100D-06
 Iteration Nr.   1
 **********************
 DD1Dir will call FoFMem   1 times, MxPair=        56
 NAB=    28 NAA=     0 NBB=     0.
 MP4(R+Q)=  0.11350335D-01
 Maximum subspace dimension=  5
 Norm of the A-vectors is  5.5088267D-01 conv= 1.00D-05.
 RLE energy=       -0.3859390343
 E3=       -0.22211563D-01        EUMP3=      -0.11501880119D+03
 E4(DQ)=   -0.10042152D-02        UMP4(DQ)=   -0.11501980540D+03
 E4(SDQ)=  -0.72610687D-02        UMP4(SDQ)=  -0.11502606225D+03
 VARIATIONAL ENERGIES WITH THE FIRST-ORDER WAVEFUNCTION:
 DE(Corr)= -0.38562400     E(Corr)=     -115.00730209    
 NORM(A)=   0.10820780D+01
 Iteration Nr.   2
 **********************
 DD1Dir will call FoFMem   1 times, MxPair=        56
 NAB=    28 NAA=     0 NBB=     0.
 Norm of the A-vectors is  2.2247025D-01 conv= 1.00D-05.
 RLE energy=       -0.4032334516
 DE(Corr)= -0.40100607     E(CORR)=     -115.02268416     Delta=-1.54D-02
 NORM(A)=   0.10931580D+01
 Iteration Nr.   3
 **********************
 DD1Dir will call FoFMem   1 times, MxPair=        56
 NAB=    28 NAA=     0 NBB=     0.
 Norm of the A-vectors is  7.3189095D-02 conv= 1.00D-05.
 RLE energy=       -0.4044229651
 DE(Corr)= -0.40261573     E(CORR)=     -115.02429381     Delta=-1.61D-03
 NORM(A)=   0.10965911D+01
 Iteration Nr.   4
 **********************
 DD1Dir will call FoFMem   1 times, MxPair=        56
 NAB=    28 NAA=     0 NBB=     0.
 Norm of the A-vectors is  2.7534451D-02 conv= 1.00D-05.
 RLE energy=       -0.4046904005
 DE(Corr)= -0.40452141     E(CORR)=     -115.02619949     Delta=-1.91D-03
 NORM(A)=   0.10976605D+01
 Iteration Nr.   5
 **********************
 DD1Dir will call FoFMem   1 times, MxPair=        56
 NAB=    28 NAA=     0 NBB=     0.
 Norm of the A-vectors is  8.7241199D-03 conv= 1.00D-05.
 RLE energy=       -0.4048304684
 DE(Corr)= -0.40476848     E(CORR)=     -115.02644656     Delta=-2.47D-04
 NORM(A)=   0.10979822D+01
 Iteration Nr.   6
 **********************
 DD1Dir will call FoFMem   1 times, MxPair=        56
 NAB=    28 NAA=     0 NBB=     0.
 Norm of the A-vectors is  2.8494533D-03 conv= 1.00D-05.
 RLE energy=       -0.4047984841
 DE(Corr)= -0.40480521     E(CORR)=     -115.02648329     Delta=-3.67D-05
 NORM(A)=   0.10979917D+01
 Iteration Nr.   7
 **********************
 DD1Dir will call FoFMem   1 times, MxPair=        56
 NAB=    28 NAA=     0 NBB=     0.
 Norm of the A-vectors is  1.0962913D-03 conv= 1.00D-05.
 RLE energy=       -0.4048008577
 DE(Corr)= -0.40480720     E(CORR)=     -115.02648528     Delta=-1.99D-06
 NORM(A)=   0.10979925D+01
 Iteration Nr.   8
 **********************
 DD1Dir will call FoFMem   1 times, MxPair=        56
 NAB=    28 NAA=     0 NBB=     0.
 Norm of the A-vectors is  4.4695589D-04 conv= 1.00D-05.
 RLE energy=       -0.4048040878
 DE(Corr)= -0.40480480     E(CORR)=     -115.02648288     Delta= 2.40D-06
 NORM(A)=   0.10979924D+01
 Iteration Nr.   9
 **********************
 DD1Dir will call FoFMem   1 times, MxPair=        56
 NAB=    28 NAA=     0 NBB=     0.
 Norm of the A-vectors is  1.6228785D-04 conv= 1.00D-05.
 RLE energy=       -0.4048065030
 DE(Corr)= -0.40480628     E(CORR)=     -115.02648436     Delta=-1.48D-06
 NORM(A)=   0.10979933D+01
 Iteration Nr.  10
 **********************
 DD1Dir will call FoFMem   1 times, MxPair=        56
 NAB=    28 NAA=     0 NBB=     0.
 Norm of the A-vectors is  7.2610441D-05 conv= 1.00D-05.
 RLE energy=       -0.4048067001
 DE(Corr)= -0.40480650     E(CORR)=     -115.02648458     Delta=-2.20D-07
 NORM(A)=   0.10979938D+01
 Iteration Nr.  11
 **********************
 DD1Dir will call FoFMem   1 times, MxPair=        56
 NAB=    28 NAA=     0 NBB=     0.
 Norm of the A-vectors is  2.8900619D-05 conv= 1.00D-05.
 RLE energy=       -0.4048073026
 DE(Corr)= -0.40480716     E(CORR)=     -115.02648525     Delta=-6.67D-07
 NORM(A)=   0.10979944D+01
 Iteration Nr.  12
 **********************
 DD1Dir will call FoFMem   1 times, MxPair=        56
 NAB=    28 NAA=     0 NBB=     0.
 Norm of the A-vectors is  1.5255230D-05 conv= 1.00D-05.
 RLE energy=       -0.4048073745
 DE(Corr)= -0.40480727     E(CORR)=     -115.02648535     Delta=-1.03D-07
 NORM(A)=   0.10979947D+01
 Iteration Nr.  13
 **********************
 DD1Dir will call FoFMem   1 times, MxPair=        56
 NAB=    28 NAA=     0 NBB=     0.
 Norm of the A-vectors is  6.1305732D-06 conv= 1.00D-05.
 RLE energy=       -0.4048074176
 DE(Corr)= -0.40480739     E(CORR)=     -115.02648548     Delta=-1.26D-07
 NORM(A)=   0.10979948D+01
 Iteration Nr.  14
 **********************
 DD1Dir will call FoFMem   1 times, MxPair=        56
 NAB=    28 NAA=     0 NBB=     0.
 Norm of the A-vectors is  3.1508686D-06 conv= 1.00D-05.
 RLE energy=       -0.4048074380
 DE(Corr)= -0.40480743     E(CORR)=     -115.02648551     Delta=-3.40D-08
 NORM(A)=   0.10979948D+01
 CI/CC converged in   14 iterations to DelEn=-3.40D-08 Conv= 1.00D-07 ErrA1= 3.15D-06 Conv= 1.00D-05
 Dominant configurations:
 ***********************
 Spin Case        I    J    A    B          Value
   ABAB           9    9   11   11      -0.117702D+00
 Largest amplitude= 1.18D-01
 IPart=  4 IA=    5   11.18% done.
 IPart=  5 IA=    9   21.70% done.
 IPart=  2 IA=   13   31.55% done.
 IPart=  6 IA=   17   40.75% done.
 IPart=  7 IA=   22   51.30% done.
 IPart=  3 IA=   27   60.83% done.
 IPart=  2 IA=   33   70.89% done.
 IPart=  8 IA=   40   80.75% done.
 IPart=  7 IA=   49   90.43% done.
 Time for triples=      412.98 seconds.
 T4(CCSD)= -0.22394394D-01
 T5(CCSD)=  0.10411708D-02
 CCSD(T)= -0.11504783873D+03
 Discarding MO integrals.
 Leave Link  913 at Tue Oct 10 02:28:22 2017, MaxMem=    33554432 cpu:       607.8
 (Enter /usr/local/gaussian/2009-E.01/g09/l601.exe)
 Copying SCF densities to generalized density rwf, IOpCl= 0 IROHF=0.

 **********************************************************************

            Population analysis using the SCF density.

 **********************************************************************

 Orbital symmetries:
       Occupied  (A1) (A1) (A1) (A1) (A1) (A1) (B2) (A1) (B1) (B2)
       Virtual   (B1) (A1) (B2) (A1) (B1) (A1) (B2) (A1) (B1) (B2)
                 (A1) (B1) (B2) (B2) (A1) (A1) (B1) (A1) (B2) (A1)
                 (A1) (A1) (A1) (B1) (B2) (B1) (B2) (B2) (B1) (B2)
                 (A1) (A1) (A1) (A1) (A2) (A1) (B1) (A1) (A2) (B2)
                 (A1) (B2) (A2) (B1) (A1) (B2) (B1) (A1) (A2) (A1)
                 (A1) (B2) (B1) (B2) (A1) (A1) (B2) (B1) (A1) (B1)
                 (B1) (B2) (B2) (A1) (A1) (B2) (A1) (A1) (A1) (A1)
 The electronic state is 1-A1.
 Alpha  occ. eigenvalues --  -11.32944 -11.28650 -11.24649  -1.09838  -0.95670
 Alpha  occ. eigenvalues --   -0.72363  -0.66377  -0.45473  -0.44371  -0.39189
 Alpha virt. eigenvalues --   -0.00202   0.03537   0.05467   0.09568   0.10211
 Alpha virt. eigenvalues --    0.12388   0.13554   0.16058   0.16379   0.16728
 Alpha virt. eigenvalues --    0.17844   0.19044   0.20038   0.23564   0.23984
 Alpha virt. eigenvalues --    0.27123   0.30424   0.31218   0.38073   0.47398
 Alpha virt. eigenvalues --    0.58336   0.63711   0.68170   0.68620   0.68740
 Alpha virt. eigenvalues --    0.75743   0.76943   0.82095   0.85117   0.87137
 Alpha virt. eigenvalues --    0.87900   0.91197   1.07491   1.13396   1.20268
 Alpha virt. eigenvalues --    1.27372   1.33312   1.38947   1.42886   1.57148
 Alpha virt. eigenvalues --    1.65941   1.66853   1.77648   1.80756   1.86082
 Alpha virt. eigenvalues --    2.01236   2.04959   2.05634   2.24484   2.31032
 Alpha virt. eigenvalues --    2.46562   2.56060   2.64023   2.79165   2.79280
 Alpha virt. eigenvalues --    2.94096   3.02959   3.05254   3.15568   3.26127
 Alpha virt. eigenvalues --    3.29361   3.31131   3.38244   3.55560   3.84623
 Alpha virt. eigenvalues --    4.06135   4.20587  24.48819  25.02794  25.89455
          Condensed to atoms (all electrons):
               1          2          3          4          5
     1  C   10.312977  -4.358749   0.027052   0.044514   0.044514
     2  C   -4.358749  11.515596  -1.086992   0.276681   0.276681
     3  C    0.027052  -1.086992   6.562036   0.058126   0.058126
     4  H    0.044514   0.276681   0.058126   0.491834  -0.027092
     5  H    0.044514   0.276681   0.058126  -0.027092   0.491834
 Mulliken charges:
               1
     1  C   -0.070308
     2  C   -0.623217
     3  C    0.381650
     4  H    0.155937
     5  H    0.155937
 Sum of Mulliken charges =  -0.00000
 Mulliken charges with hydrogens summed into heavy atoms:
               1
     1  C   -0.070308
     2  C   -0.311342
     3  C    0.381650
 Electronic spatial extent (au):  <R**2>=            144.1200
 Charge=             -0.0000 electrons
 Dipole moment (field-independent basis, Debye):
    X=             -0.0000    Y=             -0.0000    Z=             -4.3793  Tot=              4.3793
 Quadrupole moment (field-independent basis, Debye-Ang):
   XX=            -18.5013   YY=            -18.4016   ZZ=            -20.1301
   XY=             -0.0000   XZ=             -0.0000   YZ=             -0.0000
 Traceless Quadrupole moment (field-independent basis, Debye-Ang):
   XX=              0.5097   YY=              0.6094   ZZ=             -1.1191
   XY=             -0.0000   XZ=             -0.0000   YZ=             -0.0000
 Octapole moment (field-independent basis, Debye-Ang**2):
  XXX=             -0.0000  YYY=             -0.0000  ZZZ=            -26.9650  XYY=             -0.0000
  XXY=             -0.0000  XXZ=             -1.1857  XZZ=             -0.0000  YZZ=             -0.0000
  YYZ=             -6.5088  XYZ=              0.0000
 Hexadecapole moment (field-independent basis, Debye-Ang**3):
 XXXX=            -22.0289 YYYY=            -28.7004 ZZZZ=           -195.6569 XXXY=              0.0000
 XXXZ=             -0.0000 YYYX=              0.0000 YYYZ=             -0.0000 ZZZX=             -0.0000
 ZZZY=             -0.0000 XXYY=             -8.8984 XXZZ=            -31.3448 YYZZ=            -31.1854
 XXYZ=             -0.0000 YYXZ=             -0.0000 ZZXY=             -0.0000
 N-N= 4.758890196933D+01 E-N=-3.617152378335D+02  KE= 1.144845853550D+02
 Symmetry A1   KE= 1.083933750446D+02
 Symmetry A2   KE= 5.284112511336D-31
 Symmetry B1   KE= 1.955773170126D+00
 Symmetry B2   KE= 4.135437140280D+00
 Leave Link  601 at Tue Oct 10 02:28:22 2017, MaxMem=    33554432 cpu:         0.2
 (Enter /usr/local/gaussian/2009-E.01/g09/l9999.exe)
 1\1\ WCSS.PL-BEM-WN1424\SP\RCCSD(T)-FC\6-311++G(d,p)\C3H2\ROOT\10-Oct-
 2017\0\\#p ccsd(t,maxcyc=200)/6-311++G(d,p)\\ccsd(t) iener\\0,1\C,0,-0
 .887597837,0.614836073,0.780482124\C,0,0.541399908,-0.069476625,-1.289
 937136\C,0,-0.183974071,0.277887552,-0.238970987\H,0,0.080936146,-0.42
 6315859,-2.2096717\H,0,1.628559854,-0.012747141,-1.2781983\\Version=ES
 64L-G09RevE.01\State=1-A1\HF=-114.6216781\MP2=-114.9965896\MP3=-115.01
 88012\MP4D=-115.0311557\MP4DQ=-115.0198054\MP4SDQ=-115.0260623\CCSD=-1
 15.0264855\CCSD(T)=-115.0478387\RMSD=2.358e-09\PG=C02V [C2(C1C1C1),SGV
 (H2)]\\@


 REPARTEE - WHAT YOU THINK OF AFTER YOU BECOME A DEPARTEE.
 Job cpu time:       0 days  0 hours 11 minutes 10.3 seconds.
 File lengths (MBytes):  RWF=     70 Int=      0 D2E=      0 Chk=      1 Scr=      1
 Normal termination of Gaussian 09 at Tue Oct 10 02:28:23 2017.
