 Entering Gaussian System, Link 0=/usr/local/gaussian/2009-E.01/g09/g09
 Initial command:
 /usr/local/gaussian/2009-E.01/g09/l1.exe "/lustre/scratch/eerd/4986703.achilles/Gau-175537.inp" -scrdir="/lustre/scratch/eerd/4986703.achilles/"
 Entering Link 1 = /usr/local/gaussian/2009-E.01/g09/l1.exe PID=    175539.
  
 Copyright (c) 1988,1990,1992,1993,1995,1998,2003,2009,2015,
            Gaussian, Inc.  All Rights Reserved.
  
 This is part of the Gaussian(R) 09 program.  It is based on
 the Gaussian(R) 03 system (copyright 2003, Gaussian, Inc.),
 the Gaussian(R) 98 system (copyright 1998, Gaussian, Inc.),
 the Gaussian(R) 94 system (copyright 1995, Gaussian, Inc.),
 the Gaussian 92(TM) system (copyright 1992, Gaussian, Inc.),
 the Gaussian 90(TM) system (copyright 1990, Gaussian, Inc.),
 the Gaussian 88(TM) system (copyright 1988, Gaussian, Inc.),
 the Gaussian 86(TM) system (copyright 1986, Carnegie Mellon
 University), and the Gaussian 82(TM) system (copyright 1983,
 Carnegie Mellon University). Gaussian is a federally registered
 trademark of Gaussian, Inc.
  
 This software contains proprietary and confidential information,
 including trade secrets, belonging to Gaussian, Inc.
  
 This software is provided under written license and may be
 used, copied, transmitted, or stored only in accord with that
 written license.
  
 The following legend is applicable only to US Government
 contracts under FAR:
  
                    RESTRICTED RIGHTS LEGEND
  
 Use, reproduction and disclosure by the US Government is
 subject to restrictions as set forth in subparagraphs (a)
 and (c) of the Commercial Computer Software - Restricted
 Rights clause in FAR 52.227-19.
  
 Gaussian, Inc.
 340 Quinnipiac St., Bldg. 40, Wallingford CT 06492
  
  
 ---------------------------------------------------------------
 Warning -- This program may not be used in any manner that
 competes with the business of Gaussian, Inc. or will provide
 assistance to any competitor of Gaussian, Inc.  The licensee
 of this program is prohibited from giving any competitor of
 Gaussian, Inc. access to this program.  By using this program,
 the user acknowledges that Gaussian, Inc. is engaged in the
 business of creating and licensing software in the field of
 computational chemistry and represents and warrants to the
 licensee that it is not a competitor of Gaussian, Inc. and that
 it will not use this program in any manner prohibited above.
 ---------------------------------------------------------------
  

 Cite this work as:
 Gaussian 09, Revision E.01,
 M. J. Frisch, G. W. Trucks, H. B. Schlegel, G. E. Scuseria, 
 M. A. Robb, J. R. Cheeseman, G. Scalmani, V. Barone, B. Mennucci, 
 G. A. Petersson, H. Nakatsuji, M. Caricato, X. Li, H. P. Hratchian, 
 A. F. Izmaylov, J. Bloino, G. Zheng, J. L. Sonnenberg, M. Hada, 
 M. Ehara, K. Toyota, R. Fukuda, J. Hasegawa, M. Ishida, T. Nakajima, 
 Y. Honda, O. Kitao, H. Nakai, T. Vreven, J. A. Montgomery, Jr., 
 J. E. Peralta, F. Ogliaro, M. Bearpark, J. J. Heyd, E. Brothers, 
 K. N. Kudin, V. N. Staroverov, T. Keith, R. Kobayashi, J. Normand, 
 K. Raghavachari, A. Rendell, J. C. Burant, S. S. Iyengar, J. Tomasi, 
 M. Cossi, N. Rega, J. M. Millam, M. Klene, J. E. Knox, J. B. Cross, 
 V. Bakken, C. Adamo, J. Jaramillo, R. Gomperts, R. E. Stratmann, 
 O. Yazyev, A. J. Austin, R. Cammi, C. Pomelli, J. W. Ochterski, 
 R. L. Martin, K. Morokuma, V. G. Zakrzewski, G. A. Voth, 
 P. Salvador, J. J. Dannenberg, S. Dapprich, A. D. Daniels, 
 O. Farkas, J. B. Foresman, J. V. Ortiz, J. Cioslowski, 
 and D. J. Fox, Gaussian, Inc., Wallingford CT, 2013.
 
 ******************************************
 Gaussian 09:  ES64L-G09RevE.01 30-Nov-2015
                10-Oct-2017 
 ******************************************
 %NProcShared=8
 Will use up to    8 processors via shared memory.
 -----------------------------------
 #p ccsd(t,maxcyc=200)/6-311++G(d,p)
 -----------------------------------
 1/38=1/1;
 2/12=2,17=6,18=5,40=1/2;
 3/5=4,6=6,7=1111,11=9,16=1,25=1,30=1/1,2,3;
 4//1;
 5/5=2,38=5/2;
 8/6=4,9=120000,10=2/1,4;
 9/5=7,6=200,14=2/13;
 6/7=2,8=2,9=2,10=2/1;
 99/5=1,9=1/99;
 Leave Link    1 at Tue Oct 10 02:26:14 2017, MaxMem=           0 cpu:         3.5
 (Enter /usr/local/gaussian/2009-E.01/g09/l101.exe)
 -------------
 ccsd(t) iener
 -------------
 Symbolic Z-matrix:
 Charge =  0 Multiplicity = 1
 C                     0.        0.        0. 
 C                     1.10147   0.66576   0. 
 C                    -1.10147  -0.66576   0. 
 H                     1.25801   1.73678   0. 
 H                    -1.25801  -1.73678   0. 
 
 NAtoms=      5 NQM=        5 NQMF=       0 NMMI=      0 NMMIF=      0
                NMic=       0 NMicF=      0.
                    Isotopes and Nuclear Properties:
 (Nuclear quadrupole moments (NQMom) in fm**2, nuclear magnetic moments (NMagM)
  in nuclear magnetons)

  Atom         1           2           3           4           5
 IAtWgt=          12          12          12           1           1
 AtmWgt=  12.0000000  12.0000000  12.0000000   1.0078250   1.0078250
 NucSpn=           0           0           0           1           1
 AtZEff=   0.0000000   0.0000000   0.0000000   0.0000000   0.0000000
 NQMom=    0.0000000   0.0000000   0.0000000   0.0000000   0.0000000
 NMagM=    0.0000000   0.0000000   0.0000000   2.7928460   2.7928460
 AtZNuc=   6.0000000   6.0000000   6.0000000   1.0000000   1.0000000
 Leave Link  101 at Tue Oct 10 02:26:14 2017, MaxMem=    33554432 cpu:         2.0
 (Enter /usr/local/gaussian/2009-E.01/g09/l202.exe)
                          Input orientation:                          
 ---------------------------------------------------------------------
 Center     Atomic      Atomic             Coordinates (Angstroms)
 Number     Number       Type             X           Y           Z
 ---------------------------------------------------------------------
      1          6           0        0.000000    0.000000    0.000000
      2          6           0        1.101469    0.665764    0.000000
      3          6           0       -1.101469   -0.665764    0.000000
      4          1           0        1.258006    1.736784    0.000000
      5          1           0       -1.258006   -1.736784    0.000000
 ---------------------------------------------------------------------
                    Distance matrix (angstroms):
                    1          2          3          4          5
     1  C    0.000000
     2  C    1.287041   0.000000
     3  C    1.287041   2.574083   0.000000
     4  H    2.144527   1.082399   3.367396   0.000000
     5  H    2.144527   3.367396   1.082399   4.289055   0.000000
 Stoichiometry    C3H2
 Framework group  C2H[O(C),SGH(C2H2)]
 Deg. of freedom     3
 Full point group                 C2H     NOp   4
 Largest Abelian subgroup         C2H     NOp   4
 Largest concise Abelian subgroup C2      NOp   2
                         Standard orientation:                         
 ---------------------------------------------------------------------
 Center     Atomic      Atomic             Coordinates (Angstroms)
 Number     Number       Type             X           Y           Z
 ---------------------------------------------------------------------
      1          6           0        0.000000    0.000000    0.000000
      2          6           0        0.000000    1.287041   -0.000000
      3          6           0       -0.000000   -1.287041   -0.000000
      4          1           0        0.835621    1.975028   -0.000000
      5          1           0       -0.835621   -1.975028   -0.000000
 ---------------------------------------------------------------------
 Rotational constants (GHZ):    432.2402972     10.5603713     10.3085166
 Leave Link  202 at Tue Oct 10 02:26:14 2017, MaxMem=    33554432 cpu:         0.5
 (Enter /usr/local/gaussian/2009-E.01/g09/l301.exe)
 Standard basis: 6-311++G(d,p) (5D, 7F)
 Ernie: Thresh=  0.10000D-02 Tol=  0.10000D-05 Strict=F.
 There are    32 symmetry adapted cartesian basis functions of AG  symmetry.
 There are     9 symmetry adapted cartesian basis functions of BG  symmetry.
 There are    11 symmetry adapted cartesian basis functions of AU  symmetry.
 There are    31 symmetry adapted cartesian basis functions of BU  symmetry.
 There are    30 symmetry adapted basis functions of AG  symmetry.
 There are     9 symmetry adapted basis functions of BG  symmetry.
 There are    11 symmetry adapted basis functions of AU  symmetry.
 There are    30 symmetry adapted basis functions of BU  symmetry.
    80 basis functions,   126 primitive gaussians,    83 cartesian basis functions
    10 alpha electrons       10 beta electrons
       nuclear repulsion energy        47.8411528851 Hartrees.
 IExCor=    0 DFT=F Ex=HF Corr=None ExCW=0 ScaHFX=  1.000000
 ScaDFX=  1.000000  1.000000  1.000000  1.000000 ScalE2=  1.000000  1.000000
 IRadAn=      0 IRanWt=     -1 IRanGd=            0 ICorTp=0 IEmpDi=  4
 NAtoms=    5 NActive=    5 NUniq=    3 SFac= 2.78D+00 NAtFMM=   60 NAOKFM=F Big=F
 Integral buffers will be    131072 words long.
 Raffenetti 1 integral format.
 Two-electron integral symmetry is turned on.
 Leave Link  301 at Tue Oct 10 02:26:14 2017, MaxMem=    33554432 cpu:         0.4
 (Enter /usr/local/gaussian/2009-E.01/g09/l302.exe)
 NPDir=0 NMtPBC=     1 NCelOv=     1 NCel=       1 NClECP=     1 NCelD=      1
         NCelK=      1 NCelE2=     1 NClLst=     1 CellRange=     0.0.
 One-electron integrals computed using PRISM.
 One-electron integral symmetry used in STVInt
 NBasis=    80 RedAO= T EigKep=  3.29D-06  NBF=    30     9    11    30
 NBsUse=    80 1.00D-06 EigRej= -1.00D+00 NBFU=    30     9    11    30
 Leave Link  302 at Tue Oct 10 02:26:14 2017, MaxMem=    33554432 cpu:         1.2
 (Enter /usr/local/gaussian/2009-E.01/g09/l303.exe)
 DipDrv:  MaxL=1.
 Leave Link  303 at Tue Oct 10 02:26:15 2017, MaxMem=    33554432 cpu:         0.1
 (Enter /usr/local/gaussian/2009-E.01/g09/l401.exe)
 ExpMin= 3.60D-02 ExpMax= 4.56D+03 ExpMxC= 6.82D+02 IAcc=3 IRadAn=         5 AccDes= 0.00D+00
 Harris functional with IExCor=  205 and IRadAn=       5 diagonalized for initial guess.
 HarFok:  IExCor=  205 AccDes= 0.00D+00 IRadAn=         5 IDoV= 1 UseB2=F ITyADJ=14
 ICtDFT=  3500011 ScaDFX=  1.000000  1.000000  1.000000  1.000000
 FoFCou: FMM=F IPFlag=           0 FMFlag=      100000 FMFlg1=           0
         NFxFlg=           0 DoJE=T BraDBF=F KetDBF=T FulRan=T
         wScrn=  0.000000 ICntrl=     500 IOpCl=  0 I1Cent=   200000004 NGrid=           0
         NMat0=    1 NMatS0=      1 NMatT0=    0 NMatD0=    1 NMtDS0=    0 NMtDT0=    0
 Petite list used in FoFCou.
 Harris En= -114.719124366261    
 JPrj=0 DoOrth=F DoCkMO=F.
 Initial guess orbital symmetries:
       Occupied  (AG) (BU) (AG) (AG) (BU) (AG) (BU) (AU) (BU) (AG)
       Virtual   (BG) (BU) (AU) (AG) (BU) (AG) (BU) (AU) (AG) (BG)
                 (AG) (BU) (BU) (BU) (AU) (AG) (AG) (BU) (AG) (BU)
                 (BU) (AG) (AG) (AU) (BU) (BG) (BU) (AG) (AU) (BU)
                 (BU) (AG) (AG) (BU) (BU) (BG) (AG) (BG) (AU) (AG)
                 (BU) (BG) (AG) (AU) (BU) (AG) (BU) (BG) (AU) (AG)
                 (AG) (BU) (BG) (BU) (AG) (AU) (BU) (AG) (AG) (BU)
                 (AU) (BG) (BU) (AG) (BU) (AG) (BU) (AG) (BU) (AG)
 The electronic state of the initial guess is 1-AG.
 Leave Link  401 at Tue Oct 10 02:26:15 2017, MaxMem=    33554432 cpu:         1.3
 (Enter /usr/local/gaussian/2009-E.01/g09/l502.exe)
 Closed shell SCF:
 Using DIIS extrapolation, IDIIS=  1040.
 Integral symmetry usage will be decided dynamically.
 Keep R1 ints in memory in symmetry-blocked form, NReq=6701986.
 IVT=       40673 IEndB=       40673 NGot=    33554432 MDV=    32102947
 LenX=    32102947 LenY=    32095617
 Requested convergence on RMS density matrix=1.00D-08 within 128 cycles.
 Requested convergence on MAX density matrix=1.00D-06.
 Requested convergence on             energy=1.00D-06.
 No special actions if energy rises.
 FoFCou: FMM=F IPFlag=           0 FMFlag=           0 FMFlg1=           0
         NFxFlg=           0 DoJE=F BraDBF=F KetDBF=F FulRan=T
         wScrn=  0.000000 ICntrl=     600 IOpCl=  0 I1Cent=           0 NGrid=           0
         NMat0=    1 NMatS0=   3240 NMatT0=    0 NMatD0=    1 NMtDS0=    0 NMtDT0=    0
 Petite list used in FoFCou.

 Cycle   1  Pass 1  IDiag  1:
 E= -114.470682880911    
 DIIS: error= 5.14D-02 at cycle   1 NSaved=   1.
 NSaved= 1 IEnMin= 1 EnMin= -114.470682880911     IErMin= 1 ErrMin= 5.14D-02
 ErrMax= 5.14D-02  0.00D+00 EMaxC= 1.00D-01 BMatC= 2.16D-01 BMatP= 2.16D-01
 IDIUse=3 WtCom= 4.86D-01 WtEn= 5.14D-01
 Coeff-Com:  0.100D+01
 Coeff-En:   0.100D+01
 Coeff:      0.100D+01
 Gap=     0.354 Goal=   None    Shift=    0.000
 GapD=    0.354 DampG=1.000 DampE=0.500 DampFc=0.5000 IDamp=-1.
 Damping current iteration by 5.00D-01
 RMSDP=4.63D-02 MaxDP=1.47D+00              OVMax= 1.28D-01

 Cycle   2  Pass 1  IDiag  1:
 E= -114.534341367510     Delta-E=       -0.063658486599 Rises=F Damp=T
 DIIS: error= 2.67D-02 at cycle   2 NSaved=   2.
 NSaved= 2 IEnMin= 2 EnMin= -114.534341367510     IErMin= 2 ErrMin= 2.67D-02
 ErrMax= 2.67D-02  0.00D+00 EMaxC= 1.00D-01 BMatC= 5.12D-02 BMatP= 2.16D-01
 IDIUse=3 WtCom= 7.33D-01 WtEn= 2.67D-01
 Coeff-Com: -0.809D+00 0.181D+01
 Coeff-En:   0.000D+00 0.100D+01
 Coeff:     -0.592D+00 0.159D+01
 Gap=     0.351 Goal=   None    Shift=    0.000
 RMSDP=6.00D-03 MaxDP=1.28D-01 DE=-6.37D-02 OVMax= 5.09D-02

 Cycle   3  Pass 1  IDiag  1:
 E= -114.595493142136     Delta-E=       -0.061151774625 Rises=F Damp=F
 DIIS: error= 7.22D-03 at cycle   3 NSaved=   3.
 NSaved= 3 IEnMin= 3 EnMin= -114.595493142136     IErMin= 3 ErrMin= 7.22D-03
 ErrMax= 7.22D-03  0.00D+00 EMaxC= 1.00D-01 BMatC= 7.68D-04 BMatP= 5.12D-02
 IDIUse=3 WtCom= 9.28D-01 WtEn= 7.22D-02
 Coeff-Com: -0.111D+00 0.191D+00 0.920D+00
 Coeff-En:   0.000D+00 0.000D+00 0.100D+01
 Coeff:     -0.103D+00 0.177D+00 0.926D+00
 Gap=     0.350 Goal=   None    Shift=    0.000
 RMSDP=1.02D-03 MaxDP=2.16D-02 DE=-6.12D-02 OVMax= 2.50D-02

 Cycle   4  Pass 1  IDiag  1:
 E= -114.597031704749     Delta-E=       -0.001538562613 Rises=F Damp=F
 DIIS: error= 2.68D-03 at cycle   4 NSaved=   4.
 NSaved= 4 IEnMin= 4 EnMin= -114.597031704749     IErMin= 4 ErrMin= 2.68D-03
 ErrMax= 2.68D-03  0.00D+00 EMaxC= 1.00D-01 BMatC= 1.64D-04 BMatP= 7.68D-04
 IDIUse=3 WtCom= 9.73D-01 WtEn= 2.68D-02
 Coeff-Com:  0.246D-01-0.623D-01 0.168D+00 0.869D+00
 Coeff-En:   0.000D+00 0.000D+00 0.000D+00 0.100D+01
 Coeff:      0.240D-01-0.607D-01 0.164D+00 0.873D+00
 Gap=     0.353 Goal=   None    Shift=    0.000
 RMSDP=4.12D-04 MaxDP=1.08D-02 DE=-1.54D-03 OVMax= 9.74D-03

 Cycle   5  Pass 1  IDiag  1:
 E= -114.597406818254     Delta-E=       -0.000375113505 Rises=F Damp=F
 DIIS: error= 1.25D-03 at cycle   5 NSaved=   5.
 NSaved= 5 IEnMin= 5 EnMin= -114.597406818254     IErMin= 5 ErrMin= 1.25D-03
 ErrMax= 1.25D-03  0.00D+00 EMaxC= 1.00D-01 BMatC= 2.80D-05 BMatP= 1.64D-04
 IDIUse=3 WtCom= 9.87D-01 WtEn= 1.25D-02
 Coeff-Com:  0.183D-01-0.265D-01-0.250D+00-0.346D+00 0.160D+01
 Coeff-En:   0.000D+00 0.000D+00 0.000D+00 0.000D+00 0.100D+01
 Coeff:      0.180D-01-0.262D-01-0.246D+00-0.342D+00 0.160D+01
 Gap=     0.357 Goal=   None    Shift=    0.000
 RMSDP=2.99D-04 MaxDP=5.13D-03 DE=-3.75D-04 OVMax= 1.01D-02

 Cycle   6  Pass 1  IDiag  1:
 E= -114.597553906505     Delta-E=       -0.000147088250 Rises=F Damp=F
 DIIS: error= 1.60D-04 at cycle   6 NSaved=   6.
 NSaved= 6 IEnMin= 6 EnMin= -114.597553906505     IErMin= 6 ErrMin= 1.60D-04
 ErrMax= 1.60D-04  0.00D+00 EMaxC= 1.00D-01 BMatC= 5.15D-07 BMatP= 2.80D-05
 IDIUse=3 WtCom= 9.98D-01 WtEn= 1.60D-03
 Coeff-Com: -0.675D-02 0.112D-01 0.633D-01 0.725D-01-0.463D+00 0.132D+01
 Coeff-En:   0.000D+00 0.000D+00 0.000D+00 0.000D+00 0.000D+00 0.100D+01
 Coeff:     -0.674D-02 0.112D-01 0.632D-01 0.724D-01-0.462D+00 0.132D+01
 Gap=     0.357 Goal=   None    Shift=    0.000
 RMSDP=9.93D-05 MaxDP=2.95D-03 DE=-1.47D-04 OVMax= 1.03D-03

 Cycle   7  Pass 1  IDiag  1:
 E= -114.597555937877     Delta-E=       -0.000002031373 Rises=F Damp=F
 DIIS: error= 3.47D-05 at cycle   7 NSaved=   7.
 NSaved= 7 IEnMin= 7 EnMin= -114.597555937877     IErMin= 7 ErrMin= 3.47D-05
 ErrMax= 3.47D-05  0.00D+00 EMaxC= 1.00D-01 BMatC= 2.25D-08 BMatP= 5.15D-07
 IDIUse=1 WtCom= 1.00D+00 WtEn= 0.00D+00
 Coeff-Com:  0.135D-02-0.229D-02-0.126D-01-0.146D-01 0.102D+00-0.458D+00
 Coeff-Com:  0.138D+01
 Coeff:      0.135D-02-0.229D-02-0.126D-01-0.146D-01 0.102D+00-0.458D+00
 Coeff:      0.138D+01
 Gap=     0.357 Goal=   None    Shift=    0.000
 RMSDP=1.51D-05 MaxDP=3.40D-04 DE=-2.03D-06 OVMax= 1.52D-04

 Cycle   8  Pass 1  IDiag  1:
 E= -114.597556019087     Delta-E=       -0.000000081209 Rises=F Damp=F
 DIIS: error= 8.46D-06 at cycle   8 NSaved=   8.
 NSaved= 8 IEnMin= 8 EnMin= -114.597556019087     IErMin= 8 ErrMin= 8.46D-06
 ErrMax= 8.46D-06  0.00D+00 EMaxC= 1.00D-01 BMatC= 1.07D-09 BMatP= 2.25D-08
 IDIUse=1 WtCom= 1.00D+00 WtEn= 0.00D+00
 Coeff-Com: -0.370D-03 0.631D-03 0.358D-02 0.444D-02-0.296D-01 0.151D+00
 Coeff-Com: -0.611D+00 0.148D+01
 Coeff:     -0.370D-03 0.631D-03 0.358D-02 0.444D-02-0.296D-01 0.151D+00
 Coeff:     -0.611D+00 0.148D+01
 Gap=     0.357 Goal=   None    Shift=    0.000
 RMSDP=4.86D-06 MaxDP=1.39D-04 DE=-8.12D-08 OVMax= 3.55D-05

 Cycle   9  Pass 1  IDiag  1:
 E= -114.597556023017     Delta-E=       -0.000000003930 Rises=F Damp=F
 DIIS: error= 1.00D-06 at cycle   9 NSaved=   9.
 NSaved= 9 IEnMin= 9 EnMin= -114.597556023017     IErMin= 9 ErrMin= 1.00D-06
 ErrMax= 1.00D-06  0.00D+00 EMaxC= 1.00D-01 BMatC= 3.26D-11 BMatP= 1.07D-09
 IDIUse=1 WtCom= 1.00D+00 WtEn= 0.00D+00
 Coeff-Com:  0.735D-04-0.126D-03-0.571D-03-0.924D-03 0.510D-02-0.257D-01
 Coeff-Com:  0.116D+00-0.415D+00 0.132D+01
 Coeff:      0.735D-04-0.126D-03-0.571D-03-0.924D-03 0.510D-02-0.257D-01
 Coeff:      0.116D+00-0.415D+00 0.132D+01
 Gap=     0.357 Goal=   None    Shift=    0.000
 RMSDP=1.61D-06 MaxDP=6.76D-05 DE=-3.93D-09 OVMax= 5.52D-06

 Cycle  10  Pass 1  IDiag  1:
 E= -114.597556023119     Delta-E=       -0.000000000102 Rises=F Damp=F
 DIIS: error= 1.55D-07 at cycle  10 NSaved=  10.
 NSaved=10 IEnMin=10 EnMin= -114.597556023119     IErMin=10 ErrMin= 1.55D-07
 ErrMax= 1.55D-07  0.00D+00 EMaxC= 1.00D-01 BMatC= 5.29D-13 BMatP= 3.26D-11
 IDIUse=1 WtCom= 1.00D+00 WtEn= 0.00D+00
 Coeff-Com: -0.118D-04 0.201D-04 0.855D-04 0.154D-03-0.717D-03 0.300D-02
 Coeff-Com: -0.132D-01 0.651D-01-0.328D+00 0.127D+01
 Coeff:     -0.118D-04 0.201D-04 0.855D-04 0.154D-03-0.717D-03 0.300D-02
 Coeff:     -0.132D-01 0.651D-01-0.328D+00 0.127D+01
 Gap=     0.357 Goal=   None    Shift=    0.000
 RMSDP=2.78D-07 MaxDP=8.14D-06 DE=-1.02D-10 OVMax= 9.04D-07

 Cycle  11  Pass 1  IDiag  1:
 E= -114.597556023121     Delta-E=       -0.000000000002 Rises=F Damp=F
 DIIS: error= 1.26D-08 at cycle  11 NSaved=  11.
 NSaved=11 IEnMin=11 EnMin= -114.597556023121     IErMin=11 ErrMin= 1.26D-08
 ErrMax= 1.26D-08  0.00D+00 EMaxC= 1.00D-01 BMatC= 1.19D-14 BMatP= 5.29D-13
 IDIUse=1 WtCom= 1.00D+00 WtEn= 0.00D+00
 Coeff-Com:  0.620D-06-0.107D-05-0.383D-05-0.116D-04 0.266D-04 0.573D-04
 Coeff-Com: -0.513D-03-0.137D-02 0.274D-01-0.218D+00 0.119D+01
 Coeff:      0.620D-06-0.107D-05-0.383D-05-0.116D-04 0.266D-04 0.573D-04
 Coeff:     -0.513D-03-0.137D-02 0.274D-01-0.218D+00 0.119D+01
 Gap=     0.357 Goal=   None    Shift=    0.000
 RMSDP=3.31D-08 MaxDP=5.94D-07 DE=-2.02D-12 OVMax= 1.44D-07

 Cycle  12  Pass 1  IDiag  1:
 E= -114.597556023121     Delta-E=        0.000000000000 Rises=F Damp=F
 DIIS: error= 4.13D-09 at cycle  12 NSaved=  12.
 NSaved=12 IEnMin=11 EnMin= -114.597556023121     IErMin=12 ErrMin= 4.13D-09
 ErrMax= 4.13D-09  0.00D+00 EMaxC= 1.00D-01 BMatC= 8.01D-16 BMatP= 1.19D-14
 IDIUse=1 WtCom= 1.00D+00 WtEn= 0.00D+00
 Coeff-Com: -0.845D-08 0.989D-08 0.746D-06 0.966D-06-0.135D-05-0.425D-04
 Coeff-Com:  0.312D-03-0.799D-03-0.854D-03 0.338D-01-0.413D+00 0.138D+01
 Coeff:     -0.845D-08 0.989D-08 0.746D-06 0.966D-06-0.135D-05-0.425D-04
 Coeff:      0.312D-03-0.799D-03-0.854D-03 0.338D-01-0.413D+00 0.138D+01
 Gap=     0.357 Goal=   None    Shift=    0.000
 RMSDP=6.69D-09 MaxDP=1.81D-07 DE= 3.13D-13 OVMax= 5.09D-08

 SCF Done:  E(RHF) =  -114.597556023     A.U. after   12 cycles
            NFock= 12  Conv=0.67D-08     -V/T= 2.0008
 KE= 1.145028907584D+02 PE=-3.622441587831D+02 EE= 8.530255911645D+01
 Leave Link  502 at Tue Oct 10 02:26:17 2017, MaxMem=    33554432 cpu:        16.1
 (Enter /usr/local/gaussian/2009-E.01/g09/l801.exe)
 Windowed orbitals will be sorted by symmetry type.
 ExpMin= 3.60D-02 ExpMax= 4.56D+03 ExpMxC= 6.82D+02 IAcc=3 IRadAn=         5 AccDes= 0.00D+00
 HarFok:  IExCor=  205 AccDes= 0.00D+00 IRadAn=         5 IDoV=-2 UseB2=F ITyADJ=14
 ICtDFT= 12500011 ScaDFX=  1.000000  1.000000  1.000000  1.000000
 Largest valence mixing into a core orbital is  1.33D-04
 Largest core mixing into a valence orbital is  4.30D-05
 Range of M.O.s used for correlation:     4    80
 NBasis=    80 NAE=    10 NBE=    10 NFC=     3 NFV=     0
 NROrb=     77 NOA=     7 NOB=     7 NVA=    70 NVB=    70

 **** Warning!!: The largest alpha MO coefficient is  0.23634814D+03

 Leave Link  801 at Tue Oct 10 02:26:17 2017, MaxMem=    33554432 cpu:         0.4
 (Enter /usr/local/gaussian/2009-E.01/g09/l804.exe)
 Closed-shell transformation, MDV=    33554432 ITran=4 ISComp=2.
 Semi-Direct transformation.
 ModeAB=           4 MOrb=             7 LenV=      33289225
 LASXX=       398139 LTotXX=      398139 LenRXX=      814871
 LTotAB=      416732 MaxLAS=     1087702 LenRXY=           0
 NonZer=     1213010 LenScr=     2424832 LnRSAI=     1087702
 LnScr1=     2357760 LExtra=           0 Total=      6685165
 MaxDsk=          -1 SrtSym=           T ITran=            4
 DoSDTr:  NPSUse=  8
 JobTyp=0 Pass  1:  I=   1 to   7.
 (rs|ai) integrals will be sorted in core.
 Complete sort for first half transformation.
 First half transformation complete.
 Complete sort for second half transformation.
 Second half transformation complete.
 Spin components of T(2) and E(2):
     alpha-alpha T2 =       0.1948824888D-01 E2=     -0.4616193422D-01
     alpha-beta  T2 =       0.1146104664D+00 E2=     -0.2827729278D+00
     beta-beta   T2 =       0.1948824888D-01 E2=     -0.4616193422D-01
 ANorm=    0.1074051658D+01
 E2 =    -0.3750967963D+00 EUMP2 =    -0.11497265281941D+03
 Leave Link  804 at Tue Oct 10 02:26:18 2017, MaxMem=    33554432 cpu:         2.1
 (Enter /usr/local/gaussian/2009-E.01/g09/l913.exe)
 CIDS:  MDV=    33554432.
 Frozen-core window:  NFC=   3 NFV=   0.
 IFCWin=0 IBDFC=1 NFBD=     0     0 NFCmp=     0     0 NFFFC=     0     0
 Using DD3R+UMP44R for 1st iteration, S=T.
 Using DD4RQ for 2nd and later iterations.
 Keep R2 and R3 ints in memory in symmetry-blocked form, NReq=6662763.
 FoFCou: FMM=F IPFlag=           0 FMFlag=           0 FMFlg1=           0
         NFxFlg=           0 DoJE=F BraDBF=F KetDBF=F FulRan=T
         wScrn=  0.000000 ICntrl=     600 IOpCl=  0 I1Cent=           0 NGrid=           0
         NMat0=    1 NMatS0=   3240 NMatT0=    0 NMatD0=    1 NMtDS0=    0 NMtDT0=    0
 Petite list used in FoFCou.
 CCSD(T)
 =======
 Iterations= 200 Convergence= 0.100D-06
 Iteration Nr.   1
 **********************
 DD1Dir will call FoFMem   1 times, MxPair=        56
 NAB=    28 NAA=     0 NBB=     0.
 MP4(R+Q)=  0.11065847D-01
 Maximum subspace dimension=  5
 Norm of the A-vectors is  5.5226655D-01 conv= 1.00D-05.
 RLE energy=       -0.3821016778
 E3=       -0.17966339D-01        EUMP3=      -0.11499061916D+03
 E4(DQ)=   -0.12055900D-03        UMP4(DQ)=   -0.11499073972D+03
 E4(SDQ)=  -0.91112487D-02        UMP4(SDQ)=  -0.11499973041D+03
 VARIATIONAL ENERGIES WITH THE FIRST-ORDER WAVEFUNCTION:
 DE(Corr)= -0.38197326     E(Corr)=     -114.97952929    
 NORM(A)=   0.10811401D+01
 Iteration Nr.   2
 **********************
 DD1Dir will call FoFMem   1 times, MxPair=        56
 NAB=    28 NAA=     0 NBB=     0.
 Norm of the A-vectors is  2.6099046D-01 conv= 1.00D-05.
 RLE energy=       -0.4010639248
 DE(Corr)= -0.39882032     E(CORR)=     -114.99637635     Delta=-1.68D-02
 NORM(A)=   0.10944316D+01
 Iteration Nr.   3
 **********************
 DD1Dir will call FoFMem   1 times, MxPair=        56
 NAB=    28 NAA=     0 NBB=     0.
 Norm of the A-vectors is  7.6703046D-02 conv= 1.00D-05.
 RLE energy=       -0.4028144439
 DE(Corr)= -0.40020811     E(CORR)=     -114.99776413     Delta=-1.39D-03
 NORM(A)=   0.11013746D+01
 Iteration Nr.   4
 **********************
 DD1Dir will call FoFMem   1 times, MxPair=        56
 NAB=    28 NAA=     0 NBB=     0.
 Norm of the A-vectors is  3.9955593D-02 conv= 1.00D-05.
 RLE energy=       -0.4035333429
 DE(Corr)= -0.40305546     E(CORR)=     -115.00061148     Delta=-2.85D-03
 NORM(A)=   0.11046280D+01
 Iteration Nr.   5
 **********************
 DD1Dir will call FoFMem   1 times, MxPair=        56
 NAB=    28 NAA=     0 NBB=     0.
 Norm of the A-vectors is  1.5971372D-02 conv= 1.00D-05.
 RLE energy=       -0.4036538239
 DE(Corr)= -0.40353219     E(CORR)=     -115.00108822     Delta=-4.77D-04
 NORM(A)=   0.11054628D+01
 Iteration Nr.   6
 **********************
 DD1Dir will call FoFMem   1 times, MxPair=        56
 NAB=    28 NAA=     0 NBB=     0.
 Norm of the A-vectors is  7.2756876D-03 conv= 1.00D-05.
 RLE energy=       -0.4035540248
 DE(Corr)= -0.40361224     E(CORR)=     -115.00116827     Delta=-8.01D-05
 NORM(A)=   0.11055688D+01
 Iteration Nr.   7
 **********************
 DD1Dir will call FoFMem   1 times, MxPair=        56
 NAB=    28 NAA=     0 NBB=     0.
 Norm of the A-vectors is  3.4815032D-03 conv= 1.00D-05.
 RLE energy=       -0.4036407041
 DE(Corr)= -0.40362622     E(CORR)=     -115.00118224     Delta=-1.40D-05
 NORM(A)=   0.11056407D+01
 Iteration Nr.   8
 **********************
 DD1Dir will call FoFMem   1 times, MxPair=        56
 NAB=    28 NAA=     0 NBB=     0.
 Norm of the A-vectors is  1.9448336D-03 conv= 1.00D-05.
 RLE energy=       -0.4036108103
 DE(Corr)= -0.40361763     E(CORR)=     -115.00117366     Delta= 8.58D-06
 NORM(A)=   0.11056306D+01
 Iteration Nr.   9
 **********************
 DD1Dir will call FoFMem   1 times, MxPair=        56
 NAB=    28 NAA=     0 NBB=     0.
 Norm of the A-vectors is  9.0354686D-04 conv= 1.00D-05.
 RLE energy=       -0.4036369232
 DE(Corr)= -0.40363428     E(CORR)=     -115.00119030     Delta=-1.66D-05
 NORM(A)=   0.11056426D+01
 Iteration Nr.  10
 **********************
 DD1Dir will call FoFMem   1 times, MxPair=        56
 NAB=    28 NAA=     0 NBB=     0.
 Norm of the A-vectors is  3.7930241D-04 conv= 1.00D-05.
 RLE energy=       -0.4036321835
 DE(Corr)= -0.40363080     E(CORR)=     -115.00118682     Delta= 3.48D-06
 NORM(A)=   0.11056452D+01
 Iteration Nr.  11
 **********************
 DD1Dir will call FoFMem   1 times, MxPair=        56
 NAB=    28 NAA=     0 NBB=     0.
 Norm of the A-vectors is  1.7083435D-04 conv= 1.00D-05.
 RLE energy=       -0.4036348077
 DE(Corr)= -0.40363444     E(CORR)=     -115.00119047     Delta=-3.65D-06
 NORM(A)=   0.11056509D+01
 Iteration Nr.  12
 **********************
 DD1Dir will call FoFMem   1 times, MxPair=        56
 NAB=    28 NAA=     0 NBB=     0.
 Norm of the A-vectors is  7.2951489D-05 conv= 1.00D-05.
 RLE energy=       -0.4036354533
 DE(Corr)= -0.40363490     E(CORR)=     -115.00119092     Delta=-4.55D-07
 NORM(A)=   0.11056546D+01
 Iteration Nr.  13
 **********************
 DD1Dir will call FoFMem   1 times, MxPair=        56
 NAB=    28 NAA=     0 NBB=     0.
 Norm of the A-vectors is  4.0800016D-05 conv= 1.00D-05.
 RLE energy=       -0.4036356443
 DE(Corr)= -0.40363555     E(CORR)=     -115.00119158     Delta=-6.55D-07
 NORM(A)=   0.11056569D+01
 Iteration Nr.  14
 **********************
 DD1Dir will call FoFMem   1 times, MxPair=        56
 NAB=    28 NAA=     0 NBB=     0.
 Norm of the A-vectors is  2.0360755D-05 conv= 1.00D-05.
 RLE energy=       -0.4036361972
 DE(Corr)= -0.40363594     E(CORR)=     -115.00119197     Delta=-3.91D-07
 NORM(A)=   0.11056583D+01
 Iteration Nr.  15
 **********************
 DD1Dir will call FoFMem   1 times, MxPair=        56
 NAB=    28 NAA=     0 NBB=     0.
 Norm of the A-vectors is  1.1968656D-05 conv= 1.00D-05.
 RLE energy=       -0.4036360873
 DE(Corr)= -0.40363607     E(CORR)=     -115.00119209     Delta=-1.27D-07
 NORM(A)=   0.11056587D+01
 Iteration Nr.  16
 **********************
 DD1Dir will call FoFMem   1 times, MxPair=        56
 NAB=    28 NAA=     0 NBB=     0.
 Norm of the A-vectors is  6.5175305D-06 conv= 1.00D-05.
 RLE energy=       -0.4036362435
 DE(Corr)= -0.40363621     E(CORR)=     -115.00119223     Delta=-1.36D-07
 NORM(A)=   0.11056589D+01
 Iteration Nr.  17
 **********************
 DD1Dir will call FoFMem   1 times, MxPair=        56
 NAB=    28 NAA=     0 NBB=     0.
 Norm of the A-vectors is  4.1714747D-06 conv= 1.00D-05.
 RLE energy=       -0.4036361908
 DE(Corr)= -0.40363619     E(CORR)=     -115.00119221     Delta= 1.82D-08
 NORM(A)=   0.11056588D+01
 CI/CC converged in   17 iterations to DelEn= 1.82D-08 Conv= 1.00D-07 ErrA1= 4.17D-06 Conv= 1.00D-05
 Largest amplitude= 8.44D-02
 IPart=  7 IA=    5   11.18% done.
 IPart=  6 IA=    9   21.70% done.
 IPart=  5 IA=   13   31.55% done.
 IPart=  8 IA=   17   40.75% done.
 IPart=  1 IA=   22   51.30% done.
 IPart=  6 IA=   27   60.83% done.
 IPart=  5 IA=   33   70.89% done.
 IPart=  4 IA=   40   80.75% done.
 IPart=  5 IA=   49   90.43% done.
 Time for triples=       50.71 seconds.
 T4(CCSD)= -0.24765555D-01
 T5(CCSD)=  0.18936875D-02
 CCSD(T)= -0.11502406408D+03
 Discarding MO integrals.
 Leave Link  913 at Tue Oct 10 02:26:46 2017, MaxMem=    33554432 cpu:       203.9
 (Enter /usr/local/gaussian/2009-E.01/g09/l601.exe)
 Copying SCF densities to generalized density rwf, IOpCl= 0 IROHF=0.

 **********************************************************************

            Population analysis using the SCF density.

 **********************************************************************

 Orbital symmetries:
       Occupied  (AG) (BU) (AG) (AG) (BU) (AG) (BU) (BU) (AU) (AG)
       Virtual   (BG) (AG) (BU) (BU) (AU) (AG) (BU) (AG) (BG) (BU)
                 (AG) (AU) (BU) (BU) (AG) (AG) (AU) (BU) (BU) (AG)
                 (BU) (AG) (AG) (AU) (BU) (BG) (AG) (BU) (AU) (BU)
                 (BU) (AG) (BU) (AG) (BG) (BU) (AG) (BG) (AU) (AG)
                 (BU) (BG) (AG) (AU) (BU) (AG) (BU) (BG) (AU) (AG)
                 (AG) (BU) (BG) (AG) (BU) (BU) (AU) (AG) (AG) (BU)
                 (AU) (BG) (BU) (AG) (BU) (AG) (BU) (AG) (BU) (AG)
 The electronic state is 1-AG.
 Alpha  occ. eigenvalues --  -11.28590 -11.28565 -11.27619  -1.09519  -0.95486
 Alpha  occ. eigenvalues --   -0.71798  -0.67007  -0.48247  -0.45177  -0.34800
 Alpha virt. eigenvalues --    0.00899   0.04559   0.05364   0.09584   0.10309
 Alpha virt. eigenvalues --    0.11857   0.13720   0.14696   0.16316   0.16842
 Alpha virt. eigenvalues --    0.18274   0.18933   0.19891   0.21868   0.26801
 Alpha virt. eigenvalues --    0.28423   0.29923   0.31198   0.34876   0.50519
 Alpha virt. eigenvalues --    0.59289   0.63723   0.66825   0.69843   0.71659
 Alpha virt. eigenvalues --    0.75778   0.77192   0.77526   0.84100   0.85755
 Alpha virt. eigenvalues --    0.92562   0.94279   1.10039   1.11786   1.25166
 Alpha virt. eigenvalues --    1.29580   1.33550   1.36384   1.39610   1.54808
 Alpha virt. eigenvalues --    1.58205   1.67969   1.73716   1.85189   1.94513
 Alpha virt. eigenvalues --    2.02933   2.06671   2.17447   2.18104   2.28458
 Alpha virt. eigenvalues --    2.48322   2.53232   2.70366   2.85372   2.85634
 Alpha virt. eigenvalues --    2.92155   3.06168   3.12250   3.20546   3.23191
 Alpha virt. eigenvalues --    3.27139   3.29217   3.40712   3.42090   3.83687
 Alpha virt. eigenvalues --    3.93630   4.34484  24.56271  25.08241  25.97377
          Condensed to atoms (all electrons):
               1          2          3          4          5
     1  C    6.898482  -0.726253  -0.726253  -0.019494  -0.019494
     2  C   -0.726253  11.593836  -4.777633   0.329144   0.031992
     3  C   -0.726253  -4.777633  11.593836   0.031992   0.329144
     4  H   -0.019494   0.329144   0.031992   0.500441   0.003338
     5  H   -0.019494   0.031992   0.329144   0.003338   0.500441
 Mulliken charges:
               1
     1  C    0.593013
     2  C   -0.451085
     3  C   -0.451085
     4  H    0.154579
     5  H    0.154579
 Sum of Mulliken charges =  -0.00000
 Mulliken charges with hydrogens summed into heavy atoms:
               1
     1  C    0.593013
     2  C   -0.296506
     3  C   -0.296506
 Electronic spatial extent (au):  <R**2>=            144.3422
 Charge=             -0.0000 electrons
 Dipole moment (field-independent basis, Debye):
    X=              0.0000    Y=             -0.0000    Z=             -0.0000  Tot=              0.0000
 Quadrupole moment (field-independent basis, Debye-Ang):
   XX=            -19.3827   YY=            -16.9006   ZZ=            -18.2054
   XY=              6.4782   XZ=              0.0000   YZ=              0.0000
 Traceless Quadrupole moment (field-independent basis, Debye-Ang):
   XX=             -1.2198   YY=              1.2623   ZZ=             -0.0425
   XY=              6.4782   XZ=              0.0000   YZ=              0.0000
 Octapole moment (field-independent basis, Debye-Ang**2):
  XXX=              0.0000  YYY=             -0.0000  ZZZ=              0.0000  XYY=              0.0000
  XXY=              0.0000  XXZ=              0.0000  XZZ=              0.0000  YZZ=              0.0000
  YYZ=              0.0000  XYZ=             -0.0000
 Hexadecapole moment (field-independent basis, Debye-Ang**3):
 XXXX=            -30.2017 YYYY=           -164.0592 ZZZZ=            -21.0745 XXXY=              1.9876
 XXXZ=             -0.0000 YYYX=             22.4849 YYYZ=             -0.0000 ZZZX=             -0.0000
 ZZZY=             -0.0000 XXYY=            -32.1814 XXZZ=             -8.8186 YYZZ=            -30.3662
 XXYZ=             -0.0000 YYXZ=              0.0000 ZZXY=             -0.3467
 N-N= 4.784115288508D+01 E-N=-3.622441588025D+02  KE= 1.145028907584D+02
 Symmetry AG   KE= 7.241752591299D+01
 Symmetry BG   KE= 4.972380113968D-32
 Symmetry AU   KE= 2.015055610388D+00
 Symmetry BU   KE= 4.007030923506D+01
 Leave Link  601 at Tue Oct 10 02:26:46 2017, MaxMem=    33554432 cpu:         0.2
 (Enter /usr/local/gaussian/2009-E.01/g09/l9999.exe)
 1\1\ WCSS.PL-BEM-WN1424\SP\RCCSD(T)-FC\6-311++G(d,p)\C3H2\ROOT\10-Oct-
 2017\0\\#p ccsd(t,maxcyc=200)/6-311++G(d,p)\\ccsd(t) iener\\0,1\C,0,0.
 ,0.,0.\C,0,1.101469,0.665764,0.\C,0,-1.101469,-0.665764,0.\H,0,1.25800
 6,1.736784,0.\H,0,-1.258006,-1.736784,0.\\Version=ES64L-G09RevE.01\Sta
 te=1-AG\HF=-114.597556\MP2=-114.9726528\MP3=-114.9906192\MP4D=-115.001
 8056\MP4DQ=-114.9907397\MP4SDQ=-114.9997304\CCSD=-115.0011922\CCSD(T)=
 -115.0240641\RMSD=6.686e-09\PG=C02H [O(C1),SGH(C2H2)]\\@


 In the beginning there was nothing, which exploded.
 Job cpu time:       0 days  0 hours  3 minutes 56.5 seconds.
 File lengths (MBytes):  RWF=     59 Int=      0 D2E=      0 Chk=      1 Scr=      1
 Normal termination of Gaussian 09 at Tue Oct 10 02:26:47 2017.
