 Entering Gaussian System, Link 0=/usr/local/gaussian/2009-E.01/g09/g09
 Initial command:
 /usr/local/gaussian/2009-E.01/g09/l1.exe "/lustre/scratch/eerd/4986703.achilles/Gau-190083.inp" -scrdir="/lustre/scratch/eerd/4986703.achilles/"
 Entering Link 1 = /usr/local/gaussian/2009-E.01/g09/l1.exe PID=    190085.
  
 Copyright (c) 1988,1990,1992,1993,1995,1998,2003,2009,2015,
            Gaussian, Inc.  All Rights Reserved.
  
 This is part of the Gaussian(R) 09 program.  It is based on
 the Gaussian(R) 03 system (copyright 2003, Gaussian, Inc.),
 the Gaussian(R) 98 system (copyright 1998, Gaussian, Inc.),
 the Gaussian(R) 94 system (copyright 1995, Gaussian, Inc.),
 the Gaussian 92(TM) system (copyright 1992, Gaussian, Inc.),
 the Gaussian 90(TM) system (copyright 1990, Gaussian, Inc.),
 the Gaussian 88(TM) system (copyright 1988, Gaussian, Inc.),
 the Gaussian 86(TM) system (copyright 1986, Carnegie Mellon
 University), and the Gaussian 82(TM) system (copyright 1983,
 Carnegie Mellon University). Gaussian is a federally registered
 trademark of Gaussian, Inc.
  
 This software contains proprietary and confidential information,
 including trade secrets, belonging to Gaussian, Inc.
  
 This software is provided under written license and may be
 used, copied, transmitted, or stored only in accord with that
 written license.
  
 The following legend is applicable only to US Government
 contracts under FAR:
  
                    RESTRICTED RIGHTS LEGEND
  
 Use, reproduction and disclosure by the US Government is
 subject to restrictions as set forth in subparagraphs (a)
 and (c) of the Commercial Computer Software - Restricted
 Rights clause in FAR 52.227-19.
  
 Gaussian, Inc.
 340 Quinnipiac St., Bldg. 40, Wallingford CT 06492
  
  
 ---------------------------------------------------------------
 Warning -- This program may not be used in any manner that
 competes with the business of Gaussian, Inc. or will provide
 assistance to any competitor of Gaussian, Inc.  The licensee
 of this program is prohibited from giving any competitor of
 Gaussian, Inc. access to this program.  By using this program,
 the user acknowledges that Gaussian, Inc. is engaged in the
 business of creating and licensing software in the field of
 computational chemistry and represents and warrants to the
 licensee that it is not a competitor of Gaussian, Inc. and that
 it will not use this program in any manner prohibited above.
 ---------------------------------------------------------------
  

 Cite this work as:
 Gaussian 09, Revision E.01,
 M. J. Frisch, G. W. Trucks, H. B. Schlegel, G. E. Scuseria, 
 M. A. Robb, J. R. Cheeseman, G. Scalmani, V. Barone, B. Mennucci, 
 G. A. Petersson, H. Nakatsuji, M. Caricato, X. Li, H. P. Hratchian, 
 A. F. Izmaylov, J. Bloino, G. Zheng, J. L. Sonnenberg, M. Hada, 
 M. Ehara, K. Toyota, R. Fukuda, J. Hasegawa, M. Ishida, T. Nakajima, 
 Y. Honda, O. Kitao, H. Nakai, T. Vreven, J. A. Montgomery, Jr., 
 J. E. Peralta, F. Ogliaro, M. Bearpark, J. J. Heyd, E. Brothers, 
 K. N. Kudin, V. N. Staroverov, T. Keith, R. Kobayashi, J. Normand, 
 K. Raghavachari, A. Rendell, J. C. Burant, S. S. Iyengar, J. Tomasi, 
 M. Cossi, N. Rega, J. M. Millam, M. Klene, J. E. Knox, J. B. Cross, 
 V. Bakken, C. Adamo, J. Jaramillo, R. Gomperts, R. E. Stratmann, 
 O. Yazyev, A. J. Austin, R. Cammi, C. Pomelli, J. W. Ochterski, 
 R. L. Martin, K. Morokuma, V. G. Zakrzewski, G. A. Voth, 
 P. Salvador, J. J. Dannenberg, S. Dapprich, A. D. Daniels, 
 O. Farkas, J. B. Foresman, J. V. Ortiz, J. Cioslowski, 
 and D. J. Fox, Gaussian, Inc., Wallingford CT, 2013.
 
 ******************************************
 Gaussian 09:  ES64L-G09RevE.01 30-Nov-2015
                10-Oct-2017 
 ******************************************
 %NProcShared=8
 Will use up to    8 processors via shared memory.
 -----------------------------------
 #p ccsd(t,maxcyc=200)/6-311++G(d,p)
 -----------------------------------
 1/38=1/1;
 2/12=2,17=6,18=5,40=1/2;
 3/5=4,6=6,7=1111,11=9,16=1,25=1,30=1/1,2,3;
 4//1;
 5/5=2,38=5/2;
 8/6=4,9=120000,10=2/1,4;
 9/5=7,6=200,14=2/13;
 6/7=2,8=2,9=2,10=2/1;
 99/5=1,9=1/99;
 Leave Link    1 at Tue Oct 10 05:37:50 2017, MaxMem=           0 cpu:         2.5
 (Enter /usr/local/gaussian/2009-E.01/g09/l101.exe)
 -------------
 ccsd(t) iener
 -------------
 Symbolic Z-matrix:
 Charge =  0 Multiplicity = 1
 C                     0.70142   0.52253  -0.52832 
 C                    -0.62922   0.32903  -0.90309 
 C                    -0.80606  -0.07437   0.45375 
 C                     0.52407  -0.68782   0.2056 
 H                     1.41899   1.33112  -0.5442 
 H                    -1.18795   0.24414  -1.82483 
 
 NAtoms=      6 NQM=        6 NQMF=       0 NMMI=      0 NMMIF=      0
                NMic=       0 NMicF=      0.
                    Isotopes and Nuclear Properties:
 (Nuclear quadrupole moments (NQMom) in fm**2, nuclear magnetic moments (NMagM)
  in nuclear magnetons)

  Atom         1           2           3           4           5           6
 IAtWgt=          12          12          12          12           1           1
 AtmWgt=  12.0000000  12.0000000  12.0000000  12.0000000   1.0078250   1.0078250
 NucSpn=           0           0           0           0           1           1
 AtZEff=   0.0000000   0.0000000   0.0000000   0.0000000   0.0000000   0.0000000
 NQMom=    0.0000000   0.0000000   0.0000000   0.0000000   0.0000000   0.0000000
 NMagM=    0.0000000   0.0000000   0.0000000   0.0000000   2.7928460   2.7928460
 AtZNuc=   6.0000000   6.0000000   6.0000000   6.0000000   1.0000000   1.0000000
 Leave Link  101 at Tue Oct 10 05:37:50 2017, MaxMem=    33554432 cpu:         0.5
 (Enter /usr/local/gaussian/2009-E.01/g09/l202.exe)
                          Input orientation:                          
 ---------------------------------------------------------------------
 Center     Atomic      Atomic             Coordinates (Angstroms)
 Number     Number       Type             X           Y           Z
 ---------------------------------------------------------------------
      1          6           0        0.701415    0.522532   -0.528315
      2          6           0       -0.629216    0.329029   -0.903093
      3          6           0       -0.806064   -0.074375    0.453748
      4          6           0        0.524068   -0.687816    0.205600
      5          1           0        1.418994    1.331122   -0.544198
      6          1           0       -1.187953    0.244140   -1.824829
 ---------------------------------------------------------------------
                    Distance matrix (angstroms):
                    1          2          3          4          5
     1  C    0.000000
     2  C    1.395880   0.000000
     3  C    1.895584   1.426544   0.000000
     4  C    1.426544   1.895584   1.485644   0.000000
     5  H    1.081198   2.308281   2.814640   2.332209   0.000000
     6  H    2.308281   1.081198   2.332209   2.814640   3.101244
                    6
     6  H    0.000000
 Stoichiometry    C4H2
 Framework group  C2[X(C4H2)]
 Deg. of freedom     7
 Full point group                 C2      NOp   2
 Largest Abelian subgroup         C2      NOp   2
 Largest concise Abelian subgroup C2      NOp   2
                         Standard orientation:                         
 ---------------------------------------------------------------------
 Center     Atomic      Atomic             Coordinates (Angstroms)
 Number     Number       Type             X           Y           Z
 ---------------------------------------------------------------------
      1          6           0       -0.671177    0.191420    0.568980
      2          6           0        0.671177   -0.191420    0.568980
      3          6           0        0.671177    0.318285   -0.763396
      4          6           0       -0.671177   -0.318285   -0.763396
      5          1           0       -1.314736    0.822130    1.166496
      6          1           0        1.314736   -0.822130    1.166496
 ---------------------------------------------------------------------
 Rotational constants (GHZ):     17.3884253     16.9703051     10.2097005
 Leave Link  202 at Tue Oct 10 05:37:50 2017, MaxMem=    33554432 cpu:         0.0
 (Enter /usr/local/gaussian/2009-E.01/g09/l301.exe)
 Standard basis: 6-311++G(d,p) (5D, 7F)
 Ernie: Thresh=  0.10000D-02 Tol=  0.10000D-05 Strict=F.
 There are    53 symmetry adapted cartesian basis functions of A   symmetry.
 There are    53 symmetry adapted cartesian basis functions of B   symmetry.
 There are    51 symmetry adapted basis functions of A   symmetry.
 There are    51 symmetry adapted basis functions of B   symmetry.
   102 basis functions,   162 primitive gaussians,   106 cartesian basis functions
    13 alpha electrons       13 beta electrons
       nuclear repulsion energy        87.0525381058 Hartrees.
 IExCor=    0 DFT=F Ex=HF Corr=None ExCW=0 ScaHFX=  1.000000
 ScaDFX=  1.000000  1.000000  1.000000  1.000000 ScalE2=  1.000000  1.000000
 IRadAn=      0 IRanWt=     -1 IRanGd=            0 ICorTp=0 IEmpDi=  4
 NAtoms=    6 NActive=    6 NUniq=    3 SFac= 4.00D+00 NAtFMM=   60 NAOKFM=F Big=F
 Integral buffers will be    131072 words long.
 Raffenetti 1 integral format.
 Two-electron integral symmetry is turned on.
 Leave Link  301 at Tue Oct 10 05:37:50 2017, MaxMem=    33554432 cpu:         0.4
 (Enter /usr/local/gaussian/2009-E.01/g09/l302.exe)
 NPDir=0 NMtPBC=     1 NCelOv=     1 NCel=       1 NClECP=     1 NCelD=      1
         NCelK=      1 NCelE2=     1 NClLst=     1 CellRange=     0.0.
 One-electron integrals computed using PRISM.
 One-electron integral symmetry used in STVInt
 NBasis=   102 RedAO= T EigKep=  5.10D-05  NBF=    51    51
 NBsUse=   102 1.00D-06 EigRej= -1.00D+00 NBFU=    51    51
 Leave Link  302 at Tue Oct 10 05:37:51 2017, MaxMem=    33554432 cpu:         1.2
 (Enter /usr/local/gaussian/2009-E.01/g09/l303.exe)
 DipDrv:  MaxL=1.
 Leave Link  303 at Tue Oct 10 05:37:51 2017, MaxMem=    33554432 cpu:         0.2
 (Enter /usr/local/gaussian/2009-E.01/g09/l401.exe)
 ExpMin= 3.60D-02 ExpMax= 4.56D+03 ExpMxC= 6.82D+02 IAcc=3 IRadAn=         5 AccDes= 0.00D+00
 Harris functional with IExCor=  205 and IRadAn=       5 diagonalized for initial guess.
 HarFok:  IExCor=  205 AccDes= 0.00D+00 IRadAn=         5 IDoV= 1 UseB2=F ITyADJ=14
 ICtDFT=  3500011 ScaDFX=  1.000000  1.000000  1.000000  1.000000
 FoFCou: FMM=F IPFlag=           0 FMFlag=      100000 FMFlg1=           0
         NFxFlg=           0 DoJE=T BraDBF=F KetDBF=T FulRan=T
         wScrn=  0.000000 ICntrl=     500 IOpCl=  0 I1Cent=   200000004 NGrid=           0
         NMat0=    1 NMatS0=      1 NMatT0=    0 NMatD0=    1 NMtDS0=    0 NMtDT0=    0
 Petite list used in FoFCou.
 Harris En= -152.550266250275    
 JPrj=0 DoOrth=F DoCkMO=F.
 Initial guess orbital symmetries:
       Occupied  (A) (B) (A) (B) (A) (B) (A) (B) (A) (A) (B) (A)
                 (B)
       Virtual   (A) (B) (A) (A) (B) (B) (A) (A) (B) (A) (A) (B)
                 (B) (B) (A) (B) (A) (A) (B) (B) (A) (B) (B) (A)
                 (B) (A) (B) (A) (A) (B) (A) (B) (A) (B) (A) (B)
                 (A) (B) (A) (B) (B) (B) (A) (A) (B) (A) (B) (B)
                 (B) (A) (A) (A) (B) (A) (B) (A) (A) (B) (A) (B)
                 (B) (A) (A) (B) (A) (B) (B) (A) (B) (B) (A) (A)
                 (B) (A) (B) (A) (A) (B) (A) (B) (A) (B) (A) (B)
                 (B) (A) (B) (A) (B)
 The electronic state of the initial guess is 1-A.
 Leave Link  401 at Tue Oct 10 05:37:51 2017, MaxMem=    33554432 cpu:         1.9
 (Enter /usr/local/gaussian/2009-E.01/g09/l502.exe)
 Closed shell SCF:
 Using DIIS extrapolation, IDIIS=  1040.
 Integral symmetry usage will be decided dynamically.
 Keep R1 ints in memory in symmetry-blocked form, NReq=20766762.
 IVT=       54030 IEndB=       54030 NGot=    33554432 MDV=    26587404
 LenX=    26587404 LenY=    26575727
 Requested convergence on RMS density matrix=1.00D-08 within 128 cycles.
 Requested convergence on MAX density matrix=1.00D-06.
 Requested convergence on             energy=1.00D-06.
 No special actions if energy rises.
 FoFCou: FMM=F IPFlag=           0 FMFlag=           0 FMFlg1=           0
         NFxFlg=           0 DoJE=F BraDBF=F KetDBF=F FulRan=T
         wScrn=  0.000000 ICntrl=     600 IOpCl=  0 I1Cent=           0 NGrid=           0
         NMat0=    1 NMatS0=   5253 NMatT0=    0 NMatD0=    1 NMtDS0=    0 NMtDT0=    0
 Petite list used in FoFCou.

 Cycle   1  Pass 1  IDiag  1:
 E= -152.313109322691    
 DIIS: error= 4.82D-02 at cycle   1 NSaved=   1.
 NSaved= 1 IEnMin= 1 EnMin= -152.313109322691     IErMin= 1 ErrMin= 4.82D-02
 ErrMax= 4.82D-02  0.00D+00 EMaxC= 1.00D-01 BMatC= 2.47D-01 BMatP= 2.47D-01
 IDIUse=3 WtCom= 5.18D-01 WtEn= 4.82D-01
 Coeff-Com:  0.100D+01
 Coeff-En:   0.100D+01
 Coeff:      0.100D+01
 Gap=     0.480 Goal=   None    Shift=    0.000
 GapD=    0.480 DampG=2.000 DampE=0.500 DampFc=1.0000 IDamp=-1.
 RMSDP=7.86D-03 MaxDP=1.62D-01              OVMax= 9.39D-02

 Cycle   2  Pass 1  IDiag  1:
 E= -152.414859814505     Delta-E=       -0.101750491815 Rises=F Damp=F
 DIIS: error= 1.05D-02 at cycle   2 NSaved=   2.
 NSaved= 2 IEnMin= 2 EnMin= -152.414859814505     IErMin= 2 ErrMin= 1.05D-02
 ErrMax= 1.05D-02  0.00D+00 EMaxC= 1.00D-01 BMatC= 9.39D-03 BMatP= 2.47D-01
 IDIUse=3 WtCom= 8.95D-01 WtEn= 1.05D-01
 Coeff-Com:  0.405D-01 0.960D+00
 Coeff-En:   0.000D+00 0.100D+01
 Coeff:      0.362D-01 0.964D+00
 Gap=     0.415 Goal=   None    Shift=    0.000
 RMSDP=2.32D-03 MaxDP=3.66D-02 DE=-1.02D-01 OVMax= 3.62D-02

 Cycle   3  Pass 1  IDiag  1:
 E= -152.423531465981     Delta-E=       -0.008671651476 Rises=F Damp=F
 DIIS: error= 4.34D-03 at cycle   3 NSaved=   3.
 NSaved= 3 IEnMin= 3 EnMin= -152.423531465981     IErMin= 3 ErrMin= 4.34D-03
 ErrMax= 4.34D-03  0.00D+00 EMaxC= 1.00D-01 BMatC= 1.17D-03 BMatP= 9.39D-03
 IDIUse=3 WtCom= 9.57D-01 WtEn= 4.34D-02
 Coeff-Com: -0.200D-01 0.227D+00 0.793D+00
 Coeff-En:   0.000D+00 0.000D+00 0.100D+01
 Coeff:     -0.192D-01 0.217D+00 0.802D+00
 Gap=     0.396 Goal=   None    Shift=    0.000
 RMSDP=4.95D-04 MaxDP=6.34D-03 DE=-8.67D-03 OVMax= 1.20D-02

 Cycle   4  Pass 1  IDiag  1:
 E= -152.424950632462     Delta-E=       -0.001419166481 Rises=F Damp=F
 DIIS: error= 8.88D-04 at cycle   4 NSaved=   4.
 NSaved= 4 IEnMin= 4 EnMin= -152.424950632462     IErMin= 4 ErrMin= 8.88D-04
 ErrMax= 8.88D-04  0.00D+00 EMaxC= 1.00D-01 BMatC= 4.30D-05 BMatP= 1.17D-03
 IDIUse=3 WtCom= 9.91D-01 WtEn= 8.88D-03
 Coeff-Com:  0.336D-02-0.735D-01-0.185D+00 0.126D+01
 Coeff-En:   0.000D+00 0.000D+00 0.000D+00 0.100D+01
 Coeff:      0.333D-02-0.728D-01-0.183D+00 0.125D+01
 Gap=     0.397 Goal=   None    Shift=    0.000
 RMSDP=2.52D-04 MaxDP=5.10D-03 DE=-1.42D-03 OVMax= 9.33D-03

 Cycle   5  Pass 1  IDiag  1:
 E= -152.425152458940     Delta-E=       -0.000201826477 Rises=F Damp=F
 DIIS: error= 5.62D-04 at cycle   5 NSaved=   5.
 NSaved= 5 IEnMin= 5 EnMin= -152.425152458940     IErMin= 5 ErrMin= 5.62D-04
 ErrMax= 5.62D-04  0.00D+00 EMaxC= 1.00D-01 BMatC= 8.65D-06 BMatP= 4.30D-05
 IDIUse=3 WtCom= 9.94D-01 WtEn= 5.62D-03
 Coeff-Com:  0.215D-02-0.253D-01-0.875D-01-0.562D-01 0.117D+01
 Coeff-En:   0.000D+00 0.000D+00 0.000D+00 0.000D+00 0.100D+01
 Coeff:      0.214D-02-0.251D-01-0.870D-01-0.559D-01 0.117D+01
 Gap=     0.397 Goal=   None    Shift=    0.000
 RMSDP=9.15D-05 MaxDP=1.31D-03 DE=-2.02D-04 OVMax= 4.26D-03

 Cycle   6  Pass 1  IDiag  1:
 E= -152.425193193730     Delta-E=       -0.000040734791 Rises=F Damp=F
 DIIS: error= 2.09D-04 at cycle   6 NSaved=   6.
 NSaved= 6 IEnMin= 6 EnMin= -152.425193193730     IErMin= 6 ErrMin= 2.09D-04
 ErrMax= 2.09D-04  0.00D+00 EMaxC= 1.00D-01 BMatC= 2.01D-06 BMatP= 8.65D-06
 IDIUse=3 WtCom= 9.98D-01 WtEn= 2.09D-03
 Coeff-Com: -0.896D-04 0.710D-02 0.106D-01-0.227D+00 0.334D+00 0.876D+00
 Coeff-En:   0.000D+00 0.000D+00 0.000D+00 0.000D+00 0.000D+00 0.100D+01
 Coeff:     -0.894D-04 0.708D-02 0.106D-01-0.226D+00 0.333D+00 0.876D+00
 Gap=     0.397 Goal=   None    Shift=    0.000
 RMSDP=2.91D-05 MaxDP=3.06D-04 DE=-4.07D-05 OVMax= 1.99D-03

 Cycle   7  Pass 1  IDiag  1:
 E= -152.425199749395     Delta-E=       -0.000006555664 Rises=F Damp=F
 DIIS: error= 9.06D-05 at cycle   7 NSaved=   7.
 NSaved= 7 IEnMin= 7 EnMin= -152.425199749395     IErMin= 7 ErrMin= 9.06D-05
 ErrMax= 9.06D-05  0.00D+00 EMaxC= 1.00D-01 BMatC= 2.31D-07 BMatP= 2.01D-06
 IDIUse=1 WtCom= 1.00D+00 WtEn= 0.00D+00
 Coeff-Com: -0.215D-03 0.220D-02 0.803D-02 0.758D-01-0.307D+00-0.218D+00
 Coeff-Com:  0.144D+01
 Coeff:     -0.215D-03 0.220D-02 0.803D-02 0.758D-01-0.307D+00-0.218D+00
 Coeff:      0.144D+01
 Gap=     0.397 Goal=   None    Shift=    0.000
 RMSDP=3.17D-05 MaxDP=6.16D-04 DE=-6.56D-06 OVMax= 9.81D-04

 Cycle   8  Pass 1  IDiag  1:
 E= -152.425201010053     Delta-E=       -0.000001260659 Rises=F Damp=F
 DIIS: error= 1.72D-05 at cycle   8 NSaved=   8.
 NSaved= 8 IEnMin= 8 EnMin= -152.425201010053     IErMin= 8 ErrMin= 1.72D-05
 ErrMax= 1.72D-05  0.00D+00 EMaxC= 1.00D-01 BMatC= 8.91D-09 BMatP= 2.31D-07
 IDIUse=1 WtCom= 1.00D+00 WtEn= 0.00D+00
 Coeff-Com:  0.775D-04-0.124D-02-0.391D-02-0.149D-01 0.971D-01 0.349D-01
 Coeff-Com: -0.547D+00 0.144D+01
 Coeff:      0.775D-04-0.124D-02-0.391D-02-0.149D-01 0.971D-01 0.349D-01
 Coeff:     -0.547D+00 0.144D+01
 Gap=     0.397 Goal=   None    Shift=    0.000
 RMSDP=8.25D-06 MaxDP=1.21D-04 DE=-1.26D-06 OVMax= 1.69D-04

 Cycle   9  Pass 1  IDiag  1:
 E= -152.425201057412     Delta-E=       -0.000000047358 Rises=F Damp=F
 DIIS: error= 3.32D-06 at cycle   9 NSaved=   9.
 NSaved= 9 IEnMin= 9 EnMin= -152.425201057412     IErMin= 9 ErrMin= 3.32D-06
 ErrMax= 3.32D-06  0.00D+00 EMaxC= 1.00D-01 BMatC= 5.07D-10 BMatP= 8.91D-09
 IDIUse=1 WtCom= 1.00D+00 WtEn= 0.00D+00
 Coeff-Com: -0.165D-04 0.349D-03 0.121D-02 0.101D-02-0.199D-01 0.888D-03
 Coeff-Com:  0.127D+00-0.561D+00 0.145D+01
 Coeff:     -0.165D-04 0.349D-03 0.121D-02 0.101D-02-0.199D-01 0.888D-03
 Coeff:      0.127D+00-0.561D+00 0.145D+01
 Gap=     0.397 Goal=   None    Shift=    0.000
 RMSDP=2.06D-06 MaxDP=3.34D-05 DE=-4.74D-08 OVMax= 3.74D-05

 Cycle  10  Pass 1  IDiag  1:
 E= -152.425201060074     Delta-E=       -0.000000002663 Rises=F Damp=F
 DIIS: error= 1.10D-06 at cycle  10 NSaved=  10.
 NSaved=10 IEnMin=10 EnMin= -152.425201060074     IErMin=10 ErrMin= 1.10D-06
 ErrMax= 1.10D-06  0.00D+00 EMaxC= 1.00D-01 BMatC= 3.04D-11 BMatP= 5.07D-10
 IDIUse=1 WtCom= 1.00D+00 WtEn= 0.00D+00
 Coeff-Com:  0.488D-05-0.117D-03-0.441D-03 0.432D-03 0.451D-02-0.161D-02
 Coeff-Com: -0.353D-01 0.206D+00-0.707D+00 0.153D+01
 Coeff:      0.488D-05-0.117D-03-0.441D-03 0.432D-03 0.451D-02-0.161D-02
 Coeff:     -0.353D-01 0.206D+00-0.707D+00 0.153D+01
 Gap=     0.397 Goal=   None    Shift=    0.000
 RMSDP=5.26D-07 MaxDP=7.21D-06 DE=-2.66D-09 OVMax= 1.15D-05

 Cycle  11  Pass 1  IDiag  1:
 E= -152.425201060249     Delta-E=       -0.000000000175 Rises=F Damp=F
 DIIS: error= 3.28D-07 at cycle  11 NSaved=  11.
 NSaved=11 IEnMin=11 EnMin= -152.425201060249     IErMin=11 ErrMin= 3.28D-07
 ErrMax= 3.28D-07  0.00D+00 EMaxC= 1.00D-01 BMatC= 3.31D-12 BMatP= 3.04D-11
 IDIUse=1 WtCom= 1.00D+00 WtEn= 0.00D+00
 Coeff-Com: -0.803D-06 0.258D-04 0.113D-03-0.153D-03-0.869D-03-0.605D-04
 Coeff-Com:  0.949D-02-0.603D-01 0.246D+00-0.800D+00 0.161D+01
 Coeff:     -0.803D-06 0.258D-04 0.113D-03-0.153D-03-0.869D-03-0.605D-04
 Coeff:      0.949D-02-0.603D-01 0.246D+00-0.800D+00 0.161D+01
 Gap=     0.397 Goal=   None    Shift=    0.000
 RMSDP=1.57D-07 MaxDP=2.95D-06 DE=-1.75D-10 OVMax= 4.15D-06

 Cycle  12  Pass 1  IDiag  1:
 E= -152.425201060269     Delta-E=       -0.000000000019 Rises=F Damp=F
 DIIS: error= 8.25D-08 at cycle  12 NSaved=  12.
 NSaved=12 IEnMin=12 EnMin= -152.425201060269     IErMin=12 ErrMin= 8.25D-08
 ErrMax= 8.25D-08  0.00D+00 EMaxC= 1.00D-01 BMatC= 2.74D-13 BMatP= 3.31D-12
 IDIUse=1 WtCom= 1.00D+00 WtEn= 0.00D+00
 Coeff-Com: -0.279D-06 0.505D-05 0.159D-04 0.219D-04-0.317D-03 0.499D-04
 Coeff-Com:  0.162D-02-0.518D-02 0.259D-02 0.785D-01-0.475D+00 0.140D+01
 Coeff:     -0.279D-06 0.505D-05 0.159D-04 0.219D-04-0.317D-03 0.499D-04
 Coeff:      0.162D-02-0.518D-02 0.259D-02 0.785D-01-0.475D+00 0.140D+01
 Gap=     0.397 Goal=   None    Shift=    0.000
 RMSDP=5.09D-08 MaxDP=9.94D-07 DE=-1.92D-11 OVMax= 1.20D-06

 Cycle  13  Pass 1  IDiag  1:
 E= -152.425201060271     Delta-E=       -0.000000000002 Rises=F Damp=F
 DIIS: error= 2.29D-08 at cycle  13 NSaved=  13.
 NSaved=13 IEnMin=13 EnMin= -152.425201060271     IErMin=13 ErrMin= 2.29D-08
 ErrMax= 2.29D-08  0.00D+00 EMaxC= 1.00D-01 BMatC= 2.87D-14 BMatP= 2.74D-13
 IDIUse=1 WtCom= 1.00D+00 WtEn= 0.00D+00
 Coeff-Com:  0.151D-06-0.355D-05-0.134D-04 0.853D-05 0.166D-03-0.795D-04
 Coeff-Com: -0.108D-02 0.592D-02-0.186D-01 0.331D-01 0.518D-01-0.580D+00
 Coeff-Com:  0.151D+01
 Coeff:      0.151D-06-0.355D-05-0.134D-04 0.853D-05 0.166D-03-0.795D-04
 Coeff:     -0.108D-02 0.592D-02-0.186D-01 0.331D-01 0.518D-01-0.580D+00
 Coeff:      0.151D+01
 Gap=     0.397 Goal=   None    Shift=    0.000
 RMSDP=1.96D-08 MaxDP=3.56D-07 DE=-2.19D-12 OVMax= 3.37D-07

 Cycle  14  Pass 1  IDiag  1:
 E= -152.425201060271     Delta-E=        0.000000000000 Rises=F Damp=F
 DIIS: error= 5.96D-09 at cycle  14 NSaved=  14.
 NSaved=14 IEnMin=13 EnMin= -152.425201060271     IErMin=14 ErrMin= 5.96D-09
 ErrMax= 5.96D-09  0.00D+00 EMaxC= 1.00D-01 BMatC= 2.24D-15 BMatP= 2.87D-14
 IDIUse=1 WtCom= 1.00D+00 WtEn= 0.00D+00
 Coeff-Com: -0.377D-07 0.103D-05 0.416D-05-0.246D-05-0.467D-04-0.807D-06
 Coeff-Com:  0.394D-03-0.215D-02 0.752D-02-0.197D-01 0.182D-01 0.111D+00
 Coeff-Com: -0.562D+00 0.145D+01
 Coeff:     -0.377D-07 0.103D-05 0.416D-05-0.246D-05-0.467D-04-0.807D-06
 Coeff:      0.394D-03-0.215D-02 0.752D-02-0.197D-01 0.182D-01 0.111D+00
 Coeff:     -0.562D+00 0.145D+01
 Gap=     0.397 Goal=   None    Shift=    0.000
 RMSDP=5.89D-09 MaxDP=1.23D-07 DE= 1.14D-13 OVMax= 6.45D-08

 SCF Done:  E(RHF) =  -152.425201060     A.U. after   14 cycles
            NFock= 14  Conv=0.59D-08     -V/T= 2.0010
 KE= 1.522793348527D+02 PE=-5.283885831511D+02 EE= 1.366315091324D+02
 Leave Link  502 at Tue Oct 10 05:37:52 2017, MaxMem=    33554432 cpu:         5.2
 (Enter /usr/local/gaussian/2009-E.01/g09/l801.exe)
 Windowed orbitals will be sorted by symmetry type.
 ExpMin= 3.60D-02 ExpMax= 4.56D+03 ExpMxC= 6.82D+02 IAcc=3 IRadAn=         5 AccDes= 0.00D+00
 HarFok:  IExCor=  205 AccDes= 0.00D+00 IRadAn=         5 IDoV=-2 UseB2=F ITyADJ=14
 ICtDFT= 12500011 ScaDFX=  1.000000  1.000000  1.000000  1.000000
 Largest valence mixing into a core orbital is  1.67D-04
 Largest core mixing into a valence orbital is  4.41D-05
 Range of M.O.s used for correlation:     5   102
 NBasis=   102 NAE=    13 NBE=    13 NFC=     4 NFV=     0
 NROrb=     98 NOA=     9 NOB=     9 NVA=    89 NVB=    89

 **** Warning!!: The largest alpha MO coefficient is  0.44042886D+02

 Leave Link  801 at Tue Oct 10 05:37:52 2017, MaxMem=    33554432 cpu:         0.5
 (Enter /usr/local/gaussian/2009-E.01/g09/l804.exe)
 Closed-shell transformation, MDV=    33554432 ITran=4 ISComp=2.
 Semi-Direct transformation.
 ModeAB=           4 MOrb=             9 LenV=      33204332
 LASXX=      1974523 LTotXX=     1974523 LenRXX=     4008574
 LTotAB=     2034051 MaxLAS=     2667168 LenRXY=           0
 NonZer=     5983097 LenScr=     9717760 LnRSAI=     2667168
 LnScr1=     4715520 LExtra=           0 Total=     21109022
 MaxDsk=          -1 SrtSym=           T ITran=            4
 DoSDTr:  NPSUse=  8
 JobTyp=0 Pass  1:  I=   1 to   9.
 (rs|ai) integrals will be sorted in core.
 Complete sort for first half transformation.
 First half transformation complete.
 Complete sort for second half transformation.
 Second half transformation complete.
 Spin components of T(2) and E(2):
     alpha-alpha T2 =       0.2754136820D-01 E2=     -0.6687930503D-01
     alpha-beta  T2 =       0.1496315893D+00 E2=     -0.3807214093D+00
     beta-beta   T2 =       0.2754136820D-01 E2=     -0.6687930503D-01
 ANorm=    0.1097594791D+01
 E2 =    -0.5144800193D+00 EUMP2 =    -0.15293968107960D+03
 Leave Link  804 at Tue Oct 10 05:37:52 2017, MaxMem=    33554432 cpu:         4.2
 (Enter /usr/local/gaussian/2009-E.01/g09/l913.exe)
 CIDS:  MDV=    33554432.
 Frozen-core window:  NFC=   4 NFV=   0.
 IFCWin=0 IBDFC=1 NFBD=     0     0 NFCmp=     0     0 NFFFC=     0     0
 Using DD3R+UMP44R for 1st iteration, S=T.
 Using DD4RQ for 2nd and later iterations.
 Keep R2 and R3 ints in memory in symmetry-blocked form, NReq=20718109.
 FoFCou: FMM=F IPFlag=           0 FMFlag=           0 FMFlg1=           0
         NFxFlg=           0 DoJE=F BraDBF=F KetDBF=F FulRan=T
         wScrn=  0.000000 ICntrl=     600 IOpCl=  0 I1Cent=           0 NGrid=           0
         NMat0=    1 NMatS0=   5253 NMatT0=    0 NMatD0=    1 NMtDS0=    0 NMtDT0=    0
 Petite list used in FoFCou.
 CCSD(T)
 =======
 Iterations= 200 Convergence= 0.100D-06
 Iteration Nr.   1
 **********************
 DD1Dir will call FoFMem   1 times, MxPair=        90
 NAB=    45 NAA=     0 NBB=     0.
 MP4(R+Q)=  0.16022501D-01
 Maximum subspace dimension=  5
 Norm of the A-vectors is  8.8264899D-01 conv= 1.00D-05.
 RLE energy=       -0.5139842078
 E3=       -0.15581811D-01        EUMP3=      -0.15295526289D+03
 E4(DQ)=    0.37270119D-03        UMP4(DQ)=   -0.15295489019D+03
 E4(SDQ)=  -0.81063912D-02        UMP4(SDQ)=  -0.15296336928D+03
 VARIATIONAL ENERGIES WITH THE FIRST-ORDER WAVEFUNCTION:
 DE(Corr)= -0.51398374     E(Corr)=     -152.93918480    
 NORM(A)=   0.11012500D+01
 Iteration Nr.   2
 **********************
 DD1Dir will call FoFMem   1 times, MxPair=        90
 NAB=    45 NAA=     0 NBB=     0.
 Norm of the A-vectors is  3.6605871D-01 conv= 1.00D-05.
 RLE energy=       -0.5368878947
 DE(Corr)= -0.53476560     E(CORR)=     -152.95996666     Delta=-2.08D-02
 NORM(A)=   0.11145709D+01
 Iteration Nr.   3
 **********************
 DD1Dir will call FoFMem   1 times, MxPair=        90
 NAB=    45 NAA=     0 NBB=     0.
 Norm of the A-vectors is  1.0380668D-01 conv= 1.00D-05.
 RLE energy=       -0.5386431337
 DE(Corr)= -0.53597142     E(CORR)=     -152.96117248     Delta=-1.21D-03
 NORM(A)=   0.11207627D+01
 Iteration Nr.   4
 **********************
 DD1Dir will call FoFMem   1 times, MxPair=        90
 NAB=    45 NAA=     0 NBB=     0.
 Norm of the A-vectors is  7.1982813D-02 conv= 1.00D-05.
 RLE energy=       -0.5393213366
 DE(Corr)= -0.53879365     E(CORR)=     -152.96399471     Delta=-2.82D-03
 NORM(A)=   0.11245069D+01
 Iteration Nr.   5
 **********************
 DD1Dir will call FoFMem   1 times, MxPair=        90
 NAB=    45 NAA=     0 NBB=     0.
 Norm of the A-vectors is  2.4953712D-02 conv= 1.00D-05.
 RLE energy=       -0.5397235658
 DE(Corr)= -0.53943546     E(CORR)=     -152.96463652     Delta=-6.42D-04
 NORM(A)=   0.11266108D+01
 Iteration Nr.   6
 **********************
 DD1Dir will call FoFMem   1 times, MxPair=        90
 NAB=    45 NAA=     0 NBB=     0.
 Norm of the A-vectors is  1.3262347D-02 conv= 1.00D-05.
 RLE energy=       -0.5395618181
 DE(Corr)= -0.53962389     E(CORR)=     -152.96482495     Delta=-1.88D-04
 NORM(A)=   0.11268947D+01
 Iteration Nr.   7
 **********************
 DD1Dir will call FoFMem   1 times, MxPair=        90
 NAB=    45 NAA=     0 NBB=     0.
 Norm of the A-vectors is  5.0308744D-03 conv= 1.00D-05.
 RLE energy=       -0.5396281297
 DE(Corr)= -0.53964120     E(CORR)=     -152.96484226     Delta=-1.73D-05
 NORM(A)=   0.11269923D+01
 Iteration Nr.   8
 **********************
 DD1Dir will call FoFMem   1 times, MxPair=        90
 NAB=    45 NAA=     0 NBB=     0.
 Norm of the A-vectors is  2.1813142D-03 conv= 1.00D-05.
 RLE energy=       -0.5396230375
 DE(Corr)= -0.53962896     E(CORR)=     -152.96483002     Delta= 1.22D-05
 NORM(A)=   0.11270030D+01
 Iteration Nr.   9
 **********************
 DD1Dir will call FoFMem   1 times, MxPair=        90
 NAB=    45 NAA=     0 NBB=     0.
 Norm of the A-vectors is  1.0455166D-03 conv= 1.00D-05.
 RLE energy=       -0.5396388551
 DE(Corr)= -0.53963823     E(CORR)=     -152.96483929     Delta=-9.27D-06
 NORM(A)=   0.11270051D+01
 Iteration Nr.  10
 **********************
 DD1Dir will call FoFMem   1 times, MxPair=        90
 NAB=    45 NAA=     0 NBB=     0.
 Norm of the A-vectors is  5.0150634D-04 conv= 1.00D-05.
 RLE energy=       -0.5396366662
 DE(Corr)= -0.53963573     E(CORR)=     -152.96483679     Delta= 2.50D-06
 NORM(A)=   0.11270093D+01
 Iteration Nr.  11
 **********************
 DD1Dir will call FoFMem   1 times, MxPair=        90
 NAB=    45 NAA=     0 NBB=     0.
 Norm of the A-vectors is  3.0218714D-04 conv= 1.00D-05.
 RLE energy=       -0.5396398352
 DE(Corr)= -0.53963917     E(CORR)=     -152.96484024     Delta=-3.45D-06
 NORM(A)=   0.11270121D+01
 Iteration Nr.  12
 **********************
 DD1Dir will call FoFMem   1 times, MxPair=        90
 NAB=    45 NAA=     0 NBB=     0.
 Norm of the A-vectors is  1.5736969D-04 conv= 1.00D-05.
 RLE energy=       -0.5396397998
 DE(Corr)= -0.53963898     E(CORR)=     -152.96484004     Delta= 1.92D-07
 NORM(A)=   0.11270162D+01
 Iteration Nr.  13
 **********************
 DD1Dir will call FoFMem   1 times, MxPair=        90
 NAB=    45 NAA=     0 NBB=     0.
 Norm of the A-vectors is  9.7213338D-05 conv= 1.00D-05.
 RLE energy=       -0.5396400332
 DE(Corr)= -0.53963986     E(CORR)=     -152.96484092     Delta=-8.81D-07
 NORM(A)=   0.11270187D+01
 Iteration Nr.  14
 **********************
 DD1Dir will call FoFMem   1 times, MxPair=        90
 NAB=    45 NAA=     0 NBB=     0.
 Norm of the A-vectors is  4.9815182D-05 conv= 1.00D-05.
 RLE energy=       -0.5396404255
 DE(Corr)= -0.53964016     E(CORR)=     -152.96484122     Delta=-2.93D-07
 NORM(A)=   0.11270207D+01
 Iteration Nr.  15
 **********************
 DD1Dir will call FoFMem   1 times, MxPair=        90
 NAB=    45 NAA=     0 NBB=     0.
 Norm of the A-vectors is  2.5973619D-05 conv= 1.00D-05.
 RLE energy=       -0.5396403349
 DE(Corr)= -0.53964030     E(CORR)=     -152.96484136     Delta=-1.44D-07
 NORM(A)=   0.11270219D+01
 Iteration Nr.  16
 **********************
 DD1Dir will call FoFMem   1 times, MxPair=        90
 NAB=    45 NAA=     0 NBB=     0.
 Norm of the A-vectors is  1.7750212D-05 conv= 1.00D-05.
 RLE energy=       -0.5396405853
 DE(Corr)= -0.53964053     E(CORR)=     -152.96484159     Delta=-2.25D-07
 NORM(A)=   0.11270225D+01
 Iteration Nr.  17
 **********************
 DD1Dir will call FoFMem   1 times, MxPair=        90
 NAB=    45 NAA=     0 NBB=     0.
 Norm of the A-vectors is  8.3297335D-06 conv= 1.00D-05.
 RLE energy=       -0.5396405501
 DE(Corr)= -0.53964052     E(CORR)=     -152.96484158     Delta= 6.40D-09
 NORM(A)=   0.11270227D+01
 CI/CC converged in   17 iterations to DelEn= 6.40D-09 Conv= 1.00D-07 ErrA1= 8.33D-06 Conv= 1.00D-05
 Largest amplitude= 5.88D-02
 IPart=  3 IA=    6   10.98% done.
 IPart=  3 IA=   11   21.32% done.
 IPart=  7 IA=   16   31.03% done.
 IPart=  5 IA=   21   40.09% done.
 IPart=  4 IA=   27   50.13% done.
 IPart=  1 IA=   34   60.67% done.
 IPart=  5 IA=   42   71.20% done.
 IPart=  3 IA=   50   80.08% done.
 IPart=  7 IA=   62   90.35% done.
 Time for triples=       70.81 seconds.
 T4(CCSD)= -0.33333825D-01
 T5(CCSD)=  0.19316145D-02
 CCSD(T)= -0.15299624379D+03
 Discarding MO integrals.
 Leave Link  913 at Tue Oct 10 05:38:33 2017, MaxMem=    33554432 cpu:       307.9
 (Enter /usr/local/gaussian/2009-E.01/g09/l601.exe)
 Copying SCF densities to generalized density rwf, IOpCl= 0 IROHF=0.

 **********************************************************************

            Population analysis using the SCF density.

 **********************************************************************

 Orbital symmetries:
       Occupied  (A) (B) (A) (B) (A) (B) (A) (B) (A) (A) (B) (A)
                 (B)
       Virtual   (A) (B) (A) (B) (A) (B) (A) (A) (B) (A) (B) (A)
                 (B) (A) (B) (B) (A) (B) (A) (A) (B) (B) (A) (B)
                 (A) (B) (B) (A) (A) (B) (B) (A) (A) (B) (B) (A)
                 (A) (B) (A) (B) (B) (A) (B) (A) (B) (A) (B) (B)
                 (A) (B) (A) (A) (B) (B) (A) (A) (A) (B) (A) (B)
                 (B) (A) (A) (B) (A) (B) (B) (A) (B) (B) (A) (B)
                 (A) (A) (B) (A) (A) (B) (A) (B) (A) (B) (A) (B)
                 (B) (A) (B) (A) (B)
 The electronic state is 1-A.
 Alpha  occ. eigenvalues --  -11.32269 -11.32149 -11.28366 -11.28286  -1.27123
 Alpha  occ. eigenvalues --   -0.88688  -0.87527  -0.70948  -0.67876  -0.54035
 Alpha  occ. eigenvalues --   -0.48170  -0.40406  -0.36469
 Alpha virt. eigenvalues --    0.03227   0.04561   0.05976   0.07448   0.10452
 Alpha virt. eigenvalues --    0.11587   0.11772   0.13547   0.13622   0.15995
 Alpha virt. eigenvalues --    0.16054   0.16973   0.17507   0.18569   0.19018
 Alpha virt. eigenvalues --    0.19852   0.20039   0.21696   0.22394   0.26297
 Alpha virt. eigenvalues --    0.26353   0.31843   0.35565   0.39382   0.42256
 Alpha virt. eigenvalues --    0.43524   0.52393   0.58096   0.62123   0.66652
 Alpha virt. eigenvalues --    0.68693   0.69027   0.71136   0.71591   0.77930
 Alpha virt. eigenvalues --    0.78790   0.80511   0.86648   0.88925   0.90015
 Alpha virt. eigenvalues --    0.94453   1.03083   1.05242   1.06691   1.10481
 Alpha virt. eigenvalues --    1.26638   1.32914   1.45928   1.47561   1.47956
 Alpha virt. eigenvalues --    1.64794   1.76123   1.79881   1.87827   1.89979
 Alpha virt. eigenvalues --    1.96899   2.01437   2.07047   2.12586   2.17547
 Alpha virt. eigenvalues --    2.19931   2.22551   2.26665   2.28756   2.37769
 Alpha virt. eigenvalues --    2.44508   2.51545   2.54961   2.73779   2.87921
 Alpha virt. eigenvalues --    2.88691   3.01252   3.03214   3.17347   3.19056
 Alpha virt. eigenvalues --    3.24379   3.28766   3.29123   3.50746   3.64566
 Alpha virt. eigenvalues --    3.66054   3.77953   4.19338   4.28604   4.30502
 Alpha virt. eigenvalues --   24.68991  24.92217  24.99591  25.34323
          Condensed to atoms (all electrons):
               1          2          3          4          5          6
     1  C    5.240447   0.224272   0.266921   0.028696   0.379852  -0.011175
     2  C    0.224272   5.240447   0.028696   0.266921  -0.011175   0.379852
     3  C    0.266921   0.028696   5.913919  -0.110809  -0.000078  -0.019949
     4  C    0.028696   0.266921  -0.110809   5.913919  -0.019949  -0.000078
     5  H    0.379852  -0.011175  -0.000078  -0.019949   0.446744  -0.003108
     6  H   -0.011175   0.379852  -0.019949  -0.000078  -0.003108   0.446744
 Mulliken charges:
               1
     1  C   -0.129014
     2  C   -0.129014
     3  C   -0.078699
     4  C   -0.078699
     5  H    0.207714
     6  H    0.207714
 Sum of Mulliken charges =  -0.00000
 Mulliken charges with hydrogens summed into heavy atoms:
               1
     1  C    0.078699
     2  C    0.078699
     3  C   -0.078699
     4  C   -0.078699
 Electronic spatial extent (au):  <R**2>=            165.4955
 Charge=             -0.0000 electrons
 Dipole moment (field-independent basis, Debye):
    X=              0.0000    Y=              0.0000    Z=              4.1921  Tot=              4.1921
 Quadrupole moment (field-independent basis, Debye-Ang):
   XX=            -24.3017   YY=            -24.3454   ZZ=            -25.6497
   XY=             -5.0805   XZ=              0.0000   YZ=             -0.0000
 Traceless Quadrupole moment (field-independent basis, Debye-Ang):
   XX=              0.4639   YY=              0.4202   ZZ=             -0.8841
   XY=             -5.0805   XZ=              0.0000   YZ=             -0.0000
 Octapole moment (field-independent basis, Debye-Ang**2):
  XXX=              0.0000  YYY=              0.0000  ZZZ=             13.1750  XYY=              0.0000
  XXY=              0.0000  XXZ=              9.6378  XZZ=              0.0000  YZZ=             -0.0000
  YYZ=              5.6596  XYZ=              1.1343
 Hexadecapole moment (field-independent basis, Debye-Ang**3):
 XXXX=           -105.1786 YYYY=            -44.7989 ZZZZ=           -108.6664 XXXY=            -10.6075
 XXXZ=             -0.0000 YYYX=             -6.1403 YYYZ=             -0.0000 ZZZX=              0.0000
 ZZZY=             -0.0000 XXYY=            -24.9610 XXZZ=            -35.4778 YYZZ=            -25.9283
 XXYZ=             -0.0000 YYXZ=              0.0000 ZZXY=             -8.1339
 N-N= 8.705253810577D+01 E-N=-5.283885831496D+02  KE= 1.522793348527D+02
 Symmetry A    KE= 7.762282509604D+01
 Symmetry B    KE= 7.465650975664D+01
 Leave Link  601 at Tue Oct 10 05:38:33 2017, MaxMem=    33554432 cpu:         0.3
 (Enter /usr/local/gaussian/2009-E.01/g09/l9999.exe)
 1\1\ WCSS.PL-BEM-WN1424\SP\RCCSD(T)-FC\6-311++G(d,p)\C4H2\ROOT\10-Oct-
 2017\0\\#p ccsd(t,maxcyc=200)/6-311++G(d,p)\\ccsd(t) iener\\0,1\C,0,0.
 701415333,0.522531846,-0.528315143\C,0,-0.629215757,0.329028538,-0.903
 093166\C,0,-0.806063521,-0.074374558,0.453747777\C,0,0.524067723,-0.68
 7816207,0.205600348\H,0,1.418994246,1.331121551,-0.544198205\H,0,-1.18
 7952577,0.244140015,-1.824828586\\Version=ES64L-G09RevE.01\State=1-A\H
 F=-152.4252011\MP2=-152.9396811\MP3=-152.9552629\MP4D=-152.9709127\MP4
 DQ=-152.9548902\MP4SDQ=-152.9633693\CCSD=-152.9648416\CCSD(T)=-152.996
 2438\RMSD=5.887e-09\PG=C02 [X(C4H2)]\\@


 ... IT IS NO ONE DREAME THAT
     CAN PLEASE THESE ALL ...

                -- BEN JONSON
 Job cpu time:       0 days  0 hours  5 minutes 26.6 seconds.
 File lengths (MBytes):  RWF=    192 Int=      0 D2E=      0 Chk=      2 Scr=      1
 Normal termination of Gaussian 09 at Tue Oct 10 05:38:33 2017.
