 Entering Gaussian System, Link 0=/usr/local/gaussian/2009-E.01/g09/g09
 Initial command:
 /usr/local/gaussian/2009-E.01/g09/l1.exe "/lustre/scratch/eerd/4986703.achilles/Gau-183142.inp" -scrdir="/lustre/scratch/eerd/4986703.achilles/"
 Entering Link 1 = /usr/local/gaussian/2009-E.01/g09/l1.exe PID=    183151.
  
 Copyright (c) 1988,1990,1992,1993,1995,1998,2003,2009,2015,
            Gaussian, Inc.  All Rights Reserved.
  
 This is part of the Gaussian(R) 09 program.  It is based on
 the Gaussian(R) 03 system (copyright 2003, Gaussian, Inc.),
 the Gaussian(R) 98 system (copyright 1998, Gaussian, Inc.),
 the Gaussian(R) 94 system (copyright 1995, Gaussian, Inc.),
 the Gaussian 92(TM) system (copyright 1992, Gaussian, Inc.),
 the Gaussian 90(TM) system (copyright 1990, Gaussian, Inc.),
 the Gaussian 88(TM) system (copyright 1988, Gaussian, Inc.),
 the Gaussian 86(TM) system (copyright 1986, Carnegie Mellon
 University), and the Gaussian 82(TM) system (copyright 1983,
 Carnegie Mellon University). Gaussian is a federally registered
 trademark of Gaussian, Inc.
  
 This software contains proprietary and confidential information,
 including trade secrets, belonging to Gaussian, Inc.
  
 This software is provided under written license and may be
 used, copied, transmitted, or stored only in accord with that
 written license.
  
 The following legend is applicable only to US Government
 contracts under FAR:
  
                    RESTRICTED RIGHTS LEGEND
  
 Use, reproduction and disclosure by the US Government is
 subject to restrictions as set forth in subparagraphs (a)
 and (c) of the Commercial Computer Software - Restricted
 Rights clause in FAR 52.227-19.
  
 Gaussian, Inc.
 340 Quinnipiac St., Bldg. 40, Wallingford CT 06492
  
  
 ---------------------------------------------------------------
 Warning -- This program may not be used in any manner that
 competes with the business of Gaussian, Inc. or will provide
 assistance to any competitor of Gaussian, Inc.  The licensee
 of this program is prohibited from giving any competitor of
 Gaussian, Inc. access to this program.  By using this program,
 the user acknowledges that Gaussian, Inc. is engaged in the
 business of creating and licensing software in the field of
 computational chemistry and represents and warrants to the
 licensee that it is not a competitor of Gaussian, Inc. and that
 it will not use this program in any manner prohibited above.
 ---------------------------------------------------------------
  

 Cite this work as:
 Gaussian 09, Revision E.01,
 M. J. Frisch, G. W. Trucks, H. B. Schlegel, G. E. Scuseria, 
 M. A. Robb, J. R. Cheeseman, G. Scalmani, V. Barone, B. Mennucci, 
 G. A. Petersson, H. Nakatsuji, M. Caricato, X. Li, H. P. Hratchian, 
 A. F. Izmaylov, J. Bloino, G. Zheng, J. L. Sonnenberg, M. Hada, 
 M. Ehara, K. Toyota, R. Fukuda, J. Hasegawa, M. Ishida, T. Nakajima, 
 Y. Honda, O. Kitao, H. Nakai, T. Vreven, J. A. Montgomery, Jr., 
 J. E. Peralta, F. Ogliaro, M. Bearpark, J. J. Heyd, E. Brothers, 
 K. N. Kudin, V. N. Staroverov, T. Keith, R. Kobayashi, J. Normand, 
 K. Raghavachari, A. Rendell, J. C. Burant, S. S. Iyengar, J. Tomasi, 
 M. Cossi, N. Rega, J. M. Millam, M. Klene, J. E. Knox, J. B. Cross, 
 V. Bakken, C. Adamo, J. Jaramillo, R. Gomperts, R. E. Stratmann, 
 O. Yazyev, A. J. Austin, R. Cammi, C. Pomelli, J. W. Ochterski, 
 R. L. Martin, K. Morokuma, V. G. Zakrzewski, G. A. Voth, 
 P. Salvador, J. J. Dannenberg, S. Dapprich, A. D. Daniels, 
 O. Farkas, J. B. Foresman, J. V. Ortiz, J. Cioslowski, 
 and D. J. Fox, Gaussian, Inc., Wallingford CT, 2013.
 
 ******************************************
 Gaussian 09:  ES64L-G09RevE.01 30-Nov-2015
                10-Oct-2017 
 ******************************************
 %NProcShared=8
 Will use up to    8 processors via shared memory.
 -----------------------------------
 #p ccsd(t,maxcyc=200)/6-311++G(d,p)
 -----------------------------------
 1/38=1/1;
 2/12=2,17=6,18=5,40=1/2;
 3/5=4,6=6,7=1111,11=9,16=1,25=1,30=1/1,2,3;
 4//1;
 5/5=2,38=5/2;
 8/6=4,9=120000,10=2/1,4;
 9/5=7,6=200,14=2/13;
 6/7=2,8=2,9=2,10=2/1;
 99/5=1,9=1/99;
 Leave Link    1 at Tue Oct 10 03:48:50 2017, MaxMem=           0 cpu:         2.2
 (Enter /usr/local/gaussian/2009-E.01/g09/l101.exe)
 -------------
 ccsd(t) iener
 -------------
 Symbolic Z-matrix:
 Charge =  1 Multiplicity = 2
 C                    -0.91206   0.70061  -0.21628 
 C                     0.91542  -0.15745   0.36504 
 O                     0.37832   1.03959   0.16534 
 C                     0.18873  -1.16904   0.17559 
 C                    -1.06432  -0.74899  -0.21736 
 H                    -1.58798   1.51889  -0.44612 
 H                    -1.97127  -1.28042  -0.4751 
 
 NAtoms=      7 NQM=        7 NQMF=       0 NMMI=      0 NMMIF=      0
                NMic=       0 NMicF=      0.
                    Isotopes and Nuclear Properties:
 (Nuclear quadrupole moments (NQMom) in fm**2, nuclear magnetic moments (NMagM)
  in nuclear magnetons)

  Atom         1           2           3           4           5           6           7
 IAtWgt=          12          12          16          12          12           1           1
 AtmWgt=  12.0000000  12.0000000  15.9949146  12.0000000  12.0000000   1.0078250   1.0078250
 NucSpn=           0           0           0           0           0           1           1
 AtZEff=   0.0000000   0.0000000   0.0000000   0.0000000   0.0000000   0.0000000   0.0000000
 NQMom=    0.0000000   0.0000000   0.0000000   0.0000000   0.0000000   0.0000000   0.0000000
 NMagM=    0.0000000   0.0000000   0.0000000   0.0000000   0.0000000   2.7928460   2.7928460
 AtZNuc=   6.0000000   6.0000000   8.0000000   6.0000000   6.0000000   1.0000000   1.0000000
 Leave Link  101 at Tue Oct 10 03:48:50 2017, MaxMem=    33554432 cpu:         0.6
 (Enter /usr/local/gaussian/2009-E.01/g09/l202.exe)
                          Input orientation:                          
 ---------------------------------------------------------------------
 Center     Atomic      Atomic             Coordinates (Angstroms)
 Number     Number       Type             X           Y           Z
 ---------------------------------------------------------------------
      1          6           0       -0.912055    0.700606   -0.216283
      2          6           0        0.915423   -0.157449    0.365042
      3          8           0        0.378319    1.039590    0.165343
      4          6           0        0.188726   -1.169044    0.175592
      5          6           0       -1.064320   -0.748992   -0.217359
      6          1           0       -1.587981    1.518890   -0.446123
      7          1           0       -1.971271   -1.280416   -0.475098
 ---------------------------------------------------------------------
                    Distance matrix (angstroms):
                    1          2          3          4          5
     1  C    0.000000
     2  C    2.100922   0.000000
     3  O    1.387665   1.327126   0.000000
     4  C    2.204739   1.259883   2.216780   0.000000
     5  C    1.457573   2.146741   2.329526   1.378760   0.000000
     6  H    1.085952   3.120117   2.114227   3.281495   2.338769
     7  H    2.261277   3.209345   3.363505   2.258625   1.082313
                    6          7
     6  H    0.000000
     7  H    2.825573   0.000000
 Stoichiometry    C4H2O(1+,2)
 Framework group  C1[X(C4H2O)]
 Deg. of freedom    15
 Full point group                 C1      NOp   1
 Largest Abelian subgroup         C1      NOp   1
 Largest concise Abelian subgroup C1      NOp   1
                         Standard orientation:                         
 ---------------------------------------------------------------------
 Center     Atomic      Atomic             Coordinates (Angstroms)
 Number     Number       Type             X           Y           Z
 ---------------------------------------------------------------------
      1          6           0        0.133986    1.035674   -0.000349
      2          6           0        0.499072   -1.033284    0.000013
      3          8           0        1.169577    0.112005    0.000201
      4          6           0       -0.759676   -0.979827   -0.000154
      5          6           0       -1.148470    0.342979    0.000031
      6          1           0        0.411374    2.085601    0.000119
      7          1           0       -2.117465    0.825109    0.001027
 ---------------------------------------------------------------------
 Rotational constants (GHZ):     11.5762182      9.6104102      5.2510579
 Leave Link  202 at Tue Oct 10 03:48:50 2017, MaxMem=    33554432 cpu:         1.8
 (Enter /usr/local/gaussian/2009-E.01/g09/l301.exe)
 Standard basis: 6-311++G(d,p) (5D, 7F)
 Ernie: Thresh=  0.10000D-02 Tol=  0.10000D-05 Strict=F.
 There are   129 symmetry adapted cartesian basis functions of A   symmetry.
 There are   124 symmetry adapted basis functions of A   symmetry.
   124 basis functions,   198 primitive gaussians,   129 cartesian basis functions
    17 alpha electrons       16 beta electrons
       nuclear repulsion energy       144.8436292100 Hartrees.
 IExCor=    0 DFT=F Ex=HF Corr=None ExCW=0 ScaHFX=  1.000000
 ScaDFX=  1.000000  1.000000  1.000000  1.000000 ScalE2=  1.000000  1.000000
 IRadAn=      0 IRanWt=     -1 IRanGd=            0 ICorTp=0 IEmpDi=  4
 NAtoms=    7 NActive=    7 NUniq=    7 SFac= 1.00D+00 NAtFMM=   60 NAOKFM=F Big=F
 Integral buffers will be    131072 words long.
 Raffenetti 2 integral format.
 Two-electron integral symmetry is turned on.
 Leave Link  301 at Tue Oct 10 03:48:51 2017, MaxMem=    33554432 cpu:         1.9
 (Enter /usr/local/gaussian/2009-E.01/g09/l302.exe)
 NPDir=0 NMtPBC=     1 NCelOv=     1 NCel=       1 NClECP=     1 NCelD=      1
         NCelK=      1 NCelE2=     1 NClLst=     1 CellRange=     0.0.
 One-electron integrals computed using PRISM.
 NBasis=   124 RedAO= T EigKep=  1.25D-05  NBF=   124
 NBsUse=   124 1.00D-06 EigRej= -1.00D+00 NBFU=   124
 Leave Link  302 at Tue Oct 10 03:48:51 2017, MaxMem=    33554432 cpu:         2.4
 (Enter /usr/local/gaussian/2009-E.01/g09/l303.exe)
 DipDrv:  MaxL=1.
 Leave Link  303 at Tue Oct 10 03:48:51 2017, MaxMem=    33554432 cpu:         0.5
 (Enter /usr/local/gaussian/2009-E.01/g09/l401.exe)
 ExpMin= 3.60D-02 ExpMax= 8.59D+03 ExpMxC= 1.30D+03 IAcc=3 IRadAn=         5 AccDes= 0.00D+00
 Harris functional with IExCor=  205 and IRadAn=       5 diagonalized for initial guess.
 HarFok:  IExCor=  205 AccDes= 0.00D+00 IRadAn=         5 IDoV= 1 UseB2=F ITyADJ=14
 ICtDFT=  3500011 ScaDFX=  1.000000  1.000000  1.000000  1.000000
 FoFCou: FMM=F IPFlag=           0 FMFlag=      100000 FMFlg1=           0
         NFxFlg=           0 DoJE=T BraDBF=F KetDBF=T FulRan=T
         wScrn=  0.000000 ICntrl=     500 IOpCl=  0 I1Cent=   200000004 NGrid=           0
         NMat0=    1 NMatS0=      1 NMatT0=    0 NMatD0=    1 NMtDS0=    0 NMtDT0=    0
 Petite list used in FoFCou.
 Harris En= -227.184853896630    
 JPrj=0 DoOrth=F DoCkMO=F.
 Initial guess <Sx>= 0.0000 <Sy>= 0.0000 <Sz>= 0.5000 <S**2>= 0.7500 S= 0.5000
 Leave Link  401 at Tue Oct 10 03:48:52 2017, MaxMem=    33554432 cpu:         5.5
 (Enter /usr/local/gaussian/2009-E.01/g09/l502.exe)
 UHF open shell SCF:
 Using DIIS extrapolation, IDIIS=  1040.
 Integral symmetry usage will be decided dynamically.
 IVT=       70457 IEndB=       70457 NGot=    33554432 MDV=    33517386
 LenX=    33517386 LenY=    33500304
 Requested convergence on RMS density matrix=1.00D-08 within 128 cycles.
 Requested convergence on MAX density matrix=1.00D-06.
 Requested convergence on             energy=1.00D-06.
 No special actions if energy rises.
 Fock matrices will be formed incrementally for  20 cycles.

 Cycle   1  Pass 0  IDiag  1:
 FoFJK:  IHMeth= 1 ICntrl=       0 DoSepK=F KAlg= 0 I1Cent=   0 FoldK=F
 IRaf= 990000000 NMat=   1 IRICut=       1 DoRegI=T DoRafI=F ISym2E= 0.
 FoFCou: FMM=F IPFlag=           0 FMFlag=      100000 FMFlg1=           0
         NFxFlg=           0 DoJE=F BraDBF=F KetDBF=F FulRan=T
         wScrn=  0.000000 ICntrl=       0 IOpCl=  1 I1Cent=           0 NGrid=           0
         NMat0=    1 NMatS0=      1 NMatT0=    0 NMatD0=    1 NMtDS0=    0 NMtDT0=    0
 Symmetry not used in FoFCou.
 E= -226.805025914140    
 DIIS: error= 3.84D-02 at cycle   1 NSaved=   1.
 NSaved= 1 IEnMin= 1 EnMin= -226.805025914140     IErMin= 1 ErrMin= 3.84D-02
 ErrMax= 3.84D-02  0.00D+00 EMaxC= 1.00D-01 BMatC= 1.51D+00 BMatP= 1.51D+00
 IDIUse=3 WtCom= 6.16D-01 WtEn= 3.84D-01
 Coeff-Com:  0.100D+01
 Coeff-En:   0.100D+01
 Coeff:      0.100D+01
 Gap=     0.342 Goal=   None    Shift=    0.000
 Gap=     0.333 Goal=   None    Shift=    0.000
 GapD=    0.333 DampG=1.000 DampE=0.500 DampFc=0.5000 IDamp=-1.
 Damping current iteration by 5.00D-01
 RMSDP=5.63D-03 MaxDP=8.25D-02              OVMax= 2.37D-01

 Cycle   2  Pass 0  IDiag  1:
 RMSU=  2.77D-03    CP:  9.74D-01
 E= -226.880361260739     Delta-E=       -0.075335346600 Rises=F Damp=T
 DIIS: error= 2.03D-02 at cycle   2 NSaved=   2.
 NSaved= 2 IEnMin= 2 EnMin= -226.880361260739     IErMin= 2 ErrMin= 2.03D-02
 ErrMax= 2.03D-02  0.00D+00 EMaxC= 1.00D-01 BMatC= 3.58D-01 BMatP= 1.51D+00
 IDIUse=3 WtCom= 7.97D-01 WtEn= 2.03D-01
 Coeff-Com: -0.508D+00 0.151D+01
 Coeff-En:   0.000D+00 0.100D+01
 Coeff:     -0.405D+00 0.140D+01
 Gap=     0.360 Goal=   None    Shift=    0.000
 Gap=     0.423 Goal=   None    Shift=    0.000
 RMSDP=4.17D-03 MaxDP=1.58D-01 DE=-7.53D-02 OVMax= 1.82D-01

 Cycle   3  Pass 0  IDiag  1:
 RMSU=  3.91D-03    CP:  1.05D+00  9.13D-01
 E= -226.947973216046     Delta-E=       -0.067611955307 Rises=F Damp=F
 DIIS: error= 1.89D-02 at cycle   3 NSaved=   3.
 NSaved= 3 IEnMin= 3 EnMin= -226.947973216046     IErMin= 3 ErrMin= 1.89D-02
 ErrMax= 1.89D-02  0.00D+00 EMaxC= 1.00D-01 BMatC= 7.60D-02 BMatP= 3.58D-01
 IDIUse=3 WtCom= 8.11D-01 WtEn= 1.89D-01
 Coeff-Com: -0.329D+00 0.608D+00 0.721D+00
 Coeff-En:   0.000D+00 0.000D+00 0.100D+01
 Coeff:     -0.267D+00 0.494D+00 0.774D+00
 Gap=     0.358 Goal=   None    Shift=    0.000
 Gap=     0.370 Goal=   None    Shift=    0.000
 RMSDP=1.82D-03 MaxDP=6.12D-02 DE=-6.76D-02 OVMax= 9.79D-02

 Cycle   4  Pass 0  IDiag  1:
 RMSU=  6.91D-04    CP:  1.02D+00  1.35D+00  7.50D-01
 E= -226.967356915097     Delta-E=       -0.019383699051 Rises=F Damp=F
 DIIS: error= 6.71D-03 at cycle   4 NSaved=   4.
 NSaved= 4 IEnMin= 4 EnMin= -226.967356915097     IErMin= 4 ErrMin= 6.71D-03
 ErrMax= 6.71D-03  0.00D+00 EMaxC= 1.00D-01 BMatC= 7.74D-03 BMatP= 7.60D-02
 IDIUse=3 WtCom= 9.33D-01 WtEn= 6.71D-02
 Coeff-Com: -0.174D-02-0.166D-01 0.226D+00 0.793D+00
 Coeff-En:   0.000D+00 0.000D+00 0.000D+00 0.100D+01
 Coeff:     -0.162D-02-0.155D-01 0.211D+00 0.806D+00
 Gap=     0.367 Goal=   None    Shift=    0.000
 Gap=     0.367 Goal=   None    Shift=    0.000
 RMSDP=7.16D-04 MaxDP=3.22D-02 DE=-1.94D-02 OVMax= 2.68D-02

 Cycle   5  Pass 0  IDiag  1:
 RMSU=  3.34D-04    CP:  1.03D+00  1.28D+00  8.90D-01  1.11D+00
 E= -226.970276626292     Delta-E=       -0.002919711195 Rises=F Damp=F
 DIIS: error= 2.25D-03 at cycle   5 NSaved=   5.
 NSaved= 5 IEnMin= 5 EnMin= -226.970276626292     IErMin= 5 ErrMin= 2.25D-03
 ErrMax= 2.25D-03  0.00D+00 EMaxC= 1.00D-01 BMatC= 1.30D-03 BMatP= 7.74D-03
 IDIUse=3 WtCom= 9.78D-01 WtEn= 2.25D-02
 Coeff-Com:  0.392D-01-0.766D-01-0.182D-01 0.183D+00 0.873D+00
 Coeff-En:   0.000D+00 0.000D+00 0.000D+00 0.000D+00 0.100D+01
 Coeff:      0.383D-01-0.749D-01-0.178D-01 0.179D+00 0.876D+00
 Gap=     0.370 Goal=   None    Shift=    0.000
 Gap=     0.370 Goal=   None    Shift=    0.000
 RMSDP=5.55D-04 MaxDP=2.12D-02 DE=-2.92D-03 OVMax= 3.64D-02

 Cycle   6  Pass 0  IDiag  1:
 RMSU=  2.45D-04    CP:  1.03D+00  1.28D+00  9.18D-01  1.40D+00  2.32D+00
 E= -226.972648693561     Delta-E=       -0.002372067269 Rises=F Damp=F
 DIIS: error= 2.76D-03 at cycle   6 NSaved=   6.
 NSaved= 6 IEnMin= 6 EnMin= -226.972648693561     IErMin= 5 ErrMin= 2.25D-03
 ErrMax= 2.76D-03  0.00D+00 EMaxC= 1.00D-01 BMatC= 1.90D-03 BMatP= 1.30D-03
 IDIUse=3 WtCom= 9.78D-01 WtEn= 2.25D-02
 Coeff-Com:  0.105D+00-0.193D+00-0.207D+00 0.292D-01 0.259D+01-0.133D+01
 Coeff-En:   0.000D+00 0.000D+00 0.000D+00 0.000D+00 0.000D+00 0.100D+01
 Coeff:      0.103D+00-0.189D+00-0.202D+00 0.285D-01 0.253D+01-0.127D+01
 Gap=     0.369 Goal=   None    Shift=    0.000
 Gap=     0.369 Goal=   None    Shift=    0.000
 RMSDP=8.20D-04 MaxDP=2.73D-02 DE=-2.37D-03 OVMax= 4.32D-02

 Cycle   7  Pass 0  IDiag  1:
 RMSU=  1.36D-04    CP:  1.03D+00  1.29D+00  9.21D-01  1.19D+00  4.26D-01
                    CP: -9.68D-01
 E= -226.970069991793     Delta-E=        0.002578701768 Rises=F Damp=F
 DIIS: error= 1.64D-03 at cycle   7 NSaved=   7.
 NSaved= 7 IEnMin= 6 EnMin= -226.972648693561     IErMin= 7 ErrMin= 1.64D-03
 ErrMax= 1.64D-03  0.00D+00 EMaxC= 1.00D-01 BMatC= 8.07D-04 BMatP= 1.30D-03
 IDIUse=3 WtCom= 9.84D-01 WtEn= 1.64D-02
 Rare condition: small coef for last iteration:  0.000D+00
 Coeff-Com:  0.105D-01-0.154D-01-0.428D-01-0.209D+00-0.202D+00-0.109D+01
 Coeff-Com:  0.255D+01
 Coeff-En:   0.000D+00 0.000D+00 0.000D+00 0.000D+00 0.000D+00 0.000D+00
 Coeff-En:   0.100D+01
 Coeff:      0.105D-01-0.154D-01-0.428D-01-0.209D+00-0.202D+00-0.109D+01
 Coeff:      0.255D+01
 Gap=     0.370 Goal=   None    Shift=    0.000
 Gap=     0.369 Goal=   None    Shift=    0.000
 RMSDP=9.60D-04 MaxDP=3.72D-02 DE= 2.58D-03 OVMax= 5.04D-02

 Cycle   8  Pass 0  IDiag  1:
 RMSU=  1.66D-04    CP:  1.03D+00  1.28D+00  9.57D-01  1.09D+00 -1.45D+00
                    CP: -3.00D+00  3.00D+00
 E= -226.969390929080     Delta-E=        0.000679062714 Rises=F Damp=F
 DIIS: error= 1.09D-03 at cycle   8 NSaved=   8.
 NSaved= 8 IEnMin= 6 EnMin= -226.972648693561     IErMin= 8 ErrMin= 1.09D-03
 ErrMax= 1.09D-03  0.00D+00 EMaxC= 1.00D-01 BMatC= 1.69D-04 BMatP= 8.07D-04
 IDIUse=3 WtCom= 9.89D-01 WtEn= 1.09D-02
 Rare condition: small coef for last iteration:  0.000D+00
 Coeff-Com: -0.226D-01 0.407D-01 0.831D-01 0.581D-01-0.916D+00 0.440D+00
 Coeff-Com:  0.102D+00 0.121D+01
 Coeff-En:   0.000D+00 0.000D+00 0.000D+00 0.000D+00 0.000D+00 0.000D+00
 Coeff-En:   0.000D+00 0.100D+01
 Coeff:     -0.226D-01 0.407D-01 0.831D-01 0.581D-01-0.916D+00 0.440D+00
 Coeff:      0.102D+00 0.121D+01
 Gap=     0.368 Goal=   None    Shift=    0.000
 Gap=     0.368 Goal=   None    Shift=    0.000
 RMSDP=1.77D-04 MaxDP=5.72D-03 DE= 6.79D-04 OVMax= 1.06D-02

 Cycle   9  Pass 0  IDiag  1:
 RMSU=  1.15D-04    CP:  1.03D+00  1.27D+00  9.66D-01  1.15D+00 -1.53D+00
                    CP: -3.00D+00  3.00D+00  1.69D+00
 E= -226.969583830181     Delta-E=       -0.000192901101 Rises=F Damp=F
 DIIS: error= 8.44D-04 at cycle   9 NSaved=   9.
 NSaved= 9 IEnMin= 6 EnMin= -226.972648693561     IErMin= 9 ErrMin= 8.44D-04
 ErrMax= 8.44D-04  0.00D+00 EMaxC= 1.00D-01 BMatC= 6.38D-05 BMatP= 1.69D-04
 IDIUse=3 WtCom= 9.92D-01 WtEn= 8.44D-03
 Coeff-Com:  0.105D-02-0.372D-02 0.192D-01 0.739D-01-0.587D-01 0.247D+00
 Coeff-Com: -0.469D+00-0.246D+00 0.144D+01
 Coeff-En:   0.000D+00 0.000D+00 0.000D+00 0.000D+00 0.000D+00 0.000D+00
 Coeff-En:   0.000D+00 0.000D+00 0.100D+01
 Coeff:      0.104D-02-0.369D-02 0.190D-01 0.733D-01-0.582D-01 0.245D+00
 Coeff:     -0.465D+00-0.244D+00 0.143D+01
 Gap=     0.368 Goal=   None    Shift=    0.000
 Gap=     0.367 Goal=   None    Shift=    0.000
 RMSDP=1.18D-04 MaxDP=3.11D-03 DE=-1.93D-04 OVMax= 9.92D-03

 Cycle  10  Pass 0  IDiag  1:
 RMSU=  6.06D-05    CP:  1.03D+00  1.26D+00  9.70D-01  1.20D+00 -1.45D+00
                    CP: -3.00D+00  3.00D+00  1.94D+00  1.65D+00
 E= -226.969708889359     Delta-E=       -0.000125059178 Rises=F Damp=F
 DIIS: error= 5.65D-04 at cycle  10 NSaved=  10.
 NSaved=10 IEnMin= 6 EnMin= -226.972648693561     IErMin=10 ErrMin= 5.65D-04
 ErrMax= 5.65D-04  0.00D+00 EMaxC= 1.00D-01 BMatC= 3.41D-05 BMatP= 6.38D-05
 IDIUse=3 WtCom= 9.94D-01 WtEn= 5.65D-03
 Coeff-Com:  0.776D-02-0.141D-01-0.194D-01-0.115D-01 0.173D+00-0.209D+00
 Coeff-Com:  0.227D+00-0.424D+00-0.189D+00 0.146D+01
 Coeff-En:   0.000D+00 0.000D+00 0.000D+00 0.000D+00 0.000D+00 0.000D+00
 Coeff-En:   0.000D+00 0.000D+00 0.000D+00 0.100D+01
 Coeff:      0.771D-02-0.140D-01-0.193D-01-0.114D-01 0.172D+00-0.208D+00
 Coeff:      0.225D+00-0.422D+00-0.188D+00 0.146D+01
 Gap=     0.369 Goal=   None    Shift=    0.000
 Gap=     0.368 Goal=   None    Shift=    0.000
 RMSDP=9.57D-05 MaxDP=2.26D-03 DE=-1.25D-04 OVMax= 7.88D-03

 Cycle  11  Pass 0  IDiag  1:
 RMSU=  2.93D-05    CP:  1.03D+00  1.26D+00  9.72D-01  1.24D+00 -1.34D+00
                    CP: -3.00D+00  3.00D+00  1.95D+00  2.05D+00  2.04D+00
 E= -226.969785916346     Delta-E=       -0.000077026987 Rises=F Damp=F
 DIIS: error= 3.85D-04 at cycle  11 NSaved=  11.
 NSaved=11 IEnMin= 6 EnMin= -226.972648693561     IErMin=11 ErrMin= 3.85D-04
 ErrMax= 3.85D-04  0.00D+00 EMaxC= 1.00D-01 BMatC= 1.96D-05 BMatP= 3.41D-05
 IDIUse=3 WtCom= 9.96D-01 WtEn= 3.85D-03
 Coeff-Com: -0.113D-02 0.261D-02-0.581D-03-0.167D-01-0.794D-01-0.116D+00
 Coeff-Com:  0.322D+00 0.214D+00-0.814D+00-0.483D+00 0.197D+01
 Coeff-En:   0.000D+00 0.000D+00 0.000D+00 0.000D+00 0.000D+00 0.000D+00
 Coeff-En:   0.000D+00 0.000D+00 0.000D+00 0.000D+00 0.100D+01
 Coeff:     -0.113D-02 0.260D-02-0.579D-03-0.166D-01-0.791D-01-0.116D+00
 Coeff:      0.320D+00 0.213D+00-0.811D+00-0.481D+00 0.197D+01
 Gap=     0.369 Goal=   None    Shift=    0.000
 Gap=     0.368 Goal=   None    Shift=    0.000
 RMSDP=1.31D-04 MaxDP=3.09D-03 DE=-7.70D-05 OVMax= 9.52D-03

 Cycle  12  Pass 0  IDiag  1:
 RMSU=  3.67D-05    CP:  1.03D+00  1.26D+00  9.71D-01  1.29D+00 -1.18D+00
                    CP: -3.00D+00  3.00D+00  1.84D+00  2.44D+00  3.00D+00
                    CP:  2.63D+00
 E= -226.969859311504     Delta-E=       -0.000073395158 Rises=F Damp=F
 DIIS: error= 3.18D-04 at cycle  12 NSaved=  12.
 NSaved=12 IEnMin= 6 EnMin= -226.972648693561     IErMin=12 ErrMin= 3.18D-04
 ErrMax= 3.18D-04  0.00D+00 EMaxC= 1.00D-01 BMatC= 8.73D-06 BMatP= 1.96D-05
 IDIUse=3 WtCom= 9.97D-01 WtEn= 3.18D-03
 Coeff-Com: -0.598D-03 0.518D-03 0.109D-01 0.384D-01-0.632D-01 0.173D+00
 Coeff-Com: -0.302D+00 0.798D-01 0.695D+00-0.896D+00-0.847D+00 0.211D+01
 Coeff-En:   0.000D+00 0.000D+00 0.000D+00 0.000D+00 0.000D+00 0.000D+00
 Coeff-En:   0.000D+00 0.000D+00 0.000D+00 0.000D+00 0.000D+00 0.100D+01
 Coeff:     -0.596D-03 0.516D-03 0.109D-01 0.382D-01-0.630D-01 0.172D+00
 Coeff:     -0.301D+00 0.795D-01 0.693D+00-0.894D+00-0.845D+00 0.211D+01
 Gap=     0.369 Goal=   None    Shift=    0.000
 Gap=     0.368 Goal=   None    Shift=    0.000
 RMSDP=1.26D-04 MaxDP=2.87D-03 DE=-7.34D-05 OVMax= 1.07D-02

 Cycle  13  Pass 0  IDiag  1:
 RMSU=  5.06D-05    CP:  1.03D+00  1.25D+00  9.69D-01  1.34D+00 -1.04D+00
                    CP: -3.00D+00  3.00D+00  1.71D+00  2.78D+00  3.00D+00
                    CP:  3.00D+00  3.00D+00
 E= -226.969903998692     Delta-E=       -0.000044687189 Rises=F Damp=F
 DIIS: error= 2.22D-04 at cycle  13 NSaved=  13.
 NSaved=13 IEnMin= 6 EnMin= -226.972648693561     IErMin=13 ErrMin= 2.22D-04
 ErrMax= 2.22D-04  0.00D+00 EMaxC= 1.00D-01 BMatC= 3.45D-06 BMatP= 8.73D-06
 IDIUse=3 WtCom= 9.98D-01 WtEn= 2.22D-03
 Coeff-Com:  0.645D-03-0.154D-02 0.258D-02 0.159D-01 0.641D-02 0.718D-01
 Coeff-Com: -0.164D+00-0.655D-01 0.511D+00-0.201D+00-0.801D+00 0.612D+00
 Coeff-Com:  0.101D+01
 Coeff-En:   0.000D+00 0.000D+00 0.000D+00 0.000D+00 0.000D+00 0.000D+00
 Coeff-En:   0.000D+00 0.000D+00 0.000D+00 0.000D+00 0.000D+00 0.000D+00
 Coeff-En:   0.100D+01
 Coeff:      0.643D-03-0.154D-02 0.257D-02 0.159D-01 0.640D-02 0.717D-01
 Coeff:     -0.164D+00-0.653D-01 0.510D+00-0.201D+00-0.799D+00 0.610D+00
 Coeff:      0.101D+01
 Gap=     0.369 Goal=   None    Shift=    0.000
 Gap=     0.368 Goal=   None    Shift=    0.000
 RMSDP=4.66D-05 MaxDP=1.06D-03 DE=-4.47D-05 OVMax= 4.86D-03

 Cycle  14  Pass 0  IDiag  1:
 RMSU=  2.51D-05    CP:  1.03D+00  1.25D+00  9.69D-01  1.35D+00 -9.99D-01
                    CP: -3.00D+00  3.00D+00  1.68D+00  2.92D+00  3.00D+00
                    CP:  3.00D+00  3.00D+00  1.59D+00
 E= -226.969914740911     Delta-E=       -0.000010742219 Rises=F Damp=F
 DIIS: error= 1.85D-04 at cycle  14 NSaved=  14.
 NSaved=14 IEnMin= 6 EnMin= -226.972648693561     IErMin=14 ErrMin= 1.85D-04
 ErrMax= 1.85D-04  0.00D+00 EMaxC= 1.00D-01 BMatC= 1.64D-06 BMatP= 3.45D-06
 IDIUse=3 WtCom= 9.98D-01 WtEn= 1.85D-03
 Coeff-Com:  0.540D-03-0.752D-03-0.477D-02-0.137D-01 0.297D-01-0.672D-01
 Coeff-Com:  0.111D+00-0.467D-01-0.200D+00 0.196D+00 0.429D+00-0.706D+00
 Coeff-Com: -0.539D+00 0.181D+01
 Coeff-En:   0.000D+00 0.000D+00 0.000D+00 0.000D+00 0.000D+00 0.000D+00
 Coeff-En:   0.000D+00 0.000D+00 0.000D+00 0.000D+00 0.000D+00 0.000D+00
 Coeff-En:   0.000D+00 0.100D+01
 Coeff:      0.539D-03-0.751D-03-0.476D-02-0.136D-01 0.297D-01-0.671D-01
 Coeff:      0.111D+00-0.467D-01-0.200D+00 0.195D+00 0.428D+00-0.704D+00
 Coeff:     -0.538D+00 0.181D+01
 Gap=     0.370 Goal=   None    Shift=    0.000
 Gap=     0.368 Goal=   None    Shift=    0.000
 RMSDP=3.66D-05 MaxDP=9.72D-04 DE=-1.07D-05 OVMax= 5.01D-03

 Cycle  15  Pass 0  IDiag  1:
 RMSU=  1.18D-05    CP:  1.03D+00  1.25D+00  9.69D-01  1.36D+00 -9.75D-01
                    CP: -3.00D+00  3.00D+00  1.66D+00  3.00D+00  3.00D+00
                    CP:  3.00D+00  3.00D+00  2.05D+00  1.74D+00
 E= -226.969922126646     Delta-E=       -0.000007385735 Rises=F Damp=F
 DIIS: error= 1.24D-04 at cycle  15 NSaved=  15.
 NSaved=15 IEnMin= 6 EnMin= -226.972648693561     IErMin=15 ErrMin= 1.24D-04
 ErrMax= 1.24D-04  0.00D+00 EMaxC= 1.00D-01 BMatC= 1.02D-06 BMatP= 1.64D-06
 IDIUse=3 WtCom= 9.99D-01 WtEn= 1.24D-03
 Coeff-Com: -0.572D-03 0.872D-03 0.415D-02 0.161D-01-0.272D-01 0.705D-01
 Coeff-Com: -0.112D+00 0.764D-01 0.147D+00-0.432D+00-0.542D-01 0.925D+00
 Coeff-Com: -0.605D+00-0.180D+01 0.279D+01
 Coeff-En:   0.000D+00 0.000D+00 0.000D+00 0.000D+00 0.000D+00 0.000D+00
 Coeff-En:   0.000D+00 0.000D+00 0.000D+00 0.000D+00 0.000D+00 0.000D+00
 Coeff-En:   0.000D+00 0.000D+00 0.100D+01
 Coeff:     -0.571D-03 0.871D-03 0.414D-02 0.161D-01-0.271D-01 0.705D-01
 Coeff:     -0.112D+00 0.763D-01 0.147D+00-0.432D+00-0.541D-01 0.924D+00
 Coeff:     -0.605D+00-0.179D+01 0.279D+01
 Gap=     0.370 Goal=   None    Shift=    0.000
 Gap=     0.368 Goal=   None    Shift=    0.000
 RMSDP=4.22D-05 MaxDP=1.17D-03 DE=-7.39D-06 OVMax= 6.21D-03

 Cycle  16  Pass 0  IDiag  1:
 RMSU=  8.10D-06    CP:  1.03D+00  1.24D+00  9.69D-01  1.36D+00 -9.44D-01
                    CP: -3.00D+00  3.00D+00  1.62D+00  3.00D+00  3.00D+00
                    CP:  3.00D+00  3.00D+00  2.51D+00  2.49D+00  2.95D+00
 E= -226.969928252636     Delta-E=       -0.000006125990 Rises=F Damp=F
 DIIS: error= 5.84D-05 at cycle  16 NSaved=  16.
 NSaved=16 IEnMin= 6 EnMin= -226.972648693561     IErMin=16 ErrMin= 5.84D-05
 ErrMax= 5.84D-05  0.00D+00 EMaxC= 1.00D-01 BMatC= 3.19D-07 BMatP= 1.02D-06
 IDIUse=1 WtCom= 1.00D+00 WtEn= 0.00D+00
 Coeff-Com:  0.207D-03-0.355D-03-0.673D-03-0.663D-03-0.192D-02-0.108D-02
 Coeff-Com:  0.112D-03-0.127D-01 0.649D-01-0.204D-03-0.158D+00 0.638D-01
 Coeff-Com:  0.296D+00 0.744D-01-0.129D+01 0.197D+01
 Coeff:      0.207D-03-0.355D-03-0.673D-03-0.663D-03-0.192D-02-0.108D-02
 Coeff:      0.112D-03-0.127D-01 0.649D-01-0.204D-03-0.158D+00 0.638D-01
 Coeff:      0.296D+00 0.744D-01-0.129D+01 0.197D+01
 Gap=     0.370 Goal=   None    Shift=    0.000
 Gap=     0.368 Goal=   None    Shift=    0.000
 RMSDP=2.80D-05 MaxDP=8.16D-04 DE=-6.13D-06 OVMax= 4.30D-03

 Cycle  17  Pass 0  IDiag  1:
 RMSU=  1.72D-05    CP:  1.03D+00  1.24D+00  9.68D-01  1.36D+00 -9.32D-01
                    CP: -3.00D+00  3.00D+00  1.60D+00  3.00D+00  3.00D+00
                    CP:  3.00D+00  3.00D+00  2.80D+00  2.95D+00  3.00D+00
                    CP:  1.76D+00
 E= -226.969930235361     Delta-E=       -0.000001982725 Rises=F Damp=F
 DIIS: error= 2.64D-05 at cycle  17 NSaved=  17.
 NSaved=17 IEnMin= 6 EnMin= -226.972648693561     IErMin=17 ErrMin= 2.64D-05
 ErrMax= 2.64D-05  0.00D+00 EMaxC= 1.00D-01 BMatC= 8.33D-08 BMatP= 3.19D-07
 IDIUse=1 WtCom= 1.00D+00 WtEn= 0.00D+00
 Coeff-Com: -0.155D-03 0.308D-03-0.395D-03-0.904D-03 0.356D-02-0.785D-02
 Coeff-Com:  0.131D-01-0.126D-01-0.397D-01 0.101D+00 0.263D-01-0.180D+00
 Coeff-Com: -0.158D-01 0.381D+00-0.357D-01-0.101D+01 0.178D+01
 Coeff:     -0.155D-03 0.308D-03-0.395D-03-0.904D-03 0.356D-02-0.785D-02
 Coeff:      0.131D-01-0.126D-01-0.397D-01 0.101D+00 0.263D-01-0.180D+00
 Coeff:     -0.158D-01 0.381D+00-0.357D-01-0.101D+01 0.178D+01
 Gap=     0.370 Goal=   None    Shift=    0.000
 Gap=     0.368 Goal=   None    Shift=    0.000
 RMSDP=1.01D-05 MaxDP=2.61D-04 DE=-1.98D-06 OVMax= 1.35D-03

 Cycle  18  Pass 0  IDiag  1:
 RMSU=  3.38D-06    CP:  1.03D+00  1.24D+00  9.68D-01  1.36D+00 -9.32D-01
                    CP: -3.00D+00  3.00D+00  1.59D+00  3.00D+00  3.00D+00
                    CP:  3.00D+00  3.00D+00  2.88D+00  3.00D+00  3.00D+00
                    CP:  2.05D+00  1.43D+00
 E= -226.969930507733     Delta-E=       -0.000000272372 Rises=F Damp=F
 DIIS: error= 1.15D-05 at cycle  18 NSaved=  18.
 NSaved=18 IEnMin= 6 EnMin= -226.972648693561     IErMin=18 ErrMin= 1.15D-05
 ErrMax= 1.15D-05  0.00D+00 EMaxC= 1.00D-01 BMatC= 2.61D-08 BMatP= 8.33D-08
 IDIUse=1 WtCom= 1.00D+00 WtEn= 0.00D+00
 Coeff-Com:  0.135D-03-0.244D-03-0.356D-03 0.412D-03 0.301D-03 0.535D-03
 Coeff-Com: -0.144D-02 0.854D-02-0.774D-02-0.217D-01-0.768D-02 0.970D-01
 Coeff-Com: -0.689D-01-0.174D+00 0.185D+00 0.331D+00-0.124D+01 0.190D+01
 Coeff:      0.135D-03-0.244D-03-0.356D-03 0.412D-03 0.301D-03 0.535D-03
 Coeff:     -0.144D-02 0.854D-02-0.774D-02-0.217D-01-0.768D-02 0.970D-01
 Coeff:     -0.689D-01-0.174D+00 0.185D+00 0.331D+00-0.124D+01 0.190D+01
 Gap=     0.370 Goal=   None    Shift=    0.000
 Gap=     0.368 Goal=   None    Shift=    0.000
 RMSDP=3.83D-06 MaxDP=7.31D-05 DE=-2.72D-07 OVMax= 2.27D-04

 Initial convergence to 1.0D-05 achieved.  Increase integral accuracy.
 Cycle  19  Pass 1  IDiag  1:
 E= -226.969930564634     Delta-E=       -0.000000056901 Rises=F Damp=F
 DIIS: error= 5.15D-06 at cycle   1 NSaved=   1.
 NSaved= 1 IEnMin= 1 EnMin= -226.969930564634     IErMin= 1 ErrMin= 5.15D-06
 ErrMax= 5.15D-06  0.00D+00 EMaxC= 1.00D-01 BMatC= 8.49D-09 BMatP= 8.49D-09
 IDIUse=1 WtCom= 1.00D+00 WtEn= 0.00D+00
 Coeff-Com:  0.100D+01
 Coeff:      0.100D+01
 Gap=     0.370 Goal=   None    Shift=    0.000
 Gap=     0.368 Goal=   None    Shift=    0.000
 RMSDP=3.83D-06 MaxDP=7.31D-05 DE=-5.69D-08 OVMax= 5.58D-05

 Cycle  20  Pass 1  IDiag  1:
 RMSU=  9.39D-07    CP:  1.00D+00
 E= -226.969930576431     Delta-E=       -0.000000011797 Rises=F Damp=F
 DIIS: error= 5.41D-06 at cycle   2 NSaved=   2.
 NSaved= 2 IEnMin= 2 EnMin= -226.969930576431     IErMin= 1 ErrMin= 5.15D-06
 ErrMax= 5.41D-06  0.00D+00 EMaxC= 1.00D-01 BMatC= 6.82D-09 BMatP= 8.49D-09
 IDIUse=1 WtCom= 1.00D+00 WtEn= 0.00D+00
 Coeff-Com:  0.131D+00 0.869D+00
 Coeff:      0.131D+00 0.869D+00
 Gap=     0.370 Goal=   None    Shift=    0.000
 Gap=     0.368 Goal=   None    Shift=    0.000
 RMSDP=6.81D-07 MaxDP=1.48D-05 DE=-1.18D-08 OVMax= 4.83D-05

 Cycle  21  Pass 1  IDiag  1:
 RMSU=  4.70D-07    CP:  1.00D+00  1.52D+00
 E= -226.969930586588     Delta-E=       -0.000000010157 Rises=F Damp=F
 DIIS: error= 5.66D-06 at cycle   3 NSaved=   3.
 NSaved= 3 IEnMin= 3 EnMin= -226.969930586588     IErMin= 1 ErrMin= 5.15D-06
 ErrMax= 5.66D-06  0.00D+00 EMaxC= 1.00D-01 BMatC= 7.39D-09 BMatP= 6.82D-09
 IDIUse=1 WtCom= 1.00D+00 WtEn= 0.00D+00
 Coeff-Com: -0.121D+00 0.716D+00 0.405D+00
 Coeff:     -0.121D+00 0.716D+00 0.405D+00
 Gap=     0.370 Goal=   None    Shift=    0.000
 Gap=     0.368 Goal=   None    Shift=    0.000
 RMSDP=4.65D-07 MaxDP=1.06D-05 DE=-1.02D-08 OVMax= 3.47D-05

 Cycle  22  Pass 1  IDiag  1:
 RMSU=  7.54D-08    CP:  1.00D+00  1.96D+00  1.44D+00
 E= -226.969930593808     Delta-E=       -0.000000007220 Rises=F Damp=F
 DIIS: error= 5.84D-06 at cycle   4 NSaved=   4.
 NSaved= 4 IEnMin= 4 EnMin= -226.969930593808     IErMin= 1 ErrMin= 5.15D-06
 ErrMax= 5.84D-06  0.00D+00 EMaxC= 1.00D-01 BMatC= 7.33D-09 BMatP= 6.82D-09
 IDIUse=1 WtCom= 1.00D+00 WtEn= 0.00D+00
 Large coefficients: NSaved=  4 BigCof=   10.20 CofMax=   10.00 Det=-6.85D-12
 Inversion failed.  Reducing to  3 matrices.
 Coeff-Com:  0.924D+00 0.153D+01-0.146D+01
 Coeff:      0.924D+00 0.153D+01-0.146D+01
 Gap=     0.370 Goal=   None    Shift=    0.000
 Gap=     0.368 Goal=   None    Shift=    0.000
 RMSDP=9.95D-07 MaxDP=2.35D-05 DE=-7.22D-09 OVMax= 7.60D-05

 Cycle  23  Pass 1  IDiag  1:
 RMSU=  4.61D-08    CP:  1.00D+00  1.08D+00  3.44D-01 -1.70D+00
 E= -226.969930578383     Delta-E=        0.000000015425 Rises=F Damp=F
 DIIS: error= 5.45D-06 at cycle   5 NSaved=   4.
 NSaved= 4 IEnMin= 3 EnMin= -226.969930593808     IErMin= 1 ErrMin= 5.41D-06
 ErrMax= 5.45D-06  0.00D+00 EMaxC= 1.00D-01 BMatC= 6.96D-09 BMatP= 6.82D-09
 IDIUse=1 WtCom= 1.00D+00 WtEn= 0.00D+00
 Large coefficients: NSaved=  4 BigCof=   12.18 CofMax=   10.00 Det=-4.58D-12
 Inversion failed.  Reducing to  3 matrices.
 Coeff-Com: -0.592D+01 0.821D+00 0.609D+01
 Coeff:     -0.592D+01 0.821D+00 0.609D+01
 Gap=     0.370 Goal=   None    Shift=    0.000
 Gap=     0.368 Goal=   None    Shift=    0.000
 RMSDP=1.75D-06 MaxDP=4.28D-05 DE= 1.54D-08 OVMax= 1.37D-04

 Cycle  24  Pass 1  IDiag  1:
 RMSU=  6.53D-07    CP:  1.00D+00 -2.78D-01 -1.61D+00 -3.00D+00  3.00D+00
 E= -226.969930554570     Delta-E=        0.000000023813 Rises=F Damp=F
 DIIS: error= 4.74D-06 at cycle   6 NSaved=   4.
 NSaved= 4 IEnMin= 2 EnMin= -226.969930593808     IErMin= 4 ErrMin= 4.74D-06
 ErrMax= 4.74D-06  0.00D+00 EMaxC= 1.00D-01 BMatC= 6.12D-09 BMatP= 6.96D-09
 IDIUse=1 WtCom= 1.00D+00 WtEn= 0.00D+00
 Coeff-Com: -0.989D+01 0.484D+01 0.298D+01 0.307D+01
 Coeff:     -0.989D+01 0.484D+01 0.298D+01 0.307D+01
 Gap=     0.370 Goal=   None    Shift=    0.000
 Gap=     0.368 Goal=   None    Shift=    0.000
 RMSDP=4.01D-06 MaxDP=9.24D-05 DE= 2.38D-08 OVMax= 2.95D-04

 Cycle  25  Pass 1  IDiag  1:
 RMSU=  1.80D-06    CP:  1.00D+00 -2.98D+00 -3.00D+00 -3.00D+00  3.00D+00
                    CP:  3.00D+00
 E= -226.969930519985     Delta-E=        0.000000034585 Rises=F Damp=F
 DIIS: error= 3.30D-06 at cycle   7 NSaved=   5.
 NSaved= 5 IEnMin= 2 EnMin= -226.969930593808     IErMin= 5 ErrMin= 3.30D-06
 ErrMax= 3.30D-06  0.00D+00 EMaxC= 1.00D-01 BMatC= 5.14D-09 BMatP= 6.12D-09
 IDIUse=1 WtCom= 1.00D+00 WtEn= 0.00D+00
 Coeff-Com: -0.882D+01 0.452D+01 0.251D+01 0.258D+01 0.207D+00
 Coeff:     -0.882D+01 0.452D+01 0.251D+01 0.258D+01 0.207D+00
 Gap=     0.370 Goal=   None    Shift=    0.000
 Gap=     0.368 Goal=   None    Shift=    0.000
 RMSDP=3.22D-07 MaxDP=1.05D-05 DE= 3.46D-08 OVMax= 2.04D-05

 Cycle  26  Pass 1  IDiag  1:
 RMSU=  2.40D-07    CP:  1.00D+00 -2.98D+00 -3.00D+00 -3.00D+00  3.00D+00
                    CP:  3.00D+00  1.12D+00
 E= -226.969930521230     Delta-E=       -0.000000001245 Rises=F Damp=F
 DIIS: error= 3.43D-06 at cycle   8 NSaved=   6.
 NSaved= 6 IEnMin= 2 EnMin= -226.969930593808     IErMin= 5 ErrMin= 3.30D-06
 ErrMax= 3.43D-06  0.00D+00 EMaxC= 1.00D-01 BMatC= 5.37D-09 BMatP= 5.14D-09
 IDIUse=1 WtCom= 1.00D+00 WtEn= 0.00D+00
 Large coefficients: NSaved=  6 BigCof=   16.49 CofMax=   10.00 Det=-9.15D-12
 Inversion failed.  Reducing to  5 matrices.
 Coeff-Com: -0.494D+01 0.325D+01 0.165D+01 0.345D+01-0.242D+01
 Coeff:     -0.494D+01 0.325D+01 0.165D+01 0.345D+01-0.242D+01
 Gap=     0.370 Goal=   None    Shift=    0.000
 Gap=     0.368 Goal=   None    Shift=    0.000
 RMSDP=9.93D-07 MaxDP=2.33D-05 DE=-1.24D-09 OVMax= 7.52D-05

 Cycle  27  Pass 1  IDiag  1:
 RMSU=  1.40D-07    CP:  1.00D+00 -2.11D+00 -3.00D+00 -3.00D+00  3.00D+00
                    CP:  3.00D+00  8.23D-01  1.58D+00
 E= -226.969930529331     Delta-E=       -0.000000008102 Rises=F Damp=F
 DIIS: error= 3.56D-06 at cycle   9 NSaved=   6.
 NSaved= 6 IEnMin= 2 EnMin= -226.969930593808     IErMin= 4 ErrMin= 3.30D-06
 ErrMax= 3.56D-06  0.00D+00 EMaxC= 1.00D-01 BMatC= 4.98D-09 BMatP= 5.14D-09
 IDIUse=1 WtCom= 1.00D+00 WtEn= 0.00D+00
 Large coefficients: NSaved=  6 BigCof=   19.33 CofMax=   10.00 Det=-7.63D-12
 Inversion failed.  Reducing to  5 matrices.
 Coeff-Com: -0.396D+01 0.504D+00 0.376D+01 0.528D-02 0.691D+00
 Coeff:     -0.396D+01 0.504D+00 0.376D+01 0.528D-02 0.691D+00
 Gap=     0.370 Goal=   None    Shift=    0.000
 Gap=     0.368 Goal=   None    Shift=    0.000
 RMSDP=5.06D-07 MaxDP=1.76D-05 DE=-8.10D-09 OVMax= 3.14D-05

 Cycle  28  Pass 1  IDiag  1:
 RMSU=  2.79D-07    CP:  1.00D+00 -2.14D+00 -3.00D+00 -3.00D+00  3.00D+00
                    CP:  3.00D+00  7.73D-01  3.00D+00  1.64D+00
 E= -226.969930532722     Delta-E=       -0.000000003391 Rises=F Damp=F
 DIIS: error= 3.67D-06 at cycle  10 NSaved=   6.
 NSaved= 6 IEnMin= 2 EnMin= -226.969930593808     IErMin= 4 ErrMin= 3.43D-06
 ErrMax= 3.67D-06  0.00D+00 EMaxC= 1.00D-01 BMatC= 6.17D-09 BMatP= 4.98D-09
 IDIUse=1 WtCom= 1.00D+00 WtEn= 0.00D+00
 Coeff-Com: -0.457D+00 0.234D+00 0.577D+00 0.608D+01 0.126D+01-0.670D+01
 Coeff:     -0.457D+00 0.234D+00 0.577D+00 0.608D+01 0.126D+01-0.670D+01
 Gap=     0.370 Goal=   None    Shift=    0.000
 Gap=     0.368 Goal=   None    Shift=    0.000
 RMSDP=6.13D-06 MaxDP=1.45D-04 DE=-3.39D-09 OVMax= 4.63D-04

 Cycle  29  Pass 1  IDiag  1:
 RMSU=  3.50D-06    CP:  1.00D+00 -3.00D+00 -3.00D+00 -3.00D+00  3.00D+00
                    CP:  3.00D+00  2.26D+00 -3.00D+00 -3.00D+00 -3.00D+00
 E= -226.969930489160     Delta-E=        0.000000043562 Rises=F Damp=F
 DIIS: error= 3.47D-06 at cycle  11 NSaved=   7.
 NSaved= 7 IEnMin= 2 EnMin= -226.969930593808     IErMin= 4 ErrMin= 3.43D-06
 ErrMax= 3.47D-06  0.00D+00 EMaxC= 1.00D-01 BMatC= 1.26D-09 BMatP= 4.98D-09
 IDIUse=1 WtCom= 1.00D+00 WtEn= 0.00D+00
 Coeff-Com: -0.144D+01 0.331D+00 0.918D+00-0.361D+01-0.368D+00 0.334D+01
 Coeff-Com:  0.183D+01
 Coeff:     -0.144D+01 0.331D+00 0.918D+00-0.361D+01-0.368D+00 0.334D+01
 Coeff:      0.183D+01
 Gap=     0.370 Goal=   None    Shift=    0.000
 Gap=     0.368 Goal=   None    Shift=    0.000
 RMSDP=1.73D-06 MaxDP=4.20D-05 DE= 4.36D-08 OVMax= 1.35D-04

 Cycle  30  Pass 1  IDiag  1:
 RMSU=  4.26D-07    CP:  1.00D+00 -3.00D+00 -3.00D+00 -3.00D+00  3.00D+00
                    CP:  3.00D+00  2.78D+00 -3.00D+00 -3.00D+00 -3.00D+00
                    CP:  1.40D+00
 E= -226.969930485951     Delta-E=        0.000000003209 Rises=F Damp=F
 DIIS: error= 2.31D-06 at cycle  12 NSaved=   8.
 NSaved= 8 IEnMin= 2 EnMin= -226.969930593808     IErMin= 8 ErrMin= 2.31D-06
 ErrMax= 2.31D-06  0.00D+00 EMaxC= 1.00D-01 BMatC= 5.29D-10 BMatP= 1.26D-09
 IDIUse=1 WtCom= 1.00D+00 WtEn= 0.00D+00
 Coeff-Com: -0.118D+01 0.815D+00 0.821D-01-0.437D+01-0.681D+00 0.457D+01
 Coeff-Com:  0.260D+00 0.150D+01
 Coeff:     -0.118D+01 0.815D+00 0.821D-01-0.437D+01-0.681D+00 0.457D+01
 Coeff:      0.260D+00 0.150D+01
 Gap=     0.370 Goal=   None    Shift=    0.000
 Gap=     0.368 Goal=   None    Shift=    0.000
 RMSDP=1.11D-06 MaxDP=2.43D-05 DE= 3.21D-09 OVMax= 8.33D-05

 Cycle  31  Pass 1  IDiag  1:
 RMSU=  3.75D-07    CP:  1.00D+00 -3.00D+00 -3.00D+00 -3.00D+00  3.00D+00
                    CP:  3.00D+00  3.00D+00 -3.00D+00 -3.00D+00 -3.00D+00
                    CP:  1.58D+00  2.22D+00
 E= -226.969930486225     Delta-E=       -0.000000000274 Rises=F Damp=F
 DIIS: error= 1.46D-06 at cycle  13 NSaved=   9.
 NSaved= 9 IEnMin= 2 EnMin= -226.969930593808     IErMin= 9 ErrMin= 1.46D-06
 ErrMax= 1.46D-06  0.00D+00 EMaxC= 1.00D-01 BMatC= 1.74D-10 BMatP= 5.29D-10
 IDIUse=1 WtCom= 1.00D+00 WtEn= 0.00D+00
 Coeff-Com:  0.131D+01-0.929D+00 0.900D-01 0.699D+01 0.107D+01-0.720D+01
 Coeff-Com: -0.130D+01-0.138D+01 0.234D+01
 Coeff:      0.131D+01-0.929D+00 0.900D-01 0.699D+01 0.107D+01-0.720D+01
 Coeff:     -0.130D+01-0.138D+01 0.234D+01
 Gap=     0.370 Goal=   None    Shift=    0.000
 Gap=     0.368 Goal=   None    Shift=    0.000
 RMSDP=3.74D-07 MaxDP=7.66D-06 DE=-2.74D-10 OVMax= 3.61D-05

 Cycle  32  Pass 1  IDiag  1:
 RMSU=  1.95D-07    CP:  1.00D+00 -3.00D+00 -3.00D+00 -3.00D+00  3.00D+00
                    CP:  3.00D+00  3.00D+00 -3.00D+00 -3.00D+00 -3.00D+00
                    CP:  1.62D+00  2.74D+00  1.48D+00
 E= -226.969930486775     Delta-E=       -0.000000000550 Rises=F Damp=F
 DIIS: error= 1.07D-06 at cycle  14 NSaved=  10.
 NSaved=10 IEnMin= 2 EnMin= -226.969930593808     IErMin=10 ErrMin= 1.07D-06
 ErrMax= 1.07D-06  0.00D+00 EMaxC= 1.00D-01 BMatC= 5.88D-11 BMatP= 1.74D-10
 IDIUse=1 WtCom= 1.00D+00 WtEn= 0.00D+00
 Coeff-Com:  0.483D+00-0.350D+00 0.340D-01 0.256D+01 0.390D+00-0.264D+01
 Coeff-Com: -0.410D+00-0.529D+00 0.263D+00 0.120D+01
 Coeff:      0.483D+00-0.350D+00 0.340D-01 0.256D+01 0.390D+00-0.264D+01
 Coeff:     -0.410D+00-0.529D+00 0.263D+00 0.120D+01
 Gap=     0.370 Goal=   None    Shift=    0.000
 Gap=     0.368 Goal=   None    Shift=    0.000
 RMSDP=1.75D-07 MaxDP=3.86D-06 DE=-5.50D-10 OVMax= 2.15D-05

 Cycle  33  Pass 1  IDiag  1:
 RMSU=  4.73D-08    CP:  1.00D+00 -3.00D+00 -3.00D+00 -3.00D+00  3.00D+00
                    CP:  3.00D+00  3.00D+00 -3.00D+00 -3.00D+00 -3.00D+00
                    CP:  1.63D+00  2.98D+00  1.66D+00  1.55D+00
 E= -226.969930486968     Delta-E=       -0.000000000193 Rises=F Damp=F
 DIIS: error= 7.31D-07 at cycle  15 NSaved=  11.
 NSaved=11 IEnMin= 2 EnMin= -226.969930593808     IErMin=11 ErrMin= 7.31D-07
 ErrMax= 7.31D-07  0.00D+00 EMaxC= 1.00D-01 BMatC= 3.35D-11 BMatP= 5.88D-11
 IDIUse=1 WtCom= 1.00D+00 WtEn= 0.00D+00
 Coeff-Com: -0.150D+01 0.112D+01-0.101D+00-0.697D+01-0.107D+01 0.722D+01
 Coeff-Com:  0.105D+01 0.168D+01-0.200D+01-0.617D+00 0.218D+01
 Coeff:     -0.150D+01 0.112D+01-0.101D+00-0.697D+01-0.107D+01 0.722D+01
 Coeff:      0.105D+01 0.168D+01-0.200D+01-0.617D+00 0.218D+01
 Gap=     0.370 Goal=   None    Shift=    0.000
 Gap=     0.368 Goal=   None    Shift=    0.000
 RMSDP=1.77D-07 MaxDP=4.67D-06 DE=-1.93D-10 OVMax= 2.28D-05

 Cycle  34  Pass 1  IDiag  1:
 RMSU=  1.00D-07    CP:  1.00D+00 -3.00D+00 -3.00D+00 -3.00D+00  3.00D+00
                    CP:  3.00D+00  3.00D+00 -3.00D+00 -3.00D+00 -3.00D+00
                    CP:  1.64D+00  3.00D+00  1.74D+00  2.10D+00  2.64D+00
 E= -226.969930487104     Delta-E=       -0.000000000136 Rises=F Damp=F
 DIIS: error= 4.37D-07 at cycle  16 NSaved=  12.
 NSaved=12 IEnMin= 2 EnMin= -226.969930593808     IErMin=12 ErrMin= 4.37D-07
 ErrMax= 4.37D-07  0.00D+00 EMaxC= 1.00D-01 BMatC= 1.46D-11 BMatP= 3.35D-11
 IDIUse=1 WtCom= 1.00D+00 WtEn= 0.00D+00
 Coeff-Com:  0.642D+00-0.527D+00 0.136D+00 0.369D+01 0.569D+00-0.381D+01
 Coeff-Com: -0.604D+00-0.818D+00 0.102D+01 0.504D+00-0.183D+01 0.204D+01
 Coeff:      0.642D+00-0.527D+00 0.136D+00 0.369D+01 0.569D+00-0.381D+01
 Coeff:     -0.604D+00-0.818D+00 0.102D+01 0.504D+00-0.183D+01 0.204D+01
 Gap=     0.370 Goal=   None    Shift=    0.000
 Gap=     0.368 Goal=   None    Shift=    0.000
 RMSDP=9.20D-08 MaxDP=2.45D-06 DE=-1.36D-10 OVMax= 1.29D-05

 Cycle  35  Pass 1  IDiag  1:
 RMSU=  4.75D-08    CP:  1.00D+00 -3.00D+00 -3.00D+00 -3.00D+00  3.00D+00
                    CP:  3.00D+00  3.00D+00 -3.00D+00 -3.00D+00 -3.00D+00
                    CP:  1.64D+00  3.00D+00  1.73D+00  2.38D+00  3.00D+00
                    CP:  1.49D+00
 E= -226.969930487158     Delta-E=       -0.000000000054 Rises=F Damp=F
 DIIS: error= 3.15D-07 at cycle  17 NSaved=  13.
 NSaved=13 IEnMin= 2 EnMin= -226.969930593808     IErMin=13 ErrMin= 3.15D-07
 ErrMax= 3.15D-07  0.00D+00 EMaxC= 1.00D-01 BMatC= 8.74D-12 BMatP= 1.46D-11
 IDIUse=1 WtCom= 1.00D+00 WtEn= 0.00D+00
 Coeff-Com:  0.974D+00-0.707D+00 0.330D-01 0.444D+01 0.675D+00-0.459D+01
 Coeff-Com: -0.693D+00-0.103D+01 0.116D+01 0.761D+00-0.166D+01-0.229D+00
 Coeff-Com:  0.186D+01
 Coeff:      0.974D+00-0.707D+00 0.330D-01 0.444D+01 0.675D+00-0.459D+01
 Coeff:     -0.693D+00-0.103D+01 0.116D+01 0.761D+00-0.166D+01-0.229D+00
 Coeff:      0.186D+01
 Gap=     0.370 Goal=   None    Shift=    0.000
 Gap=     0.368 Goal=   None    Shift=    0.000
 RMSDP=9.66D-08 MaxDP=2.43D-06 DE=-5.37D-11 OVMax= 1.24D-05

 Cycle  36  Pass 1  IDiag  1:
 RMSU=  1.70D-08    CP:  1.00D+00 -3.00D+00 -3.00D+00 -3.00D+00  3.00D+00
                    CP:  3.00D+00  3.00D+00 -3.00D+00 -3.00D+00 -3.00D+00
                    CP:  1.64D+00  3.00D+00  1.68D+00  2.63D+00  3.00D+00
                    CP:  1.94D+00  2.36D+00
 E= -226.969930487199     Delta-E=       -0.000000000041 Rises=F Damp=F
 DIIS: error= 2.07D-07 at cycle  18 NSaved=  14.
 NSaved=14 IEnMin= 2 EnMin= -226.969930593808     IErMin=14 ErrMin= 2.07D-07
 ErrMax= 2.07D-07  0.00D+00 EMaxC= 1.00D-01 BMatC= 4.45D-12 BMatP= 8.74D-12
 IDIUse=1 WtCom= 1.00D+00 WtEn= 0.00D+00
 Coeff-Com: -0.170D+01 0.137D+01-0.331D+00-0.960D+01-0.149D+01 0.995D+01
 Coeff-Com:  0.152D+01 0.223D+01-0.274D+01-0.102D+01 0.340D+01-0.975D+00
 Coeff-Com: -0.303D+01 0.341D+01
 Coeff:     -0.170D+01 0.137D+01-0.331D+00-0.960D+01-0.149D+01 0.995D+01
 Coeff:      0.152D+01 0.223D+01-0.274D+01-0.102D+01 0.340D+01-0.975D+00
 Coeff:     -0.303D+01 0.341D+01
 Gap=     0.370 Goal=   None    Shift=    0.000
 Gap=     0.368 Goal=   None    Shift=    0.000
 RMSDP=1.24D-07 MaxDP=3.22D-06 DE=-4.12D-11 OVMax= 1.52D-05

 Cycle  37  Pass 1  IDiag  1:
 RMSU=  5.13D-08    CP:  1.00D+00 -3.00D+00 -3.00D+00 -3.00D+00  3.00D+00
                    CP:  3.00D+00  3.00D+00 -3.00D+00 -3.00D+00 -3.00D+00
                    CP:  1.65D+00  3.00D+00  1.57D+00  2.89D+00  3.00D+00
                    CP:  2.40D+00  3.00D+00  3.00D+00
 E= -226.969930487229     Delta-E=       -0.000000000030 Rises=F Damp=F
 DIIS: error= 7.74D-08 at cycle  19 NSaved=  15.
 NSaved=15 IEnMin= 2 EnMin= -226.969930593808     IErMin=15 ErrMin= 7.74D-08
 ErrMax= 7.74D-08  0.00D+00 EMaxC= 1.00D-01 BMatC= 1.00D-12 BMatP= 4.45D-12
 IDIUse=1 WtCom= 1.00D+00 WtEn= 0.00D+00
 Coeff-Com:  0.151D+01-0.117D+01 0.187D+00 0.773D+01 0.120D+01-0.800D+01
 Coeff-Com: -0.122D+01-0.180D+01 0.219D+01 0.860D+00-0.281D+01 0.103D+01
 Coeff-Com:  0.219D+01-0.312D+01 0.224D+01
 Coeff:      0.151D+01-0.117D+01 0.187D+00 0.773D+01 0.120D+01-0.800D+01
 Coeff:     -0.122D+01-0.180D+01 0.219D+01 0.860D+00-0.281D+01 0.103D+01
 Coeff:      0.219D+01-0.312D+01 0.224D+01
 Gap=     0.370 Goal=   None    Shift=    0.000
 Gap=     0.368 Goal=   None    Shift=    0.000
 RMSDP=5.29D-08 MaxDP=1.25D-06 DE=-2.97D-11 OVMax= 6.09D-06

 Cycle  38  Pass 1  IDiag  1:
 RMSU=  1.52D-08    CP:  1.00D+00 -3.00D+00 -3.00D+00 -3.00D+00  3.00D+00
                    CP:  3.00D+00  3.00D+00 -3.00D+00 -3.00D+00 -3.00D+00
                    CP:  1.66D+00  3.00D+00  1.53D+00  3.00D+00  3.00D+00
                    CP:  2.53D+00  3.00D+00  3.00D+00  1.77D+00
 E= -226.969930487234     Delta-E=       -0.000000000005 Rises=F Damp=F
 DIIS: error= 3.20D-08 at cycle  20 NSaved=  16.
 NSaved=16 IEnMin= 2 EnMin= -226.969930593808     IErMin=16 ErrMin= 3.20D-08
 ErrMax= 3.20D-08  0.00D+00 EMaxC= 1.00D-01 BMatC= 1.28D-13 BMatP= 1.00D-12
 IDIUse=1 WtCom= 1.00D+00 WtEn= 0.00D+00
 Large coefficients: NSaved= 16 BigCof=    0.00 CofMax=   10.00 Det=-1.95D-15
 Inversion failed.  Reducing to 15 matrices.
 Coeff-Com:  0.113D-01-0.399D-02-0.888D-02-0.200D-01-0.156D-02 0.188D-01
 Coeff-Com:  0.637D-02 0.203D-02-0.144D-01 0.253D-01-0.555D-01 0.685D-01
 Coeff-Com:  0.588D-01-0.488D+00 0.140D+01
 Coeff:      0.113D-01-0.399D-02-0.888D-02-0.200D-01-0.156D-02 0.188D-01
 Coeff:      0.637D-02 0.203D-02-0.144D-01 0.253D-01-0.555D-01 0.685D-01
 Coeff:      0.588D-01-0.488D+00 0.140D+01
 Gap=     0.370 Goal=   None    Shift=    0.000
 Gap=     0.368 Goal=   None    Shift=    0.000
 RMSDP=1.20D-08 MaxDP=3.69D-07 DE=-4.95D-12 OVMax= 9.67D-07

 Cycle  39  Pass 1  IDiag  1:
 Restarting incremental Fock formation.
 E= -226.969930487234     Delta-E=       -0.000000000000 Rises=F Damp=F
 DIIS: error= 1.63D-08 at cycle  21 NSaved=  16.
 NSaved=16 IEnMin= 2 EnMin= -226.969930593808     IErMin=16 ErrMin= 1.63D-08
 ErrMax= 1.63D-08  0.00D+00 EMaxC= 1.00D-01 BMatC= 2.37D-14 BMatP= 1.28D-13
 IDIUse=1 WtCom= 1.00D+00 WtEn= 0.00D+00
 Large coefficients: NSaved= 16 BigCof=    0.00 CofMax=   10.00 Det=-8.56D-15
 Inversion failed.  Reducing to 15 matrices.
 Coeff-Com: -0.629D-02 0.120D-02 0.534D-02 0.344D-02 0.174D-02-0.410D-02
 Coeff-Com: -0.218D-02 0.542D-02-0.827D-02 0.157D-01-0.387D-01 0.285D-01
 Coeff-Com:  0.112D+00-0.689D+00 0.158D+01
 Coeff:     -0.629D-02 0.120D-02 0.534D-02 0.344D-02 0.174D-02-0.410D-02
 Coeff:     -0.218D-02 0.542D-02-0.827D-02 0.157D-01-0.387D-01 0.285D-01
 Coeff:      0.112D+00-0.689D+00 0.158D+01
 Gap=     0.370 Goal=   None    Shift=    0.000
 Gap=     0.368 Goal=   None    Shift=    0.000
 RMSDP=2.56D-09 MaxDP=8.82D-08 DE=-2.84D-13 OVMax= 1.94D-07

 SCF Done:  E(UHF) =  -226.969930487     A.U. after   39 cycles
            NFock= 39  Conv=0.26D-08     -V/T= 2.0013
 <Sx>= 0.0000 <Sy>= 0.0000 <Sz>= 0.5000 <S**2>= 0.7992 S= 0.5243
 <L.S>= 0.000000000000E+00
 KE= 2.266786045151D+02 PE=-8.120963719665D+02 EE= 2.136042077542D+02
 Annihilation of the first spin contaminant:
 S**2 before annihilation     0.7992,   after     0.7508
 Leave Link  502 at Tue Oct 10 03:49:21 2017, MaxMem=    33554432 cpu:       213.8
 (Enter /usr/local/gaussian/2009-E.01/g09/l801.exe)
 Windowed orbitals will be sorted by symmetry type.
 ExpMin= 3.60D-02 ExpMax= 8.59D+03 ExpMxC= 1.30D+03 IAcc=3 IRadAn=         5 AccDes= 0.00D+00
 HarFok:  IExCor=  205 AccDes= 0.00D+00 IRadAn=         5 IDoV=-2 UseB2=F ITyADJ=14
 ICtDFT= 12500011 ScaDFX=  1.000000  1.000000  1.000000  1.000000
 Largest valence mixing into a core orbital is  1.23D-04
 Largest core mixing into a valence orbital is  4.10D-05
 Largest valence mixing into a core orbital is  1.46D-04
 Largest core mixing into a valence orbital is  5.25D-05
 Range of M.O.s used for correlation:     6   124
 NBasis=   124 NAE=    17 NBE=    16 NFC=     5 NFV=     0
 NROrb=    119 NOA=    12 NOB=    11 NVA=   107 NVB=   108

 **** Warning!!: The largest alpha MO coefficient is  0.11409981D+03


 **** Warning!!: The largest beta MO coefficient is  0.96621930D+02

 Leave Link  801 at Tue Oct 10 03:49:21 2017, MaxMem=    33554432 cpu:         0.6
 (Enter /usr/local/gaussian/2009-E.01/g09/l804.exe)
 Open-shell transformation, MDV=    33554432 ITran=4 ISComp=1.
 Semi-Direct transformation.
 ModeAB=           2 MOrb=            12 LenV=      33037015
 LASXX=      9391461 LTotXX=     9391461 LenRXX=     9391461
 LTotAB=     9724680 MaxLAS=    11973780 LenRXY=    11973780
 NonZer=    18782922 LenScr=    28946432 LnRSAI=           0
 LnScr1=           0 LExtra=           0 Total=     50311673
 MaxDsk=          -1 SrtSym=           F ITran=            4
 DoSDTr:  NPSUse=  8
 JobTyp=1 Pass  1:  I=   1 to  12.
 Complete sort for first half transformation.
 First half transformation complete.
 Begin second half transformation for I=  10.
 Begin second half transformation for I=  10.
 Complete sort for second half transformation.
 Second half transformation complete.
 ModeAB=           2 MOrb=            11 LenV=      33037015
 LASXX=      8660278 LTotXX=     8660278 LenRXX=    10975965
 LTotAB=     7245612 MaxLAS=    10975965 LenRXY=     7245612
 NonZer=    17320556 LenScr=    26736640 LnRSAI=           0
 LnScr1=           0 LExtra=           0 Total=     44958217
 MaxDsk=          -1 SrtSym=           F ITran=            4
 DoSDTr:  NPSUse=  8
 JobTyp=2 Pass  1:  I=   1 to  11.
 Complete sort for first half transformation.
 First half transformation complete.
 Begin second half transformation for I=  10.
 Begin second half transformation for I=  10.
 Complete sort for second half transformation.
 Second half transformation complete.
 SymMOI:  orbitals are not symmetric.
 Spin components of T(2) and E(2):
     alpha-alpha T2 =       0.4077185431D-01 E2=     -0.1068181132D+00
     alpha-beta  T2 =       0.2042855727D+00 E2=     -0.5280161939D+00
     beta-beta   T2 =       0.2988272169D-01 E2=     -0.8485105615D-01
 ANorm=    0.1129132476D+01
 E2 =    -0.7196853633D+00 EUMP2 =    -0.22768961585049D+03
 (S**2,0)=  0.79919D+00           (S**2,1)=  0.77462D+00
 E(PUHF)=      -0.22697584707D+03        E(PMP2)=      -0.22769406941D+03
 Leave Link  804 at Tue Oct 10 03:49:37 2017, MaxMem=    33554432 cpu:       122.1
 (Enter /usr/local/gaussian/2009-E.01/g09/l913.exe)
 CIDS:  MDV=    33554432.
 Frozen-core window:  NFC=   5 NFV=   0.
 IFCWin=0 IBDFC=1 NFBD=     0     0 NFCmp=     0     0 NFFFC=     0     0
 Using original routines for 1st iteration, S=T.
 Using DD4UQ or CC4UQ for 2nd and later iterations.
 Would need an additional        27616074 words for in-memory AO integral storage.
 CCSD(T)
 =======
 Iterations= 200 Convergence= 0.100D-06
 Iteration Nr.   1
 **********************
 DD1Dir will call FoFJK   4 times, MxPair=        98
 NAB=   132 NAA=    66 NBB=    55 NumPrc=  8.
 DD1Dir:  Pass   1 NRAB=    49 NRAA=     0 NRBB=     0 NR=    98.
 FoFJK:  IHMeth= 1 ICntrl=     200 DoSepK=F KAlg= 0 I1Cent=   0 FoldK=F
 IRaf= 990000000 NMat=  98 IRICut=     122 DoRegI=T DoRafI=T ISym2E= 2.
 FoFCou: FMM=F IPFlag=           0 FMFlag=      100000 FMFlg1=           0
         NFxFlg=           0 DoJE=F BraDBF=F KetDBF=F FulRan=T
         wScrn=  0.000000 ICntrl=     200 IOpCl=  0 I1Cent=           0 NGrid=           0
         NMat0=   98 NMatS0=      0 NMatT0=   49 NMatD0=   98 NMtDS0=    0 NMtDT0=    0
 Integrals replicated using symmetry in FoFCou.
 DD1Dir:  Pass   2 NRAB=    49 NRAA=     0 NRBB=     0 NR=    98.
 DD1Dir:  Pass   3 NRAB=    34 NRAA=    30 NRBB=     0 NR=    98.
 DD1Dir:  Pass   4 NRAB=     0 NRAA=    36 NRBB=    55 NR=    91.
 E(PMP3)=      -0.22769983555D+03
 MP4(R+Q)=  0.24765769D-01
 Maximum subspace dimension=  5
 Norm of the A-vectors is  1.3440336D+00 conv= 1.00D-05.
 RLE energy=       -0.7024942992
 E3=       -0.75944125D-02        EUMP3=      -0.22769721026D+03
 E4(DQ)=   -0.32828322D-04        UMP4(DQ)=   -0.22769724309D+03
 E4(SDQ)=  -0.14129046D-01        UMP4(SDQ)=  -0.22771133931D+03
 VARIATIONAL ENERGIES WITH THE FIRST-ORDER WAVEFUNCTION:
 DE(Corr)= -0.70207387     E(Corr)=     -227.67200436    
 NORM(A)=   0.11311547D+01
 Iteration Nr.   2
 **********************
 DD1Dir will call FoFJK   4 times, MxPair=        98
 NAB=   132 NAA=    66 NBB=    55 NumPrc=  8.
 DD1Dir:  Pass   1 NRAB=    49 NRAA=     0 NRBB=     0 NR=    98.
 DD1Dir:  Pass   2 NRAB=    49 NRAA=     0 NRBB=     0 NR=    98.
 DD1Dir:  Pass   3 NRAB=    34 NRAA=    30 NRBB=     0 NR=    98.
 DD1Dir:  Pass   4 NRAB=     0 NRAA=    36 NRBB=    55 NR=    91.
 Norm of the A-vectors is  5.5414146D-01 conv= 1.00D-05.
 RLE energy=       -0.7377411084
 DE(Corr)= -0.73438017     E(CORR)=     -227.70431065     Delta=-3.23D-02
 NORM(A)=   0.11549551D+01
 Iteration Nr.   3
 **********************
 DD1Dir will call FoFJK   4 times, MxPair=        98
 NAB=   132 NAA=    66 NBB=    55 NumPrc=  8.
 DD1Dir:  Pass   1 NRAB=    49 NRAA=     0 NRBB=     0 NR=    98.
 DD1Dir:  Pass   2 NRAB=    49 NRAA=     0 NRBB=     0 NR=    98.
 DD1Dir:  Pass   3 NRAB=    34 NRAA=    30 NRBB=     0 NR=    98.
 DD1Dir:  Pass   4 NRAB=     0 NRAA=    36 NRBB=    55 NR=    91.
 Norm of the A-vectors is  2.1481212D-01 conv= 1.00D-05.
 RLE energy=       -0.7413573438
 DE(Corr)= -0.73600547     E(CORR)=     -227.70593595     Delta=-1.63D-03
 NORM(A)=   0.11685405D+01
 Iteration Nr.   4
 **********************
 DD1Dir will call FoFJK   4 times, MxPair=        98
 NAB=   132 NAA=    66 NBB=    55 NumPrc=  8.
 DD1Dir:  Pass   1 NRAB=    49 NRAA=     0 NRBB=     0 NR=    98.
 DD1Dir:  Pass   2 NRAB=    49 NRAA=     0 NRBB=     0 NR=    98.
 DD1Dir:  Pass   3 NRAB=    34 NRAA=    30 NRBB=     0 NR=    98.
 DD1Dir:  Pass   4 NRAB=     0 NRAA=    36 NRBB=    55 NR=    91.
 Norm of the A-vectors is  1.1260970D-01 conv= 1.00D-05.
 RLE energy=       -0.7429603733
 DE(Corr)= -0.74186967     E(CORR)=     -227.71180016     Delta=-5.86D-03
 NORM(A)=   0.11766642D+01
 Iteration Nr.   5
 **********************
 DD1Dir will call FoFJK   4 times, MxPair=        98
 NAB=   132 NAA=    66 NBB=    55 NumPrc=  8.
 DD1Dir:  Pass   1 NRAB=    49 NRAA=     0 NRBB=     0 NR=    98.
 DD1Dir:  Pass   2 NRAB=    49 NRAA=     0 NRBB=     0 NR=    98.
 DD1Dir:  Pass   3 NRAB=    34 NRAA=    30 NRBB=     0 NR=    98.
 DD1Dir:  Pass   4 NRAB=     0 NRAA=    36 NRBB=    55 NR=    91.
 Norm of the A-vectors is  5.4407366D-02 conv= 1.00D-05.
 RLE energy=       -0.7439043362
 DE(Corr)= -0.74329901     E(CORR)=     -227.71322950     Delta=-1.43D-03
 NORM(A)=   0.11807467D+01
 Iteration Nr.   6
 **********************
 DD1Dir will call FoFJK   4 times, MxPair=        98
 NAB=   132 NAA=    66 NBB=    55 NumPrc=  8.
 DD1Dir:  Pass   1 NRAB=    49 NRAA=     0 NRBB=     0 NR=    98.
 DD1Dir:  Pass   2 NRAB=    49 NRAA=     0 NRBB=     0 NR=    98.
 DD1Dir:  Pass   3 NRAB=    34 NRAA=    30 NRBB=     0 NR=    98.
 DD1Dir:  Pass   4 NRAB=     0 NRAA=    36 NRBB=    55 NR=    91.
 Norm of the A-vectors is  3.2361103D-02 conv= 1.00D-05.
 RLE energy=       -0.7435399385
 DE(Corr)= -0.74373041     E(CORR)=     -227.71366090     Delta=-4.31D-04
 NORM(A)=   0.11821756D+01
 Iteration Nr.   7
 **********************
 DD1Dir will call FoFJK   4 times, MxPair=        98
 NAB=   132 NAA=    66 NBB=    55 NumPrc=  8.
 DD1Dir:  Pass   1 NRAB=    49 NRAA=     0 NRBB=     0 NR=    98.
 DD1Dir:  Pass   2 NRAB=    49 NRAA=     0 NRBB=     0 NR=    98.
 DD1Dir:  Pass   3 NRAB=    34 NRAA=    30 NRBB=     0 NR=    98.
 DD1Dir:  Pass   4 NRAB=     0 NRAA=    36 NRBB=    55 NR=    91.
 Norm of the A-vectors is  2.7828491D-02 conv= 1.00D-05.
 RLE energy=       -0.7441683556
 DE(Corr)= -0.74393210     E(CORR)=     -227.71386259     Delta=-2.02D-04
 NORM(A)=   0.11858320D+01
 Iteration Nr.   8
 **********************
 DD1Dir will call FoFJK   4 times, MxPair=        98
 NAB=   132 NAA=    66 NBB=    55 NumPrc=  8.
 DD1Dir:  Pass   1 NRAB=    49 NRAA=     0 NRBB=     0 NR=    98.
 DD1Dir:  Pass   2 NRAB=    49 NRAA=     0 NRBB=     0 NR=    98.
 DD1Dir:  Pass   3 NRAB=    34 NRAA=    30 NRBB=     0 NR=    98.
 DD1Dir:  Pass   4 NRAB=     0 NRAA=    36 NRBB=    55 NR=    91.
 Norm of the A-vectors is  3.6457565D-02 conv= 1.00D-05.
 RLE energy=       -0.7444207039
 DE(Corr)= -0.74403236     E(CORR)=     -227.71396285     Delta=-1.00D-04
 NORM(A)=   0.11937163D+01
 Iteration Nr.   9
 **********************
 DD1Dir will call FoFJK   4 times, MxPair=        98
 NAB=   132 NAA=    66 NBB=    55 NumPrc=  8.
 DD1Dir:  Pass   1 NRAB=    49 NRAA=     0 NRBB=     0 NR=    98.
 DD1Dir:  Pass   2 NRAB=    49 NRAA=     0 NRBB=     0 NR=    98.
 DD1Dir:  Pass   3 NRAB=    34 NRAA=    30 NRBB=     0 NR=    98.
 DD1Dir:  Pass   4 NRAB=     0 NRAA=    36 NRBB=    55 NR=    91.
 Norm of the A-vectors is  4.5226580D-02 conv= 1.00D-05.
 RLE energy=       -0.7456290610
 DE(Corr)= -0.74474899     E(CORR)=     -227.71467948     Delta=-7.17D-04
 NORM(A)=   0.12035235D+01
 Iteration Nr.  10
 **********************
 DD1Dir will call FoFJK   4 times, MxPair=        98
 NAB=   132 NAA=    66 NBB=    55 NumPrc=  8.
 DD1Dir:  Pass   1 NRAB=    49 NRAA=     0 NRBB=     0 NR=    98.
 DD1Dir:  Pass   2 NRAB=    49 NRAA=     0 NRBB=     0 NR=    98.
 DD1Dir:  Pass   3 NRAB=    34 NRAA=    30 NRBB=     0 NR=    98.
 DD1Dir:  Pass   4 NRAB=     0 NRAA=    36 NRBB=    55 NR=    91.
 Norm of the A-vectors is  3.7481380D-02 conv= 1.00D-05.
 RLE energy=       -0.7454118842
 DE(Corr)= -0.74515662     E(CORR)=     -227.71508711     Delta=-4.08D-04
 NORM(A)=   0.12086327D+01
 Iteration Nr.  11
 **********************
 DD1Dir will call FoFJK   4 times, MxPair=        98
 NAB=   132 NAA=    66 NBB=    55 NumPrc=  8.
 DD1Dir:  Pass   1 NRAB=    49 NRAA=     0 NRBB=     0 NR=    98.
 DD1Dir:  Pass   2 NRAB=    49 NRAA=     0 NRBB=     0 NR=    98.
 DD1Dir:  Pass   3 NRAB=    34 NRAA=    30 NRBB=     0 NR=    98.
 DD1Dir:  Pass   4 NRAB=     0 NRAA=    36 NRBB=    55 NR=    91.
 Norm of the A-vectors is  2.6885561D-02 conv= 1.00D-05.
 RLE energy=       -0.7459707076
 DE(Corr)= -0.74570611     E(CORR)=     -227.71563660     Delta=-5.49D-04
 NORM(A)=   0.12131217D+01
 Iteration Nr.  12
 **********************
 DD1Dir will call FoFJK   4 times, MxPair=        98
 NAB=   132 NAA=    66 NBB=    55 NumPrc=  8.
 DD1Dir:  Pass   1 NRAB=    49 NRAA=     0 NRBB=     0 NR=    98.
 DD1Dir:  Pass   2 NRAB=    49 NRAA=     0 NRBB=     0 NR=    98.
 DD1Dir:  Pass   3 NRAB=    34 NRAA=    30 NRBB=     0 NR=    98.
 DD1Dir:  Pass   4 NRAB=     0 NRAA=    36 NRBB=    55 NR=    91.
 Norm of the A-vectors is  2.0887774D-02 conv= 1.00D-05.
 RLE energy=       -0.7460051879
 DE(Corr)= -0.74589925     E(CORR)=     -227.71582973     Delta=-1.93D-04
 NORM(A)=   0.12155661D+01
 Iteration Nr.  13
 **********************
 DD1Dir will call FoFJK   4 times, MxPair=        98
 NAB=   132 NAA=    66 NBB=    55 NumPrc=  8.
 DD1Dir:  Pass   1 NRAB=    49 NRAA=     0 NRBB=     0 NR=    98.
 DD1Dir:  Pass   2 NRAB=    49 NRAA=     0 NRBB=     0 NR=    98.
 DD1Dir:  Pass   3 NRAB=    34 NRAA=    30 NRBB=     0 NR=    98.
 DD1Dir:  Pass   4 NRAB=     0 NRAA=    36 NRBB=    55 NR=    91.
 Norm of the A-vectors is  1.7691589D-02 conv= 1.00D-05.
 RLE energy=       -0.7461598635
 DE(Corr)= -0.74612283     E(CORR)=     -227.71605332     Delta=-2.24D-04
 NORM(A)=   0.12173873D+01
 Iteration Nr.  14
 **********************
 DD1Dir will call FoFJK   4 times, MxPair=        98
 NAB=   132 NAA=    66 NBB=    55 NumPrc=  8.
 DD1Dir:  Pass   1 NRAB=    49 NRAA=     0 NRBB=     0 NR=    98.
 DD1Dir:  Pass   2 NRAB=    49 NRAA=     0 NRBB=     0 NR=    98.
 DD1Dir:  Pass   3 NRAB=    34 NRAA=    30 NRBB=     0 NR=    98.
 DD1Dir:  Pass   4 NRAB=     0 NRAA=    36 NRBB=    55 NR=    91.
 Norm of the A-vectors is  9.2307806D-03 conv= 1.00D-05.
 RLE energy=       -0.7462902242
 DE(Corr)= -0.74625226     E(CORR)=     -227.71618275     Delta=-1.29D-04
 NORM(A)=   0.12181897D+01
 Iteration Nr.  15
 **********************
 DD1Dir will call FoFJK   4 times, MxPair=        98
 NAB=   132 NAA=    66 NBB=    55 NumPrc=  8.
 DD1Dir:  Pass   1 NRAB=    49 NRAA=     0 NRBB=     0 NR=    98.
 DD1Dir:  Pass   2 NRAB=    49 NRAA=     0 NRBB=     0 NR=    98.
 DD1Dir:  Pass   3 NRAB=    34 NRAA=    30 NRBB=     0 NR=    98.
 DD1Dir:  Pass   4 NRAB=     0 NRAA=    36 NRBB=    55 NR=    91.
 Norm of the A-vectors is  6.0384728D-03 conv= 1.00D-05.
 RLE energy=       -0.7463156248
 DE(Corr)= -0.74629945     E(CORR)=     -227.71622994     Delta=-4.72D-05
 NORM(A)=   0.12186406D+01
 Iteration Nr.  16
 **********************
 DD1Dir will call FoFJK   4 times, MxPair=        98
 NAB=   132 NAA=    66 NBB=    55 NumPrc=  8.
 DD1Dir:  Pass   1 NRAB=    49 NRAA=     0 NRBB=     0 NR=    98.
 DD1Dir:  Pass   2 NRAB=    49 NRAA=     0 NRBB=     0 NR=    98.
 DD1Dir:  Pass   3 NRAB=    34 NRAA=    30 NRBB=     0 NR=    98.
 DD1Dir:  Pass   4 NRAB=     0 NRAA=    36 NRBB=    55 NR=    91.
 Norm of the A-vectors is  4.2036688D-03 conv= 1.00D-05.
 RLE energy=       -0.7463606711
 DE(Corr)= -0.74634210     E(CORR)=     -227.71627258     Delta=-4.26D-05
 NORM(A)=   0.12188966D+01
 Iteration Nr.  17
 **********************
 DD1Dir will call FoFJK   4 times, MxPair=        98
 NAB=   132 NAA=    66 NBB=    55 NumPrc=  8.
 DD1Dir:  Pass   1 NRAB=    49 NRAA=     0 NRBB=     0 NR=    98.
 DD1Dir:  Pass   2 NRAB=    49 NRAA=     0 NRBB=     0 NR=    98.
 DD1Dir:  Pass   3 NRAB=    34 NRAA=    30 NRBB=     0 NR=    98.
 DD1Dir:  Pass   4 NRAB=     0 NRAA=    36 NRBB=    55 NR=    91.
 Norm of the A-vectors is  3.0436431D-03 conv= 1.00D-05.
 RLE energy=       -0.7463560243
 DE(Corr)= -0.74634749     E(CORR)=     -227.71627798     Delta=-5.39D-06
 NORM(A)=   0.12190721D+01
 Iteration Nr.  18
 **********************
 DD1Dir will call FoFJK   4 times, MxPair=        98
 NAB=   132 NAA=    66 NBB=    55 NumPrc=  8.
 DD1Dir:  Pass   1 NRAB=    49 NRAA=     0 NRBB=     0 NR=    98.
 DD1Dir:  Pass   2 NRAB=    49 NRAA=     0 NRBB=     0 NR=    98.
 DD1Dir:  Pass   3 NRAB=    34 NRAA=    30 NRBB=     0 NR=    98.
 DD1Dir:  Pass   4 NRAB=     0 NRAA=    36 NRBB=    55 NR=    91.
 Norm of the A-vectors is  2.2336549D-03 conv= 1.00D-05.
 RLE energy=       -0.7463623942
 DE(Corr)= -0.74636061     E(CORR)=     -227.71629110     Delta=-1.31D-05
 NORM(A)=   0.12191922D+01
 Iteration Nr.  19
 **********************
 DD1Dir will call FoFJK   4 times, MxPair=        98
 NAB=   132 NAA=    66 NBB=    55 NumPrc=  8.
 DD1Dir:  Pass   1 NRAB=    49 NRAA=     0 NRBB=     0 NR=    98.
 DD1Dir:  Pass   2 NRAB=    49 NRAA=     0 NRBB=     0 NR=    98.
 DD1Dir:  Pass   3 NRAB=    34 NRAA=    30 NRBB=     0 NR=    98.
 DD1Dir:  Pass   4 NRAB=     0 NRAA=    36 NRBB=    55 NR=    91.
 Norm of the A-vectors is  1.6702288D-03 conv= 1.00D-05.
 RLE energy=       -0.7463662021
 DE(Corr)= -0.74636042     E(CORR)=     -227.71629091     Delta= 1.95D-07
 NORM(A)=   0.12193446D+01
 Iteration Nr.  20
 **********************
 DD1Dir will call FoFJK   4 times, MxPair=        98
 NAB=   132 NAA=    66 NBB=    55 NumPrc=  8.
 DD1Dir:  Pass   1 NRAB=    49 NRAA=     0 NRBB=     0 NR=    98.
 DD1Dir:  Pass   2 NRAB=    49 NRAA=     0 NRBB=     0 NR=    98.
 DD1Dir:  Pass   3 NRAB=    34 NRAA=    30 NRBB=     0 NR=    98.
 DD1Dir:  Pass   4 NRAB=     0 NRAA=    36 NRBB=    55 NR=    91.
 Norm of the A-vectors is  1.4122355D-03 conv= 1.00D-05.
 RLE energy=       -0.7463744640
 DE(Corr)= -0.74636903     E(CORR)=     -227.71629952     Delta=-8.61D-06
 NORM(A)=   0.12195300D+01
 Iteration Nr.  21
 **********************
 DD1Dir will call FoFJK   4 times, MxPair=        98
 NAB=   132 NAA=    66 NBB=    55 NumPrc=  8.
 DD1Dir:  Pass   1 NRAB=    49 NRAA=     0 NRBB=     0 NR=    98.
 DD1Dir:  Pass   2 NRAB=    49 NRAA=     0 NRBB=     0 NR=    98.
 DD1Dir:  Pass   3 NRAB=    34 NRAA=    30 NRBB=     0 NR=    98.
 DD1Dir:  Pass   4 NRAB=     0 NRAA=    36 NRBB=    55 NR=    91.
 Norm of the A-vectors is  1.2094419D-03 conv= 1.00D-05.
 RLE energy=       -0.7463923582
 DE(Corr)= -0.74637922     E(CORR)=     -227.71630971     Delta=-1.02D-05
 NORM(A)=   0.12197673D+01
 Iteration Nr.  22
 **********************
 DD1Dir will call FoFJK   4 times, MxPair=        98
 NAB=   132 NAA=    66 NBB=    55 NumPrc=  8.
 DD1Dir:  Pass   1 NRAB=    49 NRAA=     0 NRBB=     0 NR=    98.
 DD1Dir:  Pass   2 NRAB=    49 NRAA=     0 NRBB=     0 NR=    98.
 DD1Dir:  Pass   3 NRAB=    34 NRAA=    30 NRBB=     0 NR=    98.
 DD1Dir:  Pass   4 NRAB=     0 NRAA=    36 NRBB=    55 NR=    91.
 Norm of the A-vectors is  1.1497594D-03 conv= 1.00D-05.
 RLE energy=       -0.7464098322
 DE(Corr)= -0.74639287     E(CORR)=     -227.71632336     Delta=-1.37D-05
 NORM(A)=   0.12200770D+01
 Iteration Nr.  23
 **********************
 DD1Dir will call FoFJK   4 times, MxPair=        98
 NAB=   132 NAA=    66 NBB=    55 NumPrc=  8.
 DD1Dir:  Pass   1 NRAB=    49 NRAA=     0 NRBB=     0 NR=    98.
 DD1Dir:  Pass   2 NRAB=    49 NRAA=     0 NRBB=     0 NR=    98.
 DD1Dir:  Pass   3 NRAB=    34 NRAA=    30 NRBB=     0 NR=    98.
 DD1Dir:  Pass   4 NRAB=     0 NRAA=    36 NRBB=    55 NR=    91.
 Norm of the A-vectors is  1.2426088D-03 conv= 1.00D-05.
 RLE energy=       -0.7464383531
 DE(Corr)= -0.74641318     E(CORR)=     -227.71634367     Delta=-2.03D-05
 NORM(A)=   0.12204648D+01
 Iteration Nr.  24
 **********************
 DD1Dir will call FoFJK   4 times, MxPair=        98
 NAB=   132 NAA=    66 NBB=    55 NumPrc=  8.
 DD1Dir:  Pass   1 NRAB=    49 NRAA=     0 NRBB=     0 NR=    98.
 DD1Dir:  Pass   2 NRAB=    49 NRAA=     0 NRBB=     0 NR=    98.
 DD1Dir:  Pass   3 NRAB=    34 NRAA=    30 NRBB=     0 NR=    98.
 DD1Dir:  Pass   4 NRAB=     0 NRAA=    36 NRBB=    55 NR=    91.
 Norm of the A-vectors is  1.1643504D-03 conv= 1.00D-05.
 RLE energy=       -0.7464533803
 DE(Corr)= -0.74643472     E(CORR)=     -227.71636521     Delta=-2.15D-05
 NORM(A)=   0.12207867D+01
 Iteration Nr.  25
 **********************
 DD1Dir will call FoFJK   4 times, MxPair=        98
 NAB=   132 NAA=    66 NBB=    55 NumPrc=  8.
 DD1Dir:  Pass   1 NRAB=    49 NRAA=     0 NRBB=     0 NR=    98.
 DD1Dir:  Pass   2 NRAB=    49 NRAA=     0 NRBB=     0 NR=    98.
 DD1Dir:  Pass   3 NRAB=    34 NRAA=    30 NRBB=     0 NR=    98.
 DD1Dir:  Pass   4 NRAB=     0 NRAA=    36 NRBB=    55 NR=    91.
 Norm of the A-vectors is  1.0100883D-03 conv= 1.00D-05.
 RLE energy=       -0.7464611968
 DE(Corr)= -0.74645454     E(CORR)=     -227.71638503     Delta=-1.98D-05
 NORM(A)=   0.12209137D+01
 Iteration Nr.  26
 **********************
 DD1Dir will call FoFJK   4 times, MxPair=        98
 NAB=   132 NAA=    66 NBB=    55 NumPrc=  8.
 DD1Dir:  Pass   1 NRAB=    49 NRAA=     0 NRBB=     0 NR=    98.
 DD1Dir:  Pass   2 NRAB=    49 NRAA=     0 NRBB=     0 NR=    98.
 DD1Dir:  Pass   3 NRAB=    34 NRAA=    30 NRBB=     0 NR=    98.
 DD1Dir:  Pass   4 NRAB=     0 NRAA=    36 NRBB=    55 NR=    91.
 Norm of the A-vectors is  7.7464847D-04 conv= 1.00D-05.
 RLE energy=       -0.7464642188
 DE(Corr)= -0.74645994     E(CORR)=     -227.71639042     Delta=-5.39D-06
 NORM(A)=   0.12210076D+01
 Iteration Nr.  27
 **********************
 DD1Dir will call FoFJK   4 times, MxPair=        98
 NAB=   132 NAA=    66 NBB=    55 NumPrc=  8.
 DD1Dir:  Pass   1 NRAB=    49 NRAA=     0 NRBB=     0 NR=    98.
 DD1Dir:  Pass   2 NRAB=    49 NRAA=     0 NRBB=     0 NR=    98.
 DD1Dir:  Pass   3 NRAB=    34 NRAA=    30 NRBB=     0 NR=    98.
 DD1Dir:  Pass   4 NRAB=     0 NRAA=    36 NRBB=    55 NR=    91.
 Norm of the A-vectors is  6.5959608D-04 conv= 1.00D-05.
 RLE energy=       -0.7464648930
 DE(Corr)= -0.74646462     E(CORR)=     -227.71639511     Delta=-4.69D-06
 NORM(A)=   0.12210444D+01
 Iteration Nr.  28
 **********************
 DD1Dir will call FoFJK   4 times, MxPair=        98
 NAB=   132 NAA=    66 NBB=    55 NumPrc=  8.
 DD1Dir:  Pass   1 NRAB=    49 NRAA=     0 NRBB=     0 NR=    98.
 DD1Dir:  Pass   2 NRAB=    49 NRAA=     0 NRBB=     0 NR=    98.
 DD1Dir:  Pass   3 NRAB=    34 NRAA=    30 NRBB=     0 NR=    98.
 DD1Dir:  Pass   4 NRAB=     0 NRAA=    36 NRBB=    55 NR=    91.
 Norm of the A-vectors is  5.2456849D-04 conv= 1.00D-05.
 RLE energy=       -0.7464661013
 DE(Corr)= -0.74646573     E(CORR)=     -227.71639622     Delta=-1.10D-06
 NORM(A)=   0.12210607D+01
 Iteration Nr.  29
 **********************
 DD1Dir will call FoFJK   4 times, MxPair=        98
 NAB=   132 NAA=    66 NBB=    55 NumPrc=  8.
 DD1Dir:  Pass   1 NRAB=    49 NRAA=     0 NRBB=     0 NR=    98.
 DD1Dir:  Pass   2 NRAB=    49 NRAA=     0 NRBB=     0 NR=    98.
 DD1Dir:  Pass   3 NRAB=    34 NRAA=    30 NRBB=     0 NR=    98.
 DD1Dir:  Pass   4 NRAB=     0 NRAA=    36 NRBB=    55 NR=    91.
 Norm of the A-vectors is  3.2647515D-04 conv= 1.00D-05.
 RLE energy=       -0.7464664073
 DE(Corr)= -0.74646647     E(CORR)=     -227.71639696     Delta=-7.43D-07
 NORM(A)=   0.12210674D+01
 Iteration Nr.  30
 **********************
 DD1Dir will call FoFJK   4 times, MxPair=        98
 NAB=   132 NAA=    66 NBB=    55 NumPrc=  8.
 DD1Dir:  Pass   1 NRAB=    49 NRAA=     0 NRBB=     0 NR=    98.
 DD1Dir:  Pass   2 NRAB=    49 NRAA=     0 NRBB=     0 NR=    98.
 DD1Dir:  Pass   3 NRAB=    34 NRAA=    30 NRBB=     0 NR=    98.
 DD1Dir:  Pass   4 NRAB=     0 NRAA=    36 NRBB=    55 NR=    91.
 Norm of the A-vectors is  2.1970678D-04 conv= 1.00D-05.
 RLE energy=       -0.7464676081
 DE(Corr)= -0.74646708     E(CORR)=     -227.71639756     Delta=-6.04D-07
 NORM(A)=   0.12210772D+01
 Iteration Nr.  31
 **********************
 DD1Dir will call FoFJK   4 times, MxPair=        98
 NAB=   132 NAA=    66 NBB=    55 NumPrc=  8.
 DD1Dir:  Pass   1 NRAB=    49 NRAA=     0 NRBB=     0 NR=    98.
 DD1Dir:  Pass   2 NRAB=    49 NRAA=     0 NRBB=     0 NR=    98.
 DD1Dir:  Pass   3 NRAB=    34 NRAA=    30 NRBB=     0 NR=    98.
 DD1Dir:  Pass   4 NRAB=     0 NRAA=    36 NRBB=    55 NR=    91.
 Norm of the A-vectors is  1.3191827D-04 conv= 1.00D-05.
 RLE energy=       -0.7464680663
 DE(Corr)= -0.74646766     E(CORR)=     -227.71639815     Delta=-5.87D-07
 NORM(A)=   0.12210867D+01
 Iteration Nr.  32
 **********************
 DD1Dir will call FoFJK   4 times, MxPair=        98
 NAB=   132 NAA=    66 NBB=    55 NumPrc=  8.
 DD1Dir:  Pass   1 NRAB=    49 NRAA=     0 NRBB=     0 NR=    98.
 DD1Dir:  Pass   2 NRAB=    49 NRAA=     0 NRBB=     0 NR=    98.
 DD1Dir:  Pass   3 NRAB=    34 NRAA=    30 NRBB=     0 NR=    98.
 DD1Dir:  Pass   4 NRAB=     0 NRAA=    36 NRBB=    55 NR=    91.
 Norm of the A-vectors is  1.0993180D-04 conv= 1.00D-05.
 RLE energy=       -0.7464690111
 DE(Corr)= -0.74646847     E(CORR)=     -227.71639896     Delta=-8.06D-07
 NORM(A)=   0.12210985D+01
 Iteration Nr.  33
 **********************
 DD1Dir will call FoFJK   4 times, MxPair=        98
 NAB=   132 NAA=    66 NBB=    55 NumPrc=  8.
 DD1Dir:  Pass   1 NRAB=    49 NRAA=     0 NRBB=     0 NR=    98.
 DD1Dir:  Pass   2 NRAB=    49 NRAA=     0 NRBB=     0 NR=    98.
 DD1Dir:  Pass   3 NRAB=    34 NRAA=    30 NRBB=     0 NR=    98.
 DD1Dir:  Pass   4 NRAB=     0 NRAA=    36 NRBB=    55 NR=    91.
 Norm of the A-vectors is  9.4666239D-05 conv= 1.00D-05.
 RLE energy=       -0.7464698931
 DE(Corr)= -0.74646908     E(CORR)=     -227.71639957     Delta=-6.11D-07
 NORM(A)=   0.12211159D+01
 Iteration Nr.  34
 **********************
 DD1Dir will call FoFJK   4 times, MxPair=        98
 NAB=   132 NAA=    66 NBB=    55 NumPrc=  8.
 DD1Dir:  Pass   1 NRAB=    49 NRAA=     0 NRBB=     0 NR=    98.
 DD1Dir:  Pass   2 NRAB=    49 NRAA=     0 NRBB=     0 NR=    98.
 DD1Dir:  Pass   3 NRAB=    34 NRAA=    30 NRBB=     0 NR=    98.
 DD1Dir:  Pass   4 NRAB=     0 NRAA=    36 NRBB=    55 NR=    91.
 Norm of the A-vectors is  8.4578797D-05 conv= 1.00D-05.
 RLE energy=       -0.7464710939
 DE(Corr)= -0.74647015     E(CORR)=     -227.71640063     Delta=-1.07D-06
 NORM(A)=   0.12211368D+01
 Iteration Nr.  35
 **********************
 DD1Dir will call FoFJK   4 times, MxPair=        98
 NAB=   132 NAA=    66 NBB=    55 NumPrc=  8.
 DD1Dir:  Pass   1 NRAB=    49 NRAA=     0 NRBB=     0 NR=    98.
 DD1Dir:  Pass   2 NRAB=    49 NRAA=     0 NRBB=     0 NR=    98.
 DD1Dir:  Pass   3 NRAB=    34 NRAA=    30 NRBB=     0 NR=    98.
 DD1Dir:  Pass   4 NRAB=     0 NRAA=    36 NRBB=    55 NR=    91.
 Norm of the A-vectors is  1.1266819D-04 conv= 1.00D-05.
 RLE energy=       -0.7464724352
 DE(Corr)= -0.74647120     E(CORR)=     -227.71640168     Delta=-1.05D-06
 NORM(A)=   0.12211620D+01
 Iteration Nr.  36
 **********************
 DD1Dir will call FoFJK   4 times, MxPair=        98
 NAB=   132 NAA=    66 NBB=    55 NumPrc=  8.
 DD1Dir:  Pass   1 NRAB=    49 NRAA=     0 NRBB=     0 NR=    98.
 DD1Dir:  Pass   2 NRAB=    49 NRAA=     0 NRBB=     0 NR=    98.
 DD1Dir:  Pass   3 NRAB=    34 NRAA=    30 NRBB=     0 NR=    98.
 DD1Dir:  Pass   4 NRAB=     0 NRAA=    36 NRBB=    55 NR=    91.
 Norm of the A-vectors is  8.7899752D-05 conv= 1.00D-05.
 RLE energy=       -0.7464734451
 DE(Corr)= -0.74647261     E(CORR)=     -227.71640309     Delta=-1.41D-06
 NORM(A)=   0.12211810D+01
 Iteration Nr.  37
 **********************
 DD1Dir will call FoFJK   4 times, MxPair=        98
 NAB=   132 NAA=    66 NBB=    55 NumPrc=  8.
 DD1Dir:  Pass   1 NRAB=    49 NRAA=     0 NRBB=     0 NR=    98.
 DD1Dir:  Pass   2 NRAB=    49 NRAA=     0 NRBB=     0 NR=    98.
 DD1Dir:  Pass   3 NRAB=    34 NRAA=    30 NRBB=     0 NR=    98.
 DD1Dir:  Pass   4 NRAB=     0 NRAA=    36 NRBB=    55 NR=    91.
 Norm of the A-vectors is  9.9407924D-05 conv= 1.00D-05.
 RLE energy=       -0.7464748235
 DE(Corr)= -0.74647368     E(CORR)=     -227.71640417     Delta=-1.08D-06
 NORM(A)=   0.12212007D+01
 Iteration Nr.  38
 **********************
 DD1Dir will call FoFJK   4 times, MxPair=        98
 NAB=   132 NAA=    66 NBB=    55 NumPrc=  8.
 DD1Dir:  Pass   1 NRAB=    49 NRAA=     0 NRBB=     0 NR=    98.
 DD1Dir:  Pass   2 NRAB=    49 NRAA=     0 NRBB=     0 NR=    98.
 DD1Dir:  Pass   3 NRAB=    34 NRAA=    30 NRBB=     0 NR=    98.
 DD1Dir:  Pass   4 NRAB=     0 NRAA=    36 NRBB=    55 NR=    91.
 Norm of the A-vectors is  7.5132023D-05 conv= 1.00D-05.
 RLE energy=       -0.7464753853
 DE(Corr)= -0.74647474     E(CORR)=     -227.71640523     Delta=-1.06D-06
 NORM(A)=   0.12212130D+01
 Iteration Nr.  39
 **********************
 DD1Dir will call FoFJK   4 times, MxPair=        98
 NAB=   132 NAA=    66 NBB=    55 NumPrc=  8.
 DD1Dir:  Pass   1 NRAB=    49 NRAA=     0 NRBB=     0 NR=    98.
 DD1Dir:  Pass   2 NRAB=    49 NRAA=     0 NRBB=     0 NR=    98.
 DD1Dir:  Pass   3 NRAB=    34 NRAA=    30 NRBB=     0 NR=    98.
 DD1Dir:  Pass   4 NRAB=     0 NRAA=    36 NRBB=    55 NR=    91.
 Norm of the A-vectors is  7.8621196D-05 conv= 1.00D-05.
 RLE energy=       -0.7464760037
 DE(Corr)= -0.74647556     E(CORR)=     -227.71640605     Delta=-8.25D-07
 NORM(A)=   0.12212211D+01
 Iteration Nr.  40
 **********************
 DD1Dir will call FoFJK   4 times, MxPair=        98
 NAB=   132 NAA=    66 NBB=    55 NumPrc=  8.
 DD1Dir:  Pass   1 NRAB=    49 NRAA=     0 NRBB=     0 NR=    98.
 DD1Dir:  Pass   2 NRAB=    49 NRAA=     0 NRBB=     0 NR=    98.
 DD1Dir:  Pass   3 NRAB=    34 NRAA=    30 NRBB=     0 NR=    98.
 DD1Dir:  Pass   4 NRAB=     0 NRAA=    36 NRBB=    55 NR=    91.
 Norm of the A-vectors is  4.4878226D-05 conv= 1.00D-05.
 RLE energy=       -0.7464759957
 DE(Corr)= -0.74647593     E(CORR)=     -227.71640642     Delta=-3.67D-07
 NORM(A)=   0.12212229D+01
 Iteration Nr.  41
 **********************
 DD1Dir will call FoFJK   4 times, MxPair=        98
 NAB=   132 NAA=    66 NBB=    55 NumPrc=  8.
 DD1Dir:  Pass   1 NRAB=    49 NRAA=     0 NRBB=     0 NR=    98.
 DD1Dir:  Pass   2 NRAB=    49 NRAA=     0 NRBB=     0 NR=    98.
 DD1Dir:  Pass   3 NRAB=    34 NRAA=    30 NRBB=     0 NR=    98.
 DD1Dir:  Pass   4 NRAB=     0 NRAA=    36 NRBB=    55 NR=    91.
 Norm of the A-vectors is  3.5452305D-05 conv= 1.00D-05.
 RLE energy=       -0.7464761143
 DE(Corr)= -0.74647606     E(CORR)=     -227.71640654     Delta=-1.24D-07
 NORM(A)=   0.12212253D+01
 Iteration Nr.  42
 **********************
 DD1Dir will call FoFJK   4 times, MxPair=        98
 NAB=   132 NAA=    66 NBB=    55 NumPrc=  8.
 DD1Dir:  Pass   1 NRAB=    49 NRAA=     0 NRBB=     0 NR=    98.
 DD1Dir:  Pass   2 NRAB=    49 NRAA=     0 NRBB=     0 NR=    98.
 DD1Dir:  Pass   3 NRAB=    34 NRAA=    30 NRBB=     0 NR=    98.
 DD1Dir:  Pass   4 NRAB=     0 NRAA=    36 NRBB=    55 NR=    91.
 Norm of the A-vectors is  2.3023427D-05 conv= 1.00D-05.
 RLE energy=       -0.7464761136
 DE(Corr)= -0.74647614     E(CORR)=     -227.71640663     Delta=-8.31D-08
 NORM(A)=   0.12212259D+01
 Iteration Nr.  43
 **********************
 DD1Dir will call FoFJK   4 times, MxPair=        98
 NAB=   132 NAA=    66 NBB=    55 NumPrc=  8.
 DD1Dir:  Pass   1 NRAB=    49 NRAA=     0 NRBB=     0 NR=    98.
 DD1Dir:  Pass   2 NRAB=    49 NRAA=     0 NRBB=     0 NR=    98.
 DD1Dir:  Pass   3 NRAB=    34 NRAA=    30 NRBB=     0 NR=    98.
 DD1Dir:  Pass   4 NRAB=     0 NRAA=    36 NRBB=    55 NR=    91.
 Norm of the A-vectors is  1.9004983D-05 conv= 1.00D-05.
 RLE energy=       -0.7464761706
 DE(Corr)= -0.74647614     E(CORR)=     -227.71640663     Delta=-1.27D-09
 NORM(A)=   0.12212280D+01
 Iteration Nr.  44
 **********************
 DD1Dir will call FoFJK   4 times, MxPair=        98
 NAB=   132 NAA=    66 NBB=    55 NumPrc=  8.
 DD1Dir:  Pass   1 NRAB=    49 NRAA=     0 NRBB=     0 NR=    98.
 DD1Dir:  Pass   2 NRAB=    49 NRAA=     0 NRBB=     0 NR=    98.
 DD1Dir:  Pass   3 NRAB=    34 NRAA=    30 NRBB=     0 NR=    98.
 DD1Dir:  Pass   4 NRAB=     0 NRAA=    36 NRBB=    55 NR=    91.
 Norm of the A-vectors is  1.5428070D-05 conv= 1.00D-05.
 RLE energy=       -0.7464763346
 DE(Corr)= -0.74647625     E(CORR)=     -227.71640674     Delta=-1.10D-07
 NORM(A)=   0.12212302D+01
 Iteration Nr.  45
 **********************
 DD1Dir will call FoFJK   4 times, MxPair=        98
 NAB=   132 NAA=    66 NBB=    55 NumPrc=  8.
 DD1Dir:  Pass   1 NRAB=    49 NRAA=     0 NRBB=     0 NR=    98.
 DD1Dir:  Pass   2 NRAB=    49 NRAA=     0 NRBB=     0 NR=    98.
 DD1Dir:  Pass   3 NRAB=    34 NRAA=    30 NRBB=     0 NR=    98.
 DD1Dir:  Pass   4 NRAB=     0 NRAA=    36 NRBB=    55 NR=    91.
 Norm of the A-vectors is  1.3979946D-05 conv= 1.00D-05.
 RLE energy=       -0.7464764878
 DE(Corr)= -0.74647634     E(CORR)=     -227.71640683     Delta=-8.99D-08
 NORM(A)=   0.12212332D+01
 Iteration Nr.  46
 **********************
 DD1Dir will call FoFJK   4 times, MxPair=        98
 NAB=   132 NAA=    66 NBB=    55 NumPrc=  8.
 DD1Dir:  Pass   1 NRAB=    49 NRAA=     0 NRBB=     0 NR=    98.
 DD1Dir:  Pass   2 NRAB=    49 NRAA=     0 NRBB=     0 NR=    98.
 DD1Dir:  Pass   3 NRAB=    34 NRAA=    30 NRBB=     0 NR=    98.
 DD1Dir:  Pass   4 NRAB=     0 NRAA=    36 NRBB=    55 NR=    91.
 Norm of the A-vectors is  1.3459569D-05 conv= 1.00D-05.
 RLE energy=       -0.7464767461
 DE(Corr)= -0.74647654     E(CORR)=     -227.71640703     Delta=-2.01D-07
 NORM(A)=   0.12212365D+01
 Iteration Nr.  47
 **********************
 DD1Dir will call FoFJK   4 times, MxPair=        98
 NAB=   132 NAA=    66 NBB=    55 NumPrc=  8.
 DD1Dir:  Pass   1 NRAB=    49 NRAA=     0 NRBB=     0 NR=    98.
 DD1Dir:  Pass   2 NRAB=    49 NRAA=     0 NRBB=     0 NR=    98.
 DD1Dir:  Pass   3 NRAB=    34 NRAA=    30 NRBB=     0 NR=    98.
 DD1Dir:  Pass   4 NRAB=     0 NRAA=    36 NRBB=    55 NR=    91.
 Norm of the A-vectors is  1.1004774D-05 conv= 1.00D-05.
 RLE energy=       -0.7464768662
 DE(Corr)= -0.74647673     E(CORR)=     -227.71640721     Delta=-1.85D-07
 NORM(A)=   0.12212385D+01
 Iteration Nr.  48
 **********************
 DD1Dir will call FoFJK   4 times, MxPair=        98
 NAB=   132 NAA=    66 NBB=    55 NumPrc=  8.
 DD1Dir:  Pass   1 NRAB=    49 NRAA=     0 NRBB=     0 NR=    98.
 DD1Dir:  Pass   2 NRAB=    49 NRAA=     0 NRBB=     0 NR=    98.
 DD1Dir:  Pass   3 NRAB=    34 NRAA=    30 NRBB=     0 NR=    98.
 DD1Dir:  Pass   4 NRAB=     0 NRAA=    36 NRBB=    55 NR=    91.
 Norm of the A-vectors is  8.3036271D-06 conv= 1.00D-05.
 RLE energy=       -0.7464770103
 DE(Corr)= -0.74647686     E(CORR)=     -227.71640735     Delta=-1.34D-07
 NORM(A)=   0.12212410D+01
 Iteration Nr.  49
 **********************
 DD1Dir will call FoFJK   4 times, MxPair=        98
 NAB=   132 NAA=    66 NBB=    55 NumPrc=  8.
 DD1Dir:  Pass   1 NRAB=    49 NRAA=     0 NRBB=     0 NR=    98.
 DD1Dir:  Pass   2 NRAB=    49 NRAA=     0 NRBB=     0 NR=    98.
 DD1Dir:  Pass   3 NRAB=    34 NRAA=    30 NRBB=     0 NR=    98.
 DD1Dir:  Pass   4 NRAB=     0 NRAA=    36 NRBB=    55 NR=    91.
 Norm of the A-vectors is  9.2847440D-06 conv= 1.00D-05.
 RLE energy=       -0.7464770770
 DE(Corr)= -0.74647700     E(CORR)=     -227.71640749     Delta=-1.43D-07
 NORM(A)=   0.12212420D+01
 Iteration Nr.  50
 **********************
 DD1Dir will call FoFJK   4 times, MxPair=        98
 NAB=   132 NAA=    66 NBB=    55 NumPrc=  8.
 DD1Dir:  Pass   1 NRAB=    49 NRAA=     0 NRBB=     0 NR=    98.
 DD1Dir:  Pass   2 NRAB=    49 NRAA=     0 NRBB=     0 NR=    98.
 DD1Dir:  Pass   3 NRAB=    34 NRAA=    30 NRBB=     0 NR=    98.
 DD1Dir:  Pass   4 NRAB=     0 NRAA=    36 NRBB=    55 NR=    91.
 Norm of the A-vectors is  5.8317406D-06 conv= 1.00D-05.
 RLE energy=       -0.7464770941
 DE(Corr)= -0.74647705     E(CORR)=     -227.71640754     Delta=-5.12D-08
 NORM(A)=   0.12212429D+01
 CI/CC converged in   50 iterations to DelEn=-5.12D-08 Conv= 1.00D-07 ErrA1= 5.83D-06 Conv= 1.00D-05
 Dominant configurations:
 ***********************
 Spin Case        I    J    A    B          Value
    AA           17        18           -0.209930D+00
    BB           16        17            0.259753D+00
   ABAB          17   16   18   17      -0.263162D+00
 Largest amplitude= 2.63D-01
 Time for triples=      941.62 seconds.
 T4(CCSD)= -0.48252630D-01
 T5(CCSD)=  0.35802298D-02
 CCSD(T)= -0.22776107994D+03

 S**2, projected HF & approx projected MPn energies after annihilation of
 unwanted spin states (see manual for definitions):

 spins       (S**2,0) (S**2,1)    PUHF        PMP2        PMP3        PMP4
 annihilated
 s+1         0.74952  0.75006 -226.975847 -227.694069 -227.699836
 s+1,s+2     0.75000  0.75000 -226.975784 -227.694015 -227.699790
 s+1 to s+3  0.75000  0.75000 -226.975785 -227.694015 -227.699790
 s+1 to s+4  0.75000  0.75000 -226.975785 -227.694015 -227.699790
 s+1 to s+5  0.75000  0.75000 -226.975785
 s+1 to s+6  0.75000  0.75000 -226.975785

 Discarding MO integrals.
 Leave Link  913 at Tue Oct 10 05:03:30 2017, MaxMem=    33554432 cpu:     31965.8
 (Enter /usr/local/gaussian/2009-E.01/g09/l601.exe)
 Copying SCF densities to generalized density rwf, IOpCl= 1 IROHF=0.

 **********************************************************************

            Population analysis using the SCF density.

 **********************************************************************

 Orbital symmetries:
 Alpha Orbitals:
       Occupied  (A) (A) (A) (A) (A) (A) (A) (A) (A) (A) (A) (A)
                 (A) (A) (A) (A) (A)
       Virtual   (A) (A) (A) (A) (A) (A) (A) (A) (A) (A) (A) (A)
                 (A) (A) (A) (A) (A) (A) (A) (A) (A) (A) (A) (A)
                 (A) (A) (A) (A) (A) (A) (A) (A) (A) (A) (A) (A)
                 (A) (A) (A) (A) (A) (A) (A) (A) (A) (A) (A) (A)
                 (A) (A) (A) (A) (A) (A) (A) (A) (A) (A) (A) (A)
                 (A) (A) (A) (A) (A) (A) (A) (A) (A) (A) (A) (A)
                 (A) (A) (A) (A) (A) (A) (A) (A) (A) (A) (A) (A)
                 (A) (A) (A) (A) (A) (A) (A) (A) (A) (A) (A) (A)
                 (A) (A) (A) (A) (A) (A) (A) (A) (A) (A) (A)
 Beta  Orbitals:
       Occupied  (A) (A) (A) (A) (A) (A) (A) (A) (A) (A) (A) (A)
                 (A) (A) (A) (A)
       Virtual   (A) (A) (A) (A) (A) (A) (A) (A) (A) (A) (A) (A)
                 (A) (A) (A) (A) (A) (A) (A) (A) (A) (A) (A) (A)
                 (A) (A) (A) (A) (A) (A) (A) (A) (A) (A) (A) (A)
                 (A) (A) (A) (A) (A) (A) (A) (A) (A) (A) (A) (A)
                 (A) (A) (A) (A) (A) (A) (A) (A) (A) (A) (A) (A)
                 (A) (A) (A) (A) (A) (A) (A) (A) (A) (A) (A) (A)
                 (A) (A) (A) (A) (A) (A) (A) (A) (A) (A) (A) (A)
                 (A) (A) (A) (A) (A) (A) (A) (A) (A) (A) (A) (A)
                 (A) (A) (A) (A) (A) (A) (A) (A) (A) (A) (A) (A)
 The electronic state is 2-A.
 Alpha  occ. eigenvalues --  -20.92257 -11.62349 -11.61615 -11.58183 -11.54921
 Alpha  occ. eigenvalues --   -1.76097  -1.40632  -1.29386  -1.10356  -1.02153
 Alpha  occ. eigenvalues --   -0.97736  -0.93997  -0.88486  -0.84523  -0.69862
 Alpha  occ. eigenvalues --   -0.65373  -0.64790
 Alpha virt. eigenvalues --   -0.27793  -0.16102  -0.09573  -0.06921  -0.05644
 Alpha virt. eigenvalues --   -0.05161  -0.02988  -0.02832  -0.02469  -0.01789
 Alpha virt. eigenvalues --   -0.00471   0.00471   0.02035   0.02830   0.04087
 Alpha virt. eigenvalues --    0.04555   0.05647   0.06578   0.07137   0.08575
 Alpha virt. eigenvalues --    0.11725   0.13948   0.16908   0.17249   0.17423
 Alpha virt. eigenvalues --    0.19030   0.21212   0.23060   0.24700   0.29169
 Alpha virt. eigenvalues --    0.37756   0.42535   0.44713   0.44851   0.45984
 Alpha virt. eigenvalues --    0.47061   0.47243   0.51568   0.52792   0.57546
 Alpha virt. eigenvalues --    0.58980   0.62902   0.64982   0.72078   0.73391
 Alpha virt. eigenvalues --    0.76270   0.80572   0.84311   0.90067   0.90296
 Alpha virt. eigenvalues --    0.94714   1.01689   1.09026   1.11629   1.14654
 Alpha virt. eigenvalues --    1.16888   1.17663   1.26374   1.36388   1.44380
 Alpha virt. eigenvalues --    1.53944   1.60833   1.65754   1.67234   1.71831
 Alpha virt. eigenvalues --    1.74407   1.75943   1.76462   1.85329   1.91637
 Alpha virt. eigenvalues --    1.99519   2.02003   2.06655   2.14243   2.19629
 Alpha virt. eigenvalues --    2.38538   2.42154   2.53750   2.62898   2.69888
 Alpha virt. eigenvalues --    2.72375   2.77563   2.78843   2.86550   2.89406
 Alpha virt. eigenvalues --    3.05223   3.08322   3.08759   3.24127   3.27288
 Alpha virt. eigenvalues --    3.30996   3.39974   3.46750   3.56044   3.68499
 Alpha virt. eigenvalues --    4.02180   4.09058   4.14032   4.44086   5.23999
 Alpha virt. eigenvalues --    5.71598   5.98628  24.35102  24.63213  24.86880
 Alpha virt. eigenvalues --   25.36286  51.26806
  Beta  occ. eigenvalues --  -20.92691 -11.60743 -11.60722 -11.58298 -11.54754
  Beta  occ. eigenvalues --   -1.75871  -1.39543  -1.24196  -1.09408  -1.01075
  Beta  occ. eigenvalues --   -0.96883  -0.89862  -0.88395  -0.84360  -0.67803
  Beta  occ. eigenvalues --   -0.63616
  Beta virt. eigenvalues --   -0.26776  -0.25599  -0.09458  -0.08204  -0.06827
  Beta virt. eigenvalues --   -0.05507  -0.03840  -0.02669  -0.02376  -0.01633
  Beta virt. eigenvalues --    0.00136   0.00478   0.01996   0.02085   0.02935
  Beta virt. eigenvalues --    0.04160   0.04885   0.06149   0.06613   0.08736
  Beta virt. eigenvalues --    0.09249   0.12366   0.14405   0.16934   0.17893
  Beta virt. eigenvalues --    0.18174   0.19803   0.21490   0.23500   0.24947
  Beta virt. eigenvalues --    0.29628   0.38829   0.42925   0.44864   0.45675
  Beta virt. eigenvalues --    0.47783   0.48165   0.51426   0.53140   0.54476
  Beta virt. eigenvalues --    0.58250   0.60771   0.63617   0.65517   0.72424
  Beta virt. eigenvalues --    0.74076   0.76486   0.81933   0.85104   0.91143
  Beta virt. eigenvalues --    0.92669   0.95364   1.03578   1.09973   1.11928
  Beta virt. eigenvalues --    1.14657   1.18339   1.20003   1.29422   1.38161
  Beta virt. eigenvalues --    1.45012   1.54765   1.61336   1.67327   1.67652
  Beta virt. eigenvalues --    1.72692   1.75638   1.76604   1.78193   1.86800
  Beta virt. eigenvalues --    1.93489   2.00460   2.02727   2.07822   2.14675
  Beta virt. eigenvalues --    2.20862   2.38860   2.42461   2.53973   2.63193
  Beta virt. eigenvalues --    2.69871   2.75896   2.78841   2.80854   2.87386
  Beta virt. eigenvalues --    2.89563   3.05693   3.08912   3.09610   3.24982
  Beta virt. eigenvalues --    3.27696   3.31371   3.40176   3.47010   3.56273
  Beta virt. eigenvalues --    3.68401   4.02430   4.09397   4.14587   4.44455
  Beta virt. eigenvalues --    5.23386   5.71442   5.98565  24.35433  24.64258
  Beta virt. eigenvalues --   24.86934  25.36601  51.26552
          Condensed to atoms (all electrons):
               1          2          3          4          5          6
     1  C    5.212646  -0.126823   0.163238   0.145744   0.121156   0.354536
     2  C   -0.126823   5.107597   0.209686   0.419737   0.253218   0.014877
     3  O    0.163238   0.209686   7.720321  -0.041762   0.001052  -0.035665
     4  C    0.145744   0.419737  -0.041762   5.026443   0.039048   0.003286
     5  C    0.121156   0.253218   0.001052   0.039048   5.518192  -0.009033
     6  H    0.354536   0.014877  -0.035665   0.003286  -0.009033   0.339236
     7  H    0.010672  -0.001233  -0.001466   0.029408   0.307269   0.004243
               7
     1  C    0.010672
     2  C   -0.001233
     3  O   -0.001466
     4  C    0.029408
     5  C    0.307269
     6  H    0.004243
     7  H    0.353192
          Atomic-Atomic Spin Densities.
               1          2          3          4          5          6
     1  C    0.778197  -0.039510  -0.042678  -0.025882   0.090464  -0.009458
     2  C   -0.039510   0.408448  -0.007775   0.040625   0.048697  -0.005470
     3  O   -0.042678  -0.007775  -0.061760   0.008749  -0.025210   0.002085
     4  C   -0.025882   0.040625   0.008749   0.129042  -0.163657   0.007410
     5  C    0.090464   0.048697  -0.025210  -0.163657   0.051046  -0.009217
     6  H   -0.009458  -0.005470   0.002085   0.007410  -0.009217  -0.044980
     7  H    0.003646  -0.001616  -0.000594  -0.000030   0.002805  -0.000474
               7
     1  C    0.003646
     2  C   -0.001616
     3  O   -0.000594
     4  C   -0.000030
     5  C    0.002805
     6  H   -0.000474
     7  H   -0.005813
 Mulliken charges and spin densities:
               1          2
     1  C    0.118832   0.754778
     2  C    0.122942   0.443399
     3  O   -0.015404  -0.127183
     4  C    0.378097  -0.003742
     5  C   -0.230902  -0.005072
     6  H    0.328521  -0.060104
     7  H    0.297914  -0.002076
 Sum of Mulliken charges =   1.00000   1.00000
 Mulliken charges and spin densities with hydrogens summed into heavy atoms:
               1          2
     1  C    0.447352   0.694674
     2  C    0.122942   0.443399
     3  O   -0.015404  -0.127183
     4  C    0.378097  -0.003742
     5  C    0.067012  -0.007147
 Electronic spatial extent (au):  <R**2>=            237.5110
 Charge=              1.0000 electrons
 Dipole moment (field-independent basis, Debye):
    X=             -2.0316    Y=              1.8657    Z=              0.0000  Tot=              2.7583
 Quadrupole moment (field-independent basis, Debye-Ang):
   XX=            -20.8207   YY=            -17.6336   ZZ=            -26.3704
   XY=             -1.4348   XZ=             -0.0036   YZ=              0.0017
 Traceless Quadrupole moment (field-independent basis, Debye-Ang):
   XX=              0.7875   YY=              3.9747   ZZ=             -4.7622
   XY=             -1.4348   XZ=             -0.0036   YZ=              0.0017
 Octapole moment (field-independent basis, Debye-Ang**2):
  XXX=             -8.0958  YYY=             15.4403  ZZZ=              0.0019  XYY=              2.9568
  XXY=              4.0605  XXZ=              0.0067  XZZ=              2.4993  YZZ=              1.3561
  YYZ=              0.0008  XYZ=             -0.0015
 Hexadecapole moment (field-independent basis, Debye-Ang**3):
 XXXX=           -124.2557 YYYY=           -117.2637 ZZZZ=            -25.4426 XXXY=            -11.1899
 XXXZ=             -0.0175 YYYX=              4.1233 YYYZ=              0.0077 ZZZX=             -0.0024
 ZZZY=              0.0017 XXYY=            -39.9761 XXZZ=            -29.3431 YYZZ=            -28.3187
 XXYZ=              0.0061 YYXZ=             -0.0034 ZZXY=             -0.5827
 N-N= 1.448436292100D+02 E-N=-8.120963720432D+02  KE= 2.266786045151D+02
 Leave Link  601 at Tue Oct 10 05:03:31 2017, MaxMem=    33554432 cpu:         6.5
 (Enter /usr/local/gaussian/2009-E.01/g09/l9999.exe)
 1\1\ WCSS.PL-BEM-WN1424\SP\UCCSD(T)-FC\6-311++G(d,p)\C4H2O1(1+,2)\ROOT
 \10-Oct-2017\0\\#p ccsd(t,maxcyc=200)/6-311++G(d,p)\\ccsd(t) iener\\1,
 2\C,0,-0.912055,0.700606,-0.216283\C,0,0.915423,-0.157449,0.365042\O,0
 ,0.378319,1.03959,0.165343\C,0,0.188726,-1.169044,0.175592\C,0,-1.0643
 2,-0.748992,-0.217359\H,0,-1.587981,1.51889,-0.446123\H,0,-1.971271,-1
 .280416,-0.475098\\Version=ES64L-G09RevE.01\State=2-A\HF=-226.9699305\
 MP2=-227.6896159\MP3=-227.6972103\MP4D=-227.7220089\MP4DQ=-227.6972431
 \PUHF=-226.9758471\PMP2-0=-227.6940694\PMP3-0=-227.6998355\MP4SDQ=-227
 .7113393\CCSD=-227.7164075\CCSD(T)=-227.7610799\S2=0.799187\S2-1=0.774
 625\S2A=0.750802\RMSD=2.563e-09\PG=C01 [X(C4H2O1)]\\@


    THE DOUGHNUT CREED
 AS YOU RAMBLE ON THROUGH LIFE, BROTHER
 WHATEVER BE YOUR GOAL
 KEEP YOUR EYE UPON THE DOUGHNUT
 AND NOT UPON THE HOLE.
 Job cpu time:       0 days  8 hours 58 minutes 55.3 seconds.
 File lengths (MBytes):  RWF=    983 Int=      0 D2E=      0 Chk=      2 Scr=      1
 Normal termination of Gaussian 09 at Tue Oct 10 05:03:33 2017.
