 Entering Gaussian System, Link 0=/usr/local/gaussian/2009-E.01/g09/g09
 Initial command:
 /usr/local/gaussian/2009-E.01/g09/l1.exe "/lustre/scratch/eerd/4986703.achilles/Gau-191549.inp" -scrdir="/lustre/scratch/eerd/4986703.achilles/"
 Entering Link 1 = /usr/local/gaussian/2009-E.01/g09/l1.exe PID=    191551.
  
 Copyright (c) 1988,1990,1992,1993,1995,1998,2003,2009,2015,
            Gaussian, Inc.  All Rights Reserved.
  
 This is part of the Gaussian(R) 09 program.  It is based on
 the Gaussian(R) 03 system (copyright 2003, Gaussian, Inc.),
 the Gaussian(R) 98 system (copyright 1998, Gaussian, Inc.),
 the Gaussian(R) 94 system (copyright 1995, Gaussian, Inc.),
 the Gaussian 92(TM) system (copyright 1992, Gaussian, Inc.),
 the Gaussian 90(TM) system (copyright 1990, Gaussian, Inc.),
 the Gaussian 88(TM) system (copyright 1988, Gaussian, Inc.),
 the Gaussian 86(TM) system (copyright 1986, Carnegie Mellon
 University), and the Gaussian 82(TM) system (copyright 1983,
 Carnegie Mellon University). Gaussian is a federally registered
 trademark of Gaussian, Inc.
  
 This software contains proprietary and confidential information,
 including trade secrets, belonging to Gaussian, Inc.
  
 This software is provided under written license and may be
 used, copied, transmitted, or stored only in accord with that
 written license.
  
 The following legend is applicable only to US Government
 contracts under FAR:
  
                    RESTRICTED RIGHTS LEGEND
  
 Use, reproduction and disclosure by the US Government is
 subject to restrictions as set forth in subparagraphs (a)
 and (c) of the Commercial Computer Software - Restricted
 Rights clause in FAR 52.227-19.
  
 Gaussian, Inc.
 340 Quinnipiac St., Bldg. 40, Wallingford CT 06492
  
  
 ---------------------------------------------------------------
 Warning -- This program may not be used in any manner that
 competes with the business of Gaussian, Inc. or will provide
 assistance to any competitor of Gaussian, Inc.  The licensee
 of this program is prohibited from giving any competitor of
 Gaussian, Inc. access to this program.  By using this program,
 the user acknowledges that Gaussian, Inc. is engaged in the
 business of creating and licensing software in the field of
 computational chemistry and represents and warrants to the
 licensee that it is not a competitor of Gaussian, Inc. and that
 it will not use this program in any manner prohibited above.
 ---------------------------------------------------------------
  

 Cite this work as:
 Gaussian 09, Revision E.01,
 M. J. Frisch, G. W. Trucks, H. B. Schlegel, G. E. Scuseria, 
 M. A. Robb, J. R. Cheeseman, G. Scalmani, V. Barone, B. Mennucci, 
 G. A. Petersson, H. Nakatsuji, M. Caricato, X. Li, H. P. Hratchian, 
 A. F. Izmaylov, J. Bloino, G. Zheng, J. L. Sonnenberg, M. Hada, 
 M. Ehara, K. Toyota, R. Fukuda, J. Hasegawa, M. Ishida, T. Nakajima, 
 Y. Honda, O. Kitao, H. Nakai, T. Vreven, J. A. Montgomery, Jr., 
 J. E. Peralta, F. Ogliaro, M. Bearpark, J. J. Heyd, E. Brothers, 
 K. N. Kudin, V. N. Staroverov, T. Keith, R. Kobayashi, J. Normand, 
 K. Raghavachari, A. Rendell, J. C. Burant, S. S. Iyengar, J. Tomasi, 
 M. Cossi, N. Rega, J. M. Millam, M. Klene, J. E. Knox, J. B. Cross, 
 V. Bakken, C. Adamo, J. Jaramillo, R. Gomperts, R. E. Stratmann, 
 O. Yazyev, A. J. Austin, R. Cammi, C. Pomelli, J. W. Ochterski, 
 R. L. Martin, K. Morokuma, V. G. Zakrzewski, G. A. Voth, 
 P. Salvador, J. J. Dannenberg, S. Dapprich, A. D. Daniels, 
 O. Farkas, J. B. Foresman, J. V. Ortiz, J. Cioslowski, 
 and D. J. Fox, Gaussian, Inc., Wallingford CT, 2013.
 
 ******************************************
 Gaussian 09:  ES64L-G09RevE.01 30-Nov-2015
                10-Oct-2017 
 ******************************************
 %NProcShared=8
 Will use up to    8 processors via shared memory.
 -----------------------------------
 #p ccsd(t,maxcyc=200)/6-311++G(d,p)
 -----------------------------------
 1/38=1/1;
 2/12=2,17=6,18=5,40=1/2;
 3/5=4,6=6,7=1111,11=9,16=1,25=1,30=1/1,2,3;
 4//1;
 5/5=2,38=5/2;
 8/6=4,9=120000,10=2/1,4;
 9/5=7,6=200,14=2/13;
 6/7=2,8=2,9=2,10=2/1;
 99/5=1,9=1/99;
 Leave Link    1 at Tue Oct 10 05:45:43 2017, MaxMem=           0 cpu:         0.7
 (Enter /usr/local/gaussian/2009-E.01/g09/l101.exe)
 -------------
 ccsd(t) iener
 -------------
 Symbolic Z-matrix:
 Charge =  0 Multiplicity = 3
 C                    -1.92784  -0.14339   0.00013 
 C                    -0.64162   0.05065  -0.00009 
 C                     0.64159   0.05072  -0.00009 
 C                     1.92783  -0.1432    0.00013 
 H                    -2.75673   0.55629  -0.00068 
 H                     2.75665   0.55655  -0.00067 
 
 NAtoms=      6 NQM=        6 NQMF=       0 NMMI=      0 NMMIF=      0
                NMic=       0 NMicF=      0.
                    Isotopes and Nuclear Properties:
 (Nuclear quadrupole moments (NQMom) in fm**2, nuclear magnetic moments (NMagM)
  in nuclear magnetons)

  Atom         1           2           3           4           5           6
 IAtWgt=          12          12          12          12           1           1
 AtmWgt=  12.0000000  12.0000000  12.0000000  12.0000000   1.0078250   1.0078250
 NucSpn=           0           0           0           0           1           1
 AtZEff=   0.0000000   0.0000000   0.0000000   0.0000000   0.0000000   0.0000000
 NQMom=    0.0000000   0.0000000   0.0000000   0.0000000   0.0000000   0.0000000
 NMagM=    0.0000000   0.0000000   0.0000000   0.0000000   2.7928460   2.7928460
 AtZNuc=   6.0000000   6.0000000   6.0000000   6.0000000   1.0000000   1.0000000
 Leave Link  101 at Tue Oct 10 05:45:44 2017, MaxMem=    33554432 cpu:         1.2
 (Enter /usr/local/gaussian/2009-E.01/g09/l202.exe)
                          Input orientation:                          
 ---------------------------------------------------------------------
 Center     Atomic      Atomic             Coordinates (Angstroms)
 Number     Number       Type             X           Y           Z
 ---------------------------------------------------------------------
      1          6           0       -1.927842   -0.143386    0.000127
      2          6           0       -0.641625    0.050655   -0.000095
      3          6           0        0.641591    0.050715   -0.000094
      4          6           0        1.927827   -0.143203    0.000131
      5          1           0       -2.756731    0.556291   -0.000679
      6          1           0        2.756650    0.556553   -0.000674
 ---------------------------------------------------------------------
                    Distance matrix (angstroms):
                    1          2          3          4          5
     1  C    0.000000
     2  C    1.300772   0.000000
     3  C    2.576754   1.283216   0.000000
     4  C    3.855669   2.576754   1.300772   0.000000
     5  H    1.084715   2.174706   3.435725   4.736494   0.000000
     6  H    4.736494   3.435725   2.174706   1.084715   5.513381
                    6
     6  H    0.000000
 Stoichiometry    C4H2(3)
 Framework group  C2V[SGV(C4H2)]
 Deg. of freedom     5
 Full point group                 C2V     NOp   4
 Largest Abelian subgroup         C2V     NOp   4
 Largest concise Abelian subgroup C2      NOp   2
                         Standard orientation:                         
 ---------------------------------------------------------------------
 Center     Atomic      Atomic             Coordinates (Angstroms)
 Number     Number       Type             X           Y           Z
 ---------------------------------------------------------------------
      1          6           0       -0.000000   -1.927835   -0.143353
      2          6           0        0.000000   -0.641608    0.050626
      3          6           0        0.000000    0.641608    0.050626
      4          6           0        0.000000    1.927835   -0.143353
      5          1           0        0.000000   -2.756691    0.556364
      6          1           0        0.000000    2.756691    0.556364
 ---------------------------------------------------------------------
 Rotational constants (GHZ):    437.8332548      4.4178581      4.3737260
 Leave Link  202 at Tue Oct 10 05:45:44 2017, MaxMem=    33554432 cpu:         0.8
 (Enter /usr/local/gaussian/2009-E.01/g09/l301.exe)
 Standard basis: 6-311++G(d,p) (5D, 7F)
 Ernie: Thresh=  0.10000D-02 Tol=  0.10000D-05 Strict=F.
 There are    40 symmetry adapted cartesian basis functions of A1  symmetry.
 There are    13 symmetry adapted cartesian basis functions of A2  symmetry.
 There are    13 symmetry adapted cartesian basis functions of B1  symmetry.
 There are    40 symmetry adapted cartesian basis functions of B2  symmetry.
 There are    38 symmetry adapted basis functions of A1  symmetry.
 There are    13 symmetry adapted basis functions of A2  symmetry.
 There are    13 symmetry adapted basis functions of B1  symmetry.
 There are    38 symmetry adapted basis functions of B2  symmetry.
   102 basis functions,   162 primitive gaussians,   106 cartesian basis functions
    14 alpha electrons       12 beta electrons
       nuclear repulsion energy        75.9230221010 Hartrees.
 IExCor=    0 DFT=F Ex=HF Corr=None ExCW=0 ScaHFX=  1.000000
 ScaDFX=  1.000000  1.000000  1.000000  1.000000 ScalE2=  1.000000  1.000000
 IRadAn=      0 IRanWt=     -1 IRanGd=            0 ICorTp=0 IEmpDi=  4
 NAtoms=    6 NActive=    6 NUniq=    3 SFac= 4.00D+00 NAtFMM=   60 NAOKFM=F Big=F
 Integral buffers will be    131072 words long.
 Raffenetti 2 integral format.
 Two-electron integral symmetry is turned on.
 Leave Link  301 at Tue Oct 10 05:45:44 2017, MaxMem=    33554432 cpu:         0.4
 (Enter /usr/local/gaussian/2009-E.01/g09/l302.exe)
 NPDir=0 NMtPBC=     1 NCelOv=     1 NCel=       1 NClECP=     1 NCelD=      1
         NCelK=      1 NCelE2=     1 NClLst=     1 CellRange=     0.0.
 One-electron integrals computed using PRISM.
 One-electron integral symmetry used in STVInt
 NBasis=   102 RedAO= T EigKep=  4.17D-06  NBF=    38    13    13    38
 NBsUse=   101 1.00D-06 EigRej=  1.09D-07 NBFU=    38    13    13    37
 Leave Link  302 at Tue Oct 10 05:45:44 2017, MaxMem=    33554432 cpu:         1.2
 (Enter /usr/local/gaussian/2009-E.01/g09/l303.exe)
 DipDrv:  MaxL=1.
 Leave Link  303 at Tue Oct 10 05:45:44 2017, MaxMem=    33554432 cpu:         0.1
 (Enter /usr/local/gaussian/2009-E.01/g09/l401.exe)
 ExpMin= 3.60D-02 ExpMax= 4.56D+03 ExpMxC= 6.82D+02 IAcc=3 IRadAn=         5 AccDes= 0.00D+00
 Harris functional with IExCor=  205 and IRadAn=       5 diagonalized for initial guess.
 HarFok:  IExCor=  205 AccDes= 0.00D+00 IRadAn=         5 IDoV= 1 UseB2=F ITyADJ=14
 ICtDFT=  3500011 ScaDFX=  1.000000  1.000000  1.000000  1.000000
 FoFCou: FMM=F IPFlag=           0 FMFlag=      100000 FMFlg1=           0
         NFxFlg=           0 DoJE=T BraDBF=F KetDBF=T FulRan=T
         wScrn=  0.000000 ICntrl=     500 IOpCl=  0 I1Cent=   200000004 NGrid=           0
         NMat0=    1 NMatS0=      1 NMatT0=    0 NMatD0=    1 NMtDS0=    0 NMtDT0=    0
 Petite list used in FoFCou.
 Harris En= -152.533468606549    
 JPrj=0 DoOrth=F DoCkMO=F.
 Initial guess orbital symmetries:
 Alpha Orbitals:
       Occupied  (A1) (B2) (B2) (A1) (A1) (B2) (A1) (B2) (A1) (B1)
                 (A1) (B2) (A2) (A1)
       Virtual   (B1) (B2) (A1) (A2) (B2) (A1) (B1) (A1) (B2) (A2)
                 (B2) (B2) (A1) (A1) (B1) (A1) (B2) (A1) (B2) (A2)
                 (B2) (A1) (B2) (A1) (B2) (A1) (B1) (A1) (A1) (B2)
                 (A2) (B2) (B1) (A1) (A2) (B2) (A1) (B2) (A1) (B2)
                 (B2) (A1) (B1) (B1) (A1) (A2) (B2) (A1) (B1) (B2)
                 (A1) (A2) (B2) (A2) (B2) (B1) (A1) (B2) (A1) (A2)
                 (B1) (A1) (B2) (B2) (A1) (A2) (A1) (B1) (A1) (B2)
                 (B2) (A1) (A2) (B1) (B2) (A1) (A2) (B2) (B2) (A1)
                 (B2) (A1) (B2) (A1) (B2) (A1) (B2)
 Beta  Orbitals:
       Occupied  (A1) (B2) (B2) (A1) (A1) (B2) (A1) (B2) (A1) (B1)
                 (A1) (B2)
       Virtual   (A2) (A1) (B1) (B2) (A1) (A2) (B2) (A1) (B1) (A1)
                 (B2) (A2) (B2) (B2) (A1) (A1) (B1) (A1) (B2) (A1)
                 (B2) (A2) (B2) (A1) (B2) (A1) (B2) (A1) (B1) (A1)
                 (A1) (B2) (A2) (B2) (B1) (A1) (A2) (B2) (A1) (B2)
                 (A1) (B2) (B2) (A1) (B1) (B1) (A1) (A2) (B2) (A1)
                 (B1) (B2) (A1) (A2) (B2) (A2) (B2) (B1) (A1) (B2)
                 (A1) (A2) (B1) (A1) (B2) (B2) (A1) (A2) (A1) (B1)
                 (A1) (B2) (B2) (A1) (A2) (B1) (B2) (A1) (A2) (B2)
                 (B2) (A1) (B2) (A1) (B2) (A1) (B2) (A1) (B2)
 The electronic state of the initial guess is 3-A2.
 Initial guess <Sx>= 0.0000 <Sy>= 0.0000 <Sz>= 1.0000 <S**2>= 2.0000 S= 1.0000
 Leave Link  401 at Tue Oct 10 05:45:44 2017, MaxMem=    33554432 cpu:         1.6
 (Enter /usr/local/gaussian/2009-E.01/g09/l502.exe)
 UHF open shell SCF:
 Using DIIS extrapolation, IDIIS=  1040.
 Integral symmetry usage will be decided dynamically.
 Keep R1 and R2 ints in memory in symmetry-blocked form, NReq=17530386.
 IVT=       54106 IEndB=       54106 NGot=    33554432 MDV=    26159677
 LenX=    26159677 LenY=    26148000
 Requested convergence on RMS density matrix=1.00D-08 within 128 cycles.
 Requested convergence on MAX density matrix=1.00D-06.
 Requested convergence on             energy=1.00D-06.
 No special actions if energy rises.
 FoFCou: FMM=F IPFlag=           0 FMFlag=           0 FMFlg1=           0
         NFxFlg=           0 DoJE=F BraDBF=F KetDBF=F FulRan=T
         wScrn=  0.000000 ICntrl=     600 IOpCl=  0 I1Cent=           0 NGrid=           0
         NMat0=    1 NMatS0=   5253 NMatT0=    0 NMatD0=    1 NMtDS0=    0 NMtDT0=    0
 Petite list used in FoFCou.

 Cycle   1  Pass 1  IDiag  1:
 E= -152.251995676520    
 DIIS: error= 6.81D-02 at cycle   1 NSaved=   1.
 NSaved= 1 IEnMin= 1 EnMin= -152.251995676520     IErMin= 1 ErrMin= 6.81D-02
 ErrMax= 6.81D-02  0.00D+00 EMaxC= 1.00D-01 BMatC= 1.11D+00 BMatP= 1.11D+00
 IDIUse=3 WtCom= 3.19D-01 WtEn= 6.81D-01
 Coeff-Com:  0.100D+01
 Coeff-En:   0.100D+01
 Coeff:      0.100D+01
 Gap=     0.298 Goal=   None    Shift=    0.000
 Gap=     0.307 Goal=   None    Shift=    0.000
 GapD=    0.298 DampG=1.000 DampE=0.500 DampFc=0.5000 IDamp=-1.
 Damping current iteration by 5.00D-01
 RMSDP=2.87D-02 MaxDP=7.20D-01              OVMax= 1.41D-01

 Cycle   2  Pass 1  IDiag  1:
 E= -152.331107839725     Delta-E=       -0.079112163205 Rises=F Damp=T
 DIIS: error= 3.73D-02 at cycle   2 NSaved=   2.
 NSaved= 2 IEnMin= 2 EnMin= -152.331107839725     IErMin= 2 ErrMin= 3.73D-02
 ErrMax= 3.73D-02  0.00D+00 EMaxC= 1.00D-01 BMatC= 2.76D-01 BMatP= 1.11D+00
 IDIUse=3 WtCom= 6.27D-01 WtEn= 3.73D-01
 Coeff-Com: -0.862D+00 0.186D+01
 Coeff-En:   0.000D+00 0.100D+01
 Coeff:     -0.541D+00 0.154D+01
 Gap=     0.338 Goal=   None    Shift=    0.000
 Gap=     0.293 Goal=   None    Shift=    0.000
 RMSDP=1.27D-02 MaxDP=4.39D-01 DE=-7.91D-02 OVMax= 6.52D-02

 Cycle   3  Pass 1  IDiag  1:
 E= -152.412173152284     Delta-E=       -0.081065312558 Rises=F Damp=F
 DIIS: error= 9.70D-03 at cycle   3 NSaved=   3.
 NSaved= 3 IEnMin= 3 EnMin= -152.412173152284     IErMin= 3 ErrMin= 9.70D-03
 ErrMax= 9.70D-03  0.00D+00 EMaxC= 1.00D-01 BMatC= 6.19D-03 BMatP= 2.76D-01
 IDIUse=3 WtCom= 9.03D-01 WtEn= 9.70D-02
 Coeff-Com: -0.961D-01 0.161D+00 0.936D+00
 Coeff-En:   0.000D+00 0.000D+00 0.100D+01
 Coeff:     -0.868D-01 0.145D+00 0.942D+00
 Gap=     0.334 Goal=   None    Shift=    0.000
 Gap=     0.296 Goal=   None    Shift=    0.000
 RMSDP=4.69D-03 MaxDP=1.36D-01 DE=-8.11D-02 OVMax= 3.66D-02

 Cycle   4  Pass 1  IDiag  1:
 E= -152.416104822424     Delta-E=       -0.003931670141 Rises=F Damp=F
 DIIS: error= 7.07D-03 at cycle   4 NSaved=   4.
 NSaved= 4 IEnMin= 4 EnMin= -152.416104822424     IErMin= 4 ErrMin= 7.07D-03
 ErrMax= 7.07D-03  0.00D+00 EMaxC= 1.00D-01 BMatC= 2.36D-03 BMatP= 6.19D-03
 IDIUse=3 WtCom= 9.29D-01 WtEn= 7.07D-02
 Coeff-Com:  0.472D-01-0.111D+00 0.220D+00 0.844D+00
 Coeff-En:   0.000D+00 0.000D+00 0.000D+00 0.100D+01
 Coeff:      0.438D-01-0.103D+00 0.204D+00 0.855D+00
 Gap=     0.339 Goal=   None    Shift=    0.000
 Gap=     0.299 Goal=   None    Shift=    0.000
 RMSDP=1.49D-03 MaxDP=4.05D-02 DE=-3.93D-03 OVMax= 2.31D-02

 Cycle   5  Pass 1  IDiag  1:
 E= -152.417889830373     Delta-E=       -0.001785007948 Rises=F Damp=F
 DIIS: error= 4.14D-03 at cycle   5 NSaved=   5.
 NSaved= 5 IEnMin= 5 EnMin= -152.417889830373     IErMin= 5 ErrMin= 4.14D-03
 ErrMax= 4.14D-03  0.00D+00 EMaxC= 1.00D-01 BMatC= 9.17D-04 BMatP= 2.36D-03
 IDIUse=3 WtCom= 9.59D-01 WtEn= 4.14D-02
 Coeff-Com:  0.337D-02 0.106D-01-0.441D+00-0.384D+00 0.181D+01
 Coeff-En:   0.000D+00 0.000D+00 0.000D+00 0.000D+00 0.100D+01
 Coeff:      0.323D-02 0.102D-01-0.423D+00-0.368D+00 0.178D+01
 Gap=     0.345 Goal=   None    Shift=    0.000
 Gap=     0.302 Goal=   None    Shift=    0.000
 RMSDP=2.55D-03 MaxDP=4.97D-02 DE=-1.79D-03 OVMax= 3.58D-02

 Cycle   6  Pass 1  IDiag  1:
 E= -152.419765847941     Delta-E=       -0.001876017569 Rises=F Damp=F
 DIIS: error= 2.17D-03 at cycle   6 NSaved=   6.
 NSaved= 6 IEnMin= 6 EnMin= -152.419765847941     IErMin= 6 ErrMin= 2.17D-03
 ErrMax= 2.17D-03  0.00D+00 EMaxC= 1.00D-01 BMatC= 3.04D-04 BMatP= 9.17D-04
 IDIUse=3 WtCom= 9.78D-01 WtEn= 2.17D-02
 Coeff-Com: -0.237D-01 0.293D-01 0.515D+00 0.318D+00-0.240D+01 0.256D+01
 Coeff-En:   0.000D+00 0.000D+00 0.000D+00 0.000D+00 0.000D+00 0.100D+01
 Coeff:     -0.232D-01 0.286D-01 0.504D+00 0.311D+00-0.235D+01 0.253D+01
 Gap=     0.345 Goal=   None    Shift=    0.000
 Gap=     0.300 Goal=   None    Shift=    0.000
 RMSDP=1.49D-03 MaxDP=3.48D-02 DE=-1.88D-03 OVMax= 3.25D-02

 Cycle   7  Pass 1  IDiag  1:
 E= -152.420723760253     Delta-E=       -0.000957912312 Rises=F Damp=F
 DIIS: error= 1.08D-03 at cycle   7 NSaved=   7.
 NSaved= 7 IEnMin= 7 EnMin= -152.420723760253     IErMin= 7 ErrMin= 1.08D-03
 ErrMax= 1.08D-03  0.00D+00 EMaxC= 1.00D-01 BMatC= 7.64D-05 BMatP= 3.04D-04
 IDIUse=3 WtCom= 9.89D-01 WtEn= 1.08D-02
 Coeff-Com:  0.937D-02-0.149D-01-0.130D+00-0.436D-01 0.641D+00-0.151D+01
 Coeff-Com:  0.205D+01
 Coeff-En:   0.000D+00 0.000D+00 0.000D+00 0.000D+00 0.000D+00 0.000D+00
 Coeff-En:   0.100D+01
 Coeff:      0.927D-02-0.148D-01-0.129D+00-0.431D-01 0.634D+00-0.149D+01
 Coeff:      0.204D+01
 Gap=     0.346 Goal=   None    Shift=    0.000
 Gap=     0.299 Goal=   None    Shift=    0.000
 RMSDP=1.08D-03 MaxDP=3.17D-02 DE=-9.58D-04 OVMax= 2.58D-02

 Cycle   8  Pass 1  IDiag  1:
 E= -152.421015302858     Delta-E=       -0.000291542605 Rises=F Damp=F
 DIIS: error= 2.22D-04 at cycle   8 NSaved=   8.
 NSaved= 8 IEnMin= 8 EnMin= -152.421015302858     IErMin= 8 ErrMin= 2.22D-04
 ErrMax= 2.22D-04  0.00D+00 EMaxC= 1.00D-01 BMatC= 4.69D-06 BMatP= 7.64D-05
 IDIUse=3 WtCom= 9.98D-01 WtEn= 2.22D-03
 Coeff-Com: -0.536D-03 0.182D-02-0.186D-01-0.229D-01 0.796D-01 0.186D+00
 Coeff-Com: -0.677D+00 0.145D+01
 Coeff-En:   0.000D+00 0.000D+00 0.000D+00 0.000D+00 0.000D+00 0.000D+00
 Coeff-En:   0.000D+00 0.100D+01
 Coeff:     -0.535D-03 0.182D-02-0.185D-01-0.229D-01 0.794D-01 0.186D+00
 Coeff:     -0.675D+00 0.145D+01
 Gap=     0.346 Goal=   None    Shift=    0.000
 Gap=     0.298 Goal=   None    Shift=    0.000
 RMSDP=1.69D-04 MaxDP=3.43D-03 DE=-2.92D-04 OVMax= 4.17D-03

 Cycle   9  Pass 1  IDiag  1:
 E= -152.421025630982     Delta-E=       -0.000010328124 Rises=F Damp=F
 DIIS: error= 5.50D-05 at cycle   9 NSaved=   9.
 NSaved= 9 IEnMin= 9 EnMin= -152.421025630982     IErMin= 9 ErrMin= 5.50D-05
 ErrMax= 5.50D-05  0.00D+00 EMaxC= 1.00D-01 BMatC= 3.74D-07 BMatP= 4.69D-06
 IDIUse=1 WtCom= 1.00D+00 WtEn= 0.00D+00
 Coeff-Com: -0.464D-03 0.667D-03 0.954D-02 0.878D-02-0.561D-01 0.709D-01
 Coeff-Com: -0.346D-01-0.281D+00 0.128D+01
 Coeff:     -0.464D-03 0.667D-03 0.954D-02 0.878D-02-0.561D-01 0.709D-01
 Coeff:     -0.346D-01-0.281D+00 0.128D+01
 Gap=     0.346 Goal=   None    Shift=    0.000
 Gap=     0.298 Goal=   None    Shift=    0.000
 RMSDP=1.18D-04 MaxDP=2.56D-03 DE=-1.03D-05 OVMax= 8.71D-04

 Cycle  10  Pass 1  IDiag  1:
 E= -152.421026158556     Delta-E=       -0.000000527574 Rises=F Damp=F
 DIIS: error= 1.26D-05 at cycle  10 NSaved=  10.
 NSaved=10 IEnMin=10 EnMin= -152.421026158556     IErMin=10 ErrMin= 1.26D-05
 ErrMax= 1.26D-05  0.00D+00 EMaxC= 1.00D-01 BMatC= 3.53D-08 BMatP= 3.74D-07
 IDIUse=1 WtCom= 1.00D+00 WtEn= 0.00D+00
 Coeff-Com:  0.143D-04 0.454D-05-0.192D-02-0.595D-03 0.100D-01-0.343D-01
 Coeff-Com:  0.644D-01-0.396D-01-0.358D+00 0.136D+01
 Coeff:      0.143D-04 0.454D-05-0.192D-02-0.595D-03 0.100D-01-0.343D-01
 Coeff:      0.644D-01-0.396D-01-0.358D+00 0.136D+01
 Gap=     0.346 Goal=   None    Shift=    0.000
 Gap=     0.298 Goal=   None    Shift=    0.000
 RMSDP=4.79D-05 MaxDP=1.12D-03 DE=-5.28D-07 OVMax= 1.50D-04

 Cycle  11  Pass 1  IDiag  1:
 E= -152.421026194622     Delta-E=       -0.000000036066 Rises=F Damp=F
 DIIS: error= 5.05D-06 at cycle  11 NSaved=  11.
 NSaved=11 IEnMin=11 EnMin= -152.421026194622     IErMin=11 ErrMin= 5.05D-06
 ErrMax= 5.05D-06  0.00D+00 EMaxC= 1.00D-01 BMatC= 4.25D-09 BMatP= 3.53D-08
 IDIUse=1 WtCom= 1.00D+00 WtEn= 0.00D+00
 Coeff-Com: -0.546D-04 0.972D-04 0.265D-03 0.141D-03-0.136D-02 0.109D-01
 Coeff-Com: -0.266D-01 0.387D-01 0.487D-01-0.615D+00 0.154D+01
 Coeff:     -0.546D-04 0.972D-04 0.265D-03 0.141D-03-0.136D-02 0.109D-01
 Coeff:     -0.266D-01 0.387D-01 0.487D-01-0.615D+00 0.154D+01
 Gap=     0.346 Goal=   None    Shift=    0.000
 Gap=     0.298 Goal=   None    Shift=    0.000
 RMSDP=1.02D-05 MaxDP=2.24D-04 DE=-3.61D-08 OVMax= 5.24D-05

 Cycle  12  Pass 1  IDiag  1:
 E= -152.421026199572     Delta-E=       -0.000000004950 Rises=F Damp=F
 DIIS: error= 2.18D-06 at cycle  12 NSaved=  12.
 NSaved=12 IEnMin=12 EnMin= -152.421026199572     IErMin=12 ErrMin= 2.18D-06
 ErrMax= 2.18D-06  0.00D+00 EMaxC= 1.00D-01 BMatC= 4.46D-10 BMatP= 4.25D-09
 IDIUse=1 WtCom= 1.00D+00 WtEn= 0.00D+00
 Coeff-Com:  0.401D-04-0.692D-04-0.127D-03 0.146D-03-0.214D-03-0.199D-02
 Coeff-Com:  0.595D-02-0.131D-01 0.136D-01 0.154D+00-0.734D+00 0.158D+01
 Coeff:      0.401D-04-0.692D-04-0.127D-03 0.146D-03-0.214D-03-0.199D-02
 Coeff:      0.595D-02-0.131D-01 0.136D-01 0.154D+00-0.734D+00 0.158D+01
 Gap=     0.346 Goal=   None    Shift=    0.000
 Gap=     0.298 Goal=   None    Shift=    0.000
 RMSDP=1.87D-06 MaxDP=3.84D-05 DE=-4.95D-09 OVMax= 1.88D-05

 Cycle  13  Pass 1  IDiag  1:
 E= -152.421026200079     Delta-E=       -0.000000000507 Rises=F Damp=F
 DIIS: error= 5.37D-07 at cycle  13 NSaved=  13.
 NSaved=13 IEnMin=13 EnMin= -152.421026200079     IErMin=13 ErrMin= 5.37D-07
 ErrMax= 5.37D-07  0.00D+00 EMaxC= 1.00D-01 BMatC= 3.71D-11 BMatP= 4.46D-10
 IDIUse=1 WtCom= 1.00D+00 WtEn= 0.00D+00
 Coeff-Com: -0.236D-04 0.395D-04 0.135D-03-0.786D-05-0.212D-03 0.904D-03
 Coeff-Com: -0.175D-02 0.350D-02-0.850D-02-0.336D-01 0.258D+00-0.797D+00
 Coeff-Com:  0.158D+01
 Coeff:     -0.236D-04 0.395D-04 0.135D-03-0.786D-05-0.212D-03 0.904D-03
 Coeff:     -0.175D-02 0.350D-02-0.850D-02-0.336D-01 0.258D+00-0.797D+00
 Coeff:      0.158D+01
 Gap=     0.346 Goal=   None    Shift=    0.000
 Gap=     0.298 Goal=   None    Shift=    0.000
 RMSDP=4.06D-07 MaxDP=1.03D-05 DE=-5.07D-10 OVMax= 7.22D-06

 Cycle  14  Pass 1  IDiag  1:
 E= -152.421026200125     Delta-E=       -0.000000000046 Rises=F Damp=F
 DIIS: error= 2.06D-07 at cycle  14 NSaved=  14.
 NSaved=14 IEnMin=14 EnMin= -152.421026200125     IErMin=14 ErrMin= 2.06D-07
 ErrMax= 2.06D-07  0.00D+00 EMaxC= 1.00D-01 BMatC= 4.20D-12 BMatP= 3.71D-11
 IDIUse=1 WtCom= 1.00D+00 WtEn= 0.00D+00
 Coeff-Com:  0.359D-05-0.501D-05-0.697D-04-0.248D-04 0.238D-03-0.270D-03
 Coeff-Com:  0.433D-04 0.709D-03-0.761D-03-0.317D-02 0.376D-02 0.247D-01
 Coeff-Com: -0.369D+00 0.134D+01
 Coeff:      0.359D-05-0.501D-05-0.697D-04-0.248D-04 0.238D-03-0.270D-03
 Coeff:      0.433D-04 0.709D-03-0.761D-03-0.317D-02 0.376D-02 0.247D-01
 Coeff:     -0.369D+00 0.134D+01
 Gap=     0.346 Goal=   None    Shift=    0.000
 Gap=     0.298 Goal=   None    Shift=    0.000
 RMSDP=3.37D-07 MaxDP=7.53D-06 DE=-4.59D-11 OVMax= 1.85D-06

 Cycle  15  Pass 1  IDiag  1:
 E= -152.421026200130     Delta-E=       -0.000000000005 Rises=F Damp=F
 DIIS: error= 6.94D-08 at cycle  15 NSaved=  15.
 NSaved=15 IEnMin=15 EnMin= -152.421026200130     IErMin=15 ErrMin= 6.94D-08
 ErrMax= 6.94D-08  0.00D+00 EMaxC= 1.00D-01 BMatC= 3.02D-13 BMatP= 4.20D-12
 IDIUse=1 WtCom= 1.00D+00 WtEn= 0.00D+00
 Coeff-Com: -0.378D-06 0.291D-06 0.216D-04 0.124D-04-0.917D-04 0.106D-03
 Coeff-Com: -0.280D-04-0.358D-03 0.955D-03 0.219D-02-0.163D-01 0.470D-01
 Coeff-Com:  0.205D-01-0.541D+00 0.149D+01
 Coeff:     -0.378D-06 0.291D-06 0.216D-04 0.124D-04-0.917D-04 0.106D-03
 Coeff:     -0.280D-04-0.358D-03 0.955D-03 0.219D-02-0.163D-01 0.470D-01
 Coeff:      0.205D-01-0.541D+00 0.149D+01
 Gap=     0.346 Goal=   None    Shift=    0.000
 Gap=     0.298 Goal=   None    Shift=    0.000
 RMSDP=9.48D-08 MaxDP=2.68D-06 DE=-4.83D-12 OVMax= 5.55D-07

 Cycle  16  Pass 1  IDiag  1:
 E= -152.421026200130     Delta-E=       -0.000000000000 Rises=F Damp=F
 DIIS: error= 1.65D-08 at cycle  16 NSaved=  16.
 NSaved=16 IEnMin=16 EnMin= -152.421026200130     IErMin=16 ErrMin= 1.65D-08
 ErrMax= 1.65D-08  0.00D+00 EMaxC= 1.00D-01 BMatC= 2.26D-14 BMatP= 3.02D-13
 IDIUse=1 WtCom= 1.00D+00 WtEn= 0.00D+00
 Coeff-Com:  0.129D-06-0.113D-06-0.631D-05-0.419D-05 0.280D-04-0.407D-04
 Coeff-Com:  0.323D-04 0.758D-04-0.371D-03-0.151D-03 0.447D-02-0.176D-01
 Coeff-Com:  0.170D-01 0.112D+00-0.586D+00 0.147D+01
 Coeff:      0.129D-06-0.113D-06-0.631D-05-0.419D-05 0.280D-04-0.407D-04
 Coeff:      0.323D-04 0.758D-04-0.371D-03-0.151D-03 0.447D-02-0.176D-01
 Coeff:      0.170D-01 0.112D+00-0.586D+00 0.147D+01
 Gap=     0.346 Goal=   None    Shift=    0.000
 Gap=     0.298 Goal=   None    Shift=    0.000
 RMSDP=2.41D-08 MaxDP=7.40D-07 DE=-1.71D-13 OVMax= 2.12D-07

 Cycle  17  Pass 1  IDiag  1:
 E= -152.421026200130     Delta-E=       -0.000000000000 Rises=F Damp=F
 DIIS: error= 3.16D-09 at cycle  17 NSaved=  17.
 NSaved=17 IEnMin=17 EnMin= -152.421026200130     IErMin=17 ErrMin= 3.16D-09
 ErrMax= 3.16D-09  0.00D+00 EMaxC= 1.00D-01 BMatC= 1.64D-15 BMatP= 2.26D-14
 IDIUse=1 WtCom= 1.00D+00 WtEn= 0.00D+00
 Large coefficients: NSaved= 17 BigCof=    0.00 CofMax=   10.00 Det=-1.29D-15
 Inversion failed.  Reducing to 16 matrices.
 Large coefficients: NSaved= 16 BigCof=    0.00 CofMax=   10.00 Det=-1.33D-15
 Inversion failed.  Reducing to 15 matrices.
 Coeff-Com:  0.367D-06 0.894D-06-0.313D-05 0.613D-05-0.869D-05-0.545D-05
 Coeff-Com:  0.791D-04 0.380D-05-0.123D-02 0.577D-02-0.134D-01 0.152D-02
 Coeff-Com:  0.135D+00-0.622D+00 0.149D+01
 Coeff:      0.367D-06 0.894D-06-0.313D-05 0.613D-05-0.869D-05-0.545D-05
 Coeff:      0.791D-04 0.380D-05-0.123D-02 0.577D-02-0.134D-01 0.152D-02
 Coeff:      0.135D+00-0.622D+00 0.149D+01
 Gap=     0.346 Goal=   None    Shift=    0.000
 Gap=     0.298 Goal=   None    Shift=    0.000
 RMSDP=5.45D-09 MaxDP=1.75D-07 DE=-3.41D-13 OVMax= 3.17D-08

 SCF Done:  E(UHF) =  -152.421026200     A.U. after   17 cycles
            NFock= 17  Conv=0.55D-08     -V/T= 2.0007
 <Sx>= 0.0000 <Sy>= 0.0000 <Sz>= 1.0000 <S**2>= 2.3015 S= 1.0973
 <L.S>= 0.000000000000E+00
 KE= 1.523141480712D+02 PE=-5.064249895164D+02 EE= 1.257667931441D+02
 Annihilation of the first spin contaminant:
 S**2 before annihilation     2.3015,   after     2.0395
 Leave Link  502 at Tue Oct 10 05:45:46 2017, MaxMem=    33554432 cpu:         8.4
 (Enter /usr/local/gaussian/2009-E.01/g09/l801.exe)
 Windowed orbitals will be sorted by symmetry type.
 ExpMin= 3.60D-02 ExpMax= 4.56D+03 ExpMxC= 6.82D+02 IAcc=3 IRadAn=         5 AccDes= 0.00D+00
 HarFok:  IExCor=  205 AccDes= 0.00D+00 IRadAn=         5 IDoV=-2 UseB2=F ITyADJ=14
 ICtDFT= 12500011 ScaDFX=  1.000000  1.000000  1.000000  1.000000
 Largest valence mixing into a core orbital is  1.36D-04
 Largest core mixing into a valence orbital is  4.08D-05
 Largest valence mixing into a core orbital is  1.63D-04
 Largest core mixing into a valence orbital is  5.04D-05
 Range of M.O.s used for correlation:     5   101
 NBasis=   102 NAE=    14 NBE=    12 NFC=     4 NFV=     0
 NROrb=     97 NOA=    10 NOB=     8 NVA=    87 NVB=    89

 **** Warning!!: The largest alpha MO coefficient is  0.15257805D+03


 **** Warning!!: The largest beta MO coefficient is  0.14854353D+03

 Leave Link  801 at Tue Oct 10 05:45:46 2017, MaxMem=    33554432 cpu:         0.5
 (Enter /usr/local/gaussian/2009-E.01/g09/l804.exe)
 Open-shell transformation, MDV=    33554432 ITran=4 ISComp=2.
 Semi-Direct transformation.
 ModeAB=           4 MOrb=            10 LenV=      33170680
 LASXX=      1113902 LTotXX=     1113902 LenRXX=     2281325
 LTotAB=     1167423 MaxLAS=     2874110 LenRXY=           0
 NonZer=     3395227 LenScr=     5820416 LnRSAI=     2874110
 LnScr1=     5028352 LExtra=           0 Total=     16004203
 MaxDsk=          -1 SrtSym=           T ITran=            4
 DoSDTr:  NPSUse=  8
 JobTyp=1 Pass  1:  I=   1 to  10.
 (rs|ai) integrals will be sorted in core.
 Complete sort for first half transformation.
 First half transformation complete.
 Begin second half transformation for I=  10.
 Complete sort for second half transformation.
 Second half transformation complete.
 ModeAB=           4 MOrb=             8 LenV=      33170680
 LASXX=       915309 LTotXX=      915309 LenRXX=     1682689
 LTotAB=      767380 MaxLAS=     2299288 LenRXY=           0
 NonZer=     2597998 LenScr=     4675584 LnRSAI=     2299288
 LnScr1=     4137984 LExtra=           0 Total=     12795545
 MaxDsk=          -1 SrtSym=           T ITran=            4
 DoSDTr:  NPSUse=  8
 JobTyp=2 Pass  1:  I=   1 to   8.
 (rs|ai) integrals will be sorted in core.
 Complete sort for first half transformation.
 First half transformation complete.
 Complete sort for second half transformation.
 Second half transformation complete.
 Spin components of T(2) and E(2):
     alpha-alpha T2 =       0.2824818326D-01 E2=     -0.7243432623D-01
     alpha-beta  T2 =       0.1389816322D+00 E2=     -0.3508732398D+00
     beta-beta   T2 =       0.2262611867D-01 E2=     -0.5250163793D-01
 ANorm=    0.1090805177D+01
 E2 =    -0.4758092040D+00 EUMP2 =    -0.15289683540408D+03
 (S**2,0)=  0.23015D+01           (S**2,1)=  0.22009D+01
 E(PUHF)=      -0.15243767425D+03        E(PMP2)=      -0.15291092836D+03
 Leave Link  804 at Tue Oct 10 05:45:47 2017, MaxMem=    33554432 cpu:         9.5
 (Enter /usr/local/gaussian/2009-E.01/g09/l913.exe)
 CIDS:  MDV=    33554432.
 Frozen-core window:  NFC=   4 NFV=   0.
 IFCWin=0 IBDFC=1 NFBD=     0     0 NFCmp=     0     0 NFFFC=     0     0
 Using original routines for 1st iteration, S=T.
 Using DD4UQ or CC4UQ for 2nd and later iterations.
 Keep R2 and R3 ints in memory in symmetry-blocked form, NReq=17477796.
 FoFCou: FMM=F IPFlag=           0 FMFlag=           0 FMFlg1=           0
         NFxFlg=           0 DoJE=F BraDBF=F KetDBF=F FulRan=T
         wScrn=  0.000000 ICntrl=     600 IOpCl=  0 I1Cent=           0 NGrid=           0
         NMat0=    1 NMatS0=   5253 NMatT0=    0 NMatD0=    1 NMtDS0=    0 NMtDT0=    0
 Petite list used in FoFCou.
 CCSD(T)
 =======
 Iterations= 200 Convergence= 0.100D-06
 Iteration Nr.   1
 **********************
 DD1Dir will call FoFMem   1 times, MxPair=       234
 NAB=    80 NAA=    45 NBB=    28.
 E(PMP3)=      -0.15293089426D+03
 MP4(R+Q)=  0.14283149D-01
 Maximum subspace dimension=  5
 Norm of the A-vectors is  7.8249380D-01 conv= 1.00D-05.
 RLE energy=       -0.4856973482
 E3=       -0.23867790D-01        EUMP3=      -0.15292070319D+03
 E4(DQ)=    0.49457693D-03        UMP4(DQ)=   -0.15292020862D+03
 E4(SDQ)=  -0.99064707D-02        UMP4(SDQ)=  -0.15293060966D+03
 VARIATIONAL ENERGIES WITH THE FIRST-ORDER WAVEFUNCTION:
 DE(Corr)= -0.48549606     E(Corr)=     -152.90652226    
 NORM(A)=   0.11004762D+01
 Iteration Nr.   2
 **********************
 DD1Dir will call FoFMem   1 times, MxPair=       234
 NAB=    80 NAA=    45 NBB=    28.
 Norm of the A-vectors is  3.7260733D-01 conv= 1.00D-05.
 RLE energy=       -0.5091822372
 DE(Corr)= -0.50533888     E(CORR)=     -152.92636508     Delta=-1.98D-02
 NORM(A)=   0.11176636D+01
 Iteration Nr.   3
 **********************
 DD1Dir will call FoFMem   1 times, MxPair=       234
 NAB=    80 NAA=    45 NBB=    28.
 Norm of the A-vectors is  1.2327249D-01 conv= 1.00D-05.
 RLE energy=       -0.5125921174
 DE(Corr)= -0.50832055     E(CORR)=     -152.92934675     Delta=-2.98D-03
 NORM(A)=   0.11294101D+01
 Iteration Nr.   4
 **********************
 DD1Dir will call FoFMem   1 times, MxPair=       234
 NAB=    80 NAA=    45 NBB=    28.
 Norm of the A-vectors is  8.3569960D-02 conv= 1.00D-05.
 RLE energy=       -0.5139757898
 DE(Corr)= -0.51281959     E(CORR)=     -152.93384579     Delta=-4.50D-03
 NORM(A)=   0.11365124D+01
 Iteration Nr.   5
 **********************
 DD1Dir will call FoFMem   1 times, MxPair=       234
 NAB=    80 NAA=    45 NBB=    28.
 Norm of the A-vectors is  3.4366904D-02 conv= 1.00D-05.
 RLE energy=       -0.5144450788
 DE(Corr)= -0.51410253     E(CORR)=     -152.93512873     Delta=-1.28D-03
 NORM(A)=   0.11387826D+01
 Iteration Nr.   6
 **********************
 DD1Dir will call FoFMem   1 times, MxPair=       234
 NAB=    80 NAA=    45 NBB=    28.
 Norm of the A-vectors is  1.3122085D-02 conv= 1.00D-05.
 RLE energy=       -0.5143144130
 DE(Corr)= -0.51435931     E(CORR)=     -152.93538552     Delta=-2.57D-04
 NORM(A)=   0.11390332D+01
 Iteration Nr.   7
 **********************
 DD1Dir will call FoFMem   1 times, MxPair=       234
 NAB=    80 NAA=    45 NBB=    28.
 Norm of the A-vectors is  6.0230924D-03 conv= 1.00D-05.
 RLE energy=       -0.5143665030
 DE(Corr)= -0.51438570     E(CORR)=     -152.93541190     Delta=-2.64D-05
 NORM(A)=   0.11390621D+01
 Iteration Nr.   8
 **********************
 DD1Dir will call FoFMem   1 times, MxPair=       234
 NAB=    80 NAA=    45 NBB=    28.
 Norm of the A-vectors is  2.3708632D-03 conv= 1.00D-05.
 RLE energy=       -0.5143672506
 DE(Corr)= -0.51437179     E(CORR)=     -152.93539799     Delta= 1.39D-05
 NORM(A)=   0.11390748D+01
 Iteration Nr.   9
 **********************
 DD1Dir will call FoFMem   1 times, MxPair=       234
 NAB=    80 NAA=    45 NBB=    28.
 Norm of the A-vectors is  1.0379523D-03 conv= 1.00D-05.
 RLE energy=       -0.5143838143
 DE(Corr)= -0.51438255     E(CORR)=     -152.93540875     Delta=-1.08D-05
 NORM(A)=   0.11390781D+01
 Iteration Nr.  10
 **********************
 DD1Dir will call FoFMem   1 times, MxPair=       234
 NAB=    80 NAA=    45 NBB=    28.
 Norm of the A-vectors is  4.9458196D-04 conv= 1.00D-05.
 RLE energy=       -0.5143823296
 DE(Corr)= -0.51438082     E(CORR)=     -152.93540702     Delta= 1.74D-06
 NORM(A)=   0.11390843D+01
 Iteration Nr.  11
 **********************
 DD1Dir will call FoFMem   1 times, MxPair=       234
 NAB=    80 NAA=    45 NBB=    28.
 Norm of the A-vectors is  2.2233889D-04 conv= 1.00D-05.
 RLE energy=       -0.5143860226
 DE(Corr)= -0.51438495     E(CORR)=     -152.93541115     Delta=-4.14D-06
 NORM(A)=   0.11390915D+01
 Iteration Nr.  12
 **********************
 DD1Dir will call FoFMem   1 times, MxPair=       234
 NAB=    80 NAA=    45 NBB=    28.
 Norm of the A-vectors is  1.1217375D-04 conv= 1.00D-05.
 RLE energy=       -0.5143871446
 DE(Corr)= -0.51438590     E(CORR)=     -152.93541210     Delta=-9.44D-07
 NORM(A)=   0.11390982D+01
 Iteration Nr.  13
 **********************
 DD1Dir will call FoFMem   1 times, MxPair=       234
 NAB=    80 NAA=    45 NBB=    28.
 Norm of the A-vectors is  5.6780838D-05 conv= 1.00D-05.
 RLE energy=       -0.5143878325
 DE(Corr)= -0.51438728     E(CORR)=     -152.93541348     Delta=-1.39D-06
 NORM(A)=   0.11391026D+01
 Iteration Nr.  14
 **********************
 DD1Dir will call FoFMem   1 times, MxPair=       234
 NAB=    80 NAA=    45 NBB=    28.
 Norm of the A-vectors is  3.4552062D-05 conv= 1.00D-05.
 RLE energy=       -0.5143883583
 DE(Corr)= -0.51438808     E(CORR)=     -152.93541428     Delta=-7.92D-07
 NORM(A)=   0.11391043D+01
 Iteration Nr.  15
 **********************
 DD1Dir will call FoFMem   1 times, MxPair=       234
 NAB=    80 NAA=    45 NBB=    28.
 Norm of the A-vectors is  1.7725434D-05 conv= 1.00D-05.
 RLE energy=       -0.5143883475
 DE(Corr)= -0.51438828     E(CORR)=     -152.93541448     Delta=-2.02D-07
 NORM(A)=   0.11391050D+01
 Iteration Nr.  16
 **********************
 DD1Dir will call FoFMem   1 times, MxPair=       234
 NAB=    80 NAA=    45 NBB=    28.
 Norm of the A-vectors is  9.0654690D-06 conv= 1.00D-05.
 RLE energy=       -0.5143884676
 DE(Corr)= -0.51438844     E(CORR)=     -152.93541464     Delta=-1.66D-07
 NORM(A)=   0.11391052D+01
 Iteration Nr.  17
 **********************
 DD1Dir will call FoFMem   1 times, MxPair=       234
 NAB=    80 NAA=    45 NBB=    28.
 Norm of the A-vectors is  4.7718185D-06 conv= 1.00D-05.
 RLE energy=       -0.5143884279
 DE(Corr)= -0.51438843     E(CORR)=     -152.93541463     Delta= 1.93D-08
 NORM(A)=   0.11391052D+01
 CI/CC converged in   17 iterations to DelEn= 1.93D-08 Conv= 1.00D-07 ErrA1= 4.77D-06 Conv= 1.00D-05
 Dominant configurations:
 ***********************
 Spin Case        I    J    A    B          Value
    AA           11        15           -0.107973D+00
 Largest amplitude= 1.08D-01
 Time for triples=      154.56 seconds.
 T4(CCSD)= -0.31901923D-01
 T5(CCSD)=  0.22106845D-02
 CCSD(T)= -0.15296510586D+03

 S**2, projected HF & approx projected MPn energies after annihilation of
 unwanted spin states (see manual for definitions):

 spins       (S**2,0) (S**2,1)    PUHF        PMP2        PMP3        PMP4
 annihilated
 s+1         1.97398  1.99147 -152.437674 -152.910928 -152.930894
 s+1,s+2     2.00025  1.99988 -152.436488 -152.909802 -152.929831
 s+1 to s+3  2.00000  2.00000 -152.436506 -152.909815 -152.929837
 s+1 to s+4  2.00000  2.00000 -152.436506 -152.909815 -152.929837
 s+1 to s+5  2.00000  2.00000 -152.436506
 s+1 to s+6  2.00000  2.00000 -152.436506

 Discarding MO integrals.
 Leave Link  913 at Tue Oct 10 05:46:50 2017, MaxMem=    33554432 cpu:       479.6
 (Enter /usr/local/gaussian/2009-E.01/g09/l601.exe)
 Copying SCF densities to generalized density rwf, IOpCl= 1 IROHF=0.

 **********************************************************************

            Population analysis using the SCF density.

 **********************************************************************

 Orbital symmetries:
 Alpha Orbitals:
       Occupied  (A1) (B2) (A1) (B2) (A1) (B2) (A1) (B2) (A1) (A1)
                 (B1) (B2) (A2) (A1)
       Virtual   (B1) (A1) (B2) (A1) (B1) (B2) (A1) (A2) (B2) (A1)
                 (A1) (B2) (B1) (B2) (A2) (A1) (B2) (A1) (B2) (A1)
                 (A2) (B2) (B2) (A1) (B2) (A1) (B1) (A1) (A1) (A2)
                 (B2) (B2) (B1) (A1) (A2) (B2) (A1) (B2) (B2) (A1)
                 (A1) (B1) (B1) (A1) (A2) (B2) (B2) (A1) (B1) (B2)
                 (A1) (A2) (B2) (A2) (B2) (A1) (B1) (B2) (A1) (A2)
                 (B1) (A1) (B2) (B2) (A1) (A2) (A1) (B2) (A1) (B1)
                 (B2) (A1) (A2) (B1) (B2) (A1) (A2) (B2) (B2) (A1)
                 (B2) (A1) (B2) (A1) (B2) (A1) (B2)
 Beta  Orbitals:
       Occupied  (A1) (B2) (A1) (B2) (A1) (B2) (A1) (B2) (A1) (A1)
                 (B1) (B2)
       Virtual   (A2) (A1) (A1) (B2) (B1) (A1) (B2) (A2) (A1) (B2)
                 (B1) (A1) (A1) (B2) (B1) (B2) (A2) (A1) (B2) (A1)
                 (B2) (A1) (B2) (A2) (B2) (A1) (B2) (A1) (B1) (A1)
                 (A1) (B2) (A2) (B2) (B1) (A1) (A2) (B2) (A1) (B2)
                 (B2) (A1) (A1) (B1) (B1) (A1) (B2) (A2) (B2) (A1)
                 (B1) (B2) (A1) (A2) (B2) (A2) (B2) (A1) (B1) (B2)
                 (A1) (A2) (B1) (A1) (B2) (B2) (A1) (A2) (A1) (B2)
                 (A1) (B1) (B2) (A1) (A2) (B1) (B2) (A1) (A2) (B2)
                 (B2) (A1) (B2) (A1) (B2) (A1) (B2) (A1) (B2)
 The electronic state is 3-A2.
 Alpha  occ. eigenvalues --  -11.29795 -11.29794 -11.28751 -11.28534  -1.12383
 Alpha  occ. eigenvalues --   -1.05327  -0.91279  -0.71305  -0.68626  -0.54509
 Alpha  occ. eigenvalues --   -0.51237  -0.47475  -0.41285  -0.30805
 Alpha virt. eigenvalues --    0.03815   0.04356   0.05254   0.10339   0.11511
 Alpha virt. eigenvalues --    0.11658   0.11979   0.12423   0.14261   0.16610
 Alpha virt. eigenvalues --    0.17509   0.18865   0.19277   0.20772   0.23199
 Alpha virt. eigenvalues --    0.23895   0.24095   0.28544   0.30681   0.32430
 Alpha virt. eigenvalues --    0.32549   0.32838   0.45830   0.55725   0.60242
 Alpha virt. eigenvalues --    0.63736   0.66526   0.68845   0.70122   0.71213
 Alpha virt. eigenvalues --    0.72941   0.74405   0.78808   0.81069   0.88744
 Alpha virt. eigenvalues --    0.89312   0.92167   0.92227   1.02750   1.07238
 Alpha virt. eigenvalues --    1.14542   1.23754   1.30793   1.32088   1.32212
 Alpha virt. eigenvalues --    1.33044   1.37028   1.44864   1.51997   1.57853
 Alpha virt. eigenvalues --    1.62936   1.68130   1.75253   1.79689   1.88530
 Alpha virt. eigenvalues --    1.98198   1.99082   2.06478   2.14140   2.20260
 Alpha virt. eigenvalues --    2.32056   2.35822   2.42605   2.64717   2.79645
 Alpha virt. eigenvalues --    2.83409   2.88720   2.90406   2.96359   3.03596
 Alpha virt. eigenvalues --    3.16490   3.18756   3.25432   3.26263   3.30349
 Alpha virt. eigenvalues --    3.33962   3.36550   3.39722   3.42761   3.73813
 Alpha virt. eigenvalues --    3.89930   4.03821   4.45737  24.46818  24.91183
 Alpha virt. eigenvalues --   25.34456  26.24673
  Beta  occ. eigenvalues --  -11.29067 -11.28844 -11.27092 -11.27092  -1.09937
  Beta  occ. eigenvalues --   -0.98020  -0.86020  -0.68192  -0.66222  -0.48341
  Beta  occ. eigenvalues --   -0.45863  -0.31932
  Beta virt. eigenvalues --   -0.02133   0.04241   0.05137   0.05406   0.08894
  Beta virt. eigenvalues --    0.10781   0.11583   0.13361   0.13641   0.14728
  Beta virt. eigenvalues --    0.16281   0.16903   0.18044   0.19503   0.21707
  Beta virt. eigenvalues --    0.24076   0.24092   0.24601   0.25463   0.29643
  Beta virt. eigenvalues --    0.31084   0.33559   0.34499   0.36953   0.48206
  Beta virt. eigenvalues --    0.57977   0.61909   0.65468   0.69453   0.69772
  Beta virt. eigenvalues --    0.71533   0.74631   0.78165   0.78451   0.81736
  Beta virt. eigenvalues --    0.85174   0.89097   0.89362   0.95062   0.95286
  Beta virt. eigenvalues --    1.05039   1.08599   1.16562   1.26836   1.33719
  Beta virt. eigenvalues --    1.34415   1.34580   1.37901   1.39770   1.47952
  Beta virt. eigenvalues --    1.56071   1.61230   1.65625   1.72375   1.77569
  Beta virt. eigenvalues --    1.81807   1.89833   2.01635   2.02094   2.09258
  Beta virt. eigenvalues --    2.17072   2.22800   2.34891   2.37562   2.45594
  Beta virt. eigenvalues --    2.65812   2.80731   2.86380   2.89553   2.91243
  Beta virt. eigenvalues --    2.97732   3.06247   3.17626   3.21007   3.28245
  Beta virt. eigenvalues --    3.28683   3.31464   3.37106   3.37353   3.40497
  Beta virt. eigenvalues --    3.46062   3.74129   3.91098   4.05636   4.46920
  Beta virt. eigenvalues --   24.47481  24.92760  25.35500  26.24811
          Condensed to atoms (all electrons):
               1          2          3          4          5          6
     1  C    8.357467  -1.719548  -0.479750   0.156914   0.258362  -0.021691
     2  C   -1.719548   6.775344   0.930058  -0.479750   0.071403   0.009038
     3  C   -0.479750   0.930058   6.775344  -1.719548   0.009038   0.071403
     4  C    0.156914  -0.479750  -1.719548   8.357467  -0.021691   0.258362
     5  H    0.258362   0.071403   0.009038  -0.021691   0.543476   0.001115
     6  H   -0.021691   0.009038   0.071403   0.258362   0.001115   0.543476
          Atomic-Atomic Spin Densities.
               1          2          3          4          5          6
     1  C    1.216442   0.164780   0.025078   0.048579  -0.153077  -0.012731
     2  C    0.164780  -0.684132   0.153768   0.025078   0.085258  -0.005821
     3  C    0.025078   0.153768  -0.684132   0.164780  -0.005821   0.085258
     4  C    0.048579   0.025078   0.164780   1.216442  -0.012731  -0.153077
     5  H   -0.153077   0.085258  -0.005821  -0.012731   0.057018   0.001352
     6  H   -0.012731  -0.005821   0.085258  -0.153077   0.001352   0.057018
 Mulliken charges and spin densities:
               1          2
     1  C   -0.551753   1.289071
     2  C    0.413456  -0.261070
     3  C    0.413456  -0.261070
     4  C   -0.551753   1.289071
     5  H    0.138297  -0.028001
     6  H    0.138297  -0.028001
 Sum of Mulliken charges =  -0.00000   2.00000
 Mulliken charges and spin densities with hydrogens summed into heavy atoms:
               1          2
     1  C   -0.413456   1.261070
     2  C    0.413456  -0.261070
     3  C    0.413456  -0.261070
     4  C   -0.413456   1.261070
 Electronic spatial extent (au):  <R**2>=            285.7282
 Charge=              0.0000 electrons
 Dipole moment (field-independent basis, Debye):
    X=             -0.0000    Y=             -0.0000    Z=              1.8499  Tot=              1.8499
 Quadrupole moment (field-independent basis, Debye-Ang):
   XX=            -23.8263   YY=            -18.6870   ZZ=            -26.5492
   XY=              0.0000   XZ=              0.0000   YZ=              0.0000
 Traceless Quadrupole moment (field-independent basis, Debye-Ang):
   XX=             -0.8054   YY=              4.3338   ZZ=             -3.5284
   XY=              0.0000   XZ=              0.0000   YZ=              0.0000
 Octapole moment (field-independent basis, Debye-Ang**2):
  XXX=             -0.0000  YYY=             -0.0000  ZZZ=              3.4337  XYY=             -0.0000
  XXY=              0.0000  XXZ=              0.7961  XZZ=             -0.0000  YZZ=             -0.0000
  YYZ=             15.4252  XYZ=              0.0000
 Hexadecapole moment (field-independent basis, Debye-Ang**3):
 XXXX=            -27.4659 YYYY=           -314.0908 ZZZZ=            -38.9310 XXXY=             -0.0000
 XXXZ=              0.0000 YYYX=             -0.0000 YYYZ=              0.0000 ZZZX=              0.0000
 ZZZY=             -0.0000 XXYY=            -66.5892 XXZZ=            -11.0919 YYZZ=            -73.3287
 XXYZ=             -0.0000 YYXZ=              0.0000 ZZXY=             -0.0000
 N-N= 7.592302210100D+01 E-N=-5.064249894733D+02  KE= 1.523141480712D+02
 Symmetry A1   KE= 7.685399775292D+01
 Symmetry A2   KE= 1.104838265881D+00
 Symmetry B1   KE= 2.019902986947D+00
 Symmetry B2   KE= 7.233540906542D+01
 Leave Link  601 at Tue Oct 10 05:46:50 2017, MaxMem=    33554432 cpu:         1.1
 (Enter /usr/local/gaussian/2009-E.01/g09/l9999.exe)
 1\1\ WCSS.PL-BEM-WN1424\SP\UCCSD(T)-FC\6-311++G(d,p)\C4H2(3)\ROOT\10-O
 ct-2017\0\\#p ccsd(t,maxcyc=200)/6-311++G(d,p)\\ccsd(t) iener\\0,3\C,0
 ,-1.927841868,-0.143385772,0.000127148\C,0,-0.641624552,0.050654624,-0
 .000094898\C,0,0.641591451,0.050715377,-0.000093697\C,0,1.927827135,-0
 .143203228,0.000130754\H,0,-2.756730996,0.556291484,-0.000678922\H,0,2
 .756650008,0.556552512,-0.000673764\\Version=ES64L-G09RevE.01\State=3-
 A2\HF=-152.4210262\MP2=-152.8968354\MP3=-152.9207032\MP4D=-152.9344918
 \MP4DQ=-152.9202086\PUHF=-152.4376743\PMP2-0=-152.9109284\PMP3-0=-152.
 9308943\MP4SDQ=-152.9306097\CCSD=-152.9354146\CCSD(T)=-152.9651059\S2=
 2.301474\S2-1=2.20094\S2A=2.039453\RMSD=5.453e-09\PG=C02V [SGV(C4H2)]\
 \@


 LEARN FROM YESTERDAY,
 LIVE FOR TODAY,
 LOOK TO TOMORROW,
 REST THIS AFTERNOON.

           -- SNOOPY
 Job cpu time:       0 days  0 hours  8 minutes 25.8 seconds.
 File lengths (MBytes):  RWF=    135 Int=      0 D2E=      0 Chk=      2 Scr=      1
 Normal termination of Gaussian 09 at Tue Oct 10 05:46:50 2017.
