 Entering Gaussian System, Link 0=/usr/local/gaussian/2009-E.01/g09/g09
 Initial command:
 /usr/local/gaussian/2009-E.01/g09/l1.exe "/lustre/scratch/eerd/4986703.achilles/Gau-194721.inp" -scrdir="/lustre/scratch/eerd/4986703.achilles/"
 Entering Link 1 = /usr/local/gaussian/2009-E.01/g09/l1.exe PID=    194723.
  
 Copyright (c) 1988,1990,1992,1993,1995,1998,2003,2009,2015,
            Gaussian, Inc.  All Rights Reserved.
  
 This is part of the Gaussian(R) 09 program.  It is based on
 the Gaussian(R) 03 system (copyright 2003, Gaussian, Inc.),
 the Gaussian(R) 98 system (copyright 1998, Gaussian, Inc.),
 the Gaussian(R) 94 system (copyright 1995, Gaussian, Inc.),
 the Gaussian 92(TM) system (copyright 1992, Gaussian, Inc.),
 the Gaussian 90(TM) system (copyright 1990, Gaussian, Inc.),
 the Gaussian 88(TM) system (copyright 1988, Gaussian, Inc.),
 the Gaussian 86(TM) system (copyright 1986, Carnegie Mellon
 University), and the Gaussian 82(TM) system (copyright 1983,
 Carnegie Mellon University). Gaussian is a federally registered
 trademark of Gaussian, Inc.
  
 This software contains proprietary and confidential information,
 including trade secrets, belonging to Gaussian, Inc.
  
 This software is provided under written license and may be
 used, copied, transmitted, or stored only in accord with that
 written license.
  
 The following legend is applicable only to US Government
 contracts under FAR:
  
                    RESTRICTED RIGHTS LEGEND
  
 Use, reproduction and disclosure by the US Government is
 subject to restrictions as set forth in subparagraphs (a)
 and (c) of the Commercial Computer Software - Restricted
 Rights clause in FAR 52.227-19.
  
 Gaussian, Inc.
 340 Quinnipiac St., Bldg. 40, Wallingford CT 06492
  
  
 ---------------------------------------------------------------
 Warning -- This program may not be used in any manner that
 competes with the business of Gaussian, Inc. or will provide
 assistance to any competitor of Gaussian, Inc.  The licensee
 of this program is prohibited from giving any competitor of
 Gaussian, Inc. access to this program.  By using this program,
 the user acknowledges that Gaussian, Inc. is engaged in the
 business of creating and licensing software in the field of
 computational chemistry and represents and warrants to the
 licensee that it is not a competitor of Gaussian, Inc. and that
 it will not use this program in any manner prohibited above.
 ---------------------------------------------------------------
  

 Cite this work as:
 Gaussian 09, Revision E.01,
 M. J. Frisch, G. W. Trucks, H. B. Schlegel, G. E. Scuseria, 
 M. A. Robb, J. R. Cheeseman, G. Scalmani, V. Barone, B. Mennucci, 
 G. A. Petersson, H. Nakatsuji, M. Caricato, X. Li, H. P. Hratchian, 
 A. F. Izmaylov, J. Bloino, G. Zheng, J. L. Sonnenberg, M. Hada, 
 M. Ehara, K. Toyota, R. Fukuda, J. Hasegawa, M. Ishida, T. Nakajima, 
 Y. Honda, O. Kitao, H. Nakai, T. Vreven, J. A. Montgomery, Jr., 
 J. E. Peralta, F. Ogliaro, M. Bearpark, J. J. Heyd, E. Brothers, 
 K. N. Kudin, V. N. Staroverov, T. Keith, R. Kobayashi, J. Normand, 
 K. Raghavachari, A. Rendell, J. C. Burant, S. S. Iyengar, J. Tomasi, 
 M. Cossi, N. Rega, J. M. Millam, M. Klene, J. E. Knox, J. B. Cross, 
 V. Bakken, C. Adamo, J. Jaramillo, R. Gomperts, R. E. Stratmann, 
 O. Yazyev, A. J. Austin, R. Cammi, C. Pomelli, J. W. Ochterski, 
 R. L. Martin, K. Morokuma, V. G. Zakrzewski, G. A. Voth, 
 P. Salvador, J. J. Dannenberg, S. Dapprich, A. D. Daniels, 
 O. Farkas, J. B. Foresman, J. V. Ortiz, J. Cioslowski, 
 and D. J. Fox, Gaussian, Inc., Wallingford CT, 2013.
 
 ******************************************
 Gaussian 09:  ES64L-G09RevE.01 30-Nov-2015
                10-Oct-2017 
 ******************************************
 %NProcShared=8
 Will use up to    8 processors via shared memory.
 -----------------------------------
 #p ccsd(t,maxcyc=200)/6-311++G(d,p)
 -----------------------------------
 1/38=1/1;
 2/12=2,17=6,18=5,40=1/2;
 3/5=4,6=6,7=1111,11=9,16=1,25=1,30=1/1,2,3;
 4//1;
 5/5=2,38=5/2;
 8/6=4,9=120000,10=2/1,4;
 9/5=7,6=200,14=2/13;
 6/7=2,8=2,9=2,10=2/1;
 99/5=1,9=1/99;
 Leave Link    1 at Tue Oct 10 06:15:22 2017, MaxMem=           0 cpu:         2.4
 (Enter /usr/local/gaussian/2009-E.01/g09/l101.exe)
 -------------
 ccsd(t) iener
 -------------
 Symbolic Z-matrix:
 Charge =  1 Multiplicity = 4
 C                    -1.95063  -0.08183   0.00067 
 C                    -0.62494  -0.00545  -0.00008 
 C                     0.62497  -0.00653  -0.0002 
 C                     1.95053  -0.08518   0.00031 
 H                    -2.83168   0.55069  -0.00442 
 H                     2.83266   0.54582  -0.00495 
 
 NAtoms=      6 NQM=        6 NQMF=       0 NMMI=      0 NMMIF=      0
                NMic=       0 NMicF=      0.
                    Isotopes and Nuclear Properties:
 (Nuclear quadrupole moments (NQMom) in fm**2, nuclear magnetic moments (NMagM)
  in nuclear magnetons)

  Atom         1           2           3           4           5           6
 IAtWgt=          12          12          12          12           1           1
 AtmWgt=  12.0000000  12.0000000  12.0000000  12.0000000   1.0078250   1.0078250
 NucSpn=           0           0           0           0           1           1
 AtZEff=   0.0000000   0.0000000   0.0000000   0.0000000   0.0000000   0.0000000
 NQMom=    0.0000000   0.0000000   0.0000000   0.0000000   0.0000000   0.0000000
 NMagM=    0.0000000   0.0000000   0.0000000   0.0000000   2.7928460   2.7928460
 AtZNuc=   6.0000000   6.0000000   6.0000000   6.0000000   1.0000000   1.0000000
 Leave Link  101 at Tue Oct 10 06:15:22 2017, MaxMem=    33554432 cpu:         1.2
 (Enter /usr/local/gaussian/2009-E.01/g09/l202.exe)
                          Input orientation:                          
 ---------------------------------------------------------------------
 Center     Atomic      Atomic             Coordinates (Angstroms)
 Number     Number       Type             X           Y           Z
 ---------------------------------------------------------------------
      1          6           0       -1.950634   -0.081827    0.000673
      2          6           0       -0.624943   -0.005450   -0.000085
      3          6           0        0.624973   -0.006525   -0.000200
      4          6           0        1.950531   -0.085182    0.000312
      5          1           0       -2.831676    0.550693   -0.004422
      6          1           0        2.832660    0.545820   -0.004946
 ---------------------------------------------------------------------
                    Distance matrix (angstroms):
                    1          2          3          4          5
     1  C    0.000000
     2  C    1.327890   0.000000
     3  C    2.576708   1.249916   0.000000
     4  C    3.901166   2.576708   1.327890   0.000000
     5  H    1.084593   2.275739   3.501276   4.824300   0.000000
     6  H    4.824300   3.501276   2.275739   1.084593   5.664338
                    6
     6  H    0.000000
 Stoichiometry    C4H2(1+,4)
 Framework group  C2V[SGV(C4H2)]
 Deg. of freedom     5
 Full point group                 C2V     NOp   4
 Largest Abelian subgroup         C2V     NOp   4
 Largest concise Abelian subgroup C2      NOp   2
                         Standard orientation:                         
 ---------------------------------------------------------------------
 Center     Atomic      Atomic             Coordinates (Angstroms)
 Number     Number       Type             X           Y           Z
 ---------------------------------------------------------------------
      1          6           0       -0.000000    1.950583   -0.084377
      2          6           0       -0.000000    0.624958   -0.006857
      3          6           0       -0.000000   -0.624958   -0.006857
      4          6           0       -0.000000   -1.950583   -0.084377
      5          1           0        0.000000    2.832169    0.547406
      6          1           0       -0.000000   -2.832169    0.547406
 ---------------------------------------------------------------------
 Rotational constants (GHZ):    671.6887682      4.3247929      4.2971251
 Leave Link  202 at Tue Oct 10 06:15:22 2017, MaxMem=    33554432 cpu:         0.3
 (Enter /usr/local/gaussian/2009-E.01/g09/l301.exe)
 Standard basis: 6-311++G(d,p) (5D, 7F)
 Ernie: Thresh=  0.10000D-02 Tol=  0.10000D-05 Strict=F.
 There are    40 symmetry adapted cartesian basis functions of A1  symmetry.
 There are    13 symmetry adapted cartesian basis functions of A2  symmetry.
 There are    13 symmetry adapted cartesian basis functions of B1  symmetry.
 There are    40 symmetry adapted cartesian basis functions of B2  symmetry.
 There are    38 symmetry adapted basis functions of A1  symmetry.
 There are    13 symmetry adapted basis functions of A2  symmetry.
 There are    13 symmetry adapted basis functions of B1  symmetry.
 There are    38 symmetry adapted basis functions of B2  symmetry.
   102 basis functions,   162 primitive gaussians,   106 cartesian basis functions
    14 alpha electrons       11 beta electrons
       nuclear repulsion energy        75.4724617025 Hartrees.
 IExCor=    0 DFT=F Ex=HF Corr=None ExCW=0 ScaHFX=  1.000000
 ScaDFX=  1.000000  1.000000  1.000000  1.000000 ScalE2=  1.000000  1.000000
 IRadAn=      0 IRanWt=     -1 IRanGd=            0 ICorTp=0 IEmpDi=  4
 NAtoms=    6 NActive=    6 NUniq=    3 SFac= 4.00D+00 NAtFMM=   60 NAOKFM=F Big=F
 Integral buffers will be    131072 words long.
 Raffenetti 2 integral format.
 Two-electron integral symmetry is turned on.
 Leave Link  301 at Tue Oct 10 06:15:22 2017, MaxMem=    33554432 cpu:         0.5
 (Enter /usr/local/gaussian/2009-E.01/g09/l302.exe)
 NPDir=0 NMtPBC=     1 NCelOv=     1 NCel=       1 NClECP=     1 NCelD=      1
         NCelK=      1 NCelE2=     1 NClLst=     1 CellRange=     0.0.
 One-electron integrals computed using PRISM.
 One-electron integral symmetry used in STVInt
 NBasis=   102 RedAO= T EigKep=  2.56D-06  NBF=    38    13    13    38
 NBsUse=   101 1.00D-06 EigRej=  4.25D-08 NBFU=    38    13    13    37
 Leave Link  302 at Tue Oct 10 06:15:23 2017, MaxMem=    33554432 cpu:         2.9
 (Enter /usr/local/gaussian/2009-E.01/g09/l303.exe)
 DipDrv:  MaxL=1.
 Leave Link  303 at Tue Oct 10 06:15:23 2017, MaxMem=    33554432 cpu:         0.3
 (Enter /usr/local/gaussian/2009-E.01/g09/l401.exe)
 ExpMin= 3.60D-02 ExpMax= 4.56D+03 ExpMxC= 6.82D+02 IAcc=3 IRadAn=         5 AccDes= 0.00D+00
 Harris functional with IExCor=  205 and IRadAn=       5 diagonalized for initial guess.
 HarFok:  IExCor=  205 AccDes= 0.00D+00 IRadAn=         5 IDoV= 1 UseB2=F ITyADJ=14
 ICtDFT=  3500011 ScaDFX=  1.000000  1.000000  1.000000  1.000000
 FoFCou: FMM=F IPFlag=           0 FMFlag=      100000 FMFlg1=           0
         NFxFlg=           0 DoJE=T BraDBF=F KetDBF=T FulRan=T
         wScrn=  0.000000 ICntrl=     500 IOpCl=  0 I1Cent=   200000004 NGrid=           0
         NMat0=    1 NMatS0=      1 NMatT0=    0 NMatD0=    1 NMtDS0=    0 NMtDT0=    0
 Petite list used in FoFCou.
 Harris En= -152.180793787979    
 JPrj=0 DoOrth=F DoCkMO=F.
 Initial guess orbital symmetries:
 Alpha Orbitals:
       Occupied  (A1) (B2) (B2) (A1) (A1) (B2) (A1) (B2) (A1) (B1)
                 (A1) (B2) (A2) (A1)
       Virtual   (B1) (B2) (A1) (A2) (B2) (A1) (A1) (B1) (B2) (A2)
                 (B2) (B2) (A1) (A1) (B1) (A1) (B2) (A1) (B2) (A2)
                 (B2) (A1) (B2) (A1) (B2) (A1) (B1) (A1) (A1) (B2)
                 (A2) (B1) (B2) (A1) (A2) (B2) (A1) (B2) (B2) (A1)
                 (B2) (B1) (A1) (B1) (A1) (A2) (A1) (B2) (B1) (B2)
                 (A1) (A2) (B2) (B2) (A2) (B1) (A1) (B2) (A1) (A2)
                 (A1) (B1) (B2) (B2) (A1) (A2) (A1) (B1) (A1) (B2)
                 (B2) (A2) (B1) (A1) (A1) (B2) (B2) (A2) (B2) (A1)
                 (B2) (A1) (B2) (A1) (B2) (A1) (B2)
 Beta  Orbitals:
       Occupied  (A1) (B2) (B2) (A1) (A1) (B2) (A1) (B2) (A1) (B1)
                 (A1)
       Virtual   (B2) (A2) (A1) (B1) (B2) (A1) (A2) (B2) (A1) (A1)
                 (B1) (B2) (A2) (B2) (B2) (A1) (A1) (B1) (A1) (B2)
                 (A1) (B2) (A2) (B2) (A1) (B2) (A1) (B2) (A1) (B1)
                 (A1) (A1) (B2) (A2) (B1) (B2) (A1) (A2) (B2) (A1)
                 (B2) (B2) (A1) (B2) (B1) (A1) (B1) (A1) (A2) (A1)
                 (B2) (B1) (B2) (A1) (A2) (B2) (B2) (A2) (B1) (A1)
                 (B2) (A1) (A2) (A1) (B1) (B2) (B2) (A1) (A2) (A1)
                 (B1) (A1) (B2) (B2) (A2) (B1) (A1) (A1) (B2) (B2)
                 (A2) (B2) (A1) (B2) (A1) (B2) (A1) (B2) (A1) (B2)
 The electronic state of the initial guess is 4-B1.
 Initial guess <Sx>= 0.0000 <Sy>= 0.0000 <Sz>= 1.5000 <S**2>= 3.7500 S= 1.5000
 Leave Link  401 at Tue Oct 10 06:15:23 2017, MaxMem=    33554432 cpu:         1.8
 (Enter /usr/local/gaussian/2009-E.01/g09/l502.exe)
 UHF open shell SCF:
 Using DIIS extrapolation, IDIIS=  1040.
 Integral symmetry usage will be decided dynamically.
 Keep R1 and R2 ints in memory in symmetry-blocked form, NReq=17530386.
 IVT=       54106 IEndB=       54106 NGot=    33554432 MDV=    26159677
 LenX=    26159677 LenY=    26148000
 Requested convergence on RMS density matrix=1.00D-08 within 128 cycles.
 Requested convergence on MAX density matrix=1.00D-06.
 Requested convergence on             energy=1.00D-06.
 No special actions if energy rises.
 FoFCou: FMM=F IPFlag=           0 FMFlag=           0 FMFlg1=           0
         NFxFlg=           0 DoJE=F BraDBF=F KetDBF=F FulRan=T
         wScrn=  0.000000 ICntrl=     600 IOpCl=  0 I1Cent=           0 NGrid=           0
         NMat0=    1 NMatS0=   5253 NMatT0=    0 NMatD0=    1 NMtDS0=    0 NMtDT0=    0
 Petite list used in FoFCou.

 Cycle   1  Pass 1  IDiag  1:
 E= -152.018729437007    
 DIIS: error= 7.48D-02 at cycle   1 NSaved=   1.
 NSaved= 1 IEnMin= 1 EnMin= -152.018729437007     IErMin= 1 ErrMin= 7.48D-02
 ErrMax= 7.48D-02  0.00D+00 EMaxC= 1.00D-01 BMatC= 9.51D-01 BMatP= 9.51D-01
 IDIUse=3 WtCom= 2.52D-01 WtEn= 7.48D-01
 Coeff-Com:  0.100D+01
 Coeff-En:   0.100D+01
 Coeff:      0.100D+01
 Gap=     0.344 Goal=   None    Shift=    0.000
 Gap=     0.354 Goal=   None    Shift=    0.000
 GapD=    0.344 DampG=1.000 DampE=0.500 DampFc=0.5000 IDamp=-1.
 Damping current iteration by 5.00D-01
 RMSDP=3.71D-02 MaxDP=8.88D-01              OVMax= 1.41D-01

 Cycle   2  Pass 1  IDiag  1:
 E= -152.071185472032     Delta-E=       -0.052456035025 Rises=F Damp=T
 DIIS: error= 3.97D-02 at cycle   2 NSaved=   2.
 NSaved= 2 IEnMin= 2 EnMin= -152.071185472032     IErMin= 2 ErrMin= 3.97D-02
 ErrMax= 3.97D-02  0.00D+00 EMaxC= 1.00D-01 BMatC= 2.59D-01 BMatP= 9.51D-01
 IDIUse=3 WtCom= 6.03D-01 WtEn= 3.97D-01
 Coeff-Com: -0.938D+00 0.194D+01
 Coeff-En:   0.000D+00 0.100D+01
 Coeff:     -0.566D+00 0.157D+01
 Gap=     0.348 Goal=   None    Shift=    0.000
 Gap=     0.399 Goal=   None    Shift=    0.000
 RMSDP=1.68D-02 MaxDP=4.51D-01 DE=-5.25D-02 OVMax= 8.16D-02

 Cycle   3  Pass 1  IDiag  1:
 E= -152.139814509283     Delta-E=       -0.068629037251 Rises=F Damp=F
 DIIS: error= 1.29D-02 at cycle   3 NSaved=   3.
 NSaved= 3 IEnMin= 3 EnMin= -152.139814509283     IErMin= 3 ErrMin= 1.29D-02
 ErrMax= 1.29D-02  0.00D+00 EMaxC= 1.00D-01 BMatC= 9.57D-03 BMatP= 2.59D-01
 IDIUse=3 WtCom= 8.71D-01 WtEn= 1.29D-01
 Coeff-Com: -0.158D+00 0.249D+00 0.909D+00
 Coeff-En:   0.000D+00 0.000D+00 0.100D+01
 Coeff:     -0.138D+00 0.217D+00 0.920D+00
 Gap=     0.355 Goal=   None    Shift=    0.000
 Gap=     0.405 Goal=   None    Shift=    0.000
 RMSDP=6.62D-03 MaxDP=2.08D-01 DE=-6.86D-02 OVMax= 5.11D-02

 Cycle   4  Pass 1  IDiag  1:
 E= -152.147243232281     Delta-E=       -0.007428722998 Rises=F Damp=F
 DIIS: error= 6.77D-03 at cycle   4 NSaved=   4.
 NSaved= 4 IEnMin= 4 EnMin= -152.147243232281     IErMin= 4 ErrMin= 6.77D-03
 ErrMax= 6.77D-03  0.00D+00 EMaxC= 1.00D-01 BMatC= 3.21D-03 BMatP= 9.57D-03
 IDIUse=3 WtCom= 9.32D-01 WtEn= 6.77D-02
 Coeff-Com:  0.219D+00-0.409D+00-0.371D+00 0.156D+01
 Coeff-En:   0.000D+00 0.000D+00 0.000D+00 0.100D+01
 Coeff:      0.204D+00-0.381D+00-0.346D+00 0.152D+01
 Gap=     0.363 Goal=   None    Shift=    0.000
 Gap=     0.429 Goal=   None    Shift=    0.000
 RMSDP=6.42D-03 MaxDP=2.13D-01 DE=-7.43D-03 OVMax= 5.01D-02

 Cycle   5  Pass 1  IDiag  1:
 E= -152.151831245097     Delta-E=       -0.004588012816 Rises=F Damp=F
 DIIS: error= 4.01D-03 at cycle   5 NSaved=   5.
 NSaved= 5 IEnMin= 5 EnMin= -152.151831245097     IErMin= 5 ErrMin= 4.01D-03
 ErrMax= 4.01D-03  0.00D+00 EMaxC= 1.00D-01 BMatC= 8.26D-04 BMatP= 3.21D-03
 IDIUse=3 WtCom= 9.60D-01 WtEn= 4.01D-02
 Coeff-Com: -0.616D-02 0.174D-01-0.131D-01-0.553D+00 0.155D+01
 Coeff-En:   0.000D+00 0.000D+00 0.000D+00 0.000D+00 0.100D+01
 Coeff:     -0.591D-02 0.167D-01-0.125D-01-0.531D+00 0.153D+01
 Gap=     0.366 Goal=   None    Shift=    0.000
 Gap=     0.441 Goal=   None    Shift=    0.000
 RMSDP=1.88D-03 MaxDP=4.89D-02 DE=-4.59D-03 OVMax= 4.05D-02

 Cycle   6  Pass 1  IDiag  1:
 E= -152.153317539295     Delta-E=       -0.001486294198 Rises=F Damp=F
 DIIS: error= 1.83D-03 at cycle   6 NSaved=   6.
 NSaved= 6 IEnMin= 6 EnMin= -152.153317539295     IErMin= 6 ErrMin= 1.83D-03
 ErrMax= 1.83D-03  0.00D+00 EMaxC= 1.00D-01 BMatC= 2.27D-04 BMatP= 8.26D-04
 IDIUse=3 WtCom= 9.82D-01 WtEn= 1.83D-02
 Coeff-Com: -0.469D-01 0.804D-01 0.222D+00-0.160D+00-0.110D+01 0.200D+01
 Coeff-En:   0.000D+00 0.000D+00 0.000D+00 0.000D+00 0.000D+00 0.100D+01
 Coeff:     -0.460D-01 0.789D-01 0.218D+00-0.158D+00-0.108D+01 0.198D+01
 Gap=     0.365 Goal=   None    Shift=    0.000
 Gap=     0.447 Goal=   None    Shift=    0.000
 RMSDP=8.56D-04 MaxDP=1.75D-02 DE=-1.49D-03 OVMax= 2.78D-02

 Cycle   7  Pass 1  IDiag  1:
 E= -152.153741177202     Delta-E=       -0.000423637907 Rises=F Damp=F
 DIIS: error= 6.29D-04 at cycle   7 NSaved=   7.
 NSaved= 7 IEnMin= 7 EnMin= -152.153741177202     IErMin= 7 ErrMin= 6.29D-04
 ErrMax= 6.29D-04  0.00D+00 EMaxC= 1.00D-01 BMatC= 1.77D-05 BMatP= 2.27D-04
 IDIUse=3 WtCom= 9.94D-01 WtEn= 6.29D-03
 Coeff-Com:  0.233D-01-0.416D-01-0.911D-01 0.102D+00 0.327D+00-0.937D+00
 Coeff-Com:  0.162D+01
 Coeff-En:   0.000D+00 0.000D+00 0.000D+00 0.000D+00 0.000D+00 0.000D+00
 Coeff-En:   0.100D+01
 Coeff:      0.231D-01-0.414D-01-0.906D-01 0.102D+00 0.325D+00-0.931D+00
 Coeff:      0.161D+01
 Gap=     0.366 Goal=   None    Shift=    0.000
 Gap=     0.449 Goal=   None    Shift=    0.000
 RMSDP=2.98D-04 MaxDP=7.12D-03 DE=-4.24D-04 OVMax= 1.05D-02

 Cycle   8  Pass 1  IDiag  1:
 E= -152.153777022401     Delta-E=       -0.000035845199 Rises=F Damp=F
 DIIS: error= 1.15D-04 at cycle   8 NSaved=   8.
 NSaved= 8 IEnMin= 8 EnMin= -152.153777022401     IErMin= 8 ErrMin= 1.15D-04
 ErrMax= 1.15D-04  0.00D+00 EMaxC= 1.00D-01 BMatC= 1.33D-06 BMatP= 1.77D-05
 IDIUse=3 WtCom= 9.99D-01 WtEn= 1.15D-03
 Coeff-Com: -0.315D-02 0.536D-02 0.267D-01-0.298D-01-0.349D-01 0.178D+00
 Coeff-Com: -0.560D+00 0.142D+01
 Coeff-En:   0.000D+00 0.000D+00 0.000D+00 0.000D+00 0.000D+00 0.000D+00
 Coeff-En:   0.000D+00 0.100D+01
 Coeff:     -0.315D-02 0.535D-02 0.267D-01-0.298D-01-0.348D-01 0.178D+00
 Coeff:     -0.559D+00 0.142D+01
 Gap=     0.365 Goal=   None    Shift=    0.000
 Gap=     0.449 Goal=   None    Shift=    0.000
 RMSDP=7.31D-05 MaxDP=2.00D-03 DE=-3.58D-05 OVMax= 7.67D-04

 Cycle   9  Pass 1  IDiag  1:
 E= -152.153778083526     Delta-E=       -0.000001061125 Rises=F Damp=F
 DIIS: error= 3.35D-05 at cycle   9 NSaved=   9.
 NSaved= 9 IEnMin= 9 EnMin= -152.153778083526     IErMin= 9 ErrMin= 3.35D-05
 ErrMax= 3.35D-05  0.00D+00 EMaxC= 1.00D-01 BMatC= 7.65D-08 BMatP= 1.33D-06
 IDIUse=1 WtCom= 1.00D+00 WtEn= 0.00D+00
 Coeff-Com: -0.581D-03 0.114D-02-0.143D-02 0.416D-03-0.105D-01 0.211D-01
 Coeff-Com: -0.823D-02-0.211D+00 0.121D+01
 Coeff:     -0.581D-03 0.114D-02-0.143D-02 0.416D-03-0.105D-01 0.211D-01
 Coeff:     -0.823D-02-0.211D+00 0.121D+01
 Gap=     0.366 Goal=   None    Shift=    0.000
 Gap=     0.449 Goal=   None    Shift=    0.000
 RMSDP=2.05D-05 MaxDP=5.09D-04 DE=-1.06D-06 OVMax= 3.80D-04

 Cycle  10  Pass 1  IDiag  1:
 E= -152.153778163776     Delta-E=       -0.000000080251 Rises=F Damp=F
 DIIS: error= 6.83D-06 at cycle  10 NSaved=  10.
 NSaved=10 IEnMin=10 EnMin= -152.153778163776     IErMin=10 ErrMin= 6.83D-06
 ErrMax= 6.83D-06  0.00D+00 EMaxC= 1.00D-01 BMatC= 8.49D-09 BMatP= 7.65D-08
 IDIUse=1 WtCom= 1.00D+00 WtEn= 0.00D+00
 Coeff-Com:  0.188D-03-0.339D-03-0.103D-02 0.135D-02 0.326D-02-0.140D-01
 Coeff-Com:  0.419D-01-0.785D-01-0.310D+00 0.136D+01
 Coeff:      0.188D-03-0.339D-03-0.103D-02 0.135D-02 0.326D-02-0.140D-01
 Coeff:      0.419D-01-0.785D-01-0.310D+00 0.136D+01
 Gap=     0.366 Goal=   None    Shift=    0.000
 Gap=     0.449 Goal=   None    Shift=    0.000
 RMSDP=4.92D-06 MaxDP=1.04D-04 DE=-8.03D-08 OVMax= 5.41D-05

 Cycle  11  Pass 1  IDiag  1:
 E= -152.153778171415     Delta-E=       -0.000000007639 Rises=F Damp=F
 DIIS: error= 2.44D-06 at cycle  11 NSaved=  11.
 NSaved=11 IEnMin=11 EnMin= -152.153778171415     IErMin=11 ErrMin= 2.44D-06
 ErrMax= 2.44D-06  0.00D+00 EMaxC= 1.00D-01 BMatC= 8.13D-10 BMatP= 8.49D-09
 IDIUse=1 WtCom= 1.00D+00 WtEn= 0.00D+00
 Coeff-Com: -0.805D-04 0.133D-03 0.767D-03-0.795D-03-0.129D-02 0.570D-02
 Coeff-Com: -0.183D-01 0.440D-01 0.587D-01-0.588D+00 0.150D+01
 Coeff:     -0.805D-04 0.133D-03 0.767D-03-0.795D-03-0.129D-02 0.570D-02
 Coeff:     -0.183D-01 0.440D-01 0.587D-01-0.588D+00 0.150D+01
 Gap=     0.366 Goal=   None    Shift=    0.000
 Gap=     0.449 Goal=   None    Shift=    0.000
 RMSDP=2.16D-06 MaxDP=5.94D-05 DE=-7.64D-09 OVMax= 2.06D-05

 Cycle  12  Pass 1  IDiag  1:
 E= -152.153778172145     Delta-E=       -0.000000000730 Rises=F Damp=F
 DIIS: error= 8.10D-07 at cycle  12 NSaved=  12.
 NSaved=12 IEnMin=12 EnMin= -152.153778172145     IErMin=12 ErrMin= 8.10D-07
 ErrMax= 8.10D-07  0.00D+00 EMaxC= 1.00D-01 BMatC= 8.57D-11 BMatP= 8.13D-10
 IDIUse=1 WtCom= 1.00D+00 WtEn= 0.00D+00
 Coeff-Com:  0.427D-05-0.361D-05-0.147D-03 0.124D-03-0.592D-04-0.113D-03
 Coeff-Com:  0.115D-02-0.326D-02 0.335D-02 0.631D-01-0.465D+00 0.140D+01
 Coeff:      0.427D-05-0.361D-05-0.147D-03 0.124D-03-0.592D-04-0.113D-03
 Coeff:      0.115D-02-0.326D-02 0.335D-02 0.631D-01-0.465D+00 0.140D+01
 Gap=     0.366 Goal=   None    Shift=    0.000
 Gap=     0.449 Goal=   None    Shift=    0.000
 RMSDP=4.81D-07 MaxDP=1.34D-05 DE=-7.30D-10 OVMax= 6.39D-06

 Cycle  13  Pass 1  IDiag  1:
 E= -152.153778172226     Delta-E=       -0.000000000081 Rises=F Damp=F
 DIIS: error= 2.17D-07 at cycle  13 NSaved=  13.
 NSaved=13 IEnMin=13 EnMin= -152.153778172226     IErMin=13 ErrMin= 2.17D-07
 ErrMax= 2.17D-07  0.00D+00 EMaxC= 1.00D-01 BMatC= 7.60D-12 BMatP= 8.57D-11
 IDIUse=1 WtCom= 1.00D+00 WtEn= 0.00D+00
 Coeff-Com:  0.127D-05-0.280D-05 0.630D-05 0.798D-05 0.611D-04-0.263D-03
 Coeff-Com:  0.928D-03-0.321D-02-0.495D-02 0.383D-01-0.129D-01-0.425D+00
 Coeff-Com:  0.141D+01
 Coeff:      0.127D-05-0.280D-05 0.630D-05 0.798D-05 0.611D-04-0.263D-03
 Coeff:      0.928D-03-0.321D-02-0.495D-02 0.383D-01-0.129D-01-0.425D+00
 Coeff:      0.141D+01
 Gap=     0.366 Goal=   None    Shift=    0.000
 Gap=     0.449 Goal=   None    Shift=    0.000
 RMSDP=1.72D-07 MaxDP=3.94D-06 DE=-8.10D-11 OVMax= 1.71D-06

 Cycle  14  Pass 1  IDiag  1:
 E= -152.153778172232     Delta-E=       -0.000000000006 Rises=F Damp=F
 DIIS: error= 4.14D-08 at cycle  14 NSaved=  14.
 NSaved=14 IEnMin=14 EnMin= -152.153778172232     IErMin=14 ErrMin= 4.14D-08
 ErrMax= 4.14D-08  0.00D+00 EMaxC= 1.00D-01 BMatC= 5.01D-13 BMatP= 7.60D-12
 IDIUse=1 WtCom= 1.00D+00 WtEn= 0.00D+00
 Coeff-Com:  0.744D-06-0.149D-05 0.144D-05-0.359D-05 0.100D-04 0.794D-05
 Coeff-Com: -0.169D-03 0.867D-03 0.405D-03-0.122D-01 0.333D-01 0.144D-01
 Coeff-Com: -0.409D+00 0.137D+01
 Coeff:      0.744D-06-0.149D-05 0.144D-05-0.359D-05 0.100D-04 0.794D-05
 Coeff:     -0.169D-03 0.867D-03 0.405D-03-0.122D-01 0.333D-01 0.144D-01
 Coeff:     -0.409D+00 0.137D+01
 Gap=     0.366 Goal=   None    Shift=    0.000
 Gap=     0.449 Goal=   None    Shift=    0.000
 RMSDP=6.06D-08 MaxDP=1.61D-06 DE=-6.28D-12 OVMax= 3.12D-07

 Cycle  15  Pass 1  IDiag  1:
 E= -152.153778172233     Delta-E=       -0.000000000001 Rises=F Damp=F
 DIIS: error= 1.36D-08 at cycle  15 NSaved=  15.
 NSaved=15 IEnMin=15 EnMin= -152.153778172233     IErMin=15 ErrMin= 1.36D-08
 ErrMax= 1.36D-08  0.00D+00 EMaxC= 1.00D-01 BMatC= 3.90D-14 BMatP= 5.01D-13
 IDIUse=1 WtCom= 1.00D+00 WtEn= 0.00D+00
 Coeff-Com: -0.455D-06 0.875D-06 0.258D-06-0.732D-06-0.794D-05 0.183D-04
 Coeff-Com: -0.933D-05-0.899D-04 0.148D-03 0.196D-02-0.103D-01 0.188D-01
 Coeff-Com:  0.626D-01-0.510D+00 0.144D+01
 Coeff:     -0.455D-06 0.875D-06 0.258D-06-0.732D-06-0.794D-05 0.183D-04
 Coeff:     -0.933D-05-0.899D-04 0.148D-03 0.196D-02-0.103D-01 0.188D-01
 Coeff:      0.626D-01-0.510D+00 0.144D+01
 Gap=     0.366 Goal=   None    Shift=    0.000
 Gap=     0.449 Goal=   None    Shift=    0.000
 RMSDP=2.53D-08 MaxDP=7.70D-07 DE=-5.40D-13 OVMax= 1.01D-07

 Cycle  16  Pass 1  IDiag  1:
 E= -152.153778172233     Delta-E=       -0.000000000000 Rises=F Damp=F
 DIIS: error= 5.96D-09 at cycle  16 NSaved=  16.
 NSaved=16 IEnMin=16 EnMin= -152.153778172233     IErMin=16 ErrMin= 5.96D-09
 ErrMax= 5.96D-09  0.00D+00 EMaxC= 1.00D-01 BMatC= 3.30D-15 BMatP= 3.90D-14
 IDIUse=1 WtCom= 1.00D+00 WtEn= 0.00D+00
 Large coefficients: NSaved= 16 BigCof=    0.00 CofMax=   10.00 Det=-3.08D-15
 Inversion failed.  Reducing to 15 matrices.
 Coeff-Com: -0.245D-07 0.758D-06-0.439D-06 0.928D-06-0.154D-05-0.367D-05
 Coeff-Com:  0.180D-04-0.564D-04-0.379D-03 0.326D-02-0.109D-01 0.848D-03
 Coeff-Com:  0.145D+00-0.686D+00 0.155D+01
 Coeff:     -0.245D-07 0.758D-06-0.439D-06 0.928D-06-0.154D-05-0.367D-05
 Coeff:      0.180D-04-0.564D-04-0.379D-03 0.326D-02-0.109D-01 0.848D-03
 Coeff:      0.145D+00-0.686D+00 0.155D+01
 Gap=     0.366 Goal=   None    Shift=    0.000
 Gap=     0.449 Goal=   None    Shift=    0.000
 RMSDP=3.32D-09 MaxDP=1.02D-07 DE=-1.42D-13 OVMax= 4.13D-08

 SCF Done:  E(UHF) =  -152.153778172     A.U. after   16 cycles
            NFock= 16  Conv=0.33D-08     -V/T= 2.0004
 <Sx>= 0.0000 <Sy>= 0.0000 <Sz>= 1.5000 <S**2>= 4.0059 S= 1.5630
 <L.S>= 0.000000000000E+00
 KE= 1.520855972827D+02 PE=-4.986589508037D+02 EE= 1.189471136463D+02
 Annihilation of the first spin contaminant:
 S**2 before annihilation     4.0059,   after     3.7563
 Leave Link  502 at Tue Oct 10 06:15:27 2017, MaxMem=    33554432 cpu:        30.7
 (Enter /usr/local/gaussian/2009-E.01/g09/l801.exe)
 Windowed orbitals will be sorted by symmetry type.
 ExpMin= 3.60D-02 ExpMax= 4.56D+03 ExpMxC= 6.82D+02 IAcc=3 IRadAn=         5 AccDes= 0.00D+00
 HarFok:  IExCor=  205 AccDes= 0.00D+00 IRadAn=         5 IDoV=-2 UseB2=F ITyADJ=14
 ICtDFT= 12500011 ScaDFX=  1.000000  1.000000  1.000000  1.000000
 Largest valence mixing into a core orbital is  1.22D-04
 Largest core mixing into a valence orbital is  3.41D-05
 Largest valence mixing into a core orbital is  1.64D-04
 Largest core mixing into a valence orbital is  5.18D-05
 Range of M.O.s used for correlation:     5   101
 NBasis=   102 NAE=    14 NBE=    11 NFC=     4 NFV=     0
 NROrb=     97 NOA=    10 NOB=     7 NVA=    87 NVB=    90

 **** Warning!!: The largest alpha MO coefficient is  0.17365524D+03


 **** Warning!!: The largest beta MO coefficient is  0.18273102D+03

 Leave Link  801 at Tue Oct 10 06:15:28 2017, MaxMem=    33554432 cpu:         1.0
 (Enter /usr/local/gaussian/2009-E.01/g09/l804.exe)
 Open-shell transformation, MDV=    33554432 ITran=4 ISComp=2.
 Semi-Direct transformation.
 ModeAB=           4 MOrb=            10 LenV=      33169870
 LASXX=      1113902 LTotXX=     1113902 LenRXX=     2281325
 LTotAB=     1167423 MaxLAS=     2874110 LenRXY=           0
 NonZer=     3395227 LenScr=     5820416 LnRSAI=     2874110
 LnScr1=     5028352 LExtra=           0 Total=     16004203
 MaxDsk=          -1 SrtSym=           T ITran=            4
 DoSDTr:  NPSUse=  8
 JobTyp=1 Pass  1:  I=   1 to  10.
 (rs|ai) integrals will be sorted in core.
 Complete sort for first half transformation.
 First half transformation complete.
 Begin second half transformation for I=  10.
 Complete sort for second half transformation.
 Second half transformation complete.
 ModeAB=           4 MOrb=             7 LenV=      33169870
 LASXX=       804417 LTotXX=      804417 LenRXX=     1477605
 LTotAB=      673188 MaxLAS=     2011877 LenRXY=           0
 NonZer=     2282022 LenScr=     4107264 LnRSAI=     2011877
 LnScr1=     3770880 LExtra=           0 Total=     11367626
 MaxDsk=          -1 SrtSym=           T ITran=            4
 DoSDTr:  NPSUse=  8
 JobTyp=2 Pass  1:  I=   1 to   7.
 (rs|ai) integrals will be sorted in core.
 Complete sort for first half transformation.
 First half transformation complete.
 Complete sort for second half transformation.
 Second half transformation complete.
 Spin components of T(2) and E(2):
     alpha-alpha T2 =       0.2723687442D-01 E2=     -0.7250829082D-01
     alpha-beta  T2 =       0.1132016689D+00 E2=     -0.3048469078D+00
     beta-beta   T2 =       0.1861364373D-01 E2=     -0.4169786000D-01
 ANorm=    0.1076592860D+01
 E2 =    -0.4190530586D+00 EUMP2 =    -0.15257283123085D+03
 (S**2,0)=  0.40059D+01           (S**2,1)=  0.39370D+01
 E(PUHF)=      -0.15216382896D+03        E(PMP2)=      -0.15258155224D+03
 Leave Link  804 at Tue Oct 10 06:15:29 2017, MaxMem=    33554432 cpu:        10.2
 (Enter /usr/local/gaussian/2009-E.01/g09/l913.exe)
 CIDS:  MDV=    33554432.
 Frozen-core window:  NFC=   4 NFV=   0.
 IFCWin=0 IBDFC=1 NFBD=     0     0 NFCmp=     0     0 NFFFC=     0     0
 Using original routines for 1st iteration, S=T.
 Using DD4UQ or CC4UQ for 2nd and later iterations.
 Keep R2 and R3 ints in memory in symmetry-blocked form, NReq=17477796.
 FoFCou: FMM=F IPFlag=           0 FMFlag=           0 FMFlg1=           0
         NFxFlg=           0 DoJE=F BraDBF=F KetDBF=F FulRan=T
         wScrn=  0.000000 ICntrl=     600 IOpCl=  0 I1Cent=           0 NGrid=           0
         NMat0=    1 NMatS0=   5253 NMatT0=    0 NMatD0=    1 NMtDS0=    0 NMtDT0=    0
 Petite list used in FoFCou.
 CCSD(T)
 =======
 Iterations= 200 Convergence= 0.100D-06
 Iteration Nr.   1
 **********************
 DD1Dir will call FoFMem   1 times, MxPair=       206
 NAB=    70 NAA=    45 NBB=    21.
 E(PMP3)=      -0.15260774201D+03
 MP4(R+Q)=  0.11642194D-01
 Maximum subspace dimension=  5
 Norm of the A-vectors is  6.6025978D-01 conv= 1.00D-05.
 RLE energy=       -0.4364490723
 E3=       -0.28301464D-01        EUMP3=      -0.15260113269D+03
 E4(DQ)=   -0.57621340D-03        UMP4(DQ)=   -0.15260170891D+03
 E4(SDQ)=  -0.90283467D-02        UMP4(SDQ)=  -0.15261016104D+03
 VARIATIONAL ENERGIES WITH THE FIRST-ORDER WAVEFUNCTION:
 DE(Corr)= -0.43575571     E(Corr)=     -152.58953388    
 NORM(A)=   0.10879479D+01
 Iteration Nr.   2
 **********************
 DD1Dir will call FoFMem   1 times, MxPair=       206
 NAB=    70 NAA=    45 NBB=    21.
 Norm of the A-vectors is  3.1058028D-01 conv= 1.00D-05.
 RLE energy=       -0.4570144247
 DE(Corr)= -0.45299063     E(CORR)=     -152.60676880     Delta=-1.72D-02
 NORM(A)=   0.11027652D+01
 Iteration Nr.   3
 **********************
 DD1Dir will call FoFMem   1 times, MxPair=       206
 NAB=    70 NAA=    45 NBB=    21.
 Norm of the A-vectors is  1.0772483D-01 conv= 1.00D-05.
 RLE energy=       -0.4604404581
 DE(Corr)= -0.45639390     E(CORR)=     -152.61017208     Delta=-3.40D-03
 NORM(A)=   0.11145284D+01
 Iteration Nr.   4
 **********************
 DD1Dir will call FoFMem   1 times, MxPair=       206
 NAB=    70 NAA=    45 NBB=    21.
 Norm of the A-vectors is  7.2813600D-02 conv= 1.00D-05.
 RLE energy=       -0.4620240576
 DE(Corr)= -0.46073248     E(CORR)=     -152.61451065     Delta=-4.34D-03
 NORM(A)=   0.11219324D+01
 Iteration Nr.   5
 **********************
 DD1Dir will call FoFMem   1 times, MxPair=       206
 NAB=    70 NAA=    45 NBB=    21.
 Norm of the A-vectors is  3.1296068D-02 conv= 1.00D-05.
 RLE energy=       -0.4624548963
 DE(Corr)= -0.46207399     E(CORR)=     -152.61585216     Delta=-1.34D-03
 NORM(A)=   0.11244622D+01
 Iteration Nr.   6
 **********************
 DD1Dir will call FoFMem   1 times, MxPair=       206
 NAB=    70 NAA=    45 NBB=    21.
 Norm of the A-vectors is  1.2690718D-02 conv= 1.00D-05.
 RLE energy=       -0.4622522580
 DE(Corr)= -0.46234707     E(CORR)=     -152.61612524     Delta=-2.73D-04
 NORM(A)=   0.11246622D+01
 Iteration Nr.   7
 **********************
 DD1Dir will call FoFMem   1 times, MxPair=       206
 NAB=    70 NAA=    45 NBB=    21.
 Norm of the A-vectors is  5.4733861D-03 conv= 1.00D-05.
 RLE energy=       -0.4623811026
 DE(Corr)= -0.46236141     E(CORR)=     -152.61613958     Delta=-1.43D-05
 NORM(A)=   0.11247718D+01
 Iteration Nr.   8
 **********************
 DD1Dir will call FoFMem   1 times, MxPair=       206
 NAB=    70 NAA=    45 NBB=    21.
 Norm of the A-vectors is  2.0564540D-03 conv= 1.00D-05.
 RLE energy=       -0.4623456327
 DE(Corr)= -0.46235324     E(CORR)=     -152.61613141     Delta= 8.17D-06
 NORM(A)=   0.11247641D+01
 Iteration Nr.   9
 **********************
 DD1Dir will call FoFMem   1 times, MxPair=       206
 NAB=    70 NAA=    45 NBB=    21.
 Norm of the A-vectors is  1.0126544D-03 conv= 1.00D-05.
 RLE energy=       -0.4623635452
 DE(Corr)= -0.46236249     E(CORR)=     -152.61614066     Delta=-9.25D-06
 NORM(A)=   0.11247615D+01
 Iteration Nr.  10
 **********************
 DD1Dir will call FoFMem   1 times, MxPair=       206
 NAB=    70 NAA=    45 NBB=    21.
 Norm of the A-vectors is  4.6209428D-04 conv= 1.00D-05.
 RLE energy=       -0.4623618269
 DE(Corr)= -0.46236021     E(CORR)=     -152.61613838     Delta= 2.28D-06
 NORM(A)=   0.11247644D+01
 Iteration Nr.  11
 **********************
 DD1Dir will call FoFMem   1 times, MxPair=       206
 NAB=    70 NAA=    45 NBB=    21.
 Norm of the A-vectors is  2.4992036D-04 conv= 1.00D-05.
 RLE energy=       -0.4623635178
 DE(Corr)= -0.46236293     E(CORR)=     -152.61614110     Delta=-2.72D-06
 NORM(A)=   0.11247683D+01
 Iteration Nr.  12
 **********************
 DD1Dir will call FoFMem   1 times, MxPair=       206
 NAB=    70 NAA=    45 NBB=    21.
 Norm of the A-vectors is  1.1420938D-04 conv= 1.00D-05.
 RLE energy=       -0.4623646255
 DE(Corr)= -0.46236360     E(CORR)=     -152.61614177     Delta=-6.68D-07
 NORM(A)=   0.11247744D+01
 Iteration Nr.  13
 **********************
 DD1Dir will call FoFMem   1 times, MxPair=       206
 NAB=    70 NAA=    45 NBB=    21.
 Norm of the A-vectors is  6.3674396D-05 conv= 1.00D-05.
 RLE energy=       -0.4623653394
 DE(Corr)= -0.46236477     E(CORR)=     -152.61614295     Delta=-1.18D-06
 NORM(A)=   0.11247788D+01
 Iteration Nr.  14
 **********************
 DD1Dir will call FoFMem   1 times, MxPair=       206
 NAB=    70 NAA=    45 NBB=    21.
 Norm of the A-vectors is  3.8014061D-05 conv= 1.00D-05.
 RLE energy=       -0.4623660082
 DE(Corr)= -0.46236553     E(CORR)=     -152.61614370     Delta=-7.55D-07
 NORM(A)=   0.11247818D+01
 Iteration Nr.  15
 **********************
 DD1Dir will call FoFMem   1 times, MxPair=       206
 NAB=    70 NAA=    45 NBB=    21.
 Norm of the A-vectors is  2.1273165D-05 conv= 1.00D-05.
 RLE energy=       -0.4623661424
 DE(Corr)= -0.46236596     E(CORR)=     -152.61614413     Delta=-4.27D-07
 NORM(A)=   0.11247832D+01
 Iteration Nr.  16
 **********************
 DD1Dir will call FoFMem   1 times, MxPair=       206
 NAB=    70 NAA=    45 NBB=    21.
 Norm of the A-vectors is  1.1479998D-05 conv= 1.00D-05.
 RLE energy=       -0.4623662473
 DE(Corr)= -0.46236621     E(CORR)=     -152.61614438     Delta=-2.54D-07
 NORM(A)=   0.11247834D+01
 Iteration Nr.  17
 **********************
 DD1Dir will call FoFMem   1 times, MxPair=       206
 NAB=    70 NAA=    45 NBB=    21.
 Norm of the A-vectors is  5.5835367D-06 conv= 1.00D-05.
 RLE energy=       -0.4623662113
 DE(Corr)= -0.46236621     E(CORR)=     -152.61614438     Delta= 2.23D-09
 NORM(A)=   0.11247835D+01
 CI/CC converged in   17 iterations to DelEn= 2.23D-09 Conv= 1.00D-07 ErrA1= 5.58D-06 Conv= 1.00D-05
 Dominant configurations:
 ***********************
 Spin Case        I    J    A    B          Value
    AA           11        15           -0.130395D+00
 Largest amplitude= 1.30D-01
 Time for triples=      281.15 seconds.
 T4(CCSD)= -0.26104109D-01
 T5(CCSD)=  0.19475389D-02
 CCSD(T)= -0.15264030095D+03

 S**2, projected HF & approx projected MPn energies after annihilation of
 unwanted spin states (see manual for definitions):

 spins       (S**2,0) (S**2,1)    PUHF        PMP2        PMP3        PMP4
 annihilated
 s+1         3.74560  3.74996 -152.163829 -152.581552 -152.607741
 s+1,s+2     3.75002  3.74998 -152.163479 -152.581250 -152.607496
 s+1 to s+3  3.75000  3.75000 -152.163481 -152.581252 -152.607497
 s+1 to s+4  3.75000  3.75000 -152.163481 -152.581252 -152.607497
 s+1 to s+5  3.75000  3.75000 -152.163481
 s+1 to s+6  3.75000  3.75000 -152.163481

 Discarding MO integrals.
 Leave Link  913 at Tue Oct 10 06:17:09 2017, MaxMem=    33554432 cpu:       732.3
 (Enter /usr/local/gaussian/2009-E.01/g09/l601.exe)
 Copying SCF densities to generalized density rwf, IOpCl= 1 IROHF=0.

 **********************************************************************

            Population analysis using the SCF density.

 **********************************************************************

 Orbital symmetries:
 Alpha Orbitals:
       Occupied  (A1) (B2) (A1) (B2) (A1) (B2) (A1) (B2) (A1) (A1)
                 (B1) (B2) (A2) (A1)
       Virtual   (B1) (A1) (B2) (B2) (A1) (B1) (A1) (A2) (B2) (B2)
                 (A1) (A1) (B1) (B2) (A2) (A1) (B2) (A2) (A1) (B2)
                 (B2) (A1) (B2) (A1) (B2) (A1) (B1) (A1) (A1) (A2)
                 (B2) (B2) (B1) (A1) (A2) (B2) (A1) (B2) (B2) (A1)
                 (A1) (B1) (B1) (A1) (A2) (B2) (A1) (B2) (B1) (B2)
                 (A1) (A2) (B2) (A2) (B2) (B1) (A1) (B2) (A1) (A2)
                 (A1) (B1) (B2) (B2) (A1) (A2) (A1) (B2) (A1) (B1)
                 (B2) (A1) (A2) (B1) (B2) (A1) (B2) (A2) (B2) (A1)
                 (B2) (A1) (B2) (A1) (B2) (A1) (B2)
 Beta  Orbitals:
       Occupied  (A1) (B2) (A1) (B2) (A1) (B2) (A1) (B2) (A1) (B1)
                 (A1)
       Virtual   (A2) (B2) (A1) (B1) (A1) (B2) (A1) (B2) (A2) (B1)
                 (A1) (B2) (A1) (A1) (B1) (B2) (B2) (A1) (A2) (B2)
                 (A1) (A2) (B2) (B2) (A1) (B2) (A1) (B2) (A1) (A1)
                 (B1) (A1) (B2) (A2) (B1) (B2) (A1) (A2) (B2) (B2)
                 (A1) (B2) (A1) (A1) (B1) (A1) (B1) (B2) (A2) (A1)
                 (B2) (B2) (B1) (A1) (A2) (B2) (B2) (A2) (B1) (A1)
                 (B2) (A2) (A1) (A1) (B1) (B2) (B2) (A1) (A1) (A2)
                 (B2) (A1) (B1) (B2) (A1) (A2) (B1) (B2) (A1) (B2)
                 (A2) (B2) (A1) (B2) (A1) (B2) (A1) (B2) (A1) (B2)
 The electronic state is 4-B1.
 Alpha  occ. eigenvalues --  -11.57339 -11.57339 -11.55096 -11.54833  -1.38500
 Alpha  occ. eigenvalues --   -1.32133  -1.17509  -0.96864  -0.94351  -0.82471
 Alpha  occ. eigenvalues --   -0.75995  -0.75820  -0.67164  -0.57314
 Alpha virt. eigenvalues --   -0.20759  -0.09137  -0.07362  -0.04917  -0.04168
 Alpha virt. eigenvalues --   -0.03875  -0.03727  -0.01911  -0.01011   0.01994
 Alpha virt. eigenvalues --    0.02528   0.04597   0.04597   0.04796   0.07044
 Alpha virt. eigenvalues --    0.07491   0.10395   0.11766   0.12538   0.14507
 Alpha virt. eigenvalues --    0.14944   0.19279   0.22077   0.35015   0.40183
 Alpha virt. eigenvalues --    0.43556   0.45226   0.45936   0.47303   0.49482
 Alpha virt. eigenvalues --    0.49716   0.53842   0.56933   0.58099   0.67239
 Alpha virt. eigenvalues --    0.70446   0.72349   0.72800   0.77940   0.85853
 Alpha virt. eigenvalues --    0.93513   0.99081   1.04355   1.04449   1.09469
 Alpha virt. eigenvalues --    1.12046   1.18630   1.19550   1.28352   1.28508
 Alpha virt. eigenvalues --    1.35665   1.38553   1.51838   1.58618   1.58845
 Alpha virt. eigenvalues --    1.68165   1.72931   1.80956   1.91694   1.91726
 Alpha virt. eigenvalues --    2.08734   2.11879   2.22999   2.40658   2.57774
 Alpha virt. eigenvalues --    2.60843   2.63579   2.70396   2.73153   2.78318
 Alpha virt. eigenvalues --    2.92924   2.96408   3.00033   3.00594   3.03349
 Alpha virt. eigenvalues --    3.03628   3.08098   3.13990   3.19404   3.56981
 Alpha virt. eigenvalues --    3.61609   3.71079   4.23481  24.19984  24.65043
 Alpha virt. eigenvalues --   25.01856  26.02755
  Beta  occ. eigenvalues --  -11.55339 -11.55045 -11.53300 -11.53299  -1.34847
  Beta  occ. eigenvalues --   -1.19328  -1.09880  -0.92622  -0.91126  -0.71514
  Beta  occ. eigenvalues --   -0.68884
  Beta virt. eigenvalues --   -0.24008  -0.22662  -0.10335  -0.09393  -0.08669
  Beta virt. eigenvalues --   -0.06760  -0.03685  -0.01920  -0.01248  -0.01117
  Beta virt. eigenvalues --   -0.01094   0.00711   0.03208   0.05255   0.05276
  Beta virt. eigenvalues --    0.05544   0.08380   0.08485   0.10152   0.10924
  Beta virt. eigenvalues --    0.14077   0.14610   0.15377   0.18796   0.21009
  Beta virt. eigenvalues --    0.25280   0.37990   0.42442   0.45125   0.47807
  Beta virt. eigenvalues --    0.48128   0.51151   0.53597   0.57137   0.60090
  Beta virt. eigenvalues --    0.60166   0.64227   0.67233   0.73586   0.74444
  Beta virt. eigenvalues --    0.76131   0.81179   0.88033   0.95808   1.02777
  Beta virt. eigenvalues --    1.08156   1.08375   1.14946   1.18552   1.23845
  Beta virt. eigenvalues --    1.26603   1.31920   1.34442   1.41831   1.43754
  Beta virt. eigenvalues --    1.57927   1.60219   1.61989   1.71617   1.76510
  Beta virt. eigenvalues --    1.84064   1.94691   1.95487   2.11889   2.15134
  Beta virt. eigenvalues --    2.26145   2.43888   2.59003   2.64040   2.64684
  Beta virt. eigenvalues --    2.70950   2.76008   2.81612   2.94124   3.01086
  Beta virt. eigenvalues --    3.03284   3.03368   3.06711   3.08196   3.13558
  Beta virt. eigenvalues --    3.14789   3.21188   3.57204   3.63231   3.73617
  Beta virt. eigenvalues --    4.25151  24.20965  24.67522  25.03636  26.03016
          Condensed to atoms (all electrons):
               1          2          3          4          5          6
     1  C   11.260878  -4.911058  -1.887847   1.680889   0.476248   0.013066
     2  C   -4.911058   9.816058   2.201449  -1.887847  -0.111677   0.003517
     3  C   -1.887847   2.201449   9.816058  -4.911058   0.003517  -0.111677
     4  C    1.680889  -1.887847  -4.911058  11.260878   0.013066   0.476248
     5  H    0.476248  -0.111677   0.003517   0.013066   0.375798   0.000430
     6  H    0.013066   0.003517  -0.111677   0.476248   0.000430   0.375798
          Atomic-Atomic Spin Densities.
               1          2          3          4          5          6
     1  C    2.525714  -1.097588  -0.269644   0.451983   0.020534   0.007137
     2  C   -1.097588   1.036058   0.308359  -0.269644  -0.045016  -0.005553
     3  C   -0.269644   0.308359   1.036058  -1.097588  -0.005553  -0.045016
     4  C    0.451983  -0.269644  -1.097588   2.525714   0.007137   0.020534
     5  H    0.020534  -0.045016  -0.005553   0.007137  -0.042068   0.000212
     6  H    0.007137  -0.005553  -0.045016   0.020534   0.000212  -0.042068
 Mulliken charges and spin densities:
               1          2
     1  C   -0.632175   1.638136
     2  C    0.889558  -0.073383
     3  C    0.889558  -0.073383
     4  C   -0.632175   1.638136
     5  H    0.242617  -0.064753
     6  H    0.242617  -0.064753
 Sum of Mulliken charges =   1.00000   3.00000
 Mulliken charges and spin densities with hydrogens summed into heavy atoms:
               1          2
     1  C   -0.389558   1.573383
     2  C    0.889558  -0.073383
     3  C    0.889558  -0.073383
     4  C   -0.389558   1.573383
 Electronic spatial extent (au):  <R**2>=            268.5077
 Charge=              1.0000 electrons
 Dipole moment (field-independent basis, Debye):
    X=             -0.0000    Y=             -0.0000    Z=              1.0407  Tot=              1.0407
 Quadrupole moment (field-independent basis, Debye-Ang):
   XX=            -21.0172   YY=              3.3783   ZZ=            -21.3534
   XY=              0.0000   XZ=             -0.0000   YZ=              0.0000
 Traceless Quadrupole moment (field-independent basis, Debye-Ang):
   XX=             -8.0198   YY=             16.3758   ZZ=             -8.3560
   XY=              0.0000   XZ=             -0.0000   YZ=              0.0000
 Octapole moment (field-independent basis, Debye-Ang**2):
  XXX=              0.0000  YYY=              0.0000  ZZZ=              1.7324  XYY=             -0.0000
  XXY=             -0.0000  XXZ=              0.3017  XZZ=              0.0000  YZZ=             -0.0000
  YYZ=             11.6925  XYZ=              0.0000
 Hexadecapole moment (field-independent basis, Debye-Ang**3):
 XXXX=            -21.3322 YYYY=           -147.2410 ZZZZ=            -25.1322 XXXY=             -0.0000
 XXXZ=              0.0000 YYYX=              0.0000 YYYZ=             -0.0000 ZZZX=             -0.0000
 ZZZY=             -0.0000 XXYY=            -56.9268 XXZZ=             -7.8135 YYZZ=            -52.4687
 XXYZ=              0.0000 YYXZ=             -0.0000 ZZXY=             -0.0000
 N-N= 7.547246170248D+01 E-N=-4.986589507880D+02  KE= 1.520855972827D+02
 Symmetry A1   KE= 7.732609630174D+01
 Symmetry A2   KE= 1.175185486293D+00
 Symmetry B1   KE= 2.152934247225D+00
 Symmetry B2   KE= 7.143138124745D+01
 Leave Link  601 at Tue Oct 10 06:17:09 2017, MaxMem=    33554432 cpu:         1.7
 (Enter /usr/local/gaussian/2009-E.01/g09/l9999.exe)
 1\1\ WCSS.PL-BEM-WN1424\SP\UCCSD(T)-FC\6-311++G(d,p)\C4H2(1+,4)\ROOT\1
 0-Oct-2017\0\\#p ccsd(t,maxcyc=200)/6-311++G(d,p)\\ccsd(t) iener\\1,4\
 C,0,-1.950633601,-0.08182652,0.000673185\C,0,-0.62494252,-0.005449879,
 -0.000084548\C,0,0.624973411,-0.006525109,-0.000200131\C,0,1.950531242
 ,-0.085182466,0.000312433\H,0,-2.831676094,0.550693193,-0.004421733\H,
 0,2.832659713,0.545820493,-0.004945532\\Version=ES64L-G09RevE.01\State
 =4-B1\HF=-152.1537782\MP2=-152.5728312\MP3=-152.6011327\MP4D=-152.6133
 511\MP4DQ=-152.6017089\PUHF=-152.163829\PMP2-0=-152.5815522\PMP3-0=-15
 2.607742\MP4SDQ=-152.610161\CCSD=-152.6161444\CCSD(T)=-152.640301\S2=4
 .005936\S2-1=3.937038\S2A=3.756269\RMSD=3.322e-09\PG=C02V [SGV(C4H2)]\
 \@


 MYSTERY IS THE WISDOM OF BLOCKHEADS... HORACE WALPOLE 
 Job cpu time:       0 days  0 hours 13 minutes  8.7 seconds.
 File lengths (MBytes):  RWF=    135 Int=      0 D2E=      0 Chk=      2 Scr=      1
 Normal termination of Gaussian 09 at Tue Oct 10 06:17:10 2017.
