 Entering Gaussian System, Link 0=/usr/local/gaussian/2009-E.01/g09/g09
 Initial command:
 /usr/local/gaussian/2009-E.01/g09/l1.exe "/lustre/scratch/eerd/4986703.achilles/Gau-1310.inp" -scrdir="/lustre/scratch/eerd/4986703.achilles/"
 Entering Link 1 = /usr/local/gaussian/2009-E.01/g09/l1.exe PID=      1312.
  
 Copyright (c) 1988,1990,1992,1993,1995,1998,2003,2009,2015,
            Gaussian, Inc.  All Rights Reserved.
  
 This is part of the Gaussian(R) 09 program.  It is based on
 the Gaussian(R) 03 system (copyright 2003, Gaussian, Inc.),
 the Gaussian(R) 98 system (copyright 1998, Gaussian, Inc.),
 the Gaussian(R) 94 system (copyright 1995, Gaussian, Inc.),
 the Gaussian 92(TM) system (copyright 1992, Gaussian, Inc.),
 the Gaussian 90(TM) system (copyright 1990, Gaussian, Inc.),
 the Gaussian 88(TM) system (copyright 1988, Gaussian, Inc.),
 the Gaussian 86(TM) system (copyright 1986, Carnegie Mellon
 University), and the Gaussian 82(TM) system (copyright 1983,
 Carnegie Mellon University). Gaussian is a federally registered
 trademark of Gaussian, Inc.
  
 This software contains proprietary and confidential information,
 including trade secrets, belonging to Gaussian, Inc.
  
 This software is provided under written license and may be
 used, copied, transmitted, or stored only in accord with that
 written license.
  
 The following legend is applicable only to US Government
 contracts under FAR:
  
                    RESTRICTED RIGHTS LEGEND
  
 Use, reproduction and disclosure by the US Government is
 subject to restrictions as set forth in subparagraphs (a)
 and (c) of the Commercial Computer Software - Restricted
 Rights clause in FAR 52.227-19.
  
 Gaussian, Inc.
 340 Quinnipiac St., Bldg. 40, Wallingford CT 06492
  
  
 ---------------------------------------------------------------
 Warning -- This program may not be used in any manner that
 competes with the business of Gaussian, Inc. or will provide
 assistance to any competitor of Gaussian, Inc.  The licensee
 of this program is prohibited from giving any competitor of
 Gaussian, Inc. access to this program.  By using this program,
 the user acknowledges that Gaussian, Inc. is engaged in the
 business of creating and licensing software in the field of
 computational chemistry and represents and warrants to the
 licensee that it is not a competitor of Gaussian, Inc. and that
 it will not use this program in any manner prohibited above.
 ---------------------------------------------------------------
  

 Cite this work as:
 Gaussian 09, Revision E.01,
 M. J. Frisch, G. W. Trucks, H. B. Schlegel, G. E. Scuseria, 
 M. A. Robb, J. R. Cheeseman, G. Scalmani, V. Barone, B. Mennucci, 
 G. A. Petersson, H. Nakatsuji, M. Caricato, X. Li, H. P. Hratchian, 
 A. F. Izmaylov, J. Bloino, G. Zheng, J. L. Sonnenberg, M. Hada, 
 M. Ehara, K. Toyota, R. Fukuda, J. Hasegawa, M. Ishida, T. Nakajima, 
 Y. Honda, O. Kitao, H. Nakai, T. Vreven, J. A. Montgomery, Jr., 
 J. E. Peralta, F. Ogliaro, M. Bearpark, J. J. Heyd, E. Brothers, 
 K. N. Kudin, V. N. Staroverov, T. Keith, R. Kobayashi, J. Normand, 
 K. Raghavachari, A. Rendell, J. C. Burant, S. S. Iyengar, J. Tomasi, 
 M. Cossi, N. Rega, J. M. Millam, M. Klene, J. E. Knox, J. B. Cross, 
 V. Bakken, C. Adamo, J. Jaramillo, R. Gomperts, R. E. Stratmann, 
 O. Yazyev, A. J. Austin, R. Cammi, C. Pomelli, J. W. Ochterski, 
 R. L. Martin, K. Morokuma, V. G. Zakrzewski, G. A. Voth, 
 P. Salvador, J. J. Dannenberg, S. Dapprich, A. D. Daniels, 
 O. Farkas, J. B. Foresman, J. V. Ortiz, J. Cioslowski, 
 and D. J. Fox, Gaussian, Inc., Wallingford CT, 2013.
 
 ******************************************
 Gaussian 09:  ES64L-G09RevE.01 30-Nov-2015
                10-Oct-2017 
 ******************************************
 %NProcShared=8
 Will use up to    8 processors via shared memory.
 -----------------------------------
 #p ccsd(t,maxcyc=200)/6-311++G(d,p)
 -----------------------------------
 1/38=1/1;
 2/12=2,17=6,18=5,40=1/2;
 3/5=4,6=6,7=1111,11=9,16=1,25=1,30=1/1,2,3;
 4//1;
 5/5=2,38=5/2;
 8/6=4,9=120000,10=2/1,4;
 9/5=7,6=200,14=2/13;
 6/7=2,8=2,9=2,10=2/1;
 99/5=1,9=1/99;
 Leave Link    1 at Tue Oct 10 06:38:26 2017, MaxMem=           0 cpu:         0.8
 (Enter /usr/local/gaussian/2009-E.01/g09/l101.exe)
 -------------
 ccsd(t) iener
 -------------
 Symbolic Z-matrix:
 Charge =  1 Multiplicity = 4
 C                     0.26529   0.62951  -0.32429 
 H                     0.83079   0.31489  -1.23259 
 H                    -0.19736   1.64218  -0.38943 
 O                    -0.76836  -0.33862  -0.06072 
 
 NAtoms=      4 NQM=        4 NQMF=       0 NMMI=      0 NMMIF=      0
                NMic=       0 NMicF=      0.
                    Isotopes and Nuclear Properties:
 (Nuclear quadrupole moments (NQMom) in fm**2, nuclear magnetic moments (NMagM)
  in nuclear magnetons)

  Atom         1           2           3           4
 IAtWgt=          12           1           1          16
 AtmWgt=  12.0000000   1.0078250   1.0078250  15.9949146
 NucSpn=           0           1           1           0
 AtZEff=   0.0000000   0.0000000   0.0000000   0.0000000
 NQMom=    0.0000000   0.0000000   0.0000000   0.0000000
 NMagM=    0.0000000   2.7928460   2.7928460   0.0000000
 AtZNuc=   6.0000000   1.0000000   1.0000000   8.0000000
 Leave Link  101 at Tue Oct 10 06:38:26 2017, MaxMem=    33554432 cpu:         0.4
 (Enter /usr/local/gaussian/2009-E.01/g09/l202.exe)
                          Input orientation:                          
 ---------------------------------------------------------------------
 Center     Atomic      Atomic             Coordinates (Angstroms)
 Number     Number       Type             X           Y           Z
 ---------------------------------------------------------------------
      1          6           0        0.265292    0.629509   -0.324288
      2          1           0        0.830794    0.314888   -1.232591
      3          1           0       -0.197365    1.642178   -0.389429
      4          8           0       -0.768360   -0.338624   -0.060715
 ---------------------------------------------------------------------
                    Distance matrix (angstroms):
                    1          2          3          4
     1  C    0.000000
     2  H    1.115255   0.000000
     3  H    1.115255   1.878758   0.000000
     4  O    1.440552   2.087503   2.087503   0.000000
 Stoichiometry    CH2O(1+,4)
 Framework group  CS[SG(CO),X(H2)]
 Deg. of freedom     4
 Full point group                 CS      NOp   2
 Largest Abelian subgroup         CS      NOp   2
 Largest concise Abelian subgroup CS      NOp   2
                         Standard orientation:                         
 ---------------------------------------------------------------------
 Center     Atomic      Atomic             Coordinates (Angstroms)
 Number     Number       Type             X           Y           Z
 ---------------------------------------------------------------------
      1          6           0       -0.060129    0.675211    0.000000
      2          1           0        0.420901    1.035728    0.939379
      3          1           0        0.420901    1.035728   -0.939379
      4          8           0       -0.060129   -0.765340   -0.000000
 ---------------------------------------------------------------------
 Rotational constants (GHZ):    235.6868957     29.2177414     27.0110818
 Leave Link  202 at Tue Oct 10 06:38:26 2017, MaxMem=    33554432 cpu:         0.1
 (Enter /usr/local/gaussian/2009-E.01/g09/l301.exe)
 Standard basis: 6-311++G(d,p) (5D, 7F)
 Ernie: Thresh=  0.10000D-02 Tol=  0.10000D-05 Strict=F.
 There are    41 symmetry adapted cartesian basis functions of A'  symmetry.
 There are    19 symmetry adapted cartesian basis functions of A"  symmetry.
 There are    39 symmetry adapted basis functions of A'  symmetry.
 There are    19 symmetry adapted basis functions of A"  symmetry.
    58 basis functions,    90 primitive gaussians,    60 cartesian basis functions
     9 alpha electrons        6 beta electrons
       nuclear repulsion energy        27.6639865599 Hartrees.
 IExCor=    0 DFT=F Ex=HF Corr=None ExCW=0 ScaHFX=  1.000000
 ScaDFX=  1.000000  1.000000  1.000000  1.000000 ScalE2=  1.000000  1.000000
 IRadAn=      0 IRanWt=     -1 IRanGd=            0 ICorTp=0 IEmpDi=  4
 NAtoms=    4 NActive=    4 NUniq=    3 SFac= 1.78D+00 NAtFMM=   60 NAOKFM=F Big=F
 Integral buffers will be    131072 words long.
 Raffenetti 2 integral format.
 Two-electron integral symmetry is turned on.
 Leave Link  301 at Tue Oct 10 06:38:26 2017, MaxMem=    33554432 cpu:         0.4
 (Enter /usr/local/gaussian/2009-E.01/g09/l302.exe)
 NPDir=0 NMtPBC=     1 NCelOv=     1 NCel=       1 NClECP=     1 NCelD=      1
         NCelK=      1 NCelE2=     1 NClLst=     1 CellRange=     0.0.
 One-electron integrals computed using PRISM.
 One-electron integral symmetry used in STVInt
 NBasis=    58 RedAO= T EigKep=  3.22D-03  NBF=    39    19
 NBsUse=    58 1.00D-06 EigRej= -1.00D+00 NBFU=    39    19
 Leave Link  302 at Tue Oct 10 06:38:26 2017, MaxMem=    33554432 cpu:         1.0
 (Enter /usr/local/gaussian/2009-E.01/g09/l303.exe)
 DipDrv:  MaxL=1.
 Leave Link  303 at Tue Oct 10 06:38:26 2017, MaxMem=    33554432 cpu:         0.1
 (Enter /usr/local/gaussian/2009-E.01/g09/l401.exe)
 ExpMin= 3.60D-02 ExpMax= 8.59D+03 ExpMxC= 1.30D+03 IAcc=3 IRadAn=         5 AccDes= 0.00D+00
 Harris functional with IExCor=  205 and IRadAn=       5 diagonalized for initial guess.
 HarFok:  IExCor=  205 AccDes= 0.00D+00 IRadAn=         5 IDoV= 1 UseB2=F ITyADJ=14
 ICtDFT=  3500011 ScaDFX=  1.000000  1.000000  1.000000  1.000000
 FoFCou: FMM=F IPFlag=           0 FMFlag=      100000 FMFlg1=           0
         NFxFlg=           0 DoJE=T BraDBF=F KetDBF=T FulRan=T
         wScrn=  0.000000 ICntrl=     500 IOpCl=  0 I1Cent=   200000004 NGrid=           0
         NMat0=    1 NMatS0=      1 NMatT0=    0 NMatD0=    1 NMtDS0=    0 NMtDT0=    0
 Petite list used in FoFCou.
 Harris En= -113.383808649385    
 JPrj=0 DoOrth=F DoCkMO=F.
 Initial guess orbital symmetries:
 Alpha Orbitals:
       Occupied  (A') (A') (A') (A') (A") (A') (A') (A") (A')
       Virtual   (A') (A') (A") (A') (A") (A') (A') (A') (A") (A')
                 (A') (A") (A') (A") (A') (A') (A') (A") (A') (A")
                 (A') (A') (A") (A') (A') (A") (A') (A") (A') (A')
                 (A") (A') (A") (A') (A") (A') (A') (A") (A') (A')
                 (A") (A') (A") (A') (A') (A") (A') (A') (A')
 Beta  Orbitals:
       Occupied  (A') (A') (A') (A') (A") (A')
       Virtual   (A') (A") (A') (A') (A') (A") (A') (A") (A') (A')
                 (A') (A") (A') (A') (A") (A') (A") (A') (A') (A')
                 (A") (A') (A") (A') (A') (A") (A') (A') (A") (A')
                 (A") (A') (A') (A") (A') (A") (A') (A") (A') (A')
                 (A") (A') (A') (A") (A') (A") (A') (A') (A") (A')
                 (A') (A')
 The electronic state of the initial guess is 4-A".
 Initial guess <Sx>= 0.0000 <Sy>= 0.0000 <Sz>= 1.5000 <S**2>= 3.7500 S= 1.5000
 Leave Link  401 at Tue Oct 10 06:38:26 2017, MaxMem=    33554432 cpu:         1.2
 (Enter /usr/local/gaussian/2009-E.01/g09/l502.exe)
 UHF open shell SCF:
 Using DIIS extrapolation, IDIIS=  1040.
 Integral symmetry usage will be decided dynamically.
 Keep R1 and R2 ints in memory in symmetry-blocked form, NReq=2365526.
 IVT=       30362 IEndB=       30362 NGot=    33554432 MDV=    32028287
 LenX=    32028287 LenY=    32024246
 Requested convergence on RMS density matrix=1.00D-08 within 128 cycles.
 Requested convergence on MAX density matrix=1.00D-06.
 Requested convergence on             energy=1.00D-06.
 No special actions if energy rises.
 FoFCou: FMM=F IPFlag=           0 FMFlag=           0 FMFlg1=           0
         NFxFlg=           0 DoJE=F BraDBF=F KetDBF=F FulRan=T
         wScrn=  0.000000 ICntrl=     600 IOpCl=  0 I1Cent=           0 NGrid=           0
         NMat0=    1 NMatS0=   1711 NMatT0=    0 NMatD0=    1 NMtDS0=    0 NMtDT0=    0
 Petite list used in FoFCou.

 Cycle   1  Pass 1  IDiag  1:
 E= -113.287488556598    
 DIIS: error= 8.56D-02 at cycle   1 NSaved=   1.
 NSaved= 1 IEnMin= 1 EnMin= -113.287488556598     IErMin= 1 ErrMin= 8.56D-02
 ErrMax= 8.56D-02  0.00D+00 EMaxC= 1.00D-01 BMatC= 8.65D-01 BMatP= 8.65D-01
 IDIUse=3 WtCom= 1.44D-01 WtEn= 8.56D-01
 Coeff-Com:  0.100D+01
 Coeff-En:   0.100D+01
 Coeff:      0.100D+01
 Gap=     0.689 Goal=   None    Shift=    0.000
 Gap=     0.431 Goal=   None    Shift=    0.000
 GapD=    0.431 DampG=2.000 DampE=0.500 DampFc=1.0000 IDamp=-1.
 RMSDP=4.96D-03 MaxDP=1.12D-01              OVMax= 1.27D-01

 Cycle   2  Pass 1  IDiag  1:
 E= -113.387069122427     Delta-E=       -0.099580565829 Rises=F Damp=F
 DIIS: error= 3.80D-02 at cycle   2 NSaved=   2.
 NSaved= 2 IEnMin= 2 EnMin= -113.387069122427     IErMin= 2 ErrMin= 3.80D-02
 ErrMax= 3.80D-02  0.00D+00 EMaxC= 1.00D-01 BMatC= 1.08D-01 BMatP= 8.65D-01
 IDIUse=3 WtCom= 6.20D-01 WtEn= 3.80D-01
 Coeff-Com:  0.167D+00 0.833D+00
 Coeff-En:   0.000D+00 0.100D+01
 Coeff:      0.104D+00 0.896D+00
 Gap=     0.662 Goal=   None    Shift=    0.000
 Gap=     0.571 Goal=   None    Shift=    0.000
 RMSDP=2.04D-03 MaxDP=6.45D-02 DE=-9.96D-02 OVMax= 1.27D-01

 Cycle   3  Pass 1  IDiag  1:
 E= -113.410738421192     Delta-E=       -0.023669298765 Rises=F Damp=F
 DIIS: error= 1.57D-02 at cycle   3 NSaved=   3.
 NSaved= 3 IEnMin= 3 EnMin= -113.410738421192     IErMin= 3 ErrMin= 1.57D-02
 ErrMax= 1.57D-02  0.00D+00 EMaxC= 1.00D-01 BMatC= 1.78D-02 BMatP= 1.08D-01
 IDIUse=3 WtCom= 8.43D-01 WtEn= 1.57D-01
 Coeff-Com: -0.480D-01 0.212D+00 0.836D+00
 Coeff-En:   0.000D+00 0.000D+00 0.100D+01
 Coeff:     -0.405D-01 0.179D+00 0.862D+00
 Gap=     0.639 Goal=   None    Shift=    0.000
 Gap=     0.549 Goal=   None    Shift=    0.000
 RMSDP=8.40D-04 MaxDP=1.83D-02 DE=-2.37D-02 OVMax= 2.92D-02

 Cycle   4  Pass 1  IDiag  1:
 E= -113.416462551015     Delta-E=       -0.005724129823 Rises=F Damp=F
 DIIS: error= 9.02D-03 at cycle   4 NSaved=   4.
 NSaved= 4 IEnMin= 4 EnMin= -113.416462551015     IErMin= 4 ErrMin= 9.02D-03
 ErrMax= 9.02D-03  0.00D+00 EMaxC= 1.00D-01 BMatC= 1.84D-03 BMatP= 1.78D-02
 IDIUse=3 WtCom= 9.10D-01 WtEn= 9.02D-02
 Coeff-Com:  0.142D-01-0.147D+00-0.480D+00 0.161D+01
 Coeff-En:   0.000D+00 0.000D+00 0.000D+00 0.100D+01
 Coeff:      0.129D-01-0.134D+00-0.437D+00 0.156D+01
 Gap=     0.641 Goal=   None    Shift=    0.000
 Gap=     0.551 Goal=   None    Shift=    0.000
 RMSDP=6.65D-04 MaxDP=7.49D-03 DE=-5.72D-03 OVMax= 5.44D-02

 Cycle   5  Pass 1  IDiag  1:
 E= -113.418837998218     Delta-E=       -0.002375447203 Rises=F Damp=F
 DIIS: error= 3.90D-03 at cycle   5 NSaved=   5.
 NSaved= 5 IEnMin= 5 EnMin= -113.418837998218     IErMin= 5 ErrMin= 3.90D-03
 ErrMax= 3.90D-03  0.00D+00 EMaxC= 1.00D-01 BMatC= 3.40D-04 BMatP= 1.84D-03
 IDIUse=3 WtCom= 9.61D-01 WtEn= 3.90D-02
 Coeff-Com:  0.294D-02 0.185D-01 0.382D-01-0.544D+00 0.148D+01
 Coeff-En:   0.000D+00 0.000D+00 0.000D+00 0.000D+00 0.100D+01
 Coeff:      0.283D-02 0.178D-01 0.367D-01-0.523D+00 0.147D+01
 Gap=     0.639 Goal=   None    Shift=    0.000
 Gap=     0.555 Goal=   None    Shift=    0.000
 RMSDP=3.46D-04 MaxDP=5.90D-03 DE=-2.38D-03 OVMax= 2.76D-02

 Cycle   6  Pass 1  IDiag  1:
 E= -113.419330468182     Delta-E=       -0.000492469964 Rises=F Damp=F
 DIIS: error= 1.07D-03 at cycle   6 NSaved=   6.
 NSaved= 6 IEnMin= 6 EnMin= -113.419330468182     IErMin= 6 ErrMin= 1.07D-03
 ErrMax= 1.07D-03  0.00D+00 EMaxC= 1.00D-01 BMatC= 5.76D-05 BMatP= 3.40D-04
 IDIUse=3 WtCom= 9.89D-01 WtEn= 1.07D-02
 Coeff-Com: -0.397D-02 0.261D-01 0.896D-01-0.140D+00-0.479D+00 0.151D+01
 Coeff-En:   0.000D+00 0.000D+00 0.000D+00 0.000D+00 0.000D+00 0.100D+01
 Coeff:     -0.393D-02 0.258D-01 0.886D-01-0.138D+00-0.473D+00 0.150D+01
 Gap=     0.640 Goal=   None    Shift=    0.000
 Gap=     0.556 Goal=   None    Shift=    0.000
 RMSDP=1.61D-04 MaxDP=2.86D-03 DE=-4.92D-04 OVMax= 9.75D-03

 Cycle   7  Pass 1  IDiag  1:
 E= -113.419407290933     Delta-E=       -0.000076822751 Rises=F Damp=F
 DIIS: error= 4.21D-04 at cycle   7 NSaved=   7.
 NSaved= 7 IEnMin= 7 EnMin= -113.419407290933     IErMin= 7 ErrMin= 4.21D-04
 ErrMax= 4.21D-04  0.00D+00 EMaxC= 1.00D-01 BMatC= 1.05D-05 BMatP= 5.76D-05
 IDIUse=3 WtCom= 9.96D-01 WtEn= 4.21D-03
 Coeff-Com:  0.118D-02-0.104D-01-0.449D-01 0.106D+00 0.272D-01-0.569D+00
 Coeff-Com:  0.149D+01
 Coeff-En:   0.000D+00 0.000D+00 0.000D+00 0.000D+00 0.000D+00 0.000D+00
 Coeff-En:   0.100D+01
 Coeff:      0.118D-02-0.104D-01-0.447D-01 0.106D+00 0.271D-01-0.567D+00
 Coeff:      0.149D+01
 Gap=     0.639 Goal=   None    Shift=    0.000
 Gap=     0.556 Goal=   None    Shift=    0.000
 RMSDP=6.64D-05 MaxDP=1.23D-03 DE=-7.68D-05 OVMax= 3.35D-03

 Cycle   8  Pass 1  IDiag  1:
 E= -113.419422253371     Delta-E=       -0.000014962438 Rises=F Damp=F
 DIIS: error= 3.61D-04 at cycle   8 NSaved=   8.
 NSaved= 8 IEnMin= 8 EnMin= -113.419422253371     IErMin= 8 ErrMin= 3.61D-04
 ErrMax= 3.61D-04  0.00D+00 EMaxC= 1.00D-01 BMatC= 4.29D-06 BMatP= 1.05D-05
 IDIUse=3 WtCom= 9.96D-01 WtEn= 3.61D-03
 Coeff-Com: -0.436D-04 0.521D-03 0.161D-01-0.340D-01 0.737D-01 0.567D-01
 Coeff-Com: -0.101D+01 0.190D+01
 Coeff-En:   0.000D+00 0.000D+00 0.000D+00 0.000D+00 0.000D+00 0.000D+00
 Coeff-En:   0.000D+00 0.100D+01
 Coeff:     -0.435D-04 0.520D-03 0.160D-01-0.339D-01 0.734D-01 0.565D-01
 Coeff:     -0.100D+01 0.189D+01
 Gap=     0.639 Goal=   None    Shift=    0.000
 Gap=     0.556 Goal=   None    Shift=    0.000
 RMSDP=3.97D-05 MaxDP=7.21D-04 DE=-1.50D-05 OVMax= 3.48D-03

 Cycle   9  Pass 1  IDiag  1:
 E= -113.419431043458     Delta-E=       -0.000008790086 Rises=F Damp=F
 DIIS: error= 2.60D-04 at cycle   9 NSaved=   9.
 NSaved= 9 IEnMin= 9 EnMin= -113.419431043458     IErMin= 9 ErrMin= 2.60D-04
 ErrMax= 2.60D-04  0.00D+00 EMaxC= 1.00D-01 BMatC= 1.88D-06 BMatP= 4.29D-06
 IDIUse=3 WtCom= 9.97D-01 WtEn= 2.60D-03
 Coeff-Com: -0.327D-03 0.405D-02 0.540D-03-0.179D-01-0.612D-01 0.142D+00
 Coeff-Com:  0.351D+00-0.183D+01 0.241D+01
 Coeff-En:   0.000D+00 0.000D+00 0.000D+00 0.000D+00 0.000D+00 0.000D+00
 Coeff-En:   0.000D+00 0.000D+00 0.100D+01
 Coeff:     -0.326D-03 0.404D-02 0.539D-03-0.179D-01-0.610D-01 0.141D+00
 Coeff:      0.350D+00-0.182D+01 0.240D+01
 Gap=     0.639 Goal=   None    Shift=    0.000
 Gap=     0.556 Goal=   None    Shift=    0.000
 RMSDP=4.20D-05 MaxDP=8.76D-04 DE=-8.79D-06 OVMax= 4.11D-03

 Cycle  10  Pass 1  IDiag  1:
 E= -113.419437055343     Delta-E=       -0.000006011886 Rises=F Damp=F
 DIIS: error= 1.41D-04 at cycle  10 NSaved=  10.
 NSaved=10 IEnMin=10 EnMin= -113.419437055343     IErMin=10 ErrMin= 1.41D-04
 ErrMax= 1.41D-04  0.00D+00 EMaxC= 1.00D-01 BMatC= 5.97D-07 BMatP= 1.88D-06
 IDIUse=3 WtCom= 9.99D-01 WtEn= 1.41D-03
 Coeff-Com:  0.190D-03-0.401D-02 0.749D-03 0.259D-01 0.481D-01-0.143D+00
 Coeff-Com: -0.276D+00 0.196D+01-0.349D+01 0.287D+01
 Coeff-En:   0.000D+00 0.000D+00 0.000D+00 0.000D+00 0.000D+00 0.000D+00
 Coeff-En:   0.000D+00 0.000D+00 0.000D+00 0.100D+01
 Coeff:      0.189D-03-0.400D-02 0.748D-03 0.259D-01 0.480D-01-0.142D+00
 Coeff:     -0.276D+00 0.196D+01-0.348D+01 0.287D+01
 Gap=     0.640 Goal=   None    Shift=    0.000
 Gap=     0.556 Goal=   None    Shift=    0.000
 RMSDP=3.27D-05 MaxDP=7.17D-04 DE=-6.01D-06 OVMax= 3.23D-03

 Cycle  11  Pass 1  IDiag  1:
 E= -113.419439119437     Delta-E=       -0.000002064094 Rises=F Damp=F
 DIIS: error= 2.68D-05 at cycle  11 NSaved=  11.
 NSaved=11 IEnMin=11 EnMin= -113.419439119437     IErMin=11 ErrMin= 2.68D-05
 ErrMax= 2.68D-05  0.00D+00 EMaxC= 1.00D-01 BMatC= 4.99D-08 BMatP= 5.97D-07
 IDIUse=1 WtCom= 1.00D+00 WtEn= 0.00D+00
 Coeff-Com: -0.569D-04 0.110D-02 0.111D-02-0.116D-01-0.632D-02 0.373D-01
 Coeff-Com: -0.714D-02-0.325D+00 0.865D+00-0.113D+01 0.158D+01
 Coeff:     -0.569D-04 0.110D-02 0.111D-02-0.116D-01-0.632D-02 0.373D-01
 Coeff:     -0.714D-02-0.325D+00 0.865D+00-0.113D+01 0.158D+01
 Gap=     0.640 Goal=   None    Shift=    0.000
 Gap=     0.556 Goal=   None    Shift=    0.000
 RMSDP=7.40D-06 MaxDP=1.48D-04 DE=-2.06D-06 OVMax= 6.73D-04

 Cycle  12  Pass 1  IDiag  1:
 E= -113.419439217955     Delta-E=       -0.000000098518 Rises=F Damp=F
 DIIS: error= 3.60D-06 at cycle  12 NSaved=  12.
 NSaved=12 IEnMin=12 EnMin= -113.419439217955     IErMin=12 ErrMin= 3.60D-06
 ErrMax= 3.60D-06  0.00D+00 EMaxC= 1.00D-01 BMatC= 2.22D-09 BMatP= 4.99D-08
 IDIUse=1 WtCom= 1.00D+00 WtEn= 0.00D+00
 Coeff-Com:  0.107D-04-0.125D-03-0.349D-03 0.240D-02 0.125D-03-0.488D-02
 Coeff-Com:  0.166D-01-0.660D-02-0.815D-01 0.193D+00-0.459D+00 0.134D+01
 Coeff:      0.107D-04-0.125D-03-0.349D-03 0.240D-02 0.125D-03-0.488D-02
 Coeff:      0.166D-01-0.660D-02-0.815D-01 0.193D+00-0.459D+00 0.134D+01
 Gap=     0.640 Goal=   None    Shift=    0.000
 Gap=     0.556 Goal=   None    Shift=    0.000
 RMSDP=9.68D-07 MaxDP=1.42D-05 DE=-9.85D-08 OVMax= 7.00D-05

 Cycle  13  Pass 1  IDiag  1:
 E= -113.419439219948     Delta-E=       -0.000000001993 Rises=F Damp=F
 DIIS: error= 1.50D-06 at cycle  13 NSaved=  13.
 NSaved=13 IEnMin=13 EnMin= -113.419439219948     IErMin=13 ErrMin= 1.50D-06
 ErrMax= 1.50D-06  0.00D+00 EMaxC= 1.00D-01 BMatC= 2.44D-10 BMatP= 2.22D-09
 IDIUse=1 WtCom= 1.00D+00 WtEn= 0.00D+00
 Coeff-Com: -0.636D-05 0.479D-04 0.171D-03-0.954D-03-0.759D-04 0.202D-02
 Coeff-Com: -0.808D-02 0.129D-01 0.106D-01-0.452D-01 0.132D+00-0.663D+00
 Coeff-Com:  0.156D+01
 Coeff:     -0.636D-05 0.479D-04 0.171D-03-0.954D-03-0.759D-04 0.202D-02
 Coeff:     -0.808D-02 0.129D-01 0.106D-01-0.452D-01 0.132D+00-0.663D+00
 Coeff:      0.156D+01
 Gap=     0.640 Goal=   None    Shift=    0.000
 Gap=     0.556 Goal=   None    Shift=    0.000
 RMSDP=2.17D-07 MaxDP=3.62D-06 DE=-1.99D-09 OVMax= 8.21D-06

 Cycle  14  Pass 1  IDiag  1:
 E= -113.419439220122     Delta-E=       -0.000000000174 Rises=F Damp=F
 DIIS: error= 7.69D-07 at cycle  14 NSaved=  14.
 NSaved=14 IEnMin=14 EnMin= -113.419439220122     IErMin=14 ErrMin= 7.69D-07
 ErrMax= 7.69D-07  0.00D+00 EMaxC= 1.00D-01 BMatC= 2.73D-11 BMatP= 2.44D-10
 IDIUse=1 WtCom= 1.00D+00 WtEn= 0.00D+00
 Coeff-Com:  0.139D-05 0.263D-05-0.569D-04 0.970D-04-0.185D-03-0.366D-04
 Coeff-Com:  0.389D-02-0.143D-01 0.194D-01-0.160D-01 0.106D-01 0.118D+00
 Coeff-Com: -0.655D+00 0.153D+01
 Coeff:      0.139D-05 0.263D-05-0.569D-04 0.970D-04-0.185D-03-0.366D-04
 Coeff:      0.389D-02-0.143D-01 0.194D-01-0.160D-01 0.106D-01 0.118D+00
 Coeff:     -0.655D+00 0.153D+01
 Gap=     0.640 Goal=   None    Shift=    0.000
 Gap=     0.556 Goal=   None    Shift=    0.000
 RMSDP=7.45D-08 MaxDP=1.14D-06 DE=-1.74D-10 OVMax= 3.43D-06

 Cycle  15  Pass 1  IDiag  1:
 E= -113.419439220145     Delta-E=       -0.000000000023 Rises=F Damp=F
 DIIS: error= 2.13D-07 at cycle  15 NSaved=  15.
 NSaved=15 IEnMin=15 EnMin= -113.419439220145     IErMin=15 ErrMin= 2.13D-07
 ErrMax= 2.13D-07  0.00D+00 EMaxC= 1.00D-01 BMatC= 2.41D-12 BMatP= 2.73D-11
 IDIUse=1 WtCom= 1.00D+00 WtEn= 0.00D+00
 Coeff-Com:  0.449D-07-0.251D-05 0.201D-05 0.111D-04 0.581D-04-0.919D-04
 Coeff-Com: -0.562D-03 0.292D-02-0.482D-02 0.547D-02-0.819D-02-0.806D-04
 Coeff-Com:  0.138D+00-0.630D+00 0.150D+01
 Coeff:      0.449D-07-0.251D-05 0.201D-05 0.111D-04 0.581D-04-0.919D-04
 Coeff:     -0.562D-03 0.292D-02-0.482D-02 0.547D-02-0.819D-02-0.806D-04
 Coeff:      0.138D+00-0.630D+00 0.150D+01
 Gap=     0.640 Goal=   None    Shift=    0.000
 Gap=     0.556 Goal=   None    Shift=    0.000
 RMSDP=2.69D-08 MaxDP=4.44D-07 DE=-2.29D-11 OVMax= 1.59D-06

 Cycle  16  Pass 1  IDiag  1:
 E= -113.419439220147     Delta-E=       -0.000000000002 Rises=F Damp=F
 DIIS: error= 6.20D-08 at cycle  16 NSaved=  16.
 NSaved=16 IEnMin=16 EnMin= -113.419439220147     IErMin=16 ErrMin= 6.20D-08
 ErrMax= 6.20D-08  0.00D+00 EMaxC= 1.00D-01 BMatC= 3.32D-13 BMatP= 2.41D-12
 IDIUse=1 WtCom= 1.00D+00 WtEn= 0.00D+00
 Coeff-Com: -0.150D-06 0.975D-06 0.342D-05-0.131D-04-0.158D-04 0.492D-04
 Coeff-Com: -0.492D-04-0.168D-03 0.451D-03-0.808D-03 0.170D-02-0.922D-02
 Coeff-Com:  0.566D-03 0.109D+00-0.694D+00 0.159D+01
 Coeff:     -0.150D-06 0.975D-06 0.342D-05-0.131D-04-0.158D-04 0.492D-04
 Coeff:     -0.492D-04-0.168D-03 0.451D-03-0.808D-03 0.170D-02-0.922D-02
 Coeff:      0.566D-03 0.109D+00-0.694D+00 0.159D+01
 Gap=     0.640 Goal=   None    Shift=    0.000
 Gap=     0.556 Goal=   None    Shift=    0.000
 RMSDP=1.26D-08 MaxDP=1.57D-07 DE=-2.13D-12 OVMax= 6.88D-07

 Cycle  17  Pass 1  IDiag  1:
 E= -113.419439220147     Delta-E=       -0.000000000000 Rises=F Damp=F
 DIIS: error= 2.12D-08 at cycle  17 NSaved=  17.
 NSaved=17 IEnMin=17 EnMin= -113.419439220147     IErMin=17 ErrMin= 2.12D-08
 ErrMax= 2.12D-08  0.00D+00 EMaxC= 1.00D-01 BMatC= 2.88D-14 BMatP= 3.32D-13
 IDIUse=1 WtCom= 1.00D+00 WtEn= 0.00D+00
 Coeff-Com:  0.982D-07-0.467D-06-0.298D-05 0.957D-05-0.115D-05-0.253D-04
 Coeff-Com:  0.158D-03-0.374D-03 0.365D-03-0.185D-03-0.189D-04 0.600D-02
 Coeff-Com: -0.222D-01 0.414D-01 0.930D-01-0.624D+00 0.151D+01
 Coeff:      0.982D-07-0.467D-06-0.298D-05 0.957D-05-0.115D-05-0.253D-04
 Coeff:      0.158D-03-0.374D-03 0.365D-03-0.185D-03-0.189D-04 0.600D-02
 Coeff:     -0.222D-01 0.414D-01 0.930D-01-0.624D+00 0.151D+01
 Gap=     0.640 Goal=   None    Shift=    0.000
 Gap=     0.556 Goal=   None    Shift=    0.000
 RMSDP=2.75D-09 MaxDP=2.85D-08 DE=-1.99D-13 OVMax= 1.16D-07

 SCF Done:  E(UHF) =  -113.419439220     A.U. after   17 cycles
            NFock= 17  Conv=0.28D-08     -V/T= 1.9998
 <Sx>= 0.0000 <Sy>= 0.0000 <Sz>= 1.5000 <S**2>= 3.7661 S= 1.5040
 <L.S>= 0.000000000000E+00
 KE= 1.134428939433D+02 PE=-3.172750120200D+02 EE= 6.274869229668D+01
 Annihilation of the first spin contaminant:
 S**2 before annihilation     3.7661,   after     3.7501
 Leave Link  502 at Tue Oct 10 06:38:27 2017, MaxMem=    33554432 cpu:         6.9
 (Enter /usr/local/gaussian/2009-E.01/g09/l801.exe)
 Windowed orbitals will be sorted by symmetry type.
 ExpMin= 3.60D-02 ExpMax= 8.59D+03 ExpMxC= 1.30D+03 IAcc=3 IRadAn=         5 AccDes= 0.00D+00
 HarFok:  IExCor=  205 AccDes= 0.00D+00 IRadAn=         5 IDoV=-2 UseB2=F ITyADJ=14
 ICtDFT= 12500011 ScaDFX=  1.000000  1.000000  1.000000  1.000000
 Largest valence mixing into a core orbital is  1.01D-04
 Largest core mixing into a valence orbital is  2.45D-05
 Largest valence mixing into a core orbital is  1.42D-04
 Largest core mixing into a valence orbital is  4.18D-05
 Range of M.O.s used for correlation:     3    58
 NBasis=    58 NAE=     9 NBE=     6 NFC=     2 NFV=     0
 NROrb=     56 NOA=     7 NOB=     4 NVA=    49 NVB=    52

 **** Warning!!: The largest alpha MO coefficient is  0.10618434D+02


 **** Warning!!: The largest beta MO coefficient is  0.10899583D+02

 Leave Link  801 at Tue Oct 10 06:38:27 2017, MaxMem=    33554432 cpu:         0.3
 (Enter /usr/local/gaussian/2009-E.01/g09/l804.exe)
 Open-shell transformation, MDV=    33554432 ITran=4 ISComp=2.
 Semi-Direct transformation.
 ModeAB=           4 MOrb=             7 LenV=      33328063
 LASXX=       279638 LTotXX=      279638 LenRXX=      580731
 LTotAB=      301093 MaxLAS=      604856 LenRXY=           0
 NonZer=      860369 LenScr=     1935360 LnRSAI=      604856
 LnScr1=     1571840 LExtra=           0 Total=      4692787
 MaxDsk=          -1 SrtSym=           T ITran=            4
 DoSDTr:  NPSUse=  8
 JobTyp=1 Pass  1:  I=   1 to   7.
 (rs|ai) integrals will be sorted in core.
 Complete sort for first half transformation.
 First half transformation complete.
 Complete sort for second half transformation.
 Second half transformation complete.
 ModeAB=           4 MOrb=             4 LenV=      33328063
 LASXX=       166294 LTotXX=      166294 LenRXX=      302285
 LTotAB=      135991 MaxLAS=      345632 LenRXY=           0
 NonZer=      468579 LenScr=     1404928 LnRSAI=      345632
 LnScr1=     1036288 LExtra=           0 Total=      3089133
 MaxDsk=          -1 SrtSym=           T ITran=            4
 DoSDTr:  NPSUse=  8
 JobTyp=2 Pass  1:  I=   1 to   4.
 (rs|ai) integrals will be sorted in core.
 Complete sort for first half transformation.
 First half transformation complete.
 Complete sort for second half transformation.
 Second half transformation complete.
 Spin components of T(2) and E(2):
     alpha-alpha T2 =       0.9520867067D-02 E2=     -0.4106865699D-01
     alpha-beta  T2 =       0.4623311068D-01 E2=     -0.1717996035D+00
     beta-beta   T2 =       0.3903027264D-02 E2=     -0.1192298545D-01
 ANorm=    0.1029396428D+01
 E2 =    -0.2247912460D+00 EUMP2 =    -0.11364423046611D+03
 (S**2,0)=  0.37661D+01           (S**2,1)=  0.37535D+01
 E(PUHF)=      -0.11342324382D+03        E(PMP2)=      -0.11364655323D+03
 Leave Link  804 at Tue Oct 10 06:38:28 2017, MaxMem=    33554432 cpu:         4.2
 (Enter /usr/local/gaussian/2009-E.01/g09/l913.exe)
 CIDS:  MDV=    33554432.
 Frozen-core window:  NFC=   2 NFV=   0.
 IFCWin=0 IBDFC=1 NFBD=     0     0 NFCmp=     0     0 NFFFC=     0     0
 Using original routines for 1st iteration, S=T.
 Using DD4UQ or CC4UQ for 2nd and later iterations.
 Keep R2 and R3 ints in memory in symmetry-blocked form, NReq=2317122.
 FoFCou: FMM=F IPFlag=           0 FMFlag=           0 FMFlg1=           0
         NFxFlg=           0 DoJE=F BraDBF=F KetDBF=F FulRan=T
         wScrn=  0.000000 ICntrl=     600 IOpCl=  0 I1Cent=           0 NGrid=           0
         NMat0=    1 NMatS0=   1711 NMatT0=    0 NMatD0=    1 NMtDS0=    0 NMtDT0=    0
 Petite list used in FoFCou.
 CCSD(T)
 =======
 Iterations= 200 Convergence= 0.100D-06
 Iteration Nr.   1
 **********************
 DD1Dir will call FoFMem   1 times, MxPair=        84
 NAB=    28 NAA=    21 NBB=     6.
 E(PMP3)=      -0.11367288616D+03
 MP4(R+Q)=  0.36500734D-02
 Maximum subspace dimension=  5
 Norm of the A-vectors is  2.5265505D-01 conv= 1.00D-05.
 RLE energy=       -0.2512444683
 E3=       -0.27290408D-01        EUMP3=      -0.11367152087D+03
 E4(DQ)=   -0.28926524D-02        UMP4(DQ)=   -0.11367441353D+03
 E4(SDQ)=  -0.55784858D-02        UMP4(SDQ)=  -0.11367709936D+03
 VARIATIONAL ENERGIES WITH THE FIRST-ORDER WAVEFUNCTION:
 DE(Corr)= -0.24845924     E(Corr)=     -113.66789846    
 NORM(A)=   0.10396025D+01
 Iteration Nr.   2
 **********************
 DD1Dir will call FoFMem   1 times, MxPair=        84
 NAB=    28 NAA=    21 NBB=     6.
 Norm of the A-vectors is  1.1112519D-01 conv= 1.00D-05.
 RLE energy=       -0.2591562333
 DE(Corr)= -0.25664501     E(CORR)=     -113.67608423     Delta=-8.19D-03
 NORM(A)=   0.10451939D+01
 Iteration Nr.   3
 **********************
 DD1Dir will call FoFMem   1 times, MxPair=        84
 NAB=    28 NAA=    21 NBB=     6.
 Norm of the A-vectors is  4.2519035D-02 conv= 1.00D-05.
 RLE energy=       -0.2610758080
 DE(Corr)= -0.25916029     E(CORR)=     -113.67859951     Delta=-2.52D-03
 NORM(A)=   0.10505673D+01
 Iteration Nr.   4
 **********************
 DD1Dir will call FoFMem   1 times, MxPair=        84
 NAB=    28 NAA=    21 NBB=     6.
 Norm of the A-vectors is  2.7458678D-02 conv= 1.00D-05.
 RLE energy=       -0.2619815206
 DE(Corr)= -0.26116780     E(CORR)=     -113.68060702     Delta=-2.01D-03
 NORM(A)=   0.10546711D+01
 Iteration Nr.   5
 **********************
 DD1Dir will call FoFMem   1 times, MxPair=        84
 NAB=    28 NAA=    21 NBB=     6.
 Norm of the A-vectors is  1.1065211D-02 conv= 1.00D-05.
 RLE energy=       -0.2620303224
 DE(Corr)= -0.26191212     E(CORR)=     -113.68135134     Delta=-7.44D-04
 NORM(A)=   0.10559194D+01
 Iteration Nr.   6
 **********************
 DD1Dir will call FoFMem   1 times, MxPair=        84
 NAB=    28 NAA=    21 NBB=     6.
 Norm of the A-vectors is  5.5061560D-03 conv= 1.00D-05.
 RLE energy=       -0.2620075895
 DE(Corr)= -0.26202915     E(CORR)=     -113.68146837     Delta=-1.17D-04
 NORM(A)=   0.10561306D+01
 Iteration Nr.   7
 **********************
 DD1Dir will call FoFMem   1 times, MxPair=        84
 NAB=    28 NAA=    21 NBB=     6.
 Norm of the A-vectors is  2.5262168D-03 conv= 1.00D-05.
 RLE energy=       -0.2620602324
 DE(Corr)= -0.26203587     E(CORR)=     -113.68147509     Delta=-6.72D-06
 NORM(A)=   0.10562689D+01
 Iteration Nr.   8
 **********************
 DD1Dir will call FoFMem   1 times, MxPair=        84
 NAB=    28 NAA=    21 NBB=     6.
 Norm of the A-vectors is  1.2686544D-03 conv= 1.00D-05.
 RLE energy=       -0.2620438600
 DE(Corr)= -0.26204418     E(CORR)=     -113.68148340     Delta=-8.31D-06
 NORM(A)=   0.10563137D+01
 Iteration Nr.   9
 **********************
 DD1Dir will call FoFMem   1 times, MxPair=        84
 NAB=    28 NAA=    21 NBB=     6.
 Norm of the A-vectors is  7.2896625D-04 conv= 1.00D-05.
 RLE energy=       -0.2620628322
 DE(Corr)= -0.26205104     E(CORR)=     -113.68149026     Delta=-6.86D-06
 NORM(A)=   0.10563425D+01
 Iteration Nr.  10
 **********************
 DD1Dir will call FoFMem   1 times, MxPair=        84
 NAB=    28 NAA=    21 NBB=     6.
 Norm of the A-vectors is  7.1473329D-04 conv= 1.00D-05.
 RLE energy=       -0.2620493920
 DE(Corr)= -0.26205259     E(CORR)=     -113.68149181     Delta=-1.55D-06
 NORM(A)=   0.10563589D+01
 Iteration Nr.  11
 **********************
 DD1Dir will call FoFMem   1 times, MxPair=        84
 NAB=    28 NAA=    21 NBB=     6.
 Norm of the A-vectors is  4.4111660D-04 conv= 1.00D-05.
 RLE energy=       -0.2620540117
 DE(Corr)= -0.26205414     E(CORR)=     -113.68149336     Delta=-1.55D-06
 NORM(A)=   0.10563542D+01
 Iteration Nr.  12
 **********************
 DD1Dir will call FoFMem   1 times, MxPair=        84
 NAB=    28 NAA=    21 NBB=     6.
 Norm of the A-vectors is  2.6987485D-04 conv= 1.00D-05.
 RLE energy=       -0.2620511420
 DE(Corr)= -0.26205171     E(CORR)=     -113.68149093     Delta= 2.43D-06
 NORM(A)=   0.10563523D+01
 Iteration Nr.  13
 **********************
 DD1Dir will call FoFMem   1 times, MxPair=        84
 NAB=    28 NAA=    21 NBB=     6.
 Norm of the A-vectors is  1.2877982D-04 conv= 1.00D-05.
 RLE energy=       -0.2620502788
 DE(Corr)= -0.26205109     E(CORR)=     -113.68149031     Delta= 6.16D-07
 NORM(A)=   0.10563484D+01
 Iteration Nr.  14
 **********************
 DD1Dir will call FoFMem   1 times, MxPair=        84
 NAB=    28 NAA=    21 NBB=     6.
 Norm of the A-vectors is  6.0017418D-05 conv= 1.00D-05.
 RLE energy=       -0.2620503105
 DE(Corr)= -0.26205040     E(CORR)=     -113.68148962     Delta= 6.90D-07
 NORM(A)=   0.10563471D+01
 Iteration Nr.  15
 **********************
 DD1Dir will call FoFMem   1 times, MxPair=        84
 NAB=    28 NAA=    21 NBB=     6.
 Norm of the A-vectors is  2.8816639D-05 conv= 1.00D-05.
 RLE energy=       -0.2620498817
 DE(Corr)= -0.26205010     E(CORR)=     -113.68148932     Delta= 3.03D-07
 NORM(A)=   0.10563462D+01
 Iteration Nr.  16
 **********************
 DD1Dir will call FoFMem   1 times, MxPair=        84
 NAB=    28 NAA=    21 NBB=     6.
 Norm of the A-vectors is  1.1230179D-05 conv= 1.00D-05.
 RLE energy=       -0.2620499294
 DE(Corr)= -0.26204996     E(CORR)=     -113.68148918     Delta= 1.35D-07
 NORM(A)=   0.10563458D+01
 Iteration Nr.  17
 **********************
 DD1Dir will call FoFMem   1 times, MxPair=        84
 NAB=    28 NAA=    21 NBB=     6.
 Norm of the A-vectors is  5.9705471D-06 conv= 1.00D-05.
 RLE energy=       -0.2620498263
 DE(Corr)= -0.26204987     E(CORR)=     -113.68148909     Delta= 9.22D-08
 NORM(A)=   0.10563457D+01
 CI/CC converged in   17 iterations to DelEn= 9.22D-08 Conv= 1.00D-07 ErrA1= 5.97D-06 Conv= 1.00D-05
 Dominant configurations:
 ***********************
 Spin Case        I    J    A    B          Value
    BB            6         8            0.131621D+00
 Largest amplitude= 1.32D-01
 Time for triples=       27.75 seconds.
 T4(CCSD)= -0.74608229D-02
 T5(CCSD)=  0.73420428D-03
 CCSD(T)= -0.11368821571D+03

 S**2, projected HF & approx projected MPn energies after annihilation of
 unwanted spin states (see manual for definitions):

 spins       (S**2,0) (S**2,1)    PUHF        PMP2        PMP3        PMP4
 annihilated
 s+1         3.74994  3.75004 -113.423244 -113.646553 -113.672886
 s+1,s+2     3.75000  3.75000 -113.423231 -113.646542 -113.672876
 s+1 to s+3  3.75000  3.75000 -113.423231 -113.646542 -113.672876
 s+1 to s+4  3.75000  3.75000 -113.423231 -113.646542 -113.672876

 Discarding MO integrals.
 Leave Link  913 at Tue Oct 10 06:38:58 2017, MaxMem=    33554432 cpu:       216.8
 (Enter /usr/local/gaussian/2009-E.01/g09/l601.exe)
 Copying SCF densities to generalized density rwf, IOpCl= 1 IROHF=0.

 **********************************************************************

            Population analysis using the SCF density.

 **********************************************************************

 Orbital symmetries:
 Alpha Orbitals:
       Occupied  (A') (A') (A') (A') (A') (A") (A') (A") (A')
       Virtual   (A') (A') (A") (A') (A") (A') (A') (A') (A') (A")
                 (A") (A') (A') (A") (A') (A') (A') (A") (A') (A')
                 (A") (A') (A") (A') (A') (A') (A") (A") (A') (A')
                 (A") (A') (A") (A') (A") (A") (A') (A') (A') (A')
                 (A") (A') (A") (A') (A') (A") (A') (A') (A')
 Beta  Orbitals:
       Occupied  (A') (A') (A') (A') (A') (A")
       Virtual   (A') (A") (A') (A') (A') (A") (A') (A") (A') (A')
                 (A') (A") (A') (A') (A") (A') (A") (A') (A') (A')
                 (A") (A') (A') (A") (A') (A") (A') (A') (A") (A')
                 (A") (A') (A') (A") (A') (A") (A') (A") (A') (A')
                 (A") (A') (A') (A") (A') (A") (A') (A') (A") (A')
                 (A') (A')
 The electronic state is 4-A".
 Alpha  occ. eigenvalues --  -21.17710 -11.63659  -1.91694  -1.28408  -1.17408
 Alpha  occ. eigenvalues --   -1.16993  -1.03237  -0.88764  -0.76088
 Alpha virt. eigenvalues --   -0.12138  -0.09808  -0.07867  -0.06180  -0.02233
 Alpha virt. eigenvalues --    0.00396   0.02813   0.03678   0.05452   0.06359
 Alpha virt. eigenvalues --    0.07095   0.07172   0.16787   0.31697   0.36920
 Alpha virt. eigenvalues --    0.43912   0.53146   0.54927   0.68061   0.83418
 Alpha virt. eigenvalues --    0.84712   0.87736   1.02797   1.08964   1.26468
 Alpha virt. eigenvalues --    1.36387   1.39810   1.55127   1.58199   1.77588
 Alpha virt. eigenvalues --    1.80616   2.01559   2.39258   2.42370   2.45436
 Alpha virt. eigenvalues --    2.58848   2.60443   2.68138   2.73181   2.86008
 Alpha virt. eigenvalues --    2.99922   3.06444   3.77150   3.89201   4.93152
 Alpha virt. eigenvalues --    4.95768   5.42723  24.51947  50.94199
  Beta  occ. eigenvalues --  -21.08868 -11.60843  -1.60060  -1.15492  -0.95616
  Beta  occ. eigenvalues --   -0.88633
  Beta virt. eigenvalues --   -0.33052  -0.28788  -0.13185  -0.11475  -0.08231
  Beta virt. eigenvalues --   -0.07564  -0.02860  -0.00853   0.01492   0.03605
  Beta virt. eigenvalues --    0.07870   0.08249   0.09274   0.10052   0.10655
  Beta virt. eigenvalues --    0.18598   0.35437   0.41168   0.51916   0.55654
  Beta virt. eigenvalues --    0.56946   0.71701   0.90658   0.96334   0.98586
  Beta virt. eigenvalues --    1.08966   1.15524   1.34974   1.41502   1.44255
  Beta virt. eigenvalues --    1.58472   1.61184   1.82068   1.85764   2.04601
  Beta virt. eigenvalues --    2.41127   2.46076   2.48354   2.72501   2.78879
  Beta virt. eigenvalues --    2.82811   2.84096   2.93595   3.11011   3.17855
  Beta virt. eigenvalues --    3.79831   3.95072   5.10288   5.12277   5.48099
  Beta virt. eigenvalues --   24.54083  50.99269
          Condensed to atoms (all electrons):
               1          2          3          4
     1  C    5.242443   0.382067   0.382067   0.120901
     2  H    0.382067   0.407451  -0.030267  -0.022345
     3  H    0.382067  -0.030267   0.407451  -0.022345
     4  O    0.120901  -0.022345  -0.022345   7.322502
          Atomic-Atomic Spin Densities.
               1          2          3          4
     1  C    1.228932   0.003854   0.003854  -0.187853
     2  H    0.003854   0.001850  -0.006482  -0.009462
     3  H    0.003854  -0.006482   0.001850  -0.009462
     4  O   -0.187853  -0.009462  -0.009462   2.178470
 Mulliken charges and spin densities:
               1          2
     1  C   -0.127478   1.048787
     2  H    0.263095  -0.010240
     3  H    0.263095  -0.010240
     4  O    0.601288   1.971693
 Sum of Mulliken charges =   1.00000   3.00000
 Mulliken charges and spin densities with hydrogens summed into heavy atoms:
               1          2
     1  C    0.398712   1.028307
     4  O    0.601288   1.971693
 Electronic spatial extent (au):  <R**2>=             60.3041
 Charge=              1.0000 electrons
 Dipole moment (field-independent basis, Debye):
    X=              0.6187    Y=              0.6644    Z=             -0.0000  Tot=              0.9078
 Quadrupole moment (field-independent basis, Debye-Ang):
   XX=             -9.6793   YY=             -7.0629   ZZ=             -7.9951
   XY=              1.2490   XZ=             -0.0000   YZ=             -0.0000
 Traceless Quadrupole moment (field-independent basis, Debye-Ang):
   XX=             -1.4335   YY=              1.1829   ZZ=              0.2507
   XY=              1.2490   XZ=             -0.0000   YZ=             -0.0000
 Octapole moment (field-independent basis, Debye-Ang**2):
  XXX=              0.3811  YYY=             -0.8410  ZZZ=             -0.0000  XYY=              1.0900
  XXY=             -1.5466  XXZ=             -0.0000  XZZ=              1.3431  YZZ=              0.7255
  YYZ=             -0.0000  XYZ=             -0.0000
 Hexadecapole moment (field-independent basis, Debye-Ang**3):
 XXXX=             -9.5443 YYYY=            -40.7104 ZZZZ=            -11.1057 XXXY=             -0.9267
 XXXZ=              0.0000 YYYX=              0.1883 YYYZ=             -0.0000 ZZZX=             -0.0000
 ZZZY=             -0.0000 XXYY=             -8.4756 XXZZ=             -3.3084 YYZZ=             -6.7439
 XXYZ=             -0.0000 YYXZ=             -0.0000 ZZXY=              1.0837
 N-N= 2.766398655988D+01 E-N=-3.172750119895D+02  KE= 1.134428939433D+02
 Symmetry A'   KE= 1.084720656837D+02
 Symmetry A"   KE= 4.970828259640D+00
 Leave Link  601 at Tue Oct 10 06:38:58 2017, MaxMem=    33554432 cpu:         0.2
 (Enter /usr/local/gaussian/2009-E.01/g09/l9999.exe)
 1\1\ WCSS.PL-BEM-WN1424\SP\UCCSD(T)-FC\6-311++G(d,p)\C1H2O1(1+,4)\ROOT
 \10-Oct-2017\0\\#p ccsd(t,maxcyc=200)/6-311++G(d,p)\\ccsd(t) iener\\1,
 4\C,0,0.265292039,0.629508805,-0.32428789\H,0,0.830794444,0.314888282,
 -1.232591222\H,0,-0.197364556,1.642178282,-0.389429222\O,0,-0.76836046
 ,-0.338624389,-0.060715305\\Version=ES64L-G09RevE.01\State=4-A"\HF=-11
 3.4194392\MP2=-113.6442305\MP3=-113.6715209\MP4D=-113.6780636\MP4DQ=-1
 13.6744135\PUHF=-113.4232438\PMP2-0=-113.6465532\PMP3-0=-113.6728862\M
 P4SDQ=-113.6770994\CCSD=-113.6814891\CCSD(T)=-113.6882157\S2=3.766072\
 S2-1=3.753502\S2A=3.750091\RMSD=2.750e-09\PG=CS [SG(C1O1),X(H2)]\\@


 CHARLIE BROWN.."I CAN'T GET THAT STUPID KITE IN THE
 AIR... I CAN'T... I C A N N O T..."
 LUCY.."OH COME NOW CHARLIE BROWN...THAT'S NO WAY TO TALK...
 THE TROUBLE WITH YOU IS YOU DON'T BELIEVE IN YOURSELF... YOU
 DON'T BELIEVE IN YOUR OWN ABILITIES...  YOU'VE GOT TO SAY TO
 YOURSELF...'I BELIEVE I CAN FLY THIS KITE.'... GO AHEAD SAY
 IT...."
 CHARLIE BROWN.."I BELIEVE THAT I CAN FLY THIS STUPID
 KITE.....I BELIEVE THAT I CAN FLY THIS KITE........
 I  A C T U A L L Y  B E L I E V E  T H A T  I  C A N ******"
 LUCY.."I'LL BET YOU TEN-TO-ONE YOU'RE WRONG......."    SCHULZ
 Job cpu time:       0 days  0 hours  3 minutes 55.7 seconds.
 File lengths (MBytes):  RWF=     44 Int=      0 D2E=      0 Chk=      1 Scr=      1
 Normal termination of Gaussian 09 at Tue Oct 10 06:38:58 2017.
