 Entering Gaussian System, Link 0=/usr/local/gaussian/2009-E.01/g09/g09
 Initial command:
 /usr/local/gaussian/2009-E.01/g09/l1.exe "/lustre/scratch/eerd/4986703.achilles/Gau-1040.inp" -scrdir="/lustre/scratch/eerd/4986703.achilles/"
 Entering Link 1 = /usr/local/gaussian/2009-E.01/g09/l1.exe PID=      1042.
  
 Copyright (c) 1988,1990,1992,1993,1995,1998,2003,2009,2015,
            Gaussian, Inc.  All Rights Reserved.
  
 This is part of the Gaussian(R) 09 program.  It is based on
 the Gaussian(R) 03 system (copyright 2003, Gaussian, Inc.),
 the Gaussian(R) 98 system (copyright 1998, Gaussian, Inc.),
 the Gaussian(R) 94 system (copyright 1995, Gaussian, Inc.),
 the Gaussian 92(TM) system (copyright 1992, Gaussian, Inc.),
 the Gaussian 90(TM) system (copyright 1990, Gaussian, Inc.),
 the Gaussian 88(TM) system (copyright 1988, Gaussian, Inc.),
 the Gaussian 86(TM) system (copyright 1986, Carnegie Mellon
 University), and the Gaussian 82(TM) system (copyright 1983,
 Carnegie Mellon University). Gaussian is a federally registered
 trademark of Gaussian, Inc.
  
 This software contains proprietary and confidential information,
 including trade secrets, belonging to Gaussian, Inc.
  
 This software is provided under written license and may be
 used, copied, transmitted, or stored only in accord with that
 written license.
  
 The following legend is applicable only to US Government
 contracts under FAR:
  
                    RESTRICTED RIGHTS LEGEND
  
 Use, reproduction and disclosure by the US Government is
 subject to restrictions as set forth in subparagraphs (a)
 and (c) of the Commercial Computer Software - Restricted
 Rights clause in FAR 52.227-19.
  
 Gaussian, Inc.
 340 Quinnipiac St., Bldg. 40, Wallingford CT 06492
  
  
 ---------------------------------------------------------------
 Warning -- This program may not be used in any manner that
 competes with the business of Gaussian, Inc. or will provide
 assistance to any competitor of Gaussian, Inc.  The licensee
 of this program is prohibited from giving any competitor of
 Gaussian, Inc. access to this program.  By using this program,
 the user acknowledges that Gaussian, Inc. is engaged in the
 business of creating and licensing software in the field of
 computational chemistry and represents and warrants to the
 licensee that it is not a competitor of Gaussian, Inc. and that
 it will not use this program in any manner prohibited above.
 ---------------------------------------------------------------
  

 Cite this work as:
 Gaussian 09, Revision E.01,
 M. J. Frisch, G. W. Trucks, H. B. Schlegel, G. E. Scuseria, 
 M. A. Robb, J. R. Cheeseman, G. Scalmani, V. Barone, B. Mennucci, 
 G. A. Petersson, H. Nakatsuji, M. Caricato, X. Li, H. P. Hratchian, 
 A. F. Izmaylov, J. Bloino, G. Zheng, J. L. Sonnenberg, M. Hada, 
 M. Ehara, K. Toyota, R. Fukuda, J. Hasegawa, M. Ishida, T. Nakajima, 
 Y. Honda, O. Kitao, H. Nakai, T. Vreven, J. A. Montgomery, Jr., 
 J. E. Peralta, F. Ogliaro, M. Bearpark, J. J. Heyd, E. Brothers, 
 K. N. Kudin, V. N. Staroverov, T. Keith, R. Kobayashi, J. Normand, 
 K. Raghavachari, A. Rendell, J. C. Burant, S. S. Iyengar, J. Tomasi, 
 M. Cossi, N. Rega, J. M. Millam, M. Klene, J. E. Knox, J. B. Cross, 
 V. Bakken, C. Adamo, J. Jaramillo, R. Gomperts, R. E. Stratmann, 
 O. Yazyev, A. J. Austin, R. Cammi, C. Pomelli, J. W. Ochterski, 
 R. L. Martin, K. Morokuma, V. G. Zakrzewski, G. A. Voth, 
 P. Salvador, J. J. Dannenberg, S. Dapprich, A. D. Daniels, 
 O. Farkas, J. B. Foresman, J. V. Ortiz, J. Cioslowski, 
 and D. J. Fox, Gaussian, Inc., Wallingford CT, 2013.
 
 ******************************************
 Gaussian 09:  ES64L-G09RevE.01 30-Nov-2015
                10-Oct-2017 
 ******************************************
 %NProcShared=8
 Will use up to    8 processors via shared memory.
 -----------------------------------
 #p ccsd(t,maxcyc=200)/6-311++G(d,p)
 -----------------------------------
 1/38=1/1;
 2/12=2,17=6,18=5,40=1/2;
 3/5=4,6=6,7=1111,11=9,16=1,25=1,30=1/1,2,3;
 4//1;
 5/5=2,38=5/2;
 8/6=4,9=120000,10=2/1,4;
 9/5=7,6=200,14=2/13;
 6/7=2,8=2,9=2,10=2/1;
 99/5=1,9=1/99;
 Leave Link    1 at Tue Oct 10 06:37:41 2017, MaxMem=           0 cpu:         0.4
 (Enter /usr/local/gaussian/2009-E.01/g09/l101.exe)
 -------------
 ccsd(t) iener
 -------------
 Symbolic Z-matrix:
 Charge =  1 Multiplicity = 2
 C                     0.4447    0.21256  -0.44946 
 H                     0.804     1.1375   -0.93364 
 H                    -0.60357   0.76062   1.08366 
 O                    -0.23919   0.01688   0.5302 
 
 NAtoms=      4 NQM=        4 NQMF=       0 NMMI=      0 NMMIF=      0
                NMic=       0 NMicF=      0.
                    Isotopes and Nuclear Properties:
 (Nuclear quadrupole moments (NQMom) in fm**2, nuclear magnetic moments (NMagM)
  in nuclear magnetons)

  Atom         1           2           3           4
 IAtWgt=          12           1           1          16
 AtmWgt=  12.0000000   1.0078250   1.0078250  15.9949146
 NucSpn=           0           1           1           0
 AtZEff=   0.0000000   0.0000000   0.0000000   0.0000000
 NQMom=    0.0000000   0.0000000   0.0000000   0.0000000
 NMagM=    0.0000000   2.7928460   2.7928460   0.0000000
 AtZNuc=   6.0000000   1.0000000   1.0000000   8.0000000
 Leave Link  101 at Tue Oct 10 06:37:41 2017, MaxMem=    33554432 cpu:         0.4
 (Enter /usr/local/gaussian/2009-E.01/g09/l202.exe)
                          Input orientation:                          
 ---------------------------------------------------------------------
 Center     Atomic      Atomic             Coordinates (Angstroms)
 Number     Number       Type             X           Y           Z
 ---------------------------------------------------------------------
      1          6           0        0.444698    0.212562   -0.449463
      2          1           0        0.803997    1.137503   -0.933639
      3          1           0       -0.603572    0.760623    1.083658
      4          8           0       -0.239188    0.016878    0.530201
 ---------------------------------------------------------------------
                    Distance matrix (angstroms):
                    1          2          3          4
     1  C    0.000000
     2  H    1.104101   0.000000
     3  H    1.936414   2.488529   0.000000
     4  O    1.210674   2.118221   0.996116   0.000000
 Stoichiometry    CH2O(1+,2)
 Framework group  CS[SG(CH2O)]
 Deg. of freedom     5
 Full point group                 CS      NOp   2
 Largest Abelian subgroup         CS      NOp   2
 Largest concise Abelian subgroup C1      NOp   1
                         Standard orientation:                         
 ---------------------------------------------------------------------
 Center     Atomic      Atomic             Coordinates (Angstroms)
 Number     Number       Type             X           Y           Z
 ---------------------------------------------------------------------
      1          6           0        0.103549    0.667831    0.000000
      2          1           0       -0.712006    1.412081    0.000000
      3          1           0       -0.737674   -1.076315   -0.000000
      4          8           0        0.103549   -0.542844   -0.000000
 ---------------------------------------------------------------------
 Rotational constants (GHZ):    393.3882266     38.1569469     34.7831342
 Leave Link  202 at Tue Oct 10 06:37:42 2017, MaxMem=    33554432 cpu:         1.4
 (Enter /usr/local/gaussian/2009-E.01/g09/l301.exe)
 Standard basis: 6-311++G(d,p) (5D, 7F)
 Ernie: Thresh=  0.10000D-02 Tol=  0.10000D-05 Strict=F.
 There are    46 symmetry adapted cartesian basis functions of A'  symmetry.
 There are    14 symmetry adapted cartesian basis functions of A"  symmetry.
 There are    44 symmetry adapted basis functions of A'  symmetry.
 There are    14 symmetry adapted basis functions of A"  symmetry.
    58 basis functions,    90 primitive gaussians,    60 cartesian basis functions
     8 alpha electrons        7 beta electrons
       nuclear repulsion energy        31.9569664396 Hartrees.
 IExCor=    0 DFT=F Ex=HF Corr=None ExCW=0 ScaHFX=  1.000000
 ScaDFX=  1.000000  1.000000  1.000000  1.000000 ScalE2=  1.000000  1.000000
 IRadAn=      0 IRanWt=     -1 IRanGd=            0 ICorTp=0 IEmpDi=  4
 NAtoms=    4 NActive=    4 NUniq=    4 SFac= 1.00D+00 NAtFMM=   60 NAOKFM=F Big=F
 Integral buffers will be    131072 words long.
 Raffenetti 2 integral format.
 Two-electron integral symmetry is turned on.
 Leave Link  301 at Tue Oct 10 06:37:42 2017, MaxMem=    33554432 cpu:         0.4
 (Enter /usr/local/gaussian/2009-E.01/g09/l302.exe)
 NPDir=0 NMtPBC=     1 NCelOv=     1 NCel=       1 NClECP=     1 NCelD=      1
         NCelK=      1 NCelE2=     1 NClLst=     1 CellRange=     0.0.
 One-electron integrals computed using PRISM.
 NBasis=    58 RedAO= T EigKep=  2.41D-03  NBF=    44    14
 NBsUse=    58 1.00D-06 EigRej= -1.00D+00 NBFU=    44    14
 Leave Link  302 at Tue Oct 10 06:37:42 2017, MaxMem=    33554432 cpu:         1.1
 (Enter /usr/local/gaussian/2009-E.01/g09/l303.exe)
 DipDrv:  MaxL=1.
 Leave Link  303 at Tue Oct 10 06:37:42 2017, MaxMem=    33554432 cpu:         0.2
 (Enter /usr/local/gaussian/2009-E.01/g09/l401.exe)
 ExpMin= 3.60D-02 ExpMax= 8.59D+03 ExpMxC= 1.30D+03 IAcc=3 IRadAn=         5 AccDes= 0.00D+00
 Harris functional with IExCor=  205 and IRadAn=       5 diagonalized for initial guess.
 HarFok:  IExCor=  205 AccDes= 0.00D+00 IRadAn=         5 IDoV= 1 UseB2=F ITyADJ=14
 ICtDFT=  3500011 ScaDFX=  1.000000  1.000000  1.000000  1.000000
 FoFCou: FMM=F IPFlag=           0 FMFlag=      100000 FMFlg1=           0
         NFxFlg=           0 DoJE=T BraDBF=F KetDBF=T FulRan=T
         wScrn=  0.000000 ICntrl=     500 IOpCl=  0 I1Cent=   200000004 NGrid=           0
         NMat0=    1 NMatS0=      1 NMatT0=    0 NMatD0=    1 NMtDS0=    0 NMtDT0=    0
 Petite list used in FoFCou.
 Harris En= -113.617006388009    
 JPrj=0 DoOrth=F DoCkMO=F.
 Initial guess orbital symmetries:
 Alpha Orbitals:
       Occupied  (A') (A') (A') (A') (A') (A') (A") (A')
       Virtual   (A") (A') (A') (A') (A") (A') (A') (A') (A') (A')
                 (A") (A') (A') (A') (A') (A') (A") (A') (A') (A')
                 (A') (A") (A') (A") (A') (A") (A') (A") (A') (A')
                 (A') (A") (A') (A') (A') (A') (A") (A') (A') (A")
                 (A") (A') (A') (A') (A') (A") (A') (A') (A') (A')
 Beta  Orbitals:
       Occupied  (A') (A') (A') (A') (A') (A') (A")
       Virtual   (A') (A") (A') (A') (A') (A") (A') (A') (A') (A')
                 (A') (A") (A') (A') (A') (A') (A') (A") (A') (A')
                 (A') (A') (A") (A') (A") (A') (A") (A') (A") (A')
                 (A') (A') (A") (A') (A') (A') (A') (A") (A') (A')
                 (A") (A") (A') (A') (A') (A') (A") (A') (A') (A')
                 (A')
 The electronic state of the initial guess is 2-A'.
 Initial guess <Sx>= 0.0000 <Sy>= 0.0000 <Sz>= 0.5000 <S**2>= 0.7500 S= 0.5000
 Leave Link  401 at Tue Oct 10 06:37:42 2017, MaxMem=    33554432 cpu:         1.2
 (Enter /usr/local/gaussian/2009-E.01/g09/l502.exe)
 UHF open shell SCF:
 Using DIIS extrapolation, IDIIS=  1040.
 Integral symmetry usage will be decided dynamically.
 Keep R1 and R2 ints in memory in symmetry-blocked form, NReq=2454187.
 IVT=       30304 IEndB=       30304 NGot=    33554432 MDV=    31939761
 LenX=    31939761 LenY=    31935720
 Requested convergence on RMS density matrix=1.00D-08 within 128 cycles.
 Requested convergence on MAX density matrix=1.00D-06.
 Requested convergence on             energy=1.00D-06.
 No special actions if energy rises.
 FoFCou: FMM=F IPFlag=           0 FMFlag=           0 FMFlg1=           0
         NFxFlg=           0 DoJE=F BraDBF=F KetDBF=F FulRan=T
         wScrn=  0.000000 ICntrl=     600 IOpCl=  0 I1Cent=           0 NGrid=           0
         NMat0=    1 NMatS0=   1711 NMatT0=    0 NMatD0=    1 NMtDS0=    0 NMtDT0=    0
 Petite list used in FoFCou.

 Cycle   1  Pass 1  IDiag  1:
 E= -113.485368653552    
 DIIS: error= 6.20D-02 at cycle   1 NSaved=   1.
 NSaved= 1 IEnMin= 1 EnMin= -113.485368653552     IErMin= 1 ErrMin= 6.20D-02
 ErrMax= 6.20D-02  0.00D+00 EMaxC= 1.00D-01 BMatC= 6.12D-01 BMatP= 6.12D-01
 IDIUse=3 WtCom= 3.80D-01 WtEn= 6.20D-01
 Coeff-Com:  0.100D+01
 Coeff-En:   0.100D+01
 Coeff:      0.100D+01
 Gap=     0.532 Goal=   None    Shift=    0.000
 Gap=     0.694 Goal=   None    Shift=    0.000
 GapD=    0.532 DampG=2.000 DampE=0.500 DampFc=1.0000 IDamp=-1.
 RMSDP=2.96D-03 MaxDP=3.97D-02              OVMax= 6.43D-02

 Cycle   2  Pass 1  IDiag  1:
 E= -113.528511801566     Delta-E=       -0.043143148014 Rises=F Damp=F
 DIIS: error= 1.09D-02 at cycle   2 NSaved=   2.
 NSaved= 2 IEnMin= 2 EnMin= -113.528511801566     IErMin= 2 ErrMin= 1.09D-02
 ErrMax= 1.09D-02  0.00D+00 EMaxC= 1.00D-01 BMatC= 1.61D-02 BMatP= 6.12D-01
 IDIUse=3 WtCom= 8.91D-01 WtEn= 1.09D-01
 Coeff-Com: -0.599D-02 0.101D+01
 Coeff-En:   0.000D+00 0.100D+01
 Coeff:     -0.533D-02 0.101D+01
 Gap=     0.543 Goal=   None    Shift=    0.000
 Gap=     0.726 Goal=   None    Shift=    0.000
 RMSDP=1.13D-03 MaxDP=1.59D-02 DE=-4.31D-02 OVMax= 4.31D-02

 Cycle   3  Pass 1  IDiag  1:
 E= -113.532825776533     Delta-E=       -0.004313974967 Rises=F Damp=F
 DIIS: error= 5.89D-03 at cycle   3 NSaved=   3.
 NSaved= 3 IEnMin= 3 EnMin= -113.532825776533     IErMin= 3 ErrMin= 5.89D-03
 ErrMax= 5.89D-03  0.00D+00 EMaxC= 1.00D-01 BMatC= 7.64D-03 BMatP= 1.61D-02
 IDIUse=3 WtCom= 9.41D-01 WtEn= 5.89D-02
 Coeff-Com: -0.341D-01 0.381D+00 0.653D+00
 Coeff-En:   0.000D+00 0.000D+00 0.100D+01
 Coeff:     -0.321D-01 0.359D+00 0.674D+00
 Gap=     0.550 Goal=   None    Shift=    0.000
 Gap=     0.714 Goal=   None    Shift=    0.000
 RMSDP=4.30D-04 MaxDP=8.61D-03 DE=-4.31D-03 OVMax= 1.23D-02

 Cycle   4  Pass 1  IDiag  1:
 E= -113.534389197100     Delta-E=       -0.001563420567 Rises=F Damp=F
 DIIS: error= 2.18D-03 at cycle   4 NSaved=   4.
 NSaved= 4 IEnMin= 4 EnMin= -113.534389197100     IErMin= 4 ErrMin= 2.18D-03
 ErrMax= 2.18D-03  0.00D+00 EMaxC= 1.00D-01 BMatC= 5.56D-04 BMatP= 7.64D-03
 IDIUse=3 WtCom= 9.78D-01 WtEn= 2.18D-02
 Coeff-Com:  0.136D-01-0.241D+00-0.238D+00 0.147D+01
 Coeff-En:   0.000D+00 0.000D+00 0.000D+00 0.100D+01
 Coeff:      0.133D-01-0.236D+00-0.232D+00 0.146D+01
 Gap=     0.555 Goal=   None    Shift=    0.000
 Gap=     0.721 Goal=   None    Shift=    0.000
 RMSDP=3.78D-04 MaxDP=6.44D-03 DE=-1.56D-03 OVMax= 1.99D-02

 Cycle   5  Pass 1  IDiag  1:
 E= -113.534926466010     Delta-E=       -0.000537268910 Rises=F Damp=F
 DIIS: error= 1.21D-03 at cycle   5 NSaved=   5.
 NSaved= 5 IEnMin= 5 EnMin= -113.534926466010     IErMin= 5 ErrMin= 1.21D-03
 ErrMax= 1.21D-03  0.00D+00 EMaxC= 1.00D-01 BMatC= 1.03D-04 BMatP= 5.56D-04
 IDIUse=3 WtCom= 9.88D-01 WtEn= 1.21D-02
 Coeff-Com: -0.162D-02 0.539D-01 0.200D-01-0.510D+00 0.144D+01
 Coeff-En:   0.000D+00 0.000D+00 0.000D+00 0.000D+00 0.100D+01
 Coeff:     -0.160D-02 0.532D-01 0.197D-01-0.504D+00 0.143D+01
 Gap=     0.555 Goal=   None    Shift=    0.000
 Gap=     0.723 Goal=   None    Shift=    0.000
 RMSDP=1.49D-04 MaxDP=2.22D-03 DE=-5.37D-04 OVMax= 7.88D-03

 Cycle   6  Pass 1  IDiag  1:
 E= -113.535046871701     Delta-E=       -0.000120405691 Rises=F Damp=F
 DIIS: error= 9.19D-04 at cycle   6 NSaved=   6.
 NSaved= 6 IEnMin= 6 EnMin= -113.535046871701     IErMin= 6 ErrMin= 9.19D-04
 ErrMax= 9.19D-04  0.00D+00 EMaxC= 1.00D-01 BMatC= 3.75D-05 BMatP= 1.03D-04
 IDIUse=3 WtCom= 9.91D-01 WtEn= 9.19D-03
 Coeff-Com: -0.240D-02 0.326D-01 0.598D-01-0.986D-01-0.775D+00 0.178D+01
 Coeff-En:   0.000D+00 0.000D+00 0.000D+00 0.000D+00 0.000D+00 0.100D+01
 Coeff:     -0.238D-02 0.323D-01 0.592D-01-0.977D-01-0.767D+00 0.178D+01
 Gap=     0.554 Goal=   None    Shift=    0.000
 Gap=     0.724 Goal=   None    Shift=    0.000
 RMSDP=1.08D-04 MaxDP=2.09D-03 DE=-1.20D-04 OVMax= 7.11D-03

 Cycle   7  Pass 1  IDiag  1:
 E= -113.535107880818     Delta-E=       -0.000061009117 Rises=F Damp=F
 DIIS: error= 6.01D-04 at cycle   7 NSaved=   7.
 NSaved= 7 IEnMin= 7 EnMin= -113.535107880818     IErMin= 7 ErrMin= 6.01D-04
 ErrMax= 6.01D-04  0.00D+00 EMaxC= 1.00D-01 BMatC= 1.27D-05 BMatP= 3.75D-05
 IDIUse=3 WtCom= 9.94D-01 WtEn= 6.01D-03
 Coeff-Com:  0.165D-02-0.328D-01-0.337D-01 0.177D+00 0.112D+00-0.122D+01
 Coeff-Com:  0.199D+01
 Coeff-En:   0.000D+00 0.000D+00 0.000D+00 0.000D+00 0.000D+00 0.000D+00
 Coeff-En:   0.100D+01
 Coeff:      0.164D-02-0.326D-01-0.335D-01 0.176D+00 0.112D+00-0.121D+01
 Coeff:      0.199D+01
 Gap=     0.554 Goal=   None    Shift=    0.000
 Gap=     0.726 Goal=   None    Shift=    0.000
 RMSDP=8.24D-05 MaxDP=1.93D-03 DE=-6.10D-05 OVMax= 6.49D-03

 Cycle   8  Pass 1  IDiag  1:
 E= -113.535135199816     Delta-E=       -0.000027318998 Rises=F Damp=F
 DIIS: error= 2.79D-04 at cycle   8 NSaved=   8.
 NSaved= 8 IEnMin= 8 EnMin= -113.535135199816     IErMin= 8 ErrMin= 2.79D-04
 ErrMax= 2.79D-04  0.00D+00 EMaxC= 1.00D-01 BMatC= 3.48D-06 BMatP= 1.27D-05
 IDIUse=3 WtCom= 9.97D-01 WtEn= 2.79D-03
 Coeff-Com:  0.174D-04 0.414D-02 0.102D-03-0.567D-01 0.250D+00-0.137D+00
 Coeff-Com: -0.884D+00 0.182D+01
 Coeff-En:   0.000D+00 0.000D+00 0.000D+00 0.000D+00 0.000D+00 0.000D+00
 Coeff-En:   0.000D+00 0.100D+01
 Coeff:      0.173D-04 0.413D-02 0.101D-03-0.566D-01 0.249D+00-0.136D+00
 Coeff:     -0.881D+00 0.182D+01
 Gap=     0.554 Goal=   None    Shift=    0.000
 Gap=     0.726 Goal=   None    Shift=    0.000
 RMSDP=5.35D-05 MaxDP=1.25D-03 DE=-2.73D-05 OVMax= 4.18D-03

 Cycle   9  Pass 1  IDiag  1:
 E= -113.535143102682     Delta-E=       -0.000007902866 Rises=F Damp=F
 DIIS: error= 9.08D-05 at cycle   9 NSaved=   9.
 NSaved= 9 IEnMin= 9 EnMin= -113.535143102682     IErMin= 9 ErrMin= 9.08D-05
 ErrMax= 9.08D-05  0.00D+00 EMaxC= 1.00D-01 BMatC= 4.79D-07 BMatP= 3.48D-06
 IDIUse=1 WtCom= 1.00D+00 WtEn= 0.00D+00
 Coeff-Com: -0.429D-03 0.689D-02 0.854D-02-0.274D-01-0.118D+00 0.335D+00
 Coeff-Com: -0.117D+00-0.694D+00 0.161D+01
 Coeff:     -0.429D-03 0.689D-02 0.854D-02-0.274D-01-0.118D+00 0.335D+00
 Coeff:     -0.117D+00-0.694D+00 0.161D+01
 Gap=     0.554 Goal=   None    Shift=    0.000
 Gap=     0.726 Goal=   None    Shift=    0.000
 RMSDP=1.92D-05 MaxDP=4.07D-04 DE=-7.90D-06 OVMax= 1.40D-03

 Cycle  10  Pass 1  IDiag  1:
 E= -113.535143975846     Delta-E=       -0.000000873164 Rises=F Damp=F
 DIIS: error= 1.90D-05 at cycle  10 NSaved=  10.
 NSaved=10 IEnMin=10 EnMin= -113.535143975846     IErMin=10 ErrMin= 1.90D-05
 ErrMax= 1.90D-05  0.00D+00 EMaxC= 1.00D-01 BMatC= 3.78D-08 BMatP= 4.79D-07
 IDIUse=1 WtCom= 1.00D+00 WtEn= 0.00D+00
 Coeff-Com:  0.153D-03-0.293D-02-0.316D-02 0.165D-01 0.138D-01-0.105D+00
 Coeff-Com:  0.152D+00-0.165D-02-0.496D+00 0.143D+01
 Coeff:      0.153D-03-0.293D-02-0.316D-02 0.165D-01 0.138D-01-0.105D+00
 Coeff:      0.152D+00-0.165D-02-0.496D+00 0.143D+01
 Gap=     0.554 Goal=   None    Shift=    0.000
 Gap=     0.726 Goal=   None    Shift=    0.000
 RMSDP=4.27D-06 MaxDP=7.42D-05 DE=-8.73D-07 OVMax= 2.42D-04

 Cycle  11  Pass 1  IDiag  1:
 E= -113.535144020835     Delta-E=       -0.000000044989 Rises=F Damp=F
 DIIS: error= 4.42D-06 at cycle  11 NSaved=  11.
 NSaved=11 IEnMin=11 EnMin= -113.535144020835     IErMin=11 ErrMin= 4.42D-06
 ErrMax= 4.42D-06  0.00D+00 EMaxC= 1.00D-01 BMatC= 3.89D-09 BMatP= 3.78D-08
 IDIUse=1 WtCom= 1.00D+00 WtEn= 0.00D+00
 Coeff-Com: -0.568D-04 0.111D-02 0.109D-02-0.695D-02 0.182D-02 0.309D-01
 Coeff-Com: -0.766D-01 0.687D-01 0.115D+00-0.768D+00 0.163D+01
 Coeff:     -0.568D-04 0.111D-02 0.109D-02-0.695D-02 0.182D-02 0.309D-01
 Coeff:     -0.766D-01 0.687D-01 0.115D+00-0.768D+00 0.163D+01
 Gap=     0.554 Goal=   None    Shift=    0.000
 Gap=     0.726 Goal=   None    Shift=    0.000
 RMSDP=1.28D-06 MaxDP=2.23D-05 DE=-4.50D-08 OVMax= 3.83D-05

 Cycle  12  Pass 1  IDiag  1:
 E= -113.535144024404     Delta-E=       -0.000000003569 Rises=F Damp=F
 DIIS: error= 1.44D-06 at cycle  12 NSaved=  12.
 NSaved=12 IEnMin=12 EnMin= -113.535144024404     IErMin=12 ErrMin= 1.44D-06
 ErrMax= 1.44D-06  0.00D+00 EMaxC= 1.00D-01 BMatC= 3.16D-10 BMatP= 3.89D-09
 IDIUse=1 WtCom= 1.00D+00 WtEn= 0.00D+00
 Coeff-Com:  0.113D-04-0.214D-03-0.212D-03 0.148D-02-0.190D-02-0.408D-02
 Coeff-Com:  0.191D-01-0.286D-01-0.722D-02 0.224D+00-0.768D+00 0.157D+01
 Coeff:      0.113D-04-0.214D-03-0.212D-03 0.148D-02-0.190D-02-0.408D-02
 Coeff:      0.191D-01-0.286D-01-0.722D-02 0.224D+00-0.768D+00 0.157D+01
 Gap=     0.554 Goal=   None    Shift=    0.000
 Gap=     0.726 Goal=   None    Shift=    0.000
 RMSDP=3.89D-07 MaxDP=6.55D-06 DE=-3.57D-09 OVMax= 1.11D-05

 Cycle  13  Pass 1  IDiag  1:
 E= -113.535144024676     Delta-E=       -0.000000000272 Rises=F Damp=F
 DIIS: error= 4.50D-07 at cycle  13 NSaved=  13.
 NSaved=13 IEnMin=13 EnMin= -113.535144024676     IErMin=13 ErrMin= 4.50D-07
 ErrMax= 4.50D-07  0.00D+00 EMaxC= 1.00D-01 BMatC= 1.86D-11 BMatP= 3.16D-10
 IDIUse=1 WtCom= 1.00D+00 WtEn= 0.00D+00
 Coeff-Com: -0.104D-05 0.108D-04 0.328D-04-0.119D-03 0.463D-03-0.378D-03
 Coeff-Com: -0.127D-02 0.409D-02-0.374D-02-0.231D-01 0.138D+00-0.509D+00
 Coeff-Com:  0.139D+01
 Coeff:     -0.104D-05 0.108D-04 0.328D-04-0.119D-03 0.463D-03-0.378D-03
 Coeff:     -0.127D-02 0.409D-02-0.374D-02-0.231D-01 0.138D+00-0.509D+00
 Coeff:      0.139D+01
 Gap=     0.554 Goal=   None    Shift=    0.000
 Gap=     0.726 Goal=   None    Shift=    0.000
 RMSDP=8.09D-08 MaxDP=1.36D-06 DE=-2.72D-10 OVMax= 2.30D-06

 Cycle  14  Pass 1  IDiag  1:
 E= -113.535144024690     Delta-E=       -0.000000000014 Rises=F Damp=F
 DIIS: error= 9.81D-08 at cycle  14 NSaved=  14.
 NSaved=14 IEnMin=14 EnMin= -113.535144024690     IErMin=14 ErrMin= 9.81D-08
 ErrMax= 9.81D-08  0.00D+00 EMaxC= 1.00D-01 BMatC= 1.24D-12 BMatP= 1.86D-11
 IDIUse=1 WtCom= 1.00D+00 WtEn= 0.00D+00
 Coeff-Com: -0.335D-06 0.887D-05 0.193D-05-0.479D-04-0.103D-03 0.438D-03
 Coeff-Com: -0.522D-03-0.364D-03 0.276D-02-0.464D-02-0.106D-01 0.120D+00
 Coeff-Com: -0.605D+00 0.150D+01
 Coeff:     -0.335D-06 0.887D-05 0.193D-05-0.479D-04-0.103D-03 0.438D-03
 Coeff:     -0.522D-03-0.364D-03 0.276D-02-0.464D-02-0.106D-01 0.120D+00
 Coeff:     -0.605D+00 0.150D+01
 Gap=     0.554 Goal=   None    Shift=    0.000
 Gap=     0.726 Goal=   None    Shift=    0.000
 RMSDP=2.01D-08 MaxDP=2.09D-07 DE=-1.39D-11 OVMax= 7.55D-07

 Cycle  15  Pass 1  IDiag  1:
 E= -113.535144024691     Delta-E=       -0.000000000001 Rises=F Damp=F
 DIIS: error= 1.54D-08 at cycle  15 NSaved=  15.
 NSaved=15 IEnMin=15 EnMin= -113.535144024691     IErMin=15 ErrMin= 1.54D-08
 ErrMax= 1.54D-08  0.00D+00 EMaxC= 1.00D-01 BMatC= 5.76D-14 BMatP= 1.24D-12
 IDIUse=1 WtCom= 1.00D+00 WtEn= 0.00D+00
 Coeff-Com:  0.124D-06-0.298D-05-0.183D-06 0.177D-04 0.639D-05-0.108D-03
 Coeff-Com:  0.224D-03-0.115D-03-0.663D-03 0.255D-02-0.301D-02-0.171D-01
 Coeff-Com:  0.144D+00-0.549D+00 0.142D+01
 Coeff:      0.124D-06-0.298D-05-0.183D-06 0.177D-04 0.639D-05-0.108D-03
 Coeff:      0.224D-03-0.115D-03-0.663D-03 0.255D-02-0.301D-02-0.171D-01
 Coeff:      0.144D+00-0.549D+00 0.142D+01
 Gap=     0.554 Goal=   None    Shift=    0.000
 Gap=     0.726 Goal=   None    Shift=    0.000
 RMSDP=4.24D-09 MaxDP=3.77D-08 DE=-8.53D-13 OVMax= 1.67D-07

 SCF Done:  E(UHF) =  -113.535144025     A.U. after   15 cycles
            NFock= 15  Conv=0.42D-08     -V/T= 2.0010
 <Sx>= 0.0000 <Sy>= 0.0000 <Sz>= 0.5000 <S**2>= 0.7619 S= 0.5059
 <L.S>= 0.000000000000E+00
 KE= 1.134268526861D+02 PE=-3.261640208953D+02 EE= 6.724505774490D+01
 Annihilation of the first spin contaminant:
 S**2 before annihilation     0.7619,   after     0.7501
 Leave Link  502 at Tue Oct 10 06:37:43 2017, MaxMem=    33554432 cpu:         3.7
 (Enter /usr/local/gaussian/2009-E.01/g09/l801.exe)
 Windowed orbitals will be sorted by symmetry type.
 ExpMin= 3.60D-02 ExpMax= 8.59D+03 ExpMxC= 1.30D+03 IAcc=3 IRadAn=         5 AccDes= 0.00D+00
 HarFok:  IExCor=  205 AccDes= 0.00D+00 IRadAn=         5 IDoV=-2 UseB2=F ITyADJ=14
 ICtDFT= 12500011 ScaDFX=  1.000000  1.000000  1.000000  1.000000
 Largest valence mixing into a core orbital is  1.05D-04
 Largest core mixing into a valence orbital is  2.46D-05
 Largest valence mixing into a core orbital is  1.46D-04
 Largest core mixing into a valence orbital is  2.55D-05
 Range of M.O.s used for correlation:     3    58
 NBasis=    58 NAE=     8 NBE=     7 NFC=     2 NFV=     0
 NROrb=     56 NOA=     6 NOB=     5 NVA=    50 NVB=    51

 **** Warning!!: The largest beta MO coefficient is  0.10300231D+02

 Leave Link  801 at Tue Oct 10 06:37:43 2017, MaxMem=    33554432 cpu:         1.3
 (Enter /usr/local/gaussian/2009-E.01/g09/l804.exe)
 Open-shell transformation, MDV=    33554432 ITran=4 ISComp=2.
 Semi-Direct transformation.
 ModeAB=           2 MOrb=             6 LenV=      33327589
 LASXX=       258387 LTotXX=      258387 LenRXX=      258387
 LTotAB=      278628 MaxLAS=      614880 LenRXY=      614880
 NonZer=      643104 LenScr=     1571840 LnRSAI=           0
 LnScr1=           0 LExtra=           0 Total=      2445107
 MaxDsk=          -1 SrtSym=           F ITran=            4
 DoSDTr:  NPSUse=  8
 JobTyp=1 Pass  1:  I=   1 to   6.
 (rs|ai) integrals will be sorted in core.
 Complete sort for first half transformation.
 First half transformation complete.
 Complete sort for second half transformation.
 Second half transformation complete.
 ModeAB=           2 MOrb=             5 LenV=      33327589
 LASXX=       216693 LTotXX=      216693 LenRXX=      512400
 LTotAB=      184958 MaxLAS=      512400 LenRXY=      184958
 NonZer=      535920 LenScr=     1571840 LnRSAI=           0
 LnScr1=           0 LExtra=           0 Total=      2269198
 MaxDsk=          -1 SrtSym=           F ITran=            4
 DoSDTr:  NPSUse=  8
 JobTyp=2 Pass  1:  I=   1 to   5.
 (rs|ai) integrals will be sorted in core.
 Complete sort for first half transformation.
 First half transformation complete.
 Complete sort for second half transformation.
 Second half transformation complete.
 Spin components of T(2) and E(2):
     alpha-alpha T2 =       0.1122871417D-01 E2=     -0.4108124069D-01
     alpha-beta  T2 =       0.6053493081D-01 E2=     -0.2207125044D+00
     beta-beta   T2 =       0.9170444592D-02 E2=     -0.3413756856D-01
 ANorm=    0.1039679801D+01
 E2 =    -0.2959313137D+00 EUMP2 =    -0.11383107533836D+03
 (S**2,0)=  0.76185D+00           (S**2,1)=  0.75553D+00
 E(PUHF)=      -0.11353739704D+03        E(PMP2)=      -0.11383272984D+03
 Leave Link  804 at Tue Oct 10 06:37:43 2017, MaxMem=    33554432 cpu:         4.1
 (Enter /usr/local/gaussian/2009-E.01/g09/l913.exe)
 CIDS:  MDV=    33554432.
 Frozen-core window:  NFC=   2 NFV=   0.
 IFCWin=0 IBDFC=1 NFBD=     0     0 NFCmp=     0     0 NFFFC=     0     0
 Using original routines for 1st iteration, S=T.
 Using DD4UQ or CC4UQ for 2nd and later iterations.
 Keep R2 and R3 ints in memory in symmetry-blocked form, NReq=2405706.
 FoFCou: FMM=F IPFlag=           0 FMFlag=           0 FMFlg1=           0
         NFxFlg=           0 DoJE=F BraDBF=F KetDBF=F FulRan=T
         wScrn=  0.000000 ICntrl=     600 IOpCl=  0 I1Cent=           0 NGrid=           0
         NMat0=    1 NMatS0=   1711 NMatT0=    0 NMatD0=    1 NMtDS0=    0 NMtDT0=    0
 Petite list used in FoFCou.
 CCSD(T)
 =======
 Iterations= 200 Convergence= 0.100D-06
 Iteration Nr.   1
 **********************
 DD1Dir will call FoFMem   1 times, MxPair=        86
 NAB=    30 NAA=    15 NBB=    10.
 E(PMP3)=      -0.11383953256D+03
 MP4(R+Q)=  0.42772029D-02
 Maximum subspace dimension=  5
 Norm of the A-vectors is  3.1717878D-01 conv= 1.00D-05.
 RLE energy=       -0.2986373115
 E3=       -0.72447054D-02        EUMP3=      -0.11383832004D+03
 E4(DQ)=   -0.30025042D-02        UMP4(DQ)=   -0.11384132255D+03
 E4(SDQ)=  -0.82032865D-02        UMP4(SDQ)=  -0.11384652333D+03
 VARIATIONAL ENERGIES WITH THE FIRST-ORDER WAVEFUNCTION:
 DE(Corr)= -0.29861307     E(Corr)=     -113.83375710    
 NORM(A)=   0.10433509D+01
 Iteration Nr.   2
 **********************
 DD1Dir will call FoFMem   1 times, MxPair=        86
 NAB=    30 NAA=    15 NBB=    10.
 Norm of the A-vectors is  1.3916948D-01 conv= 1.00D-05.
 RLE energy=       -0.3102819021
 DE(Corr)= -0.30902346     E(CORR)=     -113.84416749     Delta=-1.04D-02
 NORM(A)=   0.10490207D+01
 Iteration Nr.   3
 **********************
 DD1Dir will call FoFMem   1 times, MxPair=        86
 NAB=    30 NAA=    15 NBB=    10.
 Norm of the A-vectors is  4.0991047D-02 conv= 1.00D-05.
 RLE energy=       -0.3115155935
 DE(Corr)= -0.30997700     E(CORR)=     -113.84512103     Delta=-9.54D-04
 NORM(A)=   0.10519135D+01
 Iteration Nr.   4
 **********************
 DD1Dir will call FoFMem   1 times, MxPair=        86
 NAB=    30 NAA=    15 NBB=    10.
 Norm of the A-vectors is  2.1452335D-02 conv= 1.00D-05.
 RLE energy=       -0.3117723534
 DE(Corr)= -0.31155124     E(CORR)=     -113.84669527     Delta=-1.57D-03
 NORM(A)=   0.10530516D+01
 Iteration Nr.   5
 **********************
 DD1Dir will call FoFMem   1 times, MxPair=        86
 NAB=    30 NAA=    15 NBB=    10.
 Norm of the A-vectors is  7.6387529D-03 conv= 1.00D-05.
 RLE energy=       -0.3118664399
 DE(Corr)= -0.31178943     E(CORR)=     -113.84693345     Delta=-2.38D-04
 NORM(A)=   0.10534856D+01
 Iteration Nr.   6
 **********************
 DD1Dir will call FoFMem   1 times, MxPair=        86
 NAB=    30 NAA=    15 NBB=    10.
 Norm of the A-vectors is  3.1658945D-03 conv= 1.00D-05.
 RLE energy=       -0.3118077727
 DE(Corr)= -0.31184664     E(CORR)=     -113.84699066     Delta=-5.72D-05
 NORM(A)=   0.10535061D+01
 Iteration Nr.   7
 **********************
 DD1Dir will call FoFMem   1 times, MxPair=        86
 NAB=    30 NAA=    15 NBB=    10.
 Norm of the A-vectors is  1.3634810D-03 conv= 1.00D-05.
 RLE energy=       -0.3118597268
 DE(Corr)= -0.31185137     E(CORR)=     -113.84699539     Delta=-4.73D-06
 NORM(A)=   0.10535251D+01
 Iteration Nr.   8
 **********************
 DD1Dir will call FoFMem   1 times, MxPair=        86
 NAB=    30 NAA=    15 NBB=    10.
 Norm of the A-vectors is  6.3166730D-04 conv= 1.00D-05.
 RLE energy=       -0.3118486512
 DE(Corr)= -0.31184981     E(CORR)=     -113.84699384     Delta= 1.55D-06
 NORM(A)=   0.10535204D+01
 Iteration Nr.   9
 **********************
 DD1Dir will call FoFMem   1 times, MxPair=        86
 NAB=    30 NAA=    15 NBB=    10.
 Norm of the A-vectors is  2.5653340D-04 conv= 1.00D-05.
 RLE energy=       -0.3118554760
 DE(Corr)= -0.31185483     E(CORR)=     -113.84699886     Delta=-5.02D-06
 NORM(A)=   0.10535206D+01
 Iteration Nr.  10
 **********************
 DD1Dir will call FoFMem   1 times, MxPair=        86
 NAB=    30 NAA=    15 NBB=    10.
 Norm of the A-vectors is  1.0539247D-04 conv= 1.00D-05.
 RLE energy=       -0.3118544584
 DE(Corr)= -0.31185400     E(CORR)=     -113.84699803     Delta= 8.32D-07
 NORM(A)=   0.10535212D+01
 Iteration Nr.  11
 **********************
 DD1Dir will call FoFMem   1 times, MxPair=        86
 NAB=    30 NAA=    15 NBB=    10.
 Norm of the A-vectors is  5.1031597D-05 conv= 1.00D-05.
 RLE energy=       -0.3118553749
 DE(Corr)= -0.31185523     E(CORR)=     -113.84699925     Delta=-1.22D-06
 NORM(A)=   0.10535216D+01
 Iteration Nr.  12
 **********************
 DD1Dir will call FoFMem   1 times, MxPair=        86
 NAB=    30 NAA=    15 NBB=    10.
 Norm of the A-vectors is  2.5337683D-05 conv= 1.00D-05.
 RLE energy=       -0.3118552044
 DE(Corr)= -0.31185509     E(CORR)=     -113.84699911     Delta= 1.41D-07
 NORM(A)=   0.10535220D+01
 Iteration Nr.  13
 **********************
 DD1Dir will call FoFMem   1 times, MxPair=        86
 NAB=    30 NAA=    15 NBB=    10.
 Norm of the A-vectors is  1.2080107D-05 conv= 1.00D-05.
 RLE energy=       -0.3118552841
 DE(Corr)= -0.31185526     E(CORR)=     -113.84699928     Delta=-1.74D-07
 NORM(A)=   0.10535223D+01
 Iteration Nr.  14
 **********************
 DD1Dir will call FoFMem   1 times, MxPair=        86
 NAB=    30 NAA=    15 NBB=    10.
 Norm of the A-vectors is  6.7664665D-06 conv= 1.00D-05.
 RLE energy=       -0.3118553174
 DE(Corr)= -0.31185528     E(CORR)=     -113.84699931     Delta=-2.26D-08
 NORM(A)=   0.10535224D+01
 CI/CC converged in   14 iterations to DelEn=-2.26D-08 Conv= 1.00D-07 ErrA1= 6.77D-06 Conv= 1.00D-05
 Largest amplitude= 7.43D-02
 Time for triples=       23.84 seconds.
 T4(CCSD)= -0.12400972D-01
 T5(CCSD)=  0.13307072D-02
 CCSD(T)= -0.11385806957D+03

 S**2, projected HF & approx projected MPn energies after annihilation of
 unwanted spin states (see manual for definitions):

 spins       (S**2,0) (S**2,1)    PUHF        PMP2        PMP3        PMP4
 annihilated
 s+1         0.74995  0.75002 -113.537397 -113.832730 -113.839532
 s+1,s+2     0.75000  0.75000 -113.537388 -113.832722 -113.839526
 s+1 to s+3  0.75000  0.75000 -113.537388 -113.832722 -113.839526
 s+1 to s+4  0.75000  0.75000 -113.537388 -113.832722 -113.839526
 s+1 to s+5  0.75000  0.75000 -113.537388

 Discarding MO integrals.
 Leave Link  913 at Tue Oct 10 06:38:00 2017, MaxMem=    33554432 cpu:       122.9
 (Enter /usr/local/gaussian/2009-E.01/g09/l601.exe)
 Copying SCF densities to generalized density rwf, IOpCl= 1 IROHF=0.

 **********************************************************************

            Population analysis using the SCF density.

 **********************************************************************

 Orbital symmetries:
 Alpha Orbitals:
       Occupied  (A') (A') (A') (A') (A') (A') (A") (A')
       Virtual   (A") (A') (A') (A') (A") (A') (A') (A') (A') (A")
                 (A') (A') (A') (A') (A') (A') (A") (A') (A') (A')
                 (A') (A") (A") (A') (A') (A") (A') (A") (A') (A')
                 (A') (A") (A') (A') (A') (A') (A') (A") (A') (A")
                 (A') (A") (A') (A') (A') (A") (A') (A') (A') (A')
 Beta  Orbitals:
       Occupied  (A') (A') (A') (A') (A') (A") (A')
       Virtual   (A') (A") (A') (A') (A') (A") (A') (A') (A') (A')
                 (A") (A') (A') (A') (A') (A') (A') (A") (A') (A')
                 (A') (A') (A") (A") (A') (A') (A") (A') (A") (A')
                 (A') (A') (A") (A') (A') (A') (A') (A') (A") (A')
                 (A") (A") (A') (A') (A') (A') (A") (A') (A') (A')
                 (A')
 The electronic state is 2-A'.
 Alpha  occ. eigenvalues --  -20.98171 -11.71982  -1.82639  -1.26324  -1.11379
 Alpha  occ. eigenvalues --   -0.99235  -0.92784  -0.76546
 Alpha virt. eigenvalues --   -0.21161  -0.13967  -0.09791  -0.06417  -0.05323
 Alpha virt. eigenvalues --   -0.03882   0.00177   0.01567   0.05169   0.08663
 Alpha virt. eigenvalues --    0.08695   0.16659   0.17668   0.24284   0.34053
 Alpha virt. eigenvalues --    0.40867   0.42542   0.47624   0.58353   0.73034
 Alpha virt. eigenvalues --    0.92924   0.97173   0.99443   1.02462   1.11311
 Alpha virt. eigenvalues --    1.19679   1.28628   1.38660   1.49857   1.53526
 Alpha virt. eigenvalues --    1.59549   1.78574   1.99582   2.12342   2.45637
 Alpha virt. eigenvalues --    2.48370   2.61354   2.67054   2.82296   3.04882
 Alpha virt. eigenvalues --    3.34599   3.36245   3.50944   3.82305   3.97285
 Alpha virt. eigenvalues --    5.15934   5.45714   5.95268  24.61181  51.21845
  Beta  occ. eigenvalues --  -20.98278 -11.68842  -1.82025  -1.21623  -1.07349
  Beta  occ. eigenvalues --   -0.94288  -0.93241
  Beta virt. eigenvalues --   -0.20626  -0.17673  -0.13563  -0.09529  -0.04971
  Beta virt. eigenvalues --   -0.04534  -0.03458   0.01110   0.02662   0.06497
  Beta virt. eigenvalues --    0.08496   0.08943   0.17457   0.18354   0.26752
  Beta virt. eigenvalues --    0.36610   0.42860   0.44689   0.54641   0.60635
  Beta virt. eigenvalues --    0.76115   0.93869   0.96554   1.02644   1.04307
  Beta virt. eigenvalues --    1.18011   1.25251   1.29104   1.40008   1.53579
  Beta virt. eigenvalues --    1.54792   1.61750   1.80493   2.00958   2.15918
  Beta virt. eigenvalues --    2.47508   2.49820   2.62618   2.69023   2.89179
  Beta virt. eigenvalues --    3.04708   3.36042   3.36273   3.51991   3.82468
  Beta virt. eigenvalues --    3.98085   5.14931   5.46244   5.95350  24.63576
  Beta virt. eigenvalues --   51.21877
          Condensed to atoms (all electrons):
               1          2          3          4
     1  C    4.968336   0.390475  -0.017917   0.338775
     2  H    0.390475   0.379250  -0.005429  -0.037164
     3  H   -0.017917  -0.005429   0.311389   0.312970
     4  O    0.338775  -0.037164   0.312970   7.377605
          Atomic-Atomic Spin Densities.
               1          2          3          4
     1  C    1.139201   0.010062  -0.012043  -0.141909
     2  H    0.010062   0.061799  -0.000165  -0.005178
     3  H   -0.012043  -0.000165   0.055260   0.016454
     4  O   -0.141909  -0.005178   0.016454   0.009300
 Mulliken charges and spin densities:
               1          2
     1  C    0.320331   0.995310
     2  H    0.272868   0.066518
     3  H    0.398987   0.059505
     4  O    0.007814  -0.121334
 Sum of Mulliken charges =   1.00000   1.00000
 Mulliken charges and spin densities with hydrogens summed into heavy atoms:
               1          2
     1  C    0.593198   1.061829
     4  O    0.406802  -0.061829
 Electronic spatial extent (au):  <R**2>=             50.2028
 Charge=              1.0000 electrons
 Dipole moment (field-independent basis, Debye):
    X=             -2.5543    Y=              1.2259    Z=             -0.0000  Tot=              2.8332
 Quadrupole moment (field-independent basis, Debye-Ang):
   XX=             -8.2459   YY=             -4.4605   ZZ=             -9.7300
   XY=              1.0406   XZ=             -0.0000   YZ=              0.0000
 Traceless Quadrupole moment (field-independent basis, Debye-Ang):
   XX=             -0.7671   YY=              3.0183   ZZ=             -2.2512
   XY=              1.0406   XZ=             -0.0000   YZ=              0.0000
 Octapole moment (field-independent basis, Debye-Ang**2):
  XXX=             -3.1350  YYY=             -1.1590  ZZZ=             -0.0000  XYY=             -5.2031
  XXY=             -1.2349  XXZ=             -0.0000  XZZ=             -0.3467  YZZ=             -0.2059
  YYZ=             -0.0000  XYZ=             -0.0000
 Hexadecapole moment (field-independent basis, Debye-Ang**3):
 XXXX=             -9.8042 YYYY=            -27.0589 ZZZZ=             -7.1431 XXXY=              1.0028
 XXXZ=             -0.0000 YYYX=             -0.0232 YYYZ=             -0.0000 ZZZX=             -0.0000
 ZZZY=             -0.0000 XXYY=             -4.6981 XXZZ=             -3.0954 YYZZ=             -7.1762
 XXYZ=             -0.0000 YYXZ=             -0.0000 ZZXY=              0.3498
 N-N= 3.195696643963D+01 E-N=-3.261640209359D+02  KE= 1.134268526861D+02
 Symmetry A'   KE= 1.092874966622D+02
 Symmetry A"   KE= 4.139356023854D+00
 Leave Link  601 at Tue Oct 10 06:38:00 2017, MaxMem=    33554432 cpu:         0.1
 (Enter /usr/local/gaussian/2009-E.01/g09/l9999.exe)
 1\1\ WCSS.PL-BEM-WN1424\SP\UCCSD(T)-FC\6-311++G(d,p)\C1H2O1(1+,2)\ROOT
 \10-Oct-2017\0\\#p ccsd(t,maxcyc=200)/6-311++G(d,p)\\ccsd(t) iener\\1,
 2\C,0,0.444698,0.212562,-0.449463\H,0,0.803997,1.137503,-0.933639\H,0,
 -0.603571637,0.760622708,1.083657874\O,0,-0.23918771,0.016878018,0.530
 200508\\Version=ES64L-G09RevE.01\State=2-A'\HF=-113.535144\MP2=-113.83
 10753\MP3=-113.83832\MP4D=-113.8455998\MP4DQ=-113.8413225\PUHF=-113.53
 7397\PMP2-0=-113.8327298\PMP3-0=-113.8395326\MP4SDQ=-113.8465233\CCSD=
 -113.8469993\CCSD(T)=-113.8580696\S2=0.761851\S2-1=0.755528\S2A=0.7500
 82\RMSD=4.245e-09\PG=CS [SG(C1H2O1)]\\@


 WHAT, THEN, IS TIME?  IF NO ONE ASKS ME, I KNOW WHAT IT IS.
 IF I WISH TO EXPLAIN WHAT IT IS TO HIM WHO ASKS ME, I DO NOT KNOW.
                                   -- ST. AUGUSTINE (FIFTH CENTURY)
 Job cpu time:       0 days  0 hours  2 minutes 20.0 seconds.
 File lengths (MBytes):  RWF=     32 Int=      0 D2E=      0 Chk=      1 Scr=      1
 Normal termination of Gaussian 09 at Tue Oct 10 06:38:01 2017.
