 Entering Gaussian System, Link 0=/usr/local/gaussian/2009-E.01/g09/g09
 Initial command:
 /usr/local/gaussian/2009-E.01/g09/l1.exe "/lustre/scratch/eerd/4986703.achilles/Gau-6540.inp" -scrdir="/lustre/scratch/eerd/4986703.achilles/"
 Entering Link 1 = /usr/local/gaussian/2009-E.01/g09/l1.exe PID=      6542.
  
 Copyright (c) 1988,1990,1992,1993,1995,1998,2003,2009,2015,
            Gaussian, Inc.  All Rights Reserved.
  
 This is part of the Gaussian(R) 09 program.  It is based on
 the Gaussian(R) 03 system (copyright 2003, Gaussian, Inc.),
 the Gaussian(R) 98 system (copyright 1998, Gaussian, Inc.),
 the Gaussian(R) 94 system (copyright 1995, Gaussian, Inc.),
 the Gaussian 92(TM) system (copyright 1992, Gaussian, Inc.),
 the Gaussian 90(TM) system (copyright 1990, Gaussian, Inc.),
 the Gaussian 88(TM) system (copyright 1988, Gaussian, Inc.),
 the Gaussian 86(TM) system (copyright 1986, Carnegie Mellon
 University), and the Gaussian 82(TM) system (copyright 1983,
 Carnegie Mellon University). Gaussian is a federally registered
 trademark of Gaussian, Inc.
  
 This software contains proprietary and confidential information,
 including trade secrets, belonging to Gaussian, Inc.
  
 This software is provided under written license and may be
 used, copied, transmitted, or stored only in accord with that
 written license.
  
 The following legend is applicable only to US Government
 contracts under FAR:
  
                    RESTRICTED RIGHTS LEGEND
  
 Use, reproduction and disclosure by the US Government is
 subject to restrictions as set forth in subparagraphs (a)
 and (c) of the Commercial Computer Software - Restricted
 Rights clause in FAR 52.227-19.
  
 Gaussian, Inc.
 340 Quinnipiac St., Bldg. 40, Wallingford CT 06492
  
  
 ---------------------------------------------------------------
 Warning -- This program may not be used in any manner that
 competes with the business of Gaussian, Inc. or will provide
 assistance to any competitor of Gaussian, Inc.  The licensee
 of this program is prohibited from giving any competitor of
 Gaussian, Inc. access to this program.  By using this program,
 the user acknowledges that Gaussian, Inc. is engaged in the
 business of creating and licensing software in the field of
 computational chemistry and represents and warrants to the
 licensee that it is not a competitor of Gaussian, Inc. and that
 it will not use this program in any manner prohibited above.
 ---------------------------------------------------------------
  

 Cite this work as:
 Gaussian 09, Revision E.01,
 M. J. Frisch, G. W. Trucks, H. B. Schlegel, G. E. Scuseria, 
 M. A. Robb, J. R. Cheeseman, G. Scalmani, V. Barone, B. Mennucci, 
 G. A. Petersson, H. Nakatsuji, M. Caricato, X. Li, H. P. Hratchian, 
 A. F. Izmaylov, J. Bloino, G. Zheng, J. L. Sonnenberg, M. Hada, 
 M. Ehara, K. Toyota, R. Fukuda, J. Hasegawa, M. Ishida, T. Nakajima, 
 Y. Honda, O. Kitao, H. Nakai, T. Vreven, J. A. Montgomery, Jr., 
 J. E. Peralta, F. Ogliaro, M. Bearpark, J. J. Heyd, E. Brothers, 
 K. N. Kudin, V. N. Staroverov, T. Keith, R. Kobayashi, J. Normand, 
 K. Raghavachari, A. Rendell, J. C. Burant, S. S. Iyengar, J. Tomasi, 
 M. Cossi, N. Rega, J. M. Millam, M. Klene, J. E. Knox, J. B. Cross, 
 V. Bakken, C. Adamo, J. Jaramillo, R. Gomperts, R. E. Stratmann, 
 O. Yazyev, A. J. Austin, R. Cammi, C. Pomelli, J. W. Ochterski, 
 R. L. Martin, K. Morokuma, V. G. Zakrzewski, G. A. Voth, 
 P. Salvador, J. J. Dannenberg, S. Dapprich, A. D. Daniels, 
 O. Farkas, J. B. Foresman, J. V. Ortiz, J. Cioslowski, 
 and D. J. Fox, Gaussian, Inc., Wallingford CT, 2013.
 
 ******************************************
 Gaussian 09:  ES64L-G09RevE.01 30-Nov-2015
                10-Oct-2017 
 ******************************************
 %NProcShared=8
 Will use up to    8 processors via shared memory.
 -----------------------------------
 #p ccsd(t,maxcyc=200)/6-311++G(d,p)
 -----------------------------------
 1/38=1/1;
 2/12=2,17=6,18=5,40=1/2;
 3/5=4,6=6,7=1111,11=9,16=1,25=1,30=1/1,2,3;
 4//1;
 5/5=2,38=5/2;
 8/6=4,9=120000,10=2/1,4;
 9/5=7,6=200,14=2/13;
 6/7=2,8=2,9=2,10=2/1;
 99/5=1,9=1/99;
 Leave Link    1 at Tue Oct 10 07:01:11 2017, MaxMem=           0 cpu:         3.5
 (Enter /usr/local/gaussian/2009-E.01/g09/l101.exe)
 -------------
 ccsd(t) iener
 -------------
 Symbolic Z-matrix:
 Charge =  1 Multiplicity = 3
 C                    -0.47431   0.34838  -0.04908 
 C                     0.84454   0.01326  -0.44988 
 H                    -0.17146   1.42985   0.14992 
 H                    -1.20296   0.34918  -0.87289 
 H                    -0.77503  -0.09868   0.90972 
 
 NAtoms=      5 NQM=        5 NQMF=       0 NMMI=      0 NMMIF=      0
                NMic=       0 NMicF=      0.
                    Isotopes and Nuclear Properties:
 (Nuclear quadrupole moments (NQMom) in fm**2, nuclear magnetic moments (NMagM)
  in nuclear magnetons)

  Atom         1           2           3           4           5
 IAtWgt=          12          12           1           1           1
 AtmWgt=  12.0000000  12.0000000   1.0078250   1.0078250   1.0078250
 NucSpn=           0           0           1           1           1
 AtZEff=   0.0000000   0.0000000   0.0000000   0.0000000   0.0000000
 NQMom=    0.0000000   0.0000000   0.0000000   0.0000000   0.0000000
 NMagM=    0.0000000   0.0000000   2.7928460   2.7928460   2.7928460
 AtZNuc=   6.0000000   6.0000000   1.0000000   1.0000000   1.0000000
 Leave Link  101 at Tue Oct 10 07:01:11 2017, MaxMem=    33554432 cpu:         0.4
 (Enter /usr/local/gaussian/2009-E.01/g09/l202.exe)
                          Input orientation:                          
 ---------------------------------------------------------------------
 Center     Atomic      Atomic             Coordinates (Angstroms)
 Number     Number       Type             X           Y           Z
 ---------------------------------------------------------------------
      1          6           0       -0.474314    0.348375   -0.049085
      2          6           0        0.844540    0.013257   -0.449880
      3          1           0       -0.171458    1.429845    0.149920
      4          1           0       -1.202960    0.349184   -0.872893
      5          1           0       -0.775031   -0.098677    0.909716
 ---------------------------------------------------------------------
                    Distance matrix (angstroms):
                    1          2          3          4          5
     1  C    0.000000
     2  C    1.418562   0.000000
     3  H    1.140571   1.843567   0.000000
     4  H    1.099811   2.117556   1.810517   0.000000
     5  H    1.099811   2.117556   1.810517   1.887166   0.000000
 Stoichiometry    C2H3(1+,3)
 Framework group  CS[SG(C2H),X(H2)]
 Deg. of freedom     6
 Full point group                 CS      NOp   2
 Largest Abelian subgroup         CS      NOp   2
 Largest concise Abelian subgroup CS      NOp   2
                         Standard orientation:                         
 ---------------------------------------------------------------------
 Center     Atomic      Atomic             Coordinates (Angstroms)
 Number     Number       Type             X           Y           Z
 ---------------------------------------------------------------------
      1          6           0       -0.029568   -0.506100    0.000000
      2          6           0       -0.029568    0.912462   -0.000000
      3          1           0        1.110605   -0.536242   -0.000000
      4          1           0       -0.377893   -0.950966    0.943583
      5          1           0       -0.377893   -0.950966   -0.943583
 ---------------------------------------------------------------------
 Rotational constants (GHZ):    151.2225744     30.6139902     30.1621272
 Leave Link  202 at Tue Oct 10 07:01:11 2017, MaxMem=    33554432 cpu:         0.1
 (Enter /usr/local/gaussian/2009-E.01/g09/l301.exe)
 Standard basis: 6-311++G(d,p) (5D, 7F)
 Ernie: Thresh=  0.10000D-02 Tol=  0.10000D-05 Strict=F.
 There are    47 symmetry adapted cartesian basis functions of A'  symmetry.
 There are    20 symmetry adapted cartesian basis functions of A"  symmetry.
 There are    45 symmetry adapted basis functions of A'  symmetry.
 There are    20 symmetry adapted basis functions of A"  symmetry.
    65 basis functions,    99 primitive gaussians,    67 cartesian basis functions
     8 alpha electrons        6 beta electrons
       nuclear repulsion energy        27.5729438896 Hartrees.
 IExCor=    0 DFT=F Ex=HF Corr=None ExCW=0 ScaHFX=  1.000000
 ScaDFX=  1.000000  1.000000  1.000000  1.000000 ScalE2=  1.000000  1.000000
 IRadAn=      0 IRanWt=     -1 IRanGd=            0 ICorTp=0 IEmpDi=  4
 NAtoms=    5 NActive=    5 NUniq=    4 SFac= 1.56D+00 NAtFMM=   60 NAOKFM=F Big=F
 Integral buffers will be    131072 words long.
 Raffenetti 2 integral format.
 Two-electron integral symmetry is turned on.
 Leave Link  301 at Tue Oct 10 07:01:11 2017, MaxMem=    33554432 cpu:         1.3
 (Enter /usr/local/gaussian/2009-E.01/g09/l302.exe)
 NPDir=0 NMtPBC=     1 NCelOv=     1 NCel=       1 NClECP=     1 NCelD=      1
         NCelK=      1 NCelE2=     1 NClLst=     1 CellRange=     0.0.
 One-electron integrals computed using PRISM.
 One-electron integral symmetry used in STVInt
 NBasis=    65 RedAO= T EigKep=  2.27D-04  NBF=    45    20
 NBsUse=    65 1.00D-06 EigRej= -1.00D+00 NBFU=    45    20
 Leave Link  302 at Tue Oct 10 07:01:11 2017, MaxMem=    33554432 cpu:         1.1
 (Enter /usr/local/gaussian/2009-E.01/g09/l303.exe)
 DipDrv:  MaxL=1.
 Leave Link  303 at Tue Oct 10 07:01:11 2017, MaxMem=    33554432 cpu:         0.3
 (Enter /usr/local/gaussian/2009-E.01/g09/l401.exe)
 ExpMin= 3.60D-02 ExpMax= 4.56D+03 ExpMxC= 6.82D+02 IAcc=3 IRadAn=         5 AccDes= 0.00D+00
 Harris functional with IExCor=  205 and IRadAn=       5 diagonalized for initial guess.
 HarFok:  IExCor=  205 AccDes= 0.00D+00 IRadAn=         5 IDoV= 1 UseB2=F ITyADJ=14
 ICtDFT=  3500011 ScaDFX=  1.000000  1.000000  1.000000  1.000000
 FoFCou: FMM=F IPFlag=           0 FMFlag=      100000 FMFlg1=           0
         NFxFlg=           0 DoJE=T BraDBF=F KetDBF=T FulRan=T
         wScrn=  0.000000 ICntrl=     500 IOpCl=  0 I1Cent=   200000004 NGrid=           0
         NMat0=    1 NMatS0=      1 NMatT0=    0 NMatD0=    1 NMtDS0=    0 NMtDT0=    0
 Petite list used in FoFCou.
 Harris En= -77.0629305813102    
 JPrj=0 DoOrth=F DoCkMO=F.
 Initial guess orbital symmetries:
 Alpha Orbitals:
       Occupied  (A') (A') (A') (A') (A") (A') (A') (A")
       Virtual   (A') (A') (A') (A") (A') (A') (A') (A") (A') (A")
                 (A') (A') (A") (A') (A') (A') (A') (A') (A") (A')
                 (A") (A') (A") (A') (A') (A') (A') (A") (A') (A')
                 (A") (A") (A") (A') (A") (A') (A') (A') (A') (A")
                 (A') (A') (A") (A') (A') (A") (A') (A") (A') (A")
                 (A') (A') (A') (A") (A') (A') (A')
 Beta  Orbitals:
       Occupied  (A') (A') (A') (A') (A") (A')
       Virtual   (A') (A") (A') (A') (A') (A") (A') (A') (A') (A")
                 (A') (A") (A') (A') (A") (A') (A') (A') (A') (A')
                 (A") (A') (A") (A') (A") (A') (A') (A') (A') (A")
                 (A') (A') (A") (A") (A") (A') (A") (A') (A') (A')
                 (A') (A") (A') (A') (A") (A') (A') (A") (A') (A")
                 (A') (A") (A') (A') (A') (A") (A') (A') (A')
 The electronic state of the initial guess is 3-A".
 Initial guess <Sx>= 0.0000 <Sy>= 0.0000 <Sz>= 1.0000 <S**2>= 2.0000 S= 1.0000
 Leave Link  401 at Tue Oct 10 07:01:11 2017, MaxMem=    33554432 cpu:         1.5
 (Enter /usr/local/gaussian/2009-E.01/g09/l502.exe)
 UHF open shell SCF:
 Using DIIS extrapolation, IDIIS=  1040.
 Integral symmetry usage will be decided dynamically.
 Keep R1 and R2 ints in memory in symmetry-blocked form, NReq=3581524.
 IVT=       33153 IEndB=       33153 NGot=    33554432 MDV=    31154059
 LenX=    31154059 LenY=    31149129
 Requested convergence on RMS density matrix=1.00D-08 within 128 cycles.
 Requested convergence on MAX density matrix=1.00D-06.
 Requested convergence on             energy=1.00D-06.
 No special actions if energy rises.
 FoFCou: FMM=F IPFlag=           0 FMFlag=           0 FMFlg1=           0
         NFxFlg=           0 DoJE=F BraDBF=F KetDBF=F FulRan=T
         wScrn=  0.000000 ICntrl=     600 IOpCl=  0 I1Cent=           0 NGrid=           0
         NMat0=    1 NMatS0=   2145 NMatT0=    0 NMatD0=    1 NMtDS0=    0 NMtDT0=    0
 Petite list used in FoFCou.

 Cycle   1  Pass 1  IDiag  1:
 E= -76.8909988901216    
 DIIS: error= 5.33D-02 at cycle   1 NSaved=   1.
 NSaved= 1 IEnMin= 1 EnMin= -76.8909988901216     IErMin= 1 ErrMin= 5.33D-02
 ErrMax= 5.33D-02  0.00D+00 EMaxC= 1.00D-01 BMatC= 7.02D-01 BMatP= 7.02D-01
 IDIUse=3 WtCom= 4.67D-01 WtEn= 5.33D-01
 Coeff-Com:  0.100D+01
 Coeff-En:   0.100D+01
 Coeff:      0.100D+01
 Gap=     0.454 Goal=   None    Shift=    0.000
 Gap=     0.445 Goal=   None    Shift=    0.000
 GapD=    0.445 DampG=2.000 DampE=0.500 DampFc=1.0000 IDamp=-1.
 RMSDP=5.94D-03 MaxDP=1.30D-01              OVMax= 1.31D-01

 Cycle   2  Pass 1  IDiag  1:
 E= -76.9828582517389     Delta-E=       -0.091859361617 Rises=F Damp=F
 DIIS: error= 2.82D-02 at cycle   2 NSaved=   2.
 NSaved= 2 IEnMin= 2 EnMin= -76.9828582517389     IErMin= 2 ErrMin= 2.82D-02
 ErrMax= 2.82D-02  0.00D+00 EMaxC= 1.00D-01 BMatC= 7.21D-02 BMatP= 7.02D-01
 IDIUse=3 WtCom= 7.18D-01 WtEn= 2.82D-01
 Coeff-Com:  0.165D+00 0.835D+00
 Coeff-En:   0.000D+00 0.100D+01
 Coeff:      0.119D+00 0.881D+00
 Gap=     0.501 Goal=   None    Shift=    0.000
 Gap=     0.604 Goal=   None    Shift=    0.000
 RMSDP=2.13D-03 MaxDP=4.78D-02 DE=-9.19D-02 OVMax= 6.83D-02

 Cycle   3  Pass 1  IDiag  1:
 E= -77.0023403342288     Delta-E=       -0.019482082490 Rises=F Damp=F
 DIIS: error= 8.25D-03 at cycle   3 NSaved=   3.
 NSaved= 3 IEnMin= 3 EnMin= -77.0023403342288     IErMin= 3 ErrMin= 8.25D-03
 ErrMax= 8.25D-03  0.00D+00 EMaxC= 1.00D-01 BMatC= 8.30D-03 BMatP= 7.21D-02
 IDIUse=3 WtCom= 9.17D-01 WtEn= 8.25D-02
 Coeff-Com: -0.424D-01 0.171D+00 0.871D+00
 Coeff-En:   0.000D+00 0.000D+00 0.100D+01
 Coeff:     -0.389D-01 0.157D+00 0.882D+00
 Gap=     0.473 Goal=   None    Shift=    0.000
 Gap=     0.571 Goal=   None    Shift=    0.000
 RMSDP=8.10D-04 MaxDP=1.59D-02 DE=-1.95D-02 OVMax= 1.70D-02

 Cycle   4  Pass 1  IDiag  1:
 E= -77.0049984470093     Delta-E=       -0.002658112781 Rises=F Damp=F
 DIIS: error= 2.19D-03 at cycle   4 NSaved=   4.
 NSaved= 4 IEnMin= 4 EnMin= -77.0049984470093     IErMin= 4 ErrMin= 2.19D-03
 ErrMax= 2.19D-03  0.00D+00 EMaxC= 1.00D-01 BMatC= 4.35D-04 BMatP= 8.30D-03
 IDIUse=3 WtCom= 9.78D-01 WtEn= 2.19D-02
 Coeff-Com:  0.114D-01-0.989D-01-0.380D+00 0.147D+01
 Coeff-En:   0.000D+00 0.000D+00 0.000D+00 0.100D+01
 Coeff:      0.112D-01-0.967D-01-0.371D+00 0.146D+01
 Gap=     0.475 Goal=   None    Shift=    0.000
 Gap=     0.574 Goal=   None    Shift=    0.000
 RMSDP=4.30D-04 MaxDP=9.49D-03 DE=-2.66D-03 OVMax= 1.19D-02

 Cycle   5  Pass 1  IDiag  1:
 E= -77.0054391733313     Delta-E=       -0.000440726322 Rises=F Damp=F
 DIIS: error= 9.48D-04 at cycle   5 NSaved=   5.
 NSaved= 5 IEnMin= 5 EnMin= -77.0054391733313     IErMin= 5 ErrMin= 9.48D-04
 ErrMax= 9.48D-04  0.00D+00 EMaxC= 1.00D-01 BMatC= 6.20D-05 BMatP= 4.35D-04
 IDIUse=3 WtCom= 9.91D-01 WtEn= 9.48D-03
 Coeff-Com: -0.521D-03 0.224D-01 0.678D-01-0.482D+00 0.139D+01
 Coeff-En:   0.000D+00 0.000D+00 0.000D+00 0.000D+00 0.100D+01
 Coeff:     -0.516D-03 0.222D-01 0.672D-01-0.478D+00 0.139D+01
 Gap=     0.475 Goal=   None    Shift=    0.000
 Gap=     0.575 Goal=   None    Shift=    0.000
 RMSDP=1.27D-04 MaxDP=3.59D-03 DE=-4.41D-04 OVMax= 5.96D-03

 Cycle   6  Pass 1  IDiag  1:
 E= -77.0055146268621     Delta-E=       -0.000075453531 Rises=F Damp=F
 DIIS: error= 4.95D-04 at cycle   6 NSaved=   6.
 NSaved= 6 IEnMin= 6 EnMin= -77.0055146268621     IErMin= 6 ErrMin= 4.95D-04
 ErrMax= 4.95D-04  0.00D+00 EMaxC= 1.00D-01 BMatC= 1.65D-05 BMatP= 6.20D-05
 IDIUse=3 WtCom= 9.95D-01 WtEn= 4.95D-03
 Coeff-Com: -0.254D-02 0.163D-01 0.633D-01-0.158D+00-0.590D+00 0.167D+01
 Coeff-En:   0.000D+00 0.000D+00 0.000D+00 0.000D+00 0.000D+00 0.100D+01
 Coeff:     -0.253D-02 0.162D-01 0.630D-01-0.157D+00-0.587D+00 0.167D+01
 Gap=     0.475 Goal=   None    Shift=    0.000
 Gap=     0.575 Goal=   None    Shift=    0.000
 RMSDP=9.79D-05 MaxDP=2.54D-03 DE=-7.55D-05 OVMax= 4.97D-03

 Cycle   7  Pass 1  IDiag  1:
 E= -77.0055431519501     Delta-E=       -0.000028525088 Rises=F Damp=F
 DIIS: error= 1.77D-04 at cycle   7 NSaved=   7.
 NSaved= 7 IEnMin= 7 EnMin= -77.0055431519501     IErMin= 7 ErrMin= 1.77D-04
 ErrMax= 1.77D-04  0.00D+00 EMaxC= 1.00D-01 BMatC= 2.66D-06 BMatP= 1.65D-05
 IDIUse=3 WtCom= 9.98D-01 WtEn= 1.77D-03
 Coeff-Com:  0.732D-03-0.816D-02-0.280D-01 0.133D+00-0.789D-01-0.505D+00
 Coeff-Com:  0.149D+01
 Coeff-En:   0.000D+00 0.000D+00 0.000D+00 0.000D+00 0.000D+00 0.000D+00
 Coeff-En:   0.100D+01
 Coeff:      0.731D-03-0.814D-02-0.280D-01 0.133D+00-0.787D-01-0.504D+00
 Coeff:      0.149D+01
 Gap=     0.474 Goal=   None    Shift=    0.000
 Gap=     0.576 Goal=   None    Shift=    0.000
 RMSDP=4.02D-05 MaxDP=1.05D-03 DE=-2.85D-05 OVMax= 2.75D-03

 Cycle   8  Pass 1  IDiag  1:
 E= -77.0055481937453     Delta-E=       -0.000005041795 Rises=F Damp=F
 DIIS: error= 7.24D-05 at cycle   8 NSaved=   8.
 NSaved= 8 IEnMin= 8 EnMin= -77.0055481937453     IErMin= 8 ErrMin= 7.24D-05
 ErrMax= 7.24D-05  0.00D+00 EMaxC= 1.00D-01 BMatC= 5.92D-07 BMatP= 2.66D-06
 IDIUse=1 WtCom= 1.00D+00 WtEn= 0.00D+00
 Coeff-Com:  0.216D-03-0.379D-03 0.352D-03-0.249D-01 0.121D+00-0.418D-01
 Coeff-Com: -0.737D+00 0.168D+01
 Coeff:      0.216D-03-0.379D-03 0.352D-03-0.249D-01 0.121D+00-0.418D-01
 Coeff:     -0.737D+00 0.168D+01
 Gap=     0.474 Goal=   None    Shift=    0.000
 Gap=     0.576 Goal=   None    Shift=    0.000
 RMSDP=1.87D-05 MaxDP=2.82D-04 DE=-5.04D-06 OVMax= 1.49D-03

 Cycle   9  Pass 1  IDiag  1:
 E= -77.0055493237899     Delta-E=       -0.000001130045 Rises=F Damp=F
 DIIS: error= 2.57D-05 at cycle   9 NSaved=   9.
 NSaved= 9 IEnMin= 9 EnMin= -77.0055493237899     IErMin= 9 ErrMin= 2.57D-05
 ErrMax= 2.57D-05  0.00D+00 EMaxC= 1.00D-01 BMatC= 1.07D-07 BMatP= 5.92D-07
 IDIUse=1 WtCom= 1.00D+00 WtEn= 0.00D+00
 Coeff-Com: -0.228D-03 0.155D-02 0.482D-02-0.929D-02-0.504D-01 0.966D-01
 Coeff-Com:  0.177D+00-0.101D+01 0.179D+01
 Coeff:     -0.228D-03 0.155D-02 0.482D-02-0.929D-02-0.504D-01 0.966D-01
 Coeff:      0.177D+00-0.101D+01 0.179D+01
 Gap=     0.474 Goal=   None    Shift=    0.000
 Gap=     0.576 Goal=   None    Shift=    0.000
 RMSDP=8.89D-06 MaxDP=1.10D-04 DE=-1.13D-06 OVMax= 6.26D-04

 Cycle  10  Pass 1  IDiag  1:
 E= -77.0055495233859     Delta-E=       -0.000000199596 Rises=F Damp=F
 DIIS: error= 8.13D-06 at cycle  10 NSaved=  10.
 NSaved=10 IEnMin=10 EnMin= -77.0055495233859     IErMin=10 ErrMin= 8.13D-06
 ErrMax= 8.13D-06  0.00D+00 EMaxC= 1.00D-01 BMatC= 1.09D-08 BMatP= 1.07D-07
 IDIUse=1 WtCom= 1.00D+00 WtEn= 0.00D+00
 Coeff-Com:  0.627D-04-0.570D-03-0.217D-02 0.750D-02 0.503D-02-0.368D-01
 Coeff-Com:  0.386D-01 0.161D+00-0.698D+00 0.153D+01
 Coeff:      0.627D-04-0.570D-03-0.217D-02 0.750D-02 0.503D-02-0.368D-01
 Coeff:      0.386D-01 0.161D+00-0.698D+00 0.153D+01
 Gap=     0.474 Goal=   None    Shift=    0.000
 Gap=     0.576 Goal=   None    Shift=    0.000
 RMSDP=2.59D-06 MaxDP=3.38D-05 DE=-2.00D-07 OVMax= 1.22D-04

 Cycle  11  Pass 1  IDiag  1:
 E= -77.0055495392063     Delta-E=       -0.000000015820 Rises=F Damp=F
 DIIS: error= 2.26D-06 at cycle  11 NSaved=  11.
 NSaved=11 IEnMin=11 EnMin= -77.0055495392063     IErMin=11 ErrMin= 2.26D-06
 ErrMax= 2.26D-06  0.00D+00 EMaxC= 1.00D-01 BMatC= 8.36D-10 BMatP= 1.09D-08
 IDIUse=1 WtCom= 1.00D+00 WtEn= 0.00D+00
 Coeff-Com:  0.108D-04-0.660D-04-0.845D-04-0.131D-03 0.275D-02-0.643D-03
 Coeff-Com: -0.217D-01 0.498D-01-0.129D-01-0.323D+00 0.131D+01
 Coeff:      0.108D-04-0.660D-04-0.845D-04-0.131D-03 0.275D-02-0.643D-03
 Coeff:     -0.217D-01 0.498D-01-0.129D-01-0.323D+00 0.131D+01
 Gap=     0.474 Goal=   None    Shift=    0.000
 Gap=     0.576 Goal=   None    Shift=    0.000
 RMSDP=5.80D-07 MaxDP=1.03D-05 DE=-1.58D-08 OVMax= 2.65D-05

 Cycle  12  Pass 1  IDiag  1:
 E= -77.0055495401479     Delta-E=       -0.000000000942 Rises=F Damp=F
 DIIS: error= 5.98D-07 at cycle  12 NSaved=  12.
 NSaved=12 IEnMin=12 EnMin= -77.0055495401479     IErMin=12 ErrMin= 5.98D-07
 ErrMax= 5.98D-07  0.00D+00 EMaxC= 1.00D-01 BMatC= 8.76D-11 BMatP= 8.36D-10
 IDIUse=1 WtCom= 1.00D+00 WtEn= 0.00D+00
 Coeff-Com: -0.573D-05 0.427D-04 0.977D-04-0.118D-03-0.143D-02 0.113D-02
 Coeff-Com:  0.992D-02-0.362D-01 0.674D-01-0.318D-01-0.428D+00 0.142D+01
 Coeff:     -0.573D-05 0.427D-04 0.977D-04-0.118D-03-0.143D-02 0.113D-02
 Coeff:      0.992D-02-0.362D-01 0.674D-01-0.318D-01-0.428D+00 0.142D+01
 Gap=     0.474 Goal=   None    Shift=    0.000
 Gap=     0.576 Goal=   None    Shift=    0.000
 RMSDP=1.65D-07 MaxDP=1.91D-06 DE=-9.42D-10 OVMax= 6.46D-06

 Cycle  13  Pass 1  IDiag  1:
 E= -77.0055495402294     Delta-E=       -0.000000000082 Rises=F Damp=F
 DIIS: error= 2.26D-07 at cycle  13 NSaved=  13.
 NSaved=13 IEnMin=13 EnMin= -77.0055495402294     IErMin=13 ErrMin= 2.26D-07
 ErrMax= 2.26D-07  0.00D+00 EMaxC= 1.00D-01 BMatC= 9.98D-12 BMatP= 8.76D-11
 IDIUse=1 WtCom= 1.00D+00 WtEn= 0.00D+00
 Coeff-Com:  0.195D-05-0.116D-04-0.323D-04-0.930D-05 0.679D-03-0.448D-03
 Coeff-Com: -0.410D-02 0.148D-01-0.309D-01 0.334D-01 0.157D+00-0.852D+00
 Coeff-Com:  0.168D+01
 Coeff:      0.195D-05-0.116D-04-0.323D-04-0.930D-05 0.679D-03-0.448D-03
 Coeff:     -0.410D-02 0.148D-01-0.309D-01 0.334D-01 0.157D+00-0.852D+00
 Coeff:      0.168D+01
 Gap=     0.474 Goal=   None    Shift=    0.000
 Gap=     0.576 Goal=   None    Shift=    0.000
 RMSDP=5.89D-08 MaxDP=6.83D-07 DE=-8.15D-11 OVMax= 2.09D-06

 Cycle  14  Pass 1  IDiag  1:
 E= -77.0055495402400     Delta-E=       -0.000000000011 Rises=F Damp=F
 DIIS: error= 7.39D-08 at cycle  14 NSaved=  14.
 NSaved=14 IEnMin=14 EnMin= -77.0055495402400     IErMin=14 ErrMin= 7.39D-08
 ErrMax= 7.39D-08  0.00D+00 EMaxC= 1.00D-01 BMatC= 1.02D-12 BMatP= 9.98D-12
 IDIUse=1 WtCom= 1.00D+00 WtEn= 0.00D+00
 Coeff-Com: -0.581D-06 0.185D-05 0.946D-05 0.230D-04-0.289D-03 0.270D-03
 Coeff-Com:  0.112D-02-0.443D-02 0.104D-01-0.155D-01-0.454D-01 0.335D+00
 Coeff-Com: -0.927D+00 0.165D+01
 Coeff:     -0.581D-06 0.185D-05 0.946D-05 0.230D-04-0.289D-03 0.270D-03
 Coeff:      0.112D-02-0.443D-02 0.104D-01-0.155D-01-0.454D-01 0.335D+00
 Coeff:     -0.927D+00 0.165D+01
 Gap=     0.474 Goal=   None    Shift=    0.000
 Gap=     0.576 Goal=   None    Shift=    0.000
 RMSDP=1.75D-08 MaxDP=2.53D-07 DE=-1.06D-11 OVMax= 7.19D-07

 Cycle  15  Pass 1  IDiag  1:
 E= -77.0055495402412     Delta-E=       -0.000000000001 Rises=F Damp=F
 DIIS: error= 2.60D-08 at cycle  15 NSaved=  15.
 NSaved=15 IEnMin=15 EnMin= -77.0055495402412     IErMin=15 ErrMin= 2.60D-08
 ErrMax= 2.60D-08  0.00D+00 EMaxC= 1.00D-01 BMatC= 1.19D-13 BMatP= 1.02D-12
 IDIUse=1 WtCom= 1.00D+00 WtEn= 0.00D+00
 Coeff-Com:  0.919D-07 0.491D-06-0.105D-05-0.147D-04 0.813D-04-0.934D-04
 Coeff-Com: -0.177D-03 0.754D-03-0.174D-02 0.293D-02 0.693D-02-0.651D-01
 Coeff-Com:  0.240D+00-0.764D+00 0.158D+01
 Coeff:      0.919D-07 0.491D-06-0.105D-05-0.147D-04 0.813D-04-0.934D-04
 Coeff:     -0.177D-03 0.754D-03-0.174D-02 0.293D-02 0.693D-02-0.651D-01
 Coeff:      0.240D+00-0.764D+00 0.158D+01
 Gap=     0.474 Goal=   None    Shift=    0.000
 Gap=     0.576 Goal=   None    Shift=    0.000
 RMSDP=6.36D-09 MaxDP=1.07D-07 DE=-1.26D-12 OVMax= 2.93D-07

 SCF Done:  E(UHF) =  -77.0055495402     A.U. after   15 cycles
            NFock= 15  Conv=0.64D-08     -V/T= 2.0006
 <Sx>= 0.0000 <Sy>= 0.0000 <Sz>= 1.0000 <S**2>= 2.0118 S= 1.0039
 <L.S>= 0.000000000000E+00
 KE= 7.696103884179D+01 PE=-2.297796547572D+02 EE= 4.824012248556D+01
 Annihilation of the first spin contaminant:
 S**2 before annihilation     2.0118,   after     2.0001
 Leave Link  502 at Tue Oct 10 07:01:14 2017, MaxMem=    33554432 cpu:        14.2
 (Enter /usr/local/gaussian/2009-E.01/g09/l801.exe)
 Windowed orbitals will be sorted by symmetry type.
 ExpMin= 3.60D-02 ExpMax= 4.56D+03 ExpMxC= 6.82D+02 IAcc=3 IRadAn=         5 AccDes= 0.00D+00
 HarFok:  IExCor=  205 AccDes= 0.00D+00 IRadAn=         5 IDoV=-2 UseB2=F ITyADJ=14
 ICtDFT= 12500011 ScaDFX=  1.000000  1.000000  1.000000  1.000000
 Largest valence mixing into a core orbital is  1.03D-04
 Largest core mixing into a valence orbital is  3.44D-05
 Largest valence mixing into a core orbital is  1.82D-04
 Largest core mixing into a valence orbital is  4.74D-05
 Range of M.O.s used for correlation:     3    65
 NBasis=    65 NAE=     8 NBE=     6 NFC=     2 NFV=     0
 NROrb=     63 NOA=     6 NOB=     4 NVA=    57 NVB=    59

 **** Warning!!: The largest alpha MO coefficient is  0.37627933D+02


 **** Warning!!: The largest beta MO coefficient is  0.34374733D+02

 Leave Link  801 at Tue Oct 10 07:01:14 2017, MaxMem=    33554432 cpu:         0.4
 (Enter /usr/local/gaussian/2009-E.01/g09/l804.exe)
 Open-shell transformation, MDV=    33554432 ITran=4 ISComp=2.
 Semi-Direct transformation.
 ModeAB=           4 MOrb=             6 LenV=      33307928
 LASXX=       350794 LTotXX=      350794 LenRXX=      723654
 LTotAB=      372860 MaxLAS=      735210 LenRXY=           0
 NonZer=     1074448 LenScr=     2357760 LnRSAI=      735210
 LnScr1=     1652736 LExtra=           0 Total=      5469360
 MaxDsk=          -1 SrtSym=           T ITran=            4
 DoSDTr:  NPSUse=  8
 JobTyp=1 Pass  1:  I=   1 to   6.
 (rs|ai) integrals will be sorted in core.
 Complete sort for first half transformation.
 First half transformation complete.
 Complete sort for second half transformation.
 Second half transformation complete.
 ModeAB=           4 MOrb=             4 LenV=      33307928
 LASXX=       240492 LTotXX=      240492 LenRXX=      449538
 LTotAB=      209046 MaxLAS=      490140 LenRXY=           0
 NonZer=      690030 LenScr=     1571840 LnRSAI=      490140
 LnScr1=     1469440 LExtra=           0 Total=      3980958
 MaxDsk=          -1 SrtSym=           T ITran=            4
 DoSDTr:  NPSUse=  8
 JobTyp=2 Pass  1:  I=   1 to   4.
 (rs|ai) integrals will be sorted in core.
 Complete sort for first half transformation.
 First half transformation complete.
 Complete sort for second half transformation.
 Second half transformation complete.
 Spin components of T(2) and E(2):
     alpha-alpha T2 =       0.1016438737D-01 E2=     -0.3004247665D-01
     alpha-beta  T2 =       0.5453688882D-01 E2=     -0.1590549383D+00
     beta-beta   T2 =       0.6658268504D-02 E2=     -0.1787769340D-01
 ANorm=    0.1035064995D+01
 E2 =    -0.2069751084D+00 EUMP2 =    -0.77212524648614D+02
 (S**2,0)=  0.20118D+01           (S**2,1)=  0.20047D+01
 E(PUHF)=      -0.77007285488D+02        E(PMP2)=      -0.77213741441D+02
 Leave Link  804 at Tue Oct 10 07:01:14 2017, MaxMem=    33554432 cpu:         3.7
 (Enter /usr/local/gaussian/2009-E.01/g09/l913.exe)
 CIDS:  MDV=    33554432.
 Frozen-core window:  NFC=   2 NFV=   0.
 IFCWin=0 IBDFC=1 NFBD=     0     0 NFCmp=     0     0 NFFFC=     0     0
 Using original routines for 1st iteration, S=T.
 Using DD4UQ or CC4UQ for 2nd and later iterations.
 Keep R2 and R3 ints in memory in symmetry-blocked form, NReq=3549733.
 FoFCou: FMM=F IPFlag=           0 FMFlag=           0 FMFlg1=           0
         NFxFlg=           0 DoJE=F BraDBF=F KetDBF=F FulRan=T
         wScrn=  0.000000 ICntrl=     600 IOpCl=  0 I1Cent=           0 NGrid=           0
         NMat0=    1 NMatS0=   2145 NMatT0=    0 NMatD0=    1 NMtDS0=    0 NMtDT0=    0
 Petite list used in FoFCou.
 CCSD(T)
 =======
 Iterations= 200 Convergence= 0.100D-06
 Iteration Nr.   1
 **********************
 DD1Dir will call FoFMem   1 times, MxPair=        70
 NAB=    24 NAA=    15 NBB=     6.
 E(PMP3)=      -0.77236921527D+02
 MP4(R+Q)=  0.43522336D-02
 Maximum subspace dimension=  5
 Norm of the A-vectors is  2.6594506D-01 conv= 1.00D-05.
 RLE energy=       -0.2279605887
 E3=       -0.23444438D-01        EUMP3=      -0.77235969086D+02
 E4(DQ)=   -0.22031407D-02        UMP4(DQ)=   -0.77238172227D+02
 E4(SDQ)=  -0.46560325D-02        UMP4(SDQ)=  -0.77240625119D+02
 VARIATIONAL ENERGIES WITH THE FIRST-ORDER WAVEFUNCTION:
 DE(Corr)= -0.22602873     E(Corr)=     -77.231578266    
 NORM(A)=   0.10449543D+01
 Iteration Nr.   2
 **********************
 DD1Dir will call FoFMem   1 times, MxPair=        70
 NAB=    24 NAA=    15 NBB=     6.
 Norm of the A-vectors is  1.1250774D-01 conv= 1.00D-05.
 RLE energy=       -0.2356580430
 DE(Corr)= -0.23366937     E(CORR)=     -77.239218907     Delta=-7.64D-03
 NORM(A)=   0.10503643D+01
 Iteration Nr.   3
 **********************
 DD1Dir will call FoFMem   1 times, MxPair=        70
 NAB=    24 NAA=    15 NBB=     6.
 Norm of the A-vectors is  3.7492144D-02 conv= 1.00D-05.
 RLE energy=       -0.2367085127
 DE(Corr)= -0.23554146     E(CORR)=     -77.241091004     Delta=-1.87D-03
 NORM(A)=   0.10532913D+01
 Iteration Nr.   4
 **********************
 DD1Dir will call FoFMem   1 times, MxPair=        70
 NAB=    24 NAA=    15 NBB=     6.
 Norm of the A-vectors is  2.0915364D-02 conv= 1.00D-05.
 RLE energy=       -0.2370647468
 DE(Corr)= -0.23680497     E(CORR)=     -77.242354506     Delta=-1.26D-03
 NORM(A)=   0.10545503D+01
 Iteration Nr.   5
 **********************
 DD1Dir will call FoFMem   1 times, MxPair=        70
 NAB=    24 NAA=    15 NBB=     6.
 Norm of the A-vectors is  7.4991442D-03 conv= 1.00D-05.
 RLE energy=       -0.2370999995
 DE(Corr)= -0.23704314     E(CORR)=     -77.242592683     Delta=-2.38D-04
 NORM(A)=   0.10548898D+01
 Iteration Nr.   6
 **********************
 DD1Dir will call FoFMem   1 times, MxPair=        70
 NAB=    24 NAA=    15 NBB=     6.
 Norm of the A-vectors is  3.0809541D-03 conv= 1.00D-05.
 RLE energy=       -0.2370620309
 DE(Corr)= -0.23708969     E(CORR)=     -77.242639226     Delta=-4.65D-05
 NORM(A)=   0.10549054D+01
 Iteration Nr.   7
 **********************
 DD1Dir will call FoFMem   1 times, MxPair=        70
 NAB=    24 NAA=    15 NBB=     6.
 Norm of the A-vectors is  1.4257495D-03 conv= 1.00D-05.
 RLE energy=       -0.2371049392
 DE(Corr)= -0.23709004     E(CORR)=     -77.242639585     Delta=-3.58D-07
 NORM(A)=   0.10549265D+01
 Iteration Nr.   8
 **********************
 DD1Dir will call FoFMem   1 times, MxPair=        70
 NAB=    24 NAA=    15 NBB=     6.
 Norm of the A-vectors is  6.7528919D-04 conv= 1.00D-05.
 RLE energy=       -0.2370926596
 DE(Corr)= -0.23709440     E(CORR)=     -77.242643936     Delta=-4.35D-06
 NORM(A)=   0.10549203D+01
 Iteration Nr.   9
 **********************
 DD1Dir will call FoFMem   1 times, MxPair=        70
 NAB=    24 NAA=    15 NBB=     6.
 Norm of the A-vectors is  3.0736610D-04 conv= 1.00D-05.
 RLE energy=       -0.2370997700
 DE(Corr)= -0.23709743     E(CORR)=     -77.242646966     Delta=-3.03D-06
 NORM(A)=   0.10549228D+01
 Iteration Nr.  10
 **********************
 DD1Dir will call FoFMem   1 times, MxPair=        70
 NAB=    24 NAA=    15 NBB=     6.
 Norm of the A-vectors is  1.3437482D-04 conv= 1.00D-05.
 RLE energy=       -0.2370971440
 DE(Corr)= -0.23709717     E(CORR)=     -77.242646708     Delta= 2.58D-07
 NORM(A)=   0.10549230D+01
 Iteration Nr.  11
 **********************
 DD1Dir will call FoFMem   1 times, MxPair=        70
 NAB=    24 NAA=    15 NBB=     6.
 Norm of the A-vectors is  8.2727234D-05 conv= 1.00D-05.
 RLE energy=       -0.2370975396
 DE(Corr)= -0.23709776     E(CORR)=     -77.242647296     Delta=-5.88D-07
 NORM(A)=   0.10549236D+01
 Iteration Nr.  12
 **********************
 DD1Dir will call FoFMem   1 times, MxPair=        70
 NAB=    24 NAA=    15 NBB=     6.
 Norm of the A-vectors is  3.5921015D-05 conv= 1.00D-05.
 RLE energy=       -0.2370975032
 DE(Corr)= -0.23709744     E(CORR)=     -77.242646980     Delta= 3.16D-07
 NORM(A)=   0.10549240D+01
 Iteration Nr.  13
 **********************
 DD1Dir will call FoFMem   1 times, MxPair=        70
 NAB=    24 NAA=    15 NBB=     6.
 Norm of the A-vectors is  1.9032005D-05 conv= 1.00D-05.
 RLE energy=       -0.2370974040
 DE(Corr)= -0.23709747     E(CORR)=     -77.242647015     Delta=-3.57D-08
 NORM(A)=   0.10549241D+01
 Iteration Nr.  14
 **********************
 DD1Dir will call FoFMem   1 times, MxPair=        70
 NAB=    24 NAA=    15 NBB=     6.
 Norm of the A-vectors is  9.2530886D-06 conv= 1.00D-05.
 RLE energy=       -0.2370974661
 DE(Corr)= -0.23709745     E(CORR)=     -77.242646988     Delta= 2.74D-08
 NORM(A)=   0.10549242D+01
 CI/CC converged in   14 iterations to DelEn= 2.74D-08 Conv= 1.00D-07 ErrA1= 9.25D-06 Conv= 1.00D-05
 Largest amplitude= 4.94D-02
 Time for triples=       21.15 seconds.
 T4(CCSD)= -0.89399470D-02
 T5(CCSD)=  0.52889933D-03
 CCSD(T)= -0.77251058035D+02

 S**2, projected HF & approx projected MPn energies after annihilation of
 unwanted spin states (see manual for definitions):

 spins       (S**2,0) (S**2,1)    PUHF        PMP2        PMP3        PMP4
 annihilated
 s+1         1.99996  2.00002  -77.007285  -77.213741  -77.236921
 s+1,s+2     2.00000  2.00000  -77.007280  -77.213737  -77.236918
 s+1 to s+3  2.00000  2.00000  -77.007280  -77.213737  -77.236918
 s+1 to s+4  2.00000  2.00000  -77.007280  -77.213737  -77.236918

 Discarding MO integrals.
 Leave Link  913 at Tue Oct 10 07:01:35 2017, MaxMem=    33554432 cpu:       148.6
 (Enter /usr/local/gaussian/2009-E.01/g09/l601.exe)
 Copying SCF densities to generalized density rwf, IOpCl= 1 IROHF=0.

 **********************************************************************

            Population analysis using the SCF density.

 **********************************************************************

 Orbital symmetries:
 Alpha Orbitals:
       Occupied  (A') (A') (A') (A') (A") (A') (A') (A")
       Virtual   (A') (A') (A') (A") (A') (A') (A') (A") (A') (A")
                 (A') (A') (A') (A") (A') (A') (A') (A') (A") (A")
                 (A') (A') (A') (A") (A') (A') (A') (A") (A') (A')
                 (A") (A") (A") (A') (A") (A') (A') (A') (A') (A")
                 (A') (A') (A") (A') (A') (A") (A') (A") (A') (A")
                 (A') (A') (A') (A") (A') (A') (A')
 Beta  Orbitals:
       Occupied  (A') (A') (A') (A') (A") (A')
       Virtual   (A') (A') (A") (A') (A') (A") (A') (A') (A') (A')
                 (A") (A") (A') (A') (A') (A") (A') (A') (A') (A')
                 (A") (A') (A") (A') (A") (A') (A') (A') (A') (A")
                 (A') (A') (A") (A") (A") (A') (A") (A') (A') (A')
                 (A') (A") (A') (A') (A") (A') (A') (A") (A') (A")
                 (A') (A') (A") (A') (A') (A") (A') (A') (A')
 The electronic state is 3-A".
 Alpha  occ. eigenvalues --  -11.71617 -11.54952  -1.39625  -1.09535  -0.92800
 Alpha  occ. eigenvalues --   -0.88651  -0.84930  -0.73522
 Alpha virt. eigenvalues --   -0.26121  -0.11230  -0.07433  -0.07333  -0.06970
 Alpha virt. eigenvalues --   -0.03278  -0.02226  -0.01717  -0.00649   0.00625
 Alpha virt. eigenvalues --    0.02795   0.04701   0.07355   0.09678   0.14668
 Alpha virt. eigenvalues --    0.18938   0.31600   0.35359   0.37680   0.41797
 Alpha virt. eigenvalues --    0.46694   0.50780   0.56358   0.58874   0.61871
 Alpha virt. eigenvalues --    0.69205   0.76330   0.90523   0.95517   1.16505
 Alpha virt. eigenvalues --    1.17904   1.37914   1.40191   1.48121   1.51670
 Alpha virt. eigenvalues --    1.53269   1.66662   1.81328   1.86533   1.94450
 Alpha virt. eigenvalues --    2.06201   2.19106   2.23258   2.46555   2.50829
 Alpha virt. eigenvalues --    2.55864   2.62848   2.63166   2.78039   2.89223
 Alpha virt. eigenvalues --    2.93892   3.11661   3.65245   3.89866   3.98355
 Alpha virt. eigenvalues --   24.28549  24.83530
  Beta  occ. eigenvalues --  -11.65621 -11.54711  -1.31868  -0.94156  -0.86482
  Beta  occ. eigenvalues --   -0.85367
  Beta virt. eigenvalues --   -0.27744  -0.18626  -0.15631  -0.10175  -0.07222
  Beta virt. eigenvalues --   -0.06886  -0.05865  -0.02680  -0.01986   0.00140
  Beta virt. eigenvalues --    0.00393   0.01545   0.03541   0.05786   0.07740
  Beta virt. eigenvalues --    0.10921   0.15857   0.22544   0.31814   0.39139
  Beta virt. eigenvalues --    0.39850   0.49829   0.53359   0.56289   0.59639
  Beta virt. eigenvalues --    0.61418   0.64293   0.72850   0.78091   0.94737
  Beta virt. eigenvalues --    0.99446   1.27022   1.28501   1.39553   1.47984
  Beta virt. eigenvalues --    1.49999   1.52691   1.55094   1.72410   1.84724
  Beta virt. eigenvalues --    1.88129   1.98180   2.10365   2.20657   2.25426
  Beta virt. eigenvalues --    2.46888   2.51479   2.56310   2.63700   2.68266
  Beta virt. eigenvalues --    2.80836   2.95765   2.96479   3.16629   3.67402
  Beta virt. eigenvalues --    3.90405   3.99770  24.32627  24.84175
          Condensed to atoms (all electrons):
               1          2          3          4          5
     1  C    5.191516   0.238335   0.308086   0.414180   0.414180
     2  C    0.238335   5.029283   0.024163  -0.037395  -0.037395
     3  H    0.308086   0.024163   0.470145  -0.025449  -0.025449
     4  H    0.414180  -0.037395  -0.025449   0.402474  -0.021202
     5  H    0.414180  -0.037395  -0.025449  -0.021202   0.402474
          Atomic-Atomic Spin Densities.
               1          2          3          4          5
     1  C    0.012297   0.021720  -0.013093   0.022178   0.022178
     2  C    0.021720   1.855260   0.007702  -0.018516  -0.018516
     3  H   -0.013093   0.007702  -0.025223   0.001589   0.001589
     4  H    0.022178  -0.018516   0.001589   0.057417  -0.005414
     5  H    0.022178  -0.018516   0.001589  -0.005414   0.057417
 Mulliken charges and spin densities:
               1          2
     1  C   -0.566297   0.065280
     2  C    0.783009   1.847649
     3  H    0.248504  -0.027435
     4  H    0.267392   0.057253
     5  H    0.267392   0.057253
 Sum of Mulliken charges =   1.00000   2.00000
 Mulliken charges and spin densities with hydrogens summed into heavy atoms:
               1          2
     1  C    0.216991   0.152351
     2  C    0.783009   1.847649
 Electronic spatial extent (au):  <R**2>=             61.6977
 Charge=              1.0000 electrons
 Dipole moment (field-independent basis, Debye):
    X=              0.3286    Y=              0.8377    Z=             -0.0000  Tot=              0.8999
 Quadrupole moment (field-independent basis, Debye-Ang):
   XX=             -9.0638   YY=             -6.5270   ZZ=            -10.0500
   XY=             -0.0849   XZ=              0.0000   YZ=              0.0000
 Traceless Quadrupole moment (field-independent basis, Debye-Ang):
   XX=             -0.5169   YY=              2.0199   ZZ=             -1.5031
   XY=             -0.0849   XZ=              0.0000   YZ=              0.0000
 Octapole moment (field-independent basis, Debye-Ang**2):
  XXX=              2.0014  YYY=              1.2389  ZZZ=             -0.0000  XYY=             -0.6763
  XXY=             -0.2163  XXZ=             -0.0000  XZZ=             -0.9867  YZZ=             -2.4438
  YYZ=             -0.0000  XYZ=             -0.0000
 Hexadecapole moment (field-independent basis, Debye-Ang**3):
 XXXX=            -12.4889 YYYY=            -42.5153 ZZZZ=            -14.8778 XXXY=             -1.3488
 XXXZ=              0.0000 YYYX=              0.1439 YYYZ=              0.0000 ZZZX=              0.0000
 ZZZY=              0.0000 XXYY=             -8.9140 XXZZ=             -5.1306 YYZZ=             -9.1203
 XXYZ=              0.0000 YYXZ=              0.0000 ZZXY=              1.1009
 N-N= 2.757294388957D+01 E-N=-2.297796548460D+02  KE= 7.696103884179D+01
 Symmetry A'   KE= 7.345663130674D+01
 Symmetry A"   KE= 3.504407535057D+00
 Leave Link  601 at Tue Oct 10 07:01:35 2017, MaxMem=    33554432 cpu:         0.2
 (Enter /usr/local/gaussian/2009-E.01/g09/l9999.exe)
 1\1\ WCSS.PL-BEM-WN1424\SP\UCCSD(T)-FC\6-311++G(d,p)\C2H3(1+,3)\ROOT\1
 0-Oct-2017\0\\#p ccsd(t,maxcyc=200)/6-311++G(d,p)\\ccsd(t) iener\\1,3\
 C,0,-0.47431413,0.348375136,-0.049084542\C,0,0.844540495,0.013256528,-
 0.449880102\H,0,-0.171458185,1.429845427,0.149920401\H,0,-1.202959715,
 0.349184411,-0.872892817\H,0,-0.775031484,-0.098676808,0.909716141\\Ve
 rsion=ES64L-G09RevE.01\State=3-A"\HF=-77.0055495\MP2=-77.2125246\MP3=-
 77.2359691\MP4D=-77.2425245\MP4DQ=-77.2381722\PUHF=-77.0072855\PMP2-0=
 -77.2137414\PMP3-0=-77.2369215\MP4SDQ=-77.2406251\CCSD=-77.242647\CCSD
 (T)=-77.251058\S2=2.011802\S2-1=2.004719\S2A=2.000059\RMSD=6.357e-09\P
 G=CS [SG(C2H1),X(H2)]\\@


 IF I HAVE SEEN FARTHER, IT IS BY STANDING ON THE
 SHOULDERS OF GIANTS. -- SIR ISAAC NEWTON
 Job cpu time:       0 days  0 hours  3 minutes  0.5 seconds.
 File lengths (MBytes):  RWF=     50 Int=      0 D2E=      0 Chk=      1 Scr=      1
 Normal termination of Gaussian 09 at Tue Oct 10 07:01:36 2017.
