 Entering Gaussian System, Link 0=/usr/local/gaussian/2009-E.01/g09/g09
 Initial command:
 /usr/local/gaussian/2009-E.01/g09/l1.exe "/lustre/scratch/eerd/4986703.achilles/Gau-8159.inp" -scrdir="/lustre/scratch/eerd/4986703.achilles/"
 Entering Link 1 = /usr/local/gaussian/2009-E.01/g09/l1.exe PID=      8161.
  
 Copyright (c) 1988,1990,1992,1993,1995,1998,2003,2009,2015,
            Gaussian, Inc.  All Rights Reserved.
  
 This is part of the Gaussian(R) 09 program.  It is based on
 the Gaussian(R) 03 system (copyright 2003, Gaussian, Inc.),
 the Gaussian(R) 98 system (copyright 1998, Gaussian, Inc.),
 the Gaussian(R) 94 system (copyright 1995, Gaussian, Inc.),
 the Gaussian 92(TM) system (copyright 1992, Gaussian, Inc.),
 the Gaussian 90(TM) system (copyright 1990, Gaussian, Inc.),
 the Gaussian 88(TM) system (copyright 1988, Gaussian, Inc.),
 the Gaussian 86(TM) system (copyright 1986, Carnegie Mellon
 University), and the Gaussian 82(TM) system (copyright 1983,
 Carnegie Mellon University). Gaussian is a federally registered
 trademark of Gaussian, Inc.
  
 This software contains proprietary and confidential information,
 including trade secrets, belonging to Gaussian, Inc.
  
 This software is provided under written license and may be
 used, copied, transmitted, or stored only in accord with that
 written license.
  
 The following legend is applicable only to US Government
 contracts under FAR:
  
                    RESTRICTED RIGHTS LEGEND
  
 Use, reproduction and disclosure by the US Government is
 subject to restrictions as set forth in subparagraphs (a)
 and (c) of the Commercial Computer Software - Restricted
 Rights clause in FAR 52.227-19.
  
 Gaussian, Inc.
 340 Quinnipiac St., Bldg. 40, Wallingford CT 06492
  
  
 ---------------------------------------------------------------
 Warning -- This program may not be used in any manner that
 competes with the business of Gaussian, Inc. or will provide
 assistance to any competitor of Gaussian, Inc.  The licensee
 of this program is prohibited from giving any competitor of
 Gaussian, Inc. access to this program.  By using this program,
 the user acknowledges that Gaussian, Inc. is engaged in the
 business of creating and licensing software in the field of
 computational chemistry and represents and warrants to the
 licensee that it is not a competitor of Gaussian, Inc. and that
 it will not use this program in any manner prohibited above.
 ---------------------------------------------------------------
  

 Cite this work as:
 Gaussian 09, Revision E.01,
 M. J. Frisch, G. W. Trucks, H. B. Schlegel, G. E. Scuseria, 
 M. A. Robb, J. R. Cheeseman, G. Scalmani, V. Barone, B. Mennucci, 
 G. A. Petersson, H. Nakatsuji, M. Caricato, X. Li, H. P. Hratchian, 
 A. F. Izmaylov, J. Bloino, G. Zheng, J. L. Sonnenberg, M. Hada, 
 M. Ehara, K. Toyota, R. Fukuda, J. Hasegawa, M. Ishida, T. Nakajima, 
 Y. Honda, O. Kitao, H. Nakai, T. Vreven, J. A. Montgomery, Jr., 
 J. E. Peralta, F. Ogliaro, M. Bearpark, J. J. Heyd, E. Brothers, 
 K. N. Kudin, V. N. Staroverov, T. Keith, R. Kobayashi, J. Normand, 
 K. Raghavachari, A. Rendell, J. C. Burant, S. S. Iyengar, J. Tomasi, 
 M. Cossi, N. Rega, J. M. Millam, M. Klene, J. E. Knox, J. B. Cross, 
 V. Bakken, C. Adamo, J. Jaramillo, R. Gomperts, R. E. Stratmann, 
 O. Yazyev, A. J. Austin, R. Cammi, C. Pomelli, J. W. Ochterski, 
 R. L. Martin, K. Morokuma, V. G. Zakrzewski, G. A. Voth, 
 P. Salvador, J. J. Dannenberg, S. Dapprich, A. D. Daniels, 
 O. Farkas, J. B. Foresman, J. V. Ortiz, J. Cioslowski, 
 and D. J. Fox, Gaussian, Inc., Wallingford CT, 2013.
 
 ******************************************
 Gaussian 09:  ES64L-G09RevE.01 30-Nov-2015
                10-Oct-2017 
 ******************************************
 %NProcShared=8
 Will use up to    8 processors via shared memory.
 -----------------------------------
 #p ccsd(t,maxcyc=200)/6-311++G(d,p)
 -----------------------------------
 1/38=1/1;
 2/12=2,17=6,18=5,40=1/2;
 3/5=4,6=6,7=1111,11=9,16=1,25=1,30=1/1,2,3;
 4//1;
 5/5=2,38=5/2;
 8/6=4,9=120000,10=2/1,4;
 9/5=7,6=200,14=2/13;
 6/7=2,8=2,9=2,10=2/1;
 99/5=1,9=1/99;
 Leave Link    1 at Tue Oct 10 07:16:21 2017, MaxMem=           0 cpu:         0.4
 (Enter /usr/local/gaussian/2009-E.01/g09/l101.exe)
 -------------
 ccsd(t) iener
 -------------
 Symbolic Z-matrix:
 Charge =  0 Multiplicity = 2
 C                     0.04112   0.02849   0.72346 
 C                     1.03094  -0.56747   1.12452 
 C                    -1.0655    0.69476   0.27507 
 H                     1.89084  -1.0852    1.47294 
 H                    -1.94625   0.1534   -0.0481 
 H                    -1.0831    1.77701   0.23424 
 
 NAtoms=      6 NQM=        6 NQMF=       0 NMMI=      0 NMMIF=      0
                NMic=       0 NMicF=      0.
                    Isotopes and Nuclear Properties:
 (Nuclear quadrupole moments (NQMom) in fm**2, nuclear magnetic moments (NMagM)
  in nuclear magnetons)

  Atom         1           2           3           4           5           6
 IAtWgt=          12          12          12           1           1           1
 AtmWgt=  12.0000000  12.0000000  12.0000000   1.0078250   1.0078250   1.0078250
 NucSpn=           0           0           0           1           1           1
 AtZEff=   0.0000000   0.0000000   0.0000000   0.0000000   0.0000000   0.0000000
 NQMom=    0.0000000   0.0000000   0.0000000   0.0000000   0.0000000   0.0000000
 NMagM=    0.0000000   0.0000000   0.0000000   2.7928460   2.7928460   2.7928460
 AtZNuc=   6.0000000   6.0000000   6.0000000   1.0000000   1.0000000   1.0000000
 Leave Link  101 at Tue Oct 10 07:16:21 2017, MaxMem=    33554432 cpu:         0.4
 (Enter /usr/local/gaussian/2009-E.01/g09/l202.exe)
                          Input orientation:                          
 ---------------------------------------------------------------------
 Center     Atomic      Atomic             Coordinates (Angstroms)
 Number     Number       Type             X           Y           Z
 ---------------------------------------------------------------------
      1          6           0        0.041120    0.028487    0.723456
      2          6           0        1.030942   -0.567469    1.124521
      3          6           0       -1.065496    0.694763    0.275068
      4          1           0        1.890838   -1.085199    1.472941
      5          1           0       -1.946248    0.153400   -0.048103
      6          1           0       -1.083098    1.777011    0.234237
 ---------------------------------------------------------------------
                    Distance matrix (angstroms):
                    1          2          3          4          5
     1  C    0.000000
     2  C    1.223014   0.000000
     3  C    1.367324   2.590338   0.000000
     4  H    2.285494   1.062480   3.652818   0.000000
     5  H    2.135542   3.279993   1.083161   4.309400   0.000000
     6  H    2.135542   3.279993   1.083161   4.309400   1.860338
                    6
     6  H    0.000000
 Stoichiometry    C3H3(2)
 Framework group  C2V[C2(CCCH),SGV(H2)]
 Deg. of freedom     5
 Full point group                 C2V     NOp   4
 Largest Abelian subgroup         C2V     NOp   4
 Largest concise Abelian subgroup C2      NOp   2
                         Standard orientation:                         
 ---------------------------------------------------------------------
 Center     Atomic      Atomic             Coordinates (Angstroms)
 Number     Number       Type             X           Y           Z
 ---------------------------------------------------------------------
      1          6           0        0.000000   -0.000000    0.115477
      2          6           0        0.000000   -0.000000    1.338491
      3          6           0       -0.000000    0.000000   -1.251847
      4          1           0        0.000000   -0.000000    2.400971
      5          1           0        0.000000    0.930169   -1.806846
      6          1           0       -0.000000   -0.930169   -1.806846
 ---------------------------------------------------------------------
 Rotational constants (GHZ):    289.7867355      9.5684347      9.2625942
 Leave Link  202 at Tue Oct 10 07:16:21 2017, MaxMem=    33554432 cpu:         0.1
 (Enter /usr/local/gaussian/2009-E.01/g09/l301.exe)
 Standard basis: 6-311++G(d,p) (5D, 7F)
 Ernie: Thresh=  0.10000D-02 Tol=  0.10000D-05 Strict=F.
 There are    47 symmetry adapted cartesian basis functions of A1  symmetry.
 There are     4 symmetry adapted cartesian basis functions of A2  symmetry.
 There are    17 symmetry adapted cartesian basis functions of B1  symmetry.
 There are    22 symmetry adapted cartesian basis functions of B2  symmetry.
 There are    44 symmetry adapted basis functions of A1  symmetry.
 There are     4 symmetry adapted basis functions of A2  symmetry.
 There are    17 symmetry adapted basis functions of B1  symmetry.
 There are    22 symmetry adapted basis functions of B2  symmetry.
    87 basis functions,   135 primitive gaussians,    90 cartesian basis functions
    11 alpha electrons       10 beta electrons
       nuclear repulsion energy        53.4125633454 Hartrees.
 IExCor=    0 DFT=F Ex=HF Corr=None ExCW=0 ScaHFX=  1.000000
 ScaDFX=  1.000000  1.000000  1.000000  1.000000 ScalE2=  1.000000  1.000000
 IRadAn=      0 IRanWt=     -1 IRanGd=            0 ICorTp=0 IEmpDi=  4
 NAtoms=    6 NActive=    6 NUniq=    5 SFac= 1.44D+00 NAtFMM=   60 NAOKFM=F Big=F
 Integral buffers will be    131072 words long.
 Raffenetti 2 integral format.
 Two-electron integral symmetry is turned on.
 Leave Link  301 at Tue Oct 10 07:16:21 2017, MaxMem=    33554432 cpu:         2.3
 (Enter /usr/local/gaussian/2009-E.01/g09/l302.exe)
 NPDir=0 NMtPBC=     1 NCelOv=     1 NCel=       1 NClECP=     1 NCelD=      1
         NCelK=      1 NCelE2=     1 NClLst=     1 CellRange=     0.0.
 One-electron integrals computed using PRISM.
 One-electron integral symmetry used in STVInt
 NBasis=    87 RedAO= T EigKep=  4.09D-06  NBF=    44     4    17    22
 NBsUse=    87 1.00D-06 EigRej= -1.00D+00 NBFU=    44     4    17    22
 Leave Link  302 at Tue Oct 10 07:16:21 2017, MaxMem=    33554432 cpu:         1.2
 (Enter /usr/local/gaussian/2009-E.01/g09/l303.exe)
 DipDrv:  MaxL=1.
 Leave Link  303 at Tue Oct 10 07:16:21 2017, MaxMem=    33554432 cpu:         0.2
 (Enter /usr/local/gaussian/2009-E.01/g09/l401.exe)
 ExpMin= 3.60D-02 ExpMax= 4.56D+03 ExpMxC= 6.82D+02 IAcc=3 IRadAn=         5 AccDes= 0.00D+00
 Harris functional with IExCor=  205 and IRadAn=       5 diagonalized for initial guess.
 HarFok:  IExCor=  205 AccDes= 0.00D+00 IRadAn=         5 IDoV= 1 UseB2=F ITyADJ=14
 ICtDFT=  3500011 ScaDFX=  1.000000  1.000000  1.000000  1.000000
 FoFCou: FMM=F IPFlag=           0 FMFlag=      100000 FMFlg1=           0
         NFxFlg=           0 DoJE=T BraDBF=F KetDBF=T FulRan=T
         wScrn=  0.000000 ICntrl=     500 IOpCl=  0 I1Cent=   200000004 NGrid=           0
         NMat0=    1 NMatS0=      1 NMatT0=    0 NMatD0=    1 NMtDS0=    0 NMtDT0=    0
 Petite list used in FoFCou.
 Harris En= -115.429349573447    
 JPrj=0 DoOrth=F DoCkMO=F.
 Initial guess orbital symmetries:
 Alpha Orbitals:
       Occupied  (A1) (A1) (A1) (A1) (A1) (A1) (A1) (B2) (B1) (B2)
                 (B1)
       Virtual   (B2) (B1) (A1) (A1) (B2) (A1) (B1) (B2) (A1) (B1)
                 (A1) (A1) (A1) (B2) (B2) (B1) (A1) (A1) (A1) (B2)
                 (A1) (A1) (A1) (B1) (B2) (A1) (B1) (B2) (B1) (B2)
                 (B2) (A1) (A1) (A1) (A1) (A1) (A2) (B1) (A1) (A2)
                 (A1) (B2) (B1) (A1) (B2) (A2) (B2) (A1) (B1) (A1)
                 (B2) (B1) (A1) (A2) (A1) (B2) (B1) (A1) (B2) (A1)
                 (B1) (B2) (A1) (A1) (B1) (B2) (B1) (B2) (A1) (A1)
                 (A1) (B2) (A1) (A1) (A1) (A1)
 Beta  Orbitals:
       Occupied  (A1) (A1) (A1) (A1) (A1) (A1) (A1) (B2) (B1) (B2)
       Virtual   (B1) (B2) (B1) (A1) (A1) (B2) (A1) (B1) (B2) (A1)
                 (B1) (A1) (A1) (A1) (B2) (B2) (B1) (A1) (A1) (A1)
                 (B2) (A1) (A1) (A1) (B1) (B2) (A1) (B1) (B2) (B1)
                 (B2) (B2) (A1) (A1) (A1) (A1) (A1) (A2) (B1) (A1)
                 (A2) (A1) (B2) (B1) (A1) (B2) (A2) (B2) (A1) (B1)
                 (A1) (B2) (B1) (A1) (A2) (A1) (B2) (B1) (A1) (B2)
                 (A1) (B1) (B2) (A1) (A1) (B1) (B2) (B1) (B2) (A1)
                 (A1) (A1) (B2) (A1) (A1) (A1) (A1)
 The electronic state of the initial guess is 2-B1.
 Initial guess <Sx>= 0.0000 <Sy>= 0.0000 <Sz>= 0.5000 <S**2>= 0.7500 S= 0.5000
 Leave Link  401 at Tue Oct 10 07:16:22 2017, MaxMem=    33554432 cpu:         1.5
 (Enter /usr/local/gaussian/2009-E.01/g09/l502.exe)
 UHF open shell SCF:
 Using DIIS extrapolation, IDIIS=  1040.
 Integral symmetry usage will be decided dynamically.
 Keep R1 and R2 ints in memory in symmetry-blocked form, NReq=9411388.
 IVT=       44440 IEndB=       44440 NGot=    33554432 MDV=    29444160
 LenX=    29444160 LenY=    29435619
 Requested convergence on RMS density matrix=1.00D-08 within 128 cycles.
 Requested convergence on MAX density matrix=1.00D-06.
 Requested convergence on             energy=1.00D-06.
 No special actions if energy rises.
 FoFCou: FMM=F IPFlag=           0 FMFlag=           0 FMFlg1=           0
         NFxFlg=           0 DoJE=F BraDBF=F KetDBF=F FulRan=T
         wScrn=  0.000000 ICntrl=     600 IOpCl=  0 I1Cent=           0 NGrid=           0
         NMat0=    1 NMatS0=   3828 NMatT0=    0 NMatD0=    1 NMtDS0=    0 NMtDT0=    0
 Petite list used in FoFCou.

 Cycle   1  Pass 1  IDiag  1:
 E= -115.109662425273    
 DIIS: error= 6.23D-02 at cycle   1 NSaved=   1.
 NSaved= 1 IEnMin= 1 EnMin= -115.109662425273     IErMin= 1 ErrMin= 6.23D-02
 ErrMax= 6.23D-02  0.00D+00 EMaxC= 1.00D-01 BMatC= 1.03D+00 BMatP= 1.03D+00
 IDIUse=3 WtCom= 3.77D-01 WtEn= 6.23D-01
 Coeff-Com:  0.100D+01
 Coeff-En:   0.100D+01
 Coeff:      0.100D+01
 Gap=     0.324 Goal=   None    Shift=    0.000
 Gap=     0.377 Goal=   None    Shift=    0.000
 GapD=    0.324 DampG=1.000 DampE=0.500 DampFc=0.5000 IDamp=-1.
 Damping current iteration by 5.00D-01
 RMSDP=5.93D-02 MaxDP=2.64D+00              OVMax= 1.55D-01

 Cycle   2  Pass 1  IDiag  1:
 E= -115.194605664073     Delta-E=       -0.084943238801 Rises=F Damp=T
 DIIS: error= 3.16D-02 at cycle   2 NSaved=   2.
 NSaved= 2 IEnMin= 2 EnMin= -115.194605664073     IErMin= 2 ErrMin= 3.16D-02
 ErrMax= 3.16D-02  0.00D+00 EMaxC= 1.00D-01 BMatC= 2.29D-01 BMatP= 1.03D+00
 IDIUse=3 WtCom= 6.84D-01 WtEn= 3.16D-01
 Coeff-Com: -0.752D+00 0.175D+01
 Coeff-En:   0.000D+00 0.100D+01
 Coeff:     -0.514D+00 0.151D+01
 Gap=     0.369 Goal=   None    Shift=    0.000
 Gap=     0.437 Goal=   None    Shift=    0.000
 RMSDP=8.13D-03 MaxDP=3.47D-01 DE=-8.49D-02 OVMax= 6.01D-02

 Cycle   3  Pass 1  IDiag  1:
 E= -115.274798648261     Delta-E=       -0.080192984187 Rises=F Damp=F
 DIIS: error= 7.32D-03 at cycle   3 NSaved=   3.
 NSaved= 3 IEnMin= 3 EnMin= -115.274798648261     IErMin= 3 ErrMin= 7.32D-03
 ErrMax= 7.32D-03  0.00D+00 EMaxC= 1.00D-01 BMatC= 4.48D-03 BMatP= 2.29D-01
 IDIUse=3 WtCom= 9.27D-01 WtEn= 7.32D-02
 Coeff-Com: -0.432D-01 0.556D-01 0.988D+00
 Coeff-En:   0.000D+00 0.000D+00 0.100D+01
 Coeff:     -0.400D-01 0.515D-01 0.989D+00
 Gap=     0.378 Goal=   None    Shift=    0.000
 Gap=     0.434 Goal=   None    Shift=    0.000
 RMSDP=3.61D-03 MaxDP=2.10D-01 DE=-8.02D-02 OVMax= 3.31D-02

 Cycle   4  Pass 1  IDiag  1:
 E= -115.277555774963     Delta-E=       -0.002757126703 Rises=F Damp=F
 DIIS: error= 5.20D-03 at cycle   4 NSaved=   4.
 NSaved= 4 IEnMin= 4 EnMin= -115.277555774963     IErMin= 4 ErrMin= 5.20D-03
 ErrMax= 5.20D-03  0.00D+00 EMaxC= 1.00D-01 BMatC= 1.94D-03 BMatP= 4.48D-03
 IDIUse=3 WtCom= 9.48D-01 WtEn= 5.20D-02
 Coeff-Com:  0.233D-01-0.654D-01 0.221D+00 0.821D+00
 Coeff-En:   0.000D+00 0.000D+00 0.000D+00 0.100D+01
 Coeff:      0.221D-01-0.620D-01 0.209D+00 0.831D+00
 Gap=     0.381 Goal=   None    Shift=    0.000
 Gap=     0.432 Goal=   None    Shift=    0.000
 RMSDP=1.31D-03 MaxDP=6.94D-02 DE=-2.76D-03 OVMax= 1.99D-02

 Cycle   5  Pass 1  IDiag  1:
 E= -115.278793586005     Delta-E=       -0.001237811041 Rises=F Damp=F
 DIIS: error= 3.06D-03 at cycle   5 NSaved=   5.
 NSaved= 5 IEnMin= 5 EnMin= -115.278793586005     IErMin= 5 ErrMin= 3.06D-03
 ErrMax= 3.06D-03  0.00D+00 EMaxC= 1.00D-01 BMatC= 8.87D-04 BMatP= 1.94D-03
 IDIUse=3 WtCom= 9.69D-01 WtEn= 3.06D-02
 Coeff-Com:  0.270D-03 0.211D-01-0.575D+00-0.298D+00 0.185D+01
 Coeff-En:   0.000D+00 0.000D+00 0.000D+00 0.000D+00 0.100D+01
 Coeff:      0.262D-03 0.205D-01-0.558D+00-0.289D+00 0.183D+01
 Gap=     0.391 Goal=   None    Shift=    0.000
 Gap=     0.432 Goal=   None    Shift=    0.000
 RMSDP=1.81D-03 MaxDP=6.55D-02 DE=-1.24D-03 OVMax= 3.10D-02

 Cycle   6  Pass 1  IDiag  1:
 E= -115.280288244378     Delta-E=       -0.001494658374 Rises=F Damp=F
 DIIS: error= 1.41D-03 at cycle   6 NSaved=   6.
 NSaved= 6 IEnMin= 6 EnMin= -115.280288244378     IErMin= 6 ErrMin= 1.41D-03
 ErrMax= 1.41D-03  0.00D+00 EMaxC= 1.00D-01 BMatC= 2.61D-04 BMatP= 8.87D-04
 IDIUse=3 WtCom= 9.86D-01 WtEn= 1.41D-02
 Coeff-Com: -0.721D-02 0.166D-01-0.706D-02-0.115D+00-0.136D+00 0.125D+01
 Coeff-En:   0.000D+00 0.000D+00 0.000D+00 0.000D+00 0.000D+00 0.100D+01
 Coeff:     -0.711D-02 0.164D-01-0.696D-02-0.114D+00-0.135D+00 0.125D+01
 Gap=     0.394 Goal=   None    Shift=    0.000
 Gap=     0.431 Goal=   None    Shift=    0.000
 RMSDP=8.30D-04 MaxDP=3.95D-02 DE=-1.49D-03 OVMax= 1.42D-02

 Cycle   7  Pass 1  IDiag  1:
 E= -115.280748295834     Delta-E=       -0.000460051456 Rises=F Damp=F
 DIIS: error= 1.27D-03 at cycle   7 NSaved=   7.
 NSaved= 7 IEnMin= 7 EnMin= -115.280748295834     IErMin= 7 ErrMin= 1.27D-03
 ErrMax= 1.27D-03  0.00D+00 EMaxC= 1.00D-01 BMatC= 1.63D-04 BMatP= 2.61D-04
 IDIUse=3 WtCom= 9.87D-01 WtEn= 1.27D-02
 Coeff-Com: -0.622D-03-0.776D-02 0.240D+00 0.172D+00-0.778D+00-0.284D+00
 Coeff-Com:  0.166D+01
 Coeff-En:   0.000D+00 0.000D+00 0.000D+00 0.000D+00 0.000D+00 0.000D+00
 Coeff-En:   0.100D+01
 Coeff:     -0.614D-03-0.767D-02 0.237D+00 0.170D+00-0.768D+00-0.280D+00
 Coeff:      0.165D+01
 Gap=     0.395 Goal=   None    Shift=    0.000
 Gap=     0.432 Goal=   None    Shift=    0.000
 RMSDP=8.19D-04 MaxDP=3.24D-02 DE=-4.60D-04 OVMax= 1.83D-02

 Cycle   8  Pass 1  IDiag  1:
 E= -115.281180675881     Delta-E=       -0.000432380047 Rises=F Damp=F
 DIIS: error= 1.06D-03 at cycle   8 NSaved=   8.
 NSaved= 8 IEnMin= 8 EnMin= -115.281180675881     IErMin= 8 ErrMin= 1.06D-03
 ErrMax= 1.06D-03  0.00D+00 EMaxC= 1.00D-01 BMatC= 9.69D-05 BMatP= 1.63D-04
 IDIUse=3 WtCom= 9.89D-01 WtEn= 1.06D-02
 Coeff-Com:  0.789D-02-0.379D-02-0.361D+00-0.173D+00 0.126D+01-0.531D+00
 Coeff-Com: -0.269D+01 0.349D+01
 Coeff-En:   0.000D+00 0.000D+00 0.000D+00 0.000D+00 0.000D+00 0.000D+00
 Coeff-En:   0.000D+00 0.100D+01
 Coeff:      0.781D-02-0.375D-02-0.357D+00-0.171D+00 0.124D+01-0.526D+00
 Coeff:     -0.266D+01 0.347D+01
 Gap=     0.397 Goal=   None    Shift=    0.000
 Gap=     0.432 Goal=   None    Shift=    0.000
 RMSDP=1.60D-03 MaxDP=6.85D-02 DE=-4.32D-04 OVMax= 3.91D-02

 Cycle   9  Pass 1  IDiag  1:
 E= -115.281721724149     Delta-E=       -0.000541048268 Rises=F Damp=F
 DIIS: error= 5.08D-04 at cycle   9 NSaved=   9.
 NSaved= 9 IEnMin= 9 EnMin= -115.281721724149     IErMin= 9 ErrMin= 5.08D-04
 ErrMax= 5.08D-04  0.00D+00 EMaxC= 1.00D-01 BMatC= 2.16D-05 BMatP= 9.69D-05
 IDIUse=3 WtCom= 9.95D-01 WtEn= 5.08D-03
 Coeff-Com: -0.620D-02 0.684D-02 0.179D+00 0.782D-01-0.625D+00 0.481D+00
 Coeff-Com:  0.127D+01-0.245D+01 0.206D+01
 Coeff-En:   0.000D+00 0.000D+00 0.000D+00 0.000D+00 0.000D+00 0.000D+00
 Coeff-En:   0.000D+00 0.000D+00 0.100D+01
 Coeff:     -0.617D-02 0.681D-02 0.178D+00 0.778D-01-0.622D+00 0.479D+00
 Coeff:      0.127D+01-0.243D+01 0.205D+01
 Gap=     0.397 Goal=   None    Shift=    0.000
 Gap=     0.433 Goal=   None    Shift=    0.000
 RMSDP=9.55D-04 MaxDP=4.72D-02 DE=-5.41D-04 OVMax= 1.85D-02

 Cycle  10  Pass 1  IDiag  1:
 E= -115.281816132290     Delta-E=       -0.000094408141 Rises=F Damp=F
 DIIS: error= 2.31D-04 at cycle  10 NSaved=  10.
 NSaved=10 IEnMin=10 EnMin= -115.281816132290     IErMin=10 ErrMin= 2.31D-04
 ErrMax= 2.31D-04  0.00D+00 EMaxC= 1.00D-01 BMatC= 3.46D-06 BMatP= 2.16D-05
 IDIUse=3 WtCom= 9.98D-01 WtEn= 2.31D-03
 Coeff-Com:  0.171D-02-0.289D-02-0.223D-01-0.122D-01 0.805D-01-0.191D+00
 Coeff-Com: -0.873D-01 0.624D+00-0.110D+01 0.171D+01
 Coeff-En:   0.000D+00 0.000D+00 0.000D+00 0.000D+00 0.000D+00 0.000D+00
 Coeff-En:   0.000D+00 0.000D+00 0.000D+00 0.100D+01
 Coeff:      0.171D-02-0.288D-02-0.222D-01-0.122D-01 0.804D-01-0.191D+00
 Coeff:     -0.871D-01 0.623D+00-0.110D+01 0.171D+01
 Gap=     0.398 Goal=   None    Shift=    0.000
 Gap=     0.434 Goal=   None    Shift=    0.000
 RMSDP=1.45D-04 MaxDP=5.69D-03 DE=-9.44D-05 OVMax= 4.32D-03

 Cycle  11  Pass 1  IDiag  1:
 E= -115.281825222016     Delta-E=       -0.000009089726 Rises=F Damp=F
 DIIS: error= 1.38D-04 at cycle  11 NSaved=  11.
 NSaved=11 IEnMin=11 EnMin= -115.281825222016     IErMin=11 ErrMin= 1.38D-04
 ErrMax= 1.38D-04  0.00D+00 EMaxC= 1.00D-01 BMatC= 6.83D-07 BMatP= 3.46D-06
 IDIUse=3 WtCom= 9.99D-01 WtEn= 1.38D-03
 Coeff-Com: -0.404D-03 0.873D-03-0.240D-02 0.669D-03 0.150D-01 0.551D-02
 Coeff-Com: -0.475D-01 0.462D-02 0.151D+00-0.797D+00 0.167D+01
 Coeff-En:   0.000D+00 0.000D+00 0.000D+00 0.000D+00 0.000D+00 0.000D+00
 Coeff-En:   0.000D+00 0.000D+00 0.000D+00 0.000D+00 0.100D+01
 Coeff:     -0.403D-03 0.872D-03-0.240D-02 0.668D-03 0.150D-01 0.550D-02
 Coeff:     -0.474D-01 0.462D-02 0.150D+00-0.796D+00 0.167D+01
 Gap=     0.398 Goal=   None    Shift=    0.000
 Gap=     0.434 Goal=   None    Shift=    0.000
 RMSDP=4.62D-05 MaxDP=1.64D-03 DE=-9.09D-06 OVMax= 1.54D-03

 Cycle  12  Pass 1  IDiag  1:
 E= -115.281826951039     Delta-E=       -0.000001729024 Rises=F Damp=F
 DIIS: error= 5.69D-05 at cycle  12 NSaved=  12.
 NSaved=12 IEnMin=12 EnMin= -115.281826951039     IErMin=12 ErrMin= 5.69D-05
 ErrMax= 5.69D-05  0.00D+00 EMaxC= 1.00D-01 BMatC= 1.20D-07 BMatP= 6.83D-07
 IDIUse=1 WtCom= 1.00D+00 WtEn= 0.00D+00
 Coeff-Com:  0.932D-04-0.341D-03 0.539D-02 0.281D-02-0.245D-01 0.161D-01
 Coeff-Com:  0.594D-01-0.102D+00 0.592D-01 0.326D+00-0.126D+01 0.192D+01
 Coeff:      0.932D-04-0.341D-03 0.539D-02 0.281D-02-0.245D-01 0.161D-01
 Coeff:      0.594D-01-0.102D+00 0.592D-01 0.326D+00-0.126D+01 0.192D+01
 Gap=     0.398 Goal=   None    Shift=    0.000
 Gap=     0.434 Goal=   None    Shift=    0.000
 RMSDP=3.16D-05 MaxDP=1.65D-03 DE=-1.73D-06 OVMax= 6.74D-04

 Cycle  13  Pass 1  IDiag  1:
 E= -115.281827202960     Delta-E=       -0.000000251921 Rises=F Damp=F
 DIIS: error= 1.37D-05 at cycle  13 NSaved=  13.
 NSaved=13 IEnMin=13 EnMin= -115.281827202960     IErMin=13 ErrMin= 1.37D-05
 ErrMax= 1.37D-05  0.00D+00 EMaxC= 1.00D-01 BMatC= 1.48D-08 BMatP= 1.20D-07
 IDIUse=1 WtCom= 1.00D+00 WtEn= 0.00D+00
 Coeff-Com:  0.578D-04 0.553D-05-0.386D-02-0.169D-02 0.161D-01-0.187D-01
 Coeff-Com: -0.292D-01 0.756D-01-0.773D-01-0.768D-01 0.587D+00-0.131D+01
 Coeff-Com:  0.184D+01
 Coeff:      0.578D-04 0.553D-05-0.386D-02-0.169D-02 0.161D-01-0.187D-01
 Coeff:     -0.292D-01 0.756D-01-0.773D-01-0.768D-01 0.587D+00-0.131D+01
 Coeff:      0.184D+01
 Gap=     0.398 Goal=   None    Shift=    0.000
 Gap=     0.434 Goal=   None    Shift=    0.000
 RMSDP=8.77D-06 MaxDP=3.78D-04 DE=-2.52D-07 OVMax= 2.30D-04

 Cycle  14  Pass 1  IDiag  1:
 E= -115.281827226916     Delta-E=       -0.000000023956 Rises=F Damp=F
 DIIS: error= 3.46D-06 at cycle  14 NSaved=  14.
 NSaved=14 IEnMin=14 EnMin= -115.281827226916     IErMin=14 ErrMin= 3.46D-06
 ErrMax= 3.46D-06  0.00D+00 EMaxC= 1.00D-01 BMatC= 9.16D-10 BMatP= 1.48D-08
 IDIUse=1 WtCom= 1.00D+00 WtEn= 0.00D+00
 Coeff-Com: -0.466D-04 0.408D-04 0.149D-02 0.762D-03-0.596D-02 0.774D-02
 Coeff-Com:  0.925D-02-0.294D-01 0.335D-01 0.435D-02-0.162D+00 0.440D+00
 Coeff-Com: -0.836D+00 0.154D+01
 Coeff:     -0.466D-04 0.408D-04 0.149D-02 0.762D-03-0.596D-02 0.774D-02
 Coeff:      0.925D-02-0.294D-01 0.335D-01 0.435D-02-0.162D+00 0.440D+00
 Coeff:     -0.836D+00 0.154D+01
 Gap=     0.398 Goal=   None    Shift=    0.000
 Gap=     0.434 Goal=   None    Shift=    0.000
 RMSDP=2.05D-06 MaxDP=6.55D-05 DE=-2.40D-08 OVMax= 7.29D-05

 Cycle  15  Pass 1  IDiag  1:
 E= -115.281827228155     Delta-E=       -0.000000001239 Rises=F Damp=F
 DIIS: error= 8.76D-07 at cycle  15 NSaved=  15.
 NSaved=15 IEnMin=15 EnMin= -115.281827228155     IErMin=15 ErrMin= 8.76D-07
 ErrMax= 8.76D-07  0.00D+00 EMaxC= 1.00D-01 BMatC= 8.12D-11 BMatP= 9.16D-10
 IDIUse=1 WtCom= 1.00D+00 WtEn= 0.00D+00
 Coeff-Com:  0.167D-04-0.187D-04-0.382D-03-0.272D-03 0.143D-02-0.174D-02
 Coeff-Com: -0.236D-02 0.789D-02-0.868D-02 0.561D-02 0.163D-01-0.627D-01
 Coeff-Com:  0.169D+00-0.631D+00 0.151D+01
 Coeff:      0.167D-04-0.187D-04-0.382D-03-0.272D-03 0.143D-02-0.174D-02
 Coeff:     -0.236D-02 0.789D-02-0.868D-02 0.561D-02 0.163D-01-0.627D-01
 Coeff:      0.169D+00-0.631D+00 0.151D+01
 Gap=     0.398 Goal=   None    Shift=    0.000
 Gap=     0.434 Goal=   None    Shift=    0.000
 RMSDP=6.91D-07 MaxDP=1.81D-05 DE=-1.24D-09 OVMax= 2.37D-05

 Cycle  16  Pass 1  IDiag  1:
 E= -115.281827228261     Delta-E=       -0.000000000106 Rises=F Damp=F
 DIIS: error= 1.70D-07 at cycle  16 NSaved=  16.
 NSaved=16 IEnMin=16 EnMin= -115.281827228261     IErMin=16 ErrMin= 1.70D-07
 ErrMax= 1.70D-07  0.00D+00 EMaxC= 1.00D-01 BMatC= 4.79D-12 BMatP= 8.12D-11
 IDIUse=1 WtCom= 1.00D+00 WtEn= 0.00D+00
 Coeff-Com: -0.157D-05 0.189D-05 0.368D-04 0.289D-04-0.865D-04 0.981D-04
 Coeff-Com:  0.115D-03-0.630D-03 0.424D-03-0.207D-02 0.661D-02-0.149D-01
 Coeff-Com:  0.165D-01 0.487D-01-0.350D+00 0.130D+01
 Coeff:     -0.157D-05 0.189D-05 0.368D-04 0.289D-04-0.865D-04 0.981D-04
 Coeff:      0.115D-03-0.630D-03 0.424D-03-0.207D-02 0.661D-02-0.149D-01
 Coeff:      0.165D-01 0.487D-01-0.350D+00 0.130D+01
 Gap=     0.398 Goal=   None    Shift=    0.000
 Gap=     0.434 Goal=   None    Shift=    0.000
 RMSDP=3.67D-07 MaxDP=1.51D-05 DE=-1.06D-10 OVMax= 9.07D-06

 Cycle  17  Pass 1  IDiag  1:
 E= -115.281827228272     Delta-E=       -0.000000000011 Rises=F Damp=F
 DIIS: error= 7.31D-08 at cycle  17 NSaved=  17.
 NSaved=17 IEnMin=17 EnMin= -115.281827228272     IErMin=17 ErrMin= 7.31D-08
 ErrMax= 7.31D-08  0.00D+00 EMaxC= 1.00D-01 BMatC= 3.46D-13 BMatP= 4.79D-12
 IDIUse=1 WtCom= 1.00D+00 WtEn= 0.00D+00
 Coeff-Com: -0.325D-06 0.511D-06-0.234D-05 0.794D-06-0.184D-04 0.359D-04
 Coeff-Com:  0.991D-05-0.220D-04 0.179D-03 0.673D-03-0.366D-02 0.102D-01
 Coeff-Com: -0.182D-01 0.227D-01 0.388D-01-0.479D+00 0.143D+01
 Coeff:     -0.325D-06 0.511D-06-0.234D-05 0.794D-06-0.184D-04 0.359D-04
 Coeff:      0.991D-05-0.220D-04 0.179D-03 0.673D-03-0.366D-02 0.102D-01
 Coeff:     -0.182D-01 0.227D-01 0.388D-01-0.479D+00 0.143D+01
 Gap=     0.398 Goal=   None    Shift=    0.000
 Gap=     0.434 Goal=   None    Shift=    0.000
 RMSDP=7.23D-08 MaxDP=3.15D-06 DE=-1.09D-11 OVMax= 1.97D-06

 Cycle  18  Pass 1  IDiag  1:
 E= -115.281827228273     Delta-E=       -0.000000000001 Rises=F Damp=F
 DIIS: error= 1.48D-08 at cycle  18 NSaved=  18.
 NSaved=18 IEnMin=18 EnMin= -115.281827228273     IErMin=18 ErrMin= 1.48D-08
 ErrMax= 1.48D-08  0.00D+00 EMaxC= 1.00D-01 BMatC= 3.12D-14 BMatP= 3.46D-13
 IDIUse=1 WtCom= 1.00D+00 WtEn= 0.00D+00
 Coeff-Com:  0.421D-06-0.560D-06-0.477D-05-0.497D-05 0.264D-04-0.332D-04
 Coeff-Com: -0.292D-04 0.976D-04-0.145D-03-0.136D-03 0.120D-02-0.371D-02
 Coeff-Com:  0.769D-02-0.173D-01 0.209D-01 0.808D-01-0.605D+00 0.152D+01
 Coeff:      0.421D-06-0.560D-06-0.477D-05-0.497D-05 0.264D-04-0.332D-04
 Coeff:     -0.292D-04 0.976D-04-0.145D-03-0.136D-03 0.120D-02-0.371D-02
 Coeff:      0.769D-02-0.173D-01 0.209D-01 0.808D-01-0.605D+00 0.152D+01
 Gap=     0.398 Goal=   None    Shift=    0.000
 Gap=     0.434 Goal=   None    Shift=    0.000
 RMSDP=1.26D-08 MaxDP=4.11D-07 DE=-7.39D-13 OVMax= 3.50D-07

 Cycle  19  Pass 1  IDiag  1:
 E= -115.281827228273     Delta-E=        0.000000000000 Rises=F Damp=F
 DIIS: error= 4.67D-09 at cycle  19 NSaved=  19.
 NSaved=19 IEnMin=18 EnMin= -115.281827228273     IErMin=19 ErrMin= 4.67D-09
 ErrMax= 4.67D-09  0.00D+00 EMaxC= 1.00D-01 BMatC= 3.01D-15 BMatP= 3.12D-14
 IDIUse=1 WtCom= 1.00D+00 WtEn= 0.00D+00
 Large coefficients: NSaved= 19 BigCof=    0.00 CofMax=   10.00 Det=-1.63D-15
 Inversion failed.  Reducing to 18 matrices.
 Large coefficients: NSaved= 18 BigCof=    0.00 CofMax=   10.00 Det=-2.43D-15
 Inversion failed.  Reducing to 17 matrices.
 Large coefficients: NSaved= 17 BigCof=    0.00 CofMax=   10.00 Det=-2.43D-15
 Inversion failed.  Reducing to 16 matrices.
 Large coefficients: NSaved= 16 BigCof=    0.00 CofMax=   10.00 Det=-3.68D-15
 Inversion failed.  Reducing to 15 matrices.
 Coeff-Com: -0.236D-06-0.734D-06-0.322D-05 0.122D-04-0.156D-04 0.416D-04
 Coeff-Com: -0.748D-04 0.200D-03-0.386D-03 0.931D-03-0.266D-02 0.493D-02
 Coeff-Com:  0.859D-01-0.556D+00 0.147D+01
 Coeff:     -0.236D-06-0.734D-06-0.322D-05 0.122D-04-0.156D-04 0.416D-04
 Coeff:     -0.748D-04 0.200D-03-0.386D-03 0.931D-03-0.266D-02 0.493D-02
 Coeff:      0.859D-01-0.556D+00 0.147D+01
 Gap=     0.398 Goal=   None    Shift=    0.000
 Gap=     0.434 Goal=   None    Shift=    0.000
 RMSDP=5.91D-09 MaxDP=3.26D-07 DE= 1.71D-13 OVMax= 6.72D-08

 SCF Done:  E(UHF) =  -115.281827228     A.U. after   19 cycles
            NFock= 19  Conv=0.59D-08     -V/T= 2.0005
 <Sx>= 0.0000 <Sy>= 0.0000 <Sz>= 0.5000 <S**2>= 0.9655 S= 0.6025
 <L.S>= 0.000000000000E+00
 KE= 1.152289831936D+02 PE=-3.750980403752D+02 EE= 9.117466660795D+01
 Annihilation of the first spin contaminant:
 S**2 before annihilation     0.9655,   after     0.7808
 Leave Link  502 at Tue Oct 10 07:16:24 2017, MaxMem=    33554432 cpu:        19.7
 (Enter /usr/local/gaussian/2009-E.01/g09/l801.exe)
 Windowed orbitals will be sorted by symmetry type.
 ExpMin= 3.60D-02 ExpMax= 4.56D+03 ExpMxC= 6.82D+02 IAcc=3 IRadAn=         5 AccDes= 0.00D+00
 HarFok:  IExCor=  205 AccDes= 0.00D+00 IRadAn=         5 IDoV=-2 UseB2=F ITyADJ=14
 ICtDFT= 12500011 ScaDFX=  1.000000  1.000000  1.000000  1.000000
 Largest valence mixing into a core orbital is  1.40D-04
 Largest core mixing into a valence orbital is  3.87D-05
 Largest valence mixing into a core orbital is  1.48D-04
 Largest core mixing into a valence orbital is  4.67D-05
 Range of M.O.s used for correlation:     4    87
 NBasis=    87 NAE=    11 NBE=    10 NFC=     3 NFV=     0
 NROrb=     84 NOA=     8 NOB=     7 NVA=    76 NVB=    77

 **** Warning!!: The largest alpha MO coefficient is  0.33122991D+03


 **** Warning!!: The largest beta MO coefficient is  0.33305907D+03

 Leave Link  801 at Tue Oct 10 07:16:25 2017, MaxMem=    33554432 cpu:         0.7
 (Enter /usr/local/gaussian/2009-E.01/g09/l804.exe)
 Open-shell transformation, MDV=    33554432 ITran=4 ISComp=2.
 Semi-Direct transformation.
 ModeAB=           4 MOrb=             8 LenV=      33228264
 LASXX=       596078 LTotXX=      596078 LenRXX=     1225966
 LTotAB=      629888 MaxLAS=     2444736 LenRXY=           0
 NonZer=     1822044 LenScr=     3415040 LnRSAI=     2444736
 LnScr1=     4399104 LExtra=           0 Total=     11484846
 MaxDsk=          -1 SrtSym=           T ITran=            4
 DoSDTr:  NPSUse=  8
 JobTyp=1 Pass  1:  I=   1 to   8.
 (rs|ai) integrals will be sorted in core.
 Complete sort for first half transformation.
 First half transformation complete.
 Complete sort for second half transformation.
 Second half transformation complete.
 ModeAB=           4 MOrb=             7 LenV=      33228264
 LASXX=       535788 LTotXX=      535788 LenRXX=      999077
 LTotAB=      463289 MaxLAS=     2139144 LenRXY=           0
 NonZer=     1534865 LenScr=     3067904 LnRSAI=     2139144
 LnScr1=     3929600 LExtra=           0 Total=     10135725
 MaxDsk=          -1 SrtSym=           T ITran=            4
 DoSDTr:  NPSUse=  8
 JobTyp=2 Pass  1:  I=   1 to   7.
 (rs|ai) integrals will be sorted in core.
 Complete sort for first half transformation.
 First half transformation complete.
 Complete sort for second half transformation.
 Second half transformation complete.
 Spin components of T(2) and E(2):
     alpha-alpha T2 =       0.1928956003D-01 E2=     -0.5231443538D-01
     alpha-beta  T2 =       0.9867978498D-01 E2=     -0.2760253643D+00
     beta-beta   T2 =       0.1559294011D-01 E2=     -0.4013299814D-01
 ANorm=    0.1064688821D+01
 E2 =    -0.3684727978D+00 EUMP2 =    -0.11565030002609D+03
 (S**2,0)=  0.96548D+00           (S**2,1)=  0.89470D+00
 E(PUHF)=      -0.11530116668D+03        E(PMP2)=      -0.11566670965D+03
 Leave Link  804 at Tue Oct 10 07:16:26 2017, MaxMem=    33554432 cpu:         8.6
 (Enter /usr/local/gaussian/2009-E.01/g09/l913.exe)
 CIDS:  MDV=    33554432.
 Frozen-core window:  NFC=   3 NFV=   0.
 IFCWin=0 IBDFC=1 NFBD=     0     0 NFCmp=     0     0 NFFFC=     0     0
 Using original routines for 1st iteration, S=T.
 Using DD4UQ or CC4UQ for 2nd and later iterations.
 Keep R2 and R3 ints in memory in symmetry-blocked form, NReq=9368432.
 FoFCou: FMM=F IPFlag=           0 FMFlag=           0 FMFlg1=           0
         NFxFlg=           0 DoJE=F BraDBF=F KetDBF=F FulRan=T
         wScrn=  0.000000 ICntrl=     600 IOpCl=  0 I1Cent=           0 NGrid=           0
         NMat0=    1 NMatS0=   3828 NMatT0=    0 NMatD0=    1 NMtDS0=    0 NMtDT0=    0
 Petite list used in FoFCou.
 CCSD(T)
 =======
 Iterations= 200 Convergence= 0.100D-06
 Iteration Nr.   1
 **********************
 DD1Dir will call FoFMem   1 times, MxPair=       162
 NAB=    56 NAA=    28 NBB=    21.
 E(PMP3)=      -0.11568686646D+03
 MP4(R+Q)=  0.82450264D-02
 Maximum subspace dimension=  5
 Norm of the A-vectors is  5.1799640D-01 conv= 1.00D-05.
 RLE energy=       -0.3856467845
 E3=       -0.24530041D-01        EUMP3=      -0.11567483007D+03
 E4(DQ)=   -0.16448400D-02        UMP4(DQ)=   -0.11567647491D+03
 E4(SDQ)=  -0.82706572D-02        UMP4(SDQ)=  -0.11568310072D+03
 VARIATIONAL ENERGIES WITH THE FIRST-ORDER WAVEFUNCTION:
 DE(Corr)= -0.38488202     E(Corr)=     -115.66670925    
 NORM(A)=   0.10746401D+01
 Iteration Nr.   2
 **********************
 DD1Dir will call FoFMem   1 times, MxPair=       162
 NAB=    56 NAA=    28 NBB=    21.
 Norm of the A-vectors is  2.1785136D-01 conv= 1.00D-05.
 RLE energy=       -0.4030710353
 DE(Corr)= -0.39879610     E(CORR)=     -115.68062333     Delta=-1.39D-02
 NORM(A)=   0.10873046D+01
 Iteration Nr.   3
 **********************
 DD1Dir will call FoFMem   1 times, MxPair=       162
 NAB=    56 NAA=    28 NBB=    21.
 Norm of the A-vectors is  8.0493953D-02 conv= 1.00D-05.
 RLE energy=       -0.4066519251
 DE(Corr)= -0.40279901     E(CORR)=     -115.68462623     Delta=-4.00D-03
 NORM(A)=   0.10978002D+01
 Iteration Nr.   4
 **********************
 DD1Dir will call FoFMem   1 times, MxPair=       162
 NAB=    56 NAA=    28 NBB=    21.
 Norm of the A-vectors is  3.8670621D-02 conv= 1.00D-05.
 RLE energy=       -0.4079591827
 DE(Corr)= -0.40690929     E(CORR)=     -115.68873652     Delta=-4.11D-03
 NORM(A)=   0.11026473D+01
 Iteration Nr.   5
 **********************
 DD1Dir will call FoFMem   1 times, MxPair=       162
 NAB=    56 NAA=    28 NBB=    21.
 Norm of the A-vectors is  1.6145532D-02 conv= 1.00D-05.
 RLE energy=       -0.4079364609
 DE(Corr)= -0.40786690     E(CORR)=     -115.68969413     Delta=-9.58D-04
 NORM(A)=   0.11032692D+01
 Iteration Nr.   6
 **********************
 DD1Dir will call FoFMem   1 times, MxPair=       162
 NAB=    56 NAA=    28 NBB=    21.
 Norm of the A-vectors is  6.2959636D-03 conv= 1.00D-05.
 RLE energy=       -0.4078850001
 DE(Corr)= -0.40792834     E(CORR)=     -115.68975556     Delta=-6.14D-05
 NORM(A)=   0.11033797D+01
 Iteration Nr.   7
 **********************
 DD1Dir will call FoFMem   1 times, MxPair=       162
 NAB=    56 NAA=    28 NBB=    21.
 Norm of the A-vectors is  2.7028498D-03 conv= 1.00D-05.
 RLE energy=       -0.4079507328
 DE(Corr)= -0.40793558     E(CORR)=     -115.68976280     Delta=-7.24D-06
 NORM(A)=   0.11034191D+01
 Iteration Nr.   8
 **********************
 DD1Dir will call FoFMem   1 times, MxPair=       162
 NAB=    56 NAA=    28 NBB=    21.
 Norm of the A-vectors is  1.0705332D-03 conv= 1.00D-05.
 RLE energy=       -0.4079285182
 DE(Corr)= -0.40793158     E(CORR)=     -115.68975881     Delta= 3.99D-06
 NORM(A)=   0.11034217D+01
 Iteration Nr.   9
 **********************
 DD1Dir will call FoFMem   1 times, MxPair=       162
 NAB=    56 NAA=    28 NBB=    21.
 Norm of the A-vectors is  5.2251496D-04 conv= 1.00D-05.
 RLE energy=       -0.4079413520
 DE(Corr)= -0.40793744     E(CORR)=     -115.68976467     Delta=-5.86D-06
 NORM(A)=   0.11034281D+01
 Iteration Nr.  10
 **********************
 DD1Dir will call FoFMem   1 times, MxPair=       162
 NAB=    56 NAA=    28 NBB=    21.
 Norm of the A-vectors is  2.8873042D-04 conv= 1.00D-05.
 RLE energy=       -0.4079371046
 DE(Corr)= -0.40793670     E(CORR)=     -115.68976393     Delta= 7.38D-07
 NORM(A)=   0.11034301D+01
 Iteration Nr.  11
 **********************
 DD1Dir will call FoFMem   1 times, MxPair=       162
 NAB=    56 NAA=    28 NBB=    21.
 Norm of the A-vectors is  1.6748703D-04 conv= 1.00D-05.
 RLE energy=       -0.4079382342
 DE(Corr)= -0.40793816     E(CORR)=     -115.68976539     Delta=-1.46D-06
 NORM(A)=   0.11034328D+01
 Iteration Nr.  12
 **********************
 DD1Dir will call FoFMem   1 times, MxPair=       162
 NAB=    56 NAA=    28 NBB=    21.
 Norm of the A-vectors is  9.0205916D-05 conv= 1.00D-05.
 RLE energy=       -0.4079388176
 DE(Corr)= -0.40793826     E(CORR)=     -115.68976549     Delta=-1.04D-07
 NORM(A)=   0.11034353D+01
 Iteration Nr.  13
 **********************
 DD1Dir will call FoFMem   1 times, MxPair=       162
 NAB=    56 NAA=    28 NBB=    21.
 Norm of the A-vectors is  4.5123292D-05 conv= 1.00D-05.
 RLE energy=       -0.4079386713
 DE(Corr)= -0.40793864     E(CORR)=     -115.68976587     Delta=-3.77D-07
 NORM(A)=   0.11034365D+01
 Iteration Nr.  14
 **********************
 DD1Dir will call FoFMem   1 times, MxPair=       162
 NAB=    56 NAA=    28 NBB=    21.
 Norm of the A-vectors is  2.3264731D-05 conv= 1.00D-05.
 RLE energy=       -0.4079390090
 DE(Corr)= -0.40793886     E(CORR)=     -115.68976609     Delta=-2.24D-07
 NORM(A)=   0.11034372D+01
 Iteration Nr.  15
 **********************
 DD1Dir will call FoFMem   1 times, MxPair=       162
 NAB=    56 NAA=    28 NBB=    21.
 Norm of the A-vectors is  9.5408321D-06 conv= 1.00D-05.
 RLE energy=       -0.4079389825
 DE(Corr)= -0.40793896     E(CORR)=     -115.68976618     Delta=-9.22D-08
 NORM(A)=   0.11034374D+01
 CI/CC converged in   15 iterations to DelEn=-9.22D-08 Conv= 1.00D-07 ErrA1= 9.54D-06 Conv= 1.00D-05
 Largest amplitude= 8.82D-02
 Time for triples=      295.41 seconds.
 T4(CCSD)= -0.18929988D-01
 T5(CCSD)=  0.11630935D-02
 CCSD(T)= -0.11570753308D+03

 S**2, projected HF & approx projected MPn energies after annihilation of
 unwanted spin states (see manual for definitions):

 spins       (S**2,0) (S**2,1)    PUHF        PMP2        PMP3        PMP4
 annihilated
 s+1         0.73186  0.74465 -115.301167 -115.666710 -115.686866
 s+1,s+2     0.75030  0.74991 -115.299850 -115.665463 -115.685703
 s+1 to s+3  0.75000  0.75000 -115.299875 -115.665480 -115.685708
 s+1 to s+4  0.75000  0.75000 -115.299875 -115.665479 -115.685707
 s+1 to s+5  0.75000  0.75000 -115.299875
 s+1 to s+6  0.75000  0.75000 -115.299875

 Discarding MO integrals.
 Leave Link  913 at Tue Oct 10 07:18:03 2017, MaxMem=    33554432 cpu:       696.1
 (Enter /usr/local/gaussian/2009-E.01/g09/l601.exe)
 Copying SCF densities to generalized density rwf, IOpCl= 1 IROHF=0.

 **********************************************************************

            Population analysis using the SCF density.

 **********************************************************************

 Orbital symmetries:
 Alpha Orbitals:
       Occupied  (A1) (A1) (A1) (A1) (A1) (A1) (A1) (B2) (B1) (B2)
                 (B1)
       Virtual   (A1) (A1) (B2) (B1) (A1) (B2) (A1) (B1) (B2) (A1)
                 (B1) (A1) (B2) (B2) (A1) (A1) (B1) (A1) (A1) (B2)
                 (A1) (A1) (A1) (B1) (B2) (A1) (B1) (B2) (B2) (A1)
                 (B1) (B2) (A1) (A1) (A1) (A2) (B1) (A1) (A1) (A1)
                 (A2) (B2) (B1) (A1) (B2) (A2) (B2) (A1) (B1) (A1)
                 (B1) (B2) (A1) (A2) (A1) (B2) (B1) (B2) (A1) (A1)
                 (A1) (B1) (B2) (A1) (B1) (B2) (B1) (B2) (A1) (A1)
                 (A1) (B2) (A1) (A1) (A1) (A1)
 Beta  Orbitals:
       Occupied  (A1) (A1) (A1) (A1) (A1) (A1) (A1) (B2) (B1) (B2)
       Virtual   (A1) (A1) (B1) (B2) (B1) (A1) (B2) (A1) (B2) (A1)
                 (B1) (A1) (B1) (B2) (B2) (A1) (A1) (A1) (B1) (A1)
                 (B2) (A1) (A1) (A1) (B2) (A1) (B1) (B2) (B1) (B2)
                 (B1) (A1) (B2) (A1) (A1) (A1) (A2) (B1) (A1) (A1)
                 (A1) (A2) (B2) (B2) (B1) (A1) (B2) (A2) (A1) (B1)
                 (A1) (B2) (B1) (A1) (A2) (A1) (B2) (A1) (B2) (B1)
                 (A1) (A1) (A1) (B2) (B1) (B1) (B2) (B1) (B2) (A1)
                 (A1) (A1) (B2) (A1) (A1) (A1) (A1)
 The electronic state is 2-B1.
 Alpha  occ. eigenvalues --  -11.26239 -11.24625 -11.23176  -1.07203  -0.97799
 Alpha  occ. eigenvalues --   -0.73342  -0.65210  -0.61561  -0.49045  -0.40418
 Alpha  occ. eigenvalues --   -0.35685
 Alpha virt. eigenvalues --    0.04076   0.05387   0.06586   0.11127   0.11470
 Alpha virt. eigenvalues --    0.12520   0.14591   0.14834   0.16858   0.18090
 Alpha virt. eigenvalues --    0.18283   0.18575   0.21607   0.24731   0.25687
 Alpha virt. eigenvalues --    0.27345   0.28971   0.30816   0.35671   0.40057
 Alpha virt. eigenvalues --    0.50759   0.59917   0.64684   0.68236   0.68899
 Alpha virt. eigenvalues --    0.70114   0.73072   0.77461   0.85263   0.86831
 Alpha virt. eigenvalues --    0.87068   0.89470   0.93895   1.04220   1.09653
 Alpha virt. eigenvalues --    1.23144   1.28488   1.34073   1.35529   1.39512
 Alpha virt. eigenvalues --    1.41862   1.49217   1.66912   1.68313   1.68834
 Alpha virt. eigenvalues --    1.80889   1.82717   1.89647   1.94609   2.07170
 Alpha virt. eigenvalues --    2.21286   2.21703   2.26784   2.28277   2.46637
 Alpha virt. eigenvalues --    2.71566   2.81948   2.83659   2.83989   2.93629
 Alpha virt. eigenvalues --    2.98876   3.08624   3.09111   3.10334   3.28061
 Alpha virt. eigenvalues --    3.36394   3.37999   3.42591   3.56172   3.75299
 Alpha virt. eigenvalues --    3.94881   4.12413   4.47016  24.69139  25.13252
 Alpha virt. eigenvalues --   26.30029
  Beta  occ. eigenvalues --  -11.25134 -11.24075 -11.22383  -1.06065  -0.90408
  Beta  occ. eigenvalues --   -0.71807  -0.64573  -0.61261  -0.42772  -0.39191
  Beta virt. eigenvalues --    0.04178   0.05492   0.06547   0.06570   0.10798
  Beta virt. eigenvalues --    0.11497   0.11779   0.14700   0.18134   0.18482
  Beta virt. eigenvalues --    0.18709   0.19072   0.19686   0.21822   0.24418
  Beta virt. eigenvalues --    0.26096   0.27942   0.31518   0.32908   0.36581
  Beta virt. eigenvalues --    0.40230   0.50865   0.60674   0.67198   0.69213
  Beta virt. eigenvalues --    0.70875   0.73486   0.79391   0.80522   0.84306
  Beta virt. eigenvalues --    0.86539   0.87849   0.90009   0.95574   1.05044
  Beta virt. eigenvalues --    1.10026   1.27116   1.32177   1.34912   1.36956
  Beta virt. eigenvalues --    1.40025   1.43729   1.49810   1.68793   1.69347
  Beta virt. eigenvalues --    1.72660   1.82124   1.82461   1.89380   1.95406
  Beta virt. eigenvalues --    2.10655   2.21924   2.24043   2.27295   2.30917
  Beta virt. eigenvalues --    2.46990   2.71787   2.83680   2.83830   2.84595
  Beta virt. eigenvalues --    2.94156   2.99517   3.10233   3.10744   3.12623
  Beta virt. eigenvalues --    3.29923   3.34495   3.39936   3.43568   3.56508
  Beta virt. eigenvalues --    3.76352   3.94827   4.14065   4.48057  24.69344
  Beta virt. eigenvalues --   25.14601  26.30129
          Condensed to atoms (all electrons):
               1          2          3          4          5          6
     1  C    9.584932  -5.944501   0.684799  -0.228108   0.034090   0.034090
     2  C   -5.944501  20.980153  -7.874567   0.746778   0.037744   0.037744
     3  C    0.684799  -7.874567  12.935725  -0.089789   0.304628   0.304628
     4  H   -0.228108   0.746778  -0.089789   0.423295  -0.000035  -0.000035
     5  H    0.034090   0.037744   0.304628  -0.000035   0.522654  -0.032173
     6  H    0.034090   0.037744   0.304628  -0.000035  -0.032173   0.522654
          Atomic-Atomic Spin Densities.
               1          2          3          4          5          6
     1  C   -0.199531  -0.725983  -0.152425   0.020865  -0.013523  -0.013523
     2  C   -0.725983   2.260309  -0.408283  -0.052325  -0.019453  -0.019453
     3  C   -0.152425  -0.408283   1.819325   0.021998   0.030744   0.030744
     4  H    0.020865  -0.052325   0.021998  -0.074971  -0.000400  -0.000400
     5  H   -0.013523  -0.019453   0.030744  -0.000400  -0.108087   0.006939
     6  H   -0.013523  -0.019453   0.030744  -0.000400   0.006939  -0.108087
 Mulliken charges and spin densities:
               1          2
     1  C    1.834698  -1.084121
     2  C   -1.983351   1.034812
     3  C   -0.265424   1.342103
     4  H    0.147893  -0.085234
     5  H    0.133092  -0.103780
     6  H    0.133092  -0.103780
 Sum of Mulliken charges =  -0.00000   1.00000
 Mulliken charges and spin densities with hydrogens summed into heavy atoms:
               1          2
     1  C    1.834698  -1.084121
     2  C   -1.835457   0.949578
     3  C    0.000759   1.134543
 Electronic spatial extent (au):  <R**2>=            160.9522
 Charge=             -0.0000 electrons
 Dipole moment (field-independent basis, Debye):
    X=             -0.0000    Y=              0.0000    Z=             -0.1759  Tot=              0.1759
 Quadrupole moment (field-independent basis, Debye-Ang):
   XX=            -20.5361   YY=            -18.7488   ZZ=            -12.6601
   XY=             -0.0000   XZ=              0.0000   YZ=             -0.0000
 Traceless Quadrupole moment (field-independent basis, Debye-Ang):
   XX=             -3.2211   YY=             -1.4338   ZZ=              4.6549
   XY=             -0.0000   XZ=              0.0000   YZ=             -0.0000
 Octapole moment (field-independent basis, Debye-Ang**2):
  XXX=              0.0000  YYY=              0.0000  ZZZ=              8.1229  XYY=             -0.0000
  XXY=              0.0000  XXZ=             -0.2278  XZZ=              0.0000  YZZ=              0.0000
  YYZ=             -3.8825  XYZ=             -0.0000
 Hexadecapole moment (field-independent basis, Debye-Ang**3):
 XXXX=            -24.8129 YYYY=            -28.5918 ZZZZ=           -138.8761 XXXY=             -0.0000
 XXXZ=             -0.0000 YYYX=             -0.0000 YYYZ=              0.0000 ZZZX=             -0.0000
 ZZZY=             -0.0000 XXYY=             -9.3222 XXZZ=            -37.3465 YYZZ=            -32.4018
 XXYZ=              0.0000 YYXZ=             -0.0000 ZZXY=              0.0000
 N-N= 5.341256334545D+01 E-N=-3.750980403466D+02  KE= 1.152289831936D+02
 Symmetry A1   KE= 1.078290870377D+02
 Symmetry A2   KE= 2.402635388457D-31
 Symmetry B1   KE= 3.276816517801D+00
 Symmetry B2   KE= 4.123079638062D+00
 Leave Link  601 at Tue Oct 10 07:18:03 2017, MaxMem=    33554432 cpu:         0.2
 (Enter /usr/local/gaussian/2009-E.01/g09/l9999.exe)
 1\1\ WCSS.PL-BEM-WN1424\SP\UCCSD(T)-FC\6-311++G(d,p)\C3H3(2)\ROOT\10-O
 ct-2017\0\\#p ccsd(t,maxcyc=200)/6-311++G(d,p)\\ccsd(t) iener\\0,2\C,0
 ,0.041120028,0.028487228,0.723456272\C,0,1.030941757,-0.567468714,1.12
 4520545\C,0,-1.065496239,0.694763307,0.275068208\H,0,1.890838445,-1.08
 5198852,1.472940699\H,0,-1.946247739,0.153399937,-0.048103128\H,0,-1.0
 83098261,1.777011063,0.234237128\\Version=ES64L-G09RevE.01\State=2-B1\
 HF=-115.2818272\MP2=-115.6503\MP3=-115.6748301\MP4D=-115.6847199\MP4DQ
 =-115.6764749\PUHF=-115.3011667\PMP2-0=-115.6667097\PMP3-0=-115.686866
 5\MP4SDQ=-115.6831007\CCSD=-115.6897662\CCSD(T)=-115.7075331\S2=0.9654
 85\S2-1=0.8947\S2A=0.78083\RMSD=5.912e-09\PG=C02V [C2(C1C1C1H1),SGV(H2
 )]\\@


 TO BEHOLD HARMS OF OUR OWN HANDS DOING,
 WHERE NONE BESIDE US WROUGHT,
 CAUSES SHARP RUING...

                                         SOPHOCLES
 Job cpu time:       0 days  0 hours 12 minutes 11.8 seconds.
 File lengths (MBytes):  RWF=     98 Int=      0 D2E=      0 Chk=      2 Scr=      1
 Normal termination of Gaussian 09 at Tue Oct 10 07:18:03 2017.
