 Entering Gaussian System, Link 0=/usr/local/gaussian/2009-E.01/g09/g09
 Initial command:
 /usr/local/gaussian/2009-E.01/g09/l1.exe "/lustre/scratch/eerd/4986703.achilles/Gau-25946.inp" -scrdir="/lustre/scratch/eerd/4986703.achilles/"
 Entering Link 1 = /usr/local/gaussian/2009-E.01/g09/l1.exe PID=     25947.
  
 Copyright (c) 1988,1990,1992,1993,1995,1998,2003,2009,2015,
            Gaussian, Inc.  All Rights Reserved.
  
 This is part of the Gaussian(R) 09 program.  It is based on
 the Gaussian(R) 03 system (copyright 2003, Gaussian, Inc.),
 the Gaussian(R) 98 system (copyright 1998, Gaussian, Inc.),
 the Gaussian(R) 94 system (copyright 1995, Gaussian, Inc.),
 the Gaussian 92(TM) system (copyright 1992, Gaussian, Inc.),
 the Gaussian 90(TM) system (copyright 1990, Gaussian, Inc.),
 the Gaussian 88(TM) system (copyright 1988, Gaussian, Inc.),
 the Gaussian 86(TM) system (copyright 1986, Carnegie Mellon
 University), and the Gaussian 82(TM) system (copyright 1983,
 Carnegie Mellon University). Gaussian is a federally registered
 trademark of Gaussian, Inc.
  
 This software contains proprietary and confidential information,
 including trade secrets, belonging to Gaussian, Inc.
  
 This software is provided under written license and may be
 used, copied, transmitted, or stored only in accord with that
 written license.
  
 The following legend is applicable only to US Government
 contracts under FAR:
  
                    RESTRICTED RIGHTS LEGEND
  
 Use, reproduction and disclosure by the US Government is
 subject to restrictions as set forth in subparagraphs (a)
 and (c) of the Commercial Computer Software - Restricted
 Rights clause in FAR 52.227-19.
  
 Gaussian, Inc.
 340 Quinnipiac St., Bldg. 40, Wallingford CT 06492
  
  
 ---------------------------------------------------------------
 Warning -- This program may not be used in any manner that
 competes with the business of Gaussian, Inc. or will provide
 assistance to any competitor of Gaussian, Inc.  The licensee
 of this program is prohibited from giving any competitor of
 Gaussian, Inc. access to this program.  By using this program,
 the user acknowledges that Gaussian, Inc. is engaged in the
 business of creating and licensing software in the field of
 computational chemistry and represents and warrants to the
 licensee that it is not a competitor of Gaussian, Inc. and that
 it will not use this program in any manner prohibited above.
 ---------------------------------------------------------------
  

 Cite this work as:
 Gaussian 09, Revision E.01,
 M. J. Frisch, G. W. Trucks, H. B. Schlegel, G. E. Scuseria, 
 M. A. Robb, J. R. Cheeseman, G. Scalmani, V. Barone, B. Mennucci, 
 G. A. Petersson, H. Nakatsuji, M. Caricato, X. Li, H. P. Hratchian, 
 A. F. Izmaylov, J. Bloino, G. Zheng, J. L. Sonnenberg, M. Hada, 
 M. Ehara, K. Toyota, R. Fukuda, J. Hasegawa, M. Ishida, T. Nakajima, 
 Y. Honda, O. Kitao, H. Nakai, T. Vreven, J. A. Montgomery, Jr., 
 J. E. Peralta, F. Ogliaro, M. Bearpark, J. J. Heyd, E. Brothers, 
 K. N. Kudin, V. N. Staroverov, T. Keith, R. Kobayashi, J. Normand, 
 K. Raghavachari, A. Rendell, J. C. Burant, S. S. Iyengar, J. Tomasi, 
 M. Cossi, N. Rega, J. M. Millam, M. Klene, J. E. Knox, J. B. Cross, 
 V. Bakken, C. Adamo, J. Jaramillo, R. Gomperts, R. E. Stratmann, 
 O. Yazyev, A. J. Austin, R. Cammi, C. Pomelli, J. W. Ochterski, 
 R. L. Martin, K. Morokuma, V. G. Zakrzewski, G. A. Voth, 
 P. Salvador, J. J. Dannenberg, S. Dapprich, A. D. Daniels, 
 O. Farkas, J. B. Foresman, J. V. Ortiz, J. Cioslowski, 
 and D. J. Fox, Gaussian, Inc., Wallingford CT, 2013.
 
 ******************************************
 Gaussian 09:  ES64L-G09RevE.01 30-Nov-2015
                10-Oct-2017 
 ******************************************
 %NProcShared=8
 Will use up to    8 processors via shared memory.
 -----------------------------------
 #p ccsd(t,maxcyc=200)/6-311++G(d,p)
 -----------------------------------
 1/38=1/1;
 2/12=2,17=6,18=5,40=1/2;
 3/5=4,6=6,7=1111,11=9,16=1,25=1,30=1/1,2,3;
 4//1;
 5/5=2,38=5/2;
 8/6=4,9=120000,10=2/1,4;
 9/5=7,6=200,14=2/13;
 6/7=2,8=2,9=2,10=2/1;
 99/5=1,9=1/99;
 Leave Link    1 at Tue Oct 10 10:25:37 2017, MaxMem=           0 cpu:        10.2
 (Enter /usr/local/gaussian/2009-E.01/g09/l101.exe)
 -------------
 ccsd(t) iener
 -------------
 Symbolic Z-matrix:
 Charge =  1 Multiplicity = 3
 C                     1.74176   0.00068   0.00949 
 H                     2.03278   0.02126  -1.06212 
 H                     2.16327   0.90393   0.46911 
 H                     2.16417  -0.91903   0.43434 
 C                     0.33181  -0.0002    0.01934 
 C                    -0.93834  -0.0005    0.00258 
 C                    -2.2014   -0.00097  -0.00512 
 
 NAtoms=      7 NQM=        7 NQMF=       0 NMMI=      0 NMMIF=      0
                NMic=       0 NMicF=      0.
                    Isotopes and Nuclear Properties:
 (Nuclear quadrupole moments (NQMom) in fm**2, nuclear magnetic moments (NMagM)
  in nuclear magnetons)

  Atom         1           2           3           4           5           6           7
 IAtWgt=          12           1           1           1          12          12          12
 AtmWgt=  12.0000000   1.0078250   1.0078250   1.0078250  12.0000000  12.0000000  12.0000000
 NucSpn=           0           1           1           1           0           0           0
 AtZEff=   0.0000000   0.0000000   0.0000000   0.0000000   0.0000000   0.0000000   0.0000000
 NQMom=    0.0000000   0.0000000   0.0000000   0.0000000   0.0000000   0.0000000   0.0000000
 NMagM=    0.0000000   2.7928460   2.7928460   2.7928460   0.0000000   0.0000000   0.0000000
 AtZNuc=   6.0000000   1.0000000   1.0000000   1.0000000   6.0000000   6.0000000   6.0000000
 Leave Link  101 at Tue Oct 10 10:25:37 2017, MaxMem=    33554432 cpu:         3.2
 (Enter /usr/local/gaussian/2009-E.01/g09/l202.exe)
                          Input orientation:                          
 ---------------------------------------------------------------------
 Center     Atomic      Atomic             Coordinates (Angstroms)
 Number     Number       Type             X           Y           Z
 ---------------------------------------------------------------------
      1          6           0        1.741756    0.000680    0.009494
      2          1           0        2.032782    0.021259   -1.062115
      3          1           0        2.163274    0.903931    0.469112
      4          1           0        2.164167   -0.919028    0.434345
      5          6           0        0.331805   -0.000198    0.019345
      6          6           0       -0.938344   -0.000500    0.002577
      7          6           0       -2.201404   -0.000972   -0.005118
 ---------------------------------------------------------------------
                    Distance matrix (angstroms):
                    1          2          3          4          5
     1  C    0.000000
     2  H    1.110615   0.000000
     3  H    1.097630   1.772229   0.000000
     4  H    1.097630   1.772229   1.823291   0.000000
     5  C    1.409986   2.015772   2.091416   2.091416   0.000000
     6  C    2.680109   3.156205   3.264305   3.264305   1.270260
     7  C    3.943187   4.364180   4.482651   4.482651   2.533327
                    6          7
     6  C    0.000000
     7  C    1.263084   0.000000
 Stoichiometry    C4H3(1+,3)
 Framework group  CS[SG(C4H),X(H2)]
 Deg. of freedom    10
 Full point group                 CS      NOp   2
 Largest Abelian subgroup         CS      NOp   2
 Largest concise Abelian subgroup CS      NOp   2
                         Standard orientation:                         
 ---------------------------------------------------------------------
 Center     Atomic      Atomic             Coordinates (Angstroms)
 Number     Number       Type             X           Y           Z
 ---------------------------------------------------------------------
      1          6           0       -0.091714    1.740734   -0.000000
      2          1           0       -1.178610    1.969038   -0.000000
      3          1           0        0.325350    2.187669    0.911645
      4          1           0        0.325350    2.187669   -0.911645
      5          6           0        0.000000    0.333735   -0.000000
      6          6           0        0.057018   -0.935245    0.000000
      7          6           0        0.122682   -2.196620    0.000000
 ---------------------------------------------------------------------
 Rotational constants (GHZ):    156.5047693      4.1835180      4.1793235
 Leave Link  202 at Tue Oct 10 10:25:37 2017, MaxMem=    33554432 cpu:         1.7
 (Enter /usr/local/gaussian/2009-E.01/g09/l301.exe)
 Standard basis: 6-311++G(d,p) (5D, 7F)
 Ernie: Thresh=  0.10000D-02 Tol=  0.10000D-05 Strict=F.
 There are    81 symmetry adapted cartesian basis functions of A'  symmetry.
 There are    32 symmetry adapted cartesian basis functions of A"  symmetry.
 There are    77 symmetry adapted basis functions of A'  symmetry.
 There are    32 symmetry adapted basis functions of A"  symmetry.
   109 basis functions,   171 primitive gaussians,   113 cartesian basis functions
    14 alpha electrons       12 beta electrons
       nuclear repulsion energy        82.2882738402 Hartrees.
 IExCor=    0 DFT=F Ex=HF Corr=None ExCW=0 ScaHFX=  1.000000
 ScaDFX=  1.000000  1.000000  1.000000  1.000000 ScalE2=  1.000000  1.000000
 IRadAn=      0 IRanWt=     -1 IRanGd=            0 ICorTp=0 IEmpDi=  4
 NAtoms=    7 NActive=    7 NUniq=    6 SFac= 1.36D+00 NAtFMM=   60 NAOKFM=F Big=F
 Integral buffers will be    131072 words long.
 Raffenetti 2 integral format.
 Two-electron integral symmetry is turned on.
 Leave Link  301 at Tue Oct 10 10:25:38 2017, MaxMem=    33554432 cpu:         5.6
 (Enter /usr/local/gaussian/2009-E.01/g09/l302.exe)
 NPDir=0 NMtPBC=     1 NCelOv=     1 NCel=       1 NClECP=     1 NCelD=      1
         NCelK=      1 NCelE2=     1 NClLst=     1 CellRange=     0.0.
 One-electron integrals computed using PRISM.
 One-electron integral symmetry used in STVInt
 NBasis=   109 RedAO= T EigKep=  3.48D-06  NBF=    77    32
 NBsUse=   108 1.00D-06 EigRej=  6.34D-08 NBFU=    76    32
 Leave Link  302 at Tue Oct 10 10:25:39 2017, MaxMem=    33554432 cpu:         4.1
 (Enter /usr/local/gaussian/2009-E.01/g09/l303.exe)
 DipDrv:  MaxL=1.
 Leave Link  303 at Tue Oct 10 10:25:39 2017, MaxMem=    33554432 cpu:         1.3
 (Enter /usr/local/gaussian/2009-E.01/g09/l401.exe)
 ExpMin= 3.60D-02 ExpMax= 4.56D+03 ExpMxC= 6.82D+02 IAcc=3 IRadAn=         5 AccDes= 0.00D+00
 Harris functional with IExCor=  205 and IRadAn=       5 diagonalized for initial guess.
 HarFok:  IExCor=  205 AccDes= 0.00D+00 IRadAn=         5 IDoV= 1 UseB2=F ITyADJ=14
 ICtDFT=  3500011 ScaDFX=  1.000000  1.000000  1.000000  1.000000
 FoFCou: FMM=F IPFlag=           0 FMFlag=      100000 FMFlg1=           0
         NFxFlg=           0 DoJE=T BraDBF=F KetDBF=T FulRan=T
         wScrn=  0.000000 ICntrl=     500 IOpCl=  0 I1Cent=   200000004 NGrid=           0
         NMat0=    1 NMatS0=      1 NMatT0=    0 NMatD0=    1 NMtDS0=    0 NMtDT0=    0
 Petite list used in FoFCou.
 Harris En= -152.853447594512    
 JPrj=0 DoOrth=F DoCkMO=F.
 Initial guess orbital symmetries:
 Alpha Orbitals:
       Occupied  (A') (A') (A') (A') (A') (A') (A') (A') (A") (A')
                 (A") (A') (A') (A")
       Virtual   (A') (A') (A") (A') (A') (A") (A') (A') (A') (A')
                 (A") (A') (A") (A') (A') (A") (A') (A') (A") (A')
                 (A") (A') (A') (A') (A') (A') (A') (A") (A') (A')
                 (A') (A") (A') (A") (A') (A") (A') (A') (A") (A')
                 (A') (A') (A') (A") (A') (A') (A') (A') (A") (A")
                 (A') (A') (A") (A') (A") (A") (A') (A') (A") (A")
                 (A') (A') (A') (A") (A') (A') (A') (A") (A') (A")
                 (A') (A') (A") (A') (A') (A") (A') (A") (A') (A')
                 (A") (A') (A') (A") (A') (A') (A') (A') (A") (A')
                 (A') (A') (A') (A')
 Beta  Orbitals:
       Occupied  (A') (A') (A') (A') (A') (A') (A') (A') (A") (A')
                 (A") (A')
       Virtual   (A') (A") (A') (A') (A") (A') (A') (A") (A') (A')
                 (A') (A') (A") (A') (A") (A') (A') (A") (A') (A')
                 (A") (A') (A") (A') (A') (A') (A') (A') (A') (A")
                 (A') (A') (A') (A") (A') (A") (A') (A") (A') (A')
                 (A") (A') (A') (A') (A') (A") (A') (A') (A') (A')
                 (A") (A") (A') (A') (A") (A') (A") (A") (A') (A')
                 (A") (A") (A') (A') (A') (A") (A') (A') (A') (A")
                 (A') (A") (A') (A') (A") (A') (A') (A") (A') (A")
                 (A') (A') (A") (A') (A') (A") (A') (A') (A') (A')
                 (A") (A') (A') (A') (A') (A')
 The electronic state of the initial guess is 3-A".
 Initial guess <Sx>= 0.0000 <Sy>= 0.0000 <Sz>= 1.0000 <S**2>= 2.0000 S= 1.0000
 Leave Link  401 at Tue Oct 10 10:25:40 2017, MaxMem=    33554432 cpu:         5.7
 (Enter /usr/local/gaussian/2009-E.01/g09/l502.exe)
 UHF open shell SCF:
 Using DIIS extrapolation, IDIIS=  1040.
 Integral symmetry usage will be decided dynamically.
 Keep R1 and R2 ints in memory in symmetry-blocked form, NReq=27890063.
 IVT=       58753 IEndB=       58753 NGot=    33554432 MDV=    14937105
 LenX=    14937105 LenY=    14923895
 Requested convergence on RMS density matrix=1.00D-08 within 128 cycles.
 Requested convergence on MAX density matrix=1.00D-06.
 Requested convergence on             energy=1.00D-06.
 No special actions if energy rises.
 FoFCou: FMM=F IPFlag=           0 FMFlag=           0 FMFlg1=           0
         NFxFlg=           0 DoJE=F BraDBF=F KetDBF=F FulRan=T
         wScrn=  0.000000 ICntrl=     600 IOpCl=  0 I1Cent=           0 NGrid=           0
         NMat0=    1 NMatS0=   5995 NMatT0=    0 NMatD0=    1 NMtDS0=    0 NMtDT0=    0
 Petite list used in FoFCou.

 Cycle   1  Pass 1  IDiag  1:
 E= -152.547382204836    
 DIIS: error= 5.89D-02 at cycle   1 NSaved=   1.
 NSaved= 1 IEnMin= 1 EnMin= -152.547382204836     IErMin= 1 ErrMin= 5.89D-02
 ErrMax= 5.89D-02  0.00D+00 EMaxC= 1.00D-01 BMatC= 1.27D+00 BMatP= 1.27D+00
 IDIUse=3 WtCom= 4.11D-01 WtEn= 5.89D-01
 Coeff-Com:  0.100D+01
 Coeff-En:   0.100D+01
 Coeff:      0.100D+01
 Gap=     0.341 Goal=   None    Shift=    0.000
 Gap=     0.304 Goal=   None    Shift=    0.000
 GapD=    0.304 DampG=1.000 DampE=0.500 DampFc=0.5000 IDamp=-1.
 Damping current iteration by 5.00D-01
 RMSDP=2.52D-02 MaxDP=8.71D-01              OVMax= 1.78D-01

 Cycle   2  Pass 1  IDiag  1:
 E= -152.637271239754     Delta-E=       -0.089889034918 Rises=F Damp=T
 DIIS: error= 3.09D-02 at cycle   2 NSaved=   2.
 NSaved= 2 IEnMin= 2 EnMin= -152.637271239754     IErMin= 2 ErrMin= 3.09D-02
 ErrMax= 3.09D-02  0.00D+00 EMaxC= 1.00D-01 BMatC= 2.83D-01 BMatP= 1.27D+00
 IDIUse=3 WtCom= 6.91D-01 WtEn= 3.09D-01
 Coeff-Com: -0.623D+00 0.162D+01
 Coeff-En:   0.000D+00 0.100D+01
 Coeff:     -0.430D+00 0.143D+01
 Gap=     0.369 Goal=   None    Shift=    0.000
 Gap=     0.464 Goal=   None    Shift=    0.000
 RMSDP=7.33D-03 MaxDP=2.95D-01 DE=-8.99D-02 OVMax= 1.14D-01

 Cycle   3  Pass 1  IDiag  1:
 E= -152.730201348986     Delta-E=       -0.092930109231 Rises=F Damp=F
 DIIS: error= 1.35D-02 at cycle   3 NSaved=   3.
 NSaved= 3 IEnMin= 3 EnMin= -152.730201348986     IErMin= 3 ErrMin= 1.35D-02
 ErrMax= 1.35D-02  0.00D+00 EMaxC= 1.00D-01 BMatC= 2.03D-02 BMatP= 2.83D-01
 IDIUse=3 WtCom= 8.65D-01 WtEn= 1.35D-01
 Coeff-Com: -0.187D+00 0.349D+00 0.838D+00
 Coeff-En:   0.000D+00 0.000D+00 0.100D+01
 Coeff:     -0.161D+00 0.302D+00 0.860D+00
 Gap=     0.362 Goal=   None    Shift=    0.000
 Gap=     0.466 Goal=   None    Shift=    0.000
 RMSDP=2.28D-03 MaxDP=1.26D-01 DE=-9.29D-02 OVMax= 5.06D-02

 Cycle   4  Pass 1  IDiag  1:
 E= -152.739389241439     Delta-E=       -0.009187892453 Rises=F Damp=F
 DIIS: error= 5.21D-03 at cycle   4 NSaved=   4.
 NSaved= 4 IEnMin= 4 EnMin= -152.739389241439     IErMin= 4 ErrMin= 5.21D-03
 ErrMax= 5.21D-03  0.00D+00 EMaxC= 1.00D-01 BMatC= 5.47D-03 BMatP= 2.03D-02
 IDIUse=3 WtCom= 9.48D-01 WtEn= 5.21D-02
 Coeff-Com:  0.719D-02-0.463D-01 0.204D+00 0.835D+00
 Coeff-En:   0.000D+00 0.000D+00 0.000D+00 0.100D+01
 Coeff:      0.681D-02-0.439D-01 0.193D+00 0.844D+00
 Gap=     0.364 Goal=   None    Shift=    0.000
 Gap=     0.453 Goal=   None    Shift=    0.000
 RMSDP=1.16D-03 MaxDP=5.97D-02 DE=-9.19D-03 OVMax= 2.73D-02

 Cycle   5  Pass 1  IDiag  1:
 E= -152.743097171101     Delta-E=       -0.003707929662 Rises=F Damp=F
 DIIS: error= 3.20D-03 at cycle   5 NSaved=   5.
 NSaved= 5 IEnMin= 5 EnMin= -152.743097171101     IErMin= 5 ErrMin= 3.20D-03
 ErrMax= 3.20D-03  0.00D+00 EMaxC= 1.00D-01 BMatC= 2.14D-03 BMatP= 5.47D-03
 IDIUse=3 WtCom= 9.68D-01 WtEn= 3.20D-02
 Coeff-Com:  0.514D-01-0.766D-01-0.356D+00-0.386D+00 0.177D+01
 Coeff-En:   0.000D+00 0.000D+00 0.000D+00 0.000D+00 0.100D+01
 Coeff:      0.498D-01-0.742D-01-0.344D+00-0.374D+00 0.174D+01
 Gap=     0.375 Goal=   None    Shift=    0.000
 Gap=     0.467 Goal=   None    Shift=    0.000
 RMSDP=1.54D-03 MaxDP=7.51D-02 DE=-3.71D-03 OVMax= 4.85D-02

 Cycle   6  Pass 1  IDiag  1:
 E= -152.747124950085     Delta-E=       -0.004027778984 Rises=F Damp=F
 DIIS: error= 2.35D-03 at cycle   6 NSaved=   6.
 NSaved= 6 IEnMin= 6 EnMin= -152.747124950085     IErMin= 6 ErrMin= 2.35D-03
 ErrMax= 2.35D-03  0.00D+00 EMaxC= 1.00D-01 BMatC= 8.47D-04 BMatP= 2.14D-03
 IDIUse=3 WtCom= 9.76D-01 WtEn= 2.35D-02
 Coeff-Com: -0.128D-01 0.225D-01 0.128D+00 0.142D-02-0.629D+00 0.149D+01
 Coeff-En:   0.000D+00 0.000D+00 0.000D+00 0.000D+00 0.000D+00 0.100D+01
 Coeff:     -0.125D-01 0.219D-01 0.125D+00 0.139D-02-0.614D+00 0.148D+01
 Gap=     0.376 Goal=   None    Shift=    0.000
 Gap=     0.474 Goal=   None    Shift=    0.000
 RMSDP=7.12D-04 MaxDP=1.70D-02 DE=-4.03D-03 OVMax= 4.38D-02

 Cycle   7  Pass 1  IDiag  1:
 E= -152.749089715238     Delta-E=       -0.001964765152 Rises=F Damp=F
 DIIS: error= 2.38D-03 at cycle   7 NSaved=   7.
 NSaved= 7 IEnMin= 7 EnMin= -152.749089715238     IErMin= 6 ErrMin= 2.35D-03
 ErrMax= 2.38D-03  0.00D+00 EMaxC= 1.00D-01 BMatC= 6.54D-04 BMatP= 8.47D-04
 IDIUse=3 WtCom= 9.76D-01 WtEn= 2.35D-02
 Coeff-Com: -0.159D-01 0.195D-01 0.213D+00 0.194D+00-0.875D+00 0.160D+00
 Coeff-Com:  0.131D+01
 Coeff-En:   0.000D+00 0.000D+00 0.000D+00 0.000D+00 0.000D+00 0.000D+00
 Coeff-En:   0.100D+01
 Coeff:     -0.156D-01 0.190D-01 0.208D+00 0.190D+00-0.854D+00 0.156D+00
 Coeff:      0.130D+01
 Gap=     0.376 Goal=   None    Shift=    0.000
 Gap=     0.481 Goal=   None    Shift=    0.000
 RMSDP=6.52D-04 MaxDP=1.35D-02 DE=-1.96D-03 OVMax= 4.74D-02

 Cycle   8  Pass 1  IDiag  1:
 E= -152.750858446431     Delta-E=       -0.001768731193 Rises=F Damp=F
 DIIS: error= 2.05D-03 at cycle   8 NSaved=   8.
 NSaved= 8 IEnMin= 8 EnMin= -152.750858446431     IErMin= 8 ErrMin= 2.05D-03
 ErrMax= 2.05D-03  0.00D+00 EMaxC= 1.00D-01 BMatC= 4.93D-04 BMatP= 6.54D-04
 IDIUse=3 WtCom= 9.80D-01 WtEn= 2.05D-02
 Coeff-Com:  0.435D-01-0.739D-01-0.226D+00-0.180D+00 0.122D+01-0.103D+01
 Coeff-Com: -0.279D+01 0.403D+01
 Coeff-En:   0.000D+00 0.000D+00 0.000D+00 0.000D+00 0.000D+00 0.000D+00
 Coeff-En:   0.000D+00 0.100D+01
 Coeff:      0.426D-01-0.724D-01-0.221D+00-0.177D+00 0.120D+01-0.101D+01
 Coeff:     -0.273D+01 0.397D+01
 Gap=     0.380 Goal=   None    Shift=    0.000
 Gap=     0.500 Goal=   None    Shift=    0.000
 RMSDP=1.88D-03 MaxDP=4.79D-02 DE=-1.77D-03 OVMax= 1.35D-01

 Cycle   9  Pass 1  IDiag  1:
 E= -152.754226768370     Delta-E=       -0.003368321939 Rises=F Damp=F
 DIIS: error= 6.97D-04 at cycle   9 NSaved=   9.
 NSaved= 9 IEnMin= 9 EnMin= -152.754226768370     IErMin= 9 ErrMin= 6.97D-04
 ErrMax= 6.97D-04  0.00D+00 EMaxC= 1.00D-01 BMatC= 1.31D-04 BMatP= 4.93D-04
 IDIUse=3 WtCom= 9.93D-01 WtEn= 6.97D-03
 Coeff-Com:  0.653D-02-0.113D-01-0.103D-01 0.337D-01-0.228D-01 0.597D+00
 Coeff-Com: -0.108D+01 0.187D+00 0.130D+01
 Coeff-En:   0.000D+00 0.000D+00 0.000D+00 0.000D+00 0.000D+00 0.000D+00
 Coeff-En:   0.000D+00 0.000D+00 0.100D+01
 Coeff:      0.648D-02-0.113D-01-0.102D-01 0.335D-01-0.226D-01 0.592D+00
 Coeff:     -0.107D+01 0.186D+00 0.130D+01
 Gap=     0.384 Goal=   None    Shift=    0.000
 Gap=     0.505 Goal=   None    Shift=    0.000
 RMSDP=4.88D-04 MaxDP=1.11D-02 DE=-3.37D-03 OVMax= 3.87D-02

 Cycle  10  Pass 1  IDiag  1:
 E= -152.754520650419     Delta-E=       -0.000293882049 Rises=F Damp=F
 DIIS: error= 3.09D-04 at cycle  10 NSaved=  10.
 NSaved=10 IEnMin=10 EnMin= -152.754520650419     IErMin=10 ErrMin= 3.09D-04
 ErrMax= 3.09D-04  0.00D+00 EMaxC= 1.00D-01 BMatC= 1.43D-05 BMatP= 1.31D-04
 IDIUse=3 WtCom= 9.97D-01 WtEn= 3.09D-03
 Coeff-Com: -0.348D-02 0.555D-02 0.152D-01 0.133D-01-0.586D-01-0.274D+00
 Coeff-Com:  0.534D+00-0.252D-01-0.781D+00 0.157D+01
 Coeff-En:   0.000D+00 0.000D+00 0.000D+00 0.000D+00 0.000D+00 0.000D+00
 Coeff-En:   0.000D+00 0.000D+00 0.000D+00 0.100D+01
 Coeff:     -0.347D-02 0.554D-02 0.151D-01 0.132D-01-0.584D-01-0.273D+00
 Coeff:      0.532D+00-0.251D-01-0.778D+00 0.157D+01
 Gap=     0.382 Goal=   None    Shift=    0.000
 Gap=     0.505 Goal=   None    Shift=    0.000
 RMSDP=1.57D-04 MaxDP=7.03D-03 DE=-2.94D-04 OVMax= 3.16D-03

 Cycle  11  Pass 1  IDiag  1:
 E= -152.754527582929     Delta-E=       -0.000006932510 Rises=F Damp=F
 DIIS: error= 1.54D-04 at cycle  11 NSaved=  11.
 NSaved=11 IEnMin=11 EnMin= -152.754527582929     IErMin=11 ErrMin= 1.54D-04
 ErrMax= 1.54D-04  0.00D+00 EMaxC= 1.00D-01 BMatC= 3.67D-06 BMatP= 1.43D-05
 IDIUse=3 WtCom= 9.98D-01 WtEn= 1.54D-03
 Coeff-Com:  0.396D-03-0.689D-03 0.639D-03-0.163D-01 0.252D-01-0.204D-01
 Coeff-Com:  0.199D-01-0.842D-01 0.159D-01-0.157D+00 0.122D+01
 Coeff-En:   0.000D+00 0.000D+00 0.000D+00 0.000D+00 0.000D+00 0.000D+00
 Coeff-En:   0.000D+00 0.000D+00 0.000D+00 0.000D+00 0.100D+01
 Coeff:      0.396D-03-0.688D-03 0.638D-03-0.163D-01 0.252D-01-0.204D-01
 Coeff:      0.199D-01-0.840D-01 0.158D-01-0.157D+00 0.122D+01
 Gap=     0.384 Goal=   None    Shift=    0.000
 Gap=     0.507 Goal=   None    Shift=    0.000
 RMSDP=1.67D-04 MaxDP=4.09D-03 DE=-6.93D-06 OVMax= 1.09D-02

 Cycle  12  Pass 1  IDiag  1:
 E= -152.754534282527     Delta-E=       -0.000006699598 Rises=F Damp=F
 DIIS: error= 8.30D-05 at cycle  12 NSaved=  12.
 NSaved=12 IEnMin=12 EnMin= -152.754534282527     IErMin=12 ErrMin= 8.30D-05
 ErrMax= 8.30D-05  0.00D+00 EMaxC= 1.00D-01 BMatC= 1.08D-06 BMatP= 3.67D-06
 IDIUse=1 WtCom= 1.00D+00 WtEn= 0.00D+00
 Coeff-Com: -0.608D-03 0.883D-03 0.435D-02 0.100D-01-0.265D-01 0.193D-01
 Coeff-Com: -0.149D-02 0.584D-01-0.866D-02-0.112D+00-0.202D+00 0.126D+01
 Coeff:     -0.608D-03 0.883D-03 0.435D-02 0.100D-01-0.265D-01 0.193D-01
 Coeff:     -0.149D-02 0.584D-01-0.866D-02-0.112D+00-0.202D+00 0.126D+01
 Gap=     0.382 Goal=   None    Shift=    0.000
 Gap=     0.505 Goal=   None    Shift=    0.000
 RMSDP=1.13D-04 MaxDP=3.02D-03 DE=-6.70D-06 OVMax= 7.71D-03

 Cycle  13  Pass 1  IDiag  1:
 E= -152.754534542346     Delta-E=       -0.000000259819 Rises=F Damp=F
 DIIS: error= 7.63D-05 at cycle  13 NSaved=  13.
 NSaved=13 IEnMin=13 EnMin= -152.754534542346     IErMin=13 ErrMin= 7.63D-05
 ErrMax= 7.63D-05  0.00D+00 EMaxC= 1.00D-01 BMatC= 8.94D-07 BMatP= 1.08D-06
 IDIUse=1 WtCom= 1.00D+00 WtEn= 0.00D+00
 Coeff-Com: -0.604D-03 0.105D-02 0.199D-02 0.737D-02-0.202D-01 0.177D-01
 Coeff-Com:  0.154D-01-0.176D-01 0.123D-01 0.873D-01-0.538D+00 0.436D+00
 Coeff-Com:  0.997D+00
 Coeff:     -0.604D-03 0.105D-02 0.199D-02 0.737D-02-0.202D-01 0.177D-01
 Coeff:      0.154D-01-0.176D-01 0.123D-01 0.873D-01-0.538D+00 0.436D+00
 Coeff:      0.997D+00
 Gap=     0.382 Goal=   None    Shift=    0.000
 Gap=     0.506 Goal=   None    Shift=    0.000
 RMSDP=4.63D-05 MaxDP=1.21D-03 DE=-2.60D-07 OVMax= 2.74D-03

 Cycle  14  Pass 1  IDiag  1:
 E= -152.754536847014     Delta-E=       -0.000002304668 Rises=F Damp=F
 DIIS: error= 2.30D-05 at cycle  14 NSaved=  14.
 NSaved=14 IEnMin=14 EnMin= -152.754536847014     IErMin=14 ErrMin= 2.30D-05
 ErrMax= 2.30D-05  0.00D+00 EMaxC= 1.00D-01 BMatC= 7.58D-08 BMatP= 8.94D-07
 IDIUse=1 WtCom= 1.00D+00 WtEn= 0.00D+00
 Coeff-Com: -0.588D-04 0.946D-04 0.271D-03 0.368D-03-0.148D-02-0.473D-02
 Coeff-Com:  0.102D-01 0.495D-02-0.166D-01-0.148D-01 0.120D+00-0.627D-01
 Coeff-Com: -0.907D+00 0.187D+01
 Coeff:     -0.588D-04 0.946D-04 0.271D-03 0.368D-03-0.148D-02-0.473D-02
 Coeff:      0.102D-01 0.495D-02-0.166D-01-0.148D-01 0.120D+00-0.627D-01
 Coeff:     -0.907D+00 0.187D+01
 Gap=     0.383 Goal=   None    Shift=    0.000
 Gap=     0.506 Goal=   None    Shift=    0.000
 RMSDP=1.25D-05 MaxDP=3.32D-04 DE=-2.30D-06 OVMax= 6.36D-04

 Cycle  15  Pass 1  IDiag  1:
 E= -152.754537030828     Delta-E=       -0.000000183814 Rises=F Damp=F
 DIIS: error= 9.51D-06 at cycle  15 NSaved=  15.
 NSaved=15 IEnMin=15 EnMin= -152.754537030828     IErMin=15 ErrMin= 9.51D-06
 ErrMax= 9.51D-06  0.00D+00 EMaxC= 1.00D-01 BMatC= 1.04D-08 BMatP= 7.58D-08
 IDIUse=1 WtCom= 1.00D+00 WtEn= 0.00D+00
 Coeff-Com:  0.120D-04-0.390D-04 0.334D-03 0.508D-04-0.685D-03 0.171D-02
 Coeff-Com: -0.173D-02-0.580D-03 0.204D-02-0.645D-02 0.134D-01 0.388D-01
 Coeff-Com:  0.172D-01-0.494D+00 0.143D+01
 Coeff:      0.120D-04-0.390D-04 0.334D-03 0.508D-04-0.685D-03 0.171D-02
 Coeff:     -0.173D-02-0.580D-03 0.204D-02-0.645D-02 0.134D-01 0.388D-01
 Coeff:      0.172D-01-0.494D+00 0.143D+01
 Gap=     0.383 Goal=   None    Shift=    0.000
 Gap=     0.506 Goal=   None    Shift=    0.000
 RMSDP=6.34D-06 MaxDP=1.46D-04 DE=-1.84D-07 OVMax= 3.89D-04

 Cycle  16  Pass 1  IDiag  1:
 E= -152.754537058988     Delta-E=       -0.000000028160 Rises=F Damp=F
 DIIS: error= 9.46D-07 at cycle  16 NSaved=  16.
 NSaved=16 IEnMin=16 EnMin= -152.754537058988     IErMin=16 ErrMin= 9.46D-07
 ErrMax= 9.46D-07  0.00D+00 EMaxC= 1.00D-01 BMatC= 1.49D-10 BMatP= 1.04D-08
 IDIUse=1 WtCom= 1.00D+00 WtEn= 0.00D+00
 Coeff-Com: -0.610D-05 0.127D-04-0.604D-04 0.139D-03-0.137D-03 0.290D-03
 Coeff-Com: -0.753D-03 0.857D-03 0.564D-03 0.222D-02-0.186D-01 0.809D-02
 Coeff-Com:  0.954D-01-0.109D+00-0.342D+00 0.136D+01
 Coeff:     -0.610D-05 0.127D-04-0.604D-04 0.139D-03-0.137D-03 0.290D-03
 Coeff:     -0.753D-03 0.857D-03 0.564D-03 0.222D-02-0.186D-01 0.809D-02
 Coeff:      0.954D-01-0.109D+00-0.342D+00 0.136D+01
 Gap=     0.383 Goal=   None    Shift=    0.000
 Gap=     0.506 Goal=   None    Shift=    0.000
 RMSDP=5.36D-07 MaxDP=1.55D-05 DE=-2.82D-08 OVMax= 2.92D-05

 Cycle  17  Pass 1  IDiag  1:
 E= -152.754537059129     Delta-E=       -0.000000000141 Rises=F Damp=F
 DIIS: error= 4.25D-07 at cycle  17 NSaved=  17.
 NSaved=17 IEnMin=17 EnMin= -152.754537059129     IErMin=17 ErrMin= 4.25D-07
 ErrMax= 4.25D-07  0.00D+00 EMaxC= 1.00D-01 BMatC= 1.54D-11 BMatP= 1.49D-10
 IDIUse=1 WtCom= 1.00D+00 WtEn= 0.00D+00
 Coeff-Com:  0.272D-06 0.448D-06-0.110D-04-0.223D-04 0.671D-04-0.155D-03
 Coeff-Com:  0.243D-03-0.180D-03-0.242D-03-0.254D-03 0.367D-02-0.259D-02
 Coeff-Com: -0.256D-01 0.459D-01 0.197D-01-0.340D+00 0.130D+01
 Coeff:      0.272D-06 0.448D-06-0.110D-04-0.223D-04 0.671D-04-0.155D-03
 Coeff:      0.243D-03-0.180D-03-0.242D-03-0.254D-03 0.367D-02-0.259D-02
 Coeff:     -0.256D-01 0.459D-01 0.197D-01-0.340D+00 0.130D+01
 Gap=     0.383 Goal=   None    Shift=    0.000
 Gap=     0.506 Goal=   None    Shift=    0.000
 RMSDP=2.90D-07 MaxDP=6.99D-06 DE=-1.41D-10 OVMax= 1.81D-05

 Cycle  18  Pass 1  IDiag  1:
 E= -152.754537059171     Delta-E=       -0.000000000042 Rises=F Damp=F
 DIIS: error= 1.48D-07 at cycle  18 NSaved=  18.
 NSaved=18 IEnMin=18 EnMin= -152.754537059171     IErMin=18 ErrMin= 1.48D-07
 ErrMax= 1.48D-07  0.00D+00 EMaxC= 1.00D-01 BMatC= 2.30D-12 BMatP= 1.54D-11
 IDIUse=1 WtCom= 1.00D+00 WtEn= 0.00D+00
 Coeff-Com:  0.776D-06-0.182D-05 0.876D-05-0.691D-05-0.359D-05 0.380D-04
 Coeff-Com: -0.396D-04-0.671D-04 0.107D-03 0.179D-04-0.101D-03-0.604D-03
 Coeff-Com:  0.439D-02-0.844D-02 0.188D-01 0.167D-01-0.557D+00 0.153D+01
 Coeff:      0.776D-06-0.182D-05 0.876D-05-0.691D-05-0.359D-05 0.380D-04
 Coeff:     -0.396D-04-0.671D-04 0.107D-03 0.179D-04-0.101D-03-0.604D-03
 Coeff:      0.439D-02-0.844D-02 0.188D-01 0.167D-01-0.557D+00 0.153D+01
 Gap=     0.383 Goal=   None    Shift=    0.000
 Gap=     0.506 Goal=   None    Shift=    0.000
 RMSDP=3.09D-08 MaxDP=1.07D-06 DE=-4.16D-11 OVMax= 1.31D-06

 Cycle  19  Pass 1  IDiag  1:
 E= -152.754537059175     Delta-E=       -0.000000000004 Rises=F Damp=F
 DIIS: error= 8.22D-08 at cycle  19 NSaved=  19.
 NSaved=19 IEnMin=19 EnMin= -152.754537059175     IErMin=19 ErrMin= 8.22D-08
 ErrMax= 8.22D-08  0.00D+00 EMaxC= 1.00D-01 BMatC= 6.31D-13 BMatP= 2.30D-12
 IDIUse=1 WtCom= 1.00D+00 WtEn= 0.00D+00
 Coeff-Com:  0.385D-06-0.507D-06-0.663D-05-0.368D-05 0.219D-04-0.248D-04
 Coeff-Com: -0.354D-04 0.755D-04-0.201D-04 0.944D-05-0.149D-03-0.129D-03
 Coeff-Com:  0.193D-02-0.144D-02-0.153D-01 0.401D-01 0.585D-01-0.744D+00
 Coeff-Com:  0.166D+01
 Coeff:      0.385D-06-0.507D-06-0.663D-05-0.368D-05 0.219D-04-0.248D-04
 Coeff:     -0.354D-04 0.755D-04-0.201D-04 0.944D-05-0.149D-03-0.129D-03
 Coeff:      0.193D-02-0.144D-02-0.153D-01 0.401D-01 0.585D-01-0.744D+00
 Coeff:      0.166D+01
 Gap=     0.383 Goal=   None    Shift=    0.000
 Gap=     0.506 Goal=   None    Shift=    0.000
 RMSDP=3.48D-08 MaxDP=1.21D-06 DE=-3.58D-12 OVMax= 1.69D-06

 Cycle  20  Pass 1  IDiag  1:
 E= -152.754537059176     Delta-E=       -0.000000000001 Rises=F Damp=F
 DIIS: error= 2.35D-08 at cycle  20 NSaved=  20.
 NSaved=20 IEnMin=20 EnMin= -152.754537059176     IErMin=20 ErrMin= 2.35D-08
 ErrMax= 2.35D-08  0.00D+00 EMaxC= 1.00D-01 BMatC= 7.51D-14 BMatP= 6.31D-13
 IDIUse=1 WtCom= 1.00D+00 WtEn= 0.00D+00
 Coeff-Com:  0.121D-06-0.172D-06 0.210D-06-0.238D-05 0.518D-05-0.185D-07
 Coeff-Com:  0.968D-05-0.486D-04 0.137D-04-0.801D-05 0.257D-03-0.169D-03
 Coeff-Com: -0.151D-02 0.178D-02 0.639D-02-0.251D-01 0.658D-01 0.141D+00
 Coeff-Com: -0.929D+00 0.174D+01
 Coeff:      0.121D-06-0.172D-06 0.210D-06-0.238D-05 0.518D-05-0.185D-07
 Coeff:      0.968D-05-0.486D-04 0.137D-04-0.801D-05 0.257D-03-0.169D-03
 Coeff:     -0.151D-02 0.178D-02 0.639D-02-0.251D-01 0.658D-01 0.141D+00
 Coeff:     -0.929D+00 0.174D+01
 Gap=     0.383 Goal=   None    Shift=    0.000
 Gap=     0.506 Goal=   None    Shift=    0.000
 RMSDP=1.74D-08 MaxDP=4.30D-07 DE=-1.19D-12 OVMax= 1.09D-06

 Cycle  21  Pass 1  IDiag  1:
 E= -152.754537059176     Delta-E=        0.000000000000 Rises=F Damp=F
 DIIS: error= 3.34D-08 at cycle  21 NSaved=  20.
 NSaved=20 IEnMin=19 EnMin= -152.754537059176     IErMin=19 ErrMin= 2.35D-08
 ErrMax= 3.34D-08  0.00D+00 EMaxC= 1.00D-01 BMatC= 1.19D-13 BMatP= 7.51D-14
 IDIUse=1 WtCom= 1.00D+00 WtEn= 0.00D+00
 Large coefficients: NSaved= 20 BigCof=    0.00 CofMax=   10.00 Det=-2.62D-15
 Inversion failed.  Reducing to 19 matrices.
 Large coefficients: NSaved= 19 BigCof=    0.00 CofMax=   10.00 Det=-2.63D-15
 Inversion failed.  Reducing to 18 matrices.
 Large coefficients: NSaved= 18 BigCof=    0.00 CofMax=   10.00 Det=-3.01D-15
 Inversion failed.  Reducing to 17 matrices.
 Large coefficients: NSaved= 17 BigCof=    0.00 CofMax=   10.00 Det=-3.03D-15
 Inversion failed.  Reducing to 16 matrices.
 Large coefficients: NSaved= 16 BigCof=    0.00 CofMax=   10.00 Det=-3.40D-15
 Inversion failed.  Reducing to 15 matrices.
 Coeff-Com: -0.579D-05 0.121D-04 0.301D-05 0.469D-05-0.775D-04-0.120D-03
 Coeff-Com:  0.953D-03-0.102D-02-0.668D-04 0.422D-02-0.410D-01 0.626D-01
 Coeff-Com:  0.172D+00-0.880D+00 0.168D+01
 Coeff:     -0.579D-05 0.121D-04 0.301D-05 0.469D-05-0.775D-04-0.120D-03
 Coeff:      0.953D-03-0.102D-02-0.668D-04 0.422D-02-0.410D-01 0.626D-01
 Coeff:      0.172D+00-0.880D+00 0.168D+01
 Gap=     0.383 Goal=   None    Shift=    0.000
 Gap=     0.506 Goal=   None    Shift=    0.000
 RMSDP=2.35D-08 MaxDP=5.78D-07 DE= 8.53D-14 OVMax= 1.54D-06

 Cycle  22  Pass 1  IDiag  1:
 E= -152.754537059176     Delta-E=       -0.000000000000 Rises=F Damp=F
 DIIS: error= 5.54D-09 at cycle  22 NSaved=  16.
 NSaved=16 IEnMin=14 EnMin= -152.754537059176     IErMin=16 ErrMin= 5.54D-09
 ErrMax= 5.54D-09  0.00D+00 EMaxC= 1.00D-01 BMatC= 4.24D-15 BMatP= 7.51D-14
 IDIUse=1 WtCom= 1.00D+00 WtEn= 0.00D+00
 Large coefficients: NSaved= 16 BigCof=    0.00 CofMax=   10.00 Det=-6.01D-16
 Inversion failed.  Reducing to 15 matrices.
 Coeff-Com: -0.161D-05-0.581D-06 0.195D-05-0.385D-05 0.992D-04-0.274D-03
 Coeff-Com:  0.142D-03-0.561D-03 0.824D-03 0.997D-02-0.422D-01 0.274D-01
 Coeff-Com:  0.220D+00-0.900D+00 0.168D+01
 Coeff:     -0.161D-05-0.581D-06 0.195D-05-0.385D-05 0.992D-04-0.274D-03
 Coeff:      0.142D-03-0.561D-03 0.824D-03 0.997D-02-0.422D-01 0.274D-01
 Coeff:      0.220D+00-0.900D+00 0.168D+01
 Gap=     0.383 Goal=   None    Shift=    0.000
 Gap=     0.506 Goal=   None    Shift=    0.000
 RMSDP=4.56D-09 MaxDP=1.18D-07 DE=-5.68D-14 OVMax= 3.22D-07

 SCF Done:  E(UHF) =  -152.754537059     A.U. after   22 cycles
            NFock= 22  Conv=0.46D-08     -V/T= 1.9998
 <Sx>= 0.0000 <Sy>= 0.0000 <Sz>= 1.0000 <S**2>= 2.5602 S= 1.1764
 <L.S>= 0.000000000000E+00
 KE= 1.527833819706D+02 PE=-5.134322250782D+02 EE= 1.256060322083D+02
 Annihilation of the first spin contaminant:
 S**2 before annihilation     2.5602,   after     2.1149
 Leave Link  502 at Tue Oct 10 10:25:53 2017, MaxMem=    33554432 cpu:        90.8
 (Enter /usr/local/gaussian/2009-E.01/g09/l801.exe)
 Windowed orbitals will be sorted by symmetry type.
 ExpMin= 3.60D-02 ExpMax= 4.56D+03 ExpMxC= 6.82D+02 IAcc=3 IRadAn=         5 AccDes= 0.00D+00
 HarFok:  IExCor=  205 AccDes= 0.00D+00 IRadAn=         5 IDoV=-2 UseB2=F ITyADJ=14
 ICtDFT= 12500011 ScaDFX=  1.000000  1.000000  1.000000  1.000000
 Largest valence mixing into a core orbital is  1.25D-04
 Largest core mixing into a valence orbital is  3.70D-05
 Largest valence mixing into a core orbital is  1.74D-04
 Largest core mixing into a valence orbital is  4.60D-05
 Range of M.O.s used for correlation:     5   108
 NBasis=   109 NAE=    14 NBE=    12 NFC=     4 NFV=     0
 NROrb=    104 NOA=    10 NOB=     8 NVA=    94 NVB=    96

 **** Warning!!: The largest alpha MO coefficient is  0.20123788D+03


 **** Warning!!: The largest beta MO coefficient is  0.18270197D+03

 Leave Link  801 at Tue Oct 10 10:25:54 2017, MaxMem=    33554432 cpu:         1.2
 (Enter /usr/local/gaussian/2009-E.01/g09/l804.exe)
 Open-shell transformation, MDV=    33554432 ITran=4 ISComp=2.
 Semi-Direct transformation.
 ModeAB=           4 MOrb=            10 LenV=      33124762
 LASXX=      2670956 LTotXX=     2670956 LenRXX=     5454188
 LTotAB=     2783232 MaxLAS=     6030960 LenRXY=           0
 NonZer=     8125144 LenScr=    12942848 LnRSAI=     6030960
 LnScr1=     9797632 LExtra=           0 Total=     34225628
 MaxDsk=          -1 SrtSym=           T ITran=            4
 DoSDTr:  NPSUse=  8
 JobTyp=1 Pass  1:  I=   1 to  10.
 (rs|ai) integrals will be sorted in core.
 Complete sort for first half transformation.
 First half transformation complete.
 Begin second half transformation for I=  10.
 Complete sort for second half transformation.
 Second half transformation complete.
 ModeAB=           4 MOrb=             8 LenV=      33124762
 LASXX=      2175814 LTotXX=     2175814 LenRXX=     4024954
 LTotAB=     1849140 MaxLAS=     4824768 LenRXY=           0
 NonZer=     6200768 LenScr=    10070528 LnRSAI=     4824768
 LnScr1=     7958016 LExtra=           0 Total=     26878266
 MaxDsk=          -1 SrtSym=           T ITran=            4
 DoSDTr:  NPSUse=  8
 JobTyp=2 Pass  1:  I=   1 to   8.
 (rs|ai) integrals will be sorted in core.
 Complete sort for first half transformation.
 First half transformation complete.
 Complete sort for second half transformation.
 Second half transformation complete.
 Spin components of T(2) and E(2):
     alpha-alpha T2 =       0.2287896611D-01 E2=     -0.6317234075D-01
     alpha-beta  T2 =       0.1083653853D+00 E2=     -0.3099876489D+00
     beta-beta   T2 =       0.1984944445D-01 E2=     -0.5127568436D-01
 ANorm=    0.1072890393D+01
 E2 =    -0.4244356740D+00 EUMP2 =    -0.15317897273318D+03
 (S**2,0)=  0.25602D+01           (S**2,1)=  0.24555D+01
 E(PUHF)=      -0.15277674596D+03        E(PMP2)=      -0.15319935670D+03
 Leave Link  804 at Tue Oct 10 10:25:56 2017, MaxMem=    33554432 cpu:        20.2
 (Enter /usr/local/gaussian/2009-E.01/g09/l913.exe)
 CIDS:  MDV=    33554432.
 Frozen-core window:  NFC=   4 NFV=   0.
 IFCWin=0 IBDFC=1 NFBD=     0     0 NFCmp=     0     0 NFFFC=     0     0
 Using original routines for 1st iteration, S=T.
 Using DD4UQ or CC4UQ for 2nd and later iterations.
 Keep R2 and R3 ints in memory in symmetry-blocked form, NReq=27832782.
 FoFCou: FMM=F IPFlag=           0 FMFlag=           0 FMFlg1=           0
         NFxFlg=           0 DoJE=F BraDBF=F KetDBF=F FulRan=T
         wScrn=  0.000000 ICntrl=     600 IOpCl=  0 I1Cent=           0 NGrid=           0
         NMat0=    1 NMatS0=   5995 NMatT0=    0 NMatD0=    1 NMtDS0=    0 NMtDT0=    0
 Petite list used in FoFCou.
 CCSD(T)
 =======
 Iterations= 200 Convergence= 0.100D-06
 Iteration Nr.   1
 **********************
 DD1Dir will call FoFMem   1 times, MxPair=       234
 NAB=    80 NAA=    45 NBB=    28.
 E(PMP3)=      -0.15322934302D+03
 MP4(R+Q)=  0.99187177D-02
 Maximum subspace dimension=  5
 Norm of the A-vectors is  6.5096374D-01 conv= 1.00D-05.
 RLE energy=       -0.4492387522
 E3=       -0.33176370D-01        EUMP3=      -0.15321214910D+03
 E4(DQ)=   -0.13597475D-02        UMP4(DQ)=   -0.15321350885D+03
 E4(SDQ)=  -0.10986123D-01        UMP4(SDQ)=  -0.15322313523D+03
 VARIATIONAL ENERGIES WITH THE FIRST-ORDER WAVEFUNCTION:
 DE(Corr)= -0.44786942     E(Corr)=     -153.20240648    
 NORM(A)=   0.10883866D+01
 Iteration Nr.   2
 **********************
 DD1Dir will call FoFMem   1 times, MxPair=       234
 NAB=    80 NAA=    45 NBB=    28.
 Norm of the A-vectors is  3.4488263D-01 conv= 1.00D-05.
 RLE energy=       -0.4714865191
 DE(Corr)= -0.46556263     E(CORR)=     -153.22009969     Delta=-1.77D-02
 NORM(A)=   0.11066789D+01
 Iteration Nr.   3
 **********************
 DD1Dir will call FoFMem   1 times, MxPair=       234
 NAB=    80 NAA=    45 NBB=    28.
 Norm of the A-vectors is  1.3091190D-01 conv= 1.00D-05.
 RLE energy=       -0.4778102836
 DE(Corr)= -0.47107636     E(CORR)=     -153.22561342     Delta=-5.51D-03
 NORM(A)=   0.11277616D+01
 Iteration Nr.   4
 **********************
 DD1Dir will call FoFMem   1 times, MxPair=       234
 NAB=    80 NAA=    45 NBB=    28.
 Norm of the A-vectors is  9.9453373D-02 conv= 1.00D-05.
 RLE energy=       -0.4804605735
 DE(Corr)= -0.47807253     E(CORR)=     -153.23260959     Delta=-7.00D-03
 NORM(A)=   0.11410525D+01
 Iteration Nr.   5
 **********************
 DD1Dir will call FoFMem   1 times, MxPair=       234
 NAB=    80 NAA=    45 NBB=    28.
 Norm of the A-vectors is  5.0362058D-02 conv= 1.00D-05.
 RLE energy=       -0.4811885811
 DE(Corr)= -0.48045011     E(CORR)=     -153.23498717     Delta=-2.38D-03
 NORM(A)=   0.11470444D+01
 Iteration Nr.   6
 **********************
 DD1Dir will call FoFMem   1 times, MxPair=       234
 NAB=    80 NAA=    45 NBB=    28.
 Norm of the A-vectors is  2.9927210D-02 conv= 1.00D-05.
 RLE energy=       -0.4809529143
 DE(Corr)= -0.48109127     E(CORR)=     -153.23562833     Delta=-6.41D-04
 NORM(A)=   0.11494023D+01
 Iteration Nr.   7
 **********************
 DD1Dir will call FoFMem   1 times, MxPair=       234
 NAB=    80 NAA=    45 NBB=    28.
 Norm of the A-vectors is  1.8210767D-02 conv= 1.00D-05.
 RLE energy=       -0.4814654996
 DE(Corr)= -0.48129134     E(CORR)=     -153.23582840     Delta=-2.00D-04
 NORM(A)=   0.11507454D+01
 Iteration Nr.   8
 **********************
 DD1Dir will call FoFMem   1 times, MxPair=       234
 NAB=    80 NAA=    45 NBB=    28.
 Norm of the A-vectors is  9.3614752D-03 conv= 1.00D-05.
 RLE energy=       -0.4813243012
 DE(Corr)= -0.48134595     E(CORR)=     -153.23588301     Delta=-5.46D-05
 NORM(A)=   0.11508804D+01
 Iteration Nr.   9
 **********************
 DD1Dir will call FoFMem   1 times, MxPair=       234
 NAB=    80 NAA=    45 NBB=    28.
 Norm of the A-vectors is  5.1432771D-03 conv= 1.00D-05.
 RLE energy=       -0.4813997014
 DE(Corr)= -0.48139022     E(CORR)=     -153.23592727     Delta=-4.43D-05
 NORM(A)=   0.11508931D+01
 Iteration Nr.  10
 **********************
 DD1Dir will call FoFMem   1 times, MxPair=       234
 NAB=    80 NAA=    45 NBB=    28.
 Norm of the A-vectors is  2.5351594D-03 conv= 1.00D-05.
 RLE energy=       -0.4813921945
 DE(Corr)= -0.48138339     E(CORR)=     -153.23592045     Delta= 6.83D-06
 NORM(A)=   0.11509372D+01
 Iteration Nr.  11
 **********************
 DD1Dir will call FoFMem   1 times, MxPair=       234
 NAB=    80 NAA=    45 NBB=    28.
 Norm of the A-vectors is  1.4435760D-03 conv= 1.00D-05.
 RLE energy=       -0.4814051660
 DE(Corr)= -0.48140071     E(CORR)=     -153.23593777     Delta=-1.73D-05
 NORM(A)=   0.11509460D+01
 Iteration Nr.  12
 **********************
 DD1Dir will call FoFMem   1 times, MxPair=       234
 NAB=    80 NAA=    45 NBB=    28.
 Norm of the A-vectors is  8.2456848D-04 conv= 1.00D-05.
 RLE energy=       -0.4814121917
 DE(Corr)= -0.48140560     E(CORR)=     -153.23594266     Delta=-4.89D-06
 NORM(A)=   0.11509773D+01
 Iteration Nr.  13
 **********************
 DD1Dir will call FoFMem   1 times, MxPair=       234
 NAB=    80 NAA=    45 NBB=    28.
 Norm of the A-vectors is  4.5569325D-04 conv= 1.00D-05.
 RLE energy=       -0.4814158867
 DE(Corr)= -0.48141223     E(CORR)=     -153.23594929     Delta=-6.63D-06
 NORM(A)=   0.11510003D+01
 Iteration Nr.  14
 **********************
 DD1Dir will call FoFMem   1 times, MxPair=       234
 NAB=    80 NAA=    45 NBB=    28.
 Norm of the A-vectors is  2.6322697D-04 conv= 1.00D-05.
 RLE energy=       -0.4814204981
 DE(Corr)= -0.48141621     E(CORR)=     -153.23595327     Delta=-3.98D-06
 NORM(A)=   0.11510277D+01
 Iteration Nr.  15
 **********************
 DD1Dir will call FoFMem   1 times, MxPair=       234
 NAB=    80 NAA=    45 NBB=    28.
 Norm of the A-vectors is  1.9767651D-04 conv= 1.00D-05.
 RLE energy=       -0.4814212723
 DE(Corr)= -0.48141947     E(CORR)=     -153.23595653     Delta=-3.26D-06
 NORM(A)=   0.11510469D+01
 Iteration Nr.  16
 **********************
 DD1Dir will call FoFMem   1 times, MxPair=       234
 NAB=    80 NAA=    45 NBB=    28.
 Norm of the A-vectors is  1.2943836D-04 conv= 1.00D-05.
 RLE energy=       -0.4814228244
 DE(Corr)= -0.48142199     E(CORR)=     -153.23595905     Delta=-2.52D-06
 NORM(A)=   0.11510544D+01
 Iteration Nr.  17
 **********************
 DD1Dir will call FoFMem   1 times, MxPair=       234
 NAB=    80 NAA=    45 NBB=    28.
 Norm of the A-vectors is  6.9590917D-05 conv= 1.00D-05.
 RLE energy=       -0.4814228364
 DE(Corr)= -0.48142247     E(CORR)=     -153.23595953     Delta=-4.80D-07
 NORM(A)=   0.11510596D+01
 Iteration Nr.  18
 **********************
 DD1Dir will call FoFMem   1 times, MxPair=       234
 NAB=    80 NAA=    45 NBB=    28.
 Norm of the A-vectors is  4.4005727D-05 conv= 1.00D-05.
 RLE energy=       -0.4814230961
 DE(Corr)= -0.48142307     E(CORR)=     -153.23596013     Delta=-5.98D-07
 NORM(A)=   0.11510605D+01
 Iteration Nr.  19
 **********************
 DD1Dir will call FoFMem   1 times, MxPair=       234
 NAB=    80 NAA=    45 NBB=    28.
 Norm of the A-vectors is  2.8025179D-05 conv= 1.00D-05.
 RLE energy=       -0.4814231189
 DE(Corr)= -0.48142307     E(CORR)=     -153.23596013     Delta=-4.22D-09
 NORM(A)=   0.11510611D+01
 Iteration Nr.  20
 **********************
 DD1Dir will call FoFMem   1 times, MxPair=       234
 NAB=    80 NAA=    45 NBB=    28.
 Norm of the A-vectors is  1.5330759D-05 conv= 1.00D-05.
 RLE energy=       -0.4814231503
 DE(Corr)= -0.48142316     E(CORR)=     -153.23596021     Delta=-8.41D-08
 NORM(A)=   0.11510610D+01
 Iteration Nr.  21
 **********************
 DD1Dir will call FoFMem   1 times, MxPair=       234
 NAB=    80 NAA=    45 NBB=    28.
 Norm of the A-vectors is  9.5542060D-06 conv= 1.00D-05.
 RLE energy=       -0.4814232265
 DE(Corr)= -0.48142317     E(CORR)=     -153.23596023     Delta=-1.50D-08
 NORM(A)=   0.11510612D+01
 CI/CC converged in   21 iterations to DelEn=-1.50D-08 Conv= 1.00D-07 ErrA1= 9.55D-06 Conv= 1.00D-05
 Dominant configurations:
 ***********************
 Spin Case        I    J    A    B          Value
    AA           13        15            0.205808D+00
 Largest amplitude= 2.06D-01
 Time for triples=      703.39 seconds.
 T4(CCSD)= -0.26230556D-01
 T5(CCSD)=  0.27060752D-02
 CCSD(T)= -0.15325948471D+03

 S**2, projected HF & approx projected MPn energies after annihilation of
 unwanted spin states (see manual for definitions):

 spins       (S**2,0) (S**2,1)    PUHF        PMP2        PMP3        PMP4
 annihilated
 s+1         1.92305  1.96289 -152.776746 -153.199357 -153.229343
 s+1,s+2     2.00068  1.99980 -152.773628 -153.196426 -153.226669
 s+1 to s+3  2.00000  2.00000 -152.773679 -153.196469 -153.226701
 s+1 to s+4  2.00000  2.00000 -152.773678 -153.196469 -153.226701
 s+1 to s+5  2.00000  2.00000 -152.773678
 s+1 to s+6  2.00000  2.00000 -152.773678

 Discarding MO integrals.
 Leave Link  913 at Tue Oct 10 10:29:47 2017, MaxMem=    33554432 cpu:      1700.9
 (Enter /usr/local/gaussian/2009-E.01/g09/l601.exe)
 Copying SCF densities to generalized density rwf, IOpCl= 1 IROHF=0.

 **********************************************************************

            Population analysis using the SCF density.

 **********************************************************************

 Orbital symmetries:
 Alpha Orbitals:
       Occupied  (A') (A') (A') (A') (A') (A') (A') (A') (A') (A")
                 (A') (A") (A') (A")
       Virtual   (A') (A') (A") (A') (A') (A') (A') (A") (A") (A')
                 (A') (A") (A') (A') (A") (A') (A') (A') (A") (A')
                 (A") (A') (A') (A') (A') (A') (A') (A') (A") (A')
                 (A") (A') (A") (A') (A') (A') (A") (A') (A") (A')
                 (A') (A') (A') (A') (A") (A') (A") (A') (A') (A')
                 (A") (A') (A") (A') (A") (A") (A') (A") (A') (A")
                 (A') (A') (A') (A") (A') (A') (A') (A") (A') (A")
                 (A') (A') (A") (A') (A') (A") (A') (A') (A") (A')
                 (A") (A') (A') (A") (A') (A') (A') (A') (A") (A')
                 (A') (A') (A') (A')
 Beta  Orbitals:
       Occupied  (A') (A') (A') (A') (A') (A') (A') (A') (A') (A")
                 (A') (A")
       Virtual   (A') (A') (A") (A') (A') (A") (A') (A') (A") (A')
                 (A') (A') (A") (A') (A') (A") (A') (A') (A") (A')
                 (A") (A') (A') (A") (A') (A') (A') (A') (A') (A')
                 (A") (A') (A') (A") (A') (A") (A') (A") (A') (A")
                 (A') (A') (A') (A') (A') (A') (A') (A") (A') (A")
                 (A') (A') (A') (A") (A") (A') (A") (A') (A") (A')
                 (A") (A") (A') (A') (A') (A") (A') (A') (A') (A")
                 (A') (A') (A") (A') (A") (A') (A') (A") (A') (A')
                 (A") (A') (A") (A') (A') (A") (A') (A') (A') (A')
                 (A") (A') (A') (A') (A') (A')
 The electronic state is 3-A".
 Alpha  occ. eigenvalues --  -11.60316 -11.59776 -11.51990 -11.47751  -1.37540
 Alpha  occ. eigenvalues --   -1.30515  -1.17589  -0.90814  -0.87832  -0.85901
 Alpha  occ. eigenvalues --   -0.80380  -0.77061  -0.72491  -0.63002
 Alpha virt. eigenvalues --   -0.24734  -0.09543  -0.05620  -0.05563  -0.05363
 Alpha virt. eigenvalues --   -0.03114  -0.02336  -0.02269   0.00289   0.00648
 Alpha virt. eigenvalues --    0.00761   0.01253   0.03296   0.04060   0.04406
 Alpha virt. eigenvalues --    0.05102   0.07266   0.10381   0.10516   0.13870
 Alpha virt. eigenvalues --    0.14561   0.14722   0.16484   0.20559   0.22909
 Alpha virt. eigenvalues --    0.37103   0.38952   0.41243   0.41634   0.45437
 Alpha virt. eigenvalues --    0.45818   0.46817   0.53689   0.55288   0.58997
 Alpha virt. eigenvalues --    0.62679   0.63388   0.66573   0.66735   0.68945
 Alpha virt. eigenvalues --    0.71328   0.84200   0.86019   0.98404   0.98839
 Alpha virt. eigenvalues --    1.00360   1.06672   1.06722   1.11205   1.23793
 Alpha virt. eigenvalues --    1.23862   1.25898   1.31717   1.35401   1.47838
 Alpha virt. eigenvalues --    1.55010   1.55817   1.63427   1.64206   1.65479
 Alpha virt. eigenvalues --    1.65923   1.80050   1.92281   1.95514   2.02623
 Alpha virt. eigenvalues --    2.14007   2.24825   2.25623   2.47033   2.55289
 Alpha virt. eigenvalues --    2.55786   2.59887   2.64082   2.64898   2.71476
 Alpha virt. eigenvalues --    2.73927   2.88779   2.92461   2.93334   3.02621
 Alpha virt. eigenvalues --    3.02878   3.06497   3.11437   3.12097   3.33364
 Alpha virt. eigenvalues --    3.52028   3.62768   3.96533   3.99939   4.24760
 Alpha virt. eigenvalues --   24.10579  24.76362  24.97209  25.99304
  Beta  occ. eigenvalues --  -11.58266 -11.53699 -11.53113 -11.47932  -1.36695
  Beta  occ. eigenvalues --   -1.25664  -1.11243  -0.88757  -0.82782  -0.81792
  Beta  occ. eigenvalues --   -0.70680  -0.70095
  Beta virt. eigenvalues --   -0.19500  -0.17891  -0.14765  -0.09400  -0.05515
  Beta virt. eigenvalues --   -0.05367  -0.04334  -0.02755  -0.02496  -0.01399
  Beta virt. eigenvalues --    0.00785   0.00990   0.01465   0.03512   0.04138
  Beta virt. eigenvalues --    0.04277   0.08238   0.09170   0.09746   0.10139
  Beta virt. eigenvalues --    0.10752   0.14358   0.14851   0.16268   0.17160
  Beta virt. eigenvalues --    0.21950   0.23308   0.38769   0.39753   0.42564
  Beta virt. eigenvalues --    0.43152   0.46529   0.48739   0.50382   0.59119
  Beta virt. eigenvalues --    0.60800   0.62438   0.63615   0.65118   0.66935
  Beta virt. eigenvalues --    0.67821   0.70199   0.73475   0.86071   0.86747
  Beta virt. eigenvalues --    0.99718   1.01518   1.02131   1.07799   1.07989
  Beta virt. eigenvalues --    1.14766   1.26925   1.31547   1.31737   1.37347
  Beta virt. eigenvalues --    1.39596   1.48086   1.57596   1.57642   1.65584
  Beta virt. eigenvalues --    1.66800   1.67459   1.68021   1.81286   1.93806
  Beta virt. eigenvalues --    1.98411   2.09591   2.14268   2.25693   2.27468
  Beta virt. eigenvalues --    2.47844   2.56358   2.56952   2.60395   2.64580
  Beta virt. eigenvalues --    2.65521   2.73288   2.77678   2.88444   2.93517
  Beta virt. eigenvalues --    2.96402   3.04754   3.05791   3.06757   3.11010
  Beta virt. eigenvalues --    3.14378   3.37823   3.52514   3.65350   3.96352
  Beta virt. eigenvalues --    4.00108   4.25475  24.12806  24.78040  24.98379
  Beta virt. eigenvalues --   25.99706
          Condensed to atoms (all electrons):
               1          2          3          4          5          6
     1  C    8.576024   0.290052   0.344412   0.344412  -2.589446  -1.488006
     2  H    0.290052   0.456868  -0.032255  -0.032255   0.070490   0.008950
     3  H    0.344412  -0.032255   0.458566  -0.031943   0.021407   0.007572
     4  H    0.344412  -0.032255  -0.031943   0.458566   0.021407   0.007572
     5  C   -2.589446   0.070490   0.021407   0.021407   7.491908   1.836565
     6  C   -1.488006   0.008950   0.007572   0.007572   1.836565   9.994190
     7  C    1.092689  -0.009037  -0.004880  -0.004880  -1.293404  -4.861063
               7
     1  C    1.092689
     2  H   -0.009037
     3  H   -0.004880
     4  H   -0.004880
     5  C   -1.293404
     6  C   -4.861063
     7  C   11.167159
          Atomic-Atomic Spin Densities.
               1          2          3          4          5          6
     1  C   -0.078546  -0.001711   0.014019   0.014019  -0.084804   0.089858
     2  H   -0.001711  -0.027078   0.001331   0.001331  -0.003773  -0.002179
     3  H    0.014019   0.001331   0.040033  -0.007954  -0.012062   0.000053
     4  H    0.014019   0.001331  -0.007954   0.040033  -0.012062   0.000053
     5  C   -0.084804  -0.003773  -0.012062  -0.012062   0.814682  -0.032474
     6  C    0.089858  -0.002179   0.000053   0.000053  -0.032474  -0.460879
     7  C   -0.014636   0.004324  -0.001773  -0.001773  -0.065973  -0.435974
               7
     1  C   -0.014636
     2  H    0.004324
     3  H   -0.001773
     4  H   -0.001773
     5  C   -0.065973
     6  C   -0.435974
     7  C    2.776075
 Mulliken charges and spin densities:
               1          2
     1  C   -0.570137  -0.061801
     2  H    0.247187  -0.027756
     3  H    0.237121   0.033647
     4  H    0.237121   0.033647
     5  C    0.441073   0.603533
     6  C    0.494220  -0.841542
     7  C   -0.086585   2.260270
 Sum of Mulliken charges =   1.00000   2.00000
 Mulliken charges and spin densities with hydrogens summed into heavy atoms:
               1          2
     1  C    0.151292  -0.022262
     5  C    0.441073   0.603533
     6  C    0.494220  -0.841542
     7  C   -0.086585   2.260270
 Electronic spatial extent (au):  <R**2>=            282.6384
 Charge=              1.0000 electrons
 Dipole moment (field-independent basis, Debye):
    X=             -0.1754    Y=              0.0495    Z=             -0.0000  Tot=              0.1822
 Quadrupole moment (field-independent basis, Debye-Ang):
   XX=            -19.9281   YY=             -3.0539   ZZ=            -21.3345
   XY=             -1.3057   XZ=             -0.0000   YZ=             -0.0000
 Traceless Quadrupole moment (field-independent basis, Debye-Ang):
   XX=             -5.1559   YY=             11.7183   ZZ=             -6.5623
   XY=             -1.3057   XZ=             -0.0000   YZ=             -0.0000
 Octapole moment (field-independent basis, Debye-Ang**2):
  XXX=             -2.0816  YYY=             -5.9894  ZZZ=             -0.0000  XYY=              0.1249
  XXY=              3.4910  XXZ=             -0.0000  XZZ=              0.7137  YZZ=              4.5708
  YYZ=             -0.0000  XYZ=             -0.0000
 Hexadecapole moment (field-independent basis, Debye-Ang**3):
 XXXX=            -25.1077 YYYY=           -227.1649 ZZZZ=            -27.3577 XXXY=              4.6738
 XXXZ=              0.0000 YYYX=              3.3948 YYYZ=              0.0000 ZZZX=             -0.0000
 ZZZY=             -0.0000 XXYY=            -53.3064 XXZZ=             -9.3758 YYZZ=            -54.2791
 XXYZ=             -0.0000 YYXZ=             -0.0000 ZZXY=              4.9298
 N-N= 8.228827384015D+01 E-N=-5.134322250812D+02  KE= 1.527833819706D+02
 Symmetry A'   KE= 1.470607308761D+02
 Symmetry A"   KE= 5.722651094566D+00
 Leave Link  601 at Tue Oct 10 10:29:47 2017, MaxMem=    33554432 cpu:         0.2
 (Enter /usr/local/gaussian/2009-E.01/g09/l9999.exe)
 1\1\ WCSS.PL-BEM-WN1424\SP\UCCSD(T)-FC\6-311++G(d,p)\C4H3(1+,3)\ROOT\1
 0-Oct-2017\0\\#p ccsd(t,maxcyc=200)/6-311++G(d,p)\\ccsd(t) iener\\1,3\
 C,0,1.741756006,0.000679549,0.009493782\H,0,2.032782004,0.021259447,-1
 .062115163\H,0,2.163274426,0.903931437,0.469111933\H,0,2.164166578,-0.
 919027709,0.43434489\C,0,0.33180501,-0.00019835,0.019344593\C,0,-0.938
 344002,-0.000500171,0.002577073\C,0,-2.201404015,-0.000971543,-0.00511
 8419\\Version=ES64L-G09RevE.01\State=3-A"\HF=-152.7545371\MP2=-153.178
 9727\MP3=-153.2121491\MP4D=-153.2234276\MP4DQ=-153.2135089\PUHF=-152.7
 76746\PMP2-0=-153.1993567\PMP3-0=-153.229343\MP4SDQ=-153.2231352\CCSD=
 -153.2359602\CCSD(T)=-153.2594847\S2=2.560215\S2-1=2.455501\S2A=2.1149
 24\RMSD=4.556e-09\PG=CS [SG(C4H1),X(H2)]\\@


 DEMOCRATS BUY MOST OF THE BOOKS THAT HAVE BEEN
 BANNED; REPUBLICANS FORM CENSORSHIP COMMITTEES AND
 READ THEM AS A GROUP.
 Job cpu time:       0 days  0 hours 30 minutes 46.1 seconds.
 File lengths (MBytes):  RWF=    275 Int=      0 D2E=      0 Chk=      2 Scr=      1
 Normal termination of Gaussian 09 at Tue Oct 10 10:29:48 2017.
