 Entering Gaussian System, Link 0=/usr/local/gaussian/2009-E.01/g09/g09
 Initial command:
 /usr/local/gaussian/2009-E.01/g09/l1.exe "/lustre/scratch/eerd/4986703.achilles/Gau-22457.inp" -scrdir="/lustre/scratch/eerd/4986703.achilles/"
 Entering Link 1 = /usr/local/gaussian/2009-E.01/g09/l1.exe PID=     22459.
  
 Copyright (c) 1988,1990,1992,1993,1995,1998,2003,2009,2015,
            Gaussian, Inc.  All Rights Reserved.
  
 This is part of the Gaussian(R) 09 program.  It is based on
 the Gaussian(R) 03 system (copyright 2003, Gaussian, Inc.),
 the Gaussian(R) 98 system (copyright 1998, Gaussian, Inc.),
 the Gaussian(R) 94 system (copyright 1995, Gaussian, Inc.),
 the Gaussian 92(TM) system (copyright 1992, Gaussian, Inc.),
 the Gaussian 90(TM) system (copyright 1990, Gaussian, Inc.),
 the Gaussian 88(TM) system (copyright 1988, Gaussian, Inc.),
 the Gaussian 86(TM) system (copyright 1986, Carnegie Mellon
 University), and the Gaussian 82(TM) system (copyright 1983,
 Carnegie Mellon University). Gaussian is a federally registered
 trademark of Gaussian, Inc.
  
 This software contains proprietary and confidential information,
 including trade secrets, belonging to Gaussian, Inc.
  
 This software is provided under written license and may be
 used, copied, transmitted, or stored only in accord with that
 written license.
  
 The following legend is applicable only to US Government
 contracts under FAR:
  
                    RESTRICTED RIGHTS LEGEND
  
 Use, reproduction and disclosure by the US Government is
 subject to restrictions as set forth in subparagraphs (a)
 and (c) of the Commercial Computer Software - Restricted
 Rights clause in FAR 52.227-19.
  
 Gaussian, Inc.
 340 Quinnipiac St., Bldg. 40, Wallingford CT 06492
  
  
 ---------------------------------------------------------------
 Warning -- This program may not be used in any manner that
 competes with the business of Gaussian, Inc. or will provide
 assistance to any competitor of Gaussian, Inc.  The licensee
 of this program is prohibited from giving any competitor of
 Gaussian, Inc. access to this program.  By using this program,
 the user acknowledges that Gaussian, Inc. is engaged in the
 business of creating and licensing software in the field of
 computational chemistry and represents and warrants to the
 licensee that it is not a competitor of Gaussian, Inc. and that
 it will not use this program in any manner prohibited above.
 ---------------------------------------------------------------
  

 Cite this work as:
 Gaussian 09, Revision E.01,
 M. J. Frisch, G. W. Trucks, H. B. Schlegel, G. E. Scuseria, 
 M. A. Robb, J. R. Cheeseman, G. Scalmani, V. Barone, B. Mennucci, 
 G. A. Petersson, H. Nakatsuji, M. Caricato, X. Li, H. P. Hratchian, 
 A. F. Izmaylov, J. Bloino, G. Zheng, J. L. Sonnenberg, M. Hada, 
 M. Ehara, K. Toyota, R. Fukuda, J. Hasegawa, M. Ishida, T. Nakajima, 
 Y. Honda, O. Kitao, H. Nakai, T. Vreven, J. A. Montgomery, Jr., 
 J. E. Peralta, F. Ogliaro, M. Bearpark, J. J. Heyd, E. Brothers, 
 K. N. Kudin, V. N. Staroverov, T. Keith, R. Kobayashi, J. Normand, 
 K. Raghavachari, A. Rendell, J. C. Burant, S. S. Iyengar, J. Tomasi, 
 M. Cossi, N. Rega, J. M. Millam, M. Klene, J. E. Knox, J. B. Cross, 
 V. Bakken, C. Adamo, J. Jaramillo, R. Gomperts, R. E. Stratmann, 
 O. Yazyev, A. J. Austin, R. Cammi, C. Pomelli, J. W. Ochterski, 
 R. L. Martin, K. Morokuma, V. G. Zakrzewski, G. A. Voth, 
 P. Salvador, J. J. Dannenberg, S. Dapprich, A. D. Daniels, 
 O. Farkas, J. B. Foresman, J. V. Ortiz, J. Cioslowski, 
 and D. J. Fox, Gaussian, Inc., Wallingford CT, 2013.
 
 ******************************************
 Gaussian 09:  ES64L-G09RevE.01 30-Nov-2015
                10-Oct-2017 
 ******************************************
 %NProcShared=8
 Will use up to    8 processors via shared memory.
 -----------------------------------
 #p ccsd(t,maxcyc=200)/6-311++G(d,p)
 -----------------------------------
 1/38=1/1;
 2/12=2,17=6,18=5,40=1/2;
 3/5=4,6=6,7=1111,11=9,16=1,25=1,30=1/1,2,3;
 4//1;
 5/5=2,38=5/2;
 8/6=4,9=120000,10=2/1,4;
 9/5=7,6=200,14=2/13;
 6/7=2,8=2,9=2,10=2/1;
 99/5=1,9=1/99;
 Leave Link    1 at Tue Oct 10 09:58:26 2017, MaxMem=           0 cpu:         2.7
 (Enter /usr/local/gaussian/2009-E.01/g09/l101.exe)
 -------------
 ccsd(t) iener
 -------------
 Symbolic Z-matrix:
 Charge =  0 Multiplicity = 4
 C                    -0.79166   0.49067  -0.00016 
 H                    -1.02448   1.09606   0.88574 
 H                    -1.02433   1.09572  -0.88633 
 C                    -1.72732  -0.71651  -0.00001 
 C                     0.61374   0.12147   0.00003 
 C                     1.77683  -0.18691   0.00019 
 H                     2.80477  -0.45689   0.00033 
 
 NAtoms=      7 NQM=        7 NQMF=       0 NMMI=      0 NMMIF=      0
                NMic=       0 NMicF=      0.
                    Isotopes and Nuclear Properties:
 (Nuclear quadrupole moments (NQMom) in fm**2, nuclear magnetic moments (NMagM)
  in nuclear magnetons)

  Atom         1           2           3           4           5           6           7
 IAtWgt=          12           1           1          12          12          12           1
 AtmWgt=  12.0000000   1.0078250   1.0078250  12.0000000  12.0000000  12.0000000   1.0078250
 NucSpn=           0           1           1           0           0           0           1
 AtZEff=   0.0000000   0.0000000   0.0000000   0.0000000   0.0000000   0.0000000   0.0000000
 NQMom=    0.0000000   0.0000000   0.0000000   0.0000000   0.0000000   0.0000000   0.0000000
 NMagM=    0.0000000   2.7928460   2.7928460   0.0000000   0.0000000   0.0000000   2.7928460
 AtZNuc=   6.0000000   1.0000000   1.0000000   6.0000000   6.0000000   6.0000000   1.0000000
 Leave Link  101 at Tue Oct 10 09:58:27 2017, MaxMem=    33554432 cpu:         2.9
 (Enter /usr/local/gaussian/2009-E.01/g09/l202.exe)
                          Input orientation:                          
 ---------------------------------------------------------------------
 Center     Atomic      Atomic             Coordinates (Angstroms)
 Number     Number       Type             X           Y           Z
 ---------------------------------------------------------------------
      1          6           0       -0.791660    0.490668   -0.000159
      2          1           0       -1.024484    1.096063    0.885741
      3          1           0       -1.024331    1.095722   -0.886331
      4          6           0       -1.727320   -0.716505   -0.000007
      5          6           0        0.613740    0.121474    0.000033
      6          6           0        1.776829   -0.186909    0.000192
      7          1           0        2.804771   -0.456891    0.000332
 ---------------------------------------------------------------------
                    Distance matrix (angstroms):
                    1          2          3          4          5
     1  C    0.000000
     2  H    1.097966   0.000000
     3  H    1.097965   1.772072   0.000000
     4  C    1.527327   2.136336   2.136336   0.000000
     5  C    1.453084   2.101923   2.101922   2.486518   0.000000
     6  C    2.656360   3.205865   3.205864   3.543943   1.203277
     7  H    3.719164   4.225968   4.225967   4.539521   2.266081
                    6          7
     6  C    0.000000
     7  H    1.062805   0.000000
 Stoichiometry    C4H3(4)
 Framework group  CS[SG(C4H),X(H2)]
 Deg. of freedom    10
 Full point group                 CS      NOp   2
 Largest Abelian subgroup         CS      NOp   2
 Largest concise Abelian subgroup CS      NOp   2
                         Standard orientation:                         
 ---------------------------------------------------------------------
 Center     Atomic      Atomic             Coordinates (Angstroms)
 Number     Number       Type             X           Y           Z
 ---------------------------------------------------------------------
      1          6           0       -0.405928   -0.838043   -0.000000
      2          1           0       -0.983569   -1.132660    0.886036
      3          1           0       -0.983569   -1.132660   -0.886036
      4          6           0        0.892269   -1.642662   -0.000000
      5          6           0       -0.185364    0.598204    0.000000
      6          6           0        0.000000    1.787118    0.000000
      7          1           0        0.161271    2.837616    0.000000
 ---------------------------------------------------------------------
 Rotational constants (GHZ):     37.0194480      5.1838058      4.6803544
 Leave Link  202 at Tue Oct 10 09:58:27 2017, MaxMem=    33554432 cpu:         0.9
 (Enter /usr/local/gaussian/2009-E.01/g09/l301.exe)
 Standard basis: 6-311++G(d,p) (5D, 7F)
 Ernie: Thresh=  0.10000D-02 Tol=  0.10000D-05 Strict=F.
 There are    81 symmetry adapted cartesian basis functions of A'  symmetry.
 There are    32 symmetry adapted cartesian basis functions of A"  symmetry.
 There are    77 symmetry adapted basis functions of A'  symmetry.
 There are    32 symmetry adapted basis functions of A"  symmetry.
   109 basis functions,   171 primitive gaussians,   113 cartesian basis functions
    15 alpha electrons       12 beta electrons
       nuclear repulsion energy        81.8725833506 Hartrees.
 IExCor=    0 DFT=F Ex=HF Corr=None ExCW=0 ScaHFX=  1.000000
 ScaDFX=  1.000000  1.000000  1.000000  1.000000 ScalE2=  1.000000  1.000000
 IRadAn=      0 IRanWt=     -1 IRanGd=            0 ICorTp=0 IEmpDi=  4
 NAtoms=    7 NActive=    7 NUniq=    6 SFac= 1.36D+00 NAtFMM=   60 NAOKFM=F Big=F
 Integral buffers will be    131072 words long.
 Raffenetti 2 integral format.
 Two-electron integral symmetry is turned on.
 Leave Link  301 at Tue Oct 10 09:58:27 2017, MaxMem=    33554432 cpu:         2.1
 (Enter /usr/local/gaussian/2009-E.01/g09/l302.exe)
 NPDir=0 NMtPBC=     1 NCelOv=     1 NCel=       1 NClECP=     1 NCelD=      1
         NCelK=      1 NCelE2=     1 NClLst=     1 CellRange=     0.0.
 One-electron integrals computed using PRISM.
 One-electron integral symmetry used in STVInt
 NBasis=   109 RedAO= T EigKep=  2.91D-06  NBF=    77    32
 NBsUse=   109 1.00D-06 EigRej= -1.00D+00 NBFU=    77    32
 Leave Link  302 at Tue Oct 10 09:58:28 2017, MaxMem=    33554432 cpu:         2.5
 (Enter /usr/local/gaussian/2009-E.01/g09/l303.exe)
 DipDrv:  MaxL=1.
 Leave Link  303 at Tue Oct 10 09:58:28 2017, MaxMem=    33554432 cpu:         0.6
 (Enter /usr/local/gaussian/2009-E.01/g09/l401.exe)
 ExpMin= 3.60D-02 ExpMax= 4.56D+03 ExpMxC= 6.82D+02 IAcc=3 IRadAn=         5 AccDes= 0.00D+00
 Harris functional with IExCor=  205 and IRadAn=       5 diagonalized for initial guess.
 HarFok:  IExCor=  205 AccDes= 0.00D+00 IRadAn=         5 IDoV= 1 UseB2=F ITyADJ=14
 ICtDFT=  3500011 ScaDFX=  1.000000  1.000000  1.000000  1.000000
 FoFCou: FMM=F IPFlag=           0 FMFlag=      100000 FMFlg1=           0
         NFxFlg=           0 DoJE=T BraDBF=F KetDBF=T FulRan=T
         wScrn=  0.000000 ICntrl=     500 IOpCl=  0 I1Cent=   200000004 NGrid=           0
         NMat0=    1 NMatS0=      1 NMatT0=    0 NMatD0=    1 NMtDS0=    0 NMtDT0=    0
 Petite list used in FoFCou.
 Harris En= -153.026497405987    
 JPrj=0 DoOrth=F DoCkMO=F.
 Initial guess orbital symmetries:
 Alpha Orbitals:
       Occupied  (A') (A') (A') (A') (A') (A') (A') (A') (A') (A")
                 (A') (A") (A') (A') (A")
       Virtual   (A") (A') (A') (A') (A") (A') (A') (A') (A") (A')
                 (A') (A') (A") (A') (A') (A") (A") (A') (A') (A')
                 (A') (A') (A") (A') (A') (A') (A') (A') (A") (A')
                 (A') (A") (A') (A") (A') (A") (A") (A') (A') (A')
                 (A') (A') (A') (A") (A') (A') (A') (A") (A') (A')
                 (A") (A') (A") (A") (A') (A") (A') (A") (A') (A')
                 (A") (A') (A') (A") (A') (A') (A") (A') (A') (A")
                 (A') (A') (A") (A') (A") (A') (A') (A") (A') (A")
                 (A') (A") (A') (A') (A') (A') (A') (A') (A") (A')
                 (A') (A') (A') (A')
 Beta  Orbitals:
       Occupied  (A') (A') (A') (A') (A') (A') (A') (A') (A') (A")
                 (A') (A")
       Virtual   (A') (A') (A") (A") (A') (A') (A') (A") (A') (A')
                 (A') (A") (A') (A') (A') (A") (A') (A') (A") (A")
                 (A') (A') (A') (A') (A') (A") (A') (A') (A') (A')
                 (A') (A") (A') (A') (A") (A') (A") (A') (A") (A")
                 (A') (A') (A') (A') (A') (A') (A") (A') (A') (A')
                 (A") (A') (A') (A") (A') (A") (A") (A') (A") (A')
                 (A") (A') (A') (A") (A') (A') (A") (A') (A') (A")
                 (A') (A') (A") (A') (A') (A") (A') (A") (A') (A')
                 (A") (A') (A") (A') (A") (A') (A') (A') (A') (A')
                 (A') (A") (A') (A') (A') (A') (A')
 The electronic state of the initial guess is 4-A".
 Initial guess <Sx>= 0.0000 <Sy>= 0.0000 <Sz>= 1.5000 <S**2>= 3.7500 S= 1.5000
 Leave Link  401 at Tue Oct 10 09:58:29 2017, MaxMem=    33554432 cpu:         6.8
 (Enter /usr/local/gaussian/2009-E.01/g09/l502.exe)
 UHF open shell SCF:
 Using DIIS extrapolation, IDIIS=  1040.
 Integral symmetry usage will be decided dynamically.
 Keep R1 and R2 ints in memory in symmetry-blocked form, NReq=27890063.
 IVT=       58753 IEndB=       58753 NGot=    33554432 MDV=    14937105
 LenX=    14937105 LenY=    14923895
 Requested convergence on RMS density matrix=1.00D-08 within 128 cycles.
 Requested convergence on MAX density matrix=1.00D-06.
 Requested convergence on             energy=1.00D-06.
 No special actions if energy rises.
 FoFCou: FMM=F IPFlag=           0 FMFlag=           0 FMFlg1=           0
         NFxFlg=           0 DoJE=F BraDBF=F KetDBF=F FulRan=T
         wScrn=  0.000000 ICntrl=     600 IOpCl=  0 I1Cent=           0 NGrid=           0
         NMat0=    1 NMatS0=   5995 NMatT0=    0 NMatD0=    1 NMtDS0=    0 NMtDT0=    0
 Petite list used in FoFCou.

 Cycle   1  Pass 1  IDiag  1:
 E= -152.820984075953    
 DIIS: error= 4.29D-02 at cycle   1 NSaved=   1.
 NSaved= 1 IEnMin= 1 EnMin= -152.820984075953     IErMin= 1 ErrMin= 4.29D-02
 ErrMax= 4.29D-02  0.00D+00 EMaxC= 1.00D-01 BMatC= 1.23D+00 BMatP= 1.23D+00
 IDIUse=3 WtCom= 5.71D-01 WtEn= 4.29D-01
 Coeff-Com:  0.100D+01
 Coeff-En:   0.100D+01
 Coeff:      0.100D+01
 Gap=     0.647 Goal=   None    Shift=    0.000
 Gap=     0.316 Goal=   None    Shift=    0.000
 GapD=    0.316 DampG=1.000 DampE=0.500 DampFc=0.5000 IDamp=-1.
 Damping current iteration by 5.00D-01
 RMSDP=2.77D-02 MaxDP=2.08D+00              OVMax= 1.47D-01

 Cycle   2  Pass 1  IDiag  1:
 E= -152.915026268110     Delta-E=       -0.094042192157 Rises=F Damp=T
 DIIS: error= 2.43D-02 at cycle   2 NSaved=   2.
 NSaved= 2 IEnMin= 2 EnMin= -152.915026268110     IErMin= 2 ErrMin= 2.43D-02
 ErrMax= 2.43D-02  0.00D+00 EMaxC= 1.00D-01 BMatC= 2.86D-01 BMatP= 1.23D+00
 IDIUse=3 WtCom= 7.57D-01 WtEn= 2.43D-01
 Coeff-Com: -0.785D+00 0.179D+01
 Coeff-En:   0.000D+00 0.100D+01
 Coeff:     -0.594D+00 0.159D+01
 Gap=     0.451 Goal=   None    Shift=    0.000
 Gap=     0.402 Goal=   None    Shift=    0.000
 RMSDP=2.03D-02 MaxDP=1.49D+00 DE=-9.40D-02 OVMax= 1.04D-01

 Cycle   3  Pass 1  IDiag  1:
 E= -153.012812565335     Delta-E=       -0.097786297225 Rises=F Damp=F
 DIIS: error= 8.32D-03 at cycle   3 NSaved=   3.
 NSaved= 3 IEnMin= 3 EnMin= -153.012812565335     IErMin= 3 ErrMin= 8.32D-03
 ErrMax= 8.32D-03  0.00D+00 EMaxC= 1.00D-01 BMatC= 5.51D-03 BMatP= 2.86D-01
 IDIUse=3 WtCom= 9.17D-01 WtEn= 8.32D-02
 Coeff-Com: -0.738D-01 0.962D-01 0.978D+00
 Coeff-En:   0.000D+00 0.000D+00 0.100D+01
 Coeff:     -0.677D-01 0.882D-01 0.979D+00
 Gap=     0.432 Goal=   None    Shift=    0.000
 Gap=     0.405 Goal=   None    Shift=    0.000
 RMSDP=4.39D-03 MaxDP=3.27D-01 DE=-9.78D-02 OVMax= 4.67D-02

 Cycle   4  Pass 1  IDiag  1:
 E= -153.017118900783     Delta-E=       -0.004306335448 Rises=F Damp=F
 DIIS: error= 5.09D-03 at cycle   4 NSaved=   4.
 NSaved= 4 IEnMin= 4 EnMin= -153.017118900783     IErMin= 4 ErrMin= 5.09D-03
 ErrMax= 5.09D-03  0.00D+00 EMaxC= 1.00D-01 BMatC= 1.47D-03 BMatP= 5.51D-03
 IDIUse=3 WtCom= 9.49D-01 WtEn= 5.09D-02
 Coeff-Com:  0.311D-01-0.621D-01-0.160D+00 0.119D+01
 Coeff-En:   0.000D+00 0.000D+00 0.000D+00 0.100D+01
 Coeff:      0.295D-01-0.590D-01-0.152D+00 0.118D+01
 Gap=     0.427 Goal=   None    Shift=    0.000
 Gap=     0.415 Goal=   None    Shift=    0.000
 RMSDP=2.66D-03 MaxDP=1.90D-01 DE=-4.31D-03 OVMax= 3.24D-02

 Cycle   5  Pass 1  IDiag  1:
 E= -153.018668780787     Delta-E=       -0.001549880004 Rises=F Damp=F
 DIIS: error= 2.73D-03 at cycle   5 NSaved=   5.
 NSaved= 5 IEnMin= 5 EnMin= -153.018668780787     IErMin= 5 ErrMin= 2.73D-03
 ErrMax= 2.73D-03  0.00D+00 EMaxC= 1.00D-01 BMatC= 6.44D-04 BMatP= 1.47D-03
 IDIUse=3 WtCom= 9.73D-01 WtEn= 2.73D-02
 Coeff-Com:  0.275D-01-0.380D-01-0.371D+00 0.374D+00 0.101D+01
 Coeff-En:   0.000D+00 0.000D+00 0.000D+00 0.000D+00 0.100D+01
 Coeff:      0.268D-01-0.370D-01-0.361D+00 0.364D+00 0.101D+01
 Gap=     0.427 Goal=   None    Shift=    0.000
 Gap=     0.417 Goal=   None    Shift=    0.000
 RMSDP=2.12D-03 MaxDP=1.51D-01 DE=-1.55D-03 OVMax= 2.24D-02

 Cycle   6  Pass 1  IDiag  1:
 E= -153.019301105565     Delta-E=       -0.000632324778 Rises=F Damp=F
 DIIS: error= 1.08D-03 at cycle   6 NSaved=   6.
 NSaved= 6 IEnMin= 6 EnMin= -153.019301105565     IErMin= 6 ErrMin= 1.08D-03
 ErrMax= 1.08D-03  0.00D+00 EMaxC= 1.00D-01 BMatC= 1.22D-04 BMatP= 6.44D-04
 IDIUse=3 WtCom= 9.89D-01 WtEn= 1.08D-02
 Coeff-Com: -0.181D-01 0.311D-01 0.154D+00-0.402D+00-0.207D+00 0.144D+01
 Coeff-En:   0.000D+00 0.000D+00 0.000D+00 0.000D+00 0.000D+00 0.100D+01
 Coeff:     -0.179D-01 0.308D-01 0.152D+00-0.398D+00-0.205D+00 0.144D+01
 Gap=     0.428 Goal=   None    Shift=    0.000
 Gap=     0.415 Goal=   None    Shift=    0.000
 RMSDP=4.82D-04 MaxDP=2.02D-02 DE=-6.32D-04 OVMax= 9.56D-03

 Cycle   7  Pass 1  IDiag  1:
 E= -153.019454411001     Delta-E=       -0.000153305436 Rises=F Damp=F
 DIIS: error= 3.81D-04 at cycle   7 NSaved=   7.
 NSaved= 7 IEnMin= 7 EnMin= -153.019454411001     IErMin= 7 ErrMin= 3.81D-04
 ErrMax= 3.81D-04  0.00D+00 EMaxC= 1.00D-01 BMatC= 2.00D-05 BMatP= 1.22D-04
 IDIUse=3 WtCom= 9.96D-01 WtEn= 3.81D-03
 Coeff-Com: -0.505D-02 0.796D-02 0.431D-01-0.206D-01-0.158D+00-0.189D+00
 Coeff-Com:  0.132D+01
 Coeff-En:   0.000D+00 0.000D+00 0.000D+00 0.000D+00 0.000D+00 0.000D+00
 Coeff-En:   0.100D+01
 Coeff:     -0.503D-02 0.792D-02 0.429D-01-0.205D-01-0.158D+00-0.188D+00
 Coeff:      0.132D+01
 Gap=     0.428 Goal=   None    Shift=    0.000
 Gap=     0.415 Goal=   None    Shift=    0.000
 RMSDP=1.73D-04 MaxDP=5.50D-03 DE=-1.53D-04 OVMax= 3.77D-03

 Cycle   8  Pass 1  IDiag  1:
 E= -153.019479800271     Delta-E=       -0.000025389270 Rises=F Damp=F
 DIIS: error= 2.05D-04 at cycle   8 NSaved=   8.
 NSaved= 8 IEnMin= 8 EnMin= -153.019479800271     IErMin= 8 ErrMin= 2.05D-04
 ErrMax= 2.05D-04  0.00D+00 EMaxC= 1.00D-01 BMatC= 4.26D-06 BMatP= 2.00D-05
 IDIUse=3 WtCom= 9.98D-01 WtEn= 2.05D-03
 Coeff-Com:  0.388D-02-0.648D-02-0.352D-01 0.618D-01 0.798D-01-0.135D+00
 Coeff-Com: -0.376D+00 0.141D+01
 Coeff-En:   0.000D+00 0.000D+00 0.000D+00 0.000D+00 0.000D+00 0.000D+00
 Coeff-En:   0.000D+00 0.100D+01
 Coeff:      0.387D-02-0.647D-02-0.351D-01 0.617D-01 0.796D-01-0.135D+00
 Coeff:     -0.376D+00 0.141D+01
 Gap=     0.428 Goal=   None    Shift=    0.000
 Gap=     0.415 Goal=   None    Shift=    0.000
 RMSDP=7.86D-05 MaxDP=4.29D-03 DE=-2.54D-05 OVMax= 1.82D-03

 Cycle   9  Pass 1  IDiag  1:
 E= -153.019485575057     Delta-E=       -0.000005774786 Rises=F Damp=F
 DIIS: error= 1.46D-04 at cycle   9 NSaved=   9.
 NSaved= 9 IEnMin= 9 EnMin= -153.019485575057     IErMin= 9 ErrMin= 1.46D-04
 ErrMax= 1.46D-04  0.00D+00 EMaxC= 1.00D-01 BMatC= 1.79D-06 BMatP= 4.26D-06
 IDIUse=3 WtCom= 9.99D-01 WtEn= 1.46D-03
 Coeff-Com:  0.641D-03-0.114D-02-0.971D-04-0.477D-02 0.152D-01 0.602D-01
 Coeff-Com: -0.237D+00-0.200D+00 0.137D+01
 Coeff-En:   0.000D+00 0.000D+00 0.000D+00 0.000D+00 0.000D+00 0.000D+00
 Coeff-En:   0.000D+00 0.000D+00 0.100D+01
 Coeff:      0.640D-03-0.113D-02-0.969D-04-0.476D-02 0.152D-01 0.601D-01
 Coeff:     -0.237D+00-0.200D+00 0.137D+01
 Gap=     0.428 Goal=   None    Shift=    0.000
 Gap=     0.415 Goal=   None    Shift=    0.000
 RMSDP=4.07D-05 MaxDP=1.30D-03 DE=-5.77D-06 OVMax= 1.61D-03

 Cycle  10  Pass 1  IDiag  1:
 E= -153.019488920759     Delta-E=       -0.000003345702 Rises=F Damp=F
 DIIS: error= 1.10D-04 at cycle  10 NSaved=  10.
 NSaved=10 IEnMin=10 EnMin= -153.019488920759     IErMin=10 ErrMin= 1.10D-04
 ErrMax= 1.10D-04  0.00D+00 EMaxC= 1.00D-01 BMatC= 1.04D-06 BMatP= 1.79D-06
 IDIUse=3 WtCom= 9.99D-01 WtEn= 1.10D-03
 Coeff-Com: -0.148D-02 0.252D-02 0.112D-01-0.162D-01-0.307D-01 0.139D-01
 Coeff-Com:  0.214D+00-0.381D+00-0.537D+00 0.172D+01
 Coeff-En:   0.000D+00 0.000D+00 0.000D+00 0.000D+00 0.000D+00 0.000D+00
 Coeff-En:   0.000D+00 0.000D+00 0.000D+00 0.100D+01
 Coeff:     -0.148D-02 0.252D-02 0.112D-01-0.162D-01-0.307D-01 0.139D-01
 Coeff:      0.213D+00-0.380D+00-0.537D+00 0.172D+01
 Gap=     0.428 Goal=   None    Shift=    0.000
 Gap=     0.415 Goal=   None    Shift=    0.000
 RMSDP=3.95D-05 MaxDP=1.14D-03 DE=-3.35D-06 OVMax= 1.74D-03

 Cycle  11  Pass 1  IDiag  1:
 E= -153.019491796498     Delta-E=       -0.000002875739 Rises=F Damp=F
 DIIS: error= 8.53D-05 at cycle  11 NSaved=  11.
 NSaved=11 IEnMin=11 EnMin= -153.019491796498     IErMin=11 ErrMin= 8.53D-05
 ErrMax= 8.53D-05  0.00D+00 EMaxC= 1.00D-01 BMatC= 6.99D-07 BMatP= 1.04D-06
 IDIUse=1 WtCom= 1.00D+00 WtEn= 0.00D+00
 Coeff-Com:  0.484D-03-0.709D-03-0.872D-02 0.148D-01 0.173D-01-0.415D-01
 Coeff-Com: -0.656D-01 0.424D+00-0.224D+00-0.166D+01 0.255D+01
 Coeff:      0.484D-03-0.709D-03-0.872D-02 0.148D-01 0.173D-01-0.415D-01
 Coeff:     -0.656D-01 0.424D+00-0.224D+00-0.166D+01 0.255D+01
 Gap=     0.428 Goal=   None    Shift=    0.000
 Gap=     0.415 Goal=   None    Shift=    0.000
 RMSDP=6.33D-05 MaxDP=2.51D-03 DE=-2.88D-06 OVMax= 2.40D-03

 Cycle  12  Pass 1  IDiag  1:
 E= -153.019495002363     Delta-E=       -0.000003205865 Rises=F Damp=F
 DIIS: error= 5.59D-05 at cycle  12 NSaved=  12.
 NSaved=12 IEnMin=12 EnMin= -153.019495002363     IErMin=12 ErrMin= 5.59D-05
 ErrMax= 5.59D-05  0.00D+00 EMaxC= 1.00D-01 BMatC= 4.14D-07 BMatP= 6.99D-07
 IDIUse=1 WtCom= 1.00D+00 WtEn= 0.00D+00
 Coeff-Com:  0.233D-03-0.511D-03 0.233D-02-0.234D-02 0.716D-03 0.242D-01
 Coeff-Com: -0.765D-01-0.332D-01 0.381D+00-0.968D-01-0.124D+01 0.204D+01
 Coeff:      0.233D-03-0.511D-03 0.233D-02-0.234D-02 0.716D-03 0.242D-01
 Coeff:     -0.765D-01-0.332D-01 0.381D+00-0.968D-01-0.124D+01 0.204D+01
 Gap=     0.428 Goal=   None    Shift=    0.000
 Gap=     0.415 Goal=   None    Shift=    0.000
 RMSDP=5.76D-05 MaxDP=2.20D-03 DE=-3.21D-06 OVMax= 2.04D-03

 Cycle  13  Pass 1  IDiag  1:
 E= -153.019497165792     Delta-E=       -0.000002163430 Rises=F Damp=F
 DIIS: error= 5.13D-05 at cycle  13 NSaved=  13.
 NSaved=13 IEnMin=13 EnMin= -153.019497165792     IErMin=13 ErrMin= 5.13D-05
 ErrMax= 5.13D-05  0.00D+00 EMaxC= 1.00D-01 BMatC= 2.71D-07 BMatP= 4.14D-07
 IDIUse=1 WtCom= 1.00D+00 WtEn= 0.00D+00
 Coeff-Com: -0.494D-03 0.904D-03 0.182D-02-0.429D-02-0.954D-02-0.801D-02
 Coeff-Com:  0.115D+00-0.193D+00-0.276D+00 0.104D+01-0.138D+00-0.212D+01
 Coeff-Com:  0.259D+01
 Coeff:     -0.494D-03 0.904D-03 0.182D-02-0.429D-02-0.954D-02-0.801D-02
 Coeff:      0.115D+00-0.193D+00-0.276D+00 0.104D+01-0.138D+00-0.212D+01
 Coeff:      0.259D+01
 Gap=     0.428 Goal=   None    Shift=    0.000
 Gap=     0.415 Goal=   None    Shift=    0.000
 RMSDP=4.98D-05 MaxDP=1.65D-03 DE=-2.16D-06 OVMax= 1.53D-03

 Cycle  14  Pass 1  IDiag  1:
 E= -153.019498738289     Delta-E=       -0.000001572496 Rises=F Damp=F
 DIIS: error= 4.31D-05 at cycle  14 NSaved=  14.
 NSaved=14 IEnMin=14 EnMin= -153.019498738289     IErMin=14 ErrMin= 4.31D-05
 ErrMax= 4.31D-05  0.00D+00 EMaxC= 1.00D-01 BMatC= 1.71D-07 BMatP= 2.71D-07
 IDIUse=1 WtCom= 1.00D+00 WtEn= 0.00D+00
 Coeff-Com:  0.445D-03-0.715D-03-0.438D-02 0.791D-02 0.134D-01-0.625D-02
 Coeff-Com: -0.102D+00 0.284D+00 0.101D+00-0.153D+01 0.147D+01 0.124D+01
 Coeff-Com: -0.412D+01 0.365D+01
 Coeff:      0.445D-03-0.715D-03-0.438D-02 0.791D-02 0.134D-01-0.625D-02
 Coeff:     -0.102D+00 0.284D+00 0.101D+00-0.153D+01 0.147D+01 0.124D+01
 Coeff:     -0.412D+01 0.365D+01
 Gap=     0.428 Goal=   None    Shift=    0.000
 Gap=     0.415 Goal=   None    Shift=    0.000
 RMSDP=7.04D-05 MaxDP=2.12D-03 DE=-1.57D-06 OVMax= 2.20D-03

 Cycle  15  Pass 1  IDiag  1:
 E= -153.019500381163     Delta-E=       -0.000001642875 Rises=F Damp=F
 DIIS: error= 2.32D-05 at cycle  15 NSaved=  15.
 NSaved=15 IEnMin=15 EnMin= -153.019500381163     IErMin=15 ErrMin= 2.32D-05
 ErrMax= 2.32D-05  0.00D+00 EMaxC= 1.00D-01 BMatC= 6.15D-08 BMatP= 1.71D-07
 IDIUse=1 WtCom= 1.00D+00 WtEn= 0.00D+00
 Coeff-Com: -0.260D-03 0.358D-03 0.430D-02-0.636D-02-0.962D-02 0.141D-01
 Coeff-Com:  0.336D-01-0.155D+00 0.366D-02 0.845D+00-0.114D+01-0.423D-01
 Coeff-Com:  0.211D+01-0.302D+01 0.236D+01
 Coeff:     -0.260D-03 0.358D-03 0.430D-02-0.636D-02-0.962D-02 0.141D-01
 Coeff:      0.336D-01-0.155D+00 0.366D-02 0.845D+00-0.114D+01-0.423D-01
 Coeff:      0.211D+01-0.302D+01 0.236D+01
 Gap=     0.428 Goal=   None    Shift=    0.000
 Gap=     0.415 Goal=   None    Shift=    0.000
 RMSDP=4.37D-05 MaxDP=1.43D-03 DE=-1.64D-06 OVMax= 1.52D-03

 Cycle  16  Pass 1  IDiag  1:
 E= -153.019500906245     Delta-E=       -0.000000525082 Rises=F Damp=F
 DIIS: error= 1.03D-05 at cycle  16 NSaved=  16.
 NSaved=16 IEnMin=16 EnMin= -153.019500906245     IErMin=16 ErrMin= 1.03D-05
 ErrMax= 1.03D-05  0.00D+00 EMaxC= 1.00D-01 BMatC= 1.63D-08 BMatP= 6.15D-08
 IDIUse=1 WtCom= 1.00D+00 WtEn= 0.00D+00
 Coeff-Com:  0.310D-04 0.197D-04-0.246D-02 0.242D-02 0.367D-02-0.112D-01
 Coeff-Com:  0.159D-01 0.298D-03-0.227D-01-0.338D-01 0.213D+00-0.386D+00
 Coeff-Com:  0.567D-01 0.783D+00-0.186D+01 0.224D+01
 Coeff:      0.310D-04 0.197D-04-0.246D-02 0.242D-02 0.367D-02-0.112D-01
 Coeff:      0.159D-01 0.298D-03-0.227D-01-0.338D-01 0.213D+00-0.386D+00
 Coeff:      0.567D-01 0.783D+00-0.186D+01 0.224D+01
 Gap=     0.428 Goal=   None    Shift=    0.000
 Gap=     0.415 Goal=   None    Shift=    0.000
 RMSDP=2.40D-05 MaxDP=7.74D-04 DE=-5.25D-07 OVMax= 8.18D-04

 Cycle  17  Pass 1  IDiag  1:
 E= -153.019501001937     Delta-E=       -0.000000095692 Rises=F Damp=F
 DIIS: error= 1.63D-06 at cycle  17 NSaved=  17.
 NSaved=17 IEnMin=17 EnMin= -153.019501001937     IErMin=17 ErrMin= 1.63D-06
 ErrMax= 1.63D-06  0.00D+00 EMaxC= 1.00D-01 BMatC= 1.15D-09 BMatP= 1.63D-08
 IDIUse=1 WtCom= 1.00D+00 WtEn= 0.00D+00
 Coeff-Com:  0.382D-04-0.864D-04 0.455D-03 0.464D-04-0.158D-03 0.309D-02
 Coeff-Com: -0.126D-01 0.264D-01 0.506D-03-0.128D+00 0.135D+00 0.144D+00
 Coeff-Com: -0.390D+00 0.196D+00 0.378D+00-0.880D+00 0.153D+01
 Coeff:      0.382D-04-0.864D-04 0.455D-03 0.464D-04-0.158D-03 0.309D-02
 Coeff:     -0.126D-01 0.264D-01 0.506D-03-0.128D+00 0.135D+00 0.144D+00
 Coeff:     -0.390D+00 0.196D+00 0.378D+00-0.880D+00 0.153D+01
 Gap=     0.428 Goal=   None    Shift=    0.000
 Gap=     0.415 Goal=   None    Shift=    0.000
 RMSDP=3.81D-06 MaxDP=1.88D-04 DE=-9.57D-08 OVMax= 8.79D-05

 Cycle  18  Pass 1  IDiag  1:
 E= -153.019501003987     Delta-E=       -0.000000002050 Rises=F Damp=F
 DIIS: error= 4.19D-07 at cycle  18 NSaved=  18.
 NSaved=18 IEnMin=18 EnMin= -153.019501003987     IErMin=18 ErrMin= 4.19D-07
 ErrMax= 4.19D-07  0.00D+00 EMaxC= 1.00D-01 BMatC= 7.53D-11 BMatP= 1.15D-09
 IDIUse=1 WtCom= 1.00D+00 WtEn= 0.00D+00
 Coeff-Com: -0.556D-06 0.367D-05-0.111D-03-0.590D-04 0.171D-03-0.126D-03
 Coeff-Com: -0.250D-03-0.257D-02 0.565D-02 0.238D-01-0.519D-01 0.589D-02
 Coeff-Com:  0.779D-01-0.859D-01 0.826D-02 0.991D-01-0.429D+00 0.135D+01
 Coeff:     -0.556D-06 0.367D-05-0.111D-03-0.590D-04 0.171D-03-0.126D-03
 Coeff:     -0.250D-03-0.257D-02 0.565D-02 0.238D-01-0.519D-01 0.589D-02
 Coeff:      0.779D-01-0.859D-01 0.826D-02 0.991D-01-0.429D+00 0.135D+01
 Gap=     0.428 Goal=   None    Shift=    0.000
 Gap=     0.415 Goal=   None    Shift=    0.000
 RMSDP=1.26D-06 MaxDP=7.10D-05 DE=-2.05D-09 OVMax= 9.74D-06

 Cycle  19  Pass 1  IDiag  1:
 E= -153.019501004058     Delta-E=       -0.000000000071 Rises=F Damp=F
 DIIS: error= 1.16D-07 at cycle  19 NSaved=  19.
 NSaved=19 IEnMin=19 EnMin= -153.019501004058     IErMin=19 ErrMin= 1.16D-07
 ErrMax= 1.16D-07  0.00D+00 EMaxC= 1.00D-01 BMatC= 7.54D-12 BMatP= 7.53D-11
 IDIUse=1 WtCom= 1.00D+00 WtEn= 0.00D+00
 Coeff-Com: -0.475D-05 0.921D-05 0.147D-05 0.701D-06-0.619D-04-0.293D-03
 Coeff-Com:  0.165D-02-0.226D-02-0.271D-02 0.688D-02 0.368D-02-0.201D-01
 Coeff-Com:  0.202D-01 0.300D-02-0.405D-01 0.648D-01-0.559D-01-0.308D+00
 Coeff-Com:  0.133D+01
 Coeff:     -0.475D-05 0.921D-05 0.147D-05 0.701D-06-0.619D-04-0.293D-03
 Coeff:      0.165D-02-0.226D-02-0.271D-02 0.688D-02 0.368D-02-0.201D-01
 Coeff:      0.202D-01 0.300D-02-0.405D-01 0.648D-01-0.559D-01-0.308D+00
 Coeff:      0.133D+01
 Gap=     0.428 Goal=   None    Shift=    0.000
 Gap=     0.415 Goal=   None    Shift=    0.000
 RMSDP=1.96D-07 MaxDP=1.40D-05 DE=-7.12D-11 OVMax= 1.99D-06

 Cycle  20  Pass 1  IDiag  1:
 E= -153.019501004065     Delta-E=       -0.000000000007 Rises=F Damp=F
 DIIS: error= 3.80D-08 at cycle  20 NSaved=  20.
 NSaved=20 IEnMin=20 EnMin= -153.019501004065     IErMin=20 ErrMin= 3.80D-08
 ErrMax= 3.80D-08  0.00D+00 EMaxC= 1.00D-01 BMatC= 6.33D-13 BMatP= 7.54D-12
 IDIUse=1 WtCom= 1.00D+00 WtEn= 0.00D+00
 Coeff-Com:  0.174D-05-0.346D-05 0.373D-05 0.340D-05 0.153D-04 0.974D-04
 Coeff-Com: -0.541D-03 0.872D-03 0.788D-03-0.361D-02 0.876D-03 0.725D-02
 Coeff-Com: -0.111D-01 0.321D-02 0.136D-01-0.283D-01 0.449D-01 0.367D-01
 Coeff-Com: -0.573D+00 0.151D+01
 Coeff:      0.174D-05-0.346D-05 0.373D-05 0.340D-05 0.153D-04 0.974D-04
 Coeff:     -0.541D-03 0.872D-03 0.788D-03-0.361D-02 0.876D-03 0.725D-02
 Coeff:     -0.111D-01 0.321D-02 0.136D-01-0.283D-01 0.449D-01 0.367D-01
 Coeff:     -0.573D+00 0.151D+01
 Gap=     0.428 Goal=   None    Shift=    0.000
 Gap=     0.415 Goal=   None    Shift=    0.000
 RMSDP=4.91D-08 MaxDP=1.74D-06 DE=-6.59D-12 OVMax= 9.07D-07

 Cycle  21  Pass 1  IDiag  1:
 E= -153.019501004065     Delta-E=       -0.000000000001 Rises=F Damp=F
 DIIS: error= 1.36D-08 at cycle  21 NSaved=  20.
 NSaved=20 IEnMin=20 EnMin= -153.019501004065     IErMin=20 ErrMin= 1.36D-08
 ErrMax= 1.36D-08  0.00D+00 EMaxC= 1.00D-01 BMatC= 5.92D-14 BMatP= 6.33D-13
 IDIUse=1 WtCom= 1.00D+00 WtEn= 0.00D+00
 Coeff-Com:  0.932D-07-0.307D-05 0.119D-05 0.431D-05-0.933D-05 0.828D-05
 Coeff-Com: -0.213D-04 0.205D-05 0.295D-03-0.351D-03-0.469D-03 0.129D-02
 Coeff-Com: -0.704D-03-0.141D-02 0.410D-02-0.101D-01 0.104D-01 0.986D-01
 Coeff-Com: -0.551D+00 0.145D+01
 Coeff:      0.932D-07-0.307D-05 0.119D-05 0.431D-05-0.933D-05 0.828D-05
 Coeff:     -0.213D-04 0.205D-05 0.295D-03-0.351D-03-0.469D-03 0.129D-02
 Coeff:     -0.704D-03-0.141D-02 0.410D-02-0.101D-01 0.104D-01 0.986D-01
 Coeff:     -0.551D+00 0.145D+01
 Gap=     0.428 Goal=   None    Shift=    0.000
 Gap=     0.415 Goal=   None    Shift=    0.000
 RMSDP=1.90D-08 MaxDP=1.17D-06 DE=-5.40D-13 OVMax= 3.85D-07

 Cycle  22  Pass 1  IDiag  1:
 E= -153.019501004065     Delta-E=        0.000000000000 Rises=F Damp=F
 DIIS: error= 5.51D-09 at cycle  22 NSaved=  20.
 NSaved=20 IEnMin=19 EnMin= -153.019501004065     IErMin=20 ErrMin= 5.51D-09
 ErrMax= 5.51D-09  0.00D+00 EMaxC= 1.00D-01 BMatC= 7.27D-15 BMatP= 5.92D-14
 IDIUse=1 WtCom= 1.00D+00 WtEn= 0.00D+00
 Large coefficients: NSaved= 20 BigCof=    0.00 CofMax=   10.00 Det=-5.94D-15
 Inversion failed.  Reducing to 19 matrices.
 Large coefficients: NSaved= 19 BigCof=    0.00 CofMax=   10.00 Det=-6.07D-15
 Inversion failed.  Reducing to 18 matrices.
 Large coefficients: NSaved= 18 BigCof=    0.00 CofMax=   10.00 Det=-6.36D-15
 Inversion failed.  Reducing to 17 matrices.
 Large coefficients: NSaved= 17 BigCof=    0.00 CofMax=   10.00 Det=-6.36D-15
 Inversion failed.  Reducing to 16 matrices.
 Large coefficients: NSaved= 16 BigCof=    0.00 CofMax=   10.00 Det=-6.44D-15
 Inversion failed.  Reducing to 15 matrices.
 Coeff-Com: -0.287D-05 0.116D-04-0.153D-04 0.900D-05-0.270D-04 0.128D-03
 Coeff-Com: -0.131D-03-0.346D-04 0.252D-03-0.786D-03 0.330D-02-0.156D-01
 Coeff-Com:  0.911D-01-0.522D+00 0.144D+01
 Coeff:     -0.287D-05 0.116D-04-0.153D-04 0.900D-05-0.270D-04 0.128D-03
 Coeff:     -0.131D-03-0.346D-04 0.252D-03-0.786D-03 0.330D-02-0.156D-01
 Coeff:      0.911D-01-0.522D+00 0.144D+01
 Gap=     0.428 Goal=   None    Shift=    0.000
 Gap=     0.415 Goal=   None    Shift=    0.000
 RMSDP=5.25D-09 MaxDP=2.17D-07 DE= 3.41D-13 OVMax= 1.14D-07

 SCF Done:  E(UHF) =  -153.019501004     A.U. after   22 cycles
            NFock= 22  Conv=0.52D-08     -V/T= 2.0010
 <Sx>= 0.0000 <Sy>= 0.0000 <Sz>= 1.5000 <S**2>= 3.7580 S= 1.5020
 <L.S>= 0.000000000000E+00
 KE= 1.528597607408D+02 PE=-5.199555193480D+02 EE= 1.322036742525D+02
 Annihilation of the first spin contaminant:
 S**2 before annihilation     3.7580,   after     3.7500
 Leave Link  502 at Tue Oct 10 09:58:37 2017, MaxMem=    33554432 cpu:        55.8
 (Enter /usr/local/gaussian/2009-E.01/g09/l801.exe)
 Windowed orbitals will be sorted by symmetry type.
 ExpMin= 3.60D-02 ExpMax= 4.56D+03 ExpMxC= 6.82D+02 IAcc=3 IRadAn=         5 AccDes= 0.00D+00
 HarFok:  IExCor=  205 AccDes= 0.00D+00 IRadAn=         5 IDoV=-2 UseB2=F ITyADJ=14
 ICtDFT= 12500011 ScaDFX=  1.000000  1.000000  1.000000  1.000000
 Largest valence mixing into a core orbital is  1.27D-04
 Largest core mixing into a valence orbital is  3.68D-05
 Largest valence mixing into a core orbital is  2.07D-04
 Largest core mixing into a valence orbital is  4.08D-05
 Range of M.O.s used for correlation:     5   109
 NBasis=   109 NAE=    15 NBE=    12 NFC=     4 NFV=     0
 NROrb=    105 NOA=    11 NOB=     8 NVA=    94 NVB=    97

 **** Warning!!: The largest alpha MO coefficient is  0.33633194D+03


 **** Warning!!: The largest beta MO coefficient is  0.28098683D+03

 Leave Link  801 at Tue Oct 10 09:58:37 2017, MaxMem=    33554432 cpu:         0.8
 (Enter /usr/local/gaussian/2009-E.01/g09/l804.exe)
 Open-shell transformation, MDV=    33554432 ITran=4 ISComp=2.
 Semi-Direct transformation.
 ModeAB=           4 MOrb=            11 LenV=      33119752
 LASXX=      3016842 LTotXX=     3016842 LenRXX=     6165999
 LTotAB=     3149157 MaxLAS=     6732495 LenRXY=           0
 NonZer=     9182841 LenScr=    14533632 LnRSAI=     6732495
 LnScr1=    10873856 LExtra=           0 Total=     38305982
 MaxDsk=          -1 SrtSym=           T ITran=            4
 DoSDTr:  NPSUse=  8
 JobTyp=1 Pass  1:  I=   1 to  11.
 (rs|ai) integrals will be sorted in core.
 Complete sort for first half transformation.
 First half transformation complete.
 Begin second half transformation for I=  10.
 Complete sort for second half transformation.
 Second half transformation complete.
 ModeAB=           4 MOrb=             8 LenV=      33119752
 LASXX=      2243462 LTotXX=     2243462 LenRXX=     4111852
 LTotAB=     1868390 MaxLAS=     4896360 LenRXY=           0
 NonZer=     6355314 LenScr=    10264576 LnRSAI=     4896360
 LnScr1=     8076288 LExtra=           0 Total=     27349076
 MaxDsk=          -1 SrtSym=           T ITran=            4
 DoSDTr:  NPSUse=  8
 JobTyp=2 Pass  1:  I=   1 to   8.
 (rs|ai) integrals will be sorted in core.
 Complete sort for first half transformation.
 First half transformation complete.
 Complete sort for second half transformation.
 Second half transformation complete.
 Spin components of T(2) and E(2):
     alpha-alpha T2 =       0.2714975955D-01 E2=     -0.7322981444D-01
     alpha-beta  T2 =       0.1266540095D+00 E2=     -0.3409449408D+00
     beta-beta   T2 =       0.1987220544D-01 E2=     -0.5041988544D-01
 ANorm=    0.1083363270D+01
 E2 =    -0.4645946407D+00 EUMP2 =    -0.15348409564475D+03
 (S**2,0)=  0.37580D+01           (S**2,1)=  0.37526D+01
 E(PUHF)=      -0.15302055559D+03        E(PMP2)=      -0.15348479834D+03
 Leave Link  804 at Tue Oct 10 09:58:40 2017, MaxMem=    33554432 cpu:        21.3
 (Enter /usr/local/gaussian/2009-E.01/g09/l913.exe)
 CIDS:  MDV=    33554432.
 Frozen-core window:  NFC=   4 NFV=   0.
 IFCWin=0 IBDFC=1 NFBD=     0     0 NFCmp=     0     0 NFFFC=     0     0
 Using original routines for 1st iteration, S=T.
 Using DD4UQ or CC4UQ for 2nd and later iterations.
 Keep R2 and R3 ints in memory in symmetry-blocked form, NReq=27832784.
 FoFCou: FMM=F IPFlag=           0 FMFlag=           0 FMFlg1=           0
         NFxFlg=           0 DoJE=F BraDBF=F KetDBF=F FulRan=T
         wScrn=  0.000000 ICntrl=     600 IOpCl=  0 I1Cent=           0 NGrid=           0
         NMat0=    1 NMatS0=   5995 NMatT0=    0 NMatD0=    1 NMtDS0=    0 NMtDT0=    0
 Petite list used in FoFCou.
 CCSD(T)
 =======
 Iterations= 200 Convergence= 0.100D-06
 Iteration Nr.   1
 **********************
 DD1Dir will call FoFMem   1 times, MxPair=       260
 NAB=    88 NAA=    55 NBB=    28.
 E(PMP3)=      -0.15350917736D+03
 MP4(R+Q)=  0.11035943D-01
 Maximum subspace dimension=  5
 Norm of the A-vectors is  7.8737907D-01 conv= 1.00D-05.
 RLE energy=       -0.4784037963
 E3=       -0.24618566D-01        EUMP3=      -0.15350871421D+03
 E4(DQ)=   -0.22660419D-02        UMP4(DQ)=   -0.15351098025D+03
 E4(SDQ)=  -0.77946837D-02        UMP4(SDQ)=  -0.15351650889D+03
 VARIATIONAL ENERGIES WITH THE FIRST-ORDER WAVEFUNCTION:
 DE(Corr)= -0.47800526     E(Corr)=     -153.49750626    
 NORM(A)=   0.10902912D+01
 Iteration Nr.   2
 **********************
 DD1Dir will call FoFMem   1 times, MxPair=       260
 NAB=    88 NAA=    55 NBB=    28.
 Norm of the A-vectors is  2.7431075D-01 conv= 1.00D-05.
 RLE energy=       -0.4963104112
 DE(Corr)= -0.49359773     E(CORR)=     -153.51309873     Delta=-1.56D-02
 NORM(A)=   0.10999801D+01
 Iteration Nr.   3
 **********************
 DD1Dir will call FoFMem   1 times, MxPair=       260
 NAB=    88 NAA=    55 NBB=    28.
 Norm of the A-vectors is  1.0285684D-01 conv= 1.00D-05.
 RLE energy=       -0.4977741591
 DE(Corr)= -0.49592792     E(CORR)=     -153.51542892     Delta=-2.33D-03
 NORM(A)=   0.11036787D+01
 Iteration Nr.   4
 **********************
 DD1Dir will call FoFMem   1 times, MxPair=       260
 NAB=    88 NAA=    55 NBB=    28.
 Norm of the A-vectors is  3.8336984D-02 conv= 1.00D-05.
 RLE energy=       -0.4985054338
 DE(Corr)= -0.49805967     E(CORR)=     -153.51756068     Delta=-2.13D-03
 NORM(A)=   0.11054232D+01
 Iteration Nr.   5
 **********************
 DD1Dir will call FoFMem   1 times, MxPair=       260
 NAB=    88 NAA=    55 NBB=    28.
 Norm of the A-vectors is  1.5677506D-02 conv= 1.00D-05.
 RLE energy=       -0.4985668777
 DE(Corr)= -0.49846155     E(CORR)=     -153.51796255     Delta=-4.02D-04
 NORM(A)=   0.11059396D+01
 Iteration Nr.   6
 **********************
 DD1Dir will call FoFMem   1 times, MxPair=       260
 NAB=    88 NAA=    55 NBB=    28.
 Norm of the A-vectors is  9.3050251D-03 conv= 1.00D-05.
 RLE energy=       -0.4984584383
 DE(Corr)= -0.49853066     E(CORR)=     -153.51803167     Delta=-6.91D-05
 NORM(A)=   0.11060301D+01
 Iteration Nr.   7
 **********************
 DD1Dir will call FoFMem   1 times, MxPair=       260
 NAB=    88 NAA=    55 NBB=    28.
 Norm of the A-vectors is  4.2289428D-03 conv= 1.00D-05.
 RLE energy=       -0.4985632802
 DE(Corr)= -0.49853875     E(CORR)=     -153.51803976     Delta=-8.09D-06
 NORM(A)=   0.11061471D+01
 Iteration Nr.   8
 **********************
 DD1Dir will call FoFMem   1 times, MxPair=       260
 NAB=    88 NAA=    55 NBB=    28.
 Norm of the A-vectors is  2.2359007D-03 conv= 1.00D-05.
 RLE energy=       -0.4985284893
 DE(Corr)= -0.49853483     E(CORR)=     -153.51803583     Delta= 3.93D-06
 NORM(A)=   0.11061441D+01
 Iteration Nr.   9
 **********************
 DD1Dir will call FoFMem   1 times, MxPair=       260
 NAB=    88 NAA=    55 NBB=    28.
 Norm of the A-vectors is  9.2118068D-04 conv= 1.00D-05.
 RLE energy=       -0.4985433763
 DE(Corr)= -0.49854191     E(CORR)=     -153.51804291     Delta=-7.08D-06
 NORM(A)=   0.11061560D+01
 Iteration Nr.  10
 **********************
 DD1Dir will call FoFMem   1 times, MxPair=       260
 NAB=    88 NAA=    55 NBB=    28.
 Norm of the A-vectors is  5.3978464D-04 conv= 1.00D-05.
 RLE energy=       -0.4985414076
 DE(Corr)= -0.49854068     E(CORR)=     -153.51804168     Delta= 1.23D-06
 NORM(A)=   0.11061581D+01
 Iteration Nr.  11
 **********************
 DD1Dir will call FoFMem   1 times, MxPair=       260
 NAB=    88 NAA=    55 NBB=    28.
 Norm of the A-vectors is  2.8530956D-04 conv= 1.00D-05.
 RLE energy=       -0.4985424854
 DE(Corr)= -0.49854244     E(CORR)=     -153.51804345     Delta=-1.76D-06
 NORM(A)=   0.11061610D+01
 Iteration Nr.  12
 **********************
 DD1Dir will call FoFMem   1 times, MxPair=       260
 NAB=    88 NAA=    55 NBB=    28.
 Norm of the A-vectors is  1.4208247D-04 conv= 1.00D-05.
 RLE energy=       -0.4985433369
 DE(Corr)= -0.49854296     E(CORR)=     -153.51804396     Delta=-5.16D-07
 NORM(A)=   0.11061632D+01
 Iteration Nr.  13
 **********************
 DD1Dir will call FoFMem   1 times, MxPair=       260
 NAB=    88 NAA=    55 NBB=    28.
 Norm of the A-vectors is  7.3849805D-05 conv= 1.00D-05.
 RLE energy=       -0.4985435289
 DE(Corr)= -0.49854344     E(CORR)=     -153.51804445     Delta=-4.83D-07
 NORM(A)=   0.11061643D+01
 Iteration Nr.  14
 **********************
 DD1Dir will call FoFMem   1 times, MxPair=       260
 NAB=    88 NAA=    55 NBB=    28.
 Norm of the A-vectors is  3.7798998D-05 conv= 1.00D-05.
 RLE energy=       -0.4985438853
 DE(Corr)= -0.49854370     E(CORR)=     -153.51804470     Delta=-2.55D-07
 NORM(A)=   0.11061654D+01
 Iteration Nr.  15
 **********************
 DD1Dir will call FoFMem   1 times, MxPair=       260
 NAB=    88 NAA=    55 NBB=    28.
 Norm of the A-vectors is  2.6518217D-05 conv= 1.00D-05.
 RLE energy=       -0.4985439226
 DE(Corr)= -0.49854386     E(CORR)=     -153.51804487     Delta=-1.67D-07
 NORM(A)=   0.11061658D+01
 Iteration Nr.  16
 **********************
 DD1Dir will call FoFMem   1 times, MxPair=       260
 NAB=    88 NAA=    55 NBB=    28.
 Norm of the A-vectors is  1.3368012D-05 conv= 1.00D-05.
 RLE energy=       -0.4985439816
 DE(Corr)= -0.49854395     E(CORR)=     -153.51804495     Delta=-8.52D-08
 NORM(A)=   0.11061661D+01
 Iteration Nr.  17
 **********************
 DD1Dir will call FoFMem   1 times, MxPair=       260
 NAB=    88 NAA=    55 NBB=    28.
 Norm of the A-vectors is  7.7459148D-06 conv= 1.00D-05.
 RLE energy=       -0.4985439658
 DE(Corr)= -0.49854397     E(CORR)=     -153.51804497     Delta=-1.83D-08
 NORM(A)=   0.11061661D+01
 CI/CC converged in   17 iterations to DelEn=-1.83D-08 Conv= 1.00D-07 ErrA1= 7.75D-06 Conv= 1.00D-05
 Largest amplitude= 4.08D-02
 Time for triples=      871.76 seconds.
 T4(CCSD)= -0.22511871D-01
 T5(CCSD)=  0.84515733D-03
 CCSD(T)= -0.15353971168D+03

 S**2, projected HF & approx projected MPn energies after annihilation of
 unwanted spin states (see manual for definitions):

 spins       (S**2,0) (S**2,1)    PUHF        PMP2        PMP3        PMP4
 annihilated
 s+1         3.74999  3.75001 -153.020556 -153.484798 -153.509177
 s+1,s+2     3.75000  3.75000 -153.020554 -153.484797 -153.509176
 s+1 to s+3  3.75000  3.75000 -153.020554 -153.484797 -153.509176
 s+1 to s+4  3.75000  3.75000 -153.020554 -153.484797 -153.509176
 s+1 to s+5  3.75000  3.75000 -153.020554
 s+1 to s+6  3.75000  3.75000 -153.020554

 Discarding MO integrals.
 Leave Link  913 at Tue Oct 10 10:02:16 2017, MaxMem=    33554432 cpu:      1600.1
 (Enter /usr/local/gaussian/2009-E.01/g09/l601.exe)
 Copying SCF densities to generalized density rwf, IOpCl= 1 IROHF=0.

 **********************************************************************

            Population analysis using the SCF density.

 **********************************************************************

 Orbital symmetries:
 Alpha Orbitals:
       Occupied  (A') (A') (A') (A') (A') (A') (A') (A') (A') (A")
                 (A') (A') (A") (A') (A")
       Virtual   (A') (A') (A") (A') (A') (A') (A") (A') (A") (A')
                 (A') (A") (A') (A') (A') (A") (A') (A") (A') (A')
                 (A') (A") (A') (A') (A') (A') (A') (A') (A") (A')
                 (A") (A') (A') (A") (A') (A") (A') (A") (A') (A')
                 (A') (A') (A') (A') (A") (A') (A') (A') (A") (A')
                 (A") (A') (A") (A') (A") (A') (A") (A') (A") (A")
                 (A') (A') (A') (A") (A') (A') (A") (A') (A') (A')
                 (A") (A") (A') (A') (A') (A") (A') (A") (A') (A')
                 (A") (A') (A") (A') (A') (A') (A') (A') (A") (A')
                 (A') (A') (A') (A')
 Beta  Orbitals:
       Occupied  (A') (A') (A') (A') (A') (A') (A') (A') (A') (A")
                 (A') (A")
       Virtual   (A') (A') (A') (A") (A') (A") (A') (A') (A") (A')
                 (A') (A') (A") (A') (A') (A") (A') (A") (A') (A')
                 (A') (A") (A') (A') (A") (A') (A') (A') (A') (A')
                 (A') (A") (A') (A") (A') (A") (A') (A") (A') (A")
                 (A') (A') (A') (A') (A') (A') (A') (A") (A') (A')
                 (A') (A") (A') (A") (A') (A") (A") (A') (A") (A')
                 (A") (A') (A") (A') (A') (A") (A') (A') (A') (A")
                 (A') (A') (A') (A") (A") (A') (A') (A') (A") (A')
                 (A') (A") (A") (A') (A') (A") (A') (A') (A') (A')
                 (A") (A') (A') (A') (A') (A') (A')
 The electronic state is 4-A".
 Alpha  occ. eigenvalues --  -11.29675 -11.29408 -11.24548 -11.23230  -1.10602
 Alpha  occ. eigenvalues --   -1.00772  -0.85759  -0.72880  -0.65788  -0.63958
 Alpha  occ. eigenvalues --   -0.55488  -0.42193  -0.41914  -0.39164  -0.38649
 Alpha virt. eigenvalues --    0.04112   0.05209   0.06740   0.09368   0.11157
 Alpha virt. eigenvalues --    0.12285   0.12340   0.14261   0.14329   0.14697
 Alpha virt. eigenvalues --    0.16182   0.17447   0.18176   0.19966   0.21138
 Alpha virt. eigenvalues --    0.21666   0.23245   0.24266   0.24499   0.27273
 Alpha virt. eigenvalues --    0.30862   0.34777   0.36018   0.39097   0.41699
 Alpha virt. eigenvalues --    0.46303   0.60867   0.62514   0.65966   0.68560
 Alpha virt. eigenvalues --    0.70913   0.71053   0.74449   0.74872   0.78901
 Alpha virt. eigenvalues --    0.83589   0.84146   0.85503   0.87676   0.88779
 Alpha virt. eigenvalues --    0.92588   1.03164   1.04519   1.15473   1.18332
 Alpha virt. eigenvalues --    1.22385   1.30995   1.37983   1.40485   1.42376
 Alpha virt. eigenvalues --    1.49432   1.55192   1.55384   1.67432   1.69918
 Alpha virt. eigenvalues --    1.76652   1.77799   1.82947   1.86226   1.87985
 Alpha virt. eigenvalues --    1.89898   1.97498   2.11499   2.12907   2.25097
 Alpha virt. eigenvalues --    2.28665   2.39866   2.42202   2.48487   2.77184
 Alpha virt. eigenvalues --    2.78143   2.87651   2.92486   2.94176   2.99460
 Alpha virt. eigenvalues --    3.02316   3.08879   3.13688   3.15793   3.21598
 Alpha virt. eigenvalues --    3.21881   3.35591   3.38580   3.39653   3.56018
 Alpha virt. eigenvalues --    3.73851   3.92695   4.18286   4.19833   4.53926
 Alpha virt. eigenvalues --   24.58184  24.72358  25.01535  26.29456
  Beta  occ. eigenvalues --  -11.29239 -11.24407 -11.23167 -11.22116  -1.07487
  Beta  occ. eigenvalues --   -0.97526  -0.73176  -0.65161  -0.62392  -0.60981
  Beta  occ. eigenvalues --   -0.39716  -0.39448
  Beta virt. eigenvalues --    0.02069   0.04517   0.05916   0.06752   0.09649
  Beta virt. eigenvalues --    0.10923   0.11916   0.12362   0.12441   0.14132
  Beta virt. eigenvalues --    0.14507   0.16017   0.17602   0.18509   0.20567
  Beta virt. eigenvalues --    0.20627   0.21283   0.23503   0.23612   0.24122
  Beta virt. eigenvalues --    0.25941   0.25979   0.29755   0.31944   0.36944
  Beta virt. eigenvalues --    0.37494   0.39753   0.46895   0.48748   0.61533
  Beta virt. eigenvalues --    0.65987   0.67847   0.69054   0.75050   0.75719
  Beta virt. eigenvalues --    0.83984   0.84528   0.85210   0.85610   0.86616
  Beta virt. eigenvalues --    0.87739   0.89466   0.91179   0.95409   1.04268
  Beta virt. eigenvalues --    1.10571   1.18778   1.21529   1.25544   1.32071
  Beta virt. eigenvalues --    1.38283   1.40979   1.42798   1.55862   1.59260
  Beta virt. eigenvalues --    1.66109   1.77905   1.79583   1.79712   1.82336
  Beta virt. eigenvalues --    1.86958   1.89270   1.89898   1.91319   2.00139
  Beta virt. eigenvalues --    2.15532   2.15538   2.27012   2.32406   2.42741
  Beta virt. eigenvalues --    2.44423   2.50751   2.77776   2.79524   2.88669
  Beta virt. eigenvalues --    2.93427   2.95538   2.99693   3.02657   3.11215
  Beta virt. eigenvalues --    3.18944   3.19186   3.26936   3.27990   3.38346
  Beta virt. eigenvalues --    3.38650   3.40730   3.56984   3.74348   3.92914
  Beta virt. eigenvalues --    4.20424   4.22032   4.54380  24.62307  24.74148
  Beta virt. eigenvalues --   25.01695  26.29538
          Condensed to atoms (all electrons):
               1          2          3          4          5          6
     1  C    9.777474   0.406177   0.406177   0.071736   0.497763  -5.159931
     2  H    0.406177   0.561752  -0.067004  -0.055356  -0.062009   0.067632
     3  H    0.406177  -0.067004   0.561752  -0.055356  -0.062009   0.067632
     4  C    0.071736  -0.055356  -0.055356   5.992577   0.092542  -0.035012
     5  C    0.497763  -0.062009  -0.062009   0.092542   8.771747  -4.690540
     6  C   -5.159931   0.067632   0.067632  -0.035012  -4.690540  17.221531
     7  H   -0.036975   0.000761   0.000761   0.003292  -0.174122   0.626975
               7
     1  C   -0.036975
     2  H    0.000761
     3  H    0.000761
     4  C    0.003292
     5  C   -0.174122
     6  C    0.626975
     7  H    0.426898
          Atomic-Atomic Spin Densities.
               1          2          3          4          5          6
     1  C    0.918336   0.028580   0.028580  -0.122028  -0.360054  -0.580717
     2  H    0.028580   0.083842  -0.018621  -0.019704  -0.014191  -0.007315
     3  H    0.028580  -0.018621   0.083842  -0.019704  -0.014191  -0.007315
     4  C   -0.122028  -0.019704  -0.019704   3.050280   0.022033  -0.001813
     5  C   -0.360054  -0.014191  -0.014191   0.022033   0.279335   0.099967
     6  C   -0.580717  -0.007315  -0.007315  -0.001813   0.099967   0.557283
     7  H    0.008985   0.000200   0.000200   0.001552   0.015379  -0.025710
               7
     1  C    0.008985
     2  H    0.000200
     3  H    0.000200
     4  C    0.001552
     5  C    0.015379
     6  C   -0.025710
     7  H   -0.001144
 Mulliken charges and spin densities:
               1          2
     1  C    0.037579  -0.078317
     2  H    0.148046   0.052790
     3  H    0.148046   0.052790
     4  C   -0.014424   2.910616
     5  C    1.626627   0.028278
     6  C   -2.098286   0.034380
     7  H    0.152410  -0.000538
 Sum of Mulliken charges =   0.00000   3.00000
 Mulliken charges and spin densities with hydrogens summed into heavy atoms:
               1          2
     1  C    0.333672   0.027264
     4  C   -0.014424   2.910616
     5  C    1.626627   0.028278
     6  C   -1.945876   0.033842
 Electronic spatial extent (au):  <R**2>=            273.0921
 Charge=             -0.0000 electrons
 Dipole moment (field-independent basis, Debye):
    X=             -0.7896    Y=             -0.0587    Z=             -0.0000  Tot=              0.7918
 Quadrupole moment (field-independent basis, Debye-Ang):
   XX=            -24.9943   YY=            -20.2283   ZZ=            -25.0930
   XY=              1.9871   XZ=              0.0000   YZ=              0.0000
 Traceless Quadrupole moment (field-independent basis, Debye-Ang):
   XX=             -1.5558   YY=              3.2102   ZZ=             -1.6544
   XY=              1.9871   XZ=              0.0000   YZ=              0.0000
 Octapole moment (field-independent basis, Debye-Ang**2):
  XXX=             -2.9347  YYY=             22.3132  ZZZ=             -0.0000  XYY=              0.3608
  XXY=             -2.5045  XXZ=             -0.0000  XZZ=             -2.3642  YZZ=             -1.9592
  YYZ=             -0.0000  XYZ=             -0.0000
 Hexadecapole moment (field-independent basis, Debye-Ang**3):
 XXXX=            -72.7531 YYYY=           -248.8487 ZZZZ=            -36.1628 XXXY=             17.3939
 XXXZ=              0.0000 YYYX=             24.6691 YYYZ=              0.0000 ZZZX=              0.0000
 ZZZY=              0.0000 XXYY=            -63.4908 XXZZ=            -17.8207 YYZZ=            -60.2499
 XXYZ=              0.0000 YYXZ=              0.0000 ZZXY=              8.1063
 N-N= 8.187258335064D+01 E-N=-5.199555194069D+02  KE= 1.528597607408D+02
 Symmetry A'   KE= 1.474888464042D+02
 Symmetry A"   KE= 5.370914336608D+00
 Leave Link  601 at Tue Oct 10 10:02:16 2017, MaxMem=    33554432 cpu:         0.2
 (Enter /usr/local/gaussian/2009-E.01/g09/l9999.exe)
 1\1\ WCSS.PL-BEM-WN1424\SP\UCCSD(T)-FC\6-311++G(d,p)\C4H3(4)\ROOT\10-O
 ct-2017\0\\#p ccsd(t,maxcyc=200)/6-311++G(d,p)\\ccsd(t) iener\\0,4\C,0
 ,-0.79166,0.490668,-0.000159\H,0,-1.024484,1.096063,0.885741\H,0,-1.02
 4331,1.095722,-0.886331\C,0,-1.72732,-0.716505,-0.000007\C,0,0.61374,0
 .121474,0.000033\C,0,1.776829,-0.186909,0.000192\H,0,2.804771,-0.45689
 1,0.000332\\Version=ES64L-G09RevE.01\State=4-A"\HF=-153.019501\MP2=-15
 3.4840956\MP3=-153.5087142\MP4D=-153.5220162\MP4DQ=-153.5109803\PUHF=-
 153.0205556\PMP2-0=-153.4847983\PMP3-0=-153.5091774\MP4SDQ=-153.516508
 9\CCSD=-153.518045\CCSD(T)=-153.5397117\S2=3.757955\S2-1=3.752637\S2A=
 3.750019\RMSD=5.248e-09\PG=CS [SG(C4H1),X(H2)]\\@


                                                                                    A
                                                                                  AA
                                                                                 AAA
                                                                                AAAA
                                                                               AAAAA
                                                                              AAAAAA   KKKKKKKK
                                                                             AAAAAAA   KKKKKKKK
                                                                            AAAAAAAA   KKKKKKKK
                                       ZZZZZZZZZZZZZZZZZZZZ                AAAA  AAA   KKKKKKKK
                                       ZZZZZZZZZZZZZZZZZZZ                AAAA   AAA   KKKKKKKK          K
                                       ZZZZZZZZZZZZZZZZZZ                AAAA    AAA   KKKKKKKK         KKK
                                       ZZZZZZZZZZZZZZZZZ                AAAA     AAA   KKKKKKKK        KKKKK
                                       ZZZZZZZZZZZZZZZZ                AAAA      AAA   KKKKKKKK       KKKKKKK
                                                ZZZZZZ                AAAA       AAA   KKKKKKKK      KKKKKKK
                                               ZZZZZZ                AAAA        AAA   KKKKKKKK     KKKKKKK
                                              ZZZZZZ                AAAA         AAA   KKKKKKKK    KKKKKKK
                                             ZZZZZZ                AAAA          AAA   KKKKKKKK   KKKKKKK
                                            ZZZZZZ                AAAAAAAAAAAAAAAAAA   KKKKKKKK  KKKKKKK
                                           ZZZZZZ                AAAAAAAAAAAAAAAAAAA   KKKKKKKK KKKKKKK
                                          ZZZZZZ                AAAAAAAAAAAAAAAAAAAA   KKKKKKKKKKKKKKK
                                         ZZZZZZ                AAAAAAAAAAAAAAAAAAAAA   KKKKKKKKKKKKKK
                                        ZZZZZZ                AAAAAA        AAAAAAAA   KKKKKKKKKKKKK
                                       ZZZZZZ                AAAAAA         AAAAAAAA   KKKKKKKKKKKK
                                      ZZZZZZ                AAAAAA          AAAAAAAA   KKKKKKKKKKK
                                     ZZZZZZ                AAAAAA           AAAAAAAA   KKKKKKKKKKKK
                                    ZZZZZZ                AAAAAA            AAAAAAAA   KKKKKKKKKKKKK
                                   ZZZZZZ                AAAAAA             AAAAAAAA   KKKKKKKKKKKKKK
                                  ZZZZZZ                AAAAAA              AAAAAAAA   KKKKKKKKKKKKKKK
                                 ZZZZZZ                AAAAAA               AAAAAAAA   KKKKK KKKKKKKKKK
                                ZZZZZZ                AAAAAA                AAAAAAAA   KKKKK  KKKKKKKKKK
                               ZZZZZZ                AAAAAA                            KKKKK   KKKKKKKKKK
                              ZZZZZZ                AAAAAA                             KKKKK    KKKKKKKKKK
                             ZZZZZZ                                                    KKKKK     KKKKKKKKKK
                            ZZZZZZ                                                     KKKKK      KKKKKKKKKK
                           ZZZZZZ                                                      KKKKK       KKKKKKKKKK
                          ZZZZZZ                                                       KKKKK        KKKKKKKKKK
                         ZZZZZZZZZZZZZZZZZZZZZZZZZZZZZZZZZZZZZZZZ                      KKKKK         KKKKKKKKKK
                        ZZZZZZZZZZZZZZZZZZZZZZZZZZZZZZZZZZZZZZZZZ                      KKKKK          KKKKKKKKKK
                       ZZZZZZZZZZZZZZZZZZZZZZZZZZZZZZZZZZZZZZZZZZ                      KKKKK           KKKKKKKKKK
                       ZZZZZZZZZZZZZZZZZZZZZZZZZZZZZZZZZZZZZZZZZZ                      KKKKK            KKKKKKKKKK
                       ZZZZZZZZZZZZZZZZZZZZZZZZZZZZZZZZZZZZZZZZZZ                      KKKKK             KKKKKKKKKK
                       ZZZZZZZZZZZZZZZZZZZZZZZZZZZZZZZZZZZZZZZZZZ                      KKKKK              KKKKKKKKKK
                       ZZZZZZZZZZZZZZZZZZZZZZZZZZZZZZZZZZZZZZZZZZ                      KKKKK               KKKKKKKKKK
                       ZZZZZZZZZZZZZZZZZZZZZZZZZZZZZZZZZZZZZZZZZZ                      KKKKK                KKKKKKKKKK
                       ZZZZZZZZZZZZZZZZZZZZZZZZZZZZZZZZZZZZZZZZZZ                      KKKKK
                                                                                       KKKKK
                                                                                          (J.P.)
 Job cpu time:       0 days  0 hours 28 minutes 17.8 seconds.
 File lengths (MBytes):  RWF=    306 Int=      0 D2E=      0 Chk=      2 Scr=      1
 Normal termination of Gaussian 09 at Tue Oct 10 10:02:16 2017.
