 Entering Gaussian System, Link 0=/usr/local/gaussian/2009-E.01/g09/g09
 Initial command:
 /usr/local/gaussian/2009-E.01/g09/l1.exe "/lustre/scratch/eerd/4986703.achilles/Gau-37035.inp" -scrdir="/lustre/scratch/eerd/4986703.achilles/"
 Entering Link 1 = /usr/local/gaussian/2009-E.01/g09/l1.exe PID=     37037.
  
 Copyright (c) 1988,1990,1992,1993,1995,1998,2003,2009,2015,
            Gaussian, Inc.  All Rights Reserved.
  
 This is part of the Gaussian(R) 09 program.  It is based on
 the Gaussian(R) 03 system (copyright 2003, Gaussian, Inc.),
 the Gaussian(R) 98 system (copyright 1998, Gaussian, Inc.),
 the Gaussian(R) 94 system (copyright 1995, Gaussian, Inc.),
 the Gaussian 92(TM) system (copyright 1992, Gaussian, Inc.),
 the Gaussian 90(TM) system (copyright 1990, Gaussian, Inc.),
 the Gaussian 88(TM) system (copyright 1988, Gaussian, Inc.),
 the Gaussian 86(TM) system (copyright 1986, Carnegie Mellon
 University), and the Gaussian 82(TM) system (copyright 1983,
 Carnegie Mellon University). Gaussian is a federally registered
 trademark of Gaussian, Inc.
  
 This software contains proprietary and confidential information,
 including trade secrets, belonging to Gaussian, Inc.
  
 This software is provided under written license and may be
 used, copied, transmitted, or stored only in accord with that
 written license.
  
 The following legend is applicable only to US Government
 contracts under FAR:
  
                    RESTRICTED RIGHTS LEGEND
  
 Use, reproduction and disclosure by the US Government is
 subject to restrictions as set forth in subparagraphs (a)
 and (c) of the Commercial Computer Software - Restricted
 Rights clause in FAR 52.227-19.
  
 Gaussian, Inc.
 340 Quinnipiac St., Bldg. 40, Wallingford CT 06492
  
  
 ---------------------------------------------------------------
 Warning -- This program may not be used in any manner that
 competes with the business of Gaussian, Inc. or will provide
 assistance to any competitor of Gaussian, Inc.  The licensee
 of this program is prohibited from giving any competitor of
 Gaussian, Inc. access to this program.  By using this program,
 the user acknowledges that Gaussian, Inc. is engaged in the
 business of creating and licensing software in the field of
 computational chemistry and represents and warrants to the
 licensee that it is not a competitor of Gaussian, Inc. and that
 it will not use this program in any manner prohibited above.
 ---------------------------------------------------------------
  

 Cite this work as:
 Gaussian 09, Revision E.01,
 M. J. Frisch, G. W. Trucks, H. B. Schlegel, G. E. Scuseria, 
 M. A. Robb, J. R. Cheeseman, G. Scalmani, V. Barone, B. Mennucci, 
 G. A. Petersson, H. Nakatsuji, M. Caricato, X. Li, H. P. Hratchian, 
 A. F. Izmaylov, J. Bloino, G. Zheng, J. L. Sonnenberg, M. Hada, 
 M. Ehara, K. Toyota, R. Fukuda, J. Hasegawa, M. Ishida, T. Nakajima, 
 Y. Honda, O. Kitao, H. Nakai, T. Vreven, J. A. Montgomery, Jr., 
 J. E. Peralta, F. Ogliaro, M. Bearpark, J. J. Heyd, E. Brothers, 
 K. N. Kudin, V. N. Staroverov, T. Keith, R. Kobayashi, J. Normand, 
 K. Raghavachari, A. Rendell, J. C. Burant, S. S. Iyengar, J. Tomasi, 
 M. Cossi, N. Rega, J. M. Millam, M. Klene, J. E. Knox, J. B. Cross, 
 V. Bakken, C. Adamo, J. Jaramillo, R. Gomperts, R. E. Stratmann, 
 O. Yazyev, A. J. Austin, R. Cammi, C. Pomelli, J. W. Ochterski, 
 R. L. Martin, K. Morokuma, V. G. Zakrzewski, G. A. Voth, 
 P. Salvador, J. J. Dannenberg, S. Dapprich, A. D. Daniels, 
 O. Farkas, J. B. Foresman, J. V. Ortiz, J. Cioslowski, 
 and D. J. Fox, Gaussian, Inc., Wallingford CT, 2013.
 
 ******************************************
 Gaussian 09:  ES64L-G09RevE.01 30-Nov-2015
                10-Oct-2017 
 ******************************************
 %NProcShared=8
 Will use up to    8 processors via shared memory.
 -----------------------------------
 #p ccsd(t,maxcyc=200)/6-311++G(d,p)
 -----------------------------------
 1/38=1/1;
 2/12=2,17=6,18=5,40=1/2;
 3/5=4,6=6,7=1111,11=9,16=1,25=1,30=1/1,2,3;
 4//1;
 5/5=2,38=5/2;
 8/6=4,9=120000,10=2/1,4;
 9/5=7,6=200,14=2/13;
 6/7=2,8=2,9=2,10=2/1;
 99/5=1,9=1/99;
 Leave Link    1 at Tue Oct 10 11:43:57 2017, MaxMem=           0 cpu:         1.3
 (Enter /usr/local/gaussian/2009-E.01/g09/l101.exe)
 -------------
 ccsd(t) iener
 -------------
 Symbolic Z-matrix:
 Charge =  1 Multiplicity = 2
 C                     0.82664   0.00036   0.00004 
 H                     1.46302  -0.3801    0.8192 
 H                     1.46328   0.38144  -0.81861 
 C                    -0.4944    0.65888   0.07655 
 C                    -0.49369  -0.65945  -0.07748 
 H                    -0.98437   1.62178   0.00464 
 H                    -0.98278  -1.62283  -0.00595 
 
 NAtoms=      7 NQM=        7 NQMF=       0 NMMI=      0 NMMIF=      0
                NMic=       0 NMicF=      0.
                    Isotopes and Nuclear Properties:
 (Nuclear quadrupole moments (NQMom) in fm**2, nuclear magnetic moments (NMagM)
  in nuclear magnetons)

  Atom         1           2           3           4           5           6           7
 IAtWgt=          12           1           1          12          12           1           1
 AtmWgt=  12.0000000   1.0078250   1.0078250  12.0000000  12.0000000   1.0078250   1.0078250
 NucSpn=           0           1           1           0           0           1           1
 AtZEff=   0.0000000   0.0000000   0.0000000   0.0000000   0.0000000   0.0000000   0.0000000
 NQMom=    0.0000000   0.0000000   0.0000000   0.0000000   0.0000000   0.0000000   0.0000000
 NMagM=    0.0000000   2.7928460   2.7928460   0.0000000   0.0000000   2.7928460   2.7928460
 AtZNuc=   6.0000000   1.0000000   1.0000000   6.0000000   6.0000000   1.0000000   1.0000000
 Leave Link  101 at Tue Oct 10 11:43:57 2017, MaxMem=    33554432 cpu:         0.5
 (Enter /usr/local/gaussian/2009-E.01/g09/l202.exe)
                          Input orientation:                          
 ---------------------------------------------------------------------
 Center     Atomic      Atomic             Coordinates (Angstroms)
 Number     Number       Type             X           Y           Z
 ---------------------------------------------------------------------
      1          6           0        0.826639    0.000361    0.000045
      2          1           0        1.463019   -0.380096    0.819195
      3          1           0        1.463279    0.381441   -0.818614
      4          6           0       -0.494396    0.658881    0.076550
      5          6           0       -0.493691   -0.659450   -0.077481
      6          1           0       -0.984373    1.621784    0.004639
      7          1           0       -0.982782   -1.622831   -0.005948
 ---------------------------------------------------------------------
                    Distance matrix (angstroms):
                    1          2          3          4          5
     1  C    0.000000
     2  H    1.104868   0.000000
     3  H    1.104868   1.806200   0.000000
     4  C    1.478051   2.337192   2.170434   0.000000
     5  C    1.478051   2.170434   2.337192   1.327300   0.000000
     6  H    2.430802   3.265080   2.864820   1.082788   2.334854
     7  H    2.430802   2.864820   3.265080   2.334854   1.082788
                    6          7
     6  H    0.000000
     7  H    3.244633   0.000000
 Stoichiometry    C3H4(1+,2)
 Framework group  C2[C2(C),X(C2H4)]
 Deg. of freedom     8
 Full point group                 C2      NOp   2
 Largest Abelian subgroup         C2      NOp   2
 Largest concise Abelian subgroup C2      NOp   2
                         Standard orientation:                         
 ---------------------------------------------------------------------
 Center     Atomic      Atomic             Coordinates (Angstroms)
 Number     Number       Type             X           Y           Z
 ---------------------------------------------------------------------
      1          6           0        0.000000    0.000000    0.827073
      2          1           0       -0.857559   -0.283163    1.463583
      3          1           0        0.857559    0.283163    1.463583
      4          6           0       -0.000000    0.663650   -0.493610
      5          6           0       -0.000000   -0.663650   -0.493610
      6          1           0        0.183008    1.611961   -0.983144
      7          1           0       -0.183008   -1.611961   -0.983144
 ---------------------------------------------------------------------
 Rotational constants (GHZ):     28.8469796     23.2163482     13.9031484
 Leave Link  202 at Tue Oct 10 11:43:57 2017, MaxMem=    33554432 cpu:         0.1
 (Enter /usr/local/gaussian/2009-E.01/g09/l301.exe)
 Standard basis: 6-311++G(d,p) (5D, 7F)
 Ernie: Thresh=  0.10000D-02 Tol=  0.10000D-05 Strict=F.
 There are    50 symmetry adapted cartesian basis functions of A   symmetry.
 There are    47 symmetry adapted cartesian basis functions of B   symmetry.
 There are    48 symmetry adapted basis functions of A   symmetry.
 There are    46 symmetry adapted basis functions of B   symmetry.
    94 basis functions,   144 primitive gaussians,    97 cartesian basis functions
    11 alpha electrons       10 beta electrons
       nuclear repulsion energy        63.8668965644 Hartrees.
 IExCor=    0 DFT=F Ex=HF Corr=None ExCW=0 ScaHFX=  1.000000
 ScaDFX=  1.000000  1.000000  1.000000  1.000000 ScalE2=  1.000000  1.000000
 IRadAn=      0 IRanWt=     -1 IRanGd=            0 ICorTp=0 IEmpDi=  4
 NAtoms=    7 NActive=    7 NUniq=    4 SFac= 3.06D+00 NAtFMM=   60 NAOKFM=F Big=F
 Integral buffers will be    131072 words long.
 Raffenetti 2 integral format.
 Two-electron integral symmetry is turned on.
 Leave Link  301 at Tue Oct 10 11:43:57 2017, MaxMem=    33554432 cpu:         0.5
 (Enter /usr/local/gaussian/2009-E.01/g09/l302.exe)
 NPDir=0 NMtPBC=     1 NCelOv=     1 NCel=       1 NClECP=     1 NCelD=      1
         NCelK=      1 NCelE2=     1 NClLst=     1 CellRange=     0.0.
 One-electron integrals computed using PRISM.
 One-electron integral symmetry used in STVInt
 NBasis=    94 RedAO= T EigKep=  3.26D-05  NBF=    48    46
 NBsUse=    94 1.00D-06 EigRej= -1.00D+00 NBFU=    48    46
 Leave Link  302 at Tue Oct 10 11:43:57 2017, MaxMem=    33554432 cpu:         3.2
 (Enter /usr/local/gaussian/2009-E.01/g09/l303.exe)
 DipDrv:  MaxL=1.
 Leave Link  303 at Tue Oct 10 11:43:58 2017, MaxMem=    33554432 cpu:         0.7
 (Enter /usr/local/gaussian/2009-E.01/g09/l401.exe)
 ExpMin= 3.60D-02 ExpMax= 4.56D+03 ExpMxC= 6.82D+02 IAcc=3 IRadAn=         5 AccDes= 0.00D+00
 Harris functional with IExCor=  205 and IRadAn=       5 diagonalized for initial guess.
 HarFok:  IExCor=  205 AccDes= 0.00D+00 IRadAn=         5 IDoV= 1 UseB2=F ITyADJ=14
 ICtDFT=  3500011 ScaDFX=  1.000000  1.000000  1.000000  1.000000
 FoFCou: FMM=F IPFlag=           0 FMFlag=      100000 FMFlg1=           0
         NFxFlg=           0 DoJE=T BraDBF=F KetDBF=T FulRan=T
         wScrn=  0.000000 ICntrl=     500 IOpCl=  0 I1Cent=   200000004 NGrid=           0
         NMat0=    1 NMatS0=      1 NMatT0=    0 NMatD0=    1 NMtDS0=    0 NMtDT0=    0
 Petite list used in FoFCou.
 Harris En= -115.720005582875    
 JPrj=0 DoOrth=F DoCkMO=F.
 Initial guess orbital symmetries:
 Alpha Orbitals:
       Occupied  (A) (A) (B) (A) (A) (B) (A) (B) (A) (B) (B)
       Virtual   (A) (B) (A) (A) (B) (B) (A) (B) (A) (B) (A) (B)
                 (A) (A) (A) (B) (B) (B) (A) (B) (A) (B) (A) (B)
                 (A) (A) (B) (B) (B) (A) (A) (A) (B) (B) (A) (B)
                 (B) (A) (A) (B) (A) (B) (A) (B) (A) (B) (A) (B)
                 (A) (A) (B) (A) (B) (B) (A) (B) (B) (B) (A) (A)
                 (A) (A) (B) (A) (B) (B) (A) (B) (A) (B) (A) (A)
                 (B) (A) (B) (A) (B) (B) (B) (A) (A) (A) (B)
 Beta  Orbitals:
       Occupied  (A) (A) (B) (A) (A) (B) (A) (B) (A) (B)
       Virtual   (B) (A) (B) (A) (A) (B) (B) (A) (B) (A) (B) (A)
                 (B) (A) (A) (A) (B) (B) (B) (A) (B) (A) (B) (A)
                 (B) (A) (A) (B) (B) (B) (A) (A) (A) (B) (B) (A)
                 (B) (B) (A) (A) (B) (A) (B) (A) (B) (A) (B) (A)
                 (B) (A) (A) (B) (A) (B) (B) (A) (B) (B) (B) (A)
                 (A) (A) (A) (B) (A) (B) (B) (A) (B) (A) (B) (A)
                 (A) (B) (A) (B) (A) (B) (B) (B) (A) (A) (A) (B)
 The electronic state of the initial guess is 2-B.
 Initial guess <Sx>= 0.0000 <Sy>= 0.0000 <Sz>= 0.5000 <S**2>= 0.7500 S= 0.5000
 Leave Link  401 at Tue Oct 10 11:43:58 2017, MaxMem=    33554432 cpu:         4.0
 (Enter /usr/local/gaussian/2009-E.01/g09/l502.exe)
 UHF open shell SCF:
 Using DIIS extrapolation, IDIIS=  1040.
 Integral symmetry usage will be decided dynamically.
 Keep R1 and R2 ints in memory in symmetry-blocked form, NReq=15018898.
 IVT=       48417 IEndB=       48417 NGot=    33554432 MDV=    23522518
 LenX=    23522518 LenY=    23512668
 Requested convergence on RMS density matrix=1.00D-08 within 128 cycles.
 Requested convergence on MAX density matrix=1.00D-06.
 Requested convergence on             energy=1.00D-06.
 No special actions if energy rises.
 FoFCou: FMM=F IPFlag=           0 FMFlag=           0 FMFlg1=           0
         NFxFlg=           0 DoJE=F BraDBF=F KetDBF=F FulRan=T
         wScrn=  0.000000 ICntrl=     600 IOpCl=  0 I1Cent=           0 NGrid=           0
         NMat0=    1 NMatS0=   4465 NMatT0=    0 NMatD0=    1 NMtDS0=    0 NMtDT0=    0
 Petite list used in FoFCou.

 Cycle   1  Pass 1  IDiag  1:
 E= -115.460442182891    
 DIIS: error= 5.04D-02 at cycle   1 NSaved=   1.
 NSaved= 1 IEnMin= 1 EnMin= -115.460442182891     IErMin= 1 ErrMin= 5.04D-02
 ErrMax= 5.04D-02  0.00D+00 EMaxC= 1.00D-01 BMatC= 7.63D-01 BMatP= 7.63D-01
 IDIUse=3 WtCom= 4.96D-01 WtEn= 5.04D-01
 Coeff-Com:  0.100D+01
 Coeff-En:   0.100D+01
 Coeff:      0.100D+01
 Gap=     0.494 Goal=   None    Shift=    0.000
 Gap=     0.453 Goal=   None    Shift=    0.000
 GapD=    0.453 DampG=2.000 DampE=0.500 DampFc=1.0000 IDamp=-1.
 RMSDP=4.16D-03 MaxDP=7.03D-02              OVMax= 8.56D-02

 Cycle   2  Pass 1  IDiag  1:
 E= -115.532768849120     Delta-E=       -0.072326666229 Rises=F Damp=F
 DIIS: error= 1.04D-02 at cycle   2 NSaved=   2.
 NSaved= 2 IEnMin= 2 EnMin= -115.532768849120     IErMin= 2 ErrMin= 1.04D-02
 ErrMax= 1.04D-02  0.00D+00 EMaxC= 1.00D-01 BMatC= 3.06D-02 BMatP= 7.63D-01
 IDIUse=3 WtCom= 8.96D-01 WtEn= 1.04D-01
 Coeff-Com:  0.399D-01 0.960D+00
 Coeff-En:   0.000D+00 0.100D+01
 Coeff:      0.358D-01 0.964D+00
 Gap=     0.507 Goal=   None    Shift=    0.000
 Gap=     0.467 Goal=   None    Shift=    0.000
 RMSDP=1.63D-03 MaxDP=3.29D-02 DE=-7.23D-02 OVMax= 4.28D-02

 Cycle   3  Pass 1  IDiag  1:
 E= -115.540132170419     Delta-E=       -0.007363321299 Rises=F Damp=F
 DIIS: error= 4.62D-03 at cycle   3 NSaved=   3.
 NSaved= 3 IEnMin= 3 EnMin= -115.540132170419     IErMin= 3 ErrMin= 4.62D-03
 ErrMax= 4.62D-03  0.00D+00 EMaxC= 1.00D-01 BMatC= 4.55D-03 BMatP= 3.06D-02
 IDIUse=3 WtCom= 9.54D-01 WtEn= 4.62D-02
 Coeff-Com: -0.249D-01 0.224D+00 0.801D+00
 Coeff-En:   0.000D+00 0.000D+00 0.100D+01
 Coeff:     -0.237D-01 0.214D+00 0.810D+00
 Gap=     0.497 Goal=   None    Shift=    0.000
 Gap=     0.463 Goal=   None    Shift=    0.000
 RMSDP=4.94D-04 MaxDP=9.35D-03 DE=-7.36D-03 OVMax= 1.50D-02

 Cycle   4  Pass 1  IDiag  1:
 E= -115.541654880465     Delta-E=       -0.001522710045 Rises=F Damp=F
 DIIS: error= 2.57D-03 at cycle   4 NSaved=   4.
 NSaved= 4 IEnMin= 4 EnMin= -115.541654880465     IErMin= 4 ErrMin= 2.57D-03
 ErrMax= 2.57D-03  0.00D+00 EMaxC= 1.00D-01 BMatC= 4.05D-04 BMatP= 4.55D-03
 IDIUse=3 WtCom= 9.74D-01 WtEn= 2.57D-02
 Coeff-Com:  0.644D-02-0.108D+00-0.242D+00 0.134D+01
 Coeff-En:   0.000D+00 0.000D+00 0.000D+00 0.100D+01
 Coeff:      0.627D-02-0.105D+00-0.236D+00 0.133D+01
 Gap=     0.499 Goal=   None    Shift=    0.000
 Gap=     0.468 Goal=   None    Shift=    0.000
 RMSDP=3.62D-04 MaxDP=7.27D-03 DE=-1.52D-03 OVMax= 1.98D-02

 Cycle   5  Pass 1  IDiag  1:
 E= -115.542130494852     Delta-E=       -0.000475614387 Rises=F Damp=F
 DIIS: error= 1.26D-03 at cycle   5 NSaved=   5.
 NSaved= 5 IEnMin= 5 EnMin= -115.542130494852     IErMin= 5 ErrMin= 1.26D-03
 ErrMax= 1.26D-03  0.00D+00 EMaxC= 1.00D-01 BMatC= 1.26D-04 BMatP= 4.05D-04
 IDIUse=3 WtCom= 9.87D-01 WtEn= 1.26D-02
 Coeff-Com:  0.546D-02-0.545D-01-0.179D+00 0.925D-01 0.114D+01
 Coeff-En:   0.000D+00 0.000D+00 0.000D+00 0.000D+00 0.100D+01
 Coeff:      0.539D-02-0.538D-01-0.177D+00 0.913D-01 0.113D+01
 Gap=     0.499 Goal=   None    Shift=    0.000
 Gap=     0.471 Goal=   None    Shift=    0.000
 RMSDP=1.92D-04 MaxDP=3.61D-03 DE=-4.76D-04 OVMax= 1.12D-02

 Cycle   6  Pass 1  IDiag  1:
 E= -115.542286153905     Delta-E=       -0.000155659054 Rises=F Damp=F
 DIIS: error= 8.79D-04 at cycle   6 NSaved=   6.
 NSaved= 6 IEnMin= 6 EnMin= -115.542286153905     IErMin= 6 ErrMin= 8.79D-04
 ErrMax= 8.79D-04  0.00D+00 EMaxC= 1.00D-01 BMatC= 2.80D-05 BMatP= 1.26D-04
 IDIUse=3 WtCom= 9.91D-01 WtEn= 8.79D-03
 Coeff-Com: -0.290D-02 0.417D-01 0.114D+00-0.327D+00-0.409D+00 0.158D+01
 Coeff-En:   0.000D+00 0.000D+00 0.000D+00 0.000D+00 0.000D+00 0.100D+01
 Coeff:     -0.287D-02 0.414D-01 0.113D+00-0.324D+00-0.405D+00 0.158D+01
 Gap=     0.499 Goal=   None    Shift=    0.000
 Gap=     0.472 Goal=   None    Shift=    0.000
 RMSDP=1.19D-04 MaxDP=3.17D-03 DE=-1.56D-04 OVMax= 8.15D-03

 Cycle   7  Pass 1  IDiag  1:
 E= -115.542336024230     Delta-E=       -0.000049870325 Rises=F Damp=F
 DIIS: error= 2.62D-04 at cycle   7 NSaved=   7.
 NSaved= 7 IEnMin= 7 EnMin= -115.542336024230     IErMin= 7 ErrMin= 2.62D-04
 ErrMax= 2.62D-04  0.00D+00 EMaxC= 1.00D-01 BMatC= 5.25D-06 BMatP= 2.80D-05
 IDIUse=3 WtCom= 9.97D-01 WtEn= 2.62D-03
 Coeff-Com:  0.107D-03-0.498D-02-0.134D-01 0.132D+00-0.116D+00-0.517D+00
 Coeff-Com:  0.152D+01
 Coeff-En:   0.000D+00 0.000D+00 0.000D+00 0.000D+00 0.000D+00 0.000D+00
 Coeff-En:   0.100D+01
 Coeff:      0.107D-03-0.497D-02-0.133D-01 0.132D+00-0.116D+00-0.515D+00
 Coeff:      0.152D+01
 Gap=     0.499 Goal=   None    Shift=    0.000
 Gap=     0.472 Goal=   None    Shift=    0.000
 RMSDP=5.44D-05 MaxDP=1.33D-03 DE=-4.99D-05 OVMax= 3.14D-03

 Cycle   8  Pass 1  IDiag  1:
 E= -115.542345334924     Delta-E=       -0.000009310694 Rises=F Damp=F
 DIIS: error= 1.30D-04 at cycle   8 NSaved=   8.
 NSaved= 8 IEnMin= 8 EnMin= -115.542345334924     IErMin= 8 ErrMin= 1.30D-04
 ErrMax= 1.30D-04  0.00D+00 EMaxC= 1.00D-01 BMatC= 1.26D-06 BMatP= 5.25D-06
 IDIUse=3 WtCom= 9.99D-01 WtEn= 1.30D-03
 Coeff-Com:  0.354D-03-0.325D-02-0.104D-01-0.260D-01 0.105D+00 0.184D+00
 Coeff-Com: -0.120D+01 0.195D+01
 Coeff-En:   0.000D+00 0.000D+00 0.000D+00 0.000D+00 0.000D+00 0.000D+00
 Coeff-En:   0.000D+00 0.100D+01
 Coeff:      0.353D-03-0.325D-02-0.104D-01-0.260D-01 0.105D+00 0.184D+00
 Coeff:     -0.120D+01 0.195D+01
 Gap=     0.498 Goal=   None    Shift=    0.000
 Gap=     0.472 Goal=   None    Shift=    0.000
 RMSDP=3.20D-05 MaxDP=4.55D-04 DE=-9.31D-06 OVMax= 2.64D-03

 Cycle   9  Pass 1  IDiag  1:
 E= -115.542348438704     Delta-E=       -0.000003103780 Rises=F Damp=F
 DIIS: error= 8.50D-05 at cycle   9 NSaved=   9.
 NSaved= 9 IEnMin= 9 EnMin= -115.542348438704     IErMin= 9 ErrMin= 8.50D-05
 ErrMax= 8.50D-05  0.00D+00 EMaxC= 1.00D-01 BMatC= 3.48D-07 BMatP= 1.26D-06
 IDIUse=1 WtCom= 1.00D+00 WtEn= 0.00D+00
 Coeff-Com: -0.214D-03 0.289D-02 0.794D-02 0.559D-02-0.708D-01-0.367D-01
 Coeff-Com:  0.639D+00-0.165D+01 0.211D+01
 Coeff:     -0.214D-03 0.289D-02 0.794D-02 0.559D-02-0.708D-01-0.367D-01
 Coeff:      0.639D+00-0.165D+01 0.211D+01
 Gap=     0.498 Goal=   None    Shift=    0.000
 Gap=     0.472 Goal=   None    Shift=    0.000
 RMSDP=1.79D-05 MaxDP=2.67D-04 DE=-3.10D-06 OVMax= 2.06D-03

 Cycle  10  Pass 1  IDiag  1:
 E= -115.542349591395     Delta-E=       -0.000001152692 Rises=F Damp=F
 DIIS: error= 3.51D-05 at cycle  10 NSaved=  10.
 NSaved=10 IEnMin=10 EnMin= -115.542349591395     IErMin=10 ErrMin= 3.51D-05
 ErrMax= 3.51D-05  0.00D+00 EMaxC= 1.00D-01 BMatC= 9.60D-08 BMatP= 3.48D-07
 IDIUse=1 WtCom= 1.00D+00 WtEn= 0.00D+00
 Coeff-Com:  0.134D-03-0.223D-02-0.716D-02 0.108D-01 0.302D-01-0.284D-01
 Coeff-Com: -0.244D+00 0.102D+01-0.203D+01 0.226D+01
 Coeff:      0.134D-03-0.223D-02-0.716D-02 0.108D-01 0.302D-01-0.284D-01
 Coeff:     -0.244D+00 0.102D+01-0.203D+01 0.226D+01
 Gap=     0.498 Goal=   None    Shift=    0.000
 Gap=     0.472 Goal=   None    Shift=    0.000
 RMSDP=9.84D-06 MaxDP=1.29D-04 DE=-1.15D-06 OVMax= 1.25D-03

 Cycle  11  Pass 1  IDiag  1:
 E= -115.542349900547     Delta-E=       -0.000000309151 Rises=F Damp=F
 DIIS: error= 9.39D-06 at cycle  11 NSaved=  11.
 NSaved=11 IEnMin=11 EnMin= -115.542349900547     IErMin=11 ErrMin= 9.39D-06
 ErrMax= 9.39D-06  0.00D+00 EMaxC= 1.00D-01 BMatC= 1.66D-08 BMatP= 9.60D-08
 IDIUse=1 WtCom= 1.00D+00 WtEn= 0.00D+00
 Coeff-Com: -0.455D-04 0.861D-03 0.326D-02-0.914D-02-0.393D-02 0.339D-01
 Coeff-Com: -0.327D-02-0.260D+00 0.880D+00-0.167D+01 0.202D+01
 Coeff:     -0.455D-04 0.861D-03 0.326D-02-0.914D-02-0.393D-02 0.339D-01
 Coeff:     -0.327D-02-0.260D+00 0.880D+00-0.167D+01 0.202D+01
 Gap=     0.498 Goal=   None    Shift=    0.000
 Gap=     0.472 Goal=   None    Shift=    0.000
 RMSDP=4.40D-06 MaxDP=8.21D-05 DE=-3.09D-07 OVMax= 4.45D-04

 Cycle  12  Pass 1  IDiag  1:
 E= -115.542349939543     Delta-E=       -0.000000038996 Rises=F Damp=F
 DIIS: error= 1.70D-06 at cycle  12 NSaved=  12.
 NSaved=12 IEnMin=12 EnMin= -115.542349939543     IErMin=12 ErrMin= 1.70D-06
 ErrMax= 1.70D-06  0.00D+00 EMaxC= 1.00D-01 BMatC= 8.23D-10 BMatP= 1.66D-08
 IDIUse=1 WtCom= 1.00D+00 WtEn= 0.00D+00
 Coeff-Com:  0.645D-05-0.123D-03-0.568D-03 0.230D-02-0.184D-02-0.780D-02
 Coeff-Com:  0.170D-01 0.163D-01-0.150D+00 0.411D+00-0.717D+00 0.143D+01
 Coeff:      0.645D-05-0.123D-03-0.568D-03 0.230D-02-0.184D-02-0.780D-02
 Coeff:      0.170D-01 0.163D-01-0.150D+00 0.411D+00-0.717D+00 0.143D+01
 Gap=     0.498 Goal=   None    Shift=    0.000
 Gap=     0.472 Goal=   None    Shift=    0.000
 RMSDP=7.02D-07 MaxDP=2.05D-05 DE=-3.90D-08 OVMax= 2.35D-05

 Cycle  13  Pass 1  IDiag  1:
 E= -115.542349940479     Delta-E=       -0.000000000936 Rises=F Damp=F
 DIIS: error= 8.42D-07 at cycle  13 NSaved=  13.
 NSaved=13 IEnMin=13 EnMin= -115.542349940479     IErMin=13 ErrMin= 8.42D-07
 ErrMax= 8.42D-07  0.00D+00 EMaxC= 1.00D-01 BMatC= 1.18D-10 BMatP= 8.23D-10
 IDIUse=1 WtCom= 1.00D+00 WtEn= 0.00D+00
 Coeff-Com:  0.143D-05-0.336D-04-0.549D-04-0.231D-03 0.168D-02-0.120D-03
 Coeff-Com: -0.810D-02 0.218D-01-0.206D-01-0.296D-01 0.155D+00-0.717D+00
 Coeff-Com:  0.160D+01
 Coeff:      0.143D-05-0.336D-04-0.549D-04-0.231D-03 0.168D-02-0.120D-03
 Coeff:     -0.810D-02 0.218D-01-0.206D-01-0.296D-01 0.155D+00-0.717D+00
 Coeff:      0.160D+01
 Gap=     0.498 Goal=   None    Shift=    0.000
 Gap=     0.472 Goal=   None    Shift=    0.000
 RMSDP=3.09D-07 MaxDP=9.08D-06 DE=-9.36D-10 OVMax= 1.77D-05

 Cycle  14  Pass 1  IDiag  1:
 E= -115.542349940648     Delta-E=       -0.000000000169 Rises=F Damp=F
 DIIS: error= 3.58D-07 at cycle  14 NSaved=  14.
 NSaved=14 IEnMin=14 EnMin= -115.542349940648     IErMin=14 ErrMin= 3.58D-07
 ErrMax= 3.58D-07  0.00D+00 EMaxC= 1.00D-01 BMatC= 1.98D-11 BMatP= 1.18D-10
 IDIUse=1 WtCom= 1.00D+00 WtEn= 0.00D+00
 Coeff-Com: -0.169D-05 0.383D-04 0.107D-03-0.145D-03-0.926D-03 0.977D-03
 Coeff-Com:  0.366D-02-0.169D-01 0.314D-01-0.272D-01-0.274D-01 0.372D+00
 Coeff-Com: -0.126D+01 0.192D+01
 Coeff:     -0.169D-05 0.383D-04 0.107D-03-0.145D-03-0.926D-03 0.977D-03
 Coeff:      0.366D-02-0.169D-01 0.314D-01-0.272D-01-0.274D-01 0.372D+00
 Coeff:     -0.126D+01 0.192D+01
 Gap=     0.498 Goal=   None    Shift=    0.000
 Gap=     0.472 Goal=   None    Shift=    0.000
 RMSDP=1.46D-07 MaxDP=3.93D-06 DE=-1.69D-10 OVMax= 6.31D-06

 Cycle  15  Pass 1  IDiag  1:
 E= -115.542349940677     Delta-E=       -0.000000000029 Rises=F Damp=F
 DIIS: error= 1.14D-07 at cycle  15 NSaved=  15.
 NSaved=15 IEnMin=15 EnMin= -115.542349940677     IErMin=15 ErrMin= 1.14D-07
 ErrMax= 1.14D-07  0.00D+00 EMaxC= 1.00D-01 BMatC= 1.85D-12 BMatP= 1.98D-11
 IDIUse=1 WtCom= 1.00D+00 WtEn= 0.00D+00
 Coeff-Com:  0.795D-06-0.182D-04-0.553D-04 0.103D-03 0.366D-03-0.564D-03
 Coeff-Com: -0.125D-02 0.761D-02-0.163D-01 0.197D-01-0.204D-02-0.136D+00
 Coeff-Com:  0.563D+00-0.118D+01 0.174D+01
 Coeff:      0.795D-06-0.182D-04-0.553D-04 0.103D-03 0.366D-03-0.564D-03
 Coeff:     -0.125D-02 0.761D-02-0.163D-01 0.197D-01-0.204D-02-0.136D+00
 Coeff:      0.563D+00-0.118D+01 0.174D+01
 Gap=     0.498 Goal=   None    Shift=    0.000
 Gap=     0.472 Goal=   None    Shift=    0.000
 RMSDP=3.71D-08 MaxDP=8.40D-07 DE=-2.92D-11 OVMax= 1.98D-06

 Cycle  16  Pass 1  IDiag  1:
 E= -115.542349940680     Delta-E=       -0.000000000003 Rises=F Damp=F
 DIIS: error= 2.85D-08 at cycle  16 NSaved=  16.
 NSaved=16 IEnMin=16 EnMin= -115.542349940680     IErMin=16 ErrMin= 2.85D-08
 ErrMax= 2.85D-08  0.00D+00 EMaxC= 1.00D-01 BMatC= 9.02D-14 BMatP= 1.85D-12
 IDIUse=1 WtCom= 1.00D+00 WtEn= 0.00D+00
 Coeff-Com: -0.231D-06 0.524D-05 0.165D-04-0.353D-04-0.945D-04 0.165D-03
 Coeff-Com:  0.342D-03-0.217D-02 0.472D-02-0.603D-02 0.158D-02 0.367D-01
 Coeff-Com: -0.164D+00 0.389D+00-0.763D+00 0.150D+01
 Coeff:     -0.231D-06 0.524D-05 0.165D-04-0.353D-04-0.945D-04 0.165D-03
 Coeff:      0.342D-03-0.217D-02 0.472D-02-0.603D-02 0.158D-02 0.367D-01
 Coeff:     -0.164D+00 0.389D+00-0.763D+00 0.150D+01
 Gap=     0.498 Goal=   None    Shift=    0.000
 Gap=     0.472 Goal=   None    Shift=    0.000
 RMSDP=7.10D-09 MaxDP=1.46D-07 DE=-2.79D-12 OVMax= 2.47D-07

 SCF Done:  E(UHF) =  -115.542349941     A.U. after   16 cycles
            NFock= 16  Conv=0.71D-08     -V/T= 2.0010
 <Sx>= 0.0000 <Sy>= 0.0000 <Sz>= 0.5000 <S**2>= 0.7675 S= 0.5087
 <L.S>= 0.000000000000E+00
 KE= 1.154243734762D+02 PE=-3.903512098104D+02 EE= 9.551758982907D+01
 Annihilation of the first spin contaminant:
 S**2 before annihilation     0.7675,   after     0.7502
 Leave Link  502 at Tue Oct 10 11:44:05 2017, MaxMem=    33554432 cpu:        46.2
 (Enter /usr/local/gaussian/2009-E.01/g09/l801.exe)
 Windowed orbitals will be sorted by symmetry type.
 ExpMin= 3.60D-02 ExpMax= 4.56D+03 ExpMxC= 6.82D+02 IAcc=3 IRadAn=         5 AccDes= 0.00D+00
 HarFok:  IExCor=  205 AccDes= 0.00D+00 IRadAn=         5 IDoV=-2 UseB2=F ITyADJ=14
 ICtDFT= 12500011 ScaDFX=  1.000000  1.000000  1.000000  1.000000
 Largest valence mixing into a core orbital is  1.16D-04
 Largest core mixing into a valence orbital is  3.15D-05
 Largest valence mixing into a core orbital is  1.37D-04
 Largest core mixing into a valence orbital is  3.72D-05
 Range of M.O.s used for correlation:     4    94
 NBasis=    94 NAE=    11 NBE=    10 NFC=     3 NFV=     0
 NROrb=     91 NOA=     8 NOB=     7 NVA=    83 NVB=    84

 **** Warning!!: The largest alpha MO coefficient is  0.53457256D+02


 **** Warning!!: The largest beta MO coefficient is  0.56313507D+02

 Leave Link  801 at Tue Oct 10 11:44:05 2017, MaxMem=    33554432 cpu:         1.3
 (Enter /usr/local/gaussian/2009-E.01/g09/l804.exe)
 Open-shell transformation, MDV=    33554432 ITran=4 ISComp=2.
 Semi-Direct transformation.
 ModeAB=           4 MOrb=             8 LenV=      33193646
 LASXX=      1407478 LTotXX=     1407478 LenRXX=     2872670
 LTotAB=     1465192 MaxLAS=     1937936 LenRXY=           0
 NonZer=     4280148 LenScr=     7132160 LnRSAI=     1937936
 LnScr1=     3632640 LExtra=           0 Total=     15575406
 MaxDsk=          -1 SrtSym=           T ITran=            4
 DoSDTr:  NPSUse=  8
 JobTyp=1 Pass  1:  I=   1 to   8.
 (rs|ai) integrals will be sorted in core.
 Complete sort for first half transformation.
 First half transformation complete.
 Complete sort for second half transformation.
 Second half transformation complete.
 ModeAB=           4 MOrb=             7 LenV=      33193646
 LASXX=      1240719 LTotXX=     1240719 LenRXX=     2314491
 LTotAB=     1073772 MaxLAS=     1695694 LenRXY=           0
 NonZer=     3555210 LenScr=     6090752 LnRSAI=     1695694
 LnScr1=     3176960 LExtra=           0 Total=     13277897
 MaxDsk=          -1 SrtSym=           T ITran=            4
 DoSDTr:  NPSUse=  8
 JobTyp=2 Pass  1:  I=   1 to   7.
 (rs|ai) integrals will be sorted in core.
 Complete sort for first half transformation.
 First half transformation complete.
 Complete sort for second half transformation.
 Second half transformation complete.
 Spin components of T(2) and E(2):
     alpha-alpha T2 =       0.1852856321D-01 E2=     -0.5161077880D-01
     alpha-beta  T2 =       0.9903709161D-01 E2=     -0.2890377856D+00
     beta-beta   T2 =       0.1435215734D-01 E2=     -0.3888715741D-01
 ANorm=    0.1063916262D+01
 E2 =    -0.3795357218D+00 EUMP2 =    -0.11592188566248D+03
 (S**2,0)=  0.76746D+00           (S**2,1)=  0.75588D+00
 E(PUHF)=      -0.11554575158D+03        E(PMP2)=      -0.11592416812D+03
 Leave Link  804 at Tue Oct 10 11:44:06 2017, MaxMem=    33554432 cpu:         9.3
 (Enter /usr/local/gaussian/2009-E.01/g09/l913.exe)
 CIDS:  MDV=    33554432.
 Frozen-core window:  NFC=   3 NFV=   0.
 IFCWin=0 IBDFC=1 NFBD=     0     0 NFCmp=     0     0 NFFFC=     0     0
 Using original routines for 1st iteration, S=T.
 Using DD4UQ or CC4UQ for 2nd and later iterations.
 Keep R2 and R3 ints in memory in symmetry-blocked form, NReq=14971923.
 FoFCou: FMM=F IPFlag=           0 FMFlag=           0 FMFlg1=           0
         NFxFlg=           0 DoJE=F BraDBF=F KetDBF=F FulRan=T
         wScrn=  0.000000 ICntrl=     600 IOpCl=  0 I1Cent=           0 NGrid=           0
         NMat0=    1 NMatS0=   4465 NMatT0=    0 NMatD0=    1 NMtDS0=    0 NMtDT0=    0
 Petite list used in FoFCou.
 CCSD(T)
 =======
 Iterations= 200 Convergence= 0.100D-06
 Iteration Nr.   1
 **********************
 DD1Dir will call FoFMem   1 times, MxPair=       162
 NAB=    56 NAA=    28 NBB=    21.
 E(PMP3)=      -0.11595102074D+03
 MP4(R+Q)=  0.91592310D-02
 Maximum subspace dimension=  5
 Norm of the A-vectors is  4.9221080D-01 conv= 1.00D-05.
 RLE energy=       -0.3991145599
 E3=       -0.27806494D-01        EUMP3=      -0.11594969216D+03
 E4(DQ)=   -0.54081797D-03        UMP4(DQ)=   -0.11595023297D+03
 E4(SDQ)=  -0.48301055D-02        UMP4(SDQ)=  -0.11595452226D+03
 VARIATIONAL ENERGIES WITH THE FIRST-ORDER WAVEFUNCTION:
 DE(Corr)= -0.39815411     E(Corr)=     -115.94050405    
 NORM(A)=   0.10734934D+01
 Iteration Nr.   2
 **********************
 DD1Dir will call FoFMem   1 times, MxPair=       162
 NAB=    56 NAA=    28 NBB=    21.
 Norm of the A-vectors is  1.8455060D-01 conv= 1.00D-05.
 RLE energy=       -0.4120253952
 DE(Corr)= -0.40957522     E(CORR)=     -115.95192516     Delta=-1.14D-02
 NORM(A)=   0.10808478D+01
 Iteration Nr.   3
 **********************
 DD1Dir will call FoFMem   1 times, MxPair=       162
 NAB=    56 NAA=    28 NBB=    21.
 Norm of the A-vectors is  5.4669873D-02 conv= 1.00D-05.
 RLE energy=       -0.4130372913
 DE(Corr)= -0.41174009     E(CORR)=     -115.95409003     Delta=-2.16D-03
 NORM(A)=   0.10840983D+01
 Iteration Nr.   4
 **********************
 DD1Dir will call FoFMem   1 times, MxPair=       162
 NAB=    56 NAA=    28 NBB=    21.
 Norm of the A-vectors is  3.1127346D-02 conv= 1.00D-05.
 RLE energy=       -0.4135555479
 DE(Corr)= -0.41315259     E(CORR)=     -115.95550253     Delta=-1.41D-03
 NORM(A)=   0.10865278D+01
 Iteration Nr.   5
 **********************
 DD1Dir will call FoFMem   1 times, MxPair=       162
 NAB=    56 NAA=    28 NBB=    21.
 Norm of the A-vectors is  1.4513539D-02 conv= 1.00D-05.
 RLE energy=       -0.4136774762
 DE(Corr)= -0.41352516     E(CORR)=     -115.95587511     Delta=-3.73D-04
 NORM(A)=   0.10879754D+01
 Iteration Nr.   6
 **********************
 DD1Dir will call FoFMem   1 times, MxPair=       162
 NAB=    56 NAA=    28 NBB=    21.
 Norm of the A-vectors is  7.8083115D-03 conv= 1.00D-05.
 RLE energy=       -0.4135624379
 DE(Corr)= -0.41363462     E(CORR)=     -115.95598457     Delta=-1.09D-04
 NORM(A)=   0.10883787D+01
 Iteration Nr.   7
 **********************
 DD1Dir will call FoFMem   1 times, MxPair=       162
 NAB=    56 NAA=    28 NBB=    21.
 Norm of the A-vectors is  4.8710108D-03 conv= 1.00D-05.
 RLE energy=       -0.4137026509
 DE(Corr)= -0.41364425     E(CORR)=     -115.95599419     Delta=-9.62D-06
 NORM(A)=   0.10886915D+01
 Iteration Nr.   8
 **********************
 DD1Dir will call FoFMem   1 times, MxPair=       162
 NAB=    56 NAA=    28 NBB=    21.
 Norm of the A-vectors is  2.9932917D-03 conv= 1.00D-05.
 RLE energy=       -0.4136504847
 DE(Corr)= -0.41365273     E(CORR)=     -115.95600267     Delta=-8.48D-06
 NORM(A)=   0.10887753D+01
 Iteration Nr.   9
 **********************
 DD1Dir will call FoFMem   1 times, MxPair=       162
 NAB=    56 NAA=    28 NBB=    21.
 Norm of the A-vectors is  1.4426217D-03 conv= 1.00D-05.
 RLE energy=       -0.4136766727
 DE(Corr)= -0.41366809     E(CORR)=     -115.95601803     Delta=-1.54D-05
 NORM(A)=   0.10887975D+01
 Iteration Nr.  10
 **********************
 DD1Dir will call FoFMem   1 times, MxPair=       162
 NAB=    56 NAA=    28 NBB=    21.
 Norm of the A-vectors is  5.6403559D-04 conv= 1.00D-05.
 RLE energy=       -0.4136639201
 DE(Corr)= -0.41366509     E(CORR)=     -115.95601503     Delta= 3.00D-06
 NORM(A)=   0.10887967D+01
 Iteration Nr.  11
 **********************
 DD1Dir will call FoFMem   1 times, MxPair=       162
 NAB=    56 NAA=    28 NBB=    21.
 Norm of the A-vectors is  2.1969561D-04 conv= 1.00D-05.
 RLE energy=       -0.4136657108
 DE(Corr)= -0.41366613     E(CORR)=     -115.95601607     Delta=-1.03D-06
 NORM(A)=   0.10887957D+01
 Iteration Nr.  12
 **********************
 DD1Dir will call FoFMem   1 times, MxPair=       162
 NAB=    56 NAA=    28 NBB=    21.
 Norm of the A-vectors is  8.2590912D-05 conv= 1.00D-05.
 RLE energy=       -0.4136650473
 DE(Corr)= -0.41366498     E(CORR)=     -115.95601492     Delta= 1.15D-06
 NORM(A)=   0.10887958D+01
 Iteration Nr.  13
 **********************
 DD1Dir will call FoFMem   1 times, MxPair=       162
 NAB=    56 NAA=    28 NBB=    21.
 Norm of the A-vectors is  3.2847209D-05 conv= 1.00D-05.
 RLE energy=       -0.4136648103
 DE(Corr)= -0.41366493     E(CORR)=     -115.95601487     Delta= 4.98D-08
 NORM(A)=   0.10887961D+01
 Iteration Nr.  14
 **********************
 DD1Dir will call FoFMem   1 times, MxPair=       162
 NAB=    56 NAA=    28 NBB=    21.
 Norm of the A-vectors is  1.5557042D-05 conv= 1.00D-05.
 RLE energy=       -0.4136650067
 DE(Corr)= -0.41366493     E(CORR)=     -115.95601487     Delta= 2.07D-09
 NORM(A)=   0.10887966D+01
 Iteration Nr.  15
 **********************
 DD1Dir will call FoFMem   1 times, MxPair=       162
 NAB=    56 NAA=    28 NBB=    21.
 Norm of the A-vectors is  7.3793008D-06 conv= 1.00D-05.
 RLE energy=       -0.4136649623
 DE(Corr)= -0.41366496     E(CORR)=     -115.95601490     Delta=-2.52D-08
 NORM(A)=   0.10887971D+01
 CI/CC converged in   15 iterations to DelEn=-2.52D-08 Conv= 1.00D-07 ErrA1= 7.38D-06 Conv= 1.00D-05
 Largest amplitude= 9.23D-02
 Time for triples=      136.44 seconds.
 T4(CCSD)= -0.18241240D-01
 T5(CCSD)=  0.93243592D-03
 CCSD(T)= -0.11597332370D+03

 S**2, projected HF & approx projected MPn energies after annihilation of
 unwanted spin states (see manual for definitions):

 spins       (S**2,0) (S**2,1)    PUHF        PMP2        PMP3        PMP4
 annihilated
 s+1         0.74987  0.75006 -115.545752 -115.924168 -115.951021
 s+1,s+2     0.75000  0.75000 -115.545730 -115.924149 -115.951004
 s+1 to s+3  0.75000  0.75000 -115.545730 -115.924149 -115.951004
 s+1 to s+4  0.75000  0.75000 -115.545730 -115.924149 -115.951004
 s+1 to s+5  0.75000  0.75000 -115.545730
 s+1 to s+6  0.75000  0.75000 -115.545730

 Discarding MO integrals.
 Leave Link  913 at Tue Oct 10 11:45:22 2017, MaxMem=    33554432 cpu:       565.1
 (Enter /usr/local/gaussian/2009-E.01/g09/l601.exe)
 Copying SCF densities to generalized density rwf, IOpCl= 1 IROHF=0.

 **********************************************************************

            Population analysis using the SCF density.

 **********************************************************************

 Orbital symmetries:
 Alpha Orbitals:
       Occupied  (A) (B) (A) (A) (A) (B) (A) (B) (A) (B) (B)
       Virtual   (A) (A) (B) (A) (B) (A) (B) (A) (B) (B) (A) (A)
                 (B) (A) (B) (A) (B) (B) (A) (B) (A) (B) (A) (B)
                 (A) (A) (B) (B) (B) (A) (A) (A) (B) (B) (B) (A)
                 (A) (A) (B) (B) (A) (B) (A) (B) (A) (B) (A) (B)
                 (A) (A) (B) (A) (B) (B) (A) (B) (B) (A) (B) (A)
                 (A) (A) (B) (A) (B) (A) (B) (B) (A) (A) (B) (A)
                 (B) (A) (B) (A) (B) (B) (B) (A) (A) (A) (B)
 Beta  Orbitals:
       Occupied  (A) (B) (A) (A) (A) (B) (A) (B) (A) (B)
       Virtual   (B) (A) (A) (B) (A) (B) (A) (B) (A) (B) (B) (A)
                 (A) (B) (A) (B) (A) (B) (B) (A) (B) (A) (B) (A)
                 (B) (A) (A) (B) (B) (A) (B) (A) (A) (B) (B) (B)
                 (A) (A) (A) (B) (B) (A) (B) (A) (B) (A) (B) (A)
                 (B) (A) (A) (B) (A) (B) (B) (A) (B) (B) (A) (B)
                 (A) (A) (A) (B) (A) (B) (A) (B) (B) (A) (A) (B)
                 (A) (B) (A) (B) (A) (B) (B) (B) (A) (A) (A) (B)
 The electronic state is 2-B.
 Alpha  occ. eigenvalues --  -11.57633 -11.57444 -11.52278  -1.49311  -1.11308
 Alpha  occ. eigenvalues --   -1.06854  -0.97120  -0.88740  -0.79703  -0.73797
 Alpha  occ. eigenvalues --   -0.65332
 Alpha virt. eigenvalues --   -0.15504  -0.09676  -0.08387  -0.07926  -0.06752
 Alpha virt. eigenvalues --   -0.03108  -0.02794  -0.01984  -0.01351   0.00647
 Alpha virt. eigenvalues --    0.01488   0.03181   0.03534   0.03814   0.05585
 Alpha virt. eigenvalues --    0.06244   0.07430   0.09327   0.10205   0.13531
 Alpha virt. eigenvalues --    0.15459   0.15957   0.20053   0.27936   0.34954
 Alpha virt. eigenvalues --    0.39220   0.39826   0.46513   0.48389   0.49627
 Alpha virt. eigenvalues --    0.52527   0.54409   0.59152   0.60945   0.62713
 Alpha virt. eigenvalues --    0.66085   0.75957   0.78169   0.80900   0.82964
 Alpha virt. eigenvalues --    1.06654   1.08731   1.18236   1.24242   1.27923
 Alpha virt. eigenvalues --    1.40593   1.48501   1.54759   1.56033   1.62949
 Alpha virt. eigenvalues --    1.68574   1.70972   1.73172   1.79257   1.83087
 Alpha virt. eigenvalues --    1.95116   2.04211   2.09347   2.12281   2.12593
 Alpha virt. eigenvalues --    2.28209   2.38140   2.51799   2.52403   2.60543
 Alpha virt. eigenvalues --    2.65035   2.70077   2.71126   2.76128   2.89848
 Alpha virt. eigenvalues --    2.96134   3.00401   3.02349   3.13605   3.20471
 Alpha virt. eigenvalues --    3.56914   3.71397   3.85889   4.03805   4.31318
 Alpha virt. eigenvalues --   24.54938  24.81686  25.27287
  Beta  occ. eigenvalues --  -11.56753 -11.56591 -11.52276  -1.44899  -1.07474
  Beta  occ. eigenvalues --   -1.04217  -0.95671  -0.82194  -0.77342  -0.72231
  Beta virt. eigenvalues --   -0.25039  -0.09814  -0.09407  -0.08125  -0.07775
  Beta virt. eigenvalues --   -0.06536  -0.02901  -0.02699  -0.01778  -0.00424
  Beta virt. eigenvalues --    0.01041   0.03166   0.03513   0.04020   0.04556
  Beta virt. eigenvalues --    0.05731   0.06544   0.07546   0.10241   0.10934
  Beta virt. eigenvalues --    0.15128   0.16074   0.16840   0.20857   0.28762
  Beta virt. eigenvalues --    0.35881   0.40420   0.41748   0.48044   0.50702
  Beta virt. eigenvalues --    0.52176   0.54509   0.57728   0.60201   0.61998
  Beta virt. eigenvalues --    0.63110   0.66720   0.76696   0.79359   0.82284
  Beta virt. eigenvalues --    0.83882   1.08520   1.11753   1.19764   1.26975
  Beta virt. eigenvalues --    1.28590   1.43184   1.49603   1.56267   1.58129
  Beta virt. eigenvalues --    1.64478   1.69450   1.73131   1.73845   1.81055
  Beta virt. eigenvalues --    1.83793   1.95934   2.06149   2.10606   2.13099
  Beta virt. eigenvalues --    2.13540   2.29413   2.39641   2.52444   2.53507
  Beta virt. eigenvalues --    2.61389   2.65595   2.70871   2.72993   2.77125
  Beta virt. eigenvalues --    2.90628   2.96909   3.02348   3.04391   3.15026
  Beta virt. eigenvalues --    3.21285   3.57907   3.72403   3.86374   4.04728
  Beta virt. eigenvalues --    4.31899  24.55429  24.81744  25.27855
          Condensed to atoms (all electrons):
               1          2          3          4          5          6
     1  C    4.994805   0.400908   0.400908   0.278683   0.278683  -0.011429
     2  H    0.400908   0.405589  -0.013250  -0.034520   0.001178   0.000143
     3  H    0.400908  -0.013250   0.405589   0.001178  -0.034520   0.002110
     4  C    0.278683  -0.034520   0.001178   4.974467   0.290228   0.360050
     5  C    0.278683   0.001178  -0.034520   0.290228   4.974467   0.002149
     6  H   -0.011429   0.000143   0.002110   0.360050   0.002149   0.349335
     7  H   -0.011429   0.002110   0.000143   0.002149   0.360050  -0.002317
               7
     1  C   -0.011429
     2  H    0.002110
     3  H    0.000143
     4  C    0.002149
     5  C    0.360050
     6  H   -0.002317
     7  H    0.349335
          Atomic-Atomic Spin Densities.
               1          2          3          4          5          6
     1  C    0.032201   0.042281   0.042281  -0.081107  -0.081107  -0.002356
     2  H    0.042281   0.106804  -0.016645  -0.008950  -0.015131   0.000660
     3  H    0.042281  -0.016645   0.106804  -0.015131  -0.008950   0.000702
     4  C   -0.081107  -0.008950  -0.015131   0.436256   0.107503   0.009403
     5  C   -0.081107  -0.015131  -0.008950   0.107503   0.436256  -0.017139
     6  H   -0.002356   0.000660   0.000702   0.009403  -0.017139  -0.003403
     7  H   -0.002356   0.000702   0.000660  -0.017139   0.009403  -0.003342
               7
     1  C   -0.002356
     2  H    0.000702
     3  H    0.000660
     4  C   -0.017139
     5  C    0.009403
     6  H   -0.003342
     7  H   -0.003403
 Mulliken charges and spin densities:
               1          2
     1  C   -0.331127  -0.050164
     2  H    0.237841   0.109721
     3  H    0.237841   0.109721
     4  C    0.127764   0.430834
     5  C    0.127764   0.430834
     6  H    0.299958  -0.015474
     7  H    0.299958  -0.015474
 Sum of Mulliken charges =   1.00000   1.00000
 Mulliken charges and spin densities with hydrogens summed into heavy atoms:
               1          2
     1  C    0.144556   0.169278
     4  C    0.427722   0.415361
     5  C    0.427722   0.415361
 Electronic spatial extent (au):  <R**2>=            118.5526
 Charge=              1.0000 electrons
 Dipole moment (field-independent basis, Debye):
    X=              0.0000    Y=             -0.0000    Z=             -0.5125  Tot=              0.5125
 Quadrupole moment (field-independent basis, Debye-Ang):
   XX=            -15.4070   YY=            -10.5006   ZZ=            -11.4255
   XY=              1.3069   XZ=              0.0000   YZ=              0.0000
 Traceless Quadrupole moment (field-independent basis, Debye-Ang):
   XX=             -2.9626   YY=              1.9437   ZZ=              1.0189
   XY=              1.3069   XZ=              0.0000   YZ=              0.0000
 Octapole moment (field-independent basis, Debye-Ang**2):
  XXX=              0.0000  YYY=             -0.0000  ZZZ=              3.9272  XYY=             -0.0000
  XXY=             -0.0000  XXZ=              2.0387  XZZ=              0.0000  YZZ=             -0.0000
  YYZ=             -7.5868  XYZ=              0.3673
 Hexadecapole moment (field-independent basis, Debye-Ang**3):
 XXXX=            -20.1699 YYYY=            -39.1016 ZZZZ=            -62.3290 XXXY=             -1.0546
 XXXZ=              0.0000 YYYX=              0.7688 YYYZ=              0.0000 ZZZX=             -0.0000
 ZZZY=             -0.0000 XXYY=            -12.8571 XXZZ=            -11.8262 YYZZ=            -14.4528
 XXYZ=              0.0000 YYXZ=              0.0000 ZZXY=              1.7220
 N-N= 6.386689656441D+01 E-N=-3.903512098503D+02  KE= 1.154243734762D+02
 Symmetry A    KE= 7.505601854201D+01
 Symmetry B    KE= 4.036835493420D+01
 Leave Link  601 at Tue Oct 10 11:45:22 2017, MaxMem=    33554432 cpu:         0.2
 (Enter /usr/local/gaussian/2009-E.01/g09/l9999.exe)
 1\1\ WCSS.PL-BEM-WN1424\SP\UCCSD(T)-FC\6-311++G(d,p)\C3H4(1+,2)\ROOT\1
 0-Oct-2017\0\\#p ccsd(t,maxcyc=200)/6-311++G(d,p)\\ccsd(t) iener\\1,2\
 C,0,0.826638998,0.000361316,0.000044545\H,0,1.463018858,-0.380095763,0
 .819195011\H,0,1.463279011,0.381440872,-0.818614277\C,0,-0.494395544,0
 .658881497,0.076549966\C,0,-0.493691423,-0.659450432,-0.077480978\H,0,
 -0.984372932,1.621783736,0.004638993\H,0,-0.982782302,-1.622831412,-0.
 005948124\\Version=ES64L-G09RevE.01\State=2-B\HF=-115.5423499\MP2=-115
 .9218857\MP3=-115.9496922\MP4D=-115.9593922\MP4DQ=-115.950233\PUHF=-11
 5.5457516\PMP2-0=-115.9241681\PMP3-0=-115.9510207\MP4SDQ=-115.9545223\
 CCSD=-115.9560149\CCSD(T)=-115.9733237\S2=0.767461\S2-1=0.755883\S2A=0
 .750224\RMSD=7.097e-09\PG=C02 [C2(C1),X(C2H4)]\\@


 I SUPPOSE A BABY LLAMA HAS A MMAMA AND A PPOPA.
     -- RICHARD AMOUR
 Job cpu time:       0 days  0 hours 10 minutes 37.3 seconds.
 File lengths (MBytes):  RWF=    135 Int=      0 D2E=      0 Chk=      2 Scr=      1
 Normal termination of Gaussian 09 at Tue Oct 10 11:45:23 2017.
