 Entering Gaussian System, Link 0=/usr/local/gaussian/2009-E.01/g09/g09
 Initial command:
 /usr/local/gaussian/2009-E.01/g09/l1.exe "/lustre/scratch/eerd/4986703.achilles/Gau-34006.inp" -scrdir="/lustre/scratch/eerd/4986703.achilles/"
 Entering Link 1 = /usr/local/gaussian/2009-E.01/g09/l1.exe PID=     34008.
  
 Copyright (c) 1988,1990,1992,1993,1995,1998,2003,2009,2015,
            Gaussian, Inc.  All Rights Reserved.
  
 This is part of the Gaussian(R) 09 program.  It is based on
 the Gaussian(R) 03 system (copyright 2003, Gaussian, Inc.),
 the Gaussian(R) 98 system (copyright 1998, Gaussian, Inc.),
 the Gaussian(R) 94 system (copyright 1995, Gaussian, Inc.),
 the Gaussian 92(TM) system (copyright 1992, Gaussian, Inc.),
 the Gaussian 90(TM) system (copyright 1990, Gaussian, Inc.),
 the Gaussian 88(TM) system (copyright 1988, Gaussian, Inc.),
 the Gaussian 86(TM) system (copyright 1986, Carnegie Mellon
 University), and the Gaussian 82(TM) system (copyright 1983,
 Carnegie Mellon University). Gaussian is a federally registered
 trademark of Gaussian, Inc.
  
 This software contains proprietary and confidential information,
 including trade secrets, belonging to Gaussian, Inc.
  
 This software is provided under written license and may be
 used, copied, transmitted, or stored only in accord with that
 written license.
  
 The following legend is applicable only to US Government
 contracts under FAR:
  
                    RESTRICTED RIGHTS LEGEND
  
 Use, reproduction and disclosure by the US Government is
 subject to restrictions as set forth in subparagraphs (a)
 and (c) of the Commercial Computer Software - Restricted
 Rights clause in FAR 52.227-19.
  
 Gaussian, Inc.
 340 Quinnipiac St., Bldg. 40, Wallingford CT 06492
  
  
 ---------------------------------------------------------------
 Warning -- This program may not be used in any manner that
 competes with the business of Gaussian, Inc. or will provide
 assistance to any competitor of Gaussian, Inc.  The licensee
 of this program is prohibited from giving any competitor of
 Gaussian, Inc. access to this program.  By using this program,
 the user acknowledges that Gaussian, Inc. is engaged in the
 business of creating and licensing software in the field of
 computational chemistry and represents and warrants to the
 licensee that it is not a competitor of Gaussian, Inc. and that
 it will not use this program in any manner prohibited above.
 ---------------------------------------------------------------
  

 Cite this work as:
 Gaussian 09, Revision E.01,
 M. J. Frisch, G. W. Trucks, H. B. Schlegel, G. E. Scuseria, 
 M. A. Robb, J. R. Cheeseman, G. Scalmani, V. Barone, B. Mennucci, 
 G. A. Petersson, H. Nakatsuji, M. Caricato, X. Li, H. P. Hratchian, 
 A. F. Izmaylov, J. Bloino, G. Zheng, J. L. Sonnenberg, M. Hada, 
 M. Ehara, K. Toyota, R. Fukuda, J. Hasegawa, M. Ishida, T. Nakajima, 
 Y. Honda, O. Kitao, H. Nakai, T. Vreven, J. A. Montgomery, Jr., 
 J. E. Peralta, F. Ogliaro, M. Bearpark, J. J. Heyd, E. Brothers, 
 K. N. Kudin, V. N. Staroverov, T. Keith, R. Kobayashi, J. Normand, 
 K. Raghavachari, A. Rendell, J. C. Burant, S. S. Iyengar, J. Tomasi, 
 M. Cossi, N. Rega, J. M. Millam, M. Klene, J. E. Knox, J. B. Cross, 
 V. Bakken, C. Adamo, J. Jaramillo, R. Gomperts, R. E. Stratmann, 
 O. Yazyev, A. J. Austin, R. Cammi, C. Pomelli, J. W. Ochterski, 
 R. L. Martin, K. Morokuma, V. G. Zakrzewski, G. A. Voth, 
 P. Salvador, J. J. Dannenberg, S. Dapprich, A. D. Daniels, 
 O. Farkas, J. B. Foresman, J. V. Ortiz, J. Cioslowski, 
 and D. J. Fox, Gaussian, Inc., Wallingford CT, 2013.
 
 ******************************************
 Gaussian 09:  ES64L-G09RevE.01 30-Nov-2015
                10-Oct-2017 
 ******************************************
 %NProcShared=8
 Will use up to    8 processors via shared memory.
 -----------------------------------
 #p ccsd(t,maxcyc=200)/6-311++G(d,p)
 -----------------------------------
 1/38=1/1;
 2/12=2,17=6,18=5,40=1/2;
 3/5=4,6=6,7=1111,11=9,16=1,25=1,30=1/1,2,3;
 4//1;
 5/5=2,38=5/2;
 8/6=4,9=120000,10=2/1,4;
 9/5=7,6=200,14=2/13;
 6/7=2,8=2,9=2,10=2/1;
 99/5=1,9=1/99;
 Leave Link    1 at Tue Oct 10 11:25:42 2017, MaxMem=           0 cpu:         3.0
 (Enter /usr/local/gaussian/2009-E.01/g09/l101.exe)
 -------------
 ccsd(t) iener
 -------------
 Symbolic Z-matrix:
 Charge =  0 Multiplicity = 1
 C                    -0.47972  -0.10643   0.46263 
 C                     0.77096  -0.33776   0.9527 
 C                    -0.8058    1.26485   0.3966 
 H                    -1.87175   1.39772   0.66085 
 H                    -1.18456  -0.93466   0.35144 
 H                     1.47728   0.48235   1.00838 
 H                     1.05581  -1.29439   1.38216 
 
 NAtoms=      7 NQM=        7 NQMF=       0 NMMI=      0 NMMIF=      0
                NMic=       0 NMicF=      0.
                    Isotopes and Nuclear Properties:
 (Nuclear quadrupole moments (NQMom) in fm**2, nuclear magnetic moments (NMagM)
  in nuclear magnetons)

  Atom         1           2           3           4           5           6           7
 IAtWgt=          12          12          12           1           1           1           1
 AtmWgt=  12.0000000  12.0000000  12.0000000   1.0078250   1.0078250   1.0078250   1.0078250
 NucSpn=           0           0           0           1           1           1           1
 AtZEff=   0.0000000   0.0000000   0.0000000   0.0000000   0.0000000   0.0000000   0.0000000
 NQMom=    0.0000000   0.0000000   0.0000000   0.0000000   0.0000000   0.0000000   0.0000000
 NMagM=    0.0000000   0.0000000   0.0000000   2.7928460   2.7928460   2.7928460   2.7928460
 AtZNuc=   6.0000000   6.0000000   6.0000000   1.0000000   1.0000000   1.0000000   1.0000000
 Leave Link  101 at Tue Oct 10 11:25:42 2017, MaxMem=    33554432 cpu:         0.4
 (Enter /usr/local/gaussian/2009-E.01/g09/l202.exe)
                          Input orientation:                          
 ---------------------------------------------------------------------
 Center     Atomic      Atomic             Coordinates (Angstroms)
 Number     Number       Type             X           Y           Z
 ---------------------------------------------------------------------
      1          6           0       -0.479716   -0.106426    0.462633
      2          6           0        0.770963   -0.337755    0.952702
      3          6           0       -0.805797    1.264850    0.396604
      4          1           0       -1.871752    1.397718    0.660854
      5          1           0       -1.184558   -0.934664    0.351442
      6          1           0        1.477282    0.482350    1.008382
      7          1           0        1.055805   -1.294388    1.382155
 ---------------------------------------------------------------------
                    Distance matrix (angstroms):
                    1          2          3          4          5
     1  C    0.000000
     2  C    1.363040   0.000000
     3  C    1.411059   2.315979   0.000000
     4  H    2.059006   3.175057   1.106229   0.000000
     5  H    1.093226   2.131168   2.232344   2.451118   0.000000
     6  H    2.115264   1.083771   2.489785   3.489227   3.086242
     7  H    2.148162   1.086606   3.314600   4.042066   2.492187
                    6          7
     6  H    0.000000
     7  H    1.863906   0.000000
 Stoichiometry    C3H4
 Framework group  C1[X(C3H4)]
 Deg. of freedom    15
 Full point group                 C1      NOp   1
 Largest Abelian subgroup         C1      NOp   1
 Largest concise Abelian subgroup C1      NOp   1
                         Standard orientation:                         
 ---------------------------------------------------------------------
 Center     Atomic      Atomic             Coordinates (Angstroms)
 Number     Number       Type             X           Y           Z
 ---------------------------------------------------------------------
      1          6           0        0.077073    0.465627   -0.101804
      2          6           0       -1.106550   -0.198942    0.021745
      3          6           0        1.201187   -0.384875   -0.037766
      4          1           0        2.013544    0.127739    0.510910
      5          1           0        0.099801    1.556853   -0.039727
      6          1           0       -1.122839   -1.276354   -0.094345
      7          1           0       -2.020763    0.300896    0.330109
 ---------------------------------------------------------------------
 Rotational constants (GHZ):     53.1817725     12.0068373      9.9914758
 Leave Link  202 at Tue Oct 10 11:25:42 2017, MaxMem=    33554432 cpu:         0.1
 (Enter /usr/local/gaussian/2009-E.01/g09/l301.exe)
 Standard basis: 6-311++G(d,p) (5D, 7F)
 Ernie: Thresh=  0.10000D-02 Tol=  0.10000D-05 Strict=F.
 There are    97 symmetry adapted cartesian basis functions of A   symmetry.
 There are    94 symmetry adapted basis functions of A   symmetry.
    94 basis functions,   144 primitive gaussians,    97 cartesian basis functions
    11 alpha electrons       11 beta electrons
       nuclear repulsion energy        59.1614442662 Hartrees.
 IExCor=    0 DFT=F Ex=HF Corr=None ExCW=0 ScaHFX=  1.000000
 ScaDFX=  1.000000  1.000000  1.000000  1.000000 ScalE2=  1.000000  1.000000
 IRadAn=      0 IRanWt=     -1 IRanGd=            0 ICorTp=0 IEmpDi=  4
 NAtoms=    7 NActive=    7 NUniq=    7 SFac= 1.00D+00 NAtFMM=   60 NAOKFM=F Big=F
 Integral buffers will be    131072 words long.
 Raffenetti 1 integral format.
 Two-electron integral symmetry is turned on.
 Leave Link  301 at Tue Oct 10 11:25:43 2017, MaxMem=    33554432 cpu:         3.6
 (Enter /usr/local/gaussian/2009-E.01/g09/l302.exe)
 NPDir=0 NMtPBC=     1 NCelOv=     1 NCel=       1 NClECP=     1 NCelD=      1
         NCelK=      1 NCelE2=     1 NClLst=     1 CellRange=     0.0.
 One-electron integrals computed using PRISM.
 NBasis=    94 RedAO= T EigKep=  1.09D-04  NBF=    94
 NBsUse=    94 1.00D-06 EigRej= -1.00D+00 NBFU=    94
 Leave Link  302 at Tue Oct 10 11:25:43 2017, MaxMem=    33554432 cpu:         1.1
 (Enter /usr/local/gaussian/2009-E.01/g09/l303.exe)
 DipDrv:  MaxL=1.
 Leave Link  303 at Tue Oct 10 11:25:43 2017, MaxMem=    33554432 cpu:         0.2
 (Enter /usr/local/gaussian/2009-E.01/g09/l401.exe)
 ExpMin= 3.60D-02 ExpMax= 4.56D+03 ExpMxC= 6.82D+02 IAcc=3 IRadAn=         5 AccDes= 0.00D+00
 Harris functional with IExCor=  205 and IRadAn=       5 diagonalized for initial guess.
 HarFok:  IExCor=  205 AccDes= 0.00D+00 IRadAn=         5 IDoV= 1 UseB2=F ITyADJ=14
 ICtDFT=  3500011 ScaDFX=  1.000000  1.000000  1.000000  1.000000
 FoFCou: FMM=F IPFlag=           0 FMFlag=      100000 FMFlg1=           0
         NFxFlg=           0 DoJE=T BraDBF=F KetDBF=T FulRan=T
         wScrn=  0.000000 ICntrl=     500 IOpCl=  0 I1Cent=   200000004 NGrid=           0
         NMat0=    1 NMatS0=      1 NMatT0=    0 NMatD0=    1 NMtDS0=    0 NMtDT0=    0
 Petite list used in FoFCou.
 Harris En= -115.990035787387    
 JPrj=0 DoOrth=F DoCkMO=F.
 Leave Link  401 at Tue Oct 10 11:25:43 2017, MaxMem=    33554432 cpu:         3.3
 (Enter /usr/local/gaussian/2009-E.01/g09/l502.exe)
 Closed shell SCF:
 Using DIIS extrapolation, IDIIS=  1040.
 Integral symmetry usage will be decided dynamically.
 Keep R1 ints in memory in canonical form, NReq=10883255.
 IVT=       48281 IEndB=       48281 NGot=    33554432 MDV=    23535807
 LenX=    23535807 LenY=    23525957
 Requested convergence on RMS density matrix=1.00D-08 within 128 cycles.
 Requested convergence on MAX density matrix=1.00D-06.
 Requested convergence on             energy=1.00D-06.
 No special actions if energy rises.
 FoFCou: FMM=F IPFlag=           0 FMFlag=           0 FMFlg1=           0
         NFxFlg=           0 DoJE=F BraDBF=F KetDBF=F FulRan=T
         wScrn=  0.000000 ICntrl=     600 IOpCl=  0 I1Cent=           0 NGrid=           0
         NMat0=    1 NMatS0=   4465 NMatT0=    0 NMatD0=    1 NMtDS0=    0 NMtDT0=    0
 Symmetry not used in FoFCou.

 Cycle   1  Pass 1  IDiag  1:
 E= -115.664994148716    
 DIIS: error= 3.47D-02 at cycle   1 NSaved=   1.
 NSaved= 1 IEnMin= 1 EnMin= -115.664994148716     IErMin= 1 ErrMin= 3.47D-02
 ErrMax= 3.47D-02  0.00D+00 EMaxC= 1.00D-01 BMatC= 2.38D-01 BMatP= 2.38D-01
 IDIUse=3 WtCom= 6.53D-01 WtEn= 3.47D-01
 Coeff-Com:  0.100D+01
 Coeff-En:   0.100D+01
 Coeff:      0.100D+01
 Gap=     0.417 Goal=   None    Shift=    0.000
 GapD=    0.417 DampG=2.000 DampE=0.500 DampFc=1.0000 IDamp=-1.
 RMSDP=5.70D-03 MaxDP=1.09D-01              OVMax= 1.33D-01

 Cycle   2  Pass 1  IDiag  1:
 E= -115.789303260782     Delta-E=       -0.124309112067 Rises=F Damp=F
 DIIS: error= 1.21D-02 at cycle   2 NSaved=   2.
 NSaved= 2 IEnMin= 2 EnMin= -115.789303260782     IErMin= 2 ErrMin= 1.21D-02
 ErrMax= 1.21D-02  0.00D+00 EMaxC= 1.00D-01 BMatC= 1.72D-02 BMatP= 2.38D-01
 IDIUse=3 WtCom= 8.79D-01 WtEn= 1.21D-01
 Coeff-Com:  0.128D+00 0.872D+00
 Coeff-En:   0.000D+00 0.100D+01
 Coeff:      0.113D+00 0.887D+00
 Gap=     0.395 Goal=   None    Shift=    0.000
 RMSDP=3.15D-03 MaxDP=6.28D-02 DE=-1.24D-01 OVMax= 4.66D-02

 Cycle   3  Pass 1  IDiag  1:
 E= -115.805815329635     Delta-E=       -0.016512068853 Rises=F Damp=F
 DIIS: error= 3.11D-03 at cycle   3 NSaved=   3.
 NSaved= 3 IEnMin= 3 EnMin= -115.805815329635     IErMin= 3 ErrMin= 3.11D-03
 ErrMax= 3.11D-03  0.00D+00 EMaxC= 1.00D-01 BMatC= 1.34D-03 BMatP= 1.72D-02
 IDIUse=3 WtCom= 9.69D-01 WtEn= 3.11D-02
 Coeff-Com: -0.210D-01 0.172D+00 0.849D+00
 Coeff-En:   0.000D+00 0.000D+00 0.100D+01
 Coeff:     -0.203D-01 0.167D+00 0.854D+00
 Gap=     0.377 Goal=   None    Shift=    0.000
 RMSDP=3.58D-04 MaxDP=7.48D-03 DE=-1.65D-02 OVMax= 1.55D-02

 Cycle   4  Pass 1  IDiag  1:
 E= -115.807467290062     Delta-E=       -0.001651960427 Rises=F Damp=F
 DIIS: error= 7.63D-04 at cycle   4 NSaved=   4.
 NSaved= 4 IEnMin= 4 EnMin= -115.807467290062     IErMin= 4 ErrMin= 7.63D-04
 ErrMax= 7.63D-04  0.00D+00 EMaxC= 1.00D-01 BMatC= 5.12D-05 BMatP= 1.34D-03
 IDIUse=3 WtCom= 9.92D-01 WtEn= 7.63D-03
 Coeff-Com: -0.277D-02-0.793D-02 0.311D-01 0.980D+00
 Coeff-En:   0.000D+00 0.000D+00 0.000D+00 0.100D+01
 Coeff:     -0.275D-02-0.787D-02 0.309D-01 0.980D+00
 Gap=     0.376 Goal=   None    Shift=    0.000
 RMSDP=1.65D-04 MaxDP=2.40D-03 DE=-1.65D-03 OVMax= 7.43D-03

 Cycle   5  Pass 1  IDiag  1:
 E= -115.807654515219     Delta-E=       -0.000187225157 Rises=F Damp=F
 DIIS: error= 4.83D-04 at cycle   5 NSaved=   5.
 NSaved= 5 IEnMin= 5 EnMin= -115.807654515219     IErMin= 5 ErrMin= 4.83D-04
 ErrMax= 4.83D-04  0.00D+00 EMaxC= 1.00D-01 BMatC= 1.41D-05 BMatP= 5.12D-05
 IDIUse=3 WtCom= 9.95D-01 WtEn= 4.83D-03
 Coeff-Com:  0.341D-02-0.308D-01-0.154D+00 0.245D-01 0.116D+01
 Coeff-En:   0.000D+00 0.000D+00 0.000D+00 0.000D+00 0.100D+01
 Coeff:      0.340D-02-0.306D-01-0.154D+00 0.243D-01 0.116D+01
 Gap=     0.377 Goal=   None    Shift=    0.000
 RMSDP=1.50D-04 MaxDP=2.61D-03 DE=-1.87D-04 OVMax= 6.52D-03

 Cycle   6  Pass 1  IDiag  1:
 E= -115.807734607321     Delta-E=       -0.000080092102 Rises=F Damp=F
 DIIS: error= 3.00D-04 at cycle   6 NSaved=   6.
 NSaved= 6 IEnMin= 6 EnMin= -115.807734607321     IErMin= 6 ErrMin= 3.00D-04
 ErrMax= 3.00D-04  0.00D+00 EMaxC= 1.00D-01 BMatC= 2.79D-06 BMatP= 1.41D-05
 IDIUse=3 WtCom= 9.97D-01 WtEn= 3.00D-03
 Coeff-Com: -0.193D-03 0.629D-02 0.212D-01-0.125D+00-0.223D+00 0.132D+01
 Coeff-En:   0.000D+00 0.000D+00 0.000D+00 0.000D+00 0.000D+00 0.100D+01
 Coeff:     -0.192D-03 0.627D-02 0.211D-01-0.125D+00-0.222D+00 0.132D+01
 Gap=     0.378 Goal=   None    Shift=    0.000
 RMSDP=1.27D-04 MaxDP=2.40D-03 DE=-8.01D-05 OVMax= 4.03D-03

 Cycle   7  Pass 1  IDiag  1:
 E= -115.807757352894     Delta-E=       -0.000022745573 Rises=F Damp=F
 DIIS: error= 1.96D-04 at cycle   7 NSaved=   7.
 NSaved= 7 IEnMin= 7 EnMin= -115.807757352894     IErMin= 7 ErrMin= 1.96D-04
 ErrMax= 1.96D-04  0.00D+00 EMaxC= 1.00D-01 BMatC= 9.63D-07 BMatP= 2.79D-06
 IDIUse=3 WtCom= 9.98D-01 WtEn= 1.96D-03
 Coeff-Com: -0.578D-03 0.557D-02 0.268D-01 0.140D-01-0.209D+00-0.109D+00
 Coeff-Com:  0.127D+01
 Coeff-En:   0.000D+00 0.000D+00 0.000D+00 0.000D+00 0.000D+00 0.000D+00
 Coeff-En:   0.100D+01
 Coeff:     -0.577D-03 0.555D-02 0.267D-01 0.140D-01-0.208D+00-0.109D+00
 Coeff:      0.127D+01
 Gap=     0.378 Goal=   None    Shift=    0.000
 RMSDP=7.46D-05 MaxDP=1.25D-03 DE=-2.27D-05 OVMax= 2.65D-03

 Cycle   8  Pass 1  IDiag  1:
 E= -115.807765931278     Delta-E=       -0.000008578384 Rises=F Damp=F
 DIIS: error= 1.24D-04 at cycle   8 NSaved=   8.
 NSaved= 8 IEnMin= 8 EnMin= -115.807765931278     IErMin= 8 ErrMin= 1.24D-04
 ErrMax= 1.24D-04  0.00D+00 EMaxC= 1.00D-01 BMatC= 3.72D-07 BMatP= 9.63D-07
 IDIUse=3 WtCom= 9.99D-01 WtEn= 1.24D-03
 Coeff-Com:  0.166D-03-0.325D-02-0.129D-01 0.460D-01 0.118D+00-0.502D+00
 Coeff-Com: -0.236D+00 0.159D+01
 Coeff-En:   0.000D+00 0.000D+00 0.000D+00 0.000D+00 0.000D+00 0.000D+00
 Coeff-En:   0.000D+00 0.100D+01
 Coeff:      0.166D-03-0.325D-02-0.128D-01 0.460D-01 0.118D+00-0.501D+00
 Coeff:     -0.236D+00 0.159D+01
 Gap=     0.378 Goal=   None    Shift=    0.000
 RMSDP=6.41D-05 MaxDP=1.06D-03 DE=-8.58D-06 OVMax= 2.94D-03

 Cycle   9  Pass 1  IDiag  1:
 E= -115.807770746015     Delta-E=       -0.000004814737 Rises=F Damp=F
 DIIS: error= 5.55D-05 at cycle   9 NSaved=   9.
 NSaved= 9 IEnMin= 9 EnMin= -115.807770746015     IErMin= 9 ErrMin= 5.55D-05
 ErrMax= 5.55D-05  0.00D+00 EMaxC= 1.00D-01 BMatC= 1.04D-07 BMatP= 3.72D-07
 IDIUse=1 WtCom= 1.00D+00 WtEn= 0.00D+00
 Coeff-Com:  0.266D-03-0.219D-02-0.104D-01-0.182D-01 0.656D-01 0.234D+00
 Coeff-Com: -0.624D+00-0.268D+00 0.162D+01
 Coeff:      0.266D-03-0.219D-02-0.104D-01-0.182D-01 0.656D-01 0.234D+00
 Coeff:     -0.624D+00-0.268D+00 0.162D+01
 Gap=     0.378 Goal=   None    Shift=    0.000
 RMSDP=3.69D-05 MaxDP=5.62D-04 DE=-4.81D-06 OVMax= 1.97D-03

 Cycle  10  Pass 1  IDiag  1:
 E= -115.807771983195     Delta-E=       -0.000001237180 Rises=F Damp=F
 DIIS: error= 1.03D-05 at cycle  10 NSaved=  10.
 NSaved=10 IEnMin=10 EnMin= -115.807771983195     IErMin=10 ErrMin= 1.03D-05
 ErrMax= 1.03D-05  0.00D+00 EMaxC= 1.00D-01 BMatC= 7.16D-09 BMatP= 1.04D-07
 IDIUse=1 WtCom= 1.00D+00 WtEn= 0.00D+00
 Coeff-Com: -0.728D-04 0.853D-03 0.401D-02-0.353D-03-0.360D-01 0.291D-01
 Coeff-Com:  0.123D+00-0.397D-01-0.485D+00 0.140D+01
 Coeff:     -0.728D-04 0.853D-03 0.401D-02-0.353D-03-0.360D-01 0.291D-01
 Coeff:      0.123D+00-0.397D-01-0.485D+00 0.140D+01
 Gap=     0.378 Goal=   None    Shift=    0.000
 RMSDP=6.07D-06 MaxDP=8.09D-05 DE=-1.24D-06 OVMax= 3.74D-04

 Cycle  11  Pass 1  IDiag  1:
 E= -115.807772040721     Delta-E=       -0.000000057526 Rises=F Damp=F
 DIIS: error= 3.02D-06 at cycle  11 NSaved=  11.
 NSaved=11 IEnMin=11 EnMin= -115.807772040721     IErMin=11 ErrMin= 3.02D-06
 ErrMax= 3.02D-06  0.00D+00 EMaxC= 1.00D-01 BMatC= 6.77D-10 BMatP= 7.16D-09
 IDIUse=1 WtCom= 1.00D+00 WtEn= 0.00D+00
 Coeff-Com:  0.349D-05-0.103D-03-0.565D-03 0.206D-02 0.476D-02-0.226D-01
 Coeff-Com: -0.141D-01 0.644D-01 0.402D-02-0.460D+00 0.142D+01
 Coeff:      0.349D-05-0.103D-03-0.565D-03 0.206D-02 0.476D-02-0.226D-01
 Coeff:     -0.141D-01 0.644D-01 0.402D-02-0.460D+00 0.142D+01
 Gap=     0.378 Goal=   None    Shift=    0.000
 RMSDP=2.50D-06 MaxDP=3.63D-05 DE=-5.75D-08 OVMax= 9.94D-05

 Cycle  12  Pass 1  IDiag  1:
 E= -115.807772044538     Delta-E=       -0.000000003817 Rises=F Damp=F
 DIIS: error= 8.07D-07 at cycle  12 NSaved=  12.
 NSaved=12 IEnMin=12 EnMin= -115.807772044538     IErMin=12 ErrMin= 8.07D-07
 ErrMax= 8.07D-07  0.00D+00 EMaxC= 1.00D-01 BMatC= 4.08D-11 BMatP= 6.77D-10
 IDIUse=1 WtCom= 1.00D+00 WtEn= 0.00D+00
 Coeff-Com:  0.430D-05-0.468D-04-0.222D-03-0.992D-04 0.136D-02 0.275D-02
 Coeff-Com: -0.107D-01-0.113D-02 0.360D-01-0.449D-01-0.209D+00 0.123D+01
 Coeff:      0.430D-05-0.468D-04-0.222D-03-0.992D-04 0.136D-02 0.275D-02
 Coeff:     -0.107D-01-0.113D-02 0.360D-01-0.449D-01-0.209D+00 0.123D+01
 Gap=     0.378 Goal=   None    Shift=    0.000
 RMSDP=3.86D-07 MaxDP=7.00D-06 DE=-3.82D-09 OVMax= 6.80D-06

 Cycle  13  Pass 1  IDiag  1:
 E= -115.807772044686     Delta-E=       -0.000000000148 Rises=F Damp=F
 DIIS: error= 1.94D-07 at cycle  13 NSaved=  13.
 NSaved=13 IEnMin=13 EnMin= -115.807772044686     IErMin=13 ErrMin= 1.94D-07
 ErrMax= 1.94D-07  0.00D+00 EMaxC= 1.00D-01 BMatC= 2.90D-12 BMatP= 4.08D-11
 IDIUse=1 WtCom= 1.00D+00 WtEn= 0.00D+00
 Coeff-Com: -0.107D-05 0.177D-04 0.922D-04-0.113D-03-0.862D-03 0.201D-02
 Coeff-Com:  0.228D-02-0.474D-02-0.767D-02 0.512D-01-0.958D-01-0.207D+00
 Coeff-Com:  0.126D+01
 Coeff:     -0.107D-05 0.177D-04 0.922D-04-0.113D-03-0.862D-03 0.201D-02
 Coeff:      0.228D-02-0.474D-02-0.767D-02 0.512D-01-0.958D-01-0.207D+00
 Coeff:      0.126D+01
 Gap=     0.378 Goal=   None    Shift=    0.000
 RMSDP=6.76D-08 MaxDP=1.15D-06 DE=-1.48D-10 OVMax= 2.12D-06

 Cycle  14  Pass 1  IDiag  1:
 E= -115.807772044696     Delta-E=       -0.000000000010 Rises=F Damp=F
 DIIS: error= 2.92D-08 at cycle  14 NSaved=  14.
 NSaved=14 IEnMin=14 EnMin= -115.807772044696     IErMin=14 ErrMin= 2.92D-08
 ErrMax= 2.92D-08  0.00D+00 EMaxC= 1.00D-01 BMatC= 1.05D-13 BMatP= 2.90D-12
 IDIUse=1 WtCom= 1.00D+00 WtEn= 0.00D+00
 Coeff-Com:  0.658D-07-0.190D-05-0.118D-04 0.391D-04 0.123D-03-0.609D-03
 Coeff-Com: -0.124D-03 0.155D-02-0.319D-03-0.985D-02 0.335D-01-0.953D-02
 Coeff-Com: -0.310D+00 0.130D+01
 Coeff:      0.658D-07-0.190D-05-0.118D-04 0.391D-04 0.123D-03-0.609D-03
 Coeff:     -0.124D-03 0.155D-02-0.319D-03-0.985D-02 0.335D-01-0.953D-02
 Coeff:     -0.310D+00 0.130D+01
 Gap=     0.378 Goal=   None    Shift=    0.000
 RMSDP=3.01D-08 MaxDP=4.88D-07 DE=-1.02D-11 OVMax= 3.90D-07

 Cycle  15  Pass 1  IDiag  1:
 E= -115.807772044697     Delta-E=       -0.000000000001 Rises=F Damp=F
 DIIS: error= 6.41D-09 at cycle  15 NSaved=  15.
 NSaved=15 IEnMin=15 EnMin= -115.807772044697     IErMin=15 ErrMin= 6.41D-09
 ErrMax= 6.41D-09  0.00D+00 EMaxC= 1.00D-01 BMatC= 3.56D-15 BMatP= 1.05D-13
 IDIUse=1 WtCom= 1.00D+00 WtEn= 0.00D+00
 Coeff-Com:  0.301D-07-0.370D-06-0.170D-05-0.328D-05 0.746D-05 0.717D-04
 Coeff-Com: -0.107D-03-0.149D-03 0.481D-03-0.401D-04-0.372D-02 0.131D-01
 Coeff-Com:  0.106D-01-0.277D+00 0.126D+01
 Coeff:      0.301D-07-0.370D-06-0.170D-05-0.328D-05 0.746D-05 0.717D-04
 Coeff:     -0.107D-03-0.149D-03 0.481D-03-0.401D-04-0.372D-02 0.131D-01
 Coeff:      0.106D-01-0.277D+00 0.126D+01
 Gap=     0.378 Goal=   None    Shift=    0.000
 RMSDP=6.06D-09 MaxDP=9.71D-08 DE=-5.97D-13 OVMax= 6.64D-08

 SCF Done:  E(RHF) =  -115.807772045     A.U. after   15 cycles
            NFock= 15  Conv=0.61D-08     -V/T= 2.0010
 KE= 1.156932579613D+02 PE=-3.874750955897D+02 EE= 9.681262131746D+01
 Leave Link  502 at Tue Oct 10 11:25:44 2017, MaxMem=    33554432 cpu:         3.5
 (Enter /usr/local/gaussian/2009-E.01/g09/l801.exe)
 Windowed orbitals will be sorted by symmetry type.
 ExpMin= 3.60D-02 ExpMax= 4.56D+03 ExpMxC= 6.82D+02 IAcc=3 IRadAn=         5 AccDes= 0.00D+00
 HarFok:  IExCor=  205 AccDes= 0.00D+00 IRadAn=         5 IDoV=-2 UseB2=F ITyADJ=14
 ICtDFT= 12500011 ScaDFX=  1.000000  1.000000  1.000000  1.000000
 Largest valence mixing into a core orbital is  1.45D-04
 Largest core mixing into a valence orbital is  3.89D-05
 Range of M.O.s used for correlation:     4    94
 NBasis=    94 NAE=    11 NBE=    11 NFC=     3 NFV=     0
 NROrb=     91 NOA=     8 NOB=     8 NVA=    83 NVB=    83

 **** Warning!!: The largest alpha MO coefficient is  0.30515907D+02

 Leave Link  801 at Tue Oct 10 11:25:45 2017, MaxMem=    33554432 cpu:         1.0
 (Enter /usr/local/gaussian/2009-E.01/g09/l804.exe)
 Closed-shell transformation, MDV=    33554432 ITran=4 ISComp=1.
 Semi-Direct transformation.
 ModeAB=           2 MOrb=             8 LenV=      33224367
 LASXX=      2814770 LTotXX=     2814770 LenRXX=     2814770
 LTotAB=     2906296 MaxLAS=     3460184 LenRXY=     3460184
 NonZer=     5629540 LenScr=     9209856 LnRSAI=           0
 LnScr1=           0 LExtra=           0 Total=     15484810
 MaxDsk=          -1 SrtSym=           F ITran=            4
 DoSDTr:  NPSUse=  8
 JobTyp=0 Pass  1:  I=   1 to   8.
 (rs|ai) integrals will be sorted in core.
 Complete sort for first half transformation.
 First half transformation complete.
 Complete sort for second half transformation.
 Second half transformation complete.
 SymMOI:  orbitals are not symmetric.
 Spin components of T(2) and E(2):
     alpha-alpha T2 =       0.1729439839D-01 E2=     -0.4531288407D-01
     alpha-beta  T2 =       0.1142350109D+00 E2=     -0.3076229618D+00
     beta-beta   T2 =       0.1729439839D-01 E2=     -0.4531288407D-01
 ANorm=    0.1071831987D+01
 E2 =    -0.3982487300D+00 EUMP2 =    -0.11620602077467D+03
 Leave Link  804 at Tue Oct 10 11:25:46 2017, MaxMem=    33554432 cpu:         9.9
 (Enter /usr/local/gaussian/2009-E.01/g09/l913.exe)
 CIDS:  MDV=    33554432.
 Frozen-core window:  NFC=   3 NFV=   0.
 IFCWin=0 IBDFC=1 NFBD=     0     0 NFCmp=     0     0 NFFFC=     0     0
 Using DD3R+UMP44R for 1st iteration, S=T.
 Using DD4RQ for 2nd and later iterations.
 Keep R2 and R3 ints in memory in canonical form, NReq=20762094.
 FoFCou: FMM=F IPFlag=           0 FMFlag=           0 FMFlg1=           0
         NFxFlg=           0 DoJE=F BraDBF=F KetDBF=F FulRan=T
         wScrn=  0.000000 ICntrl=     600 IOpCl=  0 I1Cent=           0 NGrid=           0
         NMat0=    1 NMatS0=   4465 NMatT0=    0 NMatD0=    1 NMtDS0=    0 NMtDT0=    0
 Symmetry not used in FoFCou.
 CCSD(T)
 =======
 Iterations= 200 Convergence= 0.100D-06
 Iteration Nr.   1
 **********************
 DD1Dir will call FoFMem   1 times, MxPair=        72
 NAB=    36 NAA=     0 NBB=     0.
 MP4(R+Q)=  0.10247751D-01
 Maximum subspace dimension=  5
 Norm of the A-vectors is  6.0289081D-01 conv= 1.00D-05.
 RLE energy=       -0.4194981897
 E3=       -0.30497260D-01        EUMP3=      -0.11623651803D+03
 E4(DQ)=   -0.15109017D-02        UMP4(DQ)=   -0.11623802894D+03
 E4(SDQ)=  -0.58822542D-02        UMP4(SDQ)=  -0.11624240029D+03
 VARIATIONAL ENERGIES WITH THE FIRST-ORDER WAVEFUNCTION:
 DE(Corr)= -0.41842182     E(Corr)=     -116.22619387    
 NORM(A)=   0.10829488D+01
 Iteration Nr.   2
 **********************
 DD1Dir will call FoFMem   1 times, MxPair=        72
 NAB=    36 NAA=     0 NBB=     0.
 Norm of the A-vectors is  2.3076660D-01 conv= 1.00D-05.
 RLE energy=       -0.4344744571
 DE(Corr)= -0.43181993     E(CORR)=     -116.23959197     Delta=-1.34D-02
 NORM(A)=   0.10924308D+01
 Iteration Nr.   3
 **********************
 DD1Dir will call FoFMem   1 times, MxPair=        72
 NAB=    36 NAA=     0 NBB=     0.
 Norm of the A-vectors is  7.7994334D-02 conv= 1.00D-05.
 RLE energy=       -0.4356493180
 DE(Corr)= -0.43408162     E(CORR)=     -116.24185366     Delta=-2.26D-03
 NORM(A)=   0.10962296D+01
 Iteration Nr.   4
 **********************
 DD1Dir will call FoFMem   1 times, MxPair=        72
 NAB=    36 NAA=     0 NBB=     0.
 Norm of the A-vectors is  4.0788798D-02 conv= 1.00D-05.
 RLE energy=       -0.4361868349
 DE(Corr)= -0.43581501     E(CORR)=     -116.24358705     Delta=-1.73D-03
 NORM(A)=   0.10985163D+01
 Iteration Nr.   5
 **********************
 DD1Dir will call FoFMem   1 times, MxPair=        72
 NAB=    36 NAA=     0 NBB=     0.
 Norm of the A-vectors is  2.0091900D-02 conv= 1.00D-05.
 RLE energy=       -0.4364035989
 DE(Corr)= -0.43619620     E(CORR)=     -116.24396824     Delta=-3.81D-04
 NORM(A)=   0.10999957D+01
 Iteration Nr.   6
 **********************
 DD1Dir will call FoFMem   1 times, MxPair=        72
 NAB=    36 NAA=     0 NBB=     0.
 Norm of the A-vectors is  1.3120134D-02 conv= 1.00D-05.
 RLE energy=       -0.4362200349
 DE(Corr)= -0.43633356     E(CORR)=     -116.24410560     Delta=-1.37D-04
 NORM(A)=   0.11005595D+01
 Iteration Nr.   7
 **********************
 DD1Dir will call FoFMem   1 times, MxPair=        72
 NAB=    36 NAA=     0 NBB=     0.
 Norm of the A-vectors is  7.6208829D-03 conv= 1.00D-05.
 RLE energy=       -0.4364199103
 DE(Corr)= -0.43636650     E(CORR)=     -116.24413854     Delta=-3.29D-05
 NORM(A)=   0.11010245D+01
 Iteration Nr.   8
 **********************
 DD1Dir will call FoFMem   1 times, MxPair=        72
 NAB=    36 NAA=     0 NBB=     0.
 Norm of the A-vectors is  5.3871318D-03 conv= 1.00D-05.
 RLE energy=       -0.4363446860
 DE(Corr)= -0.43636525     E(CORR)=     -116.24413730     Delta= 1.25D-06
 NORM(A)=   0.11012081D+01
 Iteration Nr.   9
 **********************
 DD1Dir will call FoFMem   1 times, MxPair=        72
 NAB=    36 NAA=     0 NBB=     0.
 Norm of the A-vectors is  4.1844736D-03 conv= 1.00D-05.
 RLE energy=       -0.4364045007
 DE(Corr)= -0.43639302     E(CORR)=     -116.24416507     Delta=-2.78D-05
 NORM(A)=   0.11013375D+01
 Iteration Nr.  10
 **********************
 DD1Dir will call FoFMem   1 times, MxPair=        72
 NAB=    36 NAA=     0 NBB=     0.
 Norm of the A-vectors is  2.6072204D-03 conv= 1.00D-05.
 RLE energy=       -0.4363919907
 DE(Corr)= -0.43638559     E(CORR)=     -116.24415764     Delta= 7.43D-06
 NORM(A)=   0.11013873D+01
 Iteration Nr.  11
 **********************
 DD1Dir will call FoFMem   1 times, MxPair=        72
 NAB=    36 NAA=     0 NBB=     0.
 Norm of the A-vectors is  1.3419515D-03 conv= 1.00D-05.
 RLE energy=       -0.4363935395
 DE(Corr)= -0.43639470     E(CORR)=     -116.24416675     Delta=-9.11D-06
 NORM(A)=   0.11014069D+01
 Iteration Nr.  12
 **********************
 DD1Dir will call FoFMem   1 times, MxPair=        72
 NAB=    36 NAA=     0 NBB=     0.
 Norm of the A-vectors is  6.8329278D-04 conv= 1.00D-05.
 RLE energy=       -0.4363970356
 DE(Corr)= -0.43639506     E(CORR)=     -116.24416710     Delta=-3.55D-07
 NORM(A)=   0.11014211D+01
 Iteration Nr.  13
 **********************
 DD1Dir will call FoFMem   1 times, MxPair=        72
 NAB=    36 NAA=     0 NBB=     0.
 Norm of the A-vectors is  3.6245419D-04 conv= 1.00D-05.
 RLE energy=       -0.4363976581
 DE(Corr)= -0.43639695     E(CORR)=     -116.24416899     Delta=-1.89D-06
 NORM(A)=   0.11014312D+01
 Iteration Nr.  14
 **********************
 DD1Dir will call FoFMem   1 times, MxPair=        72
 NAB=    36 NAA=     0 NBB=     0.
 Norm of the A-vectors is  2.2404029D-04 conv= 1.00D-05.
 RLE energy=       -0.4363997540
 DE(Corr)= -0.43639855     E(CORR)=     -116.24417059     Delta=-1.60D-06
 NORM(A)=   0.11014397D+01
 Iteration Nr.  15
 **********************
 DD1Dir will call FoFMem   1 times, MxPair=        72
 NAB=    36 NAA=     0 NBB=     0.
 Norm of the A-vectors is  1.4645794D-04 conv= 1.00D-05.
 RLE energy=       -0.4363999343
 DE(Corr)= -0.43639942     E(CORR)=     -116.24417147     Delta=-8.75D-07
 NORM(A)=   0.11014458D+01
 Iteration Nr.  16
 **********************
 DD1Dir will call FoFMem   1 times, MxPair=        72
 NAB=    36 NAA=     0 NBB=     0.
 Norm of the A-vectors is  1.0872043D-04 conv= 1.00D-05.
 RLE energy=       -0.4364005688
 DE(Corr)= -0.43640017     E(CORR)=     -116.24417222     Delta=-7.49D-07
 NORM(A)=   0.11014508D+01
 Iteration Nr.  17
 **********************
 DD1Dir will call FoFMem   1 times, MxPair=        72
 NAB=    36 NAA=     0 NBB=     0.
 Norm of the A-vectors is  7.3895233D-05 conv= 1.00D-05.
 RLE energy=       -0.4364007325
 DE(Corr)= -0.43640044     E(CORR)=     -116.24417249     Delta=-2.73D-07
 NORM(A)=   0.11014559D+01
 Iteration Nr.  18
 **********************
 DD1Dir will call FoFMem   1 times, MxPair=        72
 NAB=    36 NAA=     0 NBB=     0.
 Norm of the A-vectors is  6.4681331D-05 conv= 1.00D-05.
 RLE energy=       -0.4364009033
 DE(Corr)= -0.43640078     E(CORR)=     -116.24417282     Delta=-3.32D-07
 NORM(A)=   0.11014601D+01
 Iteration Nr.  19
 **********************
 DD1Dir will call FoFMem   1 times, MxPair=        72
 NAB=    36 NAA=     0 NBB=     0.
 Norm of the A-vectors is  4.9816023D-05 conv= 1.00D-05.
 RLE energy=       -0.4364010263
 DE(Corr)= -0.43640096     E(CORR)=     -116.24417300     Delta=-1.79D-07
 NORM(A)=   0.11014622D+01
 Iteration Nr.  20
 **********************
 DD1Dir will call FoFMem   1 times, MxPair=        72
 NAB=    36 NAA=     0 NBB=     0.
 Norm of the A-vectors is  3.4302101D-05 conv= 1.00D-05.
 RLE energy=       -0.4364010447
 DE(Corr)= -0.43640104     E(CORR)=     -116.24417308     Delta=-8.17D-08
 NORM(A)=   0.11014631D+01
 Iteration Nr.  21
 **********************
 DD1Dir will call FoFMem   1 times, MxPair=        72
 NAB=    36 NAA=     0 NBB=     0.
 Norm of the A-vectors is  2.1837211D-05 conv= 1.00D-05.
 RLE energy=       -0.4364010926
 DE(Corr)= -0.43640108     E(CORR)=     -116.24417312     Delta=-4.33D-08
 NORM(A)=   0.11014633D+01
 Iteration Nr.  22
 **********************
 DD1Dir will call FoFMem   1 times, MxPair=        72
 NAB=    36 NAA=     0 NBB=     0.
 Norm of the A-vectors is  1.4514925D-05 conv= 1.00D-05.
 RLE energy=       -0.4364010790
 DE(Corr)= -0.43640108     E(CORR)=     -116.24417312     Delta= 3.06D-09
 NORM(A)=   0.11014634D+01
 Iteration Nr.  23
 **********************
 DD1Dir will call FoFMem   1 times, MxPair=        72
 NAB=    36 NAA=     0 NBB=     0.
 Norm of the A-vectors is  9.2939310D-06 conv= 1.00D-05.
 RLE energy=       -0.4364010938
 DE(Corr)= -0.43640109     E(CORR)=     -116.24417314     Delta=-1.36D-08
 NORM(A)=   0.11014635D+01
 CI/CC converged in   23 iterations to DelEn=-1.36D-08 Conv= 1.00D-07 ErrA1= 9.29D-06 Conv= 1.00D-05
 Largest amplitude= 5.64D-02
 T4(AAA)= -0.44980390D-03
 T4(AAB)= -0.96065101D-02
 T5(AAA)=  0.26303232D-04
 T5(AAB)=  0.36661059D-03
 Time for triples=       56.05 seconds.
 T4(CCSD)= -0.20112628D-01
 T5(CCSD)=  0.78582764D-03
 CCSD(T)= -0.11626349994D+03
 Discarding MO integrals.
 Leave Link  913 at Tue Oct 10 11:27:01 2017, MaxMem=    33554432 cpu:       571.1
 (Enter /usr/local/gaussian/2009-E.01/g09/l601.exe)
 Copying SCF densities to generalized density rwf, IOpCl= 0 IROHF=0.

 **********************************************************************

            Population analysis using the SCF density.

 **********************************************************************

 Orbital symmetries:
       Occupied  (A) (A) (A) (A) (A) (A) (A) (A) (A) (A) (A)
       Virtual   (A) (A) (A) (A) (A) (A) (A) (A) (A) (A) (A) (A)
                 (A) (A) (A) (A) (A) (A) (A) (A) (A) (A) (A) (A)
                 (A) (A) (A) (A) (A) (A) (A) (A) (A) (A) (A) (A)
                 (A) (A) (A) (A) (A) (A) (A) (A) (A) (A) (A) (A)
                 (A) (A) (A) (A) (A) (A) (A) (A) (A) (A) (A) (A)
                 (A) (A) (A) (A) (A) (A) (A) (A) (A) (A) (A) (A)
                 (A) (A) (A) (A) (A) (A) (A) (A) (A) (A) (A)
 The electronic state is 1-A.
 Alpha  occ. eigenvalues --  -11.28123 -11.25427 -11.24895  -1.09435  -0.90473
 Alpha  occ. eigenvalues --   -0.74813  -0.66956  -0.57944  -0.53324  -0.42275
 Alpha  occ. eigenvalues --   -0.34166
 Alpha virt. eigenvalues --    0.03654   0.04241   0.05809   0.06595   0.07827
 Alpha virt. eigenvalues --    0.11066   0.13419   0.13923   0.15700   0.16676
 Alpha virt. eigenvalues --    0.17846   0.17912   0.19158   0.20294   0.21287
 Alpha virt. eigenvalues --    0.22003   0.23474   0.24114   0.29792   0.30710
 Alpha virt. eigenvalues --    0.34544   0.40411   0.47532   0.50823   0.59407
 Alpha virt. eigenvalues --    0.62133   0.69281   0.70864   0.72284   0.75905
 Alpha virt. eigenvalues --    0.77121   0.80661   0.83164   0.85738   0.88377
 Alpha virt. eigenvalues --    0.92468   0.94309   1.00468   1.04546   1.05453
 Alpha virt. eigenvalues --    1.26323   1.30078   1.37865   1.46079   1.58698
 Alpha virt. eigenvalues --    1.65292   1.69233   1.74827   1.82576   1.86180
 Alpha virt. eigenvalues --    1.90893   1.95623   1.99017   2.06727   2.13727
 Alpha virt. eigenvalues --    2.17974   2.21643   2.35931   2.37632   2.44053
 Alpha virt. eigenvalues --    2.46811   2.50019   2.65922   2.76032   2.84084
 Alpha virt. eigenvalues --    2.85914   2.90467   2.96441   3.00672   3.07759
 Alpha virt. eigenvalues --    3.09993   3.17201   3.32380   3.40583   3.50599
 Alpha virt. eigenvalues --    3.77542   3.85107   4.10580   4.35786   4.54485
 Alpha virt. eigenvalues --   24.79574  25.05820  25.30023
          Condensed to atoms (all electrons):
               1          2          3          4          5          6
     1  C    4.877536   0.502049   0.417523  -0.023118   0.378421  -0.048516
     2  C    0.502049   5.028886  -0.031151   0.045717  -0.124839   0.378911
     3  C    0.417523  -0.031151   5.570155   0.211299   0.018469   0.052295
     4  H   -0.023118   0.045717   0.211299   0.766740  -0.066154  -0.014424
     5  H    0.378421  -0.124839   0.018469  -0.066154   0.637101   0.012352
     6  H   -0.048516   0.378911   0.052295  -0.014424   0.012352   0.475327
     7  H   -0.031156   0.401931  -0.000243   0.002436   0.001723  -0.021802
               7
     1  C   -0.031156
     2  C    0.401931
     3  C   -0.000243
     4  H    0.002436
     5  H    0.001723
     6  H   -0.021802
     7  H    0.520817
 Mulliken charges:
               1
     1  C   -0.072738
     2  C   -0.201502
     3  C   -0.238345
     4  H    0.077505
     5  H    0.142928
     6  H    0.165858
     7  H    0.126294
 Sum of Mulliken charges =  -0.00000
 Mulliken charges with hydrogens summed into heavy atoms:
               1
     1  C    0.070190
     2  C    0.090650
     3  C   -0.160841
 Electronic spatial extent (au):  <R**2>=            160.1619
 Charge=             -0.0000 electrons
 Dipole moment (field-independent basis, Debye):
    X=             -1.7714    Y=              1.8456    Z=              0.7552  Tot=              2.6673
 Quadrupole moment (field-independent basis, Debye-Ang):
   XX=            -17.8462   YY=            -20.7646   ZZ=            -20.7618
   XY=              3.3871   XZ=              0.4292   YZ=             -0.6509
 Traceless Quadrupole moment (field-independent basis, Debye-Ang):
   XX=              1.9447   YY=             -0.9737   ZZ=             -0.9709
   XY=              3.3871   XZ=              0.4292   YZ=             -0.6509
 Octapole moment (field-independent basis, Debye-Ang**2):
  XXX=             -7.5354  YYY=              6.2319  ZZZ=              1.0571  XYY=             -6.0250
  XXY=              5.0110  XXZ=              2.3365  XZZ=             -0.1469  YZZ=              0.8093
  YYZ=              0.7341  XYZ=             -1.5024
 Hexadecapole moment (field-independent basis, Debye-Ang**3):
 XXXX=           -143.7767 YYYY=            -57.4138 ZZZZ=            -27.9278 XXXY=              8.6752
 XXXZ=              0.4409 YYYX=             10.7403 YYYZ=             -0.9010 ZZZX=              0.9645
 ZZZY=             -0.7397 XXYY=            -39.5676 XXZZ=            -29.6766 YYZZ=            -15.3141
 XXYZ=             -0.8011 YYXZ=              1.4088 ZZXY=              1.6919
 N-N= 5.916144426622D+01 E-N=-3.874750954943D+02  KE= 1.156932579613D+02
 Leave Link  601 at Tue Oct 10 11:27:01 2017, MaxMem=    33554432 cpu:         0.2
 (Enter /usr/local/gaussian/2009-E.01/g09/l9999.exe)
 1\1\ WCSS.PL-BEM-WN1424\SP\RCCSD(T)-FC\6-311++G(d,p)\C3H4\ROOT\10-Oct-
 2017\0\\#p ccsd(t,maxcyc=200)/6-311++G(d,p)\\ccsd(t) iener\\0,1\C,0,-0
 .479716,-0.106426,0.462633\C,0,0.770963,-0.337755,0.952702\C,0,-0.8057
 97,1.26485,0.396604\H,0,-1.871752,1.397718,0.660854\H,0,-1.184558,-0.9
 34664,0.351442\H,0,1.477282,0.48235,1.008382\H,0,1.055805,-1.294388,1.
 382155\\Version=ES64L-G09RevE.01\State=1-A\HF=-115.807772\MP2=-116.206
 0208\MP3=-116.236518\MP4D=-116.2482767\MP4DQ=-116.2380289\MP4SDQ=-116.
 2424003\CCSD=-116.2441731\CCSD(T)=-116.2634999\RMSD=6.055e-09\PG=C01 [
 X(C3H4)]\\@


 AN OPTIMIST IS A GUY
 THAT HAS NEVER HAD
 MUCH EXPERIENCE
   (CERTAIN MAXIMS OF ARCHY  -- DON MARQUIS)
 Job cpu time:       0 days  0 hours 10 minutes  0.1 seconds.
 File lengths (MBytes):  RWF=    286 Int=      0 D2E=      0 Chk=      2 Scr=      1
 Normal termination of Gaussian 09 at Tue Oct 10 11:27:02 2017.
