 Entering Gaussian System, Link 0=/usr/local/gaussian/2009-E.01/g09/g09
 Initial command:
 /usr/local/gaussian/2009-E.01/g09/l1.exe "/lustre/scratch/eerd/4986703.achilles/Gau-38030.inp" -scrdir="/lustre/scratch/eerd/4986703.achilles/"
 Entering Link 1 = /usr/local/gaussian/2009-E.01/g09/l1.exe PID=     38032.
  
 Copyright (c) 1988,1990,1992,1993,1995,1998,2003,2009,2015,
            Gaussian, Inc.  All Rights Reserved.
  
 This is part of the Gaussian(R) 09 program.  It is based on
 the Gaussian(R) 03 system (copyright 2003, Gaussian, Inc.),
 the Gaussian(R) 98 system (copyright 1998, Gaussian, Inc.),
 the Gaussian(R) 94 system (copyright 1995, Gaussian, Inc.),
 the Gaussian 92(TM) system (copyright 1992, Gaussian, Inc.),
 the Gaussian 90(TM) system (copyright 1990, Gaussian, Inc.),
 the Gaussian 88(TM) system (copyright 1988, Gaussian, Inc.),
 the Gaussian 86(TM) system (copyright 1986, Carnegie Mellon
 University), and the Gaussian 82(TM) system (copyright 1983,
 Carnegie Mellon University). Gaussian is a federally registered
 trademark of Gaussian, Inc.
  
 This software contains proprietary and confidential information,
 including trade secrets, belonging to Gaussian, Inc.
  
 This software is provided under written license and may be
 used, copied, transmitted, or stored only in accord with that
 written license.
  
 The following legend is applicable only to US Government
 contracts under FAR:
  
                    RESTRICTED RIGHTS LEGEND
  
 Use, reproduction and disclosure by the US Government is
 subject to restrictions as set forth in subparagraphs (a)
 and (c) of the Commercial Computer Software - Restricted
 Rights clause in FAR 52.227-19.
  
 Gaussian, Inc.
 340 Quinnipiac St., Bldg. 40, Wallingford CT 06492
  
  
 ---------------------------------------------------------------
 Warning -- This program may not be used in any manner that
 competes with the business of Gaussian, Inc. or will provide
 assistance to any competitor of Gaussian, Inc.  The licensee
 of this program is prohibited from giving any competitor of
 Gaussian, Inc. access to this program.  By using this program,
 the user acknowledges that Gaussian, Inc. is engaged in the
 business of creating and licensing software in the field of
 computational chemistry and represents and warrants to the
 licensee that it is not a competitor of Gaussian, Inc. and that
 it will not use this program in any manner prohibited above.
 ---------------------------------------------------------------
  

 Cite this work as:
 Gaussian 09, Revision E.01,
 M. J. Frisch, G. W. Trucks, H. B. Schlegel, G. E. Scuseria, 
 M. A. Robb, J. R. Cheeseman, G. Scalmani, V. Barone, B. Mennucci, 
 G. A. Petersson, H. Nakatsuji, M. Caricato, X. Li, H. P. Hratchian, 
 A. F. Izmaylov, J. Bloino, G. Zheng, J. L. Sonnenberg, M. Hada, 
 M. Ehara, K. Toyota, R. Fukuda, J. Hasegawa, M. Ishida, T. Nakajima, 
 Y. Honda, O. Kitao, H. Nakai, T. Vreven, J. A. Montgomery, Jr., 
 J. E. Peralta, F. Ogliaro, M. Bearpark, J. J. Heyd, E. Brothers, 
 K. N. Kudin, V. N. Staroverov, T. Keith, R. Kobayashi, J. Normand, 
 K. Raghavachari, A. Rendell, J. C. Burant, S. S. Iyengar, J. Tomasi, 
 M. Cossi, N. Rega, J. M. Millam, M. Klene, J. E. Knox, J. B. Cross, 
 V. Bakken, C. Adamo, J. Jaramillo, R. Gomperts, R. E. Stratmann, 
 O. Yazyev, A. J. Austin, R. Cammi, C. Pomelli, J. W. Ochterski, 
 R. L. Martin, K. Morokuma, V. G. Zakrzewski, G. A. Voth, 
 P. Salvador, J. J. Dannenberg, S. Dapprich, A. D. Daniels, 
 O. Farkas, J. B. Foresman, J. V. Ortiz, J. Cioslowski, 
 and D. J. Fox, Gaussian, Inc., Wallingford CT, 2013.
 
 ******************************************
 Gaussian 09:  ES64L-G09RevE.01 30-Nov-2015
                10-Oct-2017 
 ******************************************
 %NProcShared=8
 Will use up to    8 processors via shared memory.
 -----------------------------------
 #p ccsd(t,maxcyc=200)/6-311++G(d,p)
 -----------------------------------
 1/38=1/1;
 2/12=2,17=6,18=5,40=1/2;
 3/5=4,6=6,7=1111,11=9,16=1,25=1,30=1/1,2,3;
 4//1;
 5/5=2,38=5/2;
 8/6=4,9=120000,10=2/1,4;
 9/5=7,6=200,14=2/13;
 6/7=2,8=2,9=2,10=2/1;
 99/5=1,9=1/99;
 Leave Link    1 at Tue Oct 10 11:48:43 2017, MaxMem=           0 cpu:         0.4
 (Enter /usr/local/gaussian/2009-E.01/g09/l101.exe)
 -------------
 ccsd(t) iener
 -------------
 Symbolic Z-matrix:
 Charge =  1 Multiplicity = 4
 C                    -1.02628  -0.3189    0.57643 
 C                     0.82213  -0.274     0.38003 
 C                    -0.10347   0.79257   0.71407 
 H                    -0.22395   1.57478  -0.05361 
 H                    -1.57664  -0.79367  -0.2333 
 H                     0.0155    1.18739   1.73664 
 H                     1.37408  -1.03988   0.92109 
 
 NAtoms=      7 NQM=        7 NQMF=       0 NMMI=      0 NMMIF=      0
                NMic=       0 NMicF=      0.
                    Isotopes and Nuclear Properties:
 (Nuclear quadrupole moments (NQMom) in fm**2, nuclear magnetic moments (NMagM)
  in nuclear magnetons)

  Atom         1           2           3           4           5           6           7
 IAtWgt=          12          12          12           1           1           1           1
 AtmWgt=  12.0000000  12.0000000  12.0000000   1.0078250   1.0078250   1.0078250   1.0078250
 NucSpn=           0           0           0           1           1           1           1
 AtZEff=   0.0000000   0.0000000   0.0000000   0.0000000   0.0000000   0.0000000   0.0000000
 NQMom=    0.0000000   0.0000000   0.0000000   0.0000000   0.0000000   0.0000000   0.0000000
 NMagM=    0.0000000   0.0000000   0.0000000   2.7928460   2.7928460   2.7928460   2.7928460
 AtZNuc=   6.0000000   6.0000000   6.0000000   1.0000000   1.0000000   1.0000000   1.0000000
 Leave Link  101 at Tue Oct 10 11:48:44 2017, MaxMem=    33554432 cpu:         0.5
 (Enter /usr/local/gaussian/2009-E.01/g09/l202.exe)
                          Input orientation:                          
 ---------------------------------------------------------------------
 Center     Atomic      Atomic             Coordinates (Angstroms)
 Number     Number       Type             X           Y           Z
 ---------------------------------------------------------------------
      1          6           0       -1.026276   -0.318902    0.576431
      2          6           0        0.822129   -0.273995    0.380026
      3          6           0       -0.103472    0.792569    0.714067
      4          1           0       -0.223954    1.574780   -0.053606
      5          1           0       -1.576636   -0.793670   -0.233303
      6          1           0        0.015499    1.187392    1.736638
      7          1           0        1.374082   -1.039876    0.921085
 ---------------------------------------------------------------------
                    Distance matrix (angstroms):
                    1          2          3          4          5
     1  C    0.000000
     2  C    1.859353   0.000000
     3  C    1.451165   1.451165   0.000000
     4  H    2.150976   2.168017   1.102584   0.000000
     5  H    1.088104   2.529883   2.363022   2.733422   0.000000
     6  H    2.168017   2.150976   1.102584   1.847263   3.215613
     7  H    2.529883   1.088104   2.363022   3.215613   3.178044
                    6          7
     6  H    0.000000
     7  H    2.733422   0.000000
 Stoichiometry    C3H4(1+,4)
 Framework group  C2[C2(C),X(C2H4)]
 Deg. of freedom     8
 Full point group                 C2      NOp   2
 Largest Abelian subgroup         C2      NOp   2
 Largest concise Abelian subgroup C2      NOp   2
                         Standard orientation:                         
 ---------------------------------------------------------------------
 Center     Atomic      Atomic             Coordinates (Angstroms)
 Number     Number       Type             X           Y           Z
 ---------------------------------------------------------------------
      1          6           0        0.000000   -0.929676   -0.402228
      2          6           0       -0.000000    0.929676   -0.402228
      3          6           0        0.000000    0.000000    0.712035
      4          1           0       -0.923419   -0.019791    1.314194
      5          1           0       -0.746553   -1.402730   -1.036931
      6          1           0        0.923419    0.019791    1.314194
      7          1           0        0.746553    1.402730   -1.036931
 ---------------------------------------------------------------------
 Rotational constants (GHZ):     27.7056564     18.3426031     12.4702610
 Leave Link  202 at Tue Oct 10 11:48:44 2017, MaxMem=    33554432 cpu:         0.1
 (Enter /usr/local/gaussian/2009-E.01/g09/l301.exe)
 Standard basis: 6-311++G(d,p) (5D, 7F)
 Ernie: Thresh=  0.10000D-02 Tol=  0.10000D-05 Strict=F.
 There are    50 symmetry adapted cartesian basis functions of A   symmetry.
 There are    47 symmetry adapted cartesian basis functions of B   symmetry.
 There are    48 symmetry adapted basis functions of A   symmetry.
 There are    46 symmetry adapted basis functions of B   symmetry.
    94 basis functions,   144 primitive gaussians,    97 cartesian basis functions
    12 alpha electrons        9 beta electrons
       nuclear repulsion energy        60.3441166784 Hartrees.
 IExCor=    0 DFT=F Ex=HF Corr=None ExCW=0 ScaHFX=  1.000000
 ScaDFX=  1.000000  1.000000  1.000000  1.000000 ScalE2=  1.000000  1.000000
 IRadAn=      0 IRanWt=     -1 IRanGd=            0 ICorTp=0 IEmpDi=  4
 NAtoms=    7 NActive=    7 NUniq=    4 SFac= 3.06D+00 NAtFMM=   60 NAOKFM=F Big=F
 Integral buffers will be    131072 words long.
 Raffenetti 2 integral format.
 Two-electron integral symmetry is turned on.
 Leave Link  301 at Tue Oct 10 11:48:44 2017, MaxMem=    33554432 cpu:         0.4
 (Enter /usr/local/gaussian/2009-E.01/g09/l302.exe)
 NPDir=0 NMtPBC=     1 NCelOv=     1 NCel=       1 NClECP=     1 NCelD=      1
         NCelK=      1 NCelE2=     1 NClLst=     1 CellRange=     0.0.
 One-electron integrals computed using PRISM.
 One-electron integral symmetry used in STVInt
 NBasis=    94 RedAO= T EigKep=  7.11D-05  NBF=    48    46
 NBsUse=    94 1.00D-06 EigRej= -1.00D+00 NBFU=    48    46
 Leave Link  302 at Tue Oct 10 11:48:44 2017, MaxMem=    33554432 cpu:         1.1
 (Enter /usr/local/gaussian/2009-E.01/g09/l303.exe)
 DipDrv:  MaxL=1.
 Leave Link  303 at Tue Oct 10 11:48:44 2017, MaxMem=    33554432 cpu:         0.2
 (Enter /usr/local/gaussian/2009-E.01/g09/l401.exe)
 ExpMin= 3.60D-02 ExpMax= 4.56D+03 ExpMxC= 6.82D+02 IAcc=3 IRadAn=         5 AccDes= 0.00D+00
 Harris functional with IExCor=  205 and IRadAn=       5 diagonalized for initial guess.
 HarFok:  IExCor=  205 AccDes= 0.00D+00 IRadAn=         5 IDoV= 1 UseB2=F ITyADJ=14
 ICtDFT=  3500011 ScaDFX=  1.000000  1.000000  1.000000  1.000000
 FoFCou: FMM=F IPFlag=           0 FMFlag=      100000 FMFlg1=           0
         NFxFlg=           0 DoJE=T BraDBF=F KetDBF=T FulRan=T
         wScrn=  0.000000 ICntrl=     500 IOpCl=  0 I1Cent=   200000004 NGrid=           0
         NMat0=    1 NMatS0=      1 NMatT0=    0 NMatD0=    1 NMtDS0=    0 NMtDT0=    0
 Petite list used in FoFCou.
 Harris En= -115.525061108042    
 JPrj=0 DoOrth=F DoCkMO=F.
 Initial guess orbital symmetries:
 Alpha Orbitals:
       Occupied  (A) (A) (B) (A) (B) (A) (A) (B) (B) (A) (B) (A)
       Virtual   (B) (A) (B) (A) (B) (B) (A) (B) (A) (B) (A) (A)
                 (A) (B) (A) (A) (B) (B) (B) (B) (A) (B) (A) (A)
                 (B) (B) (A) (A) (A) (B) (B) (B) (A) (A) (B) (B)
                 (A) (B) (A) (A) (A) (B) (B) (A) (A) (B) (B) (A)
                 (B) (A) (A) (B) (B) (A) (B) (B) (A) (B) (A) (A)
                 (B) (A) (B) (A) (B) (A) (A) (A) (B) (A) (B) (B)
                 (A) (B) (B) (A) (B) (B) (A) (A) (B) (A)
 Beta  Orbitals:
       Occupied  (A) (A) (B) (A) (B) (A) (A) (B) (B)
       Virtual   (A) (B) (A) (B) (A) (B) (A) (B) (B) (A) (B) (A)
                 (B) (A) (A) (A) (B) (A) (A) (B) (B) (B) (B) (A)
                 (B) (A) (A) (B) (B) (A) (A) (A) (B) (B) (B) (A)
                 (A) (B) (B) (A) (B) (A) (A) (A) (B) (B) (A) (A)
                 (B) (B) (A) (B) (A) (A) (B) (B) (A) (B) (B) (A)
                 (B) (A) (A) (B) (A) (B) (A) (B) (A) (A) (A) (B)
                 (A) (B) (B) (A) (B) (B) (A) (B) (B) (A) (A) (B)
                 (A)
 The electronic state of the initial guess is 4-B.
 Initial guess <Sx>= 0.0000 <Sy>= 0.0000 <Sz>= 1.5000 <S**2>= 3.7500 S= 1.5000
 Leave Link  401 at Tue Oct 10 11:48:44 2017, MaxMem=    33554432 cpu:         1.7
 (Enter /usr/local/gaussian/2009-E.01/g09/l502.exe)
 UHF open shell SCF:
 Using DIIS extrapolation, IDIIS=  1040.
 Integral symmetry usage will be decided dynamically.
 Keep R1 and R2 ints in memory in symmetry-blocked form, NReq=15018898.
 IVT=       48417 IEndB=       48417 NGot=    33554432 MDV=    23522518
 LenX=    23522518 LenY=    23512668
 Requested convergence on RMS density matrix=1.00D-08 within 128 cycles.
 Requested convergence on MAX density matrix=1.00D-06.
 Requested convergence on             energy=1.00D-06.
 No special actions if energy rises.
 FoFCou: FMM=F IPFlag=           0 FMFlag=           0 FMFlg1=           0
         NFxFlg=           0 DoJE=F BraDBF=F KetDBF=F FulRan=T
         wScrn=  0.000000 ICntrl=     600 IOpCl=  0 I1Cent=           0 NGrid=           0
         NMat0=    1 NMatS0=   4465 NMatT0=    0 NMatD0=    1 NMtDS0=    0 NMtDT0=    0
 Petite list used in FoFCou.

 Cycle   1  Pass 1  IDiag  1:
 E= -115.388720090330    
 DIIS: error= 4.31D-02 at cycle   1 NSaved=   1.
 NSaved= 1 IEnMin= 1 EnMin= -115.388720090330     IErMin= 1 ErrMin= 4.31D-02
 ErrMax= 4.31D-02  0.00D+00 EMaxC= 1.00D-01 BMatC= 7.53D-01 BMatP= 7.53D-01
 IDIUse=3 WtCom= 5.69D-01 WtEn= 4.31D-01
 Coeff-Com:  0.100D+01
 Coeff-En:   0.100D+01
 Coeff:      0.100D+01
 Gap=     0.557 Goal=   None    Shift=    0.000
 Gap=     0.553 Goal=   None    Shift=    0.000
 GapD=    0.553 DampG=2.000 DampE=0.500 DampFc=1.0000 IDamp=-1.
 RMSDP=3.68D-03 MaxDP=7.51D-02              OVMax= 8.55D-02

 Cycle   2  Pass 1  IDiag  1:
 E= -115.468311348385     Delta-E=       -0.079591258055 Rises=F Damp=F
 DIIS: error= 1.55D-02 at cycle   2 NSaved=   2.
 NSaved= 2 IEnMin= 2 EnMin= -115.468311348385     IErMin= 2 ErrMin= 1.55D-02
 ErrMax= 1.55D-02  0.00D+00 EMaxC= 1.00D-01 BMatC= 3.37D-02 BMatP= 7.53D-01
 IDIUse=3 WtCom= 8.45D-01 WtEn= 1.55D-01
 Coeff-Com:  0.292D-01 0.971D+00
 Coeff-En:   0.000D+00 0.100D+01
 Coeff:      0.247D-01 0.975D+00
 Gap=     0.545 Goal=   None    Shift=    0.000
 Gap=     0.590 Goal=   None    Shift=    0.000
 RMSDP=1.06D-03 MaxDP=2.91D-02 DE=-7.96D-02 OVMax= 5.57D-02

 Cycle   3  Pass 1  IDiag  1:
 E= -115.478826652473     Delta-E=       -0.010515304087 Rises=F Damp=F
 DIIS: error= 7.17D-03 at cycle   3 NSaved=   3.
 NSaved= 3 IEnMin= 3 EnMin= -115.478826652473     IErMin= 3 ErrMin= 7.17D-03
 ErrMax= 7.17D-03  0.00D+00 EMaxC= 1.00D-01 BMatC= 6.32D-03 BMatP= 3.37D-02
 IDIUse=3 WtCom= 9.28D-01 WtEn= 7.17D-02
 Coeff-Com: -0.347D-01 0.205D+00 0.830D+00
 Coeff-En:   0.000D+00 0.000D+00 0.100D+01
 Coeff:     -0.322D-01 0.190D+00 0.842D+00
 Gap=     0.544 Goal=   None    Shift=    0.000
 Gap=     0.580 Goal=   None    Shift=    0.000
 RMSDP=4.93D-04 MaxDP=1.06D-02 DE=-1.05D-02 OVMax= 1.78D-02

 Cycle   4  Pass 1  IDiag  1:
 E= -115.481295751376     Delta-E=       -0.002469098903 Rises=F Damp=F
 DIIS: error= 2.77D-03 at cycle   4 NSaved=   4.
 NSaved= 4 IEnMin= 4 EnMin= -115.481295751376     IErMin= 4 ErrMin= 2.77D-03
 ErrMax= 2.77D-03  0.00D+00 EMaxC= 1.00D-01 BMatC= 9.28D-04 BMatP= 6.32D-03
 IDIUse=3 WtCom= 9.72D-01 WtEn= 2.77D-02
 Coeff-Com:  0.188D-01-0.213D+00-0.482D+00 0.168D+01
 Coeff-En:   0.000D+00 0.000D+00 0.000D+00 0.100D+01
 Coeff:      0.182D-01-0.207D+00-0.469D+00 0.166D+01
 Gap=     0.547 Goal=   None    Shift=    0.000
 Gap=     0.586 Goal=   None    Shift=    0.000
 RMSDP=4.16D-04 MaxDP=6.35D-03 DE=-2.47D-03 OVMax= 1.85D-02

 Cycle   5  Pass 1  IDiag  1:
 E= -115.482238742365     Delta-E=       -0.000942990989 Rises=F Damp=F
 DIIS: error= 7.23D-04 at cycle   5 NSaved=   5.
 NSaved= 5 IEnMin= 5 EnMin= -115.482238742365     IErMin= 5 ErrMin= 7.23D-04
 ErrMax= 7.23D-04  0.00D+00 EMaxC= 1.00D-01 BMatC= 1.05D-04 BMatP= 9.28D-04
 IDIUse=3 WtCom= 9.93D-01 WtEn= 7.23D-03
 Coeff-Com: -0.754D-02 0.107D+00 0.224D+00-0.103D+01 0.170D+01
 Coeff-En:   0.000D+00 0.000D+00 0.000D+00 0.000D+00 0.100D+01
 Coeff:     -0.749D-02 0.106D+00 0.223D+00-0.102D+01 0.170D+01
 Gap=     0.548 Goal=   None    Shift=    0.000
 Gap=     0.587 Goal=   None    Shift=    0.000
 RMSDP=1.70D-04 MaxDP=2.60D-03 DE=-9.43D-04 OVMax= 7.43D-03

 Cycle   6  Pass 1  IDiag  1:
 E= -115.482356472662     Delta-E=       -0.000117730298 Rises=F Damp=F
 DIIS: error= 2.20D-04 at cycle   6 NSaved=   6.
 NSaved= 6 IEnMin= 6 EnMin= -115.482356472662     IErMin= 6 ErrMin= 2.20D-04
 ErrMax= 2.20D-04  0.00D+00 EMaxC= 1.00D-01 BMatC= 1.10D-05 BMatP= 1.05D-04
 IDIUse=3 WtCom= 9.98D-01 WtEn= 2.20D-03
 Coeff-Com: -0.699D-03 0.655D-02 0.139D-01-0.138D-01-0.326D+00 0.132D+01
 Coeff-En:   0.000D+00 0.000D+00 0.000D+00 0.000D+00 0.000D+00 0.100D+01
 Coeff:     -0.698D-03 0.654D-02 0.138D-01-0.138D-01-0.325D+00 0.132D+01
 Gap=     0.548 Goal=   None    Shift=    0.000
 Gap=     0.588 Goal=   None    Shift=    0.000
 RMSDP=6.23D-05 MaxDP=1.36D-03 DE=-1.18D-04 OVMax= 3.10D-03

 Cycle   7  Pass 1  IDiag  1:
 E= -115.482369570326     Delta-E=       -0.000013097664 Rises=F Damp=F
 DIIS: error= 8.77D-05 at cycle   7 NSaved=   7.
 NSaved= 7 IEnMin= 7 EnMin= -115.482369570326     IErMin= 7 ErrMin= 8.77D-05
 ErrMax= 8.77D-05  0.00D+00 EMaxC= 1.00D-01 BMatC= 1.61D-06 BMatP= 1.10D-05
 IDIUse=1 WtCom= 1.00D+00 WtEn= 0.00D+00
 Coeff-Com:  0.738D-03-0.115D-01-0.216D-01 0.986D-01-0.123D+00-0.233D+00
 Coeff-Com:  0.129D+01
 Coeff:      0.738D-03-0.115D-01-0.216D-01 0.986D-01-0.123D+00-0.233D+00
 Coeff:      0.129D+01
 Gap=     0.548 Goal=   None    Shift=    0.000
 Gap=     0.588 Goal=   None    Shift=    0.000
 RMSDP=2.21D-05 MaxDP=5.81D-04 DE=-1.31D-05 OVMax= 1.34D-03

 Cycle   8  Pass 1  IDiag  1:
 E= -115.482371568400     Delta-E=       -0.000001998074 Rises=F Damp=F
 DIIS: error= 3.57D-05 at cycle   8 NSaved=   8.
 NSaved= 8 IEnMin= 8 EnMin= -115.482371568400     IErMin= 8 ErrMin= 3.57D-05
 ErrMax= 3.57D-05  0.00D+00 EMaxC= 1.00D-01 BMatC= 3.25D-07 BMatP= 1.61D-06
 IDIUse=1 WtCom= 1.00D+00 WtEn= 0.00D+00
 Coeff-Com: -0.621D-04 0.172D-02 0.439D-02-0.267D-01 0.998D-01-0.189D+00
 Coeff-Com: -0.388D+00 0.150D+01
 Coeff:     -0.621D-04 0.172D-02 0.439D-02-0.267D-01 0.998D-01-0.189D+00
 Coeff:     -0.388D+00 0.150D+01
 Gap=     0.548 Goal=   None    Shift=    0.000
 Gap=     0.588 Goal=   None    Shift=    0.000
 RMSDP=1.12D-05 MaxDP=2.84D-04 DE=-2.00D-06 OVMax= 7.38D-04

 Cycle   9  Pass 1  IDiag  1:
 E= -115.482371992247     Delta-E=       -0.000000423847 Rises=F Damp=F
 DIIS: error= 1.09D-05 at cycle   9 NSaved=   9.
 NSaved= 9 IEnMin= 9 EnMin= -115.482371992247     IErMin= 9 ErrMin= 1.09D-05
 ErrMax= 1.09D-05  0.00D+00 EMaxC= 1.00D-01 BMatC= 3.15D-08 BMatP= 3.25D-07
 IDIUse=1 WtCom= 1.00D+00 WtEn= 0.00D+00
 Coeff-Com: -0.386D-04 0.586D-03 0.452D-03-0.176D-02-0.181D-01 0.911D-01
 Coeff-Com: -0.405D-01-0.457D+00 0.143D+01
 Coeff:     -0.386D-04 0.586D-03 0.452D-03-0.176D-02-0.181D-01 0.911D-01
 Coeff:     -0.405D-01-0.457D+00 0.143D+01
 Gap=     0.548 Goal=   None    Shift=    0.000
 Gap=     0.588 Goal=   None    Shift=    0.000
 RMSDP=3.06D-06 MaxDP=4.01D-05 DE=-4.24D-07 OVMax= 2.03D-04

 Cycle  10  Pass 1  IDiag  1:
 E= -115.482372030033     Delta-E=       -0.000000037785 Rises=F Damp=F
 DIIS: error= 3.87D-06 at cycle  10 NSaved=  10.
 NSaved=10 IEnMin=10 EnMin= -115.482372030033     IErMin=10 ErrMin= 3.87D-06
 ErrMax= 3.87D-06  0.00D+00 EMaxC= 1.00D-01 BMatC= 3.74D-09 BMatP= 3.15D-08
 IDIUse=1 WtCom= 1.00D+00 WtEn= 0.00D+00
 Coeff-Com:  0.208D-04-0.422D-03-0.597D-03 0.327D-02-0.299D-03-0.268D-01
 Coeff-Com:  0.612D-01 0.599D-01-0.680D+00 0.158D+01
 Coeff:      0.208D-04-0.422D-03-0.597D-03 0.327D-02-0.299D-03-0.268D-01
 Coeff:      0.612D-01 0.599D-01-0.680D+00 0.158D+01
 Gap=     0.548 Goal=   None    Shift=    0.000
 Gap=     0.588 Goal=   None    Shift=    0.000
 RMSDP=9.18D-07 MaxDP=1.16D-05 DE=-3.78D-08 OVMax= 4.68D-05

 Cycle  11  Pass 1  IDiag  1:
 E= -115.482372034242     Delta-E=       -0.000000004209 Rises=F Damp=F
 DIIS: error= 1.28D-06 at cycle  11 NSaved=  11.
 NSaved=11 IEnMin=11 EnMin= -115.482372034242     IErMin=11 ErrMin= 1.28D-06
 ErrMax= 1.28D-06  0.00D+00 EMaxC= 1.00D-01 BMatC= 3.65D-10 BMatP= 3.74D-09
 IDIUse=1 WtCom= 1.00D+00 WtEn= 0.00D+00
 Coeff-Com: -0.109D-04 0.201D-03 0.372D-03-0.194D-02 0.267D-02 0.414D-02
 Coeff-Com: -0.311D-01 0.274D-01 0.183D+00-0.805D+00 0.162D+01
 Coeff:     -0.109D-04 0.201D-03 0.372D-03-0.194D-02 0.267D-02 0.414D-02
 Coeff:     -0.311D-01 0.274D-01 0.183D+00-0.805D+00 0.162D+01
 Gap=     0.548 Goal=   None    Shift=    0.000
 Gap=     0.588 Goal=   None    Shift=    0.000
 RMSDP=2.74D-07 MaxDP=4.97D-06 DE=-4.21D-09 OVMax= 1.19D-05

 Cycle  12  Pass 1  IDiag  1:
 E= -115.482372034614     Delta-E=       -0.000000000372 Rises=F Damp=F
 DIIS: error= 3.74D-07 at cycle  12 NSaved=  12.
 NSaved=12 IEnMin=12 EnMin= -115.482372034614     IErMin=12 ErrMin= 3.74D-07
 ErrMax= 3.74D-07  0.00D+00 EMaxC= 1.00D-01 BMatC= 2.27D-11 BMatP= 3.65D-10
 IDIUse=1 WtCom= 1.00D+00 WtEn= 0.00D+00
 Coeff-Com:  0.376D-05-0.625D-04-0.141D-03 0.657D-03-0.107D-02-0.256D-03
 Coeff-Com:  0.867D-02-0.116D-01-0.449D-01 0.265D+00-0.728D+00 0.151D+01
 Coeff:      0.376D-05-0.625D-04-0.141D-03 0.657D-03-0.107D-02-0.256D-03
 Coeff:      0.867D-02-0.116D-01-0.449D-01 0.265D+00-0.728D+00 0.151D+01
 Gap=     0.548 Goal=   None    Shift=    0.000
 Gap=     0.588 Goal=   None    Shift=    0.000
 RMSDP=7.35D-08 MaxDP=1.73D-06 DE=-3.72D-10 OVMax= 1.94D-06

 Cycle  13  Pass 1  IDiag  1:
 E= -115.482372034634     Delta-E=       -0.000000000020 Rises=F Damp=F
 DIIS: error= 6.57D-08 at cycle  13 NSaved=  13.
 NSaved=13 IEnMin=13 EnMin= -115.482372034634     IErMin=13 ErrMin= 6.57D-08
 ErrMax= 6.57D-08  0.00D+00 EMaxC= 1.00D-01 BMatC= 1.92D-12 BMatP= 2.27D-11
 IDIUse=1 WtCom= 1.00D+00 WtEn= 0.00D+00
 Coeff-Com: -0.444D-06 0.496D-05 0.210D-04-0.665D-04 0.122D-03-0.168D-03
 Coeff-Com: -0.134D-03 0.552D-03 0.228D-02-0.261D-01 0.119D+00-0.536D+00
 Coeff-Com:  0.144D+01
 Coeff:     -0.444D-06 0.496D-05 0.210D-04-0.665D-04 0.122D-03-0.168D-03
 Coeff:     -0.134D-03 0.552D-03 0.228D-02-0.261D-01 0.119D+00-0.536D+00
 Coeff:      0.144D+01
 Gap=     0.548 Goal=   None    Shift=    0.000
 Gap=     0.588 Goal=   None    Shift=    0.000
 RMSDP=2.29D-08 MaxDP=3.89D-07 DE=-2.04D-11 OVMax= 9.97D-07

 Cycle  14  Pass 1  IDiag  1:
 E= -115.482372034636     Delta-E=       -0.000000000002 Rises=F Damp=F
 DIIS: error= 2.40D-08 at cycle  14 NSaved=  14.
 NSaved=14 IEnMin=14 EnMin= -115.482372034636     IErMin=14 ErrMin= 2.40D-08
 ErrMax= 2.40D-08  0.00D+00 EMaxC= 1.00D-01 BMatC= 2.00D-13 BMatP= 1.92D-12
 IDIUse=1 WtCom= 1.00D+00 WtEn= 0.00D+00
 Coeff-Com:  0.302D-07 0.558D-06-0.441D-05 0.141D-05-0.636D-05 0.883D-04
 Coeff-Com: -0.328D-03 0.292D-03 0.113D-02-0.198D-02-0.124D-01 0.163D+00
 Coeff-Com: -0.766D+00 0.162D+01
 Coeff:      0.302D-07 0.558D-06-0.441D-05 0.141D-05-0.636D-05 0.883D-04
 Coeff:     -0.328D-03 0.292D-03 0.113D-02-0.198D-02-0.124D-01 0.163D+00
 Coeff:     -0.766D+00 0.162D+01
 Gap=     0.548 Goal=   None    Shift=    0.000
 Gap=     0.588 Goal=   None    Shift=    0.000
 RMSDP=7.88D-09 MaxDP=1.84D-07 DE=-1.96D-12 OVMax= 3.66D-07

 SCF Done:  E(UHF) =  -115.482372035     A.U. after   14 cycles
            NFock= 14  Conv=0.79D-08     -V/T= 2.0006
 <Sx>= 0.0000 <Sy>= 0.0000 <Sz>= 1.5000 <S**2>= 3.7965 S= 1.5116
 <L.S>= 0.000000000000E+00
 KE= 1.154144136568D+02 PE=-3.833559257884D+02 EE= 9.211502341854D+01
 Annihilation of the first spin contaminant:
 S**2 before annihilation     3.7965,   after     3.7507
 Leave Link  502 at Tue Oct 10 11:48:45 2017, MaxMem=    33554432 cpu:         6.7
 (Enter /usr/local/gaussian/2009-E.01/g09/l801.exe)
 Windowed orbitals will be sorted by symmetry type.
 ExpMin= 3.60D-02 ExpMax= 4.56D+03 ExpMxC= 6.82D+02 IAcc=3 IRadAn=         5 AccDes= 0.00D+00
 HarFok:  IExCor=  205 AccDes= 0.00D+00 IRadAn=         5 IDoV=-2 UseB2=F ITyADJ=14
 ICtDFT= 12500011 ScaDFX=  1.000000  1.000000  1.000000  1.000000
 Largest valence mixing into a core orbital is  1.13D-04
 Largest core mixing into a valence orbital is  3.15D-05
 Largest valence mixing into a core orbital is  1.73D-04
 Largest core mixing into a valence orbital is  4.91D-05
 Range of M.O.s used for correlation:     4    94
 NBasis=    94 NAE=    12 NBE=     9 NFC=     3 NFV=     0
 NROrb=     91 NOA=     9 NOB=     6 NVA=    82 NVB=    85

 **** Warning!!: The largest alpha MO coefficient is  0.58039573D+02


 **** Warning!!: The largest beta MO coefficient is  0.60098714D+02

 Leave Link  801 at Tue Oct 10 11:48:45 2017, MaxMem=    33554432 cpu:         0.5
 (Enter /usr/local/gaussian/2009-E.01/g09/l804.exe)
 Open-shell transformation, MDV=    33554432 ITran=4 ISComp=2.
 Semi-Direct transformation.
 ModeAB=           4 MOrb=             9 LenV=      33193109
 LASXX=      1571261 LTotXX=     1571261 LenRXX=     3210195
 LTotAB=     1638934 MaxLAS=     2180178 LenRXY=           0
 NonZer=     4781456 LenScr=     7884800 LnRSAI=     2180178
 LnScr1=     3929600 LExtra=           0 Total=     17204773
 MaxDsk=          -1 SrtSym=           T ITran=            4
 DoSDTr:  NPSUse=  8
 JobTyp=1 Pass  1:  I=   1 to   9.
 (rs|ai) integrals will be sorted in core.
 Complete sort for first half transformation.
 First half transformation complete.
 Complete sort for second half transformation.
 Second half transformation complete.
 ModeAB=           4 MOrb=             6 LenV=      33193109
 LASXX=      1071129 LTotXX=     1071129 LenRXX=     1974687
 LTotAB=      903558 MaxLAS=     1453452 LenRXY=           0
 NonZer=     3045816 LenScr=     5329408 LnRSAI=     1453452
 LnScr1=     2906112 LExtra=           0 Total=     11663659
 MaxDsk=          -1 SrtSym=           T ITran=            4
 DoSDTr:  NPSUse=  8
 JobTyp=2 Pass  1:  I=   1 to   6.
 (rs|ai) integrals will be sorted in core.
 Complete sort for first half transformation.
 First half transformation complete.
 Complete sort for second half transformation.
 Second half transformation complete.
 Spin components of T(2) and E(2):
     alpha-alpha T2 =       0.1995227813D-01 E2=     -0.5646128052D-01
     alpha-beta  T2 =       0.8199118285D-01 E2=     -0.2471519708D+00
     beta-beta   T2 =       0.9111472359D-02 E2=     -0.2513343434D-01
 ANorm=    0.1054065906D+01
 E2 =    -0.3287466857D+00 EUMP2 =    -0.11581111872033D+03
 (S**2,0)=  0.37965D+01           (S**2,1)=  0.37684D+01
 E(PUHF)=      -0.11548758552D+03        E(PMP2)=      -0.11581477418D+03
 Leave Link  804 at Tue Oct 10 11:48:46 2017, MaxMem=    33554432 cpu:         7.8
 (Enter /usr/local/gaussian/2009-E.01/g09/l913.exe)
 CIDS:  MDV=    33554432.
 Frozen-core window:  NFC=   3 NFV=   0.
 IFCWin=0 IBDFC=1 NFBD=     0     0 NFCmp=     0     0 NFFFC=     0     0
 Using original routines for 1st iteration, S=T.
 Using DD4UQ or CC4UQ for 2nd and later iterations.
 Keep R2 and R3 ints in memory in symmetry-blocked form, NReq=14971923.
 FoFCou: FMM=F IPFlag=           0 FMFlag=           0 FMFlg1=           0
         NFxFlg=           0 DoJE=F BraDBF=F KetDBF=F FulRan=T
         wScrn=  0.000000 ICntrl=     600 IOpCl=  0 I1Cent=           0 NGrid=           0
         NMat0=    1 NMatS0=   4465 NMatT0=    0 NMatD0=    1 NMtDS0=    0 NMtDT0=    0
 Petite list used in FoFCou.
 CCSD(T)
 =======
 Iterations= 200 Convergence= 0.100D-06
 Iteration Nr.   1
 **********************
 DD1Dir will call FoFMem   1 times, MxPair=       160
 NAB=    54 NAA=    36 NBB=    15.
 E(PMP3)=      -0.11584765653D+03
 MP4(R+Q)=  0.71182673D-02
 Maximum subspace dimension=  5
 Norm of the A-vectors is  4.7100019D-01 conv= 1.00D-05.
 RLE energy=       -0.3583259685
 E3=       -0.34241126D-01        EUMP3=      -0.11584535985D+03
 E4(DQ)=   -0.21837562D-02        UMP4(DQ)=   -0.11584754360D+03
 E4(SDQ)=  -0.55624166D-02        UMP4(SDQ)=  -0.11585092226D+03
 VARIATIONAL ENERGIES WITH THE FIRST-ORDER WAVEFUNCTION:
 DE(Corr)= -0.35588424     E(Corr)=     -115.83825628    
 NORM(A)=   0.10668214D+01
 Iteration Nr.   2
 **********************
 DD1Dir will call FoFMem   1 times, MxPair=       160
 NAB=    54 NAA=    36 NBB=    15.
 Norm of the A-vectors is  1.7285074D-01 conv= 1.00D-05.
 RLE energy=       -0.3691108475
 DE(Corr)= -0.36642146     E(CORR)=     -115.84879350     Delta=-1.05D-02
 NORM(A)=   0.10733147D+01
 Iteration Nr.   3
 **********************
 DD1Dir will call FoFMem   1 times, MxPair=       160
 NAB=    54 NAA=    36 NBB=    15.
 Norm of the A-vectors is  5.2265359D-02 conv= 1.00D-05.
 RLE energy=       -0.3701769615
 DE(Corr)= -0.36899086     E(CORR)=     -115.85136289     Delta=-2.57D-03
 NORM(A)=   0.10758163D+01
 Iteration Nr.   4
 **********************
 DD1Dir will call FoFMem   1 times, MxPair=       160
 NAB=    54 NAA=    36 NBB=    15.
 Norm of the A-vectors is  2.5375686D-02 conv= 1.00D-05.
 RLE energy=       -0.3705189990
 DE(Corr)= -0.37027515     E(CORR)=     -115.85264719     Delta=-1.28D-03
 NORM(A)=   0.10767849D+01
 Iteration Nr.   5
 **********************
 DD1Dir will call FoFMem   1 times, MxPair=       160
 NAB=    54 NAA=    36 NBB=    15.
 Norm of the A-vectors is  7.9107735D-03 conv= 1.00D-05.
 RLE energy=       -0.3705315882
 DE(Corr)= -0.37049419     E(CORR)=     -115.85286622     Delta=-2.19D-04
 NORM(A)=   0.10770032D+01
 Iteration Nr.   6
 **********************
 DD1Dir will call FoFMem   1 times, MxPair=       160
 NAB=    54 NAA=    36 NBB=    15.
 Norm of the A-vectors is  3.1647885D-03 conv= 1.00D-05.
 RLE energy=       -0.3705014895
 DE(Corr)= -0.37052002     E(CORR)=     -115.85289205     Delta=-2.58D-05
 NORM(A)=   0.10770201D+01
 Iteration Nr.   7
 **********************
 DD1Dir will call FoFMem   1 times, MxPair=       160
 NAB=    54 NAA=    36 NBB=    15.
 Norm of the A-vectors is  1.0984949D-03 conv= 1.00D-05.
 RLE energy=       -0.3705228295
 DE(Corr)= -0.37051749     E(CORR)=     -115.85288952     Delta= 2.53D-06
 NORM(A)=   0.10770376D+01
 Iteration Nr.   8
 **********************
 DD1Dir will call FoFMem   1 times, MxPair=       160
 NAB=    54 NAA=    36 NBB=    15.
 Norm of the A-vectors is  4.6587085D-04 conv= 1.00D-05.
 RLE energy=       -0.3705169117
 DE(Corr)= -0.37051785     E(CORR)=     -115.85288988     Delta=-3.62D-07
 NORM(A)=   0.10770378D+01
 Iteration Nr.   9
 **********************
 DD1Dir will call FoFMem   1 times, MxPair=       160
 NAB=    54 NAA=    36 NBB=    15.
 Norm of the A-vectors is  1.7194437D-04 conv= 1.00D-05.
 RLE energy=       -0.3705198626
 DE(Corr)= -0.37051911     E(CORR)=     -115.85289114     Delta=-1.26D-06
 NORM(A)=   0.10770391D+01
 Iteration Nr.  10
 **********************
 DD1Dir will call FoFMem   1 times, MxPair=       160
 NAB=    54 NAA=    36 NBB=    15.
 Norm of the A-vectors is  7.4191647D-05 conv= 1.00D-05.
 RLE energy=       -0.3705190806
 DE(Corr)= -0.37051906     E(CORR)=     -115.85289110     Delta= 4.41D-08
 NORM(A)=   0.10770391D+01
 Iteration Nr.  11
 **********************
 DD1Dir will call FoFMem   1 times, MxPair=       160
 NAB=    54 NAA=    36 NBB=    15.
 Norm of the A-vectors is  3.2722578D-05 conv= 1.00D-05.
 RLE energy=       -0.3705193250
 DE(Corr)= -0.37051930     E(CORR)=     -115.85289134     Delta=-2.39D-07
 NORM(A)=   0.10770392D+01
 Iteration Nr.  12
 **********************
 DD1Dir will call FoFMem   1 times, MxPair=       160
 NAB=    54 NAA=    36 NBB=    15.
 Norm of the A-vectors is  1.4766215D-05 conv= 1.00D-05.
 RLE energy=       -0.3705193226
 DE(Corr)= -0.37051928     E(CORR)=     -115.85289132     Delta= 1.70D-08
 NORM(A)=   0.10770394D+01
 Iteration Nr.  13
 **********************
 DD1Dir will call FoFMem   1 times, MxPair=       160
 NAB=    54 NAA=    36 NBB=    15.
 Norm of the A-vectors is  7.5725300D-06 conv= 1.00D-05.
 RLE energy=       -0.3705193247
 DE(Corr)= -0.37051932     E(CORR)=     -115.85289136     Delta=-3.80D-08
 NORM(A)=   0.10770395D+01
 CI/CC converged in   13 iterations to DelEn=-3.80D-08 Conv= 1.00D-07 ErrA1= 7.57D-06 Conv= 1.00D-05
 Largest amplitude= 4.65D-02
 Time for triples=      277.56 seconds.
 T4(CCSD)= -0.13695043D-01
 T5(CCSD)=  0.54812255D-03
 CCSD(T)= -0.11586603828D+03

 S**2, projected HF & approx projected MPn energies after annihilation of
 unwanted spin states (see manual for definitions):

 spins       (S**2,0) (S**2,1)    PUHF        PMP2        PMP3        PMP4
 annihilated
 s+1         3.74951  3.75013 -115.487586 -115.814774 -115.847656
 s+1,s+2     3.75000  3.75000 -115.487534 -115.814729 -115.847617
 s+1 to s+3  3.75000  3.75000 -115.487534 -115.814729 -115.847617
 s+1 to s+4  3.75000  3.75000 -115.487534 -115.814729 -115.847617
 s+1 to s+5  3.75000  3.75000 -115.487534
 s+1 to s+6  3.75000  3.75000 -115.487534

 Discarding MO integrals.
 Leave Link  913 at Tue Oct 10 11:50:01 2017, MaxMem=    33554432 cpu:       550.0
 (Enter /usr/local/gaussian/2009-E.01/g09/l601.exe)
 Copying SCF densities to generalized density rwf, IOpCl= 1 IROHF=0.

 **********************************************************************

            Population analysis using the SCF density.

 **********************************************************************

 Orbital symmetries:
 Alpha Orbitals:
       Occupied  (A) (B) (A) (A) (B) (A) (B) (A) (B) (A) (B) (A)
       Virtual   (B) (A) (A) (B) (B) (B) (A) (A) (B) (A) (A) (B)
                 (A) (B) (A) (B) (B) (A) (B) (B) (A) (B) (A) (A)
                 (B) (A) (B) (A) (A) (B) (B) (B) (A) (B) (A) (B)
                 (A) (B) (A) (A) (B) (A) (B) (A) (A) (B) (B) (A)
                 (B) (A) (B) (A) (B) (A) (B) (B) (A) (B) (A) (A)
                 (B) (A) (B) (A) (B) (A) (A) (A) (B) (A) (B) (B)
                 (A) (B) (B) (A) (B) (B) (A) (B) (A) (A)
 Beta  Orbitals:
       Occupied  (A) (B) (A) (A) (B) (A) (A) (B) (B)
       Virtual   (A) (B) (A) (A) (B) (A) (B) (B) (A) (A) (B) (A)
                 (B) (A) (B) (A) (B) (A) (B) (B) (A) (B) (A) (B)
                 (B) (A) (A) (B) (A) (B) (A) (B) (A) (B) (B) (B)
                 (A) (A) (B) (A) (B) (A) (A) (A) (B) (B) (A) (A)
                 (B) (B) (A) (B) (A) (B) (A) (B) (A) (B) (A) (B)
                 (B) (A) (A) (B) (A) (B) (A) (B) (A) (A) (B) (A)
                 (A) (B) (B) (B) (A) (B) (A) (B) (B) (A) (A) (B)
                 (A)
 The electronic state is 4-B.
 Alpha  occ. eigenvalues --  -11.59305 -11.59280 -11.52301  -1.43726  -1.15319
 Alpha  occ. eigenvalues --   -1.09171  -0.93331  -0.90989  -0.83458  -0.71065
 Alpha  occ. eigenvalues --   -0.70045  -0.68370
 Alpha virt. eigenvalues --   -0.13538  -0.09699  -0.08006  -0.07848  -0.05988
 Alpha virt. eigenvalues --   -0.02583  -0.02344  -0.01444  -0.01081  -0.00652
 Alpha virt. eigenvalues --    0.02825   0.02977   0.03787   0.04885   0.05479
 Alpha virt. eigenvalues --    0.05939   0.07193   0.08801   0.08866   0.16811
 Alpha virt. eigenvalues --    0.18055   0.22755   0.25036   0.36439   0.37589
 Alpha virt. eigenvalues --    0.41618   0.43278   0.46116   0.48062   0.51200
 Alpha virt. eigenvalues --    0.53483   0.62211   0.63089   0.63917   0.66434
 Alpha virt. eigenvalues --    0.67044   0.70931   0.77409   0.85511   1.00121
 Alpha virt. eigenvalues --    1.06615   1.07840   1.23718   1.23965   1.30055
 Alpha virt. eigenvalues --    1.41946   1.52479   1.52829   1.54287   1.54476
 Alpha virt. eigenvalues --    1.68562   1.69733   1.81561   1.86837   1.95320
 Alpha virt. eigenvalues --    1.99576   1.99982   2.03045   2.13559   2.16418
 Alpha virt. eigenvalues --    2.30687   2.34898   2.52198   2.56897   2.62655
 Alpha virt. eigenvalues --    2.63986   2.74245   2.77532   2.77987   2.85960
 Alpha virt. eigenvalues --    2.89192   3.02095   3.06846   3.08407   3.47432
 Alpha virt. eigenvalues --    3.48342   3.89809   4.17269   4.28442  24.56882
 Alpha virt. eigenvalues --   24.57116  24.87928
  Beta  occ. eigenvalues --  -11.55345 -11.55338 -11.52840  -1.36118  -1.01933
  Beta  occ. eigenvalues --   -1.00911  -0.87480  -0.84680  -0.80139
  Beta virt. eigenvalues --   -0.21359  -0.16865  -0.12815  -0.08959  -0.08207
  Beta virt. eigenvalues --   -0.07628  -0.06646  -0.03466  -0.01891   0.00096
  Beta virt. eigenvalues --    0.00578   0.01697   0.01713   0.03660   0.04524
  Beta virt. eigenvalues --    0.05170   0.05783   0.05923   0.06656   0.10180
  Beta virt. eigenvalues --    0.10951   0.11819   0.19407   0.19456   0.24453
  Beta virt. eigenvalues --    0.28053   0.38411   0.40445   0.44048   0.48474
  Beta virt. eigenvalues --    0.51488   0.56536   0.57508   0.58559   0.64326
  Beta virt. eigenvalues --    0.66264   0.66438   0.70072   0.70356   0.74564
  Beta virt. eigenvalues --    0.81955   0.87203   1.06774   1.10279   1.15604
  Beta virt. eigenvalues --    1.31960   1.32065   1.38402   1.45887   1.55743
  Beta virt. eigenvalues --    1.55761   1.57029   1.58537   1.71189   1.71619
  Beta virt. eigenvalues --    1.85904   1.91249   1.99065   2.02482   2.02492
  Beta virt. eigenvalues --    2.07210   2.17791   2.18551   2.32387   2.37226
  Beta virt. eigenvalues --    2.54526   2.57889   2.63390   2.65140   2.78817
  Beta virt. eigenvalues --    2.78915   2.80480   2.89440   2.94327   3.07075
  Beta virt. eigenvalues --    3.12835   3.13344   3.49504   3.50698   3.90223
  Beta virt. eigenvalues --    4.19330   4.29575  24.59115  24.59768  24.88440
          Condensed to atoms (all electrons):
               1          2          3          4          5          6
     1  C    5.238771   0.163363   0.078404  -0.028087   0.397688  -0.039641
     2  C    0.163363   5.238771   0.078404  -0.039641  -0.008856  -0.028087
     3  C    0.078404   0.078404   5.460730   0.437558  -0.020503   0.437558
     4  H   -0.028087  -0.039641   0.437558   0.372926   0.004100  -0.007450
     5  H    0.397688  -0.008856  -0.020503   0.004100   0.362775  -0.002271
     6  H   -0.039641  -0.028087   0.437558  -0.007450  -0.002271   0.372926
     7  H   -0.008856   0.397688  -0.020503  -0.002271   0.002470   0.004100
               7
     1  C   -0.008856
     2  C    0.397688
     3  C   -0.020503
     4  H   -0.002271
     5  H    0.002470
     6  H    0.004100
     7  H    0.362775
          Atomic-Atomic Spin Densities.
               1          2          3          4          5          6
     1  C    1.665418   0.067991  -0.081219  -0.016933  -0.005723  -0.005650
     2  C    0.067991   1.665418  -0.081219  -0.005650  -0.008164  -0.016933
     3  C   -0.081219  -0.081219  -0.285609   0.043570  -0.000113   0.043570
     4  H   -0.016933  -0.005650   0.043570   0.104671  -0.000640  -0.006838
     5  H   -0.005723  -0.008164  -0.000113  -0.000640  -0.039066   0.000252
     6  H   -0.005650  -0.016933   0.043570  -0.006838   0.000252   0.104671
     7  H   -0.008164  -0.005723  -0.000113   0.000252  -0.000131  -0.000640
               7
     1  C   -0.008164
     2  C   -0.005723
     3  C   -0.000113
     4  H    0.000252
     5  H   -0.000131
     6  H   -0.000640
     7  H   -0.039066
 Mulliken charges and spin densities:
               1          2
     1  C    0.198358   1.615720
     2  C    0.198358   1.615720
     3  C   -0.451647  -0.361133
     4  H    0.262867   0.118431
     5  H    0.264599  -0.053584
     6  H    0.262867   0.118431
     7  H    0.264599  -0.053584
 Sum of Mulliken charges =   1.00000   3.00000
 Mulliken charges and spin densities with hydrogens summed into heavy atoms:
               1          2
     1  C    0.462957   1.562136
     2  C    0.462957   1.562136
     3  C    0.074086  -0.124272
 Electronic spatial extent (au):  <R**2>=            127.9708
 Charge=              1.0000 electrons
 Dipole moment (field-independent basis, Debye):
    X=              0.0000    Y=              0.0000    Z=             -0.4490  Tot=              0.4490
 Quadrupole moment (field-independent basis, Debye-Ang):
   XX=            -14.8696   YY=            -11.8248   ZZ=            -12.3060
   XY=              2.6432   XZ=              0.0000   YZ=             -0.0000
 Traceless Quadrupole moment (field-independent basis, Debye-Ang):
   XX=             -1.8695   YY=              1.1754   ZZ=              0.6941
   XY=              2.6432   XZ=              0.0000   YZ=             -0.0000
 Octapole moment (field-independent basis, Debye-Ang**2):
  XXX=              0.0000  YYY=              0.0000  ZZZ=              2.1270  XYY=              0.0000
  XXY=              0.0000  XXZ=              1.2185  XZZ=              0.0000  YZZ=              0.0000
  YYZ=             -4.7709  XYZ=             -2.9718
 Hexadecapole moment (field-independent basis, Debye-Ang**3):
 XXXX=            -23.9718 YYYY=            -68.9334 ZZZZ=            -53.5308 XXXY=             -1.0782
 XXXZ=              0.0000 YYYX=              2.7711 YYYZ=             -0.0000 ZZZX=              0.0000
 ZZZY=             -0.0000 XXYY=            -15.5812 XXZZ=             -9.1882 YYZZ=            -18.7160
 XXYZ=             -0.0000 YYXZ=             -0.0000 ZZXY=              2.6451
 N-N= 6.034411667842D+01 E-N=-3.833559256928D+02  KE= 1.154144136568D+02
 Symmetry A    KE= 7.450772790273D+01
 Symmetry B    KE= 4.090668575408D+01
 Leave Link  601 at Tue Oct 10 11:50:01 2017, MaxMem=    33554432 cpu:         0.2
 (Enter /usr/local/gaussian/2009-E.01/g09/l9999.exe)
 1\1\ WCSS.PL-BEM-WN1424\SP\UCCSD(T)-FC\6-311++G(d,p)\C3H4(1+,4)\ROOT\1
 0-Oct-2017\0\\#p ccsd(t,maxcyc=200)/6-311++G(d,p)\\ccsd(t) iener\\1,4\
 C,0,-1.026276238,-0.318902229,0.576431077\C,0,0.822128802,-0.273995446
 ,0.380026317\C,0,-0.103472,0.792568634,0.714066567\H,0,-0.223954187,1.
 574779954,-0.053605884\H,0,-1.576636252,-0.793669676,-0.233302916\H,0,
 0.015498892,1.187391815,1.736637875\H,0,1.374081788,-1.039875591,0.921
 085389\\Version=ES64L-G09RevE.01\State=4-B\HF=-115.482372\MP2=-115.811
 1187\MP3=-115.8453598\MP4D=-115.8546619\MP4DQ=-115.8475436\PUHF=-115.4
 875855\PMP2-0=-115.8147742\PMP3-0=-115.8476565\MP4SDQ=-115.8509223\CCS
 D=-115.8528914\CCSD(T)=-115.8660383\S2=3.796486\S2-1=3.768406\S2A=3.75
 0698\RMSD=7.877e-09\PG=C02 [C2(C1),X(C2H4)]\\@


 SI MONUMENTUM REQUIRIS, CIRCUMSPICE
     -- FROM SIR CHRISTOPHER WREN'S TOMBSTONE
 Job cpu time:       0 days  0 hours  9 minutes 29.9 seconds.
 File lengths (MBytes):  RWF=    143 Int=      0 D2E=      0 Chk=      2 Scr=      1
 Normal termination of Gaussian 09 at Tue Oct 10 11:50:01 2017.
