 Entering Gaussian System, Link 0=/usr/local/gaussian/2009-E.01/g09/g09
 Initial command:
 /usr/local/gaussian/2009-E.01/g09/l1.exe "/lustre/scratch/eerd/4986703.achilles/Gau-33118.inp" -scrdir="/lustre/scratch/eerd/4986703.achilles/"
 Entering Link 1 = /usr/local/gaussian/2009-E.01/g09/l1.exe PID=     33121.
  
 Copyright (c) 1988,1990,1992,1993,1995,1998,2003,2009,2015,
            Gaussian, Inc.  All Rights Reserved.
  
 This is part of the Gaussian(R) 09 program.  It is based on
 the Gaussian(R) 03 system (copyright 2003, Gaussian, Inc.),
 the Gaussian(R) 98 system (copyright 1998, Gaussian, Inc.),
 the Gaussian(R) 94 system (copyright 1995, Gaussian, Inc.),
 the Gaussian 92(TM) system (copyright 1992, Gaussian, Inc.),
 the Gaussian 90(TM) system (copyright 1990, Gaussian, Inc.),
 the Gaussian 88(TM) system (copyright 1988, Gaussian, Inc.),
 the Gaussian 86(TM) system (copyright 1986, Carnegie Mellon
 University), and the Gaussian 82(TM) system (copyright 1983,
 Carnegie Mellon University). Gaussian is a federally registered
 trademark of Gaussian, Inc.
  
 This software contains proprietary and confidential information,
 including trade secrets, belonging to Gaussian, Inc.
  
 This software is provided under written license and may be
 used, copied, transmitted, or stored only in accord with that
 written license.
  
 The following legend is applicable only to US Government
 contracts under FAR:
  
                    RESTRICTED RIGHTS LEGEND
  
 Use, reproduction and disclosure by the US Government is
 subject to restrictions as set forth in subparagraphs (a)
 and (c) of the Commercial Computer Software - Restricted
 Rights clause in FAR 52.227-19.
  
 Gaussian, Inc.
 340 Quinnipiac St., Bldg. 40, Wallingford CT 06492
  
  
 ---------------------------------------------------------------
 Warning -- This program may not be used in any manner that
 competes with the business of Gaussian, Inc. or will provide
 assistance to any competitor of Gaussian, Inc.  The licensee
 of this program is prohibited from giving any competitor of
 Gaussian, Inc. access to this program.  By using this program,
 the user acknowledges that Gaussian, Inc. is engaged in the
 business of creating and licensing software in the field of
 computational chemistry and represents and warrants to the
 licensee that it is not a competitor of Gaussian, Inc. and that
 it will not use this program in any manner prohibited above.
 ---------------------------------------------------------------
  

 Cite this work as:
 Gaussian 09, Revision E.01,
 M. J. Frisch, G. W. Trucks, H. B. Schlegel, G. E. Scuseria, 
 M. A. Robb, J. R. Cheeseman, G. Scalmani, V. Barone, B. Mennucci, 
 G. A. Petersson, H. Nakatsuji, M. Caricato, X. Li, H. P. Hratchian, 
 A. F. Izmaylov, J. Bloino, G. Zheng, J. L. Sonnenberg, M. Hada, 
 M. Ehara, K. Toyota, R. Fukuda, J. Hasegawa, M. Ishida, T. Nakajima, 
 Y. Honda, O. Kitao, H. Nakai, T. Vreven, J. A. Montgomery, Jr., 
 J. E. Peralta, F. Ogliaro, M. Bearpark, J. J. Heyd, E. Brothers, 
 K. N. Kudin, V. N. Staroverov, T. Keith, R. Kobayashi, J. Normand, 
 K. Raghavachari, A. Rendell, J. C. Burant, S. S. Iyengar, J. Tomasi, 
 M. Cossi, N. Rega, J. M. Millam, M. Klene, J. E. Knox, J. B. Cross, 
 V. Bakken, C. Adamo, J. Jaramillo, R. Gomperts, R. E. Stratmann, 
 O. Yazyev, A. J. Austin, R. Cammi, C. Pomelli, J. W. Ochterski, 
 R. L. Martin, K. Morokuma, V. G. Zakrzewski, G. A. Voth, 
 P. Salvador, J. J. Dannenberg, S. Dapprich, A. D. Daniels, 
 O. Farkas, J. B. Foresman, J. V. Ortiz, J. Cioslowski, 
 and D. J. Fox, Gaussian, Inc., Wallingford CT, 2013.
 
 ******************************************
 Gaussian 09:  ES64L-G09RevE.01 30-Nov-2015
                10-Oct-2017 
 ******************************************
 %NProcShared=8
 Will use up to    8 processors via shared memory.
 -----------------------------------
 #p ccsd(t,maxcyc=200)/6-311++G(d,p)
 -----------------------------------
 1/38=1/1;
 2/12=2,17=6,18=5,40=1/2;
 3/5=4,6=6,7=1111,11=9,16=1,25=1,30=1/1,2,3;
 4//1;
 5/5=2,38=5/2;
 8/6=4,9=120000,10=2/1,4;
 9/5=7,6=200,14=2/13;
 6/7=2,8=2,9=2,10=2/1;
 99/5=1,9=1/99;
 Leave Link    1 at Tue Oct 10 11:14:28 2017, MaxMem=           0 cpu:         4.5
 (Enter /usr/local/gaussian/2009-E.01/g09/l101.exe)
 -------------
 ccsd(t) iener
 -------------
 Symbolic Z-matrix:
 Charge =  1 Multiplicity = 4
 C                    -1.66979   0.43562   0.59666 
 C                     0.38061   0.53581  -0.86208 
 C                    -0.97037  -0.00873  -0.50548 
 H                     1.23847  -1.21457  -0.32624 
 H                     0.67913   0.35443  -1.89355 
 H                     0.57168   1.55493  -0.54008 
 H                    -1.34641  -0.89046  -1.03273 
 O                     0.99327  -0.3656    0.08675 
 
 NAtoms=      8 NQM=        8 NQMF=       0 NMMI=      0 NMMIF=      0
                NMic=       0 NMicF=      0.
                    Isotopes and Nuclear Properties:
 (Nuclear quadrupole moments (NQMom) in fm**2, nuclear magnetic moments (NMagM)
  in nuclear magnetons)

  Atom         1           2           3           4           5           6           7           8
 IAtWgt=          12          12          12           1           1           1           1          16
 AtmWgt=  12.0000000  12.0000000  12.0000000   1.0078250   1.0078250   1.0078250   1.0078250  15.9949146
 NucSpn=           0           0           0           1           1           1           1           0
 AtZEff=   0.0000000   0.0000000   0.0000000   0.0000000   0.0000000   0.0000000   0.0000000   0.0000000
 NQMom=    0.0000000   0.0000000   0.0000000   0.0000000   0.0000000   0.0000000   0.0000000   0.0000000
 NMagM=    0.0000000   0.0000000   0.0000000   2.7928460   2.7928460   2.7928460   2.7928460   0.0000000
 AtZNuc=   6.0000000   6.0000000   6.0000000   1.0000000   1.0000000   1.0000000   1.0000000   8.0000000
 Leave Link  101 at Tue Oct 10 11:14:29 2017, MaxMem=    33554432 cpu:         4.6
 (Enter /usr/local/gaussian/2009-E.01/g09/l202.exe)
                          Input orientation:                          
 ---------------------------------------------------------------------
 Center     Atomic      Atomic             Coordinates (Angstroms)
 Number     Number       Type             X           Y           Z
 ---------------------------------------------------------------------
      1          6           0       -1.669792    0.435621    0.596655
      2          6           0        0.380607    0.535808   -0.862084
      3          6           0       -0.970372   -0.008732   -0.505483
      4          1           0        1.238468   -1.214570   -0.326236
      5          1           0        0.679134    0.354427   -1.893545
      6          1           0        0.571683    1.554930   -0.540079
      7          1           0       -1.346405   -0.890456   -1.032730
      8          8           0        0.993270   -0.365599    0.086749
 ---------------------------------------------------------------------
                    Distance matrix (angstroms):
                    1          2          3          4          5
     1  C    0.000000
     2  C    2.518351   0.000000
     3  C    1.378893   1.499611   0.000000
     4  H    3.468838   2.021604   2.522925   0.000000
     5  H    3.424199   1.089004   2.186200   2.287152   0.000000
     6  H    2.751223   1.085729   2.196399   2.856652   1.812353
     7  H    2.125548   2.246312   1.093996   2.699213   2.528546
     8  O    2.827341   1.445052   2.081822   0.975413   2.130419
                    6          7          8
     6  H    0.000000
     7  H    3.146693   0.000000
     8  O    2.063754   2.646278   0.000000
 Stoichiometry    C3H4O(1+,4)
 Framework group  C1[X(C3H4O)]
 Deg. of freedom    18
 Full point group                 C1      NOp   1
 Largest Abelian subgroup         C1      NOp   1
 Largest concise Abelian subgroup C1      NOp   1
                         Standard orientation:                         
 ---------------------------------------------------------------------
 Center     Atomic      Atomic             Coordinates (Angstroms)
 Number     Number       Type             X           Y           Z
 ---------------------------------------------------------------------
      1          6           0        1.708007   -0.369515   -0.330387
      2          6           0       -0.575189    0.686275   -0.210311
      3          6           0        0.720133    0.249312    0.406162
      4          1           0       -1.552568   -0.780412    0.779862
      5          1           0       -1.120716    1.428090    0.371101
      6          1           0       -0.529271    0.928711   -1.267630
      7          1           0        0.827726    0.272727    1.494602
      8          8           0       -1.092860   -0.655693   -0.071340
 ---------------------------------------------------------------------
 Rotational constants (GHZ):     18.7551971      6.5370579      5.7821472
 Leave Link  202 at Tue Oct 10 11:14:30 2017, MaxMem=    33554432 cpu:         4.3
 (Enter /usr/local/gaussian/2009-E.01/g09/l301.exe)
 Standard basis: 6-311++G(d,p) (5D, 7F)
 Ernie: Thresh=  0.10000D-02 Tol=  0.10000D-05 Strict=F.
 There are   120 symmetry adapted cartesian basis functions of A   symmetry.
 There are   116 symmetry adapted basis functions of A   symmetry.
   116 basis functions,   180 primitive gaussians,   120 cartesian basis functions
    16 alpha electrons       13 beta electrons
       nuclear repulsion energy       104.4798340596 Hartrees.
 IExCor=    0 DFT=F Ex=HF Corr=None ExCW=0 ScaHFX=  1.000000
 ScaDFX=  1.000000  1.000000  1.000000  1.000000 ScalE2=  1.000000  1.000000
 IRadAn=      0 IRanWt=     -1 IRanGd=            0 ICorTp=0 IEmpDi=  4
 NAtoms=    8 NActive=    8 NUniq=    8 SFac= 1.00D+00 NAtFMM=   60 NAOKFM=F Big=F
 Integral buffers will be    131072 words long.
 Raffenetti 2 integral format.
 Two-electron integral symmetry is turned on.
 Leave Link  301 at Tue Oct 10 11:14:31 2017, MaxMem=    33554432 cpu:         8.4
 (Enter /usr/local/gaussian/2009-E.01/g09/l302.exe)
 NPDir=0 NMtPBC=     1 NCelOv=     1 NCel=       1 NClECP=     1 NCelD=      1
         NCelK=      1 NCelE2=     1 NClLst=     1 CellRange=     0.0.
 One-electron integrals computed using PRISM.
 NBasis=   116 RedAO= T EigKep=  7.14D-05  NBF=   116
 NBsUse=   116 1.00D-06 EigRej= -1.00D+00 NBFU=   116
 Leave Link  302 at Tue Oct 10 11:14:32 2017, MaxMem=    33554432 cpu:         4.4
 (Enter /usr/local/gaussian/2009-E.01/g09/l303.exe)
 DipDrv:  MaxL=1.
 Leave Link  303 at Tue Oct 10 11:14:32 2017, MaxMem=    33554432 cpu:         0.6
 (Enter /usr/local/gaussian/2009-E.01/g09/l401.exe)
 ExpMin= 3.60D-02 ExpMax= 8.59D+03 ExpMxC= 1.30D+03 IAcc=3 IRadAn=         5 AccDes= 0.00D+00
 Harris functional with IExCor=  205 and IRadAn=       5 diagonalized for initial guess.
 HarFok:  IExCor=  205 AccDes= 0.00D+00 IRadAn=         5 IDoV= 1 UseB2=F ITyADJ=14
 ICtDFT=  3500011 ScaDFX=  1.000000  1.000000  1.000000  1.000000
 FoFCou: FMM=F IPFlag=           0 FMFlag=      100000 FMFlg1=           0
         NFxFlg=           0 DoJE=T BraDBF=F KetDBF=T FulRan=T
         wScrn=  0.000000 ICntrl=     500 IOpCl=  0 I1Cent=   200000004 NGrid=           0
         NMat0=    1 NMatS0=      1 NMatT0=    0 NMatD0=    1 NMtDS0=    0 NMtDT0=    0
 Petite list used in FoFCou.
 Harris En= -190.401091123580    
 JPrj=0 DoOrth=F DoCkMO=F.
 Initial guess <Sx>= 0.0000 <Sy>= 0.0000 <Sz>= 1.5000 <S**2>= 3.7500 S= 1.5000
 Leave Link  401 at Tue Oct 10 11:14:33 2017, MaxMem=    33554432 cpu:         6.5
 (Enter /usr/local/gaussian/2009-E.01/g09/l502.exe)
 UHF open shell SCF:
 Using DIIS extrapolation, IDIIS=  1040.
 Integral symmetry usage will be decided dynamically.
 IVT=       63606 IEndB=       63606 NGot=    33554432 MDV=    33521987
 LenX=    33521987 LenY=    33507146
 Requested convergence on RMS density matrix=1.00D-08 within 128 cycles.
 Requested convergence on MAX density matrix=1.00D-06.
 Requested convergence on             energy=1.00D-06.
 No special actions if energy rises.
 Fock matrices will be formed incrementally for  20 cycles.

 Cycle   1  Pass 0  IDiag  1:
 FoFJK:  IHMeth= 1 ICntrl=       0 DoSepK=F KAlg= 0 I1Cent=   0 FoldK=F
 IRaf= 990000000 NMat=   1 IRICut=       1 DoRegI=T DoRafI=F ISym2E= 0.
 FoFCou: FMM=F IPFlag=           0 FMFlag=      100000 FMFlg1=           0
         NFxFlg=           0 DoJE=F BraDBF=F KetDBF=F FulRan=T
         wScrn=  0.000000 ICntrl=       0 IOpCl=  1 I1Cent=           0 NGrid=           0
         NMat0=    1 NMatS0=      1 NMatT0=    0 NMatD0=    1 NMtDS0=    0 NMtDT0=    0
 Symmetry not used in FoFCou.
 E= -190.199611224721    
 DIIS: error= 5.91D-02 at cycle   1 NSaved=   1.
 NSaved= 1 IEnMin= 1 EnMin= -190.199611224721     IErMin= 1 ErrMin= 5.91D-02
 ErrMax= 5.91D-02  0.00D+00 EMaxC= 1.00D-01 BMatC= 1.20D+00 BMatP= 1.20D+00
 IDIUse=3 WtCom= 4.09D-01 WtEn= 5.91D-01
 Coeff-Com:  0.100D+01
 Coeff-En:   0.100D+01
 Coeff:      0.100D+01
 Gap=     0.518 Goal=   None    Shift=    0.000
 Gap=     0.327 Goal=   None    Shift=    0.000
 GapD=    0.327 DampG=1.000 DampE=0.500 DampFc=0.5000 IDamp=-1.
 Damping current iteration by 5.00D-01
 RMSDP=3.86D-03 MaxDP=9.09D-02              OVMax= 1.39D-01

 Cycle   2  Pass 0  IDiag  1:
 RMSU=  1.93D-03    CP:  9.99D-01
 E= -190.263171799580     Delta-E=       -0.063560574858 Rises=F Damp=T
 DIIS: error= 3.13D-02 at cycle   2 NSaved=   2.
 NSaved= 2 IEnMin= 2 EnMin= -190.263171799580     IErMin= 2 ErrMin= 3.13D-02
 ErrMax= 3.13D-02  0.00D+00 EMaxC= 1.00D-01 BMatC= 3.06D-01 BMatP= 1.20D+00
 IDIUse=3 WtCom= 6.87D-01 WtEn= 3.13D-01
 Coeff-Com: -0.850D+00 0.185D+01
 Coeff-En:   0.000D+00 0.100D+01
 Coeff:     -0.584D+00 0.158D+01
 Gap=     0.520 Goal=   None    Shift=    0.000
 Gap=     0.447 Goal=   None    Shift=    0.000
 RMSDP=2.55D-03 MaxDP=7.27D-02 DE=-6.36D-02 OVMax= 8.30D-02

 Cycle   3  Pass 0  IDiag  1:
 RMSU=  1.41D-03    CP:  1.00D+00  2.10D+00
 E= -190.338039563426     Delta-E=       -0.074867763846 Rises=F Damp=F
 DIIS: error= 5.18D-03 at cycle   3 NSaved=   3.
 NSaved= 3 IEnMin= 3 EnMin= -190.338039563426     IErMin= 3 ErrMin= 5.18D-03
 ErrMax= 5.18D-03  0.00D+00 EMaxC= 1.00D-01 BMatC= 9.98D-03 BMatP= 3.06D-01
 IDIUse=3 WtCom= 9.48D-01 WtEn= 5.18D-02
 Coeff-Com: -0.176D+00 0.295D+00 0.881D+00
 Coeff-En:   0.000D+00 0.000D+00 0.100D+01
 Coeff:     -0.167D+00 0.279D+00 0.887D+00
 Gap=     0.509 Goal=   None    Shift=    0.000
 Gap=     0.410 Goal=   None    Shift=    0.000
 RMSDP=7.13D-04 MaxDP=2.93D-02 DE=-7.49D-02 OVMax= 3.87D-02

 Cycle   4  Pass 0  IDiag  1:
 RMSU=  4.45D-04    CP:  9.98D-01  2.35D+00  1.19D+00
 E= -190.343620125529     Delta-E=       -0.005580562103 Rises=F Damp=F
 DIIS: error= 3.41D-03 at cycle   4 NSaved=   4.
 NSaved= 4 IEnMin= 4 EnMin= -190.343620125529     IErMin= 4 ErrMin= 3.41D-03
 ErrMax= 3.41D-03  0.00D+00 EMaxC= 1.00D-01 BMatC= 2.35D-03 BMatP= 9.98D-03
 IDIUse=3 WtCom= 9.66D-01 WtEn= 3.41D-02
 Coeff-Com:  0.749D-01-0.147D+00-0.719D-01 0.114D+01
 Coeff-En:   0.000D+00 0.000D+00 0.000D+00 0.100D+01
 Coeff:      0.724D-01-0.142D+00-0.694D-01 0.114D+01
 Gap=     0.511 Goal=   None    Shift=    0.000
 Gap=     0.423 Goal=   None    Shift=    0.000
 RMSDP=4.53D-04 MaxDP=1.39D-02 DE=-5.58D-03 OVMax= 3.26D-02

 Cycle   5  Pass 0  IDiag  1:
 RMSU=  2.35D-04    CP:  9.97D-01  2.45D+00  1.36D+00  1.55D+00
 E= -190.346429084668     Delta-E=       -0.002808959139 Rises=F Damp=F
 DIIS: error= 2.23D-03 at cycle   5 NSaved=   5.
 NSaved= 5 IEnMin= 5 EnMin= -190.346429084668     IErMin= 5 ErrMin= 2.23D-03
 ErrMax= 2.23D-03  0.00D+00 EMaxC= 1.00D-01 BMatC= 1.35D-03 BMatP= 2.35D-03
 IDIUse=3 WtCom= 9.78D-01 WtEn= 2.23D-02
 Coeff-Com:  0.701D-01-0.123D+00-0.246D+00 0.305D+00 0.994D+00
 Coeff-En:   0.000D+00 0.000D+00 0.000D+00 0.000D+00 0.100D+01
 Coeff:      0.686D-01-0.120D+00-0.241D+00 0.298D+00 0.994D+00
 Gap=     0.512 Goal=   None    Shift=    0.000
 Gap=     0.429 Goal=   None    Shift=    0.000
 RMSDP=3.43D-04 MaxDP=1.02D-02 DE=-2.81D-03 OVMax= 2.73D-02

 Cycle   6  Pass 0  IDiag  1:
 RMSU=  1.54D-04    CP:  9.96D-01  2.49D+00  1.46D+00  2.01D+00  1.69D+00
 E= -190.348005890222     Delta-E=       -0.001576805554 Rises=F Damp=F
 DIIS: error= 1.27D-03 at cycle   6 NSaved=   6.
 NSaved= 6 IEnMin= 6 EnMin= -190.348005890222     IErMin= 6 ErrMin= 1.27D-03
 ErrMax= 1.27D-03  0.00D+00 EMaxC= 1.00D-01 BMatC= 5.02D-04 BMatP= 1.35D-03
 IDIUse=3 WtCom= 9.87D-01 WtEn= 1.27D-02
 Coeff-Com: -0.548D-01 0.103D+00 0.214D+00-0.542D+00-0.764D+00 0.204D+01
 Coeff-En:   0.000D+00 0.000D+00 0.000D+00 0.000D+00 0.000D+00 0.100D+01
 Coeff:     -0.541D-01 0.102D+00 0.211D+00-0.535D+00-0.754D+00 0.203D+01
 Gap=     0.511 Goal=   None    Shift=    0.000
 Gap=     0.437 Goal=   None    Shift=    0.000
 RMSDP=4.08D-04 MaxDP=1.06D-02 DE=-1.58D-03 OVMax= 3.69D-02

 Cycle   7  Pass 0  IDiag  1:
 RMSU=  1.05D-04    CP:  9.95D-01  2.46D+00  1.51D+00  2.37D+00  2.85D+00
                    CP:  2.40D+00
 E= -190.349124355973     Delta-E=       -0.001118465751 Rises=F Damp=F
 DIIS: error= 6.68D-04 at cycle   7 NSaved=   7.
 NSaved= 7 IEnMin= 7 EnMin= -190.349124355973     IErMin= 7 ErrMin= 6.68D-04
 ErrMax= 6.68D-04  0.00D+00 EMaxC= 1.00D-01 BMatC= 1.25D-04 BMatP= 5.02D-04
 IDIUse=3 WtCom= 9.93D-01 WtEn= 6.68D-03
 Coeff-Com: -0.128D-01 0.207D-01 0.611D-01 0.713D-01-0.334D+00-0.289D+00
 Coeff-Com:  0.148D+01
 Coeff-En:   0.000D+00 0.000D+00 0.000D+00 0.000D+00 0.000D+00 0.000D+00
 Coeff-En:   0.100D+01
 Coeff:     -0.127D-01 0.206D-01 0.607D-01 0.708D-01-0.332D+00-0.287D+00
 Coeff:      0.148D+01
 Gap=     0.510 Goal=   None    Shift=    0.000
 Gap=     0.440 Goal=   None    Shift=    0.000
 RMSDP=2.22D-04 MaxDP=5.25D-03 DE=-1.12D-03 OVMax= 1.91D-02

 Cycle   8  Pass 0  IDiag  1:
 RMSU=  1.17D-04    CP:  9.95D-01  2.44D+00  1.52D+00  2.48D+00  3.00D+00
                    CP:  3.00D+00  1.70D+00
 E= -190.349371318368     Delta-E=       -0.000246962394 Rises=F Damp=F
 DIIS: error= 3.01D-04 at cycle   8 NSaved=   8.
 NSaved= 8 IEnMin= 8 EnMin= -190.349371318368     IErMin= 8 ErrMin= 3.01D-04
 ErrMax= 3.01D-04  0.00D+00 EMaxC= 1.00D-01 BMatC= 2.54D-05 BMatP= 1.25D-04
 IDIUse=3 WtCom= 9.97D-01 WtEn= 3.01D-03
 Coeff-Com:  0.126D-01-0.223D-01-0.511D-01 0.833D-01 0.168D+00-0.110D+00
 Coeff-Com: -0.712D+00 0.163D+01
 Coeff-En:   0.000D+00 0.000D+00 0.000D+00 0.000D+00 0.000D+00 0.000D+00
 Coeff-En:   0.000D+00 0.100D+01
 Coeff:      0.125D-01-0.223D-01-0.510D-01 0.831D-01 0.168D+00-0.109D+00
 Coeff:     -0.710D+00 0.163D+01
 Gap=     0.509 Goal=   None    Shift=    0.000
 Gap=     0.442 Goal=   None    Shift=    0.000
 RMSDP=8.05D-05 MaxDP=1.69D-03 DE=-2.47D-04 OVMax= 7.83D-03

 Cycle   9  Pass 0  IDiag  1:
 RMSU=  3.86D-05    CP:  9.95D-01  2.44D+00  1.52D+00  2.51D+00  3.00D+00
                    CP:  3.00D+00  2.08D+00  1.49D+00
 E= -190.349421202565     Delta-E=       -0.000049884198 Rises=F Damp=F
 DIIS: error= 1.78D-04 at cycle   9 NSaved=   9.
 NSaved= 9 IEnMin= 9 EnMin= -190.349421202565     IErMin= 9 ErrMin= 1.78D-04
 ErrMax= 1.78D-04  0.00D+00 EMaxC= 1.00D-01 BMatC= 1.08D-05 BMatP= 2.54D-05
 IDIUse=3 WtCom= 9.98D-01 WtEn= 1.78D-03
 Coeff-Com:  0.118D-02-0.150D-02-0.660D-02-0.613D-02 0.872D-02 0.121D+00
 Coeff-Com: -0.340D+00-0.820D-01 0.131D+01
 Coeff-En:   0.000D+00 0.000D+00 0.000D+00 0.000D+00 0.000D+00 0.000D+00
 Coeff-En:   0.000D+00 0.000D+00 0.100D+01
 Coeff:      0.117D-02-0.150D-02-0.658D-02-0.612D-02 0.870D-02 0.121D+00
 Coeff:     -0.339D+00-0.818D-01 0.130D+01
 Gap=     0.509 Goal=   None    Shift=    0.000
 Gap=     0.442 Goal=   None    Shift=    0.000
 RMSDP=4.73D-05 MaxDP=1.03D-03 DE=-4.99D-05 OVMax= 5.60D-03

 Cycle  10  Pass 0  IDiag  1:
 RMSU=  1.51D-05    CP:  9.95D-01  2.44D+00  1.52D+00  2.53D+00  3.00D+00
                    CP:  3.00D+00  2.21D+00  1.75D+00  1.74D+00
 E= -190.349442340581     Delta-E=       -0.000021138016 Rises=F Damp=F
 DIIS: error= 1.25D-04 at cycle  10 NSaved=  10.
 NSaved=10 IEnMin=10 EnMin= -190.349442340581     IErMin=10 ErrMin= 1.25D-04
 ErrMax= 1.25D-04  0.00D+00 EMaxC= 1.00D-01 BMatC= 5.55D-06 BMatP= 1.08D-05
 IDIUse=3 WtCom= 9.99D-01 WtEn= 1.25D-03
 Coeff-Com: -0.721D-02 0.130D-01 0.218D-01-0.114D-01-0.107D+00 0.248D-01
 Coeff-Com:  0.410D+00-0.585D+00-0.771D+00 0.201D+01
 Coeff-En:   0.000D+00 0.000D+00 0.000D+00 0.000D+00 0.000D+00 0.000D+00
 Coeff-En:   0.000D+00 0.000D+00 0.000D+00 0.100D+01
 Coeff:     -0.720D-02 0.129D-01 0.218D-01-0.114D-01-0.107D+00 0.248D-01
 Coeff:      0.410D+00-0.584D+00-0.770D+00 0.201D+01
 Gap=     0.509 Goal=   None    Shift=    0.000
 Gap=     0.443 Goal=   None    Shift=    0.000
 RMSDP=5.08D-05 MaxDP=1.12D-03 DE=-2.11D-05 OVMax= 6.53D-03

 Cycle  11  Pass 0  IDiag  1:
 RMSU=  1.13D-05    CP:  9.95D-01  2.44D+00  1.52D+00  2.54D+00  3.00D+00
                    CP:  3.00D+00  2.25D+00  1.91D+00  2.59D+00  2.94D+00
 E= -190.349459618034     Delta-E=       -0.000017277453 Rises=F Damp=F
 DIIS: error= 7.77D-05 at cycle  11 NSaved=  11.
 NSaved=11 IEnMin=11 EnMin= -190.349459618034     IErMin=11 ErrMin= 7.77D-05
 ErrMax= 7.77D-05  0.00D+00 EMaxC= 1.00D-01 BMatC= 2.68D-06 BMatP= 5.55D-06
 IDIUse=1 WtCom= 1.00D+00 WtEn= 0.00D+00
 Coeff-Com:  0.175D-02-0.296D-02-0.160D-01 0.247D-01 0.427D-01-0.612D-01
 Coeff-Com: -0.123D+00 0.455D+00-0.251D+00-0.134D+01 0.227D+01
 Coeff:      0.175D-02-0.296D-02-0.160D-01 0.247D-01 0.427D-01-0.612D-01
 Coeff:     -0.123D+00 0.455D+00-0.251D+00-0.134D+01 0.227D+01
 Gap=     0.508 Goal=   None    Shift=    0.000
 Gap=     0.444 Goal=   None    Shift=    0.000
 RMSDP=5.92D-05 MaxDP=1.27D-03 DE=-1.73D-05 OVMax= 7.48D-03

 Cycle  12  Pass 0  IDiag  1:
 RMSU=  4.13D-05    CP:  9.95D-01  2.45D+00  1.52D+00  2.57D+00  3.00D+00
                    CP:  3.00D+00  2.31D+00  2.08D+00  3.00D+00  3.00D+00
                    CP:  2.39D+00
 E= -190.349470473556     Delta-E=       -0.000010855522 Rises=F Damp=F
 DIIS: error= 3.86D-05 at cycle  12 NSaved=  12.
 NSaved=12 IEnMin=12 EnMin= -190.349470473556     IErMin=12 ErrMin= 3.86D-05
 ErrMax= 3.86D-05  0.00D+00 EMaxC= 1.00D-01 BMatC= 5.46D-07 BMatP= 2.68D-06
 IDIUse=1 WtCom= 1.00D+00 WtEn= 0.00D+00
 Coeff-Com:  0.118D-02-0.216D-02 0.589D-03-0.227D-02 0.496D-02 0.235D-01
 Coeff-Com: -0.653D-01-0.368D-01 0.355D+00 0.523D-01-0.121D+01 0.188D+01
 Coeff:      0.118D-02-0.216D-02 0.589D-03-0.227D-02 0.496D-02 0.235D-01
 Coeff:     -0.653D-01-0.368D-01 0.355D+00 0.523D-01-0.121D+01 0.188D+01
 Gap=     0.508 Goal=   None    Shift=    0.000
 Gap=     0.445 Goal=   None    Shift=    0.000
 RMSDP=3.02D-05 MaxDP=6.19D-04 DE=-1.09D-05 OVMax= 3.65D-03

 Cycle  13  Pass 0  IDiag  1:
 RMSU=  8.07D-06    CP:  9.95D-01  2.45D+00  1.52D+00  2.58D+00  3.00D+00
                    CP:  3.00D+00  2.33D+00  2.13D+00  3.00D+00  3.00D+00
                    CP:  3.00D+00  1.62D+00
 E= -190.349472514886     Delta-E=       -0.000002041330 Rises=F Damp=F
 DIIS: error= 1.54D-05 at cycle  13 NSaved=  13.
 NSaved=13 IEnMin=13 EnMin= -190.349472514886     IErMin=13 ErrMin= 1.54D-05
 ErrMax= 1.54D-05  0.00D+00 EMaxC= 1.00D-01 BMatC= 7.73D-08 BMatP= 5.46D-07
 IDIUse=1 WtCom= 1.00D+00 WtEn= 0.00D+00
 Coeff-Com: -0.799D-03 0.145D-02 0.155D-02-0.185D-03-0.117D-01-0.100D-02
 Coeff-Com:  0.467D-01-0.364D-01-0.163D+00 0.224D+00 0.191D+00-0.922D+00
 Coeff-Com:  0.167D+01
 Coeff:     -0.799D-03 0.145D-02 0.155D-02-0.185D-03-0.117D-01-0.100D-02
 Coeff:      0.467D-01-0.364D-01-0.163D+00 0.224D+00 0.191D+00-0.922D+00
 Coeff:      0.167D+01
 Gap=     0.508 Goal=   None    Shift=    0.000
 Gap=     0.445 Goal=   None    Shift=    0.000
 RMSDP=7.79D-06 MaxDP=1.57D-04 DE=-2.04D-06 OVMax= 9.36D-04

 Initial convergence to 1.0D-05 achieved.  Increase integral accuracy.
 Cycle  14  Pass 1  IDiag  1:
 E= -190.349472681324     Delta-E=       -0.000000166438 Rises=F Damp=F
 DIIS: error= 6.12D-06 at cycle   1 NSaved=   1.
 NSaved= 1 IEnMin= 1 EnMin= -190.349472681324     IErMin= 1 ErrMin= 6.12D-06
 ErrMax= 6.12D-06  0.00D+00 EMaxC= 1.00D-01 BMatC= 1.04D-08 BMatP= 1.04D-08
 IDIUse=1 WtCom= 1.00D+00 WtEn= 0.00D+00
 Coeff-Com:  0.100D+01
 Coeff:      0.100D+01
 Gap=     0.508 Goal=   None    Shift=    0.000
 Gap=     0.445 Goal=   None    Shift=    0.000
 RMSDP=7.79D-06 MaxDP=1.57D-04 DE=-1.66D-07 OVMax= 4.36D-05

 Cycle  15  Pass 1  IDiag  1:
 RMSU=  7.03D-07    CP:  1.00D+00
 E= -190.349472689669     Delta-E=       -0.000000008345 Rises=F Damp=F
 DIIS: error= 4.63D-06 at cycle   2 NSaved=   2.
 NSaved= 2 IEnMin= 2 EnMin= -190.349472689669     IErMin= 2 ErrMin= 4.63D-06
 ErrMax= 4.63D-06  0.00D+00 EMaxC= 1.00D-01 BMatC= 5.20D-09 BMatP= 1.04D-08
 IDIUse=1 WtCom= 1.00D+00 WtEn= 0.00D+00
 Coeff-Com: -0.119D+01 0.219D+01
 Coeff:     -0.119D+01 0.219D+01
 Gap=     0.508 Goal=   None    Shift=    0.000
 Gap=     0.445 Goal=   None    Shift=    0.000
 RMSDP=1.02D-06 MaxDP=1.65D-05 DE=-8.34D-09 OVMax= 8.03D-05

 Cycle  16  Pass 1  IDiag  1:
 RMSU=  3.72D-07    CP:  1.00D+00  2.35D+00
 E= -190.349472697696     Delta-E=       -0.000000008027 Rises=F Damp=F
 DIIS: error= 2.77D-06 at cycle   3 NSaved=   3.
 NSaved= 3 IEnMin= 3 EnMin= -190.349472697696     IErMin= 3 ErrMin= 2.77D-06
 ErrMax= 2.77D-06  0.00D+00 EMaxC= 1.00D-01 BMatC= 1.45D-09 BMatP= 5.20D-09
 IDIUse=1 WtCom= 1.00D+00 WtEn= 0.00D+00
 Coeff-Com: -0.619D+00 0.554D+00 0.107D+01
 Coeff:     -0.619D+00 0.554D+00 0.107D+01
 Gap=     0.508 Goal=   None    Shift=    0.000
 Gap=     0.445 Goal=   None    Shift=    0.000
 RMSDP=5.60D-07 MaxDP=7.91D-06 DE=-8.03D-09 OVMax= 4.89D-05

 Cycle  17  Pass 1  IDiag  1:
 RMSU=  1.64D-07    CP:  1.00D+00  3.00D+00  1.65D+00
 E= -190.349472699811     Delta-E=       -0.000000002115 Rises=F Damp=F
 DIIS: error= 1.11D-06 at cycle   4 NSaved=   4.
 NSaved= 4 IEnMin= 4 EnMin= -190.349472699811     IErMin= 4 ErrMin= 1.11D-06
 ErrMax= 1.11D-06  0.00D+00 EMaxC= 1.00D-01 BMatC= 3.52D-10 BMatP= 1.45D-09
 IDIUse=1 WtCom= 1.00D+00 WtEn= 0.00D+00
 Coeff-Com:  0.376D+00-0.472D+00-0.470D+00 0.157D+01
 Coeff:      0.376D+00-0.472D+00-0.470D+00 0.157D+01
 Gap=     0.508 Goal=   None    Shift=    0.000
 Gap=     0.445 Goal=   None    Shift=    0.000
 RMSDP=3.03D-07 MaxDP=7.81D-06 DE=-2.11D-09 OVMax= 3.39D-05

 Cycle  18  Pass 1  IDiag  1:
 RMSU=  1.53D-07    CP:  1.00D+00  3.00D+00  2.17D+00  2.07D+00
 E= -190.349472700526     Delta-E=       -0.000000000715 Rises=F Damp=F
 DIIS: error= 7.16D-07 at cycle   5 NSaved=   5.
 NSaved= 5 IEnMin= 5 EnMin= -190.349472700526     IErMin= 5 ErrMin= 7.16D-07
 ErrMax= 7.16D-07  0.00D+00 EMaxC= 1.00D-01 BMatC= 2.02D-10 BMatP= 3.52D-10
 IDIUse=1 WtCom= 1.00D+00 WtEn= 0.00D+00
 Coeff-Com:  0.262D+00-0.237D+00-0.517D+00 0.435D+00 0.106D+01
 Coeff:      0.262D+00-0.237D+00-0.517D+00 0.435D+00 0.106D+01
 Gap=     0.508 Goal=   None    Shift=    0.000
 Gap=     0.445 Goal=   None    Shift=    0.000
 RMSDP=1.99D-07 MaxDP=3.77D-06 DE=-7.15D-10 OVMax= 2.25D-05

 Cycle  19  Pass 1  IDiag  1:
 RMSU=  6.06D-08    CP:  1.00D+00  3.00D+00  2.46D+00  2.80D+00  1.65D+00
 E= -190.349472700876     Delta-E=       -0.000000000351 Rises=F Damp=F
 DIIS: error= 6.00D-07 at cycle   6 NSaved=   6.
 NSaved= 6 IEnMin= 6 EnMin= -190.349472700876     IErMin= 6 ErrMin= 6.00D-07
 ErrMax= 6.00D-07  0.00D+00 EMaxC= 1.00D-01 BMatC= 9.35D-11 BMatP= 2.02D-10
 IDIUse=1 WtCom= 1.00D+00 WtEn= 0.00D+00
 Coeff-Com: -0.201D+00 0.260D+00 0.236D+00-0.638D+00-0.530D+00 0.187D+01
 Coeff:     -0.201D+00 0.260D+00 0.236D+00-0.638D+00-0.530D+00 0.187D+01
 Gap=     0.508 Goal=   None    Shift=    0.000
 Gap=     0.445 Goal=   None    Shift=    0.000
 RMSDP=2.17D-07 MaxDP=4.75D-06 DE=-3.51D-10 OVMax= 2.78D-05

 Cycle  20  Pass 1  IDiag  1:
 RMSU=  1.06D-07    CP:  1.00D+00  3.00D+00  2.68D+00  3.00D+00  2.41D+00
                    CP:  2.53D+00
 E= -190.349472701173     Delta-E=       -0.000000000296 Rises=F Damp=F
 DIIS: error= 3.48D-07 at cycle   7 NSaved=   7.
 NSaved= 7 IEnMin= 7 EnMin= -190.349472701173     IErMin= 7 ErrMin= 3.48D-07
 ErrMax= 3.48D-07  0.00D+00 EMaxC= 1.00D-01 BMatC= 4.98D-11 BMatP= 9.35D-11
 IDIUse=1 WtCom= 1.00D+00 WtEn= 0.00D+00
 Coeff-Com: -0.993D-01 0.696D-01 0.223D+00 0.532D-01-0.868D+00-0.227D+00
 Coeff-Com:  0.185D+01
 Coeff:     -0.993D-01 0.696D-01 0.223D+00 0.532D-01-0.868D+00-0.227D+00
 Coeff:      0.185D+01
 Gap=     0.508 Goal=   None    Shift=    0.000
 Gap=     0.445 Goal=   None    Shift=    0.000
 RMSDP=2.28D-07 MaxDP=4.86D-06 DE=-2.96D-10 OVMax= 2.88D-05

 Cycle  21  Pass 1  IDiag  1:
 RMSU=  9.47D-08    CP:  1.00D+00  3.00D+00  2.90D+00  3.00D+00  3.00D+00
                    CP:  3.00D+00  2.26D+00
 E= -190.349472701351     Delta-E=       -0.000000000179 Rises=F Damp=F
 DIIS: error= 1.95D-07 at cycle   8 NSaved=   8.
 NSaved= 8 IEnMin= 8 EnMin= -190.349472701351     IErMin= 8 ErrMin= 1.95D-07
 ErrMax= 1.95D-07  0.00D+00 EMaxC= 1.00D-01 BMatC= 1.22D-11 BMatP= 4.98D-11
 IDIUse=1 WtCom= 1.00D+00 WtEn= 0.00D+00
 Coeff-Com:  0.138D+00-0.153D+00-0.191D+00 0.281D+00 0.453D+00-0.449D+00
 Coeff-Com: -0.102D+01 0.194D+01
 Coeff:      0.138D+00-0.153D+00-0.191D+00 0.281D+00 0.453D+00-0.449D+00
 Coeff:     -0.102D+01 0.194D+01
 Gap=     0.508 Goal=   None    Shift=    0.000
 Gap=     0.445 Goal=   None    Shift=    0.000
 RMSDP=1.33D-07 MaxDP=2.85D-06 DE=-1.79D-10 OVMax= 1.64D-05

 Cycle  22  Pass 1  IDiag  1:
 RMSU=  3.97D-08    CP:  1.00D+00  3.00D+00  3.00D+00  3.00D+00  3.00D+00
                    CP:  3.00D+00  2.99D+00  1.92D+00
 E= -190.349472701392     Delta-E=       -0.000000000041 Rises=F Damp=F
 DIIS: error= 9.17D-08 at cycle   9 NSaved=   9.
 NSaved= 9 IEnMin= 9 EnMin= -190.349472701392     IErMin= 9 ErrMin= 9.17D-08
 ErrMax= 9.17D-08  0.00D+00 EMaxC= 1.00D-01 BMatC= 1.57D-12 BMatP= 1.22D-11
 IDIUse=1 WtCom= 1.00D+00 WtEn= 0.00D+00
 Coeff-Com: -0.348D-01 0.400D-01 0.550D-01-0.125D+00-0.814D-01 0.295D+00
 Coeff-Com:  0.102D+00-0.893D+00 0.164D+01
 Coeff:     -0.348D-01 0.400D-01 0.550D-01-0.125D+00-0.814D-01 0.295D+00
 Coeff:      0.102D+00-0.893D+00 0.164D+01
 Gap=     0.508 Goal=   None    Shift=    0.000
 Gap=     0.445 Goal=   None    Shift=    0.000
 RMSDP=2.93D-08 MaxDP=5.65D-07 DE=-4.11D-11 OVMax= 2.97D-06

 Cycle  23  Pass 1  IDiag  1:
 RMSU=  1.65D-08    CP:  1.00D+00  3.00D+00  3.00D+00  3.00D+00  3.00D+00
                    CP:  3.00D+00  3.00D+00  2.11D+00  1.39D+00
 E= -190.349472701395     Delta-E=       -0.000000000003 Rises=F Damp=F
 DIIS: error= 3.37D-08 at cycle  10 NSaved=  10.
 NSaved=10 IEnMin=10 EnMin= -190.349472701395     IErMin=10 ErrMin= 3.37D-08
 ErrMax= 3.37D-08  0.00D+00 EMaxC= 1.00D-01 BMatC= 2.06D-13 BMatP= 1.57D-12
 IDIUse=1 WtCom= 1.00D+00 WtEn= 0.00D+00
 Coeff-Com: -0.227D-02 0.806D-03 0.493D-02 0.147D-01-0.342D-01-0.458D-01
 Coeff-Com:  0.752D-01 0.116D+00-0.641D+00 0.151D+01
 Coeff:     -0.227D-02 0.806D-03 0.493D-02 0.147D-01-0.342D-01-0.458D-01
 Coeff:      0.752D-01 0.116D+00-0.641D+00 0.151D+01
 Gap=     0.508 Goal=   None    Shift=    0.000
 Gap=     0.445 Goal=   None    Shift=    0.000
 RMSDP=7.31D-09 MaxDP=1.47D-07 DE=-2.50D-12 OVMax= 6.03D-07

 SCF Done:  E(UHF) =  -190.349472701     A.U. after   23 cycles
            NFock= 23  Conv=0.73D-08     -V/T= 2.0008
 <Sx>= 0.0000 <Sy>= 0.0000 <Sz>= 1.5000 <S**2>= 3.7729 S= 1.5057
 <L.S>= 0.000000000000E+00
 KE= 1.901935578150D+02 PE=-6.480374803508D+02 EE= 1.630146157748D+02
 Annihilation of the first spin contaminant:
 S**2 before annihilation     3.7729,   after     3.7501
 Leave Link  502 at Tue Oct 10 11:14:51 2017, MaxMem=    33554432 cpu:       131.1
 (Enter /usr/local/gaussian/2009-E.01/g09/l801.exe)
 Windowed orbitals will be sorted by symmetry type.
 ExpMin= 3.60D-02 ExpMax= 8.59D+03 ExpMxC= 1.30D+03 IAcc=3 IRadAn=         5 AccDes= 0.00D+00
 HarFok:  IExCor=  205 AccDes= 0.00D+00 IRadAn=         5 IDoV=-2 UseB2=F ITyADJ=14
 ICtDFT= 12500011 ScaDFX=  1.000000  1.000000  1.000000  1.000000
 Largest valence mixing into a core orbital is  1.19D-04
 Largest core mixing into a valence orbital is  3.09D-05
 Largest valence mixing into a core orbital is  1.87D-04
 Largest core mixing into a valence orbital is  4.34D-05
 Range of M.O.s used for correlation:     5   116
 NBasis=   116 NAE=    16 NBE=    13 NFC=     4 NFV=     0
 NROrb=    112 NOA=    12 NOB=     9 NVA=   100 NVB=   103

 **** Warning!!: The largest alpha MO coefficient is  0.40225562D+02


 **** Warning!!: The largest beta MO coefficient is  0.38165725D+02

 Leave Link  801 at Tue Oct 10 11:14:51 2017, MaxMem=    33554432 cpu:         0.7
 (Enter /usr/local/gaussian/2009-E.01/g09/l804.exe)
 Open-shell transformation, MDV=    33554432 ITran=4 ISComp=1.
 Semi-Direct transformation.
 ModeAB=           2 MOrb=            12 LenV=      33072471
 LASXX=      7788111 LTotXX=     7788111 LenRXX=     7788111
 LTotAB=     8087184 MaxLAS=     9757440 LenRXY=     9757440
 NonZer=    15576222 LenScr=    24141312 LnRSAI=           0
 LnScr1=           0 LExtra=           0 Total=     41686863
 MaxDsk=          -1 SrtSym=           F ITran=            4
 DoSDTr:  NPSUse=  8
 JobTyp=1 Pass  1:  I=   1 to  12.
 (rs|ai) integrals will be sorted in core.
 Complete sort for first half transformation.
 First half transformation complete.
 Begin second half transformation for I=  10.
 Begin second half transformation for I=  10.
 Complete sort for second half transformation.
 Second half transformation complete.
 ModeAB=           2 MOrb=             9 LenV=      33072471
 LASXX=      5952006 LTotXX=     5952006 LenRXX=     7318080
 LTotAB=     4908600 MaxLAS=     7318080 LenRXY=     4908600
 NonZer=    11904012 LenScr=    18628608 LnRSAI=           0
 LnScr1=           0 LExtra=           0 Total=     30855288
 MaxDsk=          -1 SrtSym=           F ITran=            4
 DoSDTr:  NPSUse=  8
 JobTyp=2 Pass  1:  I=   1 to   9.
 (rs|ai) integrals will be sorted in core.
 Complete sort for first half transformation.
 First half transformation complete.
 Complete sort for second half transformation.
 Second half transformation complete.
 SymMOI:  orbitals are not symmetric.
 Spin components of T(2) and E(2):
     alpha-alpha T2 =       0.2542258607D-01 E2=     -0.8162564494D-01
     alpha-beta  T2 =       0.1172610242D+00 E2=     -0.3863904851D+00
     beta-beta   T2 =       0.1860319426D-01 E2=     -0.5769228039D-01
 ANorm=    0.1077630180D+01
 E2 =    -0.5257084104D+00 EUMP2 =    -0.19087518111178D+03
 (S**2,0)=  0.37729D+01           (S**2,1)=  0.37625D+01
 E(PUHF)=      -0.19035129589D+03        E(PMP2)=      -0.19087659241D+03
 Leave Link  804 at Tue Oct 10 11:14:56 2017, MaxMem=    33554432 cpu:        37.6
 (Enter /usr/local/gaussian/2009-E.01/g09/l913.exe)
 CIDS:  MDV=    33554432.
 Frozen-core window:  NFC=   4 NFV=   0.
 IFCWin=0 IBDFC=1 NFBD=     0     0 NFCmp=     0     0 NFFFC=     0     0
 Using original routines for 1st iteration, S=T.
 Using DD4UQ or CC4UQ for 2nd and later iterations.
 Would need an additional        13389663 words for in-memory AO integral storage.
 CCSD(T)
 =======
 Iterations= 200 Convergence= 0.100D-06
 Iteration Nr.   1
 **********************
 DD1Dir will call FoFJK   3 times, MxPair=       106
 NAB=   108 NAA=    66 NBB=    36 NumPrc=  8.
 DD1Dir:  Pass   1 NRAB=    53 NRAA=     0 NRBB=     0 NR=   106.
 FoFJK:  IHMeth= 1 ICntrl=     200 DoSepK=F KAlg= 0 I1Cent=   0 FoldK=F
 IRaf= 990000000 NMat= 106 IRICut=     132 DoRegI=T DoRafI=T ISym2E= 2.
 FoFCou: FMM=F IPFlag=           0 FMFlag=      100000 FMFlg1=           0
         NFxFlg=           0 DoJE=F BraDBF=F KetDBF=F FulRan=T
         wScrn=  0.000000 ICntrl=     200 IOpCl=  0 I1Cent=           0 NGrid=           0
         NMat0=  106 NMatS0=      0 NMatT0=   53 NMatD0=  106 NMtDS0=    0 NMtDT0=    0
 Integrals replicated using symmetry in FoFCou.
 DD1Dir:  Pass   2 NRAB=    53 NRAA=     0 NRBB=     0 NR=   106.
 DD1Dir:  Pass   3 NRAB=     2 NRAA=    66 NRBB=    36 NR=   106.
 E(PMP3)=      -0.19090146188D+03
 MP4(R+Q)=  0.98817717D-02
 Maximum subspace dimension=  5
 Norm of the A-vectors is  8.5595998D-01 conv= 1.00D-05.
 RLE energy=       -0.5411336199
 E3=       -0.25194906D-01        EUMP3=      -0.19090037602D+03
 E4(DQ)=   -0.37461813D-02        UMP4(DQ)=   -0.19090412220D+03
 E4(SDQ)=  -0.12678717D-01        UMP4(SDQ)=  -0.19091305474D+03
 VARIATIONAL ENERGIES WITH THE FIRST-ORDER WAVEFUNCTION:
 DE(Corr)= -0.54069413     E(Corr)=     -190.89016683    
 NORM(A)=   0.10884667D+01
 Iteration Nr.   2
 **********************
 DD1Dir will call FoFJK   3 times, MxPair=       106
 NAB=   108 NAA=    66 NBB=    36 NumPrc=  8.
 DD1Dir:  Pass   1 NRAB=    53 NRAA=     0 NRBB=     0 NR=   106.
 DD1Dir:  Pass   2 NRAB=    53 NRAA=     0 NRBB=     0 NR=   106.
 DD1Dir:  Pass   3 NRAB=     2 NRAA=    66 NRBB=    36 NR=   106.
 Norm of the A-vectors is  4.2403868D-01 conv= 1.00D-05.
 RLE energy=       -0.5616530829
 DE(Corr)= -0.55965932     E(CORR)=     -190.90913202     Delta=-1.90D-02
 NORM(A)=   0.10990832D+01
 Iteration Nr.   3
 **********************
 DD1Dir will call FoFJK   3 times, MxPair=       106
 NAB=   108 NAA=    66 NBB=    36 NumPrc=  8.
 DD1Dir:  Pass   1 NRAB=    53 NRAA=     0 NRBB=     0 NR=   106.
 DD1Dir:  Pass   2 NRAB=    53 NRAA=     0 NRBB=     0 NR=   106.
 DD1Dir:  Pass   3 NRAB=     2 NRAA=    66 NRBB=    36 NR=   106.
 Norm of the A-vectors is  1.5907230D-01 conv= 1.00D-05.
 RLE energy=       -0.5646078453
 DE(Corr)= -0.56104828     E(CORR)=     -190.91052098     Delta=-1.39D-03
 NORM(A)=   0.11073243D+01
 Iteration Nr.   4
 **********************
 DD1Dir will call FoFJK   3 times, MxPair=       106
 NAB=   108 NAA=    66 NBB=    36 NumPrc=  8.
 DD1Dir:  Pass   1 NRAB=    53 NRAA=     0 NRBB=     0 NR=   106.
 DD1Dir:  Pass   2 NRAB=    53 NRAA=     0 NRBB=     0 NR=   106.
 DD1Dir:  Pass   3 NRAB=     2 NRAA=    66 NRBB=    36 NR=   106.
 Norm of the A-vectors is  1.1505618D-01 conv= 1.00D-05.
 RLE energy=       -0.5659419090
 DE(Corr)= -0.56468323     E(CORR)=     -190.91415593     Delta=-3.63D-03
 NORM(A)=   0.11150100D+01
 Iteration Nr.   5
 **********************
 DD1Dir will call FoFJK   3 times, MxPair=       106
 NAB=   108 NAA=    66 NBB=    36 NumPrc=  8.
 DD1Dir:  Pass   1 NRAB=    53 NRAA=     0 NRBB=     0 NR=   106.
 DD1Dir:  Pass   2 NRAB=    53 NRAA=     0 NRBB=     0 NR=   106.
 DD1Dir:  Pass   3 NRAB=     2 NRAA=    66 NRBB=    36 NR=   106.
 Norm of the A-vectors is  5.9692789D-02 conv= 1.00D-05.
 RLE energy=       -0.5667141049
 DE(Corr)= -0.56605691     E(CORR)=     -190.91552961     Delta=-1.37D-03
 NORM(A)=   0.11207757D+01
 Iteration Nr.   6
 **********************
 DD1Dir will call FoFJK   3 times, MxPair=       106
 NAB=   108 NAA=    66 NBB=    36 NumPrc=  8.
 DD1Dir:  Pass   1 NRAB=    53 NRAA=     0 NRBB=     0 NR=   106.
 DD1Dir:  Pass   2 NRAB=    53 NRAA=     0 NRBB=     0 NR=   106.
 DD1Dir:  Pass   3 NRAB=     2 NRAA=    66 NRBB=    36 NR=   106.
 Norm of the A-vectors is  3.1307329D-02 conv= 1.00D-05.
 RLE energy=       -0.5666695497
 DE(Corr)= -0.56661646     E(CORR)=     -190.91608917     Delta=-5.60D-04
 NORM(A)=   0.11234468D+01
 Iteration Nr.   7
 **********************
 DD1Dir will call FoFJK   3 times, MxPair=       106
 NAB=   108 NAA=    66 NBB=    36 NumPrc=  8.
 DD1Dir:  Pass   1 NRAB=    53 NRAA=     0 NRBB=     0 NR=   106.
 DD1Dir:  Pass   2 NRAB=    53 NRAA=     0 NRBB=     0 NR=   106.
 DD1Dir:  Pass   3 NRAB=     2 NRAA=    66 NRBB=    36 NR=   106.
 Norm of the A-vectors is  2.2627580D-02 conv= 1.00D-05.
 RLE energy=       -0.5666726370
 DE(Corr)= -0.56678789     E(CORR)=     -190.91626059     Delta=-1.71D-04
 NORM(A)=   0.11243174D+01
 Iteration Nr.   8
 **********************
 DD1Dir will call FoFJK   3 times, MxPair=       106
 NAB=   108 NAA=    66 NBB=    36 NumPrc=  8.
 DD1Dir:  Pass   1 NRAB=    53 NRAA=     0 NRBB=     0 NR=   106.
 DD1Dir:  Pass   2 NRAB=    53 NRAA=     0 NRBB=     0 NR=   106.
 DD1Dir:  Pass   3 NRAB=     2 NRAA=    66 NRBB=    36 NR=   106.
 Norm of the A-vectors is  1.1682523D-02 conv= 1.00D-05.
 RLE energy=       -0.5667571531
 DE(Corr)= -0.56676348     E(CORR)=     -190.91623618     Delta= 2.44D-05
 NORM(A)=   0.11251434D+01
 Iteration Nr.   9
 **********************
 DD1Dir will call FoFJK   3 times, MxPair=       106
 NAB=   108 NAA=    66 NBB=    36 NumPrc=  8.
 DD1Dir:  Pass   1 NRAB=    53 NRAA=     0 NRBB=     0 NR=   106.
 DD1Dir:  Pass   2 NRAB=    53 NRAA=     0 NRBB=     0 NR=   106.
 DD1Dir:  Pass   3 NRAB=     2 NRAA=    66 NRBB=    36 NR=   106.
 Norm of the A-vectors is  8.5455677D-03 conv= 1.00D-05.
 RLE energy=       -0.5668404231
 DE(Corr)= -0.56683870     E(CORR)=     -190.91631141     Delta=-7.52D-05
 NORM(A)=   0.11251688D+01
 Iteration Nr.  10
 **********************
 DD1Dir will call FoFJK   3 times, MxPair=       106
 NAB=   108 NAA=    66 NBB=    36 NumPrc=  8.
 DD1Dir:  Pass   1 NRAB=    53 NRAA=     0 NRBB=     0 NR=   106.
 DD1Dir:  Pass   2 NRAB=    53 NRAA=     0 NRBB=     0 NR=   106.
 DD1Dir:  Pass   3 NRAB=     2 NRAA=    66 NRBB=    36 NR=   106.
 Norm of the A-vectors is  4.5934546D-03 conv= 1.00D-05.
 RLE energy=       -0.5668260307
 DE(Corr)= -0.56681401     E(CORR)=     -190.91628671     Delta= 2.47D-05
 NORM(A)=   0.11252566D+01
 Iteration Nr.  11
 **********************
 DD1Dir will call FoFJK   3 times, MxPair=       106
 NAB=   108 NAA=    66 NBB=    36 NumPrc=  8.
 DD1Dir:  Pass   1 NRAB=    53 NRAA=     0 NRBB=     0 NR=   106.
 DD1Dir:  Pass   2 NRAB=    53 NRAA=     0 NRBB=     0 NR=   106.
 DD1Dir:  Pass   3 NRAB=     2 NRAA=    66 NRBB=    36 NR=   106.
 Norm of the A-vectors is  2.6458831D-03 conv= 1.00D-05.
 RLE energy=       -0.5668494076
 DE(Corr)= -0.56684576     E(CORR)=     -190.91631846     Delta=-3.18D-05
 NORM(A)=   0.11252947D+01
 Iteration Nr.  12
 **********************
 DD1Dir will call FoFJK   3 times, MxPair=       106
 NAB=   108 NAA=    66 NBB=    36 NumPrc=  8.
 DD1Dir:  Pass   1 NRAB=    53 NRAA=     0 NRBB=     0 NR=   106.
 DD1Dir:  Pass   2 NRAB=    53 NRAA=     0 NRBB=     0 NR=   106.
 DD1Dir:  Pass   3 NRAB=     2 NRAA=    66 NRBB=    36 NR=   106.
 Norm of the A-vectors is  1.1196973D-03 conv= 1.00D-05.
 RLE energy=       -0.5668519125
 DE(Corr)= -0.56684479     E(CORR)=     -190.91631749     Delta= 9.73D-07
 NORM(A)=   0.11253405D+01
 Iteration Nr.  13
 **********************
 DD1Dir will call FoFJK   3 times, MxPair=       106
 NAB=   108 NAA=    66 NBB=    36 NumPrc=  8.
 DD1Dir:  Pass   1 NRAB=    53 NRAA=     0 NRBB=     0 NR=   106.
 DD1Dir:  Pass   2 NRAB=    53 NRAA=     0 NRBB=     0 NR=   106.
 DD1Dir:  Pass   3 NRAB=     2 NRAA=    66 NRBB=    36 NR=   106.
 Norm of the A-vectors is  8.5296023D-04 conv= 1.00D-05.
 RLE energy=       -0.5668560596
 DE(Corr)= -0.56685220     E(CORR)=     -190.91632490     Delta=-7.41D-06
 NORM(A)=   0.11253851D+01
 Iteration Nr.  14
 **********************
 DD1Dir will call FoFJK   3 times, MxPair=       106
 NAB=   108 NAA=    66 NBB=    36 NumPrc=  8.
 DD1Dir:  Pass   1 NRAB=    53 NRAA=     0 NRBB=     0 NR=   106.
 DD1Dir:  Pass   2 NRAB=    53 NRAA=     0 NRBB=     0 NR=   106.
 DD1Dir:  Pass   3 NRAB=     2 NRAA=    66 NRBB=    36 NR=   106.
 Norm of the A-vectors is  4.9737389D-04 conv= 1.00D-05.
 RLE energy=       -0.5668607169
 DE(Corr)= -0.56685719     E(CORR)=     -190.91632989     Delta=-4.99D-06
 NORM(A)=   0.11254119D+01
 Iteration Nr.  15
 **********************
 DD1Dir will call FoFJK   3 times, MxPair=       106
 NAB=   108 NAA=    66 NBB=    36 NumPrc=  8.
 DD1Dir:  Pass   1 NRAB=    53 NRAA=     0 NRBB=     0 NR=   106.
 DD1Dir:  Pass   2 NRAB=    53 NRAA=     0 NRBB=     0 NR=   106.
 DD1Dir:  Pass   3 NRAB=     2 NRAA=    66 NRBB=    36 NR=   106.
 Norm of the A-vectors is  3.3949359D-04 conv= 1.00D-05.
 RLE energy=       -0.5668607663
 DE(Corr)= -0.56685933     E(CORR)=     -190.91633203     Delta=-2.14D-06
 NORM(A)=   0.11254406D+01
 Iteration Nr.  16
 **********************
 DD1Dir will call FoFJK   3 times, MxPair=       106
 NAB=   108 NAA=    66 NBB=    36 NumPrc=  8.
 DD1Dir:  Pass   1 NRAB=    53 NRAA=     0 NRBB=     0 NR=   106.
 DD1Dir:  Pass   2 NRAB=    53 NRAA=     0 NRBB=     0 NR=   106.
 DD1Dir:  Pass   3 NRAB=     2 NRAA=    66 NRBB=    36 NR=   106.
 Norm of the A-vectors is  2.8039450D-04 conv= 1.00D-05.
 RLE energy=       -0.5668641936
 DE(Corr)= -0.56686313     E(CORR)=     -190.91633583     Delta=-3.80D-06
 NORM(A)=   0.11254529D+01
 Iteration Nr.  17
 **********************
 DD1Dir will call FoFJK   3 times, MxPair=       106
 NAB=   108 NAA=    66 NBB=    36 NumPrc=  8.
 DD1Dir:  Pass   1 NRAB=    53 NRAA=     0 NRBB=     0 NR=   106.
 DD1Dir:  Pass   2 NRAB=    53 NRAA=     0 NRBB=     0 NR=   106.
 DD1Dir:  Pass   3 NRAB=     2 NRAA=    66 NRBB=    36 NR=   106.
 Norm of the A-vectors is  2.1378198D-04 conv= 1.00D-05.
 RLE energy=       -0.5668634119
 DE(Corr)= -0.56686275     E(CORR)=     -190.91633545     Delta= 3.83D-07
 NORM(A)=   0.11254623D+01
 Iteration Nr.  18
 **********************
 DD1Dir will call FoFJK   3 times, MxPair=       106
 NAB=   108 NAA=    66 NBB=    36 NumPrc=  8.
 DD1Dir:  Pass   1 NRAB=    53 NRAA=     0 NRBB=     0 NR=   106.
 DD1Dir:  Pass   2 NRAB=    53 NRAA=     0 NRBB=     0 NR=   106.
 DD1Dir:  Pass   3 NRAB=     2 NRAA=    66 NRBB=    36 NR=   106.
 Norm of the A-vectors is  1.2642763D-04 conv= 1.00D-05.
 RLE energy=       -0.5668639729
 DE(Corr)= -0.56686401     E(CORR)=     -190.91633671     Delta=-1.26D-06
 NORM(A)=   0.11254672D+01
 Iteration Nr.  19
 **********************
 DD1Dir will call FoFJK   3 times, MxPair=       106
 NAB=   108 NAA=    66 NBB=    36 NumPrc=  8.
 DD1Dir:  Pass   1 NRAB=    53 NRAA=     0 NRBB=     0 NR=   106.
 DD1Dir:  Pass   2 NRAB=    53 NRAA=     0 NRBB=     0 NR=   106.
 DD1Dir:  Pass   3 NRAB=     2 NRAA=    66 NRBB=    36 NR=   106.
 Norm of the A-vectors is  8.1196023D-05 conv= 1.00D-05.
 RLE energy=       -0.5668639913
 DE(Corr)= -0.56686386     E(CORR)=     -190.91633656     Delta= 1.51D-07
 NORM(A)=   0.11254700D+01
 Iteration Nr.  20
 **********************
 DD1Dir will call FoFJK   3 times, MxPair=       106
 NAB=   108 NAA=    66 NBB=    36 NumPrc=  8.
 DD1Dir:  Pass   1 NRAB=    53 NRAA=     0 NRBB=     0 NR=   106.
 DD1Dir:  Pass   2 NRAB=    53 NRAA=     0 NRBB=     0 NR=   106.
 DD1Dir:  Pass   3 NRAB=     2 NRAA=    66 NRBB=    36 NR=   106.
 Norm of the A-vectors is  5.3012434D-05 conv= 1.00D-05.
 RLE energy=       -0.5668640451
 DE(Corr)= -0.56686406     E(CORR)=     -190.91633677     Delta=-2.03D-07
 NORM(A)=   0.11254715D+01
 Iteration Nr.  21
 **********************
 DD1Dir will call FoFJK   3 times, MxPair=       106
 NAB=   108 NAA=    66 NBB=    36 NumPrc=  8.
 DD1Dir:  Pass   1 NRAB=    53 NRAA=     0 NRBB=     0 NR=   106.
 DD1Dir:  Pass   2 NRAB=    53 NRAA=     0 NRBB=     0 NR=   106.
 DD1Dir:  Pass   3 NRAB=     2 NRAA=    66 NRBB=    36 NR=   106.
 Norm of the A-vectors is  3.0134031D-05 conv= 1.00D-05.
 RLE energy=       -0.5668642376
 DE(Corr)= -0.56686414     E(CORR)=     -190.91633685     Delta=-7.96D-08
 NORM(A)=   0.11254723D+01
 Iteration Nr.  22
 **********************
 DD1Dir will call FoFJK   3 times, MxPair=       106
 NAB=   108 NAA=    66 NBB=    36 NumPrc=  8.
 DD1Dir:  Pass   1 NRAB=    53 NRAA=     0 NRBB=     0 NR=   106.
 DD1Dir:  Pass   2 NRAB=    53 NRAA=     0 NRBB=     0 NR=   106.
 DD1Dir:  Pass   3 NRAB=     2 NRAA=    66 NRBB=    36 NR=   106.
 Norm of the A-vectors is  1.8244506D-05 conv= 1.00D-05.
 RLE energy=       -0.5668642003
 DE(Corr)= -0.56686418     E(CORR)=     -190.91633688     Delta=-3.15D-08
 NORM(A)=   0.11254730D+01
 Iteration Nr.  23
 **********************
 DD1Dir will call FoFJK   3 times, MxPair=       106
 NAB=   108 NAA=    66 NBB=    36 NumPrc=  8.
 DD1Dir:  Pass   1 NRAB=    53 NRAA=     0 NRBB=     0 NR=   106.
 DD1Dir:  Pass   2 NRAB=    53 NRAA=     0 NRBB=     0 NR=   106.
 DD1Dir:  Pass   3 NRAB=     2 NRAA=    66 NRBB=    36 NR=   106.
 Norm of the A-vectors is  1.5250734D-05 conv= 1.00D-05.
 RLE energy=       -0.5668643663
 DE(Corr)= -0.56686431     E(CORR)=     -190.91633701     Delta=-1.38D-07
 NORM(A)=   0.11254736D+01
 Iteration Nr.  24
 **********************
 DD1Dir will call FoFJK   3 times, MxPair=       106
 NAB=   108 NAA=    66 NBB=    36 NumPrc=  8.
 DD1Dir:  Pass   1 NRAB=    53 NRAA=     0 NRBB=     0 NR=   106.
 DD1Dir:  Pass   2 NRAB=    53 NRAA=     0 NRBB=     0 NR=   106.
 DD1Dir:  Pass   3 NRAB=     2 NRAA=    66 NRBB=    36 NR=   106.
 Norm of the A-vectors is  1.0348992D-05 conv= 1.00D-05.
 RLE energy=       -0.5668643581
 DE(Corr)= -0.56686431     E(CORR)=     -190.91633701     Delta= 2.22D-09
 NORM(A)=   0.11254739D+01
 Iteration Nr.  25
 **********************
 DD1Dir will call FoFJK   3 times, MxPair=       106
 NAB=   108 NAA=    66 NBB=    36 NumPrc=  8.
 DD1Dir:  Pass   1 NRAB=    53 NRAA=     0 NRBB=     0 NR=   106.
 DD1Dir:  Pass   2 NRAB=    53 NRAA=     0 NRBB=     0 NR=   106.
 DD1Dir:  Pass   3 NRAB=     2 NRAA=    66 NRBB=    36 NR=   106.
 Norm of the A-vectors is  5.6168351D-06 conv= 1.00D-05.
 RLE energy=       -0.5668643959
 DE(Corr)= -0.56686438     E(CORR)=     -190.91633708     Delta=-6.86D-08
 NORM(A)=   0.11254742D+01
 CI/CC converged in   25 iterations to DelEn=-6.86D-08 Conv= 1.00D-07 ErrA1= 5.62D-06 Conv= 1.00D-05
 Dominant configurations:
 ***********************
 Spin Case        I    J    A    B          Value
    BB           13        14           -0.191637D+00
 Largest amplitude= 1.92D-01
 Time for triples=      688.24 seconds.
 T4(CCSD)= -0.25169329D-01
 T5(CCSD)=  0.29152344D-02
 CCSD(T)= -0.19093859118D+03

 S**2, projected HF & approx projected MPn energies after annihilation of
 unwanted spin states (see manual for definitions):

 spins       (S**2,0) (S**2,1)    PUHF        PMP2        PMP3        PMP4
 annihilated
 s+1         3.74993  3.75001 -190.351296 -190.876592 -190.901462
 s+1,s+2     3.75000  3.75000 -190.351288 -190.876586 -190.901457
 s+1 to s+3  3.75000  3.75000 -190.351288 -190.876586 -190.901457
 s+1 to s+4  3.75000  3.75000 -190.351288 -190.876586 -190.901457
 s+1 to s+5  3.75000  3.75000 -190.351288
 s+1 to s+6  3.75000  3.75000 -190.351288

 Discarding MO integrals.
 Leave Link  913 at Tue Oct 10 11:25:41 2017, MaxMem=    33554432 cpu:      4897.1
 (Enter /usr/local/gaussian/2009-E.01/g09/l601.exe)
 Copying SCF densities to generalized density rwf, IOpCl= 1 IROHF=0.

 **********************************************************************

            Population analysis using the SCF density.

 **********************************************************************

 Orbital symmetries:
 Alpha Orbitals:
       Occupied  (A) (A) (A) (A) (A) (A) (A) (A) (A) (A) (A) (A)
                 (A) (A) (A) (A)
       Virtual   (A) (A) (A) (A) (A) (A) (A) (A) (A) (A) (A) (A)
                 (A) (A) (A) (A) (A) (A) (A) (A) (A) (A) (A) (A)
                 (A) (A) (A) (A) (A) (A) (A) (A) (A) (A) (A) (A)
                 (A) (A) (A) (A) (A) (A) (A) (A) (A) (A) (A) (A)
                 (A) (A) (A) (A) (A) (A) (A) (A) (A) (A) (A) (A)
                 (A) (A) (A) (A) (A) (A) (A) (A) (A) (A) (A) (A)
                 (A) (A) (A) (A) (A) (A) (A) (A) (A) (A) (A) (A)
                 (A) (A) (A) (A) (A) (A) (A) (A) (A) (A) (A) (A)
                 (A) (A) (A) (A)
 Beta  Orbitals:
       Occupied  (A) (A) (A) (A) (A) (A) (A) (A) (A) (A) (A) (A)
                 (A)
       Virtual   (A) (A) (A) (A) (A) (A) (A) (A) (A) (A) (A) (A)
                 (A) (A) (A) (A) (A) (A) (A) (A) (A) (A) (A) (A)
                 (A) (A) (A) (A) (A) (A) (A) (A) (A) (A) (A) (A)
                 (A) (A) (A) (A) (A) (A) (A) (A) (A) (A) (A) (A)
                 (A) (A) (A) (A) (A) (A) (A) (A) (A) (A) (A) (A)
                 (A) (A) (A) (A) (A) (A) (A) (A) (A) (A) (A) (A)
                 (A) (A) (A) (A) (A) (A) (A) (A) (A) (A) (A) (A)
                 (A) (A) (A) (A) (A) (A) (A) (A) (A) (A) (A) (A)
                 (A) (A) (A) (A) (A) (A) (A)
 The electronic state is 4-A.
 Alpha  occ. eigenvalues --  -20.82797 -11.61004 -11.59701 -11.53634  -1.62836
 Alpha  occ. eigenvalues --   -1.38588  -1.19821  -1.04635  -0.95401  -0.90443
 Alpha  occ. eigenvalues --   -0.88126  -0.82443  -0.76832  -0.75334  -0.71025
 Alpha  occ. eigenvalues --   -0.66855
 Alpha virt. eigenvalues --   -0.16085  -0.10276  -0.07397  -0.06830  -0.05898
 Alpha virt. eigenvalues --   -0.03105  -0.02198  -0.02041  -0.01517   0.00961
 Alpha virt. eigenvalues --    0.01748   0.02596   0.03599   0.04560   0.05072
 Alpha virt. eigenvalues --    0.05974   0.08914   0.10515   0.12413   0.13523
 Alpha virt. eigenvalues --    0.14665   0.15848   0.18251   0.19774   0.21401
 Alpha virt. eigenvalues --    0.25827   0.27528   0.30605   0.37279   0.43277
 Alpha virt. eigenvalues --    0.46752   0.47771   0.49595   0.51479   0.54267
 Alpha virt. eigenvalues --    0.55638   0.57236   0.58302   0.62357   0.63856
 Alpha virt. eigenvalues --    0.66276   0.76173   0.80450   0.88031   1.00053
 Alpha virt. eigenvalues --    1.01151   1.06996   1.11750   1.20180   1.24972
 Alpha virt. eigenvalues --    1.27236   1.28451   1.37185   1.45452   1.47824
 Alpha virt. eigenvalues --    1.53670   1.54329   1.61386   1.63549   1.68366
 Alpha virt. eigenvalues --    1.70618   1.77601   1.78974   1.83597   1.94182
 Alpha virt. eigenvalues --    2.01004   2.02661   2.10170   2.16675   2.21502
 Alpha virt. eigenvalues --    2.30853   2.39673   2.56339   2.58474   2.64820
 Alpha virt. eigenvalues --    2.72481   2.73635   2.78246   2.86934   2.91060
 Alpha virt. eigenvalues --    2.94005   3.02133   3.06052   3.12614   3.23010
 Alpha virt. eigenvalues --    3.27433   3.40609   3.43517   3.79675   3.96005
 Alpha virt. eigenvalues --    4.02371   4.13948   4.33224   5.39620   5.62783
 Alpha virt. eigenvalues --    5.97464  24.33513  24.75009  24.85874  51.35157
  Beta  occ. eigenvalues --  -20.81862 -11.60518 -11.53458 -11.52145  -1.60295
  Beta  occ. eigenvalues --   -1.29034  -1.12995  -0.97600  -0.91390  -0.86726
  Beta  occ. eigenvalues --   -0.82692  -0.74874  -0.68402
  Beta virt. eigenvalues --   -0.23917  -0.19617  -0.11078  -0.09136  -0.06718
  Beta virt. eigenvalues --   -0.06276  -0.05003  -0.03862  -0.01958  -0.01173
  Beta virt. eigenvalues --   -0.00691   0.00047   0.02495   0.02772   0.04102
  Beta virt. eigenvalues --    0.04672   0.05798   0.06440   0.07676   0.09984
  Beta virt. eigenvalues --    0.11242   0.12922   0.14398   0.15810   0.16469
  Beta virt. eigenvalues --    0.19462   0.21239   0.23210   0.28509   0.29375
  Beta virt. eigenvalues --    0.31829   0.40639   0.46307   0.50138   0.51484
  Beta virt. eigenvalues --    0.54563   0.55024   0.57155   0.59717   0.61241
  Beta virt. eigenvalues --    0.63710   0.65481   0.66621   0.70970   0.81183
  Beta virt. eigenvalues --    0.83284   0.90606   1.04011   1.04155   1.10721
  Beta virt. eigenvalues --    1.14467   1.22456   1.27957   1.37725   1.41103
  Beta virt. eigenvalues --    1.44187   1.46677   1.49889   1.56743   1.57207
  Beta virt. eigenvalues --    1.63946   1.66630   1.69686   1.73968   1.79919
  Beta virt. eigenvalues --    1.80624   1.85775   1.96221   2.05555   2.07825
  Beta virt. eigenvalues --    2.11939   2.18308   2.22947   2.33302   2.41637
  Beta virt. eigenvalues --    2.57023   2.59722   2.65302   2.73319   2.75642
  Beta virt. eigenvalues --    2.83684   2.90089   2.91822   2.97258   3.06120
  Beta virt. eigenvalues --    3.11171   3.14543   3.25997   3.31078   3.42086
  Beta virt. eigenvalues --    3.45733   3.82401   3.96277   4.03148   4.14753
  Beta virt. eigenvalues --    4.34192   5.41741   5.63449   5.98236  24.37341
  Beta virt. eigenvalues --   24.75184  24.88227  51.35719
          Condensed to atoms (all electrons):
               1          2          3          4          5          6
     1  C    5.271466  -0.004371   0.404197  -0.015821   0.017381  -0.012467
     2  C   -0.004371   5.609575  -0.009194  -0.004070   0.306148   0.424824
     3  C    0.404197  -0.009194   5.079429   0.018651   0.009845  -0.034086
     4  H   -0.015821  -0.004070   0.018651   0.372196  -0.012711   0.007900
     5  H    0.017381   0.306148   0.009845  -0.012711   0.491348  -0.018967
     6  H   -0.012467   0.424824  -0.034086   0.007900  -0.018967   0.425763
     7  H   -0.037877   0.029437   0.336084   0.000692  -0.015158   0.003463
     8  O   -0.011183   0.062127   0.023336   0.313730  -0.011919  -0.044831
               7          8
     1  C   -0.037877  -0.011183
     2  C    0.029437   0.062127
     3  C    0.336084   0.023336
     4  H    0.000692   0.313730
     5  H   -0.015158  -0.011919
     6  H    0.003463  -0.044831
     7  H    0.424721  -0.009680
     8  O   -0.009680   7.894539
          Atomic-Atomic Spin Densities.
               1          2          3          4          5          6
     1  C    2.537197  -0.052434   0.068540   0.002562  -0.000114   0.006385
     2  C   -0.052434   0.087983   0.060299  -0.000809   0.002059  -0.000353
     3  C    0.068540   0.060299   0.162879   0.002404  -0.002938  -0.004544
     4  H    0.002562  -0.000809   0.002404  -0.004873  -0.000143  -0.000565
     5  H   -0.000114   0.002059  -0.002938  -0.000143   0.002464   0.001389
     6  H    0.006385  -0.000353  -0.004544  -0.000565   0.001389  -0.005871
     7  H   -0.017990  -0.012600   0.019563  -0.000515   0.001740   0.001287
     8  O   -0.001856  -0.012687  -0.091086  -0.004853  -0.000801   0.002179
               7          8
     1  C   -0.017990  -0.001856
     2  C   -0.012600  -0.012687
     3  C    0.019563  -0.091086
     4  H   -0.000515  -0.004853
     5  H    0.001740  -0.000801
     6  H    0.001287   0.002179
     7  H    0.048385   0.006844
     8  O    0.006844   0.229908
 Mulliken charges and spin densities:
               1          2
     1  C    0.388674   2.542290
     2  C   -0.414476   0.071458
     3  C    0.171738   0.215117
     4  H    0.319433  -0.006791
     5  H    0.234032   0.003656
     6  H    0.248400  -0.000093
     7  H    0.268318   0.046714
     8  O   -0.216119   0.127648
 Sum of Mulliken charges =   1.00000   3.00000
 Mulliken charges and spin densities with hydrogens summed into heavy atoms:
               1          2
     1  C    0.388674   2.542290
     2  C    0.067956   0.075021
     3  C    0.440056   0.261832
     8  O    0.103314   0.120857
 Electronic spatial extent (au):  <R**2>=            231.4203
 Charge=              1.0000 electrons
 Dipole moment (field-independent basis, Debye):
    X=              1.7364    Y=              1.7254    Z=              2.0874  Tot=              3.2171
 Quadrupole moment (field-independent basis, Debye-Ang):
   XX=            -12.9391   YY=            -19.9318   ZZ=            -17.2609
   XY=             -1.3855   XZ=             -2.5186   YZ=             -1.1306
 Traceless Quadrupole moment (field-independent basis, Debye-Ang):
   XX=              3.7715   YY=             -3.2212   ZZ=             -0.5503
   XY=             -1.3855   XZ=             -2.5186   YZ=             -1.1306
 Octapole moment (field-independent basis, Debye-Ang**2):
  XXX=             -1.9955  YYY=              1.2809  ZZZ=              4.3697  XYY=             -3.5715
  XXY=             -2.4226  XXZ=              3.5989  XZZ=             -2.6027  YZZ=              0.5056
  YYZ=              1.5222  XYZ=              3.8044
 Hexadecapole moment (field-independent basis, Debye-Ang**3):
 XXXX=           -155.6471 YYYY=            -62.5079 ZZZZ=            -34.6865 XXXY=              1.9963
 XXXZ=            -13.2585 YYYX=              0.8988 YYYZ=             -1.0236 ZZZX=              2.1545
 ZZZY=             -2.4446 XXYY=            -35.5721 XXZZ=            -31.4901 YYZZ=            -16.2729
 XXYZ=             -1.7026 YYXZ=             -3.0741 ZZXY=              1.9380
 N-N= 1.044798340596D+02 E-N=-6.480374801938D+02  KE= 1.901935578150D+02
 Leave Link  601 at Tue Oct 10 11:25:41 2017, MaxMem=    33554432 cpu:         0.2
 (Enter /usr/local/gaussian/2009-E.01/g09/l9999.exe)
 1\1\ WCSS.PL-BEM-WN1424\SP\UCCSD(T)-FC\6-311++G(d,p)\C3H4O1(1+,4)\ROOT
 \10-Oct-2017\0\\#p ccsd(t,maxcyc=200)/6-311++G(d,p)\\ccsd(t) iener\\1,
 4\C,0,-1.669792,0.435621,0.596655\C,0,0.380607,0.535808,-0.862084\C,0,
 -0.970372,-0.008732,-0.505483\H,0,1.238468,-1.21457,-0.326236\H,0,0.67
 9134,0.354427,-1.893545\H,0,0.571683,1.55493,-0.540079\H,0,-1.346405,-
 0.890456,-1.03273\O,0,0.99327,-0.365599,0.086749\\Version=ES64L-G09Rev
 E.01\State=4-A\HF=-190.3494727\MP2=-190.8751811\MP3=-190.900376\MP4D=-
 190.914004\MP4DQ=-190.9041222\PUHF=-190.3512959\PMP2-0=-190.8765924\PM
 P3-0=-190.9014619\MP4SDQ=-190.9130547\CCSD=-190.9163371\CCSD(T)=-190.9
 385912\S2=3.772865\S2-1=3.762501\S2A=3.750102\RMSD=7.312e-09\PG=C01 [X
 (C3H4O1)]\\@


     "IF I COULD JUST GET IT ON PAPER"
 LIFE AND INK, THEY RUN OUT AT THE SAME TIME,
 OR SO SAID MY OLD FRIEND THE SQUID.
     -- JIMMY BUFFETT, 1981
 Job cpu time:       0 days  1 hours 25 minutes  2.2 seconds.
 File lengths (MBytes):  RWF=    812 Int=      0 D2E=      0 Chk=      2 Scr=      1
 Normal termination of Gaussian 09 at Tue Oct 10 11:25:41 2017.
