 Entering Gaussian System, Link 0=/usr/local/gaussian/2009-E.01/g09/g09
 Initial command:
 /usr/local/gaussian/2009-E.01/g09/l1.exe "/lustre/scratch/eerd/4986703.achilles/Gau-172387.inp" -scrdir="/lustre/scratch/eerd/4986703.achilles/"
 Entering Link 1 = /usr/local/gaussian/2009-E.01/g09/l1.exe PID=    172392.
  
 Copyright (c) 1988,1990,1992,1993,1995,1998,2003,2009,2015,
            Gaussian, Inc.  All Rights Reserved.
  
 This is part of the Gaussian(R) 09 program.  It is based on
 the Gaussian(R) 03 system (copyright 2003, Gaussian, Inc.),
 the Gaussian(R) 98 system (copyright 1998, Gaussian, Inc.),
 the Gaussian(R) 94 system (copyright 1995, Gaussian, Inc.),
 the Gaussian 92(TM) system (copyright 1992, Gaussian, Inc.),
 the Gaussian 90(TM) system (copyright 1990, Gaussian, Inc.),
 the Gaussian 88(TM) system (copyright 1988, Gaussian, Inc.),
 the Gaussian 86(TM) system (copyright 1986, Carnegie Mellon
 University), and the Gaussian 82(TM) system (copyright 1983,
 Carnegie Mellon University). Gaussian is a federally registered
 trademark of Gaussian, Inc.
  
 This software contains proprietary and confidential information,
 including trade secrets, belonging to Gaussian, Inc.
  
 This software is provided under written license and may be
 used, copied, transmitted, or stored only in accord with that
 written license.
  
 The following legend is applicable only to US Government
 contracts under FAR:
  
                    RESTRICTED RIGHTS LEGEND
  
 Use, reproduction and disclosure by the US Government is
 subject to restrictions as set forth in subparagraphs (a)
 and (c) of the Commercial Computer Software - Restricted
 Rights clause in FAR 52.227-19.
  
 Gaussian, Inc.
 340 Quinnipiac St., Bldg. 40, Wallingford CT 06492
  
  
 ---------------------------------------------------------------
 Warning -- This program may not be used in any manner that
 competes with the business of Gaussian, Inc. or will provide
 assistance to any competitor of Gaussian, Inc.  The licensee
 of this program is prohibited from giving any competitor of
 Gaussian, Inc. access to this program.  By using this program,
 the user acknowledges that Gaussian, Inc. is engaged in the
 business of creating and licensing software in the field of
 computational chemistry and represents and warrants to the
 licensee that it is not a competitor of Gaussian, Inc. and that
 it will not use this program in any manner prohibited above.
 ---------------------------------------------------------------
  

 Cite this work as:
 Gaussian 09, Revision E.01,
 M. J. Frisch, G. W. Trucks, H. B. Schlegel, G. E. Scuseria, 
 M. A. Robb, J. R. Cheeseman, G. Scalmani, V. Barone, B. Mennucci, 
 G. A. Petersson, H. Nakatsuji, M. Caricato, X. Li, H. P. Hratchian, 
 A. F. Izmaylov, J. Bloino, G. Zheng, J. L. Sonnenberg, M. Hada, 
 M. Ehara, K. Toyota, R. Fukuda, J. Hasegawa, M. Ishida, T. Nakajima, 
 Y. Honda, O. Kitao, H. Nakai, T. Vreven, J. A. Montgomery, Jr., 
 J. E. Peralta, F. Ogliaro, M. Bearpark, J. J. Heyd, E. Brothers, 
 K. N. Kudin, V. N. Staroverov, T. Keith, R. Kobayashi, J. Normand, 
 K. Raghavachari, A. Rendell, J. C. Burant, S. S. Iyengar, J. Tomasi, 
 M. Cossi, N. Rega, J. M. Millam, M. Klene, J. E. Knox, J. B. Cross, 
 V. Bakken, C. Adamo, J. Jaramillo, R. Gomperts, R. E. Stratmann, 
 O. Yazyev, A. J. Austin, R. Cammi, C. Pomelli, J. W. Ochterski, 
 R. L. Martin, K. Morokuma, V. G. Zakrzewski, G. A. Voth, 
 P. Salvador, J. J. Dannenberg, S. Dapprich, A. D. Daniels, 
 O. Farkas, J. B. Foresman, J. V. Ortiz, J. Cioslowski, 
 and D. J. Fox, Gaussian, Inc., Wallingford CT, 2013.
 
 ******************************************
 Gaussian 09:  ES64L-G09RevE.01 30-Nov-2015
                10-Oct-2017 
 ******************************************
 %NProcShared=8
 Will use up to    8 processors via shared memory.
 -----------------------------------
 #p ccsd(t,maxcyc=200)/6-311++G(d,p)
 -----------------------------------
 1/38=1/1;
 2/12=2,17=6,18=5,40=1/2;
 3/5=4,6=6,7=1111,11=9,16=1,25=1,30=1/1,2,3;
 4//1;
 5/5=2,38=5/2;
 8/6=4,9=120000,10=2/1,4;
 9/5=7,6=200,14=2/13;
 6/7=2,8=2,9=2,10=2/1;
 99/5=1,9=1/99;
 Leave Link    1 at Tue Oct 10 15:27:38 2017, MaxMem=           0 cpu:         7.8
 (Enter /usr/local/gaussian/2009-E.01/g09/l101.exe)
 -------------
 ccsd(t) iener
 -------------
 Symbolic Z-matrix:
 Charge =  1 Multiplicity = 4
 C                    -1.84899  -0.01839  -0.00029 
 C                    -0.51816  -0.31742   0.00027 
 C                     0.68841   0.36545   0.00025 
 H                    -2.20141   1.0169   -0.00057 
 H                    -2.60201  -0.80392  -0.0006 
 H                     0.68352   1.46751   0.00015 
 C                     1.8774   -0.29956  -0.0003 
 H                     2.93598  -0.06588  -0.00074 
 
 NAtoms=      8 NQM=        8 NQMF=       0 NMMI=      0 NMMIF=      0
                NMic=       0 NMicF=      0.
                    Isotopes and Nuclear Properties:
 (Nuclear quadrupole moments (NQMom) in fm**2, nuclear magnetic moments (NMagM)
  in nuclear magnetons)

  Atom         1           2           3           4           5           6           7           8
 IAtWgt=          12          12          12           1           1           1          12           1
 AtmWgt=  12.0000000  12.0000000  12.0000000   1.0078250   1.0078250   1.0078250  12.0000000   1.0078250
 NucSpn=           0           0           0           1           1           1           0           1
 AtZEff=   0.0000000   0.0000000   0.0000000   0.0000000   0.0000000   0.0000000   0.0000000   0.0000000
 NQMom=    0.0000000   0.0000000   0.0000000   0.0000000   0.0000000   0.0000000   0.0000000   0.0000000
 NMagM=    0.0000000   0.0000000   0.0000000   2.7928460   2.7928460   2.7928460   0.0000000   2.7928460
 AtZNuc=   6.0000000   6.0000000   6.0000000   1.0000000   1.0000000   1.0000000   6.0000000   1.0000000
 Leave Link  101 at Tue Oct 10 15:27:38 2017, MaxMem=    33554432 cpu:         1.1
 (Enter /usr/local/gaussian/2009-E.01/g09/l202.exe)
                          Input orientation:                          
 ---------------------------------------------------------------------
 Center     Atomic      Atomic             Coordinates (Angstroms)
 Number     Number       Type             X           Y           Z
 ---------------------------------------------------------------------
      1          6           0       -1.848986   -0.018394   -0.000291
      2          6           0       -0.518163   -0.317420    0.000267
      3          6           0        0.688409    0.365448    0.000245
      4          1           0       -2.201411    1.016900   -0.000570
      5          1           0       -2.602014   -0.803920   -0.000603
      6          1           0        0.683515    1.467507    0.000154
      7          6           0        1.877403   -0.299557   -0.000302
      8          1           0        2.935982   -0.065875   -0.000740
 ---------------------------------------------------------------------
                    Distance matrix (angstroms):
                    1          2          3          4          5
     1  C    0.000000
     2  C    1.364004   0.000000
     3  C    2.566264   1.386407   0.000000
     4  H    1.093635   2.147961   2.962339   0.000000
     5  H    1.088165   2.139887   3.492035   1.864368   0.000000
     6  H    2.936233   2.151742   1.102070   2.919905   3.994256
     7  C    3.736981   2.395633   1.362328   4.285998   4.507722
     8  H    4.785204   3.463292   2.288586   5.250258   5.586959
                    6          7          8
     6  H    0.000000
     7  C    2.132577   0.000000
     8  H    2.724861   1.084065   0.000000
 Stoichiometry    C4H4(1+,4)
 Framework group  C1[X(C4H4)]
 Deg. of freedom    18
 Full point group                 C1      NOp   1
 Largest Abelian subgroup         C1      NOp   1
 Largest concise Abelian subgroup C1      NOp   1
                         Standard orientation:                         
 ---------------------------------------------------------------------
 Center     Atomic      Atomic             Coordinates (Angstroms)
 Number     Number       Type             X           Y           Z
 ---------------------------------------------------------------------
      1          6           0        1.849270   -0.018554    0.000211
      2          6           0        0.518393   -0.317338   -0.000347
      3          6           0       -0.688055    0.365749   -0.000325
      4          1           0        2.201883    1.016675    0.000490
      5          1           0        2.602155   -0.804217    0.000523
      6          1           0       -0.682960    1.467807   -0.000234
      7          6           0       -1.877170   -0.299040    0.000222
      8          1           0       -2.935706   -0.065165    0.000660
 ---------------------------------------------------------------------
 Rotational constants (GHZ):     65.5736948      4.4695308      4.1843257
 Leave Link  202 at Tue Oct 10 15:27:38 2017, MaxMem=    33554432 cpu:         1.4
 (Enter /usr/local/gaussian/2009-E.01/g09/l301.exe)
 Standard basis: 6-311++G(d,p) (5D, 7F)
 Ernie: Thresh=  0.10000D-02 Tol=  0.10000D-05 Strict=F.
 There are   120 symmetry adapted cartesian basis functions of A   symmetry.
 There are   116 symmetry adapted basis functions of A   symmetry.
   116 basis functions,   180 primitive gaussians,   120 cartesian basis functions
    15 alpha electrons       12 beta electrons
       nuclear repulsion energy        88.1840235738 Hartrees.
 IExCor=    0 DFT=F Ex=HF Corr=None ExCW=0 ScaHFX=  1.000000
 ScaDFX=  1.000000  1.000000  1.000000  1.000000 ScalE2=  1.000000  1.000000
 IRadAn=      0 IRanWt=     -1 IRanGd=            0 ICorTp=0 IEmpDi=  4
 NAtoms=    8 NActive=    8 NUniq=    8 SFac= 1.00D+00 NAtFMM=   60 NAOKFM=F Big=F
 Integral buffers will be    131072 words long.
 Raffenetti 2 integral format.
 Two-electron integral symmetry is turned on.
 Leave Link  301 at Tue Oct 10 15:27:39 2017, MaxMem=    33554432 cpu:         7.9
 (Enter /usr/local/gaussian/2009-E.01/g09/l302.exe)
 NPDir=0 NMtPBC=     1 NCelOv=     1 NCel=       1 NClECP=     1 NCelD=      1
         NCelK=      1 NCelE2=     1 NClLst=     1 CellRange=     0.0.
 One-electron integrals computed using PRISM.
 NBasis=   116 RedAO= T EigKep=  1.95D-05  NBF=   116
 NBsUse=   116 1.00D-06 EigRej= -1.00D+00 NBFU=   116
 Leave Link  302 at Tue Oct 10 15:27:40 2017, MaxMem=    33554432 cpu:         2.1
 (Enter /usr/local/gaussian/2009-E.01/g09/l303.exe)
 DipDrv:  MaxL=1.
 Leave Link  303 at Tue Oct 10 15:27:40 2017, MaxMem=    33554432 cpu:         0.5
 (Enter /usr/local/gaussian/2009-E.01/g09/l401.exe)
 ExpMin= 3.60D-02 ExpMax= 4.56D+03 ExpMxC= 6.82D+02 IAcc=3 IRadAn=         5 AccDes= 0.00D+00
 Harris functional with IExCor=  205 and IRadAn=       5 diagonalized for initial guess.
 HarFok:  IExCor=  205 AccDes= 0.00D+00 IRadAn=         5 IDoV= 1 UseB2=F ITyADJ=14
 ICtDFT=  3500011 ScaDFX=  1.000000  1.000000  1.000000  1.000000
 FoFCou: FMM=F IPFlag=           0 FMFlag=      100000 FMFlg1=           0
         NFxFlg=           0 DoJE=T BraDBF=F KetDBF=T FulRan=T
         wScrn=  0.000000 ICntrl=     500 IOpCl=  0 I1Cent=   200000004 NGrid=           0
         NMat0=    1 NMatS0=      1 NMatT0=    0 NMatD0=    1 NMtDS0=    0 NMtDT0=    0
 Petite list used in FoFCou.
 Harris En= -153.451862778121    
 JPrj=0 DoOrth=F DoCkMO=F.
 Initial guess <Sx>= 0.0000 <Sy>= 0.0000 <Sz>= 1.5000 <S**2>= 3.7500 S= 1.5000
 Leave Link  401 at Tue Oct 10 15:27:41 2017, MaxMem=    33554432 cpu:         6.0
 (Enter /usr/local/gaussian/2009-E.01/g09/l502.exe)
 UHF open shell SCF:
 Using DIIS extrapolation, IDIIS=  1040.
 Integral symmetry usage will be decided dynamically.
 IVT=       63606 IEndB=       63606 NGot=    33554432 MDV=    33521987
 LenX=    33521987 LenY=    33507146
 Requested convergence on RMS density matrix=1.00D-08 within 128 cycles.
 Requested convergence on MAX density matrix=1.00D-06.
 Requested convergence on             energy=1.00D-06.
 No special actions if energy rises.
 Fock matrices will be formed incrementally for  20 cycles.

 Cycle   1  Pass 0  IDiag  1:
 FoFJK:  IHMeth= 1 ICntrl=       0 DoSepK=F KAlg= 0 I1Cent=   0 FoldK=F
 IRaf= 980000000 NMat=   1 IRICut=       1 DoRegI=T DoRafI=F ISym2E= 0.
 FoFCou: FMM=F IPFlag=           0 FMFlag=      100000 FMFlg1=           0
         NFxFlg=           0 DoJE=F BraDBF=F KetDBF=F FulRan=T
         wScrn=  0.000000 ICntrl=       0 IOpCl=  1 I1Cent=           0 NGrid=           0
         NMat0=    1 NMatS0=      1 NMatT0=    0 NMatD0=    1 NMtDS0=    0 NMtDT0=    0
 Symmetry not used in FoFCou.
 E= -153.261292667090    
 DIIS: error= 4.43D-02 at cycle   1 NSaved=   1.
 NSaved= 1 IEnMin= 1 EnMin= -153.261292667090     IErMin= 1 ErrMin= 4.43D-02
 ErrMax= 4.43D-02  0.00D+00 EMaxC= 1.00D-01 BMatC= 9.82D-01 BMatP= 9.82D-01
 IDIUse=3 WtCom= 5.57D-01 WtEn= 4.43D-01
 Coeff-Com:  0.100D+01
 Coeff-En:   0.100D+01
 Coeff:      0.100D+01
 Gap=     0.446 Goal=   None    Shift=    0.000
 Gap=     0.368 Goal=   None    Shift=    0.000
 GapD=    0.368 DampG=1.000 DampE=0.500 DampFc=0.5000 IDamp=-1.
 Damping current iteration by 5.00D-01
 RMSDP=7.80D-03 MaxDP=3.28D-01              OVMax= 1.28D-01

 Cycle   2  Pass 0  IDiag  1:
 RMSU=  3.90D-03    CP:  1.00D+00
 E= -153.316242117883     Delta-E=       -0.054949450793 Rises=F Damp=T
 DIIS: error= 2.42D-02 at cycle   2 NSaved=   2.
 NSaved= 2 IEnMin= 2 EnMin= -153.316242117883     IErMin= 2 ErrMin= 2.42D-02
 ErrMax= 2.42D-02  0.00D+00 EMaxC= 1.00D-01 BMatC= 2.66D-01 BMatP= 9.82D-01
 IDIUse=3 WtCom= 7.58D-01 WtEn= 2.42D-01
 Coeff-Com: -0.971D+00 0.197D+01
 Coeff-En:   0.000D+00 0.100D+01
 Coeff:     -0.737D+00 0.174D+01
 Gap=     0.433 Goal=   None    Shift=    0.000
 Gap=     0.380 Goal=   None    Shift=    0.000
 RMSDP=5.15D-03 MaxDP=2.23D-01 DE=-5.49D-02 OVMax= 5.43D-02

 Cycle   3  Pass 0  IDiag  1:
 RMSU=  2.58D-03    CP:  9.20D-01  2.03D+00
 E= -153.381757626809     Delta-E=       -0.065515508926 Rises=F Damp=F
 DIIS: error= 7.04D-03 at cycle   3 NSaved=   3.
 NSaved= 3 IEnMin= 3 EnMin= -153.381757626809     IErMin= 3 ErrMin= 7.04D-03
 ErrMax= 7.04D-03  0.00D+00 EMaxC= 1.00D-01 BMatC= 5.03D-03 BMatP= 2.66D-01
 IDIUse=3 WtCom= 9.30D-01 WtEn= 7.04D-02
 Coeff-Com: -0.876D-01 0.122D+00 0.965D+00
 Coeff-En:   0.000D+00 0.000D+00 0.100D+01
 Coeff:     -0.814D-01 0.114D+00 0.968D+00
 Gap=     0.435 Goal=   None    Shift=    0.000
 Gap=     0.388 Goal=   None    Shift=    0.000
 RMSDP=1.15D-03 MaxDP=4.72D-02 DE=-6.55D-02 OVMax= 3.22D-02

 Cycle   4  Pass 0  IDiag  1:
 RMSU=  6.03D-04    CP:  9.03D-01  2.22D+00  1.20D+00
 E= -153.385690982336     Delta-E=       -0.003933355527 Rises=F Damp=F
 DIIS: error= 5.21D-03 at cycle   4 NSaved=   4.
 NSaved= 4 IEnMin= 4 EnMin= -153.385690982336     IErMin= 4 ErrMin= 5.21D-03
 ErrMax= 5.21D-03  0.00D+00 EMaxC= 1.00D-01 BMatC= 1.75D-03 BMatP= 5.03D-03
 IDIUse=3 WtCom= 9.48D-01 WtEn= 5.21D-02
 Coeff-Com:  0.121D+00-0.230D+00-0.201D+00 0.131D+01
 Coeff-En:   0.000D+00 0.000D+00 0.000D+00 0.100D+01
 Coeff:      0.114D+00-0.218D+00-0.191D+00 0.129D+01
 Gap=     0.441 Goal=   None    Shift=    0.000
 Gap=     0.402 Goal=   None    Shift=    0.000
 RMSDP=6.83D-04 MaxDP=2.10D-02 DE=-3.93D-03 OVMax= 3.39D-02

 Cycle   5  Pass 0  IDiag  1:
 RMSU=  2.95D-04    CP:  8.94D-01  2.27D+00  1.34D+00  1.65D+00
 E= -153.387916563003     Delta-E=       -0.002225580667 Rises=F Damp=F
 DIIS: error= 3.09D-03 at cycle   5 NSaved=   5.
 NSaved= 5 IEnMin= 5 EnMin= -153.387916563003     IErMin= 5 ErrMin= 3.09D-03
 ErrMax= 3.09D-03  0.00D+00 EMaxC= 1.00D-01 BMatC= 6.56D-04 BMatP= 1.75D-03
 IDIUse=3 WtCom= 9.69D-01 WtEn= 3.09D-02
 Coeff-Com:  0.809D-02-0.785D-02-0.117D+00-0.391D+00 0.151D+01
 Coeff-En:   0.000D+00 0.000D+00 0.000D+00 0.000D+00 0.100D+01
 Coeff:      0.784D-02-0.760D-02-0.113D+00-0.379D+00 0.149D+01
 Gap=     0.445 Goal=   None    Shift=    0.000
 Gap=     0.412 Goal=   None    Shift=    0.000
 RMSDP=4.57D-04 MaxDP=9.80D-03 DE=-2.23D-03 OVMax= 2.76D-02

 Cycle   6  Pass 0  IDiag  1:
 RMSU=  1.35D-04    CP:  8.90D-01  2.28D+00  1.40D+00  2.14D+00  1.92D+00
 E= -153.389200379442     Delta-E=       -0.001283816439 Rises=F Damp=F
 DIIS: error= 1.61D-03 at cycle   6 NSaved=   6.
 NSaved= 6 IEnMin= 6 EnMin= -153.389200379442     IErMin= 6 ErrMin= 1.61D-03
 ErrMax= 1.61D-03  0.00D+00 EMaxC= 1.00D-01 BMatC= 3.05D-04 BMatP= 6.56D-04
 IDIUse=3 WtCom= 9.84D-01 WtEn= 1.61D-02
 Coeff-Com: -0.698D-01 0.124D+00 0.341D+00-0.675D+00-0.846D+00 0.213D+01
 Coeff-En:   0.000D+00 0.000D+00 0.000D+00 0.000D+00 0.000D+00 0.100D+01
 Coeff:     -0.687D-01 0.122D+00 0.336D+00-0.664D+00-0.832D+00 0.211D+01
 Gap=     0.448 Goal=   None    Shift=    0.000
 Gap=     0.422 Goal=   None    Shift=    0.000
 RMSDP=5.04D-04 MaxDP=1.15D-02 DE=-1.28D-03 OVMax= 3.40D-02

 Cycle   7  Pass 0  IDiag  1:
 RMSU=  1.12D-04    CP:  8.94D-01  2.24D+00  1.38D+00  2.38D+00  3.00D+00
                    CP:  2.49D+00
 E= -153.389965041372     Delta-E=       -0.000764661930 Rises=F Damp=F
 DIIS: error= 8.20D-04 at cycle   7 NSaved=   7.
 NSaved= 7 IEnMin= 7 EnMin= -153.389965041372     IErMin= 7 ErrMin= 8.20D-04
 ErrMax= 8.20D-04  0.00D+00 EMaxC= 1.00D-01 BMatC= 5.38D-05 BMatP= 3.05D-04
 IDIUse=3 WtCom= 9.92D-01 WtEn= 8.20D-03
 Coeff-Com: -0.253D-02 0.221D-02 0.594D-01-0.157D-01-0.246D+00 0.441D-02
 Coeff-Com:  0.120D+01
 Coeff-En:   0.000D+00 0.000D+00 0.000D+00 0.000D+00 0.000D+00 0.000D+00
 Coeff-En:   0.100D+01
 Coeff:     -0.251D-02 0.219D-02 0.589D-01-0.156D-01-0.244D+00 0.438D-02
 Coeff:      0.120D+01
 Gap=     0.449 Goal=   None    Shift=    0.000
 Gap=     0.424 Goal=   None    Shift=    0.000
 RMSDP=1.87D-04 MaxDP=5.51D-03 DE=-7.65D-04 OVMax= 1.28D-02

 Cycle   8  Pass 0  IDiag  1:
 RMSU=  8.15D-05    CP:  8.97D-01  2.23D+00  1.36D+00  2.41D+00  3.00D+00
                    CP:  3.00D+00  2.06D+00
 E= -153.390072405433     Delta-E=       -0.000107364061 Rises=F Damp=F
 DIIS: error= 5.29D-04 at cycle   8 NSaved=   8.
 NSaved= 8 IEnMin= 8 EnMin= -153.390072405433     IErMin= 8 ErrMin= 5.29D-04
 ErrMax= 5.29D-04  0.00D+00 EMaxC= 1.00D-01 BMatC= 1.62D-05 BMatP= 5.38D-05
 IDIUse=3 WtCom= 9.95D-01 WtEn= 5.29D-03
 Coeff-Com:  0.183D-01-0.328D-01-0.776D-01 0.124D+00 0.300D+00-0.529D+00
 Coeff-Com: -0.341D+00 0.154D+01
 Coeff-En:   0.000D+00 0.000D+00 0.000D+00 0.000D+00 0.000D+00 0.000D+00
 Coeff-En:   0.000D+00 0.100D+01
 Coeff:      0.182D-01-0.326D-01-0.772D-01 0.123D+00 0.298D+00-0.527D+00
 Coeff:     -0.339D+00 0.154D+01
 Gap=     0.449 Goal=   None    Shift=    0.000
 Gap=     0.424 Goal=   None    Shift=    0.000
 RMSDP=8.67D-05 MaxDP=1.95D-03 DE=-1.07D-04 OVMax= 7.20D-03

 Cycle   9  Pass 0  IDiag  1:
 RMSU=  4.53D-05    CP:  8.98D-01  2.22D+00  1.36D+00  2.41D+00  3.00D+00
                    CP:  3.00D+00  2.61D+00  1.32D+00
 E= -153.390105537267     Delta-E=       -0.000033131834 Rises=F Damp=F
 DIIS: error= 2.52D-04 at cycle   9 NSaved=   9.
 NSaved= 9 IEnMin= 9 EnMin= -153.390105537267     IErMin= 9 ErrMin= 2.52D-04
 ErrMax= 2.52D-04  0.00D+00 EMaxC= 1.00D-01 BMatC= 5.76D-06 BMatP= 1.62D-05
 IDIUse=3 WtCom= 9.97D-01 WtEn= 2.52D-03
 Coeff-Com: -0.111D-01 0.201D-01 0.540D-01-0.113D+00-0.153D+00 0.446D+00
 Coeff-Com: -0.265D+00-0.811D+00 0.183D+01
 Coeff-En:   0.000D+00 0.000D+00 0.000D+00 0.000D+00 0.000D+00 0.000D+00
 Coeff-En:   0.000D+00 0.000D+00 0.100D+01
 Coeff:     -0.111D-01 0.201D-01 0.538D-01-0.113D+00-0.153D+00 0.445D+00
 Coeff:     -0.264D+00-0.809D+00 0.183D+01
 Gap=     0.448 Goal=   None    Shift=    0.000
 Gap=     0.424 Goal=   None    Shift=    0.000
 RMSDP=4.96D-05 MaxDP=1.02D-03 DE=-3.31D-05 OVMax= 3.86D-03

 Cycle  10  Pass 0  IDiag  1:
 RMSU=  2.15D-05    CP:  8.98D-01  2.22D+00  1.36D+00  2.41D+00  3.00D+00
                    CP:  3.00D+00  2.79D+00  1.50D+00  1.77D+00
 E= -153.390118111559     Delta-E=       -0.000012574292 Rises=F Damp=F
 DIIS: error= 1.22D-04 at cycle  10 NSaved=  10.
 NSaved=10 IEnMin=10 EnMin= -153.390118111559     IErMin=10 ErrMin= 1.22D-04
 ErrMax= 1.22D-04  0.00D+00 EMaxC= 1.00D-01 BMatC= 1.66D-06 BMatP= 5.76D-06
 IDIUse=3 WtCom= 9.99D-01 WtEn= 1.22D-03
 Coeff-Com:  0.673D-03-0.138D-02-0.412D-02 0.233D-01-0.149D-01-0.528D-01
 Coeff-Com:  0.131D+00 0.230D+00-0.139D+01 0.208D+01
 Coeff-En:   0.000D+00 0.000D+00 0.000D+00 0.000D+00 0.000D+00 0.000D+00
 Coeff-En:   0.000D+00 0.000D+00 0.000D+00 0.100D+01
 Coeff:      0.672D-03-0.138D-02-0.412D-02 0.233D-01-0.148D-01-0.528D-01
 Coeff:      0.131D+00 0.229D+00-0.139D+01 0.208D+01
 Gap=     0.448 Goal=   None    Shift=    0.000
 Gap=     0.423 Goal=   None    Shift=    0.000
 RMSDP=3.69D-05 MaxDP=8.68D-04 DE=-1.26D-05 OVMax= 2.55D-03

 Cycle  11  Pass 0  IDiag  1:
 RMSU=  1.06D-05    CP:  8.98D-01  2.22D+00  1.36D+00  2.42D+00  3.00D+00
                    CP:  3.00D+00  2.84D+00  1.61D+00  2.31D+00  2.07D+00
 E= -153.390122570283     Delta-E=       -0.000004458724 Rises=F Damp=F
 DIIS: error= 4.51D-05 at cycle  11 NSaved=  11.
 NSaved=11 IEnMin=11 EnMin= -153.390122570283     IErMin=11 ErrMin= 4.51D-05
 ErrMax= 4.51D-05  0.00D+00 EMaxC= 1.00D-01 BMatC= 2.86D-07 BMatP= 1.66D-06
 IDIUse=1 WtCom= 1.00D+00 WtEn= 0.00D+00
 Coeff-Com:  0.255D-02-0.465D-02-0.130D-01 0.273D-01 0.344D-01-0.102D+00
 Coeff-Com:  0.391D-01 0.252D+00-0.544D+00 0.128D+00 0.118D+01
 Coeff:      0.255D-02-0.465D-02-0.130D-01 0.273D-01 0.344D-01-0.102D+00
 Coeff:      0.391D-01 0.252D+00-0.544D+00 0.128D+00 0.118D+01
 Gap=     0.448 Goal=   None    Shift=    0.000
 Gap=     0.423 Goal=   None    Shift=    0.000
 RMSDP=1.38D-05 MaxDP=2.92D-04 DE=-4.46D-06 OVMax= 9.09D-04

 Cycle  12  Pass 0  IDiag  1:
 RMSU=  3.95D-06    CP:  8.98D-01  2.22D+00  1.36D+00  2.42D+00  3.00D+00
                    CP:  3.00D+00  2.87D+00  1.64D+00  2.47D+00  2.42D+00
                    CP:  1.59D+00
 E= -153.390123099028     Delta-E=       -0.000000528745 Rises=F Damp=F
 DIIS: error= 1.66D-05 at cycle  12 NSaved=  12.
 NSaved=12 IEnMin=12 EnMin= -153.390123099028     IErMin=12 ErrMin= 1.66D-05
 ErrMax= 1.66D-05  0.00D+00 EMaxC= 1.00D-01 BMatC= 3.92D-08 BMatP= 2.86D-07
 IDIUse=1 WtCom= 1.00D+00 WtEn= 0.00D+00
 Coeff-Com: -0.500D-03 0.927D-03 0.316D-02-0.840D-02-0.340D-02 0.260D-01
 Coeff-Com: -0.329D-01-0.726D-01 0.347D+00-0.431D+00-0.183D+00 0.135D+01
 Coeff:     -0.500D-03 0.927D-03 0.316D-02-0.840D-02-0.340D-02 0.260D-01
 Coeff:     -0.329D-01-0.726D-01 0.347D+00-0.431D+00-0.183D+00 0.135D+01
 Gap=     0.448 Goal=   None    Shift=    0.000
 Gap=     0.423 Goal=   None    Shift=    0.000
 RMSDP=4.82D-06 MaxDP=1.12D-04 DE=-5.29D-07 OVMax= 2.87D-04

 Initial convergence to 1.0D-05 achieved.  Increase integral accuracy.
 Cycle  13  Pass 1  IDiag  1:
 E= -153.390123163363     Delta-E=       -0.000000064336 Rises=F Damp=F
 DIIS: error= 6.11D-06 at cycle   1 NSaved=   1.
 NSaved= 1 IEnMin= 1 EnMin= -153.390123163363     IErMin= 1 ErrMin= 6.11D-06
 ErrMax= 6.11D-06  0.00D+00 EMaxC= 1.00D-01 BMatC= 6.71D-09 BMatP= 6.71D-09
 IDIUse=1 WtCom= 1.00D+00 WtEn= 0.00D+00
 Coeff-Com:  0.100D+01
 Coeff:      0.100D+01
 Gap=     0.448 Goal=   None    Shift=    0.000
 Gap=     0.423 Goal=   None    Shift=    0.000
 RMSDP=4.82D-06 MaxDP=1.12D-04 DE=-6.43D-08 OVMax= 4.47D-05

 Cycle  14  Pass 1  IDiag  1:
 RMSU=  1.07D-06    CP:  1.00D+00
 E= -153.390123168894     Delta-E=       -0.000000005531 Rises=F Damp=F
 DIIS: error= 6.02D-06 at cycle   2 NSaved=   2.
 NSaved= 2 IEnMin= 2 EnMin= -153.390123168894     IErMin= 2 ErrMin= 6.02D-06
 ErrMax= 6.02D-06  0.00D+00 EMaxC= 1.00D-01 BMatC= 2.63D-09 BMatP= 6.71D-09
 IDIUse=1 WtCom= 1.00D+00 WtEn= 0.00D+00
 Coeff-Com: -0.655D+00 0.165D+01
 Coeff:     -0.655D+00 0.165D+01
 Gap=     0.448 Goal=   None    Shift=    0.000
 Gap=     0.423 Goal=   None    Shift=    0.000
 RMSDP=9.60D-07 MaxDP=2.91D-05 DE=-5.53D-09 OVMax= 7.16D-05

 Cycle  15  Pass 1  IDiag  1:
 RMSU=  5.17D-07    CP:  1.00D+00  1.76D+00
 E= -153.390123172983     Delta-E=       -0.000000004089 Rises=F Damp=F
 DIIS: error= 3.20D-06 at cycle   3 NSaved=   3.
 NSaved= 3 IEnMin= 3 EnMin= -153.390123172983     IErMin= 3 ErrMin= 3.20D-06
 ErrMax= 3.20D-06  0.00D+00 EMaxC= 1.00D-01 BMatC= 1.20D-09 BMatP= 2.63D-09
 IDIUse=1 WtCom= 1.00D+00 WtEn= 0.00D+00
 Coeff-Com: -0.652D+00 0.544D+00 0.111D+01
 Coeff:     -0.652D+00 0.544D+00 0.111D+01
 Gap=     0.448 Goal=   None    Shift=    0.000
 Gap=     0.423 Goal=   None    Shift=    0.000
 RMSDP=7.82D-07 MaxDP=2.52D-05 DE=-4.09D-09 OVMax= 5.60D-05

 Cycle  16  Pass 1  IDiag  1:
 RMSU=  2.04D-07    CP:  1.00D+00  2.40D+00  1.51D+00
 E= -153.390123174797     Delta-E=       -0.000000001814 Rises=F Damp=F
 DIIS: error= 2.14D-06 at cycle   4 NSaved=   4.
 NSaved= 4 IEnMin= 4 EnMin= -153.390123174797     IErMin= 4 ErrMin= 2.14D-06
 ErrMax= 2.14D-06  0.00D+00 EMaxC= 1.00D-01 BMatC= 2.42D-10 BMatP= 1.20D-09
 IDIUse=1 WtCom= 1.00D+00 WtEn= 0.00D+00
 Coeff-Com:  0.539D+00-0.370D+00-0.133D+01 0.216D+01
 Coeff:      0.539D+00-0.370D+00-0.133D+01 0.216D+01
 Gap=     0.448 Goal=   None    Shift=    0.000
 Gap=     0.423 Goal=   None    Shift=    0.000
 RMSDP=3.66D-07 MaxDP=9.20D-06 DE=-1.81D-09 OVMax= 3.96D-05

 Cycle  17  Pass 1  IDiag  1:
 RMSU=  1.05D-07    CP:  1.00D+00  2.57D+00  1.88D+00  2.15D+00
 E= -153.390123175405     Delta-E=       -0.000000000608 Rises=F Damp=F
 DIIS: error= 1.03D-06 at cycle   5 NSaved=   5.
 NSaved= 5 IEnMin= 5 EnMin= -153.390123175405     IErMin= 5 ErrMin= 1.03D-06
 ErrMax= 1.03D-06  0.00D+00 EMaxC= 1.00D-01 BMatC= 8.22D-11 BMatP= 2.42D-10
 IDIUse=1 WtCom= 1.00D+00 WtEn= 0.00D+00
 Coeff-Com: -0.409D-01 0.112D+00-0.356D-01-0.713D+00 0.168D+01
 Coeff:     -0.409D-01 0.112D+00-0.356D-01-0.713D+00 0.168D+01
 Gap=     0.448 Goal=   None    Shift=    0.000
 Gap=     0.423 Goal=   None    Shift=    0.000
 RMSDP=2.11D-07 MaxDP=4.92D-06 DE=-6.08D-10 OVMax= 2.57D-05

 Cycle  18  Pass 1  IDiag  1:
 RMSU=  5.50D-08    CP:  1.00D+00  2.65D+00  2.06D+00  2.76D+00  1.93D+00
 E= -153.390123175608     Delta-E=       -0.000000000203 Rises=F Damp=F
 DIIS: error= 4.10D-07 at cycle   6 NSaved=   6.
 NSaved= 6 IEnMin= 6 EnMin= -153.390123175608     IErMin= 6 ErrMin= 4.10D-07
 ErrMax= 4.10D-07  0.00D+00 EMaxC= 1.00D-01 BMatC= 2.10D-11 BMatP= 8.22D-11
 IDIUse=1 WtCom= 1.00D+00 WtEn= 0.00D+00
 Coeff-Com: -0.247D+00 0.194D+00 0.515D+00-0.690D+00-0.391D+00 0.162D+01
 Coeff:     -0.247D+00 0.194D+00 0.515D+00-0.690D+00-0.391D+00 0.162D+01
 Gap=     0.448 Goal=   None    Shift=    0.000
 Gap=     0.423 Goal=   None    Shift=    0.000
 RMSDP=1.25D-07 MaxDP=3.25D-06 DE=-2.03D-10 OVMax= 1.43D-05

 Cycle  19  Pass 1  IDiag  1:
 RMSU=  3.14D-08    CP:  1.00D+00  2.72D+00  2.10D+00  2.98D+00  2.58D+00
                    CP:  1.81D+00
 E= -153.390123175656     Delta-E=       -0.000000000048 Rises=F Damp=F
 DIIS: error= 1.85D-07 at cycle   7 NSaved=   7.
 NSaved= 7 IEnMin= 7 EnMin= -153.390123175656     IErMin= 7 ErrMin= 1.85D-07
 ErrMax= 1.85D-07  0.00D+00 EMaxC= 1.00D-01 BMatC= 2.91D-12 BMatP= 2.10D-11
 IDIUse=1 WtCom= 1.00D+00 WtEn= 0.00D+00
 Coeff-Com: -0.153D-01 0.384D-02 0.427D-01 0.445D-01-0.261D+00 0.524D-01
 Coeff-Com:  0.113D+01
 Coeff:     -0.153D-01 0.384D-02 0.427D-01 0.445D-01-0.261D+00 0.524D-01
 Coeff:      0.113D+01
 Gap=     0.448 Goal=   None    Shift=    0.000
 Gap=     0.423 Goal=   None    Shift=    0.000
 RMSDP=3.43D-08 MaxDP=7.48D-07 DE=-4.83D-11 OVMax= 3.46D-06

 Cycle  20  Pass 1  IDiag  1:
 RMSU=  1.22D-08    CP:  1.00D+00  2.73D+00  2.13D+00  3.00D+00  2.69D+00
                    CP:  2.10D+00  1.41D+00
 E= -153.390123175661     Delta-E=       -0.000000000005 Rises=F Damp=F
 DIIS: error= 1.46D-07 at cycle   8 NSaved=   8.
 NSaved= 8 IEnMin= 8 EnMin= -153.390123175661     IErMin= 8 ErrMin= 1.46D-07
 ErrMax= 1.46D-07  0.00D+00 EMaxC= 1.00D-01 BMatC= 1.03D-12 BMatP= 2.91D-12
 IDIUse=1 WtCom= 1.00D+00 WtEn= 0.00D+00
 Coeff-Com:  0.601D-01-0.439D-01-0.129D+00 0.114D+00 0.266D+00-0.472D+00
 Coeff-Com: -0.466D+00 0.167D+01
 Coeff:      0.601D-01-0.439D-01-0.129D+00 0.114D+00 0.266D+00-0.472D+00
 Coeff:     -0.466D+00 0.167D+01
 Gap=     0.448 Goal=   None    Shift=    0.000
 Gap=     0.423 Goal=   None    Shift=    0.000
 RMSDP=2.37D-08 MaxDP=7.16D-07 DE=-5.06D-12 OVMax= 1.64D-06

 Cycle  21  Pass 1  IDiag  1:
 RMSU=  9.92D-09    CP:  1.00D+00  2.73D+00  2.15D+00  3.00D+00  2.67D+00
                    CP:  2.25D+00  1.78D+00  1.93D+00
 E= -153.390123175663     Delta-E=       -0.000000000002 Rises=F Damp=F
 DIIS: error= 9.08D-08 at cycle   9 NSaved=   9.
 NSaved= 9 IEnMin= 9 EnMin= -153.390123175663     IErMin= 9 ErrMin= 9.08D-08
 ErrMax= 9.08D-08  0.00D+00 EMaxC= 1.00D-01 BMatC= 3.18D-13 BMatP= 1.03D-12
 IDIUse=1 WtCom= 1.00D+00 WtEn= 0.00D+00
 Coeff-Com: -0.325D-01 0.263D-01 0.686D-01-0.102D+00-0.347D-01 0.223D+00
 Coeff-Com: -0.961D-01-0.955D+00 0.190D+01
 Coeff:     -0.325D-01 0.263D-01 0.686D-01-0.102D+00-0.347D-01 0.223D+00
 Coeff:     -0.961D-01-0.955D+00 0.190D+01
 Gap=     0.448 Goal=   None    Shift=    0.000
 Gap=     0.423 Goal=   None    Shift=    0.000
 RMSDP=1.70D-08 MaxDP=4.21D-07 DE=-2.07D-12 OVMax= 1.47D-06

 Cycle  22  Pass 1  IDiag  1:
 RMSU=  3.89D-09    CP:  1.00D+00  2.73D+00  2.15D+00  3.00D+00  2.66D+00
                    CP:  2.35D+00  1.94D+00  2.54D+00  2.22D+00
 E= -153.390123175664     Delta-E=       -0.000000000001 Rises=F Damp=F
 DIIS: error= 4.24D-08 at cycle  10 NSaved=  10.
 NSaved=10 IEnMin=10 EnMin= -153.390123175664     IErMin=10 ErrMin= 4.24D-08
 ErrMax= 4.24D-08  0.00D+00 EMaxC= 1.00D-01 BMatC= 6.46D-14 BMatP= 3.18D-13
 IDIUse=1 WtCom= 1.00D+00 WtEn= 0.00D+00
 Coeff-Com: -0.793D-02 0.501D-02 0.177D-01-0.790D-02-0.548D-01 0.656D-01
 Coeff-Com:  0.136D+00-0.162D+00-0.603D+00 0.161D+01
 Coeff:     -0.793D-02 0.501D-02 0.177D-01-0.790D-02-0.548D-01 0.656D-01
 Coeff:      0.136D+00-0.162D+00-0.603D+00 0.161D+01
 Gap=     0.448 Goal=   None    Shift=    0.000
 Gap=     0.423 Goal=   None    Shift=    0.000
 RMSDP=7.91D-09 MaxDP=2.13D-07 DE=-7.96D-13 OVMax= 7.93D-07

 SCF Done:  E(UHF) =  -153.390123176     A.U. after   22 cycles
            NFock= 22  Conv=0.79D-08     -V/T= 2.0006
 <Sx>= 0.0000 <Sy>= 0.0000 <Sz>= 1.5000 <S**2>= 3.9497 S= 1.5493
 <L.S>= 0.000000000000E+00
 KE= 1.532905580103D+02 PE=-5.265857845099D+02 EE= 1.317210797502D+02
 Annihilation of the first spin contaminant:
 S**2 before annihilation     3.9497,   after     3.7544
 Leave Link  502 at Tue Oct 10 15:27:55 2017, MaxMem=    33554432 cpu:       101.2
 (Enter /usr/local/gaussian/2009-E.01/g09/l801.exe)
 Windowed orbitals will be sorted by symmetry type.
 ExpMin= 3.60D-02 ExpMax= 4.56D+03 ExpMxC= 6.82D+02 IAcc=3 IRadAn=         5 AccDes= 0.00D+00
 HarFok:  IExCor=  205 AccDes= 0.00D+00 IRadAn=         5 IDoV=-2 UseB2=F ITyADJ=14
 ICtDFT= 12500011 ScaDFX=  1.000000  1.000000  1.000000  1.000000
 Largest valence mixing into a core orbital is  1.21D-04
 Largest core mixing into a valence orbital is  3.25D-05
 Largest valence mixing into a core orbital is  1.63D-04
 Largest core mixing into a valence orbital is  4.78D-05
 Range of M.O.s used for correlation:     5   116
 NBasis=   116 NAE=    15 NBE=    12 NFC=     4 NFV=     0
 NROrb=    112 NOA=    11 NOB=     8 NVA=   101 NVB=   104

 **** Warning!!: The largest alpha MO coefficient is  0.99271450D+02


 **** Warning!!: The largest beta MO coefficient is  0.10075295D+03

 Leave Link  801 at Tue Oct 10 15:27:55 2017, MaxMem=    33554432 cpu:         0.8
 (Enter /usr/local/gaussian/2009-E.01/g09/l804.exe)
 Open-shell transformation, MDV=    33554432 ITran=4 ISComp=1.
 Semi-Direct transformation.
 ModeAB=           2 MOrb=            11 LenV=      33073649
 LASXX=      7185266 LTotXX=     7185266 LenRXX=     7185266
 LTotAB=     7448056 MaxLAS=     8944320 LenRXY=     8944320
 NonZer=    14370532 LenScr=    22316544 LnRSAI=           0
 LnScr1=           0 LExtra=           0 Total=     38446130
 MaxDsk=          -1 SrtSym=           F ITran=            4
 DoSDTr:  NPSUse=  8
 JobTyp=1 Pass  1:  I=   1 to  11.
 (rs|ai) integrals will be sorted in core.
 Complete sort for first half transformation.
 First half transformation complete.
 Begin second half transformation for I=  10.
 Begin second half transformation for I=  10.
 Complete sort for second half transformation.
 Second half transformation complete.
 ModeAB=           2 MOrb=             8 LenV=      33073649
 LASXX=      5322086 LTotXX=     5322086 LenRXX=     6504960
 LTotAB=     4471068 MaxLAS=     6504960 LenRXY=     4471068
 NonZer=    10644172 LenScr=    16715776 LnRSAI=           0
 LnScr1=           0 LExtra=           0 Total=     27691804
 MaxDsk=          -1 SrtSym=           F ITran=            4
 DoSDTr:  NPSUse=  8
 JobTyp=2 Pass  1:  I=   1 to   8.
 (rs|ai) integrals will be sorted in core.
 Complete sort for first half transformation.
 First half transformation complete.
 Complete sort for second half transformation.
 Second half transformation complete.
 SymMOI:  orbitals are not symmetric.
 Spin components of T(2) and E(2):
     alpha-alpha T2 =       0.2569758142D-01 E2=     -0.7149960558D-01
     alpha-beta  T2 =       0.1109029651D+00 E2=     -0.3258347260D+00
     beta-beta   T2 =       0.1417352816D-01 E2=     -0.3794372359D-01
 ANorm=    0.1072741383D+01
 E2 =    -0.4352780552D+00 EUMP2 =    -0.15382540123085D+03
 (S**2,0)=  0.39497D+01           (S**2,1)=  0.38910D+01
 E(PUHF)=      -0.15339889659D+03        E(PMP2)=      -0.15383290489D+03
 Leave Link  804 at Tue Oct 10 15:27:59 2017, MaxMem=    33554432 cpu:        34.1
 (Enter /usr/local/gaussian/2009-E.01/g09/l913.exe)
 CIDS:  MDV=    33554432.
 Frozen-core window:  NFC=   4 NFV=   0.
 IFCWin=0 IBDFC=1 NFBD=     0     0 NFCmp=     0     0 NFFFC=     0     0
 Using original routines for 1st iteration, S=T.
 Using DD4UQ or CC4UQ for 2nd and later iterations.
 Would need an additional        13389663 words for in-memory AO integral storage.
 CCSD(T)
 =======
 Iterations= 200 Convergence= 0.100D-06
 Iteration Nr.   1
 **********************
 DD1Dir will call FoFJK   2 times, MxPair=       130
 NAB=    88 NAA=    55 NBB=    28 NumPrc=  8.
 DD1Dir:  Pass   1 NRAB=    65 NRAA=     0 NRBB=     0 NR=   130.
 FoFJK:  IHMeth= 1 ICntrl=     200 DoSepK=F KAlg= 0 I1Cent=   0 FoldK=F
 IRaf= 990000000 NMat= 130 IRICut=     162 DoRegI=T DoRafI=T ISym2E= 2.
 FoFCou: FMM=F IPFlag=           0 FMFlag=      100000 FMFlg1=           0
         NFxFlg=           0 DoJE=F BraDBF=F KetDBF=F FulRan=T
         wScrn=  0.000000 ICntrl=     200 IOpCl=  0 I1Cent=           0 NGrid=           0
         NMat0=  130 NMatS0=      0 NMatT0=   65 NMatD0=  130 NMtDS0=    0 NMtDT0=    0
 Integrals replicated using symmetry in FoFCou.
 DD1Dir:  Pass   2 NRAB=    23 NRAA=    55 NRBB=    28 NR=   129.
 E(PMP3)=      -0.15387135741D+03
 MP4(R+Q)=  0.10069019D-01
 Maximum subspace dimension=  5
 Norm of the A-vectors is  6.7966366D-01 conv= 1.00D-05.
 RLE energy=       -0.4679286196
 E3=       -0.40371608D-01        EUMP3=      -0.15386577284D+03
 E4(DQ)=   -0.16718346D-02        UMP4(DQ)=   -0.15386744467D+03
 E4(SDQ)=  -0.79472108D-02        UMP4(SDQ)=  -0.15387372005D+03
 VARIATIONAL ENERGIES WITH THE FIRST-ORDER WAVEFUNCTION:
 DE(Corr)= -0.46565038     E(Corr)=     -153.85577356    
 NORM(A)=   0.10887440D+01
 Iteration Nr.   2
 **********************
 DD1Dir will call FoFJK   2 times, MxPair=       130
 NAB=    88 NAA=    55 NBB=    28 NumPrc=  8.
 DD1Dir:  Pass   1 NRAB=    65 NRAA=     0 NRBB=     0 NR=   130.
 DD1Dir:  Pass   2 NRAB=    23 NRAA=    55 NRBB=    28 NR=   129.
 Norm of the A-vectors is  2.8925849D-01 conv= 1.00D-05.
 RLE energy=       -0.4846821362
 DE(Corr)= -0.48068693     E(CORR)=     -153.87081010     Delta=-1.50D-02
 NORM(A)=   0.11003914D+01
 Iteration Nr.   3
 **********************
 DD1Dir will call FoFJK   2 times, MxPair=       130
 NAB=    88 NAA=    55 NBB=    28 NumPrc=  8.
 DD1Dir:  Pass   1 NRAB=    65 NRAA=     0 NRBB=     0 NR=   130.
 DD1Dir:  Pass   2 NRAB=    23 NRAA=    55 NRBB=    28 NR=   129.
 Norm of the A-vectors is  9.2738388D-02 conv= 1.00D-05.
 RLE energy=       -0.4873670490
 DE(Corr)= -0.48439826     E(CORR)=     -153.87452144     Delta=-3.71D-03
 NORM(A)=   0.11090644D+01
 Iteration Nr.   4
 **********************
 DD1Dir will call FoFJK   2 times, MxPair=       130
 NAB=    88 NAA=    55 NBB=    28 NumPrc=  8.
 DD1Dir:  Pass   1 NRAB=    65 NRAA=     0 NRBB=     0 NR=   130.
 DD1Dir:  Pass   2 NRAB=    23 NRAA=    55 NRBB=    28 NR=   129.
 Norm of the A-vectors is  6.3484582D-02 conv= 1.00D-05.
 RLE energy=       -0.4885214489
 DE(Corr)= -0.48756085     E(CORR)=     -153.87768402     Delta=-3.16D-03
 NORM(A)=   0.11145227D+01
 Iteration Nr.   5
 **********************
 DD1Dir will call FoFJK   2 times, MxPair=       130
 NAB=    88 NAA=    55 NBB=    28 NumPrc=  8.
 DD1Dir:  Pass   1 NRAB=    65 NRAA=     0 NRBB=     0 NR=   130.
 DD1Dir:  Pass   2 NRAB=    23 NRAA=    55 NRBB=    28 NR=   129.
 Norm of the A-vectors is  2.7196071D-02 conv= 1.00D-05.
 RLE energy=       -0.4887409110
 DE(Corr)= -0.48850385     E(CORR)=     -153.87862703     Delta=-9.43D-04
 NORM(A)=   0.11164607D+01
 Iteration Nr.   6
 **********************
 DD1Dir will call FoFJK   2 times, MxPair=       130
 NAB=    88 NAA=    55 NBB=    28 NumPrc=  8.
 DD1Dir:  Pass   1 NRAB=    65 NRAA=     0 NRBB=     0 NR=   130.
 DD1Dir:  Pass   2 NRAB=    23 NRAA=    55 NRBB=    28 NR=   129.
 Norm of the A-vectors is  1.2955617D-02 conv= 1.00D-05.
 RLE energy=       -0.4886103845
 DE(Corr)= -0.48868287     E(CORR)=     -153.87880604     Delta=-1.79D-04
 NORM(A)=   0.11167550D+01
 Iteration Nr.   7
 **********************
 DD1Dir will call FoFJK   2 times, MxPair=       130
 NAB=    88 NAA=    55 NBB=    28 NumPrc=  8.
 DD1Dir:  Pass   1 NRAB=    65 NRAA=     0 NRBB=     0 NR=   130.
 DD1Dir:  Pass   2 NRAB=    23 NRAA=    55 NRBB=    28 NR=   129.
 Norm of the A-vectors is  5.2919077D-03 conv= 1.00D-05.
 RLE energy=       -0.4886971971
 DE(Corr)= -0.48869238     E(CORR)=     -153.87881555     Delta=-9.51D-06
 NORM(A)=   0.11168864D+01
 Iteration Nr.   8
 **********************
 DD1Dir will call FoFJK   2 times, MxPair=       130
 NAB=    88 NAA=    55 NBB=    28 NumPrc=  8.
 DD1Dir:  Pass   1 NRAB=    65 NRAA=     0 NRBB=     0 NR=   130.
 DD1Dir:  Pass   2 NRAB=    23 NRAA=    55 NRBB=    28 NR=   129.
 Norm of the A-vectors is  2.8207101D-03 conv= 1.00D-05.
 RLE energy=       -0.4886756469
 DE(Corr)= -0.48868430     E(CORR)=     -153.87880747     Delta= 8.08D-06
 NORM(A)=   0.11169188D+01
 Iteration Nr.   9
 **********************
 DD1Dir will call FoFJK   2 times, MxPair=       130
 NAB=    88 NAA=    55 NBB=    28 NumPrc=  8.
 DD1Dir:  Pass   1 NRAB=    65 NRAA=     0 NRBB=     0 NR=   130.
 DD1Dir:  Pass   2 NRAB=    23 NRAA=    55 NRBB=    28 NR=   129.
 Norm of the A-vectors is  1.5537426D-03 conv= 1.00D-05.
 RLE energy=       -0.4886984039
 DE(Corr)= -0.48869395     E(CORR)=     -153.87881712     Delta=-9.65D-06
 NORM(A)=   0.11169282D+01
 Iteration Nr.  10
 **********************
 DD1Dir will call FoFJK   2 times, MxPair=       130
 NAB=    88 NAA=    55 NBB=    28 NumPrc=  8.
 DD1Dir:  Pass   1 NRAB=    65 NRAA=     0 NRBB=     0 NR=   130.
 DD1Dir:  Pass   2 NRAB=    23 NRAA=    55 NRBB=    28 NR=   129.
 Norm of the A-vectors is  7.3537073D-04 conv= 1.00D-05.
 RLE energy=       -0.4886939295
 DE(Corr)= -0.48869196     E(CORR)=     -153.87881514     Delta= 1.98D-06
 NORM(A)=   0.11169427D+01
 Iteration Nr.  11
 **********************
 DD1Dir will call FoFJK   2 times, MxPair=       130
 NAB=    88 NAA=    55 NBB=    28 NumPrc=  8.
 DD1Dir:  Pass   1 NRAB=    65 NRAA=     0 NRBB=     0 NR=   130.
 DD1Dir:  Pass   2 NRAB=    23 NRAA=    55 NRBB=    28 NR=   129.
 Norm of the A-vectors is  5.9354431D-04 conv= 1.00D-05.
 RLE energy=       -0.4886972747
 DE(Corr)= -0.48869615     E(CORR)=     -153.87881933     Delta=-4.19D-06
 NORM(A)=   0.11169511D+01
 Iteration Nr.  12
 **********************
 DD1Dir will call FoFJK   2 times, MxPair=       130
 NAB=    88 NAA=    55 NBB=    28 NumPrc=  8.
 DD1Dir:  Pass   1 NRAB=    65 NRAA=     0 NRBB=     0 NR=   130.
 DD1Dir:  Pass   2 NRAB=    23 NRAA=    55 NRBB=    28 NR=   129.
 Norm of the A-vectors is  3.5755323D-04 conv= 1.00D-05.
 RLE energy=       -0.4886987276
 DE(Corr)= -0.48869665     E(CORR)=     -153.87881982     Delta=-4.94D-07
 NORM(A)=   0.11169651D+01
 Iteration Nr.  13
 **********************
 DD1Dir will call FoFJK   2 times, MxPair=       130
 NAB=    88 NAA=    55 NBB=    28 NumPrc=  8.
 DD1Dir:  Pass   1 NRAB=    65 NRAA=     0 NRBB=     0 NR=   130.
 DD1Dir:  Pass   2 NRAB=    23 NRAA=    55 NRBB=    28 NR=   129.
 Norm of the A-vectors is  2.1284007D-04 conv= 1.00D-05.
 RLE energy=       -0.4886989974
 DE(Corr)= -0.48869841     E(CORR)=     -153.87882159     Delta=-1.77D-06
 NORM(A)=   0.11169730D+01
 Iteration Nr.  14
 **********************
 DD1Dir will call FoFJK   2 times, MxPair=       130
 NAB=    88 NAA=    55 NBB=    28 NumPrc=  8.
 DD1Dir:  Pass   1 NRAB=    65 NRAA=     0 NRBB=     0 NR=   130.
 DD1Dir:  Pass   2 NRAB=    23 NRAA=    55 NRBB=    28 NR=   129.
 Norm of the A-vectors is  1.1336852D-04 conv= 1.00D-05.
 RLE energy=       -0.4887001477
 DE(Corr)= -0.48869943     E(CORR)=     -153.87882261     Delta=-1.02D-06
 NORM(A)=   0.11169780D+01
 Iteration Nr.  15
 **********************
 DD1Dir will call FoFJK   2 times, MxPair=       130
 NAB=    88 NAA=    55 NBB=    28 NumPrc=  8.
 DD1Dir:  Pass   1 NRAB=    65 NRAA=     0 NRBB=     0 NR=   130.
 DD1Dir:  Pass   2 NRAB=    23 NRAA=    55 NRBB=    28 NR=   129.
 Norm of the A-vectors is  6.1450019D-05 conv= 1.00D-05.
 RLE energy=       -0.4887000511
 DE(Corr)= -0.48869986     E(CORR)=     -153.87882304     Delta=-4.33D-07
 NORM(A)=   0.11169807D+01
 Iteration Nr.  16
 **********************
 DD1Dir will call FoFJK   2 times, MxPair=       130
 NAB=    88 NAA=    55 NBB=    28 NumPrc=  8.
 DD1Dir:  Pass   1 NRAB=    65 NRAA=     0 NRBB=     0 NR=   130.
 DD1Dir:  Pass   2 NRAB=    23 NRAA=    55 NRBB=    28 NR=   129.
 Norm of the A-vectors is  3.5682349D-05 conv= 1.00D-05.
 RLE energy=       -0.4887003678
 DE(Corr)= -0.48870024     E(CORR)=     -153.87882342     Delta=-3.80D-07
 NORM(A)=   0.11169817D+01
 Iteration Nr.  17
 **********************
 DD1Dir will call FoFJK   2 times, MxPair=       130
 NAB=    88 NAA=    55 NBB=    28 NumPrc=  8.
 DD1Dir:  Pass   1 NRAB=    65 NRAA=     0 NRBB=     0 NR=   130.
 DD1Dir:  Pass   2 NRAB=    23 NRAA=    55 NRBB=    28 NR=   129.
 Norm of the A-vectors is  1.7771886D-05 conv= 1.00D-05.
 RLE energy=       -0.4887003239
 DE(Corr)= -0.48870027     E(CORR)=     -153.87882345     Delta=-2.53D-08
 NORM(A)=   0.11169823D+01
 Iteration Nr.  18
 **********************
 DD1Dir will call FoFJK   2 times, MxPair=       130
 NAB=    88 NAA=    55 NBB=    28 NumPrc=  8.
 DD1Dir:  Pass   1 NRAB=    65 NRAA=     0 NRBB=     0 NR=   130.
 DD1Dir:  Pass   2 NRAB=    23 NRAA=    55 NRBB=    28 NR=   129.
 Norm of the A-vectors is  1.0800028D-05 conv= 1.00D-05.
 RLE energy=       -0.4887003561
 DE(Corr)= -0.48870035     E(CORR)=     -153.87882353     Delta=-8.15D-08
 NORM(A)=   0.11169824D+01
 Iteration Nr.  19
 **********************
 DD1Dir will call FoFJK   2 times, MxPair=       130
 NAB=    88 NAA=    55 NBB=    28 NumPrc=  8.
 DD1Dir:  Pass   1 NRAB=    65 NRAA=     0 NRBB=     0 NR=   130.
 DD1Dir:  Pass   2 NRAB=    23 NRAA=    55 NRBB=    28 NR=   129.
 Norm of the A-vectors is  6.4595650D-06 conv= 1.00D-05.
 RLE energy=       -0.4887003647
 DE(Corr)= -0.48870035     E(CORR)=     -153.87882352     Delta= 5.26D-09
 NORM(A)=   0.11169826D+01
 CI/CC converged in   19 iterations to DelEn= 5.26D-09 Conv= 1.00D-07 ErrA1= 6.46D-06 Conv= 1.00D-05
 Largest amplitude= 8.46D-02
 Time for triples=      447.93 seconds.
 T4(CCSD)= -0.21653486D-01
 T5(CCSD)=  0.13126964D-02
 CCSD(T)= -0.15389916431D+03

 S**2, projected HF & approx projected MPn energies after annihilation of
 unwanted spin states (see manual for definitions):

 spins       (S**2,0) (S**2,1)    PUHF        PMP2        PMP3        PMP4
 annihilated
 s+1         3.74685  3.75004 -153.398897 -153.832905 -153.871357
 s+1,s+2     3.75002  3.74999 -153.398629 -153.832676 -153.871172
 s+1 to s+3  3.75000  3.75000 -153.398631 -153.832677 -153.871173
 s+1 to s+4  3.75000  3.75000 -153.398631 -153.832677 -153.871173
 s+1 to s+5  3.75000  3.75000 -153.398631
 s+1 to s+6  3.75000  3.75000 -153.398631

 Discarding MO integrals.
 Leave Link  913 at Tue Oct 10 15:33:23 2017, MaxMem=    33554432 cpu:      2486.1
 (Enter /usr/local/gaussian/2009-E.01/g09/l601.exe)
 Copying SCF densities to generalized density rwf, IOpCl= 1 IROHF=0.

 **********************************************************************

            Population analysis using the SCF density.

 **********************************************************************

 Orbital symmetries:
 Alpha Orbitals:
       Occupied  (A) (A) (A) (A) (A) (A) (A) (A) (A) (A) (A) (A)
                 (A) (A) (A)
       Virtual   (A) (A) (A) (A) (A) (A) (A) (A) (A) (A) (A) (A)
                 (A) (A) (A) (A) (A) (A) (A) (A) (A) (A) (A) (A)
                 (A) (A) (A) (A) (A) (A) (A) (A) (A) (A) (A) (A)
                 (A) (A) (A) (A) (A) (A) (A) (A) (A) (A) (A) (A)
                 (A) (A) (A) (A) (A) (A) (A) (A) (A) (A) (A) (A)
                 (A) (A) (A) (A) (A) (A) (A) (A) (A) (A) (A) (A)
                 (A) (A) (A) (A) (A) (A) (A) (A) (A) (A) (A) (A)
                 (A) (A) (A) (A) (A) (A) (A) (A) (A) (A) (A) (A)
                 (A) (A) (A) (A) (A)
 Beta  Orbitals:
       Occupied  (A) (A) (A) (A) (A) (A) (A) (A) (A) (A) (A) (A)
       Virtual   (A) (A) (A) (A) (A) (A) (A) (A) (A) (A) (A) (A)
                 (A) (A) (A) (A) (A) (A) (A) (A) (A) (A) (A) (A)
                 (A) (A) (A) (A) (A) (A) (A) (A) (A) (A) (A) (A)
                 (A) (A) (A) (A) (A) (A) (A) (A) (A) (A) (A) (A)
                 (A) (A) (A) (A) (A) (A) (A) (A) (A) (A) (A) (A)
                 (A) (A) (A) (A) (A) (A) (A) (A) (A) (A) (A) (A)
                 (A) (A) (A) (A) (A) (A) (A) (A) (A) (A) (A) (A)
                 (A) (A) (A) (A) (A) (A) (A) (A) (A) (A) (A) (A)
                 (A) (A) (A) (A) (A) (A) (A) (A)
 The electronic state is 4-A.
 Alpha  occ. eigenvalues --  -11.54871 -11.54347 -11.51696 -11.50222  -1.37841
 Alpha  occ. eigenvalues --   -1.28715  -1.10744  -0.97735  -0.91434  -0.88964
 Alpha  occ. eigenvalues --   -0.84048  -0.72885  -0.67487  -0.63935  -0.62602
 Alpha virt. eigenvalues --   -0.17815  -0.08859  -0.07020  -0.06443  -0.04803
 Alpha virt. eigenvalues --   -0.04022  -0.02824  -0.02637  -0.00180   0.00430
 Alpha virt. eigenvalues --    0.00750   0.02207   0.04176   0.04850   0.05073
 Alpha virt. eigenvalues --    0.05434   0.06515   0.06536   0.07702   0.08656
 Alpha virt. eigenvalues --    0.09621   0.13381   0.15103   0.17716   0.19583
 Alpha virt. eigenvalues --    0.21581   0.28676   0.29642   0.33531   0.41409
 Alpha virt. eigenvalues --    0.42785   0.46127   0.47108   0.49281   0.50845
 Alpha virt. eigenvalues --    0.53425   0.55701   0.58286   0.59485   0.60389
 Alpha virt. eigenvalues --    0.64652   0.69003   0.71928   0.73218   0.78143
 Alpha virt. eigenvalues --    0.80066   0.86084   0.87617   0.91433   0.98209
 Alpha virt. eigenvalues --    0.99746   1.06434   1.18358   1.26816   1.32836
 Alpha virt. eigenvalues --    1.37730   1.42537   1.47222   1.54860   1.55396
 Alpha virt. eigenvalues --    1.57799   1.63655   1.68374   1.68632   1.80096
 Alpha virt. eigenvalues --    1.84038   1.89708   1.90030   2.00342   2.10931
 Alpha virt. eigenvalues --    2.14944   2.22105   2.23050   2.29795   2.31224
 Alpha virt. eigenvalues --    2.36606   2.49143   2.61642   2.63911   2.70468
 Alpha virt. eigenvalues --    2.72350   2.77180   2.78160   2.80537   2.87668
 Alpha virt. eigenvalues --    2.91472   3.00248   3.05764   3.08354   3.13449
 Alpha virt. eigenvalues --    3.26411   3.48427   3.61227   3.75781   3.86528
 Alpha virt. eigenvalues --    4.14145   4.44620  24.44807  24.75767  25.02178
 Alpha virt. eigenvalues --   25.09987
  Beta  occ. eigenvalues --  -11.53329 -11.51812 -11.51123 -11.47585  -1.31461
  Beta  occ. eigenvalues --   -1.20567  -1.02585  -0.91125  -0.86290  -0.84873
  Beta  occ. eigenvalues --   -0.81480  -0.65549
  Beta virt. eigenvalues --   -0.23251  -0.13974  -0.09617  -0.07940  -0.07531
  Beta virt. eigenvalues --   -0.06753  -0.05948  -0.03828  -0.02721  -0.01106
  Beta virt. eigenvalues --   -0.00713   0.00212   0.01555   0.02527   0.03683
  Beta virt. eigenvalues --    0.04568   0.05887   0.05984   0.06386   0.07108
  Beta virt. eigenvalues --    0.08648   0.09684   0.10453   0.10960   0.14045
  Beta virt. eigenvalues --    0.15913   0.20619   0.20774   0.23313   0.30954
  Beta virt. eigenvalues --    0.33006   0.36566   0.43838   0.45358   0.48724
  Beta virt. eigenvalues --    0.50430   0.55109   0.56251   0.57449   0.60542
  Beta virt. eigenvalues --    0.60549   0.62506   0.65398   0.66242   0.71358
  Beta virt. eigenvalues --    0.73069   0.76235   0.80824   0.83274   0.89292
  Beta virt. eigenvalues --    0.90825   0.94104   1.01852   1.03168   1.09725
  Beta virt. eigenvalues --    1.26632   1.34331   1.40031   1.42798   1.45689
  Beta virt. eigenvalues --    1.48824   1.58773   1.60070   1.61393   1.65828
  Beta virt. eigenvalues --    1.70952   1.72697   1.81808   1.86317   1.91939
  Beta virt. eigenvalues --    1.92179   2.03430   2.13486   2.18133   2.24139
  Beta virt. eigenvalues --    2.25814   2.31857   2.33162   2.39106   2.50871
  Beta virt. eigenvalues --    2.62245   2.64789   2.71623   2.74789   2.78624
  Beta virt. eigenvalues --    2.79875   2.83131   2.92777   2.95182   3.03933
  Beta virt. eigenvalues --    3.08811   3.11040   3.18476   3.30481   3.49879
  Beta virt. eigenvalues --    3.63012   3.76626   3.87657   4.15455   4.45789
  Beta virt. eigenvalues --   24.46208  24.77114  25.03827  25.10853
          Condensed to atoms (all electrons):
               1          2          3          4          5          6
     1  C    6.117518  -0.511671   0.249802   0.295346   0.384817  -0.004432
     2  C   -0.511671   5.633145   0.025257   0.066793  -0.017653  -0.014469
     3  C    0.249802   0.025257   5.253476  -0.008325  -0.007879   0.355543
     4  H    0.295346   0.066793  -0.008325   0.405326   0.001389   0.001371
     5  H    0.384817  -0.017653  -0.007879   0.001389   0.374076  -0.001820
     6  H   -0.004432  -0.014469   0.355543   0.001371  -0.001820   0.410964
     7  C   -0.167020   0.297672   0.272003   0.008704   0.004944  -0.008476
     8  H   -0.005452   0.023166  -0.034238   0.000119   0.000234  -0.003250
               7          8
     1  C   -0.167020  -0.005452
     2  C    0.297672   0.023166
     3  C    0.272003  -0.034238
     4  H    0.008704   0.000119
     5  H    0.004944   0.000234
     6  H   -0.008476  -0.003250
     7  C    5.305617   0.366515
     8  H    0.366515   0.361898
          Atomic-Atomic Spin Densities.
               1          2          3          4          5          6
     1  C    0.806595  -0.164119  -0.032103  -0.009372   0.014626  -0.010916
     2  C   -0.164119   1.439360  -0.241425   0.008842  -0.020030  -0.028553
     3  C   -0.032103  -0.241425  -0.220174  -0.012238   0.002097   0.052277
     4  H   -0.009372   0.008842  -0.012238   0.031972  -0.006604   0.000179
     5  H    0.014626  -0.020030   0.002097  -0.006604  -0.012837   0.000279
     6  H   -0.010916  -0.028553   0.052277   0.000179   0.000279   0.142020
     7  C   -0.025903   0.066429  -0.013108   0.003181  -0.000889  -0.018345
     8  H   -0.005365   0.002916  -0.019410   0.000072   0.000088  -0.001067
               7          8
     1  C   -0.025903  -0.005365
     2  C    0.066429   0.002916
     3  C   -0.013108  -0.019410
     4  H    0.003181   0.000072
     5  H   -0.000889   0.000088
     6  H   -0.018345  -0.001067
     7  C    1.756493   0.003715
     8  H    0.003715  -0.033935
 Mulliken charges and spin densities:
               1          2
     1  C   -0.358908   0.573443
     2  C    0.497760   1.063420
     3  C   -0.105640  -0.484085
     4  H    0.229276   0.016032
     5  H    0.261893  -0.023271
     6  H    0.264570   0.135875
     7  C   -0.079959   1.771572
     8  H    0.291007  -0.052987
 Sum of Mulliken charges =   1.00000   3.00000
 Mulliken charges and spin densities with hydrogens summed into heavy atoms:
               1          2
     1  C    0.132262   0.566204
     2  C    0.497760   1.063420
     3  C    0.158930  -0.348209
     7  C    0.211048   1.718586
 Electronic spatial extent (au):  <R**2>=            291.8569
 Charge=              1.0000 electrons
 Dipole moment (field-independent basis, Debye):
    X=              1.2791    Y=              0.9841    Z=              0.0011  Tot=              1.6139
 Quadrupole moment (field-independent basis, Debye-Ang):
   XX=             -0.8515   YY=            -19.7212   ZZ=            -23.2569
   XY=             -0.7426   XZ=              0.0000   YZ=             -0.0003
 Traceless Quadrupole moment (field-independent basis, Debye-Ang):
   XX=             13.7584   YY=             -5.1114   ZZ=             -8.6470
   XY=             -0.7426   XZ=              0.0000   YZ=             -0.0003
 Octapole moment (field-independent basis, Debye-Ang**2):
  XXX=              0.9968  YYY=              5.8577  ZZZ=              0.0015  XYY=              4.0822
  XXY=             -0.7365  XXZ=              0.0122  XZZ=              1.3283  YZZ=              0.2386
  YYZ=              0.0012  XYZ=             -0.0000
 Hexadecapole moment (field-independent basis, Debye-Ang**3):
 XXXX=           -173.0237 YYYY=            -40.5427 ZZZZ=            -24.3744 XXXY=             -5.5212
 XXXZ=             -0.0088 YYYX=             -2.6558 YYYZ=              0.0015 ZZZX=             -0.0015
 ZZZY=              0.0017 XXYY=            -52.1304 XXZZ=            -59.0451 YYZZ=            -12.2779
 XXYZ=             -0.0007 YYXZ=              0.0027 ZZXY=             -0.1732
 N-N= 8.818402357382D+01 E-N=-5.265857843319D+02  KE= 1.532905580103D+02
 Leave Link  601 at Tue Oct 10 15:33:23 2017, MaxMem=    33554432 cpu:         0.2
 (Enter /usr/local/gaussian/2009-E.01/g09/l9999.exe)
 1\1\ WCSS.PL-BEM-WN1424\SP\UCCSD(T)-FC\6-311++G(d,p)\C4H4(1+,4)\ROOT\1
 0-Oct-2017\0\\#p ccsd(t,maxcyc=200)/6-311++G(d,p)\\ccsd(t) iener\\1,4\
 C,0,-1.848986,-0.018394,-0.000291\C,0,-0.518163,-0.31742,0.000267\C,0,
 0.688409,0.365448,0.000245\H,0,-2.201411,1.0169,-0.00057\H,0,-2.602014
 ,-0.80392,-0.000603\H,0,0.683515,1.467507,0.000154\C,0,1.877403,-0.299
 557,-0.000302\H,0,2.935982,-0.065875,-0.00074\\Version=ES64L-G09RevE.0
 1\State=4-A\HF=-153.3901232\MP2=-153.8254012\MP3=-153.8657728\MP4D=-15
 3.8775137\MP4DQ=-153.8674447\PUHF=-153.3988966\PMP2-0=-153.8329049\PMP
 3-0=-153.8713574\MP4SDQ=-153.87372\CCSD=-153.8788235\CCSD(T)=-153.8991
 643\S2=3.949656\S2-1=3.890953\S2A=3.754447\RMSD=7.913e-09\PG=C01 [X(C4
 H4)]\\@


 WE ARE REACHING THE STAGE WHERE THE PROBLEMS WE MUST SOLVE ARE 
 GOING TO BECOME INSOLUBLE WITHOUT COMPUTERS.
 I DO NOT FEAR COMPUTERS.  I FEAR THE LACK OF THEM.

                                   -- ISSAC ASIMOV
 Job cpu time:       0 days  0 hours 44 minutes  9.9 seconds.
 File lengths (MBytes):  RWF=    676 Int=      0 D2E=      0 Chk=      2 Scr=      1
 Normal termination of Gaussian 09 at Tue Oct 10 15:33:23 2017.
