 Entering Gaussian System, Link 0=/usr/local/gaussian/2009-E.01/g09/g09
 Initial command:
 /usr/local/gaussian/2009-E.01/g09/l1.exe "/lustre/scratch/eerd/4986703.achilles/Gau-41213.inp" -scrdir="/lustre/scratch/eerd/4986703.achilles/"
 Entering Link 1 = /usr/local/gaussian/2009-E.01/g09/l1.exe PID=     41215.
  
 Copyright (c) 1988,1990,1992,1993,1995,1998,2003,2009,2015,
            Gaussian, Inc.  All Rights Reserved.
  
 This is part of the Gaussian(R) 09 program.  It is based on
 the Gaussian(R) 03 system (copyright 2003, Gaussian, Inc.),
 the Gaussian(R) 98 system (copyright 1998, Gaussian, Inc.),
 the Gaussian(R) 94 system (copyright 1995, Gaussian, Inc.),
 the Gaussian 92(TM) system (copyright 1992, Gaussian, Inc.),
 the Gaussian 90(TM) system (copyright 1990, Gaussian, Inc.),
 the Gaussian 88(TM) system (copyright 1988, Gaussian, Inc.),
 the Gaussian 86(TM) system (copyright 1986, Carnegie Mellon
 University), and the Gaussian 82(TM) system (copyright 1983,
 Carnegie Mellon University). Gaussian is a federally registered
 trademark of Gaussian, Inc.
  
 This software contains proprietary and confidential information,
 including trade secrets, belonging to Gaussian, Inc.
  
 This software is provided under written license and may be
 used, copied, transmitted, or stored only in accord with that
 written license.
  
 The following legend is applicable only to US Government
 contracts under FAR:
  
                    RESTRICTED RIGHTS LEGEND
  
 Use, reproduction and disclosure by the US Government is
 subject to restrictions as set forth in subparagraphs (a)
 and (c) of the Commercial Computer Software - Restricted
 Rights clause in FAR 52.227-19.
  
 Gaussian, Inc.
 340 Quinnipiac St., Bldg. 40, Wallingford CT 06492
  
  
 ---------------------------------------------------------------
 Warning -- This program may not be used in any manner that
 competes with the business of Gaussian, Inc. or will provide
 assistance to any competitor of Gaussian, Inc.  The licensee
 of this program is prohibited from giving any competitor of
 Gaussian, Inc. access to this program.  By using this program,
 the user acknowledges that Gaussian, Inc. is engaged in the
 business of creating and licensing software in the field of
 computational chemistry and represents and warrants to the
 licensee that it is not a competitor of Gaussian, Inc. and that
 it will not use this program in any manner prohibited above.
 ---------------------------------------------------------------
  

 Cite this work as:
 Gaussian 09, Revision E.01,
 M. J. Frisch, G. W. Trucks, H. B. Schlegel, G. E. Scuseria, 
 M. A. Robb, J. R. Cheeseman, G. Scalmani, V. Barone, B. Mennucci, 
 G. A. Petersson, H. Nakatsuji, M. Caricato, X. Li, H. P. Hratchian, 
 A. F. Izmaylov, J. Bloino, G. Zheng, J. L. Sonnenberg, M. Hada, 
 M. Ehara, K. Toyota, R. Fukuda, J. Hasegawa, M. Ishida, T. Nakajima, 
 Y. Honda, O. Kitao, H. Nakai, T. Vreven, J. A. Montgomery, Jr., 
 J. E. Peralta, F. Ogliaro, M. Bearpark, J. J. Heyd, E. Brothers, 
 K. N. Kudin, V. N. Staroverov, T. Keith, R. Kobayashi, J. Normand, 
 K. Raghavachari, A. Rendell, J. C. Burant, S. S. Iyengar, J. Tomasi, 
 M. Cossi, N. Rega, J. M. Millam, M. Klene, J. E. Knox, J. B. Cross, 
 V. Bakken, C. Adamo, J. Jaramillo, R. Gomperts, R. E. Stratmann, 
 O. Yazyev, A. J. Austin, R. Cammi, C. Pomelli, J. W. Ochterski, 
 R. L. Martin, K. Morokuma, V. G. Zakrzewski, G. A. Voth, 
 P. Salvador, J. J. Dannenberg, S. Dapprich, A. D. Daniels, 
 O. Farkas, J. B. Foresman, J. V. Ortiz, J. Cioslowski, 
 and D. J. Fox, Gaussian, Inc., Wallingford CT, 2013.
 
 ******************************************
 Gaussian 09:  ES64L-G09RevE.01 30-Nov-2015
                10-Oct-2017 
 ******************************************
 %NProcShared=8
 Will use up to    8 processors via shared memory.
 -----------------------------------
 #p ccsd(t,maxcyc=200)/6-311++G(d,p)
 -----------------------------------
 1/38=1/1;
 2/12=2,17=6,18=5,40=1/2;
 3/5=4,6=6,7=1111,11=9,16=1,25=1,30=1/1,2,3;
 4//1;
 5/5=2,38=5/2;
 8/6=4,9=120000,10=2/1,4;
 9/5=7,6=200,14=2/13;
 6/7=2,8=2,9=2,10=2/1;
 99/5=1,9=1/99;
 Leave Link    1 at Tue Oct 10 12:10:42 2017, MaxMem=           0 cpu:         1.7
 (Enter /usr/local/gaussian/2009-E.01/g09/l101.exe)
 -------------
 ccsd(t) iener
 -------------
 Symbolic Z-matrix:
 Charge =  0 Multiplicity = 3
 C                    -1.68698  -0.10764   0.02152 
 H                    -2.56531   0.5267    0.00785 
 H                    -1.84672  -1.17996   0.06228 
 C                    -0.42227   0.41508  -0.01778 
 H                    -0.28648   1.49283  -0.03918 
 C                     2.04904   0.1797    0.0346 
 C                     0.74857  -0.38078  -0.04328 
 H                     0.60475  -1.46962  -0.02213 
 
 NAtoms=      8 NQM=        8 NQMF=       0 NMMI=      0 NMMIF=      0
                NMic=       0 NMicF=      0.
                    Isotopes and Nuclear Properties:
 (Nuclear quadrupole moments (NQMom) in fm**2, nuclear magnetic moments (NMagM)
  in nuclear magnetons)

  Atom         1           2           3           4           5           6           7           8
 IAtWgt=          12           1           1          12           1          12          12           1
 AtmWgt=  12.0000000   1.0078250   1.0078250  12.0000000   1.0078250  12.0000000  12.0000000   1.0078250
 NucSpn=           0           1           1           0           1           0           0           1
 AtZEff=   0.0000000   0.0000000   0.0000000   0.0000000   0.0000000   0.0000000   0.0000000   0.0000000
 NQMom=    0.0000000   0.0000000   0.0000000   0.0000000   0.0000000   0.0000000   0.0000000   0.0000000
 NMagM=    0.0000000   2.7928460   2.7928460   0.0000000   2.7928460   0.0000000   0.0000000   2.7928460
 AtZNuc=   6.0000000   1.0000000   1.0000000   6.0000000   1.0000000   6.0000000   6.0000000   1.0000000
 Leave Link  101 at Tue Oct 10 12:10:42 2017, MaxMem=    33554432 cpu:         0.4
 (Enter /usr/local/gaussian/2009-E.01/g09/l202.exe)
                          Input orientation:                          
 ---------------------------------------------------------------------
 Center     Atomic      Atomic             Coordinates (Angstroms)
 Number     Number       Type             X           Y           Z
 ---------------------------------------------------------------------
      1          6           0       -1.686982   -0.107642    0.021521
      2          1           0       -2.565311    0.526701    0.007851
      3          1           0       -1.846720   -1.179962    0.062282
      4          6           0       -0.422274    0.415076   -0.017778
      5          1           0       -0.286479    1.492829   -0.039182
      6          6           0        2.049036    0.179697    0.034599
      7          6           0        0.748572   -0.380780   -0.043283
      8          1           0        0.604750   -1.469616   -0.022132
 ---------------------------------------------------------------------
                    Distance matrix (angstroms):
                    1          2          3          4          5
     1  C    0.000000
     2  H    1.083531   0.000000
     3  H    1.084918   1.852575   0.000000
     4  C    1.369038   2.146095   2.140001   0.000000
     5  H    2.127581   2.475619   3.096524   1.086485   0.000000
     6  C    3.747074   4.627453   4.126300   2.483046   2.680371
     7  C    2.451678   3.436271   2.717605   1.415951   2.140504
     8  H    2.666255   3.746394   2.469966   2.146360   3.093648
                    6          7          8
     6  C    0.000000
     7  C    1.418241   0.000000
     8  H    2.193038   1.098497   0.000000
 Stoichiometry    C4H4(3)
 Framework group  C1[X(C4H4)]
 Deg. of freedom    18
 Full point group                 C1      NOp   1
 Largest Abelian subgroup         C1      NOp   1
 Largest concise Abelian subgroup C1      NOp   1
                         Standard orientation:                         
 ---------------------------------------------------------------------
 Center     Atomic      Atomic             Coordinates (Angstroms)
 Number     Number       Type             X           Y           Z
 ---------------------------------------------------------------------
      1          6           0        1.688415    0.106302    0.019702
      2          1           0        2.566097   -0.528940    0.006150
      3          1           0        1.849270    1.178546    0.057987
      4          6           0        0.423138   -0.415243   -0.016748
      5          1           0        0.286247   -1.492903   -0.035698
      6          6           0       -2.047863   -0.177303    0.038553
      7          6           0       -0.746955    0.381719   -0.042306
      8          1           0       -0.602027    1.470453   -0.023644
 ---------------------------------------------------------------------
 Rotational constants (GHZ):     48.2205001      4.8760784      4.4323116
 Leave Link  202 at Tue Oct 10 12:10:42 2017, MaxMem=    33554432 cpu:         3.6
 (Enter /usr/local/gaussian/2009-E.01/g09/l301.exe)
 Standard basis: 6-311++G(d,p) (5D, 7F)
 Ernie: Thresh=  0.10000D-02 Tol=  0.10000D-05 Strict=F.
 There are   120 symmetry adapted cartesian basis functions of A   symmetry.
 There are   116 symmetry adapted basis functions of A   symmetry.
   116 basis functions,   180 primitive gaussians,   120 cartesian basis functions
    15 alpha electrons       13 beta electrons
       nuclear repulsion energy        88.9838283064 Hartrees.
 IExCor=    0 DFT=F Ex=HF Corr=None ExCW=0 ScaHFX=  1.000000
 ScaDFX=  1.000000  1.000000  1.000000  1.000000 ScalE2=  1.000000  1.000000
 IRadAn=      0 IRanWt=     -1 IRanGd=            0 ICorTp=0 IEmpDi=  4
 NAtoms=    8 NActive=    8 NUniq=    8 SFac= 1.00D+00 NAtFMM=   60 NAOKFM=F Big=F
 Integral buffers will be    131072 words long.
 Raffenetti 2 integral format.
 Two-electron integral symmetry is turned on.
 Leave Link  301 at Tue Oct 10 12:10:43 2017, MaxMem=    33554432 cpu:         1.3
 (Enter /usr/local/gaussian/2009-E.01/g09/l302.exe)
 NPDir=0 NMtPBC=     1 NCelOv=     1 NCel=       1 NClECP=     1 NCelD=      1
         NCelK=      1 NCelE2=     1 NClLst=     1 CellRange=     0.0.
 One-electron integrals computed using PRISM.
 NBasis=   116 RedAO= T EigKep=  2.22D-05  NBF=   116
 NBsUse=   116 1.00D-06 EigRej= -1.00D+00 NBFU=   116
 Leave Link  302 at Tue Oct 10 12:10:43 2017, MaxMem=    33554432 cpu:         1.2
 (Enter /usr/local/gaussian/2009-E.01/g09/l303.exe)
 DipDrv:  MaxL=1.
 Leave Link  303 at Tue Oct 10 12:10:43 2017, MaxMem=    33554432 cpu:         0.1
 (Enter /usr/local/gaussian/2009-E.01/g09/l401.exe)
 ExpMin= 3.60D-02 ExpMax= 4.56D+03 ExpMxC= 6.82D+02 IAcc=3 IRadAn=         5 AccDes= 0.00D+00
 Harris functional with IExCor=  205 and IRadAn=       5 diagonalized for initial guess.
 HarFok:  IExCor=  205 AccDes= 0.00D+00 IRadAn=         5 IDoV= 1 UseB2=F ITyADJ=14
 ICtDFT=  3500011 ScaDFX=  1.000000  1.000000  1.000000  1.000000
 FoFCou: FMM=F IPFlag=           0 FMFlag=      100000 FMFlg1=           0
         NFxFlg=           0 DoJE=T BraDBF=F KetDBF=T FulRan=T
         wScrn=  0.000000 ICntrl=     500 IOpCl=  0 I1Cent=   200000004 NGrid=           0
         NMat0=    1 NMatS0=      1 NMatT0=    0 NMatD0=    1 NMtDS0=    0 NMtDT0=    0
 Petite list used in FoFCou.
 Harris En= -153.773005981220    
 JPrj=0 DoOrth=F DoCkMO=F.
 Initial guess <Sx>= 0.0000 <Sy>= 0.0000 <Sz>= 1.0000 <S**2>= 2.0000 S= 1.0000
 Leave Link  401 at Tue Oct 10 12:10:43 2017, MaxMem=    33554432 cpu:         2.7
 (Enter /usr/local/gaussian/2009-E.01/g09/l502.exe)
 UHF open shell SCF:
 Using DIIS extrapolation, IDIIS=  1040.
 Integral symmetry usage will be decided dynamically.
 IVT=       63606 IEndB=       63606 NGot=    33554432 MDV=    33521987
 LenX=    33521987 LenY=    33507146
 Requested convergence on RMS density matrix=1.00D-08 within 128 cycles.
 Requested convergence on MAX density matrix=1.00D-06.
 Requested convergence on             energy=1.00D-06.
 No special actions if energy rises.
 Fock matrices will be formed incrementally for  20 cycles.

 Cycle   1  Pass 0  IDiag  1:
 FoFJK:  IHMeth= 1 ICntrl=       0 DoSepK=F KAlg= 0 I1Cent=   0 FoldK=F
 IRaf= 990000000 NMat=   1 IRICut=       1 DoRegI=T DoRafI=F ISym2E= 0.
 FoFCou: FMM=F IPFlag=           0 FMFlag=      100000 FMFlg1=           0
         NFxFlg=           0 DoJE=F BraDBF=F KetDBF=F FulRan=T
         wScrn=  0.000000 ICntrl=       0 IOpCl=  1 I1Cent=           0 NGrid=           0
         NMat0=    1 NMatS0=      1 NMatT0=    0 NMatD0=    1 NMtDS0=    0 NMtDT0=    0
 Symmetry not used in FoFCou.
 E= -153.484432362806    
 DIIS: error= 4.44D-02 at cycle   1 NSaved=   1.
 NSaved= 1 IEnMin= 1 EnMin= -153.484432362806     IErMin= 1 ErrMin= 4.44D-02
 ErrMax= 4.44D-02  0.00D+00 EMaxC= 1.00D-01 BMatC= 1.14D+00 BMatP= 1.14D+00
 IDIUse=3 WtCom= 5.56D-01 WtEn= 4.44D-01
 Coeff-Com:  0.100D+01
 Coeff-En:   0.100D+01
 Coeff:      0.100D+01
 Gap=     0.416 Goal=   None    Shift=    0.000
 Gap=     0.391 Goal=   None    Shift=    0.000
 GapD=    0.391 DampG=1.000 DampE=0.500 DampFc=0.5000 IDamp=-1.
 Damping current iteration by 5.00D-01
 RMSDP=9.22D-03 MaxDP=5.53D-01              OVMax= 1.56D-01

 Cycle   2  Pass 0  IDiag  1:
 RMSU=  4.57D-03    CP:  1.03D+00
 E= -153.565030636761     Delta-E=       -0.080598273955 Rises=F Damp=T
 DIIS: error= 2.05D-02 at cycle   2 NSaved=   2.
 NSaved= 2 IEnMin= 2 EnMin= -153.565030636761     IErMin= 2 ErrMin= 2.05D-02
 ErrMax= 2.05D-02  0.00D+00 EMaxC= 1.00D-01 BMatC= 2.79D-01 BMatP= 1.14D+00
 IDIUse=3 WtCom= 7.95D-01 WtEn= 2.05D-01
 Coeff-Com: -0.844D+00 0.184D+01
 Coeff-En:   0.000D+00 0.100D+01
 Coeff:     -0.671D+00 0.167D+01
 Gap=     0.369 Goal=   None    Shift=    0.000
 Gap=     0.415 Goal=   None    Shift=    0.000
 RMSDP=4.23D-03 MaxDP=1.22D-01 DE=-8.06D-02 OVMax= 6.39D-02

 Cycle   3  Pass 0  IDiag  1:
 RMSU=  2.99D-03    CP:  9.96D-01  1.64D+00
 E= -153.647216907364     Delta-E=       -0.082186270603 Rises=F Damp=F
 DIIS: error= 7.82D-03 at cycle   3 NSaved=   3.
 NSaved= 3 IEnMin= 3 EnMin= -153.647216907364     IErMin= 3 ErrMin= 7.82D-03
 ErrMax= 7.82D-03  0.00D+00 EMaxC= 1.00D-01 BMatC= 5.81D-03 BMatP= 2.79D-01
 IDIUse=3 WtCom= 9.22D-01 WtEn= 7.82D-02
 Coeff-Com: -0.126D+00 0.211D+00 0.916D+00
 Coeff-En:   0.000D+00 0.000D+00 0.100D+01
 Coeff:     -0.116D+00 0.194D+00 0.922D+00
 Gap=     0.380 Goal=   None    Shift=    0.000
 Gap=     0.377 Goal=   None    Shift=    0.000
 RMSDP=1.01D-03 MaxDP=3.46D-02 DE=-8.22D-02 OVMax= 3.50D-02

 Cycle   4  Pass 0  IDiag  1:
 RMSU=  8.32D-04    CP:  9.89D-01  1.61D+00  1.18D+00
 E= -153.651109215766     Delta-E=       -0.003892308402 Rises=F Damp=F
 DIIS: error= 4.95D-03 at cycle   4 NSaved=   4.
 NSaved= 4 IEnMin= 4 EnMin= -153.651109215766     IErMin= 4 ErrMin= 4.95D-03
 ErrMax= 4.95D-03  0.00D+00 EMaxC= 1.00D-01 BMatC= 1.88D-03 BMatP= 5.81D-03
 IDIUse=3 WtCom= 9.50D-01 WtEn= 4.95D-02
 Coeff-Com:  0.410D-01-0.867D-01-0.307D-01 0.108D+01
 Coeff-En:   0.000D+00 0.000D+00 0.000D+00 0.100D+01
 Coeff:      0.389D-01-0.824D-01-0.291D-01 0.107D+01
 Gap=     0.382 Goal=   None    Shift=    0.000
 Gap=     0.380 Goal=   None    Shift=    0.000
 RMSDP=6.25D-04 MaxDP=2.85D-02 DE=-3.89D-03 OVMax= 3.22D-02

 Cycle   5  Pass 0  IDiag  1:
 RMSU=  2.55D-04    CP:  9.84D-01  1.57D+00  1.30D+00  1.48D+00
 E= -153.653250764973     Delta-E=       -0.002141549207 Rises=F Damp=F
 DIIS: error= 3.14D-03 at cycle   5 NSaved=   5.
 NSaved= 5 IEnMin= 5 EnMin= -153.653250764973     IErMin= 5 ErrMin= 3.14D-03
 ErrMax= 3.14D-03  0.00D+00 EMaxC= 1.00D-01 BMatC= 9.88D-04 BMatP= 1.88D-03
 IDIUse=3 WtCom= 9.69D-01 WtEn= 3.14D-02
 Coeff-Com:  0.268D-01-0.355D-01-0.388D+00-0.381D+00 0.178D+01
 Coeff-En:   0.000D+00 0.000D+00 0.000D+00 0.000D+00 0.100D+01
 Coeff:      0.260D-01-0.343D-01-0.376D+00-0.369D+00 0.175D+01
 Gap=     0.392 Goal=   None    Shift=    0.000
 Gap=     0.392 Goal=   None    Shift=    0.000
 RMSDP=8.56D-04 MaxDP=3.86D-02 DE=-2.14D-03 OVMax= 4.46D-02

 Cycle   6  Pass 0  IDiag  1:
 RMSU=  2.27D-04    CP:  9.78D-01  1.49D+00  1.38D+00  2.17D+00  2.36D+00
 E= -153.655341814992     Delta-E=       -0.002091050019 Rises=F Damp=F
 DIIS: error= 1.95D-03 at cycle   6 NSaved=   6.
 NSaved= 6 IEnMin= 6 EnMin= -153.655341814992     IErMin= 6 ErrMin= 1.95D-03
 ErrMax= 1.95D-03  0.00D+00 EMaxC= 1.00D-01 BMatC= 2.97D-04 BMatP= 9.88D-04
 IDIUse=3 WtCom= 9.81D-01 WtEn= 1.95D-02
 Coeff-Com: -0.484D-01 0.860D-01 0.300D+00-0.130D+00-0.130D+01 0.210D+01
 Coeff-En:   0.000D+00 0.000D+00 0.000D+00 0.000D+00 0.000D+00 0.100D+01
 Coeff:     -0.475D-01 0.843D-01 0.294D+00-0.127D+00-0.128D+01 0.208D+01
 Gap=     0.396 Goal=   None    Shift=    0.000
 Gap=     0.399 Goal=   None    Shift=    0.000
 RMSDP=5.32D-04 MaxDP=1.03D-02 DE=-2.09D-03 OVMax= 3.18D-02

 Cycle   7  Pass 0  IDiag  1:
 RMSU=  1.88D-04    CP:  9.78D-01  1.45D+00  1.34D+00  2.46D+00  3.00D+00
                    CP:  2.27D+00
 E= -153.656040613471     Delta-E=       -0.000698798479 Rises=F Damp=F
 DIIS: error= 8.82D-04 at cycle   7 NSaved=   7.
 NSaved= 7 IEnMin= 7 EnMin= -153.656040613471     IErMin= 7 ErrMin= 8.82D-04
 ErrMax= 8.82D-04  0.00D+00 EMaxC= 1.00D-01 BMatC= 3.79D-05 BMatP= 2.97D-04
 IDIUse=3 WtCom= 9.91D-01 WtEn= 8.82D-03
 Coeff-Com: -0.695D-02 0.108D-01 0.717D-01 0.887D-01-0.354D+00 0.594D-01
 Coeff-Com:  0.113D+01
 Coeff-En:   0.000D+00 0.000D+00 0.000D+00 0.000D+00 0.000D+00 0.000D+00
 Coeff-En:   0.100D+01
 Coeff:     -0.689D-02 0.107D-01 0.710D-01 0.879D-01-0.351D+00 0.588D-01
 Coeff:      0.113D+01
 Gap=     0.395 Goal=   None    Shift=    0.000
 Gap=     0.399 Goal=   None    Shift=    0.000
 RMSDP=1.37D-04 MaxDP=3.72D-03 DE=-6.99D-04 OVMax= 8.32D-03

 Cycle   8  Pass 0  IDiag  1:
 RMSU=  4.96D-05    CP:  9.79D-01  1.45D+00  1.32D+00  2.47D+00  3.00D+00
                    CP:  2.59D+00  1.43D+00
 E= -153.656102428701     Delta-E=       -0.000061815230 Rises=F Damp=F
 DIIS: error= 3.26D-04 at cycle   8 NSaved=   8.
 NSaved= 8 IEnMin= 8 EnMin= -153.656102428701     IErMin= 8 ErrMin= 3.26D-04
 ErrMax= 3.26D-04  0.00D+00 EMaxC= 1.00D-01 BMatC= 1.32D-05 BMatP= 3.79D-05
 IDIUse=3 WtCom= 9.97D-01 WtEn= 3.26D-03
 Coeff-Com:  0.119D-01-0.207D-01-0.870D-01 0.156D-01 0.359D+00-0.483D+00
 Coeff-Com: -0.192D+00 0.140D+01
 Coeff-En:   0.000D+00 0.000D+00 0.000D+00 0.000D+00 0.000D+00 0.000D+00
 Coeff-En:   0.000D+00 0.100D+01
 Coeff:      0.118D-01-0.206D-01-0.867D-01 0.155D-01 0.358D+00-0.481D+00
 Coeff:     -0.191D+00 0.139D+01
 Gap=     0.396 Goal=   None    Shift=    0.000
 Gap=     0.400 Goal=   None    Shift=    0.000
 RMSDP=8.72D-05 MaxDP=2.70D-03 DE=-6.18D-05 OVMax= 4.10D-03

 Cycle   9  Pass 0  IDiag  1:
 RMSU=  4.07D-05    CP:  9.79D-01  1.46D+00  1.32D+00  2.50D+00  3.00D+00
                    CP:  2.67D+00  1.66D+00  2.03D+00
 E= -153.656129054040     Delta-E=       -0.000026625339 Rises=F Damp=F
 DIIS: error= 2.78D-04 at cycle   9 NSaved=   9.
 NSaved= 9 IEnMin= 9 EnMin= -153.656129054040     IErMin= 9 ErrMin= 2.78D-04
 ErrMax= 2.78D-04  0.00D+00 EMaxC= 1.00D-01 BMatC= 6.84D-06 BMatP= 1.32D-05
 IDIUse=3 WtCom= 9.97D-01 WtEn= 2.78D-03
 Coeff-Com: -0.177D-02 0.335D-02 0.100D-01-0.126D-01-0.413D-01 0.123D+00
 Coeff-Com: -0.133D+00-0.468D+00 0.152D+01
 Coeff-En:   0.000D+00 0.000D+00 0.000D+00 0.000D+00 0.000D+00 0.000D+00
 Coeff-En:   0.000D+00 0.000D+00 0.100D+01
 Coeff:     -0.177D-02 0.334D-02 0.999D-02-0.126D-01-0.412D-01 0.123D+00
 Coeff:     -0.133D+00-0.467D+00 0.152D+01
 Gap=     0.396 Goal=   None    Shift=    0.000
 Gap=     0.400 Goal=   None    Shift=    0.000
 RMSDP=6.15D-05 MaxDP=1.80D-03 DE=-2.66D-05 OVMax= 4.38D-03

 Cycle  10  Pass 0  IDiag  1:
 RMSU=  2.32D-05    CP:  9.79D-01  1.46D+00  1.33D+00  2.52D+00  3.00D+00
                    CP:  2.65D+00  1.73D+00  2.79D+00  1.82D+00
 E= -153.656147024555     Delta-E=       -0.000017970515 Rises=F Damp=F
 DIIS: error= 2.78D-04 at cycle  10 NSaved=  10.
 NSaved=10 IEnMin=10 EnMin= -153.656147024555     IErMin= 9 ErrMin= 2.78D-04
 ErrMax= 2.78D-04  0.00D+00 EMaxC= 1.00D-01 BMatC= 5.63D-06 BMatP= 6.84D-06
 IDIUse=3 WtCom= 9.97D-01 WtEn= 2.78D-03
 Coeff-Com: -0.118D-02 0.210D-02 0.694D-02-0.175D-03-0.336D-01 0.371D-01
 Coeff-Com:  0.415D-01-0.917D-01-0.265D+00 0.130D+01
 Coeff-En:   0.000D+00 0.000D+00 0.000D+00 0.000D+00 0.000D+00 0.000D+00
 Coeff-En:   0.000D+00 0.000D+00 0.000D+00 0.100D+01
 Coeff:     -0.117D-02 0.210D-02 0.692D-02-0.175D-03-0.335D-01 0.370D-01
 Coeff:      0.414D-01-0.914D-01-0.264D+00 0.130D+01
 Gap=     0.396 Goal=   None    Shift=    0.000
 Gap=     0.400 Goal=   None    Shift=    0.000
 RMSDP=4.18D-05 MaxDP=1.07D-03 DE=-1.80D-05 OVMax= 3.71D-03

 Cycle  11  Pass 0  IDiag  1:
 RMSU=  1.34D-05    CP:  9.79D-01  1.46D+00  1.33D+00  2.53D+00  3.00D+00
                    CP:  2.64D+00  1.77D+00  3.00D+00  2.34D+00  1.99D+00
 E= -153.656160452717     Delta-E=       -0.000013428162 Rises=F Damp=F
 DIIS: error= 2.79D-04 at cycle  11 NSaved=  11.
 NSaved=11 IEnMin=11 EnMin= -153.656160452717     IErMin= 9 ErrMin= 2.78D-04
 ErrMax= 2.79D-04  0.00D+00 EMaxC= 1.00D-01 BMatC= 5.49D-06 BMatP= 5.63D-06
 IDIUse=3 WtCom= 9.97D-01 WtEn= 2.78D-03
 Coeff-Com:  0.765D-03-0.135D-02-0.635D-02 0.463D-02 0.239D-01-0.524D-01
 Coeff-Com:  0.386D-01 0.185D+00-0.541D+00 0.100D+00 0.125D+01
 Coeff-En:   0.000D+00 0.000D+00 0.000D+00 0.000D+00 0.000D+00 0.000D+00
 Coeff-En:   0.000D+00 0.000D+00 0.000D+00 0.000D+00 0.100D+01
 Coeff:      0.763D-03-0.135D-02-0.633D-02 0.462D-02 0.238D-01-0.523D-01
 Coeff:      0.385D-01 0.185D+00-0.540D+00 0.997D-01 0.125D+01
 Gap=     0.396 Goal=   None    Shift=    0.000
 Gap=     0.400 Goal=   None    Shift=    0.000
 RMSDP=4.40D-05 MaxDP=1.28D-03 DE=-1.34D-05 OVMax= 4.13D-03

 Cycle  12  Pass 0  IDiag  1:
 RMSU=  5.03D-06    CP:  9.80D-01  1.46D+00  1.33D+00  2.54D+00  3.00D+00
                    CP:  2.61D+00  1.81D+00  3.00D+00  2.87D+00  2.97D+00
                    CP:  2.87D+00
 E= -153.656175039668     Delta-E=       -0.000014586951 Rises=F Damp=F
 DIIS: error= 2.78D-04 at cycle  12 NSaved=  12.
 NSaved=12 IEnMin=12 EnMin= -153.656175039668     IErMin=12 ErrMin= 2.78D-04
 ErrMax= 2.78D-04  0.00D+00 EMaxC= 1.00D-01 BMatC= 5.43D-06 BMatP= 5.49D-06
 IDIUse=3 WtCom= 9.97D-01 WtEn= 2.78D-03
 Coeff-Com:  0.393D-03-0.666D-03-0.350D-02 0.129D-02 0.129D-01-0.215D-01
 Coeff-Com:  0.566D-02 0.618D-01-0.107D+00-0.216D-01 0.333D-01 0.104D+01
 Coeff-En:   0.000D+00 0.000D+00 0.000D+00 0.000D+00 0.000D+00 0.000D+00
 Coeff-En:   0.000D+00 0.000D+00 0.000D+00 0.000D+00 0.000D+00 0.100D+01
 Coeff:      0.392D-03-0.664D-03-0.349D-02 0.129D-02 0.129D-01-0.215D-01
 Coeff:      0.564D-02 0.616D-01-0.107D+00-0.215D-01 0.332D-01 0.104D+01
 Gap=     0.396 Goal=   None    Shift=    0.000
 Gap=     0.400 Goal=   None    Shift=    0.000
 RMSDP=3.06D-05 MaxDP=9.76D-04 DE=-1.46D-05 OVMax= 2.87D-03

 Cycle  13  Pass 0  IDiag  1:
 RMSU=  2.34D-05    CP:  9.80D-01  1.46D+00  1.33D+00  2.55D+00  3.00D+00
                    CP:  2.59D+00  1.85D+00  3.00D+00  3.00D+00  3.00D+00
                    CP:  3.00D+00  1.79D+00
 E= -153.656185119872     Delta-E=       -0.000010080203 Rises=F Damp=F
 DIIS: error= 2.77D-04 at cycle  13 NSaved=  13.
 NSaved=13 IEnMin=13 EnMin= -153.656185119872     IErMin=13 ErrMin= 2.77D-04
 ErrMax= 2.77D-04  0.00D+00 EMaxC= 1.00D-01 BMatC= 5.43D-06 BMatP= 5.43D-06
 IDIUse=3 WtCom= 9.97D-01 WtEn= 2.77D-03
 Coeff-Com:  0.217D-03-0.367D-03-0.239D-02 0.286D-02 0.685D-02-0.221D-01
 Coeff-Com:  0.301D-01 0.790D-01-0.335D+00 0.258D+00 0.715D+00-0.291D+01
 Coeff-Com:  0.318D+01
 Coeff-En:   0.000D+00 0.000D+00 0.000D+00 0.000D+00 0.000D+00 0.000D+00
 Coeff-En:   0.000D+00 0.000D+00 0.000D+00 0.000D+00 0.000D+00 0.000D+00
 Coeff-En:   0.100D+01
 Coeff:      0.217D-03-0.366D-03-0.239D-02 0.285D-02 0.683D-02-0.220D-01
 Coeff:      0.300D-01 0.788D-01-0.334D+00 0.257D+00 0.713D+00-0.290D+01
 Coeff:      0.317D+01
 Gap=     0.396 Goal=   None    Shift=    0.000
 Gap=     0.400 Goal=   None    Shift=    0.000
 RMSDP=6.65D-05 MaxDP=2.14D-03 DE=-1.01D-05 OVMax= 6.23D-03

 Cycle  14  Pass 0  IDiag  1:
 RMSU=  1.57D-05    CP:  9.80D-01  1.47D+00  1.33D+00  2.56D+00  3.00D+00
                    CP:  2.53D+00  1.93D+00  3.00D+00  3.00D+00  3.00D+00
                    CP:  3.00D+00  3.00D+00  3.00D+00
 E= -153.656206957642     Delta-E=       -0.000021837770 Rises=F Damp=F
 DIIS: error= 2.76D-04 at cycle  14 NSaved=  14.
 NSaved=14 IEnMin=14 EnMin= -153.656206957642     IErMin=14 ErrMin= 2.76D-04
 ErrMax= 2.76D-04  0.00D+00 EMaxC= 1.00D-01 BMatC= 5.41D-06 BMatP= 5.43D-06
 IDIUse=3 WtCom= 9.97D-01 WtEn= 2.76D-03
 Large coefficients: NSaved= 14 BigCof=   26.04 CofMax=   10.00 Det=-1.15D-10
 Inversion failed.  Reducing to 13 matrices.
 Large coefficients: NSaved= 13 BigCof=   21.53 CofMax=   10.00 Det=-1.33D-10
 Inversion failed.  Reducing to 12 matrices.
 Large coefficients: NSaved= 12 BigCof=   21.38 CofMax=   10.00 Det=-1.33D-10
 Inversion failed.  Reducing to 11 matrices.
 Large coefficients: NSaved= 11 BigCof=   18.87 CofMax=   10.00 Det=-1.41D-10
 Inversion failed.  Reducing to 10 matrices.
 Large coefficients: NSaved= 10 BigCof=   19.55 CofMax=   10.00 Det=-1.43D-10
 Inversion failed.  Reducing to  9 matrices.
 Large coefficients: NSaved=  9 BigCof=   19.29 CofMax=   10.00 Det=-1.45D-10
 Inversion failed.  Reducing to  8 matrices.
 Large coefficients: NSaved=  8 BigCof=   19.50 CofMax=   10.00 Det=-1.50D-10
 Inversion failed.  Reducing to  7 matrices.
 Large coefficients: NSaved=  7 BigCof=   18.41 CofMax=   10.00 Det=-1.64D-10
 Inversion failed.  Reducing to  6 matrices.
 Large coefficients: NSaved=  6 BigCof=   18.38 CofMax=   10.00 Det=-1.65D-10
 Inversion failed.  Reducing to  5 matrices.
 Large coefficients: NSaved=  5 BigCof=   16.75 CofMax=   10.00 Det=-1.98D-10
 Inversion failed.  Reducing to  4 matrices.
 Large coefficients: NSaved=  4 BigCof=   14.33 CofMax=   10.00 Det=-2.44D-10
 Inversion failed.  Reducing to  3 matrices.
 Large coefficients: NSaved=  3 BigCof=   14.20 CofMax=   10.00 Det=-2.56D-10
 Inversion failed.  Reducing to  2 matrices.
 Coeff-Com: -0.484D+01 0.584D+01
 Coeff-En:   0.000D+00 0.100D+01
 Coeff:     -0.482D+01 0.582D+01
 Gap=     0.396 Goal=   None    Shift=    0.000
 Gap=     0.401 Goal=   None    Shift=    0.000
 RMSDP=3.49D-04 MaxDP=1.16D-02 DE=-2.18D-05 OVMax= 3.22D-02

 Cycle  15  Pass 0  IDiag  1:
 RMSU=  2.88D-04    CP:  9.81D-01  1.49D+00  1.35D+00  2.62D+00  3.00D+00
                    CP:  2.24D+00  2.31D+00  3.00D+00  3.00D+00  3.00D+00
                    CP:  3.00D+00  3.00D+00  3.00D+00  3.00D+00
 E= -153.656317940897     Delta-E=       -0.000110983255 Rises=F Damp=F
 DIIS: error= 2.64D-04 at cycle  15 NSaved=   3.
 NSaved= 3 IEnMin= 3 EnMin= -153.656317940897     IErMin= 3 ErrMin= 2.64D-04
 ErrMax= 2.64D-04  0.00D+00 EMaxC= 1.00D-01 BMatC= 4.98D-06 BMatP= 5.41D-06
 IDIUse=3 WtCom= 9.97D-01 WtEn= 2.64D-03
 Large coefficients: NSaved=  3 BigCof=   11.01 CofMax=   10.00 Det=-9.37D-10
 Inversion failed.  Reducing to  2 matrices.
 Coeff-Com: -0.119D+01 0.219D+01
 Coeff-En:   0.000D+00 0.100D+01
 Coeff:     -0.119D+01 0.219D+01
 Gap=     0.396 Goal=   None    Shift=    0.000
 Gap=     0.403 Goal=   None    Shift=    0.000
 RMSDP=4.38D-04 MaxDP=1.52D-02 DE=-1.11D-04 OVMax= 3.99D-02

 Cycle  16  Pass 0  IDiag  1:
 RMSU=  3.86D-05    CP:  9.81D-01  1.51D+00  1.36D+00  2.72D+00  3.00D+00
                    CP:  1.86D+00  2.78D+00  3.00D+00  3.00D+00  3.00D+00
                    CP:  3.00D+00  3.00D+00  3.00D+00  3.00D+00  2.38D+00
 E= -153.656440541720     Delta-E=       -0.000122600823 Rises=F Damp=F
 DIIS: error= 2.25D-04 at cycle  16 NSaved=   3.
 NSaved= 3 IEnMin= 3 EnMin= -153.656440541720     IErMin= 3 ErrMin= 2.25D-04
 ErrMax= 2.25D-04  0.00D+00 EMaxC= 1.00D-01 BMatC= 3.89D-06 BMatP= 4.98D-06
 IDIUse=3 WtCom= 9.98D-01 WtEn= 2.25D-03
 Large coefficients: NSaved=  3 BigCof=   11.77 CofMax=   10.00 Det=-1.20D-08
 Inversion failed.  Reducing to  2 matrices.
 Coeff-Com: -0.415D+00 0.141D+01
 Coeff-En:   0.000D+00 0.100D+01
 Coeff:     -0.414D+00 0.141D+01
 Gap=     0.397 Goal=   None    Shift=    0.000
 Gap=     0.403 Goal=   None    Shift=    0.000
 RMSDP=1.96D-04 MaxDP=6.48D-03 DE=-1.23D-04 OVMax= 1.81D-02

 Cycle  17  Pass 0  IDiag  1:
 RMSU=  2.66D-05    CP:  9.81D-01  1.51D+00  1.37D+00  2.78D+00  2.98D+00
                    CP:  1.73D+00  2.99D+00  3.00D+00  3.00D+00  3.00D+00
                    CP:  3.00D+00  3.00D+00  3.00D+00  3.00D+00  2.98D+00
                    CP:  1.94D+00
 E= -153.656485582155     Delta-E=       -0.000045040435 Rises=F Damp=F
 DIIS: error= 1.96D-04 at cycle  17 NSaved=   3.
 NSaved= 3 IEnMin= 3 EnMin= -153.656485582155     IErMin= 3 ErrMin= 1.96D-04
 ErrMax= 1.96D-04  0.00D+00 EMaxC= 1.00D-01 BMatC= 2.61D-06 BMatP= 3.89D-06
 IDIUse=3 WtCom= 9.98D-01 WtEn= 1.96D-03
 Coeff-Com: -0.221D+00-0.205D+01 0.327D+01
 Coeff-En:   0.000D+00 0.000D+00 0.100D+01
 Coeff:     -0.220D+00-0.204D+01 0.326D+01
 Gap=     0.397 Goal=   None    Shift=    0.000
 Gap=     0.405 Goal=   None    Shift=    0.000
 RMSDP=5.51D-04 MaxDP=1.93D-02 DE=-4.50D-05 OVMax= 4.92D-02

 Cycle  18  Pass 0  IDiag  1:
 RMSU=  4.98D-04    CP:  9.82D-01  1.52D+00  1.39D+00  2.95D+00  2.72D+00
                    CP:  1.34D+00  3.00D+00  3.00D+00  3.00D+00  3.00D+00
                    CP:  3.00D+00  3.00D+00  3.00D+00  3.00D+00  3.00D+00
                    CP:  3.00D+00  3.00D+00
 E= -153.656550650325     Delta-E=       -0.000065068171 Rises=F Damp=F
 DIIS: error= 7.94D-05 at cycle  18 NSaved=   4.
 NSaved= 4 IEnMin= 4 EnMin= -153.656550650325     IErMin= 4 ErrMin= 7.94D-05
 ErrMax= 7.94D-05  0.00D+00 EMaxC= 1.00D-01 BMatC= 2.05D-06 BMatP= 2.61D-06
 IDIUse=1 WtCom= 1.00D+00 WtEn= 0.00D+00
 Coeff-Com:  0.187D+01-0.304D+01 0.969D+00 0.120D+01
 Coeff:      0.187D+01-0.304D+01 0.969D+00 0.120D+01
 Gap=     0.397 Goal=   None    Shift=    0.000
 Gap=     0.397 Goal=   None    Shift=    0.000
 RMSDP=5.02D-04 MaxDP=1.93D-02 DE=-6.51D-05 OVMax= 4.17D-02

 Cycle  19  Pass 0  IDiag  1:
 RMSU=  8.18D-05    CP:  9.80D-01  1.50D+00  1.38D+00  2.84D+00  3.00D+00
                    CP:  1.88D+00  3.00D+00  3.00D+00  3.00D+00  3.00D+00
                    CP:  3.00D+00  3.00D+00  3.00D+00  3.00D+00  3.00D+00
                    CP:  3.00D+00  3.00D+00  1.03D-01
 E= -153.656500440057     Delta-E=        0.000050210268 Rises=F Damp=F
 DIIS: error= 1.64D-04 at cycle  19 NSaved=   5.
 NSaved= 5 IEnMin= 4 EnMin= -153.656550650325     IErMin= 4 ErrMin= 7.94D-05
 ErrMax= 1.64D-04  0.00D+00 EMaxC= 1.00D-01 BMatC= 6.01D-06 BMatP= 2.05D-06
 IDIUse=1 WtCom= 1.00D+00 WtEn= 0.00D+00
 Coeff-Com: -0.120D+01 0.291D+01-0.258D+01 0.927D+00 0.941D+00
 Coeff:     -0.120D+01 0.291D+01-0.258D+01 0.927D+00 0.941D+00
 Gap=     0.398 Goal=   None    Shift=    0.000
 Gap=     0.406 Goal=   None    Shift=    0.000
 RMSDP=7.04D-04 MaxDP=2.69D-02 DE= 5.02D-05 OVMax= 6.04D-02

 Cycle  20  Pass 0  IDiag  1:
 RMSU=  4.22D-05    CP:  9.81D-01  1.52D+00  1.39D+00  3.00D+00  2.64D+00
                    CP:  1.24D+00  3.00D+00  3.00D+00  3.00D+00  3.00D+00
                    CP:  3.00D+00  3.00D+00  3.00D+00  3.00D+00  3.00D+00
                    CP:  3.00D+00  3.00D+00  1.40D+00  6.01D-01
 E= -153.656545391664     Delta-E=       -0.000044951607 Rises=F Damp=F
 DIIS: error= 8.71D-05 at cycle  20 NSaved=   6.
 NSaved= 6 IEnMin= 4 EnMin= -153.656550650325     IErMin= 4 ErrMin= 7.94D-05
 ErrMax= 8.71D-05  0.00D+00 EMaxC= 1.00D-01 BMatC= 2.74D-06 BMatP= 2.05D-06
 IDIUse=1 WtCom= 1.00D+00 WtEn= 0.00D+00
 Coeff-Com: -0.428D+00 0.117D+01-0.944D+00-0.145D+00 0.599D+00 0.743D+00
 Coeff:     -0.428D+00 0.117D+01-0.944D+00-0.145D+00 0.599D+00 0.743D+00
 Gap=     0.398 Goal=   None    Shift=    0.000
 Gap=     0.405 Goal=   None    Shift=    0.000
 RMSDP=2.01D-04 MaxDP=7.92D-03 DE=-4.50D-05 OVMax= 1.64D-02

 Cycle  21  Pass 0  IDiag  1:
 Restarting incremental Fock formation.
 E= -153.656553426995     Delta-E=       -0.000008035331 Rises=F Damp=F
 DIIS: error= 3.03D-05 at cycle  21 NSaved=   7.
 NSaved= 7 IEnMin= 7 EnMin= -153.656553426995     IErMin= 7 ErrMin= 3.03D-05
 ErrMax= 3.03D-05  0.00D+00 EMaxC= 1.00D-01 BMatC= 6.07D-08 BMatP= 2.05D-06
 IDIUse=1 WtCom= 1.00D+00 WtEn= 0.00D+00
 Coeff-Com: -0.105D+00-0.638D-01 0.302D+00-0.351D+00-0.136D+00-0.922D-01
 Coeff-Com:  0.145D+01
 Coeff:     -0.105D+00-0.638D-01 0.302D+00-0.351D+00-0.136D+00-0.922D-01
 Coeff:      0.145D+01
 Gap=     0.398 Goal=   None    Shift=    0.000
 Gap=     0.405 Goal=   None    Shift=    0.000
 RMSDP=6.09D-05 MaxDP=2.17D-03 DE=-8.04D-06 OVMax= 5.67D-03

 Cycle  22  Pass 0  IDiag  1:
 RMSU=  6.04D-05    CP:  1.00D+00
 E= -153.656553225016     Delta-E=        0.000000201980 Rises=F Damp=F
 DIIS: error= 2.18D-05 at cycle  22 NSaved=   8.
 NSaved= 8 IEnMin= 7 EnMin= -153.656553426995     IErMin= 8 ErrMin= 2.18D-05
 ErrMax= 2.18D-05  0.00D+00 EMaxC= 1.00D-01 BMatC= 1.13D-07 BMatP= 6.07D-08
 IDIUse=1 WtCom= 1.00D+00 WtEn= 0.00D+00
 Coeff-Com:  0.481D-01-0.105D+00 0.619D-01 0.101D+00 0.112D-01-0.290D+00
 Coeff-Com: -0.250D+00 0.142D+01
 Coeff:      0.481D-01-0.105D+00 0.619D-01 0.101D+00 0.112D-01-0.290D+00
 Coeff:     -0.250D+00 0.142D+01
 Gap=     0.398 Goal=   None    Shift=    0.000
 Gap=     0.404 Goal=   None    Shift=    0.000
 RMSDP=5.30D-05 MaxDP=2.07D-03 DE= 2.02D-07 OVMax= 4.30D-03

 Cycle  23  Pass 0  IDiag  1:
 RMSU=  1.45D-05    CP:  1.00D+00  1.81D-01
 E= -153.656553618197     Delta-E=       -0.000000393182 Rises=F Damp=F
 DIIS: error= 8.57D-06 at cycle  23 NSaved=   9.
 NSaved= 9 IEnMin= 9 EnMin= -153.656553618197     IErMin= 9 ErrMin= 8.57D-06
 ErrMax= 8.57D-06  0.00D+00 EMaxC= 1.00D-01 BMatC= 6.38D-09 BMatP= 6.07D-08
 IDIUse=1 WtCom= 1.00D+00 WtEn= 0.00D+00
 Coeff-Com: -0.216D+00 0.494D+00-0.380D+00 0.105D+00 0.101D+00 0.932D-01
 Coeff-Com: -0.394D+00-0.259D+00 0.146D+01
 Coeff:     -0.216D+00 0.494D+00-0.380D+00 0.105D+00 0.101D+00 0.932D-01
 Coeff:     -0.394D+00-0.259D+00 0.146D+01
 Gap=     0.398 Goal=   None    Shift=    0.000
 Gap=     0.405 Goal=   None    Shift=    0.000
 RMSDP=5.35D-05 MaxDP=2.10D-03 DE=-3.93D-07 OVMax= 4.57D-03

 Cycle  24  Pass 0  IDiag  1:
 RMSU=  2.70D-06    CP:  1.00D+00  1.02D+00  1.09D-01
 E= -153.656553242411     Delta-E=        0.000000375786 Rises=F Damp=F
 DIIS: error= 1.45D-05 at cycle  24 NSaved=  10.
 NSaved=10 IEnMin= 9 EnMin= -153.656553618197     IErMin= 9 ErrMin= 8.57D-06
 ErrMax= 1.45D-05  0.00D+00 EMaxC= 1.00D-01 BMatC= 9.23D-08 BMatP= 6.38D-09
 IDIUse=1 WtCom= 1.00D+00 WtEn= 0.00D+00
 Coeff-Com: -0.470D-01 0.815D-01-0.389D-01-0.339D-01 0.528D-01-0.270D-01
 Coeff-Com:  0.128D+00-0.442D+00 0.282D+00 0.104D+01
 Coeff:     -0.470D-01 0.815D-01-0.389D-01-0.339D-01 0.528D-01-0.270D-01
 Coeff:      0.128D+00-0.442D+00 0.282D+00 0.104D+01
 Gap=     0.398 Goal=   None    Shift=    0.000
 Gap=     0.405 Goal=   None    Shift=    0.000
 RMSDP=3.70D-05 MaxDP=1.44D-03 DE= 3.76D-07 OVMax= 3.10D-03

 Cycle  25  Pass 0  IDiag  1:
 RMSU=  7.06D-07    CP:  1.00D+00  4.41D-01  7.51D-01  6.99D-01
 E= -153.656553643041     Delta-E=       -0.000000400630 Rises=F Damp=F
 DIIS: error= 2.52D-06 at cycle  25 NSaved=  11.
 NSaved=11 IEnMin=11 EnMin= -153.656553643041     IErMin=11 ErrMin= 2.52D-06
 ErrMax= 2.52D-06  0.00D+00 EMaxC= 1.00D-01 BMatC= 2.27D-09 BMatP= 6.38D-09
 IDIUse=1 WtCom= 1.00D+00 WtEn= 0.00D+00
 Coeff-Com: -0.296D-01 0.443D-01-0.213D-01-0.365D-02 0.291D-02-0.334D-02
 Coeff-Com:  0.448D-01-0.306D-01-0.112D+00-0.239D+00 0.135D+01
 Coeff:     -0.296D-01 0.443D-01-0.213D-01-0.365D-02 0.291D-02-0.334D-02
 Coeff:      0.448D-01-0.306D-01-0.112D+00-0.239D+00 0.135D+01
 Gap=     0.398 Goal=   None    Shift=    0.000
 Gap=     0.405 Goal=   None    Shift=    0.000
 RMSDP=3.09D-06 MaxDP=1.18D-04 DE=-4.01D-07 OVMax= 2.87D-04

 Initial convergence to 1.0D-05 achieved.  Increase integral accuracy.
 Cycle  26  Pass 1  IDiag  1:
 E= -153.656553633515     Delta-E=        0.000000009526 Rises=F Damp=F
 DIIS: error= 2.89D-06 at cycle   1 NSaved=   1.
 NSaved= 1 IEnMin= 1 EnMin= -153.656553633515     IErMin= 1 ErrMin= 2.89D-06
 ErrMax= 2.89D-06  0.00D+00 EMaxC= 1.00D-01 BMatC= 3.60D-09 BMatP= 3.60D-09
 IDIUse=1 WtCom= 1.00D+00 WtEn= 0.00D+00
 Coeff-Com:  0.100D+01
 Coeff:      0.100D+01
 Gap=     0.398 Goal=   None    Shift=    0.000
 Gap=     0.405 Goal=   None    Shift=    0.000
 RMSDP=3.09D-06 MaxDP=1.18D-04 DE= 9.53D-09 OVMax= 2.70D-05

 Cycle  27  Pass 1  IDiag  1:
 RMSU=  1.69D-06    CP:  1.00D+00
 E= -153.656553635858     Delta-E=       -0.000000002343 Rises=F Damp=F
 DIIS: error= 2.56D-06 at cycle   2 NSaved=   2.
 NSaved= 2 IEnMin= 2 EnMin= -153.656553635858     IErMin= 2 ErrMin= 2.56D-06
 ErrMax= 2.56D-06  0.00D+00 EMaxC= 1.00D-01 BMatC= 1.18D-09 BMatP= 3.60D-09
 IDIUse=1 WtCom= 1.00D+00 WtEn= 0.00D+00
 Coeff-Com: -0.701D-01 0.107D+01
 Coeff:     -0.701D-01 0.107D+01
 Gap=     0.398 Goal=   None    Shift=    0.000
 Gap=     0.405 Goal=   None    Shift=    0.000
 RMSDP=7.66D-07 MaxDP=3.58D-05 DE=-2.34D-09 OVMax= 2.45D-05

 Cycle  28  Pass 1  IDiag  1:
 RMSU=  3.81D-07    CP:  1.00D+00  1.36D+00
 E= -153.656553637283     Delta-E=       -0.000000001425 Rises=F Damp=F
 DIIS: error= 2.18D-06 at cycle   3 NSaved=   3.
 NSaved= 3 IEnMin= 3 EnMin= -153.656553637283     IErMin= 3 ErrMin= 2.18D-06
 ErrMax= 2.18D-06  0.00D+00 EMaxC= 1.00D-01 BMatC= 8.02D-10 BMatP= 1.18D-09
 IDIUse=1 WtCom= 1.00D+00 WtEn= 0.00D+00
 Coeff-Com: -0.141D+00-0.275D+00 0.142D+01
 Coeff:     -0.141D+00-0.275D+00 0.142D+01
 Gap=     0.398 Goal=   None    Shift=    0.000
 Gap=     0.405 Goal=   None    Shift=    0.000
 RMSDP=6.84D-07 MaxDP=2.00D-05 DE=-1.42D-09 OVMax= 3.48D-05

 Cycle  29  Pass 1  IDiag  1:
 RMSU=  2.40D-07    CP:  1.00D+00  1.62D+00  2.08D+00
 E= -153.656553638924     Delta-E=       -0.000000001642 Rises=F Damp=F
 DIIS: error= 2.29D-06 at cycle   4 NSaved=   4.
 NSaved= 4 IEnMin= 4 EnMin= -153.656553638924     IErMin= 3 ErrMin= 2.18D-06
 ErrMax= 2.29D-06  0.00D+00 EMaxC= 1.00D-01 BMatC= 6.00D-10 BMatP= 8.02D-10
 IDIUse=1 WtCom= 1.00D+00 WtEn= 0.00D+00
 Coeff-Com:  0.550D-01-0.462D+00-0.231D+00 0.164D+01
 Coeff:      0.550D-01-0.462D+00-0.231D+00 0.164D+01
 Gap=     0.398 Goal=   None    Shift=    0.000
 Gap=     0.404 Goal=   None    Shift=    0.000
 RMSDP=7.58D-07 MaxDP=2.15D-05 DE=-1.64D-09 OVMax= 5.13D-05

 Cycle  30  Pass 1  IDiag  1:
 RMSU=  2.49D-07    CP:  1.00D+00  1.79D+00  3.00D+00  2.66D+00
 E= -153.656553640913     Delta-E=       -0.000000001988 Rises=F Damp=F
 DIIS: error= 2.42D-06 at cycle   5 NSaved=   5.
 NSaved= 5 IEnMin= 5 EnMin= -153.656553640913     IErMin= 3 ErrMin= 2.18D-06
 ErrMax= 2.42D-06  0.00D+00 EMaxC= 1.00D-01 BMatC= 4.53D-10 BMatP= 6.00D-10
 IDIUse=1 WtCom= 1.00D+00 WtEn= 0.00D+00
 Coeff-Com:  0.635D-01 0.525D+00-0.716D+00-0.160D+01 0.272D+01
 Coeff:      0.635D-01 0.525D+00-0.716D+00-0.160D+01 0.272D+01
 Gap=     0.398 Goal=   None    Shift=    0.000
 Gap=     0.404 Goal=   None    Shift=    0.000
 RMSDP=1.22D-06 MaxDP=3.72D-05 DE=-1.99D-09 OVMax= 9.71D-05

 Cycle  31  Pass 1  IDiag  1:
 RMSU=  8.36D-07    CP:  1.00D+00  1.89D+00  3.00D+00  3.00D+00  3.00D+00
 E= -153.656553643891     Delta-E=       -0.000000002978 Rises=F Damp=F
 DIIS: error= 2.45D-06 at cycle   6 NSaved=   6.
 NSaved= 6 IEnMin= 6 EnMin= -153.656553643891     IErMin= 3 ErrMin= 2.18D-06
 ErrMax= 2.45D-06  0.00D+00 EMaxC= 1.00D-01 BMatC= 3.14D-10 BMatP= 4.53D-10
 IDIUse=1 WtCom= 1.00D+00 WtEn= 0.00D+00
 Coeff-Com: -0.930D-01 0.156D+00 0.857D+00-0.112D+01-0.130D+01 0.249D+01
 Coeff:     -0.930D-01 0.156D+00 0.857D+00-0.112D+01-0.130D+01 0.249D+01
 Gap=     0.398 Goal=   None    Shift=    0.000
 Gap=     0.404 Goal=   None    Shift=    0.000
 RMSDP=1.65D-06 MaxDP=5.43D-05 DE=-2.98D-09 OVMax= 1.40D-04

 Cycle  32  Pass 1  IDiag  1:
 RMSU=  6.49D-07    CP:  1.00D+00  1.97D+00  3.00D+00  3.00D+00  3.00D+00
                    CP:  2.80D+00
 E= -153.656553647055     Delta-E=       -0.000000003164 Rises=F Damp=F
 DIIS: error= 2.14D-06 at cycle   7 NSaved=   7.
 NSaved= 7 IEnMin= 7 EnMin= -153.656553647055     IErMin= 7 ErrMin= 2.14D-06
 ErrMax= 2.14D-06  0.00D+00 EMaxC= 1.00D-01 BMatC= 1.77D-10 BMatP= 3.14D-10
 IDIUse=1 WtCom= 1.00D+00 WtEn= 0.00D+00
 Coeff-Com:  0.387D-02-0.555D+00 0.120D+00 0.199D+01-0.122D+01-0.231D+01
 Coeff-Com:  0.297D+01
 Coeff:      0.387D-02-0.555D+00 0.120D+00 0.199D+01-0.122D+01-0.231D+01
 Coeff:      0.297D+01
 Gap=     0.398 Goal=   None    Shift=    0.000
 Gap=     0.404 Goal=   None    Shift=    0.000
 RMSDP=2.23D-06 MaxDP=7.52D-05 DE=-3.16D-09 OVMax= 2.00D-04

 Cycle  33  Pass 1  IDiag  1:
 RMSU=  1.82D-06    CP:  1.00D+00  2.10D+00  3.00D+00  3.00D+00  3.00D+00
                    CP:  3.00D+00  2.51D+00
 E= -153.656553649706     Delta-E=       -0.000000002651 Rises=F Damp=F
 DIIS: error= 1.20D-06 at cycle   8 NSaved=   8.
 NSaved= 8 IEnMin= 8 EnMin= -153.656553649706     IErMin= 8 ErrMin= 1.20D-06
 ErrMax= 1.20D-06  0.00D+00 EMaxC= 1.00D-01 BMatC= 4.78D-11 BMatP= 1.77D-10
 IDIUse=1 WtCom= 1.00D+00 WtEn= 0.00D+00
 Coeff-Com:  0.312D-01 0.184D+00-0.414D+00-0.444D+00 0.116D+01-0.226D+00
 Coeff-Com: -0.109D+01 0.181D+01
 Coeff:      0.312D-01 0.184D+00-0.414D+00-0.444D+00 0.116D+01-0.226D+00
 Coeff:     -0.109D+01 0.181D+01
 Gap=     0.398 Goal=   None    Shift=    0.000
 Gap=     0.404 Goal=   None    Shift=    0.000
 RMSDP=1.14D-06 MaxDP=3.51D-05 DE=-2.65D-09 OVMax= 1.08D-04

 Cycle  34  Pass 1  IDiag  1:
 RMSU=  1.86D-07    CP:  1.00D+00  2.15D+00  3.00D+00  3.00D+00  3.00D+00
                    CP:  3.00D+00  3.00D+00  1.57D+00
 E= -153.656553650290     Delta-E=       -0.000000000584 Rises=F Damp=F
 DIIS: error= 4.91D-07 at cycle   9 NSaved=   9.
 NSaved= 9 IEnMin= 9 EnMin= -153.656553650290     IErMin= 9 ErrMin= 4.91D-07
 ErrMax= 4.91D-07  0.00D+00 EMaxC= 1.00D-01 BMatC= 9.97D-12 BMatP= 4.78D-11
 IDIUse=1 WtCom= 1.00D+00 WtEn= 0.00D+00
 Coeff-Com: -0.965D-02 0.146D+00 0.343D-01-0.547D+00 0.223D+00 0.687D+00
 Coeff-Com: -0.794D+00-0.693D-01 0.133D+01
 Coeff:     -0.965D-02 0.146D+00 0.343D-01-0.547D+00 0.223D+00 0.687D+00
 Coeff:     -0.794D+00-0.693D-01 0.133D+01
 Gap=     0.398 Goal=   None    Shift=    0.000
 Gap=     0.404 Goal=   None    Shift=    0.000
 RMSDP=4.00D-07 MaxDP=1.13D-05 DE=-5.84D-10 OVMax= 3.88D-05

 Cycle  35  Pass 1  IDiag  1:
 RMSU=  6.36D-08    CP:  1.00D+00  2.15D+00  3.00D+00  3.00D+00  3.00D+00
                    CP:  3.00D+00  3.00D+00  1.77D+00  1.80D+00
 E= -153.656553650358     Delta-E=       -0.000000000068 Rises=F Damp=F
 DIIS: error= 1.64D-07 at cycle  10 NSaved=  10.
 NSaved=10 IEnMin=10 EnMin= -153.656553650358     IErMin=10 ErrMin= 1.64D-07
 ErrMax= 1.64D-07  0.00D+00 EMaxC= 1.00D-01 BMatC= 1.81D-12 BMatP= 9.97D-12
 IDIUse=1 WtCom= 1.00D+00 WtEn= 0.00D+00
 Coeff-Com: -0.211D-02-0.800D-01 0.635D-01 0.265D+00-0.313D+00-0.157D+00
 Coeff-Com:  0.485D+00-0.383D+00-0.426D+00 0.155D+01
 Coeff:     -0.211D-02-0.800D-01 0.635D-01 0.265D+00-0.313D+00-0.157D+00
 Coeff:      0.485D+00-0.383D+00-0.426D+00 0.155D+01
 Gap=     0.398 Goal=   None    Shift=    0.000
 Gap=     0.404 Goal=   None    Shift=    0.000
 RMSDP=9.93D-08 MaxDP=2.57D-06 DE=-6.78D-11 OVMax= 1.01D-05

 Cycle  36  Pass 1  IDiag  1:
 RMSU=  3.22D-08    CP:  1.00D+00  2.14D+00  3.00D+00  3.00D+00  3.00D+00
                    CP:  3.00D+00  3.00D+00  1.82D+00  1.96D+00  1.34D+00
 E= -153.656553650364     Delta-E=       -0.000000000006 Rises=F Damp=F
 DIIS: error= 4.65D-08 at cycle  11 NSaved=  11.
 NSaved=11 IEnMin=11 EnMin= -153.656553650364     IErMin=11 ErrMin= 4.65D-08
 ErrMax= 4.65D-08  0.00D+00 EMaxC= 1.00D-01 BMatC= 3.51D-13 BMatP= 1.81D-12
 IDIUse=1 WtCom= 1.00D+00 WtEn= 0.00D+00
 Coeff-Com:  0.280D-04 0.110D-01-0.214D-01-0.188D-01 0.590D-01-0.122D-01
 Coeff-Com: -0.748D-01 0.127D+00 0.174D-01-0.584D+00 0.150D+01
 Coeff:      0.280D-04 0.110D-01-0.214D-01-0.188D-01 0.590D-01-0.122D-01
 Coeff:     -0.748D-01 0.127D+00 0.174D-01-0.584D+00 0.150D+01
 Gap=     0.398 Goal=   None    Shift=    0.000
 Gap=     0.404 Goal=   None    Shift=    0.000
 RMSDP=2.02D-08 MaxDP=6.66D-07 DE=-6.31D-12 OVMax= 1.83D-06

 Cycle  37  Pass 1  IDiag  1:
 RMSU=  1.43D-08    CP:  1.00D+00  2.15D+00  3.00D+00  3.00D+00  3.00D+00
                    CP:  3.00D+00  3.00D+00  1.82D+00  1.98D+00  1.46D+00
                    CP:  1.22D+00
 E= -153.656553650365     Delta-E=       -0.000000000001 Rises=F Damp=F
 DIIS: error= 3.47D-08 at cycle  12 NSaved=  12.
 NSaved=12 IEnMin=12 EnMin= -153.656553650365     IErMin=12 ErrMin= 3.47D-08
 ErrMax= 3.47D-08  0.00D+00 EMaxC= 1.00D-01 BMatC= 1.65D-13 BMatP= 3.51D-13
 IDIUse=1 WtCom= 1.00D+00 WtEn= 0.00D+00
 Coeff-Com: -0.310D-03 0.139D-01-0.314D-02-0.479D-01 0.314D-01 0.505D-01
 Coeff-Com: -0.744D-01 0.146D-01 0.108D+00-0.874D-01-0.668D+00 0.166D+01
 Coeff:     -0.310D-03 0.139D-01-0.314D-02-0.479D-01 0.314D-01 0.505D-01
 Coeff:     -0.744D-01 0.146D-01 0.108D+00-0.874D-01-0.668D+00 0.166D+01
 Gap=     0.398 Goal=   None    Shift=    0.000
 Gap=     0.404 Goal=   None    Shift=    0.000
 RMSDP=1.49D-08 MaxDP=4.18D-07 DE=-1.08D-12 OVMax= 9.40D-07

 Cycle  38  Pass 1  IDiag  1:
 RMSU=  5.64D-09    CP:  1.00D+00  2.15D+00  3.00D+00  3.00D+00  3.00D+00
                    CP:  3.00D+00  3.00D+00  1.82D+00  1.99D+00  1.48D+00
                    CP:  1.25D+00  1.84D+00
 E= -153.656553650366     Delta-E=       -0.000000000001 Rises=F Damp=F
 DIIS: error= 2.58D-08 at cycle  13 NSaved=  13.
 NSaved=13 IEnMin=13 EnMin= -153.656553650366     IErMin=13 ErrMin= 2.58D-08
 ErrMax= 2.58D-08  0.00D+00 EMaxC= 1.00D-01 BMatC= 9.45D-14 BMatP= 1.65D-13
 IDIUse=1 WtCom= 1.00D+00 WtEn= 0.00D+00
 Coeff-Com:  0.356D-03-0.117D-01 0.113D-01 0.303D-01-0.439D-01-0.114D-01
 Coeff-Com:  0.660D-01-0.745D-01-0.402D-01 0.332D+00-0.563D+00-0.624D+00
 Coeff-Com:  0.193D+01
 Coeff:      0.356D-03-0.117D-01 0.113D-01 0.303D-01-0.439D-01-0.114D-01
 Coeff:      0.660D-01-0.745D-01-0.402D-01 0.332D+00-0.563D+00-0.624D+00
 Coeff:      0.193D+01
 Gap=     0.398 Goal=   None    Shift=    0.000
 Gap=     0.404 Goal=   None    Shift=    0.000
 RMSDP=1.60D-08 MaxDP=4.12D-07 DE=-7.39D-13 OVMax= 1.19D-06

 Cycle  39  Pass 1  IDiag  1:
 RMSU=  2.54D-09    CP:  1.00D+00  2.15D+00  3.00D+00  3.00D+00  3.00D+00
                    CP:  3.00D+00  3.00D+00  1.82D+00  2.00D+00  1.48D+00
                    CP:  1.30D+00  2.58D+00  2.76D+00
 E= -153.656553650366     Delta-E=       -0.000000000000 Rises=F Damp=F
 DIIS: error= 1.59D-08 at cycle  14 NSaved=  14.
 NSaved=14 IEnMin=14 EnMin= -153.656553650366     IErMin=14 ErrMin= 1.59D-08
 ErrMax= 1.59D-08  0.00D+00 EMaxC= 1.00D-01 BMatC= 4.33D-14 BMatP= 9.45D-14
 IDIUse=1 WtCom= 1.00D+00 WtEn= 0.00D+00
 Coeff-Com:  0.696D-03-0.686D-02-0.281D-02 0.235D-01-0.203D-02-0.371D-01
 Coeff-Com:  0.315D-01 0.206D-01-0.754D-01-0.410D-01 0.733D+00-0.116D+01
 Coeff-Com: -0.460D+00 0.197D+01
 Coeff:      0.696D-03-0.686D-02-0.281D-02 0.235D-01-0.203D-02-0.371D-01
 Coeff:      0.315D-01 0.206D-01-0.754D-01-0.410D-01 0.733D+00-0.116D+01
 Coeff:     -0.460D+00 0.197D+01
 Gap=     0.398 Goal=   None    Shift=    0.000
 Gap=     0.404 Goal=   None    Shift=    0.000
 RMSDP=1.60D-08 MaxDP=4.13D-07 DE=-5.68D-14 OVMax= 1.25D-06

 Cycle  40  Pass 1  IDiag  1:
 RMSU=  1.03D-08    CP:  1.00D+00  2.15D+00  3.00D+00  3.00D+00  3.00D+00
                    CP:  3.00D+00  3.00D+00  1.82D+00  2.01D+00  1.48D+00
                    CP:  1.40D+00  3.00D+00  3.00D+00  2.79D+00
 E= -153.656553650366     Delta-E=       -0.000000000000 Rises=F Damp=F
 DIIS: error= 6.76D-09 at cycle  15 NSaved=  15.
 NSaved=15 IEnMin=15 EnMin= -153.656553650366     IErMin=15 ErrMin= 6.76D-09
 ErrMax= 6.76D-09  0.00D+00 EMaxC= 1.00D-01 BMatC= 1.11D-14 BMatP= 4.33D-14
 IDIUse=1 WtCom= 1.00D+00 WtEn= 0.00D+00
 Coeff-Com: -0.420D-03 0.776D-02-0.117D-02-0.269D-01 0.200D-01 0.222D-01
 Coeff-Com: -0.397D-01 0.183D-01 0.425D-01-0.798D-01-0.201D+00 0.800D+00
 Coeff-Com: -0.342D+00-0.115D+01 0.193D+01
 Coeff:     -0.420D-03 0.776D-02-0.117D-02-0.269D-01 0.200D-01 0.222D-01
 Coeff:     -0.397D-01 0.183D-01 0.425D-01-0.798D-01-0.201D+00 0.800D+00
 Coeff:     -0.342D+00-0.115D+01 0.193D+01
 Gap=     0.398 Goal=   None    Shift=    0.000
 Gap=     0.404 Goal=   None    Shift=    0.000
 RMSDP=8.90D-09 MaxDP=2.23D-07 DE=-2.27D-13 OVMax= 6.36D-07

 SCF Done:  E(UHF) =  -153.656553650     A.U. after   40 cycles
            NFock= 40  Conv=0.89D-08     -V/T= 2.0005
 <Sx>= 0.0000 <Sy>= 0.0000 <Sz>= 1.0000 <S**2>= 2.2723 S= 1.0882
 <L.S>= 0.000000000000E+00
 KE= 1.535827802411D+02 PE=-5.352609863211D+02 EE= 1.390378241233D+02
 Annihilation of the first spin contaminant:
 S**2 before annihilation     2.2723,   after     2.0237
 Leave Link  502 at Tue Oct 10 12:10:56 2017, MaxMem=    33554432 cpu:        98.9
 (Enter /usr/local/gaussian/2009-E.01/g09/l801.exe)
 Windowed orbitals will be sorted by symmetry type.
 ExpMin= 3.60D-02 ExpMax= 4.56D+03 ExpMxC= 6.82D+02 IAcc=3 IRadAn=         5 AccDes= 0.00D+00
 HarFok:  IExCor=  205 AccDes= 0.00D+00 IRadAn=         5 IDoV=-2 UseB2=F ITyADJ=14
 ICtDFT= 12500011 ScaDFX=  1.000000  1.000000  1.000000  1.000000
 Largest valence mixing into a core orbital is  1.37D-04
 Largest core mixing into a valence orbital is  3.82D-05
 Largest valence mixing into a core orbital is  1.91D-04
 Largest core mixing into a valence orbital is  4.73D-05
 Range of M.O.s used for correlation:     5   116
 NBasis=   116 NAE=    15 NBE=    13 NFC=     4 NFV=     0
 NROrb=    112 NOA=    11 NOB=     9 NVA=   101 NVB=   103

 **** Warning!!: The largest alpha MO coefficient is  0.69141654D+02


 **** Warning!!: The largest beta MO coefficient is  0.68559516D+02

 Leave Link  801 at Tue Oct 10 12:10:57 2017, MaxMem=    33554432 cpu:         0.5
 (Enter /usr/local/gaussian/2009-E.01/g09/l804.exe)
 Open-shell transformation, MDV=    33554432 ITran=4 ISComp=1.
 Semi-Direct transformation.
 ModeAB=           2 MOrb=            11 LenV=      33073233
 LASXX=      7185266 LTotXX=     7185266 LenRXX=     7185266
 LTotAB=     7448056 MaxLAS=     8944320 LenRXY=     8944320
 NonZer=    14370532 LenScr=    22316544 LnRSAI=           0
 LnScr1=           0 LExtra=           0 Total=     38446130
 MaxDsk=          -1 SrtSym=           F ITran=            4
 DoSDTr:  NPSUse=  8
 JobTyp=1 Pass  1:  I=   1 to  11.
 (rs|ai) integrals will be sorted in core.
 Complete sort for first half transformation.
 First half transformation complete.
 Begin second half transformation for I=  10.
 Begin second half transformation for I=  10.
 Complete sort for second half transformation.
 Second half transformation complete.
 ModeAB=           2 MOrb=             9 LenV=      33073233
 LASXX=      5952006 LTotXX=     5952006 LenRXX=     7318080
 LTotAB=     5006772 MaxLAS=     7318080 LenRXY=     5006772
 NonZer=    11904012 LenScr=    18628608 LnRSAI=           0
 LnScr1=           0 LExtra=           0 Total=     30953460
 MaxDsk=          -1 SrtSym=           F ITran=            4
 DoSDTr:  NPSUse=  8
 JobTyp=2 Pass  1:  I=   1 to   9.
 (rs|ai) integrals will be sorted in core.
 Complete sort for first half transformation.
 First half transformation complete.
 Complete sort for second half transformation.
 Second half transformation complete.
 SymMOI:  orbitals are not symmetric.
 Spin components of T(2) and E(2):
     alpha-alpha T2 =       0.2544065117D-01 E2=     -0.6900264845D-01
     alpha-beta  T2 =       0.1224307515D+00 E2=     -0.3533820090D+00
     beta-beta   T2 =       0.1636332553D-01 E2=     -0.4453849380D-01
 ANorm=    0.1078997094D+01
 E2 =    -0.4669231513D+00 EUMP2 =    -0.15412347680165D+03
 (S**2,0)=  0.22723D+01           (S**2,1)=  0.22037D+01
 E(PUHF)=      -0.15366952164D+03        E(PMP2)=      -0.15413490031D+03
 Leave Link  804 at Tue Oct 10 12:11:01 2017, MaxMem=    33554432 cpu:        32.9
 (Enter /usr/local/gaussian/2009-E.01/g09/l913.exe)
 CIDS:  MDV=    33554432.
 Frozen-core window:  NFC=   4 NFV=   0.
 IFCWin=0 IBDFC=1 NFBD=     0     0 NFCmp=     0     0 NFFFC=     0     0
 Using original routines for 1st iteration, S=T.
 Using DD4UQ or CC4UQ for 2nd and later iterations.
 Would need an additional        13389663 words for in-memory AO integral storage.
 CCSD(T)
 =======
 Iterations= 200 Convergence= 0.100D-06
 Iteration Nr.   1
 **********************
 DD1Dir will call FoFJK   3 times, MxPair=        98
 NAB=    99 NAA=    55 NBB=    36 NumPrc=  8.
 DD1Dir:  Pass   1 NRAB=    49 NRAA=     0 NRBB=     0 NR=    98.
 FoFJK:  IHMeth= 1 ICntrl=     200 DoSepK=F KAlg= 0 I1Cent=   0 FoldK=F
 IRaf= 990000000 NMat=  98 IRICut=     122 DoRegI=T DoRafI=T ISym2E= 2.
 FoFCou: FMM=F IPFlag=           0 FMFlag=      100000 FMFlg1=           0
         NFxFlg=           0 DoJE=F BraDBF=F KetDBF=F FulRan=T
         wScrn=  0.000000 ICntrl=     200 IOpCl=  0 I1Cent=           0 NGrid=           0
         NMat0=   98 NMatS0=      0 NMatT0=   49 NMatD0=   98 NMtDS0=    0 NMtDT0=    0
 Integrals replicated using symmetry in FoFCou.
 DD1Dir:  Pass   2 NRAB=    49 NRAA=     0 NRBB=     0 NR=    98.
 DD1Dir:  Pass   3 NRAB=     1 NRAA=    55 NRBB=    36 NR=    93.
 E(PMP3)=      -0.15417493037D+03
 MP4(R+Q)=  0.10598805D-01
 Maximum subspace dimension=  5
 Norm of the A-vectors is  7.6964380D-01 conv= 1.00D-05.
 RLE energy=       -0.5011891150
 E3=       -0.42399860D-01        EUMP3=      -0.15416587666D+03
 E4(DQ)=   -0.27613001D-02        UMP4(DQ)=   -0.15416863796D+03
 E4(SDQ)=  -0.92298538D-02        UMP4(SDQ)=  -0.15417510652D+03
 VARIATIONAL ENERGIES WITH THE FIRST-ORDER WAVEFUNCTION:
 DE(Corr)= -0.49884641     E(Corr)=     -154.15540006    
 NORM(A)=   0.10964021D+01
 Iteration Nr.   2
 **********************
 DD1Dir will call FoFJK   3 times, MxPair=        98
 NAB=    99 NAA=    55 NBB=    36 NumPrc=  8.
 DD1Dir:  Pass   1 NRAB=    49 NRAA=     0 NRBB=     0 NR=    98.
 DD1Dir:  Pass   2 NRAB=    49 NRAA=     0 NRBB=     0 NR=    98.
 DD1Dir:  Pass   3 NRAB=     1 NRAA=    55 NRBB=    36 NR=    93.
 Norm of the A-vectors is  3.2759978D-01 conv= 1.00D-05.
 RLE energy=       -0.5205869780
 DE(Corr)= -0.51552609     E(CORR)=     -154.17207974     Delta=-1.67D-02
 NORM(A)=   0.11106742D+01
 Iteration Nr.   3
 **********************
 DD1Dir will call FoFJK   3 times, MxPair=        98
 NAB=    99 NAA=    55 NBB=    36 NumPrc=  8.
 DD1Dir:  Pass   1 NRAB=    49 NRAA=     0 NRBB=     0 NR=    98.
 DD1Dir:  Pass   2 NRAB=    49 NRAA=     0 NRBB=     0 NR=    98.
 DD1Dir:  Pass   3 NRAB=     1 NRAA=    55 NRBB=    36 NR=    93.
 Norm of the A-vectors is  1.1249362D-01 conv= 1.00D-05.
 RLE energy=       -0.5241734708
 DE(Corr)= -0.52033067     E(CORR)=     -154.17688432     Delta=-4.80D-03
 NORM(A)=   0.11221976D+01
 Iteration Nr.   4
 **********************
 DD1Dir will call FoFJK   3 times, MxPair=        98
 NAB=    99 NAA=    55 NBB=    36 NumPrc=  8.
 DD1Dir:  Pass   1 NRAB=    49 NRAA=     0 NRBB=     0 NR=    98.
 DD1Dir:  Pass   2 NRAB=    49 NRAA=     0 NRBB=     0 NR=    98.
 DD1Dir:  Pass   3 NRAB=     1 NRAA=    55 NRBB=    36 NR=    93.
 Norm of the A-vectors is  7.6135896D-02 conv= 1.00D-05.
 RLE energy=       -0.5257780477
 DE(Corr)= -0.52445067     E(CORR)=     -154.18100432     Delta=-4.12D-03
 NORM(A)=   0.11293775D+01
 Iteration Nr.   5
 **********************
 DD1Dir will call FoFJK   3 times, MxPair=        98
 NAB=    99 NAA=    55 NBB=    36 NumPrc=  8.
 DD1Dir:  Pass   1 NRAB=    49 NRAA=     0 NRBB=     0 NR=    98.
 DD1Dir:  Pass   2 NRAB=    49 NRAA=     0 NRBB=     0 NR=    98.
 DD1Dir:  Pass   3 NRAB=     1 NRAA=    55 NRBB=    36 NR=    93.
 Norm of the A-vectors is  3.9410838D-02 conv= 1.00D-05.
 RLE energy=       -0.5260729334
 DE(Corr)= -0.52573543     E(CORR)=     -154.18228908     Delta=-1.28D-03
 NORM(A)=   0.11319228D+01
 Iteration Nr.   6
 **********************
 DD1Dir will call FoFJK   3 times, MxPair=        98
 NAB=    99 NAA=    55 NBB=    36 NumPrc=  8.
 DD1Dir:  Pass   1 NRAB=    49 NRAA=     0 NRBB=     0 NR=    98.
 DD1Dir:  Pass   2 NRAB=    49 NRAA=     0 NRBB=     0 NR=    98.
 DD1Dir:  Pass   3 NRAB=     1 NRAA=    55 NRBB=    36 NR=    93.
 Norm of the A-vectors is  1.9937647D-02 conv= 1.00D-05.
 RLE energy=       -0.5258719176
 DE(Corr)= -0.52601124     E(CORR)=     -154.18256489     Delta=-2.76D-04
 NORM(A)=   0.11325848D+01
 Iteration Nr.   7
 **********************
 DD1Dir will call FoFJK   3 times, MxPair=        98
 NAB=    99 NAA=    55 NBB=    36 NumPrc=  8.
 DD1Dir:  Pass   1 NRAB=    49 NRAA=     0 NRBB=     0 NR=    98.
 DD1Dir:  Pass   2 NRAB=    49 NRAA=     0 NRBB=     0 NR=    98.
 DD1Dir:  Pass   3 NRAB=     1 NRAA=    55 NRBB=    36 NR=    93.
 Norm of the A-vectors is  1.2317131D-02 conv= 1.00D-05.
 RLE energy=       -0.5261631691
 DE(Corr)= -0.52606779     E(CORR)=     -154.18262144     Delta=-5.66D-05
 NORM(A)=   0.11330950D+01
 Iteration Nr.   8
 **********************
 DD1Dir will call FoFJK   3 times, MxPair=        98
 NAB=    99 NAA=    55 NBB=    36 NumPrc=  8.
 DD1Dir:  Pass   1 NRAB=    49 NRAA=     0 NRBB=     0 NR=    98.
 DD1Dir:  Pass   2 NRAB=    49 NRAA=     0 NRBB=     0 NR=    98.
 DD1Dir:  Pass   3 NRAB=     1 NRAA=    55 NRBB=    36 NR=    93.
 Norm of the A-vectors is  9.6135866D-03 conv= 1.00D-05.
 RLE energy=       -0.5260528450
 DE(Corr)= -0.52608077     E(CORR)=     -154.18263442     Delta=-1.30D-05
 NORM(A)=   0.11332931D+01
 Iteration Nr.   9
 **********************
 DD1Dir will call FoFJK   3 times, MxPair=        98
 NAB=    99 NAA=    55 NBB=    36 NumPrc=  8.
 DD1Dir:  Pass   1 NRAB=    49 NRAA=     0 NRBB=     0 NR=    98.
 DD1Dir:  Pass   2 NRAB=    49 NRAA=     0 NRBB=     0 NR=    98.
 DD1Dir:  Pass   3 NRAB=     1 NRAA=    55 NRBB=    36 NR=    93.
 Norm of the A-vectors is  7.2227456D-03 conv= 1.00D-05.
 RLE energy=       -0.5261655066
 DE(Corr)= -0.52612708     E(CORR)=     -154.18268073     Delta=-4.63D-05
 NORM(A)=   0.11334651D+01
 Iteration Nr.  10
 **********************
 DD1Dir will call FoFJK   3 times, MxPair=        98
 NAB=    99 NAA=    55 NBB=    36 NumPrc=  8.
 DD1Dir:  Pass   1 NRAB=    49 NRAA=     0 NRBB=     0 NR=    98.
 DD1Dir:  Pass   2 NRAB=    49 NRAA=     0 NRBB=     0 NR=    98.
 DD1Dir:  Pass   3 NRAB=     1 NRAA=    55 NRBB=    36 NR=    93.
 Norm of the A-vectors is  5.3541944D-03 conv= 1.00D-05.
 RLE energy=       -0.5261396119
 DE(Corr)= -0.52612696     E(CORR)=     -154.18268061     Delta= 1.21D-07
 NORM(A)=   0.11336258D+01
 Iteration Nr.  11
 **********************
 DD1Dir will call FoFJK   3 times, MxPair=        98
 NAB=    99 NAA=    55 NBB=    36 NumPrc=  8.
 DD1Dir:  Pass   1 NRAB=    49 NRAA=     0 NRBB=     0 NR=    98.
 DD1Dir:  Pass   2 NRAB=    49 NRAA=     0 NRBB=     0 NR=    98.
 DD1Dir:  Pass   3 NRAB=     1 NRAA=    55 NRBB=    36 NR=    93.
 Norm of the A-vectors is  5.6795671D-03 conv= 1.00D-05.
 RLE energy=       -0.5261622878
 DE(Corr)= -0.52615396     E(CORR)=     -154.18270761     Delta=-2.70D-05
 NORM(A)=   0.11339054D+01
 Iteration Nr.  12
 **********************
 DD1Dir will call FoFJK   3 times, MxPair=        98
 NAB=    99 NAA=    55 NBB=    36 NumPrc=  8.
 DD1Dir:  Pass   1 NRAB=    49 NRAA=     0 NRBB=     0 NR=    98.
 DD1Dir:  Pass   2 NRAB=    49 NRAA=     0 NRBB=     0 NR=    98.
 DD1Dir:  Pass   3 NRAB=     1 NRAA=    55 NRBB=    36 NR=    93.
 Norm of the A-vectors is  6.0243631D-03 conv= 1.00D-05.
 RLE energy=       -0.5261980695
 DE(Corr)= -0.52616360     E(CORR)=     -154.18271725     Delta=-9.64D-06
 NORM(A)=   0.11343426D+01
 Iteration Nr.  13
 **********************
 DD1Dir will call FoFJK   3 times, MxPair=        98
 NAB=    99 NAA=    55 NBB=    36 NumPrc=  8.
 DD1Dir:  Pass   1 NRAB=    49 NRAA=     0 NRBB=     0 NR=    98.
 DD1Dir:  Pass   2 NRAB=    49 NRAA=     0 NRBB=     0 NR=    98.
 DD1Dir:  Pass   3 NRAB=     1 NRAA=    55 NRBB=    36 NR=    93.
 Norm of the A-vectors is  5.7517923D-03 conv= 1.00D-05.
 RLE energy=       -0.5261860927
 DE(Corr)= -0.52618423     E(CORR)=     -154.18273788     Delta=-2.06D-05
 NORM(A)=   0.11346779D+01
 Iteration Nr.  14
 **********************
 DD1Dir will call FoFJK   3 times, MxPair=        98
 NAB=    99 NAA=    55 NBB=    36 NumPrc=  8.
 DD1Dir:  Pass   1 NRAB=    49 NRAA=     0 NRBB=     0 NR=    98.
 DD1Dir:  Pass   2 NRAB=    49 NRAA=     0 NRBB=     0 NR=    98.
 DD1Dir:  Pass   3 NRAB=     1 NRAA=    55 NRBB=    36 NR=    93.
 Norm of the A-vectors is  3.4639829D-03 conv= 1.00D-05.
 RLE energy=       -0.5261992328
 DE(Corr)= -0.52619370     E(CORR)=     -154.18274735     Delta=-9.47D-06
 NORM(A)=   0.11348120D+01
 Iteration Nr.  15
 **********************
 DD1Dir will call FoFJK   3 times, MxPair=        98
 NAB=    99 NAA=    55 NBB=    36 NumPrc=  8.
 DD1Dir:  Pass   1 NRAB=    49 NRAA=     0 NRBB=     0 NR=    98.
 DD1Dir:  Pass   2 NRAB=    49 NRAA=     0 NRBB=     0 NR=    98.
 DD1Dir:  Pass   3 NRAB=     1 NRAA=    55 NRBB=    36 NR=    93.
 Norm of the A-vectors is  2.4736432D-03 conv= 1.00D-05.
 RLE energy=       -0.5261942128
 DE(Corr)= -0.52619403     E(CORR)=     -154.18274768     Delta=-3.31D-07
 NORM(A)=   0.11348967D+01
 Iteration Nr.  16
 **********************
 DD1Dir will call FoFJK   3 times, MxPair=        98
 NAB=    99 NAA=    55 NBB=    36 NumPrc=  8.
 DD1Dir:  Pass   1 NRAB=    49 NRAA=     0 NRBB=     0 NR=    98.
 DD1Dir:  Pass   2 NRAB=    49 NRAA=     0 NRBB=     0 NR=    98.
 DD1Dir:  Pass   3 NRAB=     1 NRAA=    55 NRBB=    36 NR=    93.
 Norm of the A-vectors is  1.4152472D-03 conv= 1.00D-05.
 RLE energy=       -0.5262003735
 DE(Corr)= -0.52619813     E(CORR)=     -154.18275179     Delta=-4.10D-06
 NORM(A)=   0.11349285D+01
 Iteration Nr.  17
 **********************
 DD1Dir will call FoFJK   3 times, MxPair=        98
 NAB=    99 NAA=    55 NBB=    36 NumPrc=  8.
 DD1Dir:  Pass   1 NRAB=    49 NRAA=     0 NRBB=     0 NR=    98.
 DD1Dir:  Pass   2 NRAB=    49 NRAA=     0 NRBB=     0 NR=    98.
 DD1Dir:  Pass   3 NRAB=     1 NRAA=    55 NRBB=    36 NR=    93.
 Norm of the A-vectors is  1.1191810D-03 conv= 1.00D-05.
 RLE energy=       -0.5262017151
 DE(Corr)= -0.52619879     E(CORR)=     -154.18275244     Delta=-6.60D-07
 NORM(A)=   0.11349659D+01
 Iteration Nr.  18
 **********************
 DD1Dir will call FoFJK   3 times, MxPair=        98
 NAB=    99 NAA=    55 NBB=    36 NumPrc=  8.
 DD1Dir:  Pass   1 NRAB=    49 NRAA=     0 NRBB=     0 NR=    98.
 DD1Dir:  Pass   2 NRAB=    49 NRAA=     0 NRBB=     0 NR=    98.
 DD1Dir:  Pass   3 NRAB=     1 NRAA=    55 NRBB=    36 NR=    93.
 Norm of the A-vectors is  6.6320042D-04 conv= 1.00D-05.
 RLE energy=       -0.5262053437
 DE(Corr)= -0.52620274     E(CORR)=     -154.18275639     Delta=-3.95D-06
 NORM(A)=   0.11349832D+01
 Iteration Nr.  19
 **********************
 DD1Dir will call FoFJK   3 times, MxPair=        98
 NAB=    99 NAA=    55 NBB=    36 NumPrc=  8.
 DD1Dir:  Pass   1 NRAB=    49 NRAA=     0 NRBB=     0 NR=    98.
 DD1Dir:  Pass   2 NRAB=    49 NRAA=     0 NRBB=     0 NR=    98.
 DD1Dir:  Pass   3 NRAB=     1 NRAA=    55 NRBB=    36 NR=    93.
 Norm of the A-vectors is  4.9819550D-04 conv= 1.00D-05.
 RLE energy=       -0.5262072230
 DE(Corr)= -0.52620472     E(CORR)=     -154.18275837     Delta=-1.98D-06
 NORM(A)=   0.11350040D+01
 Iteration Nr.  20
 **********************
 DD1Dir will call FoFJK   3 times, MxPair=        98
 NAB=    99 NAA=    55 NBB=    36 NumPrc=  8.
 DD1Dir:  Pass   1 NRAB=    49 NRAA=     0 NRBB=     0 NR=    98.
 DD1Dir:  Pass   2 NRAB=    49 NRAA=     0 NRBB=     0 NR=    98.
 DD1Dir:  Pass   3 NRAB=     1 NRAA=    55 NRBB=    36 NR=    93.
 Norm of the A-vectors is  3.3847342D-04 conv= 1.00D-05.
 RLE energy=       -0.5262089473
 DE(Corr)= -0.52620684     E(CORR)=     -154.18276049     Delta=-2.12D-06
 NORM(A)=   0.11350228D+01
 Iteration Nr.  21
 **********************
 DD1Dir will call FoFJK   3 times, MxPair=        98
 NAB=    99 NAA=    55 NBB=    36 NumPrc=  8.
 DD1Dir:  Pass   1 NRAB=    49 NRAA=     0 NRBB=     0 NR=    98.
 DD1Dir:  Pass   2 NRAB=    49 NRAA=     0 NRBB=     0 NR=    98.
 DD1Dir:  Pass   3 NRAB=     1 NRAA=    55 NRBB=    36 NR=    93.
 Norm of the A-vectors is  3.0223858D-04 conv= 1.00D-05.
 RLE energy=       -0.5262100567
 DE(Corr)= -0.52620849     E(CORR)=     -154.18276214     Delta=-1.64D-06
 NORM(A)=   0.11350410D+01
 Iteration Nr.  22
 **********************
 DD1Dir will call FoFJK   3 times, MxPair=        98
 NAB=    99 NAA=    55 NBB=    36 NumPrc=  8.
 DD1Dir:  Pass   1 NRAB=    49 NRAA=     0 NRBB=     0 NR=    98.
 DD1Dir:  Pass   2 NRAB=    49 NRAA=     0 NRBB=     0 NR=    98.
 DD1Dir:  Pass   3 NRAB=     1 NRAA=    55 NRBB=    36 NR=    93.
 Norm of the A-vectors is  2.5642566D-04 conv= 1.00D-05.
 RLE energy=       -0.5262100801
 DE(Corr)= -0.52620939     E(CORR)=     -154.18276304     Delta=-9.01D-07
 NORM(A)=   0.11350630D+01
 Iteration Nr.  23
 **********************
 DD1Dir will call FoFJK   3 times, MxPair=        98
 NAB=    99 NAA=    55 NBB=    36 NumPrc=  8.
 DD1Dir:  Pass   1 NRAB=    49 NRAA=     0 NRBB=     0 NR=    98.
 DD1Dir:  Pass   2 NRAB=    49 NRAA=     0 NRBB=     0 NR=    98.
 DD1Dir:  Pass   3 NRAB=     1 NRAA=    55 NRBB=    36 NR=    93.
 Norm of the A-vectors is  2.9019868D-04 conv= 1.00D-05.
 RLE energy=       -0.5262107242
 DE(Corr)= -0.52621019     E(CORR)=     -154.18276384     Delta=-7.99D-07
 NORM(A)=   0.11350808D+01
 Iteration Nr.  24
 **********************
 DD1Dir will call FoFJK   3 times, MxPair=        98
 NAB=    99 NAA=    55 NBB=    36 NumPrc=  8.
 DD1Dir:  Pass   1 NRAB=    49 NRAA=     0 NRBB=     0 NR=    98.
 DD1Dir:  Pass   2 NRAB=    49 NRAA=     0 NRBB=     0 NR=    98.
 DD1Dir:  Pass   3 NRAB=     1 NRAA=    55 NRBB=    36 NR=    93.
 Norm of the A-vectors is  2.5418784D-04 conv= 1.00D-05.
 RLE energy=       -0.5262102675
 DE(Corr)= -0.52621033     E(CORR)=     -154.18276398     Delta=-1.44D-07
 NORM(A)=   0.11350982D+01
 Iteration Nr.  25
 **********************
 DD1Dir will call FoFJK   3 times, MxPair=        98
 NAB=    99 NAA=    55 NBB=    36 NumPrc=  8.
 DD1Dir:  Pass   1 NRAB=    49 NRAA=     0 NRBB=     0 NR=    98.
 DD1Dir:  Pass   2 NRAB=    49 NRAA=     0 NRBB=     0 NR=    98.
 DD1Dir:  Pass   3 NRAB=     1 NRAA=    55 NRBB=    36 NR=    93.
 Norm of the A-vectors is  2.1906107D-04 conv= 1.00D-05.
 RLE energy=       -0.5262106575
 DE(Corr)= -0.52621063     E(CORR)=     -154.18276428     Delta=-3.01D-07
 NORM(A)=   0.11351091D+01
 Iteration Nr.  26
 **********************
 DD1Dir will call FoFJK   3 times, MxPair=        98
 NAB=    99 NAA=    55 NBB=    36 NumPrc=  8.
 DD1Dir:  Pass   1 NRAB=    49 NRAA=     0 NRBB=     0 NR=    98.
 DD1Dir:  Pass   2 NRAB=    49 NRAA=     0 NRBB=     0 NR=    98.
 DD1Dir:  Pass   3 NRAB=     1 NRAA=    55 NRBB=    36 NR=    93.
 Norm of the A-vectors is  1.6232684D-04 conv= 1.00D-05.
 RLE energy=       -0.5262106803
 DE(Corr)= -0.52621063     E(CORR)=     -154.18276428     Delta= 5.55D-09
 NORM(A)=   0.11351143D+01
 Iteration Nr.  27
 **********************
 DD1Dir will call FoFJK   3 times, MxPair=        98
 NAB=    99 NAA=    55 NBB=    36 NumPrc=  8.
 DD1Dir:  Pass   1 NRAB=    49 NRAA=     0 NRBB=     0 NR=    98.
 DD1Dir:  Pass   2 NRAB=    49 NRAA=     0 NRBB=     0 NR=    98.
 DD1Dir:  Pass   3 NRAB=     1 NRAA=    55 NRBB=    36 NR=    93.
 Norm of the A-vectors is  1.1243226D-04 conv= 1.00D-05.
 RLE energy=       -0.5262108372
 DE(Corr)= -0.52621076     E(CORR)=     -154.18276441     Delta=-1.31D-07
 NORM(A)=   0.11351178D+01
 Iteration Nr.  28
 **********************
 DD1Dir will call FoFJK   3 times, MxPair=        98
 NAB=    99 NAA=    55 NBB=    36 NumPrc=  8.
 DD1Dir:  Pass   1 NRAB=    49 NRAA=     0 NRBB=     0 NR=    98.
 DD1Dir:  Pass   2 NRAB=    49 NRAA=     0 NRBB=     0 NR=    98.
 DD1Dir:  Pass   3 NRAB=     1 NRAA=    55 NRBB=    36 NR=    93.
 Norm of the A-vectors is  8.1397201D-05 conv= 1.00D-05.
 RLE energy=       -0.5262110540
 DE(Corr)= -0.52621089     E(CORR)=     -154.18276454     Delta=-1.32D-07
 NORM(A)=   0.11351195D+01
 Iteration Nr.  29
 **********************
 DD1Dir will call FoFJK   3 times, MxPair=        98
 NAB=    99 NAA=    55 NBB=    36 NumPrc=  8.
 DD1Dir:  Pass   1 NRAB=    49 NRAA=     0 NRBB=     0 NR=    98.
 DD1Dir:  Pass   2 NRAB=    49 NRAA=     0 NRBB=     0 NR=    98.
 DD1Dir:  Pass   3 NRAB=     1 NRAA=    55 NRBB=    36 NR=    93.
 Norm of the A-vectors is  5.9654811D-05 conv= 1.00D-05.
 RLE energy=       -0.5262111261
 DE(Corr)= -0.52621101     E(CORR)=     -154.18276466     Delta=-1.19D-07
 NORM(A)=   0.11351211D+01
 Iteration Nr.  30
 **********************
 DD1Dir will call FoFJK   3 times, MxPair=        98
 NAB=    99 NAA=    55 NBB=    36 NumPrc=  8.
 DD1Dir:  Pass   1 NRAB=    49 NRAA=     0 NRBB=     0 NR=    98.
 DD1Dir:  Pass   2 NRAB=    49 NRAA=     0 NRBB=     0 NR=    98.
 DD1Dir:  Pass   3 NRAB=     1 NRAA=    55 NRBB=    36 NR=    93.
 Norm of the A-vectors is  4.4396421D-05 conv= 1.00D-05.
 RLE energy=       -0.5262113042
 DE(Corr)= -0.52621118     E(CORR)=     -154.18276483     Delta=-1.71D-07
 NORM(A)=   0.11351222D+01
 Iteration Nr.  31
 **********************
 DD1Dir will call FoFJK   3 times, MxPair=        98
 NAB=    99 NAA=    55 NBB=    36 NumPrc=  8.
 DD1Dir:  Pass   1 NRAB=    49 NRAA=     0 NRBB=     0 NR=    98.
 DD1Dir:  Pass   2 NRAB=    49 NRAA=     0 NRBB=     0 NR=    98.
 DD1Dir:  Pass   3 NRAB=     1 NRAA=    55 NRBB=    36 NR=    93.
 Norm of the A-vectors is  3.0738522D-05 conv= 1.00D-05.
 RLE energy=       -0.5262113760
 DE(Corr)= -0.52621127     E(CORR)=     -154.18276492     Delta=-9.43D-08
 NORM(A)=   0.11351236D+01
 Iteration Nr.  32
 **********************
 DD1Dir will call FoFJK   3 times, MxPair=        98
 NAB=    99 NAA=    55 NBB=    36 NumPrc=  8.
 DD1Dir:  Pass   1 NRAB=    49 NRAA=     0 NRBB=     0 NR=    98.
 DD1Dir:  Pass   2 NRAB=    49 NRAA=     0 NRBB=     0 NR=    98.
 DD1Dir:  Pass   3 NRAB=     1 NRAA=    55 NRBB=    36 NR=    93.
 Norm of the A-vectors is  2.2617279D-05 conv= 1.00D-05.
 RLE energy=       -0.5262114834
 DE(Corr)= -0.52621139     E(CORR)=     -154.18276504     Delta=-1.21D-07
 NORM(A)=   0.11351247D+01
 Iteration Nr.  33
 **********************
 DD1Dir will call FoFJK   3 times, MxPair=        98
 NAB=    99 NAA=    55 NBB=    36 NumPrc=  8.
 DD1Dir:  Pass   1 NRAB=    49 NRAA=     0 NRBB=     0 NR=    98.
 DD1Dir:  Pass   2 NRAB=    49 NRAA=     0 NRBB=     0 NR=    98.
 DD1Dir:  Pass   3 NRAB=     1 NRAA=    55 NRBB=    36 NR=    93.
 Norm of the A-vectors is  1.6725299D-05 conv= 1.00D-05.
 RLE energy=       -0.5262115226
 DE(Corr)= -0.52621147     E(CORR)=     -154.18276512     Delta=-7.91D-08
 NORM(A)=   0.11351253D+01
 Iteration Nr.  34
 **********************
 DD1Dir will call FoFJK   3 times, MxPair=        98
 NAB=    99 NAA=    55 NBB=    36 NumPrc=  8.
 DD1Dir:  Pass   1 NRAB=    49 NRAA=     0 NRBB=     0 NR=    98.
 DD1Dir:  Pass   2 NRAB=    49 NRAA=     0 NRBB=     0 NR=    98.
 DD1Dir:  Pass   3 NRAB=     1 NRAA=    55 NRBB=    36 NR=    93.
 Norm of the A-vectors is  1.2498047D-05 conv= 1.00D-05.
 RLE energy=       -0.5262115517
 DE(Corr)= -0.52621151     E(CORR)=     -154.18276516     Delta=-3.88D-08
 NORM(A)=   0.11351262D+01
 Iteration Nr.  35
 **********************
 DD1Dir will call FoFJK   3 times, MxPair=        98
 NAB=    99 NAA=    55 NBB=    36 NumPrc=  8.
 DD1Dir:  Pass   1 NRAB=    49 NRAA=     0 NRBB=     0 NR=    98.
 DD1Dir:  Pass   2 NRAB=    49 NRAA=     0 NRBB=     0 NR=    98.
 DD1Dir:  Pass   3 NRAB=     1 NRAA=    55 NRBB=    36 NR=    93.
 Norm of the A-vectors is  1.6037396D-05 conv= 1.00D-05.
 RLE energy=       -0.5262116030
 DE(Corr)= -0.52621155     E(CORR)=     -154.18276520     Delta=-4.05D-08
 NORM(A)=   0.11351274D+01
 Iteration Nr.  36
 **********************
 DD1Dir will call FoFJK   3 times, MxPair=        98
 NAB=    99 NAA=    55 NBB=    36 NumPrc=  8.
 DD1Dir:  Pass   1 NRAB=    49 NRAA=     0 NRBB=     0 NR=    98.
 DD1Dir:  Pass   2 NRAB=    49 NRAA=     0 NRBB=     0 NR=    98.
 DD1Dir:  Pass   3 NRAB=     1 NRAA=    55 NRBB=    36 NR=    93.
 Norm of the A-vectors is  1.8965005D-05 conv= 1.00D-05.
 RLE energy=       -0.5262115718
 DE(Corr)= -0.52621157     E(CORR)=     -154.18276522     Delta=-1.67D-08
 NORM(A)=   0.11351283D+01
 Iteration Nr.  37
 **********************
 DD1Dir will call FoFJK   3 times, MxPair=        98
 NAB=    99 NAA=    55 NBB=    36 NumPrc=  8.
 DD1Dir:  Pass   1 NRAB=    49 NRAA=     0 NRBB=     0 NR=    98.
 DD1Dir:  Pass   2 NRAB=    49 NRAA=     0 NRBB=     0 NR=    98.
 DD1Dir:  Pass   3 NRAB=     1 NRAA=    55 NRBB=    36 NR=    93.
 Norm of the A-vectors is  1.6408230D-05 conv= 1.00D-05.
 RLE energy=       -0.5262115707
 DE(Corr)= -0.52621158     E(CORR)=     -154.18276523     Delta=-9.64D-09
 NORM(A)=   0.11351291D+01
 Iteration Nr.  38
 **********************
 DD1Dir will call FoFJK   3 times, MxPair=        98
 NAB=    99 NAA=    55 NBB=    36 NumPrc=  8.
 DD1Dir:  Pass   1 NRAB=    49 NRAA=     0 NRBB=     0 NR=    98.
 DD1Dir:  Pass   2 NRAB=    49 NRAA=     0 NRBB=     0 NR=    98.
 DD1Dir:  Pass   3 NRAB=     1 NRAA=    55 NRBB=    36 NR=    93.
 Norm of the A-vectors is  1.4339969D-05 conv= 1.00D-05.
 RLE energy=       -0.5262115500
 DE(Corr)= -0.52621156     E(CORR)=     -154.18276521     Delta= 2.12D-08
 NORM(A)=   0.11351295D+01
 Iteration Nr.  39
 **********************
 DD1Dir will call FoFJK   3 times, MxPair=        98
 NAB=    99 NAA=    55 NBB=    36 NumPrc=  8.
 DD1Dir:  Pass   1 NRAB=    49 NRAA=     0 NRBB=     0 NR=    98.
 DD1Dir:  Pass   2 NRAB=    49 NRAA=     0 NRBB=     0 NR=    98.
 DD1Dir:  Pass   3 NRAB=     1 NRAA=    55 NRBB=    36 NR=    93.
 Norm of the A-vectors is  1.0905349D-05 conv= 1.00D-05.
 RLE energy=       -0.5262115544
 DE(Corr)= -0.52621155     E(CORR)=     -154.18276520     Delta= 3.87D-09
 NORM(A)=   0.11351300D+01
 Iteration Nr.  40
 **********************
 DD1Dir will call FoFJK   3 times, MxPair=        98
 NAB=    99 NAA=    55 NBB=    36 NumPrc=  8.
 DD1Dir:  Pass   1 NRAB=    49 NRAA=     0 NRBB=     0 NR=    98.
 DD1Dir:  Pass   2 NRAB=    49 NRAA=     0 NRBB=     0 NR=    98.
 DD1Dir:  Pass   3 NRAB=     1 NRAA=    55 NRBB=    36 NR=    93.
 Norm of the A-vectors is  9.6838395D-06 conv= 1.00D-05.
 RLE energy=       -0.5262115827
 DE(Corr)= -0.52621156     E(CORR)=     -154.18276521     Delta=-8.58D-09
 NORM(A)=   0.11351304D+01
 CI/CC converged in   40 iterations to DelEn=-8.58D-09 Conv= 1.00D-07 ErrA1= 9.68D-06 Conv= 1.00D-05
 Largest amplitude= 8.25D-02
 Time for triples=      366.88 seconds.
 T4(CCSD)= -0.22934549D-01
 T5(CCSD)=  0.12440598D-02
 CCSD(T)= -0.15420445570D+03

 S**2, projected HF & approx projected MPn energies after annihilation of
 unwanted spin states (see manual for definitions):

 spins       (S**2,0) (S**2,1)    PUHF        PMP2        PMP3        PMP4
 annihilated
 s+1         1.98433  1.99332 -153.669522 -154.134900 -154.174930
 s+1,s+2     2.00013  1.99997 -153.668772 -154.134198 -154.174290
 s+1 to s+3  2.00000  2.00000 -153.668781 -154.134205 -154.174295
 s+1 to s+4  2.00000  2.00000 -153.668781 -154.134205 -154.174295
 s+1 to s+5  2.00000  2.00000 -153.668781
 s+1 to s+6  2.00000  2.00000 -153.668781

 Discarding MO integrals.
 Leave Link  913 at Tue Oct 10 12:20:52 2017, MaxMem=    33554432 cpu:      4677.1
 (Enter /usr/local/gaussian/2009-E.01/g09/l601.exe)
 Copying SCF densities to generalized density rwf, IOpCl= 1 IROHF=0.

 **********************************************************************

            Population analysis using the SCF density.

 **********************************************************************

 Orbital symmetries:
 Alpha Orbitals:
       Occupied  (A) (A) (A) (A) (A) (A) (A) (A) (A) (A) (A) (A)
                 (A) (A) (A)
       Virtual   (A) (A) (A) (A) (A) (A) (A) (A) (A) (A) (A) (A)
                 (A) (A) (A) (A) (A) (A) (A) (A) (A) (A) (A) (A)
                 (A) (A) (A) (A) (A) (A) (A) (A) (A) (A) (A) (A)
                 (A) (A) (A) (A) (A) (A) (A) (A) (A) (A) (A) (A)
                 (A) (A) (A) (A) (A) (A) (A) (A) (A) (A) (A) (A)
                 (A) (A) (A) (A) (A) (A) (A) (A) (A) (A) (A) (A)
                 (A) (A) (A) (A) (A) (A) (A) (A) (A) (A) (A) (A)
                 (A) (A) (A) (A) (A) (A) (A) (A) (A) (A) (A) (A)
                 (A) (A) (A) (A) (A)
 Beta  Orbitals:
       Occupied  (A) (A) (A) (A) (A) (A) (A) (A) (A) (A) (A) (A)
                 (A)
       Virtual   (A) (A) (A) (A) (A) (A) (A) (A) (A) (A) (A) (A)
                 (A) (A) (A) (A) (A) (A) (A) (A) (A) (A) (A) (A)
                 (A) (A) (A) (A) (A) (A) (A) (A) (A) (A) (A) (A)
                 (A) (A) (A) (A) (A) (A) (A) (A) (A) (A) (A) (A)
                 (A) (A) (A) (A) (A) (A) (A) (A) (A) (A) (A) (A)
                 (A) (A) (A) (A) (A) (A) (A) (A) (A) (A) (A) (A)
                 (A) (A) (A) (A) (A) (A) (A) (A) (A) (A) (A) (A)
                 (A) (A) (A) (A) (A) (A) (A) (A) (A) (A) (A) (A)
                 (A) (A) (A) (A) (A) (A) (A)
 The electronic state is 3-A.
 Alpha  occ. eigenvalues --  -11.27716 -11.27417 -11.26869 -11.26417  -1.12940
 Alpha  occ. eigenvalues --   -1.02844  -0.83827  -0.76157  -0.64945  -0.63097
 Alpha  occ. eigenvalues --   -0.54958  -0.49775  -0.45649  -0.38559  -0.36194
 Alpha virt. eigenvalues --    0.03584   0.05098   0.06224   0.07474   0.07948
 Alpha virt. eigenvalues --    0.11095   0.11674   0.12205   0.14142   0.15003
 Alpha virt. eigenvalues --    0.15387   0.16840   0.17706   0.19444   0.19820
 Alpha virt. eigenvalues --    0.20357   0.20717   0.22306   0.22804   0.25602
 Alpha virt. eigenvalues --    0.25839   0.27829   0.31001   0.32318   0.36302
 Alpha virt. eigenvalues --    0.41014   0.49602   0.50296   0.51922   0.60597
 Alpha virt. eigenvalues --    0.63025   0.67534   0.68561   0.72418   0.72921
 Alpha virt. eigenvalues --    0.74363   0.75898   0.78349   0.80719   0.84543
 Alpha virt. eigenvalues --    0.86268   0.91913   0.92816   0.94817   0.96668
 Alpha virt. eigenvalues --    1.01901   1.03791   1.06097   1.13644   1.20651
 Alpha virt. eigenvalues --    1.25177   1.31601   1.34909   1.55311   1.56858
 Alpha virt. eigenvalues --    1.65014   1.67046   1.70524   1.75793   1.80441
 Alpha virt. eigenvalues --    1.81972   1.90631   1.91449   1.93114   2.01990
 Alpha virt. eigenvalues --    2.02488   2.11775   2.16016   2.20746   2.26481
 Alpha virt. eigenvalues --    2.40437   2.43816   2.47351   2.47873   2.52837
 Alpha virt. eigenvalues --    2.57958   2.62250   2.80457   2.85281   2.86835
 Alpha virt. eigenvalues --    2.95155   3.02768   3.04889   3.06338   3.10366
 Alpha virt. eigenvalues --    3.11943   3.24546   3.29865   3.34181   3.49347
 Alpha virt. eigenvalues --    3.52190   3.70711   3.85701   4.07548   4.13847
 Alpha virt. eigenvalues --    4.38706   4.69834  24.67308  24.95683  25.11748
 Alpha virt. eigenvalues --   25.27983
  Beta  occ. eigenvalues --  -11.27455 -11.26613 -11.25741 -11.24317  -1.10451
  Beta  occ. eigenvalues --   -0.94652  -0.80036  -0.72584  -0.62646  -0.60580
  Beta  occ. eigenvalues --   -0.54036  -0.44011  -0.39770
  Beta virt. eigenvalues --    0.00678   0.03663   0.05155   0.06294   0.07641
  Beta virt. eigenvalues --    0.08744   0.11432   0.12457   0.12959   0.14278
  Beta virt. eigenvalues --    0.15453   0.16244   0.16931   0.17771   0.19474
  Beta virt. eigenvalues --    0.20270   0.20521   0.21813   0.22140   0.22842
  Beta virt. eigenvalues --    0.24704   0.26231   0.28230   0.29971   0.31657
  Beta virt. eigenvalues --    0.32977   0.37772   0.41677   0.50665   0.52254
  Beta virt. eigenvalues --    0.52718   0.62307   0.65115   0.70812   0.71090
  Beta virt. eigenvalues --    0.73795   0.76476   0.78135   0.79235   0.83126
  Beta virt. eigenvalues --    0.83856   0.85741   0.88560   0.92499   0.94273
  Beta virt. eigenvalues --    0.95997   0.98172   1.03474   1.05491   1.07728
  Beta virt. eigenvalues --    1.15536   1.23478   1.27546   1.33760   1.38786
  Beta virt. eigenvalues --    1.61147   1.65976   1.68197   1.69170   1.71426
  Beta virt. eigenvalues --    1.78420   1.81869   1.84613   1.90678   1.92491
  Beta virt. eigenvalues --    1.96235   2.02454   2.05055   2.14472   2.17922
  Beta virt. eigenvalues --    2.22930   2.28065   2.41656   2.45194   2.48389
  Beta virt. eigenvalues --    2.48925   2.53792   2.58237   2.63025   2.81406
  Beta virt. eigenvalues --    2.85621   2.87563   2.95683   3.03337   3.06528
  Beta virt. eigenvalues --    3.07033   3.14009   3.15316   3.27561   3.30852
  Beta virt. eigenvalues --    3.38459   3.50978   3.52832   3.71284   3.86117
  Beta virt. eigenvalues --    4.08937   4.15353   4.38988   4.70480  24.68626
  Beta virt. eigenvalues --   24.96309  25.12599  25.28165
          Condensed to atoms (all electrons):
               1          2          3          4          5          6
     1  C    5.746328   0.383585   0.379259  -0.240934  -0.058406  -0.038574
     2  H    0.383585   0.478135  -0.012052  -0.014067  -0.001415   0.002937
     3  H    0.379259  -0.012052   0.498296  -0.003709  -0.001084   0.011264
     4  C   -0.240934  -0.014067  -0.003709   5.786338   0.423004   0.210637
     5  H   -0.058406  -0.001415  -0.001084   0.423004   0.455795   0.006689
     6  C   -0.038574   0.002937   0.011264   0.210637   0.006689   6.116829
     7  C    0.269728   0.002351  -0.016388  -0.160551  -0.027163  -0.050014
     8  H    0.051582  -0.002112  -0.002059  -0.194000  -0.000542  -0.053338
               7          8
     1  C    0.269728   0.051582
     2  H    0.002351  -0.002112
     3  H   -0.016388  -0.002059
     4  C   -0.160551  -0.194000
     5  H   -0.027163  -0.000542
     6  C   -0.050014  -0.053338
     7  C    5.661330   0.486875
     8  H    0.486875   0.553943
          Atomic-Atomic Spin Densities.
               1          2          3          4          5          6
     1  C    1.280404  -0.022719   0.011594  -0.349119  -0.005470   0.046669
     2  H   -0.022719  -0.070138   0.003385   0.019432   0.000021  -0.002119
     3  H    0.011594   0.003385  -0.069331  -0.007119  -0.001051   0.005412
     4  C   -0.349119   0.019432  -0.007119  -0.026790   0.000059   0.142459
     5  H   -0.005470   0.000021  -0.001051   0.000059   0.046477  -0.006183
     6  C    0.046669  -0.002119   0.005412   0.142459  -0.006183   1.562157
     7  C    0.012168  -0.003271  -0.011893  -0.325946   0.010296  -0.391493
     8  H    0.035830  -0.000762  -0.004540  -0.119213   0.001833  -0.084126
               7          8
     1  C    0.012168   0.035830
     2  H   -0.003271  -0.000762
     3  H   -0.011893  -0.004540
     4  C   -0.325946  -0.119213
     5  H    0.010296   0.001833
     6  C   -0.391493  -0.084126
     7  C    1.131225   0.086313
     8  H    0.086313   0.065103
 Mulliken charges and spin densities:
               1          2
     1  C   -0.492567   1.009356
     2  H    0.162639  -0.076172
     3  H    0.146474  -0.073543
     4  C    0.193281  -0.666237
     5  H    0.203123   0.045983
     6  C   -0.206431   1.272776
     7  C   -0.166168   0.507399
     8  H    0.159650  -0.019562
 Sum of Mulliken charges =  -0.00000   2.00000
 Mulliken charges and spin densities with hydrogens summed into heavy atoms:
               1          2
     1  C   -0.183455   0.859642
     4  C    0.396404  -0.620254
     6  C   -0.206431   1.272776
     7  C   -0.006518   0.487837
 Electronic spatial extent (au):  <R**2>=            294.0974
 Charge=             -0.0000 electrons
 Dipole moment (field-independent basis, Debye):
    X=              3.8538    Y=              0.8602    Z=             -0.3372  Tot=              3.9630
 Quadrupole moment (field-independent basis, Debye-Ang):
   XX=            -31.9202   YY=            -23.1505   ZZ=            -26.4103
   XY=             -2.0350   XZ=              1.0538   YZ=              0.2507
 Traceless Quadrupole moment (field-independent basis, Debye-Ang):
   XX=             -4.7598   YY=              4.0098   ZZ=              0.7500
   XY=             -2.0350   XZ=              1.0538   YZ=              0.2507
 Octapole moment (field-independent basis, Debye-Ang**2):
  XXX=             44.4371  YYY=              2.6769  ZZZ=             -0.4895  XYY=              6.6166
  XXY=              4.1606  XXZ=             -2.7519  XZZ=              0.7592  YZZ=              0.3756
  YYZ=             -0.2869  XYZ=             -0.2967
 Hexadecapole moment (field-independent basis, Debye-Ang**3):
 XXXX=           -417.9091 YYYY=            -58.9443 ZZZZ=            -31.7007 XXXY=            -15.9711
 XXXZ=              8.4839 YYYX=             -4.5057 YYYZ=              0.4917 ZZZX=              1.4581
 ZZZY=              0.2739 XXYY=            -71.8536 XXZZ=            -66.2676 YYZZ=            -17.1149
 XXYZ=              1.2173 YYXZ=              0.8322 ZZXY=             -0.7983
 N-N= 8.898382830636D+01 E-N=-5.352609863184D+02  KE= 1.535827802411D+02
 Leave Link  601 at Tue Oct 10 12:20:52 2017, MaxMem=    33554432 cpu:         0.2
 (Enter /usr/local/gaussian/2009-E.01/g09/l9999.exe)
 1\1\ WCSS.PL-BEM-WN1424\SP\UCCSD(T)-FC\6-311++G(d,p)\C4H4(3)\ROOT\10-O
 ct-2017\0\\#p ccsd(t,maxcyc=200)/6-311++G(d,p)\\ccsd(t) iener\\0,3\C,0
 ,-1.686982,-0.107642,0.021521\H,0,-2.565311,0.526701,0.007851\H,0,-1.8
 4672,-1.179962,0.062282\C,0,-0.422274,0.415076,-0.017778\H,0,-0.286479
 ,1.492829,-0.039182\C,0,2.049036,0.179697,0.034599\C,0,0.748572,-0.380
 78,-0.043283\H,0,0.60475,-1.469616,-0.022132\\Version=ES64L-G09RevE.01
 \State=3-A\HF=-153.6565537\MP2=-154.1234768\MP3=-154.1658767\MP4D=-154
 .1792368\MP4DQ=-154.168638\PUHF=-153.6695216\PMP2-0=-154.1349003\PMP3-
 0=-154.1749304\MP4SDQ=-154.1751065\CCSD=-154.1827652\CCSD(T)=-154.2044
 557\S2=2.272331\S2-1=2.203729\S2A=2.02374\RMSD=8.903e-09\PG=C01 [X(C4H
 4)]\\@


 MY DESCRIPTION OF EXPERIENCE IS NOT WHAT HAPPENS
 TO A MAN.  EXPERIENCE IS WHAT A MAN DOES WITH WHAT
 HAPPENS TO HIM.
                         - CHUCK KNOX, SEATTLE SEAHAWKS, 1985
 Job cpu time:       0 days  1 hours 20 minutes 22.0 seconds.
 File lengths (MBytes):  RWF=    697 Int=      0 D2E=      0 Chk=      2 Scr=      1
 Normal termination of Gaussian 09 at Tue Oct 10 12:20:53 2017.
