 Entering Gaussian System, Link 0=/usr/local/gaussian/2009-E.01/g09/g09
 Initial command:
 /usr/local/gaussian/2009-E.01/g09/l1.exe "/lustre/scratch/eerd/4986703.achilles/Gau-89899.inp" -scrdir="/lustre/scratch/eerd/4986703.achilles/"
 Entering Link 1 = /usr/local/gaussian/2009-E.01/g09/l1.exe PID=     89901.
  
 Copyright (c) 1988,1990,1992,1993,1995,1998,2003,2009,2015,
            Gaussian, Inc.  All Rights Reserved.
  
 This is part of the Gaussian(R) 09 program.  It is based on
 the Gaussian(R) 03 system (copyright 2003, Gaussian, Inc.),
 the Gaussian(R) 98 system (copyright 1998, Gaussian, Inc.),
 the Gaussian(R) 94 system (copyright 1995, Gaussian, Inc.),
 the Gaussian 92(TM) system (copyright 1992, Gaussian, Inc.),
 the Gaussian 90(TM) system (copyright 1990, Gaussian, Inc.),
 the Gaussian 88(TM) system (copyright 1988, Gaussian, Inc.),
 the Gaussian 86(TM) system (copyright 1986, Carnegie Mellon
 University), and the Gaussian 82(TM) system (copyright 1983,
 Carnegie Mellon University). Gaussian is a federally registered
 trademark of Gaussian, Inc.
  
 This software contains proprietary and confidential information,
 including trade secrets, belonging to Gaussian, Inc.
  
 This software is provided under written license and may be
 used, copied, transmitted, or stored only in accord with that
 written license.
  
 The following legend is applicable only to US Government
 contracts under FAR:
  
                    RESTRICTED RIGHTS LEGEND
  
 Use, reproduction and disclosure by the US Government is
 subject to restrictions as set forth in subparagraphs (a)
 and (c) of the Commercial Computer Software - Restricted
 Rights clause in FAR 52.227-19.
  
 Gaussian, Inc.
 340 Quinnipiac St., Bldg. 40, Wallingford CT 06492
  
  
 ---------------------------------------------------------------
 Warning -- This program may not be used in any manner that
 competes with the business of Gaussian, Inc. or will provide
 assistance to any competitor of Gaussian, Inc.  The licensee
 of this program is prohibited from giving any competitor of
 Gaussian, Inc. access to this program.  By using this program,
 the user acknowledges that Gaussian, Inc. is engaged in the
 business of creating and licensing software in the field of
 computational chemistry and represents and warrants to the
 licensee that it is not a competitor of Gaussian, Inc. and that
 it will not use this program in any manner prohibited above.
 ---------------------------------------------------------------
  

 Cite this work as:
 Gaussian 09, Revision E.01,
 M. J. Frisch, G. W. Trucks, H. B. Schlegel, G. E. Scuseria, 
 M. A. Robb, J. R. Cheeseman, G. Scalmani, V. Barone, B. Mennucci, 
 G. A. Petersson, H. Nakatsuji, M. Caricato, X. Li, H. P. Hratchian, 
 A. F. Izmaylov, J. Bloino, G. Zheng, J. L. Sonnenberg, M. Hada, 
 M. Ehara, K. Toyota, R. Fukuda, J. Hasegawa, M. Ishida, T. Nakajima, 
 Y. Honda, O. Kitao, H. Nakai, T. Vreven, J. A. Montgomery, Jr., 
 J. E. Peralta, F. Ogliaro, M. Bearpark, J. J. Heyd, E. Brothers, 
 K. N. Kudin, V. N. Staroverov, T. Keith, R. Kobayashi, J. Normand, 
 K. Raghavachari, A. Rendell, J. C. Burant, S. S. Iyengar, J. Tomasi, 
 M. Cossi, N. Rega, J. M. Millam, M. Klene, J. E. Knox, J. B. Cross, 
 V. Bakken, C. Adamo, J. Jaramillo, R. Gomperts, R. E. Stratmann, 
 O. Yazyev, A. J. Austin, R. Cammi, C. Pomelli, J. W. Ochterski, 
 R. L. Martin, K. Morokuma, V. G. Zakrzewski, G. A. Voth, 
 P. Salvador, J. J. Dannenberg, S. Dapprich, A. D. Daniels, 
 O. Farkas, J. B. Foresman, J. V. Ortiz, J. Cioslowski, 
 and D. J. Fox, Gaussian, Inc., Wallingford CT, 2013.
 
 ******************************************
 Gaussian 09:  ES64L-G09RevE.01 30-Nov-2015
                10-Oct-2017 
 ******************************************
 %NProcShared=8
 Will use up to    8 processors via shared memory.
 -----------------------------------
 #p ccsd(t,maxcyc=200)/6-311++G(d,p)
 -----------------------------------
 1/38=1/1;
 2/12=2,17=6,18=5,40=1/2;
 3/5=4,6=6,7=1111,11=9,16=1,25=1,30=1/1,2,3;
 4//1;
 5/5=2,38=5/2;
 8/6=4,9=120000,10=2/1,4;
 9/5=7,6=200,14=2/13;
 6/7=2,8=2,9=2,10=2/1;
 99/5=1,9=1/99;
 Leave Link    1 at Tue Oct 10 14:13:59 2017, MaxMem=           0 cpu:         1.4
 (Enter /usr/local/gaussian/2009-E.01/g09/l101.exe)
 -------------
 ccsd(t) iener
 -------------
 Symbolic Z-matrix:
 Charge =  1 Multiplicity = 2
 C                     1.85939   0.       -0.00803 
 H                     2.28091   0.90865  -0.45714 
 H                     2.28093  -0.91043  -0.4535 
 H                     2.15581   0.00214   1.06057 
 C                     0.44786  -0.00003  -0.01704 
 C                    -0.82674  -0.00001  -0.00231 
 C                    -2.0784   -0.00001   0.00382 
 H                    -3.15159  -0.00001   0.00885 
 
 NAtoms=      8 NQM=        8 NQMF=       0 NMMI=      0 NMMIF=      0
                NMic=       0 NMicF=      0.
                    Isotopes and Nuclear Properties:
 (Nuclear quadrupole moments (NQMom) in fm**2, nuclear magnetic moments (NMagM)
  in nuclear magnetons)

  Atom         1           2           3           4           5           6           7           8
 IAtWgt=          12           1           1           1          12          12          12           1
 AtmWgt=  12.0000000   1.0078250   1.0078250   1.0078250  12.0000000  12.0000000  12.0000000   1.0078250
 NucSpn=           0           1           1           1           0           0           0           1
 AtZEff=   0.0000000   0.0000000   0.0000000   0.0000000   0.0000000   0.0000000   0.0000000   0.0000000
 NQMom=    0.0000000   0.0000000   0.0000000   0.0000000   0.0000000   0.0000000   0.0000000   0.0000000
 NMagM=    0.0000000   2.7928460   2.7928460   2.7928460   0.0000000   0.0000000   0.0000000   2.7928460
 AtZNuc=   6.0000000   1.0000000   1.0000000   1.0000000   6.0000000   6.0000000   6.0000000   1.0000000
 Leave Link  101 at Tue Oct 10 14:13:59 2017, MaxMem=    33554432 cpu:         0.4
 (Enter /usr/local/gaussian/2009-E.01/g09/l202.exe)
                          Input orientation:                          
 ---------------------------------------------------------------------
 Center     Atomic      Atomic             Coordinates (Angstroms)
 Number     Number       Type             X           Y           Z
 ---------------------------------------------------------------------
      1          6           0        1.859386    0.000002   -0.008026
      2          1           0        2.280908    0.908652   -0.457139
      3          1           0        2.280925   -0.910433   -0.453496
      4          1           0        2.155808    0.002145    1.060574
      5          6           0        0.447859   -0.000030   -0.017044
      6          6           0       -0.826743   -0.000012   -0.002307
      7          6           0       -2.078399   -0.000011    0.003825
      8          1           0       -3.151587   -0.000011    0.008851
 ---------------------------------------------------------------------
                    Distance matrix (angstroms):
                    1          2          3          4          5
     1  C    0.000000
     2  H    1.097738   0.000000
     3  H    1.097738   1.819089   0.000000
     4  H    1.108953   1.772247   1.772247   0.000000
     5  C    1.411556   2.092715   2.092715   2.019494   0.000000
     6  C    2.686135   3.269562   3.269562   3.166280   1.274687
     7  C    3.937803   4.476797   4.476797   4.364084   2.526344
     8  H    5.011001   5.527641   5.527641   5.410598   3.599539
                    6          7          8
     6  C    0.000000
     7  C    1.251671   0.000000
     8  H    2.324871   1.073200   0.000000
 Stoichiometry    C4H4(1+,2)
 Framework group  CS[SG(C4H2),X(H2)]
 Deg. of freedom    12
 Full point group                 CS      NOp   2
 Largest Abelian subgroup         CS      NOp   2
 Largest concise Abelian subgroup CS      NOp   2
                         Standard orientation:                         
 ---------------------------------------------------------------------
 Center     Atomic      Atomic             Coordinates (Angstroms)
 Number     Number       Type             X           Y           Z
 ---------------------------------------------------------------------
      1          6           0        0.064559    1.859047   -0.000000
      2          1           0       -0.365799    2.297853    0.909544
      3          1           0       -0.365799    2.297853   -0.909544
      4          1           0        1.143998    2.113187   -0.000000
      5          6           0       -0.000000    0.448968   -0.000000
      6          6           0       -0.035434   -0.825226    0.000000
      7          6           0       -0.078563   -2.076154    0.000000
      8          1           0       -0.115774   -3.148708    0.000000
 ---------------------------------------------------------------------
 Rotational constants (GHZ):    156.8014274      3.8749011      3.8715786
 Leave Link  202 at Tue Oct 10 14:13:59 2017, MaxMem=    33554432 cpu:         0.1
 (Enter /usr/local/gaussian/2009-E.01/g09/l301.exe)
 Standard basis: 6-311++G(d,p) (5D, 7F)
 Ernie: Thresh=  0.10000D-02 Tol=  0.10000D-05 Strict=F.
 There are    87 symmetry adapted cartesian basis functions of A'  symmetry.
 There are    33 symmetry adapted cartesian basis functions of A"  symmetry.
 There are    83 symmetry adapted basis functions of A'  symmetry.
 There are    33 symmetry adapted basis functions of A"  symmetry.
   116 basis functions,   180 primitive gaussians,   120 cartesian basis functions
    14 alpha electrons       13 beta electrons
       nuclear repulsion energy        88.4944070597 Hartrees.
 IExCor=    0 DFT=F Ex=HF Corr=None ExCW=0 ScaHFX=  1.000000
 ScaDFX=  1.000000  1.000000  1.000000  1.000000 ScalE2=  1.000000  1.000000
 IRadAn=      0 IRanWt=     -1 IRanGd=            0 ICorTp=0 IEmpDi=  4
 NAtoms=    8 NActive=    8 NUniq=    7 SFac= 1.31D+00 NAtFMM=   60 NAOKFM=F Big=F
 Integral buffers will be    131072 words long.
 Raffenetti 2 integral format.
 Two-electron integral symmetry is turned on.
 Leave Link  301 at Tue Oct 10 14:13:59 2017, MaxMem=    33554432 cpu:         0.8
 (Enter /usr/local/gaussian/2009-E.01/g09/l302.exe)
 NPDir=0 NMtPBC=     1 NCelOv=     1 NCel=       1 NClECP=     1 NCelD=      1
         NCelK=      1 NCelE2=     1 NClLst=     1 CellRange=     0.0.
 One-electron integrals computed using PRISM.
 One-electron integral symmetry used in STVInt
 NBasis=   116 RedAO= T EigKep=  2.42D-06  NBF=    83    33
 NBsUse=   115 1.00D-06 EigRej=  5.62D-08 NBFU=    82    33
 Leave Link  302 at Tue Oct 10 14:13:59 2017, MaxMem=    33554432 cpu:         1.2
 (Enter /usr/local/gaussian/2009-E.01/g09/l303.exe)
 DipDrv:  MaxL=1.
 Leave Link  303 at Tue Oct 10 14:13:59 2017, MaxMem=    33554432 cpu:         0.2
 (Enter /usr/local/gaussian/2009-E.01/g09/l401.exe)
 ExpMin= 3.60D-02 ExpMax= 4.56D+03 ExpMxC= 6.82D+02 IAcc=3 IRadAn=         5 AccDes= 0.00D+00
 Harris functional with IExCor=  205 and IRadAn=       5 diagonalized for initial guess.
 HarFok:  IExCor=  205 AccDes= 0.00D+00 IRadAn=         5 IDoV= 1 UseB2=F ITyADJ=14
 ICtDFT=  3500011 ScaDFX=  1.000000  1.000000  1.000000  1.000000
 FoFCou: FMM=F IPFlag=           0 FMFlag=      100000 FMFlg1=           0
         NFxFlg=           0 DoJE=T BraDBF=F KetDBF=T FulRan=T
         wScrn=  0.000000 ICntrl=     500 IOpCl=  0 I1Cent=   200000004 NGrid=           0
         NMat0=    1 NMatS0=      1 NMatT0=    0 NMatD0=    1 NMtDS0=    0 NMtDT0=    0
 Petite list used in FoFCou.
 Harris En= -153.618918559925    
 JPrj=0 DoOrth=F DoCkMO=F.
 Initial guess orbital symmetries:
 Alpha Orbitals:
       Occupied  (A') (A') (A') (A') (A') (A') (A') (A') (A') (A")
                 (A') (A") (A') (A")
       Virtual   (A') (A") (A') (A') (A') (A') (A") (A') (A') (A')
                 (A") (A') (A') (A") (A') (A') (A") (A') (A') (A")
                 (A') (A') (A") (A') (A') (A') (A') (A') (A') (A")
                 (A') (A') (A") (A') (A') (A") (A') (A") (A') (A")
                 (A') (A') (A') (A') (A') (A') (A') (A") (A') (A')
                 (A") (A') (A") (A') (A") (A') (A') (A") (A") (A')
                 (A") (A') (A') (A") (A') (A") (A') (A') (A') (A")
                 (A') (A') (A") (A') (A") (A') (A') (A') (A") (A')
                 (A") (A') (A') (A') (A") (A') (A") (A') (A') (A")
                 (A') (A') (A') (A') (A') (A") (A') (A') (A') (A')
                 (A')
 Beta  Orbitals:
       Occupied  (A') (A') (A') (A') (A') (A') (A') (A') (A') (A")
                 (A') (A") (A')
       Virtual   (A") (A') (A") (A') (A') (A') (A') (A") (A') (A')
                 (A') (A") (A') (A') (A") (A') (A') (A") (A') (A')
                 (A") (A') (A') (A") (A') (A') (A') (A') (A') (A')
                 (A") (A') (A') (A") (A') (A') (A") (A') (A") (A')
                 (A") (A') (A') (A') (A') (A') (A') (A') (A") (A')
                 (A') (A") (A') (A") (A') (A") (A') (A') (A") (A")
                 (A') (A") (A') (A') (A") (A') (A") (A') (A') (A')
                 (A") (A') (A') (A") (A') (A") (A') (A') (A') (A")
                 (A') (A") (A') (A') (A') (A") (A') (A") (A') (A')
                 (A") (A') (A') (A') (A') (A') (A") (A') (A') (A')
                 (A') (A')
 The electronic state of the initial guess is 2-A".
 Initial guess <Sx>= 0.0000 <Sy>= 0.0000 <Sz>= 0.5000 <S**2>= 0.7500 S= 0.5000
 Leave Link  401 at Tue Oct 10 14:14:00 2017, MaxMem=    33554432 cpu:         2.3
 (Enter /usr/local/gaussian/2009-E.01/g09/l502.exe)
 UHF open shell SCF:
 Using DIIS extrapolation, IDIIS=  1040.
 Integral symmetry usage will be decided dynamically.
 IVT=       63770 IEndB=       63770 NGot=    33554432 MDV=    33521823
 LenX=    33521823 LenY=    33506982
 Requested convergence on RMS density matrix=1.00D-08 within 128 cycles.
 Requested convergence on MAX density matrix=1.00D-06.
 Requested convergence on             energy=1.00D-06.
 No special actions if energy rises.
 Fock matrices will be formed incrementally for  20 cycles.

 Cycle   1  Pass 0  IDiag  1:
 FoFJK:  IHMeth= 1 ICntrl=       0 DoSepK=F KAlg= 0 I1Cent=   0 FoldK=F
 IRaf= 970000000 NMat=   1 IRICut=       1 DoRegI=T DoRafI=F ISym2E= 1.
 FoFCou: FMM=F IPFlag=           0 FMFlag=      100000 FMFlg1=           0
         NFxFlg=           0 DoJE=F BraDBF=F KetDBF=F FulRan=T
         wScrn=  0.000000 ICntrl=       0 IOpCl=  1 I1Cent=           0 NGrid=           0
         NMat0=    1 NMatS0=      1 NMatT0=    0 NMatD0=    1 NMtDS0=    0 NMtDT0=    0
 Petite list used in FoFCou.
 E= -153.261706292017    
 DIIS: error= 5.16D-02 at cycle   1 NSaved=   1.
 NSaved= 1 IEnMin= 1 EnMin= -153.261706292017     IErMin= 1 ErrMin= 5.16D-02
 ErrMax= 5.16D-02  0.00D+00 EMaxC= 1.00D-01 BMatC= 1.18D+00 BMatP= 1.18D+00
 IDIUse=3 WtCom= 4.84D-01 WtEn= 5.16D-01
 Coeff-Com:  0.100D+01
 Coeff-En:   0.100D+01
 Coeff:      0.100D+01
 Gap=     0.341 Goal=   None    Shift=    0.000
 Gap=     0.413 Goal=   None    Shift=    0.000
 GapD=    0.341 DampG=1.000 DampE=0.500 DampFc=0.5000 IDamp=-1.
 Damping current iteration by 5.00D-01
 RMSDP=4.66D-02 MaxDP=2.19D+00              OVMax= 1.21D-01

 Cycle   2  Pass 0  IDiag  1:
 RMSU=  8.55D-03    CP:  1.18D+00
 E= -153.336491109912     Delta-E=       -0.074784817894 Rises=F Damp=T
 DIIS: error= 2.81D-02 at cycle   2 NSaved=   2.
 NSaved= 2 IEnMin= 2 EnMin= -153.336491109912     IErMin= 2 ErrMin= 2.81D-02
 ErrMax= 2.81D-02  0.00D+00 EMaxC= 1.00D-01 BMatC= 2.82D-01 BMatP= 1.18D+00
 IDIUse=3 WtCom= 7.19D-01 WtEn= 2.81D-01
 Coeff-Com: -0.809D+00 0.181D+01
 Coeff-En:   0.000D+00 0.100D+01
 Coeff:     -0.582D+00 0.158D+01
 Gap=     0.343 Goal=   None    Shift=    0.000
 Gap=     0.442 Goal=   None    Shift=    0.000
 RMSDP=7.56D-03 MaxDP=2.97D-01 DE=-7.48D-02 OVMax= 4.60D-02

 Cycle   3  Pass 0  IDiag  1:
 RMSU=  3.29D-03    CP:  1.23D+00  1.49D+00
 E= -153.412706891404     Delta-E=       -0.076215781493 Rises=F Damp=F
 DIIS: error= 6.88D-03 at cycle   3 NSaved=   3.
 NSaved= 3 IEnMin= 3 EnMin= -153.412706891404     IErMin= 3 ErrMin= 6.88D-03
 ErrMax= 6.88D-03  0.00D+00 EMaxC= 1.00D-01 BMatC= 5.88D-03 BMatP= 2.82D-01
 IDIUse=3 WtCom= 9.31D-01 WtEn= 6.88D-02
 Coeff-Com: -0.676D-01 0.894D-01 0.978D+00
 Coeff-En:   0.000D+00 0.000D+00 0.100D+01
 Coeff:     -0.630D-01 0.833D-01 0.980D+00
 Gap=     0.356 Goal=   None    Shift=    0.000
 Gap=     0.447 Goal=   None    Shift=    0.000
 RMSDP=1.59D-03 MaxDP=6.59D-02 DE=-7.62D-02 OVMax= 3.30D-02

 Cycle   4  Pass 0  IDiag  1:
 RMSU=  1.29D-03    CP:  1.23D+00  1.49D+00  1.26D+00
 E= -153.416486744290     Delta-E=       -0.003779852886 Rises=F Damp=F
 DIIS: error= 4.01D-03 at cycle   4 NSaved=   4.
 NSaved= 4 IEnMin= 4 EnMin= -153.416486744290     IErMin= 4 ErrMin= 4.01D-03
 ErrMax= 4.01D-03  0.00D+00 EMaxC= 1.00D-01 BMatC= 2.09D-03 BMatP= 5.88D-03
 IDIUse=3 WtCom= 9.60D-01 WtEn= 4.01D-02
 Coeff-Com:  0.449D-01-0.942D-01-0.105D+00 0.115D+01
 Coeff-En:   0.000D+00 0.000D+00 0.000D+00 0.100D+01
 Coeff:      0.431D-01-0.904D-01-0.101D+00 0.115D+01
 Gap=     0.365 Goal=   None    Shift=    0.000
 Gap=     0.459 Goal=   None    Shift=    0.000
 RMSDP=1.34D-03 MaxDP=6.77D-02 DE=-3.78D-03 OVMax= 2.37D-02

 Cycle   5  Pass 0  IDiag  1:
 RMSU=  6.11D-04    CP:  1.24D+00  1.52D+00  1.38D+00  1.54D+00
 E= -153.418279090320     Delta-E=       -0.001792346030 Rises=F Damp=F
 DIIS: error= 2.76D-03 at cycle   5 NSaved=   5.
 NSaved= 5 IEnMin= 5 EnMin= -153.418279090320     IErMin= 5 ErrMin= 2.76D-03
 ErrMax= 2.76D-03  0.00D+00 EMaxC= 1.00D-01 BMatC= 9.32D-04 BMatP= 2.09D-03
 IDIUse=3 WtCom= 9.72D-01 WtEn= 2.76D-02
 Coeff-Com:  0.356D-01-0.497D-01-0.508D+00 0.209D+00 0.131D+01
 Coeff-En:   0.000D+00 0.000D+00 0.000D+00 0.000D+00 0.100D+01
 Coeff:      0.346D-01-0.483D-01-0.494D+00 0.203D+00 0.130D+01
 Gap=     0.374 Goal=   None    Shift=    0.000
 Gap=     0.470 Goal=   None    Shift=    0.000
 RMSDP=1.62D-03 MaxDP=9.41D-02 DE=-1.79D-03 OVMax= 2.56D-02

 Cycle   6  Pass 0  IDiag  1:
 RMSU=  5.73D-04    CP:  1.24D+00  1.53D+00  1.53D+00  2.20D+00  1.36D+00
 E= -153.419369751784     Delta-E=       -0.001090661464 Rises=F Damp=F
 DIIS: error= 8.63D-04 at cycle   6 NSaved=   6.
 NSaved= 6 IEnMin= 6 EnMin= -153.419369751784     IErMin= 6 ErrMin= 8.63D-04
 ErrMax= 8.63D-04  0.00D+00 EMaxC= 1.00D-01 BMatC= 1.56D-04 BMatP= 9.32D-04
 IDIUse=3 WtCom= 9.91D-01 WtEn= 8.63D-03
 Coeff-Com: -0.759D-02 0.169D-01 0.145D-02-0.225D+00 0.854D-01 0.113D+01
 Coeff-En:   0.000D+00 0.000D+00 0.000D+00 0.000D+00 0.000D+00 0.100D+01
 Coeff:     -0.752D-02 0.168D-01 0.143D-02-0.223D+00 0.847D-01 0.113D+01
 Gap=     0.375 Goal=   None    Shift=    0.000
 Gap=     0.474 Goal=   None    Shift=    0.000
 RMSDP=3.84D-04 MaxDP=1.36D-02 DE=-1.09D-03 OVMax= 8.74D-03

 Cycle   7  Pass 0  IDiag  1:
 RMSU=  1.52D-04    CP:  1.24D+00  1.52D+00  1.57D+00  2.37D+00  1.60D+00
                    CP:  1.22D+00
 E= -153.419552472107     Delta-E=       -0.000182720323 Rises=F Damp=F
 DIIS: error= 5.81D-04 at cycle   7 NSaved=   7.
 NSaved= 7 IEnMin= 7 EnMin= -153.419552472107     IErMin= 7 ErrMin= 5.81D-04
 ErrMax= 5.81D-04  0.00D+00 EMaxC= 1.00D-01 BMatC= 4.91D-05 BMatP= 1.56D-04
 IDIUse=3 WtCom= 9.94D-01 WtEn= 5.81D-03
 Coeff-Com: -0.961D-02 0.141D-01 0.134D+00-0.647D-01-0.320D+00 0.577D-01
 Coeff-Com:  0.119D+01
 Coeff-En:   0.000D+00 0.000D+00 0.000D+00 0.000D+00 0.000D+00 0.000D+00
 Coeff-En:   0.100D+01
 Coeff:     -0.956D-02 0.140D-01 0.133D+00-0.643D-01-0.319D+00 0.574D-01
 Coeff:      0.119D+01
 Gap=     0.374 Goal=   None    Shift=    0.000
 Gap=     0.476 Goal=   None    Shift=    0.000
 RMSDP=2.92D-04 MaxDP=1.53D-02 DE=-1.83D-04 OVMax= 7.35D-03

 Cycle   8  Pass 0  IDiag  1:
 RMSU=  8.03D-05    CP:  1.25D+00  1.53D+00  1.58D+00  2.46D+00  1.70D+00
                    CP:  1.41D+00  1.27D+00
 E= -153.419632207884     Delta-E=       -0.000079735777 Rises=F Damp=F
 DIIS: error= 5.29D-04 at cycle   8 NSaved=   8.
 NSaved= 8 IEnMin= 8 EnMin= -153.419632207884     IErMin= 8 ErrMin= 5.29D-04
 ErrMax= 5.29D-04  0.00D+00 EMaxC= 1.00D-01 BMatC= 2.46D-05 BMatP= 4.91D-05
 IDIUse=3 WtCom= 9.95D-01 WtEn= 5.29D-03
 Coeff-Com:  0.162D-02-0.348D-02-0.284D-02 0.407D-01-0.224D-01-0.156D+00
 Coeff-Com: -0.147D+00 0.129D+01
 Coeff-En:   0.000D+00 0.000D+00 0.000D+00 0.000D+00 0.000D+00 0.000D+00
 Coeff-En:   0.000D+00 0.100D+01
 Coeff:      0.161D-02-0.346D-02-0.282D-02 0.405D-01-0.222D-01-0.156D+00
 Coeff:     -0.146D+00 0.129D+01
 Gap=     0.373 Goal=   None    Shift=    0.000
 Gap=     0.477 Goal=   None    Shift=    0.000
 RMSDP=2.35D-04 MaxDP=1.44D-02 DE=-7.97D-05 OVMax= 7.77D-03

 Cycle   9  Pass 0  IDiag  1:
 RMSU=  5.51D-05    CP:  1.25D+00  1.53D+00  1.60D+00  2.58D+00  1.75D+00
                    CP:  1.46D+00  1.22D+00  2.32D+00
 E= -153.419693057508     Delta-E=       -0.000060849624 Rises=F Damp=F
 DIIS: error= 5.00D-04 at cycle   9 NSaved=   9.
 NSaved= 9 IEnMin= 9 EnMin= -153.419693057508     IErMin= 9 ErrMin= 5.00D-04
 ErrMax= 5.00D-04  0.00D+00 EMaxC= 1.00D-01 BMatC= 2.10D-05 BMatP= 2.46D-05
 IDIUse=3 WtCom= 9.95D-01 WtEn= 5.00D-03
 Coeff-Com:  0.161D-02-0.228D-02-0.254D-01 0.150D-01 0.437D-01 0.458D-01
 Coeff-Com: -0.300D+00-0.104D+00 0.133D+01
 Coeff-En:   0.000D+00 0.000D+00 0.000D+00 0.000D+00 0.000D+00 0.000D+00
 Coeff-En:   0.000D+00 0.000D+00 0.100D+01
 Coeff:      0.160D-02-0.227D-02-0.252D-01 0.149D-01 0.435D-01 0.456D-01
 Coeff:     -0.299D+00-0.104D+00 0.132D+01
 Gap=     0.373 Goal=   None    Shift=    0.000
 Gap=     0.477 Goal=   None    Shift=    0.000
 RMSDP=2.30D-04 MaxDP=1.09D-02 DE=-6.08D-05 OVMax= 8.11D-03

 Cycle  10  Pass 0  IDiag  1:
 RMSU=  7.12D-05    CP:  1.25D+00  1.52D+00  1.62D+00  2.70D+00  1.81D+00
                    CP:  1.45D+00  1.02D+00  3.00D+00  2.25D+00
 E= -153.419754676480     Delta-E=       -0.000061618972 Rises=F Damp=F
 DIIS: error= 4.97D-04 at cycle  10 NSaved=  10.
 NSaved=10 IEnMin=10 EnMin= -153.419754676480     IErMin=10 ErrMin= 4.97D-04
 ErrMax= 4.97D-04  0.00D+00 EMaxC= 1.00D-01 BMatC= 2.02D-05 BMatP= 2.10D-05
 IDIUse=3 WtCom= 9.95D-01 WtEn= 4.97D-03
 Coeff-Com: -0.236D-03 0.402D-03 0.231D-02 0.483D-02-0.195D-01 0.347D-01
 Coeff-Com: -0.444D-01-0.610D-01-0.584D-03 0.108D+01
 Coeff-En:   0.000D+00 0.000D+00 0.000D+00 0.000D+00 0.000D+00 0.000D+00
 Coeff-En:   0.000D+00 0.000D+00 0.000D+00 0.100D+01
 Coeff:     -0.235D-03 0.400D-03 0.230D-02 0.480D-02-0.194D-01 0.345D-01
 Coeff:     -0.442D-01-0.607D-01-0.581D-03 0.108D+01
 Gap=     0.373 Goal=   None    Shift=    0.000
 Gap=     0.478 Goal=   None    Shift=    0.000
 RMSDP=1.59D-04 MaxDP=7.92D-03 DE=-6.16D-05 OVMax= 6.06D-03

 Cycle  11  Pass 0  IDiag  1:
 RMSU=  2.00D-05    CP:  1.25D+00  1.52D+00  1.63D+00  2.78D+00  1.84D+00
                    CP:  1.44D+00  8.58D-01  3.00D+00  3.00D+00  2.21D+00
 E= -153.419800866007     Delta-E=       -0.000046189526 Rises=F Damp=F
 DIIS: error= 4.98D-04 at cycle  11 NSaved=  11.
 NSaved=11 IEnMin=11 EnMin= -153.419800866007     IErMin=10 ErrMin= 4.97D-04
 ErrMax= 4.98D-04  0.00D+00 EMaxC= 1.00D-01 BMatC= 2.03D-05 BMatP= 2.02D-05
 IDIUse=3 WtCom= 9.95D-01 WtEn= 4.97D-03
 Coeff-Com: -0.164D-02 0.279D-02 0.166D-01-0.323D-02-0.525D-01 0.672D-01
 Coeff-Com:  0.122D+00-0.402D+00-0.593D+00 0.504D+01-0.320D+01
 Coeff-En:   0.000D+00 0.000D+00 0.000D+00 0.000D+00 0.000D+00 0.000D+00
 Coeff-En:   0.000D+00 0.000D+00 0.000D+00 0.000D+00 0.100D+01
 Coeff:     -0.163D-02 0.278D-02 0.165D-01-0.321D-02-0.522D-01 0.668D-01
 Coeff:      0.121D+00-0.400D+00-0.590D+00 0.502D+01-0.318D+01
 Gap=     0.373 Goal=   None    Shift=    0.000
 Gap=     0.477 Goal=   None    Shift=    0.000
 RMSDP=3.29D-04 MaxDP=1.60D-02 DE=-4.62D-05 OVMax= 1.31D-02

 Cycle  12  Pass 0  IDiag  1:
 RMSU=  1.42D-05    CP:  1.25D+00  1.53D+00  1.61D+00  2.61D+00  1.79D+00
                    CP:  1.46D+00  1.17D+00  2.65D+00  1.18D+00  2.54D-02
                    CP: -4.35D-01
 E= -153.419701014235     Delta-E=        0.000099851772 Rises=F Damp=F
 DIIS: error= 4.93D-04 at cycle  12 NSaved=  12.
 NSaved=12 IEnMin=11 EnMin= -153.419800866007     IErMin=12 ErrMin= 4.93D-04
 ErrMax= 4.93D-04  0.00D+00 EMaxC= 1.00D-01 BMatC= 2.00D-05 BMatP= 2.02D-05
 IDIUse=3 WtCom= 9.95D-01 WtEn= 4.93D-03
 Large coefficients: NSaved= 12 BigCof=   18.60 CofMax=   10.00 Det=-4.44D-09
 Inversion failed.  Reducing to 11 matrices.
 Large coefficients: NSaved= 11 BigCof=   18.21 CofMax=   10.00 Det=-6.69D-09
 Inversion failed.  Reducing to 10 matrices.
 Large coefficients: NSaved= 10 BigCof=   16.46 CofMax=   10.00 Det=-6.93D-09
 Inversion failed.  Reducing to  9 matrices.
 Large coefficients: NSaved=  9 BigCof=   15.14 CofMax=   10.00 Det=-6.93D-09
 Inversion failed.  Reducing to  8 matrices.
 Large coefficients: NSaved=  8 BigCof=   14.45 CofMax=   10.00 Det=-7.25D-09
 Inversion failed.  Reducing to  7 matrices.
 Large coefficients: NSaved=  7 BigCof=   14.57 CofMax=   10.00 Det=-7.44D-09
 Inversion failed.  Reducing to  6 matrices.
 Large coefficients: NSaved=  6 BigCof=   14.00 CofMax=   10.00 Det=-1.07D-08
 Inversion failed.  Reducing to  5 matrices.
 Large coefficients: NSaved=  5 BigCof=   10.71 CofMax=   10.00 Det=-1.75D-08
 Inversion failed.  Reducing to  4 matrices.
 Rare condition: small coef for last iteration:  0.000D+00
 Coeff-Com: -0.103D+01 0.377D+00-0.725D+01 0.890D+01
 Coeff-En:   0.000D+00 0.000D+00 0.000D+00 0.100D+01
 Coeff:     -0.103D+01 0.377D+00-0.725D+01 0.890D+01
 Gap=     0.374 Goal=   None    Shift=    0.000
 Gap=     0.475 Goal=   None    Shift=    0.000
 RMSDP=2.17D-03 MaxDP=1.05D-01 DE= 9.99D-05 OVMax= 8.54D-02

 Cycle  13  Pass 0  IDiag  1:
 RMSU=  7.58D-04    CP:  1.25D+00  1.56D+00  1.45D+00  1.48D+00  1.44D+00
                    CP:  1.60D+00  3.00D+00 -3.00D+00 -3.00D+00 -3.00D+00
                    CP: -3.00D+00 -3.00D+00
 E= -153.419073743854     Delta-E=        0.000627270382 Rises=F Damp=F
 DIIS: error= 4.31D-04 at cycle  13 NSaved=   5.
 NSaved= 5 IEnMin= 3 EnMin= -153.419800866007     IErMin= 5 ErrMin= 4.31D-04
 ErrMax= 4.31D-04  0.00D+00 EMaxC= 1.00D-01 BMatC= 3.45D-05 BMatP= 2.00D-05
 IDIUse=3 WtCom= 9.95D-01 WtEn= 4.93D-03
 Large coefficients: NSaved=  5 BigCof=   10.86 CofMax=   10.00 Det=-1.52D-08
 Inversion failed.  Reducing to  4 matrices.
 Large coefficients: NSaved=  4 BigCof=   10.52 CofMax=   10.00 Det=-1.53D-08
 Inversion failed.  Reducing to  3 matrices.
 Rare condition: small coef for last iteration:  0.000D+00
 Coeff-Com: -0.688D+01 0.803D+01-0.150D+00
 Coeff-En:   0.000D+00 0.000D+00 0.100D+01
 Coeff:     -0.688D+01 0.803D+01-0.150D+00
 Gap=     0.376 Goal=   None    Shift=    0.000
 Gap=     0.477 Goal=   None    Shift=    0.000
 RMSDP=3.40D-04 MaxDP=1.53D-02 DE= 6.27D-04 OVMax= 1.39D-02

 Problem detected with inexpensive integrals.
 Switching to full accuracy and repeating last cycle.
 Cycle  14  Pass 1  IDiag  1:
 E= -153.419073743860     Delta-E=       -0.000000000006 Rises=F Damp=F
 DIIS: error= 4.31D-04 at cycle   1 NSaved=   1.
 NSaved= 1 IEnMin= 1 EnMin= -153.419073743860     IErMin= 1 ErrMin= 4.31D-04
 ErrMax= 4.31D-04  0.00D+00 EMaxC= 1.00D-01 BMatC= 3.45D-05 BMatP= 3.45D-05
 IDIUse=3 WtCom= 9.96D-01 WtEn= 4.31D-03
 Coeff-Com:  0.100D+01
 Coeff-En:   0.100D+01
 Coeff:      0.100D+01
 Gap=     0.374 Goal=   None    Shift=    0.000
 Gap=     0.477 Goal=   None    Shift=    0.000
 RMSDP=1.93D-04 MaxDP=1.26D-02 DE=-6.03D-12 OVMax= 4.00D-03

 Cycle  15  Pass 1  IDiag  1:
 RMSU=  1.42D-04    CP:  1.00D+00
 E= -153.419108605836     Delta-E=       -0.000034861976 Rises=F Damp=F
 DIIS: error= 5.21D-04 at cycle   2 NSaved=   2.
 NSaved= 2 IEnMin= 2 EnMin= -153.419108605836     IErMin= 1 ErrMin= 4.31D-04
 ErrMax= 5.21D-04  0.00D+00 EMaxC= 1.00D-01 BMatC= 2.09D-05 BMatP= 3.45D-05
 IDIUse=3 WtCom= 9.95D-01 WtEn= 5.21D-03
 Coeff-Com:  0.278D+00 0.722D+00
 Coeff-En:   0.000D+00 0.100D+01
 Coeff:      0.277D+00 0.723D+00
 Gap=     0.374 Goal=   None    Shift=    0.000
 Gap=     0.476 Goal=   None    Shift=    0.000
 RMSDP=1.09D-04 MaxDP=6.41D-03 DE=-3.49D-05 OVMax= 3.45D-03

 Cycle  16  Pass 1  IDiag  1:
 RMSU=  5.56D-05    CP:  1.00D+00  1.54D+00
 E= -153.419131358875     Delta-E=       -0.000022753040 Rises=F Damp=F
 DIIS: error= 4.50D-04 at cycle   3 NSaved=   3.
 NSaved= 3 IEnMin= 3 EnMin= -153.419131358875     IErMin= 1 ErrMin= 4.31D-04
 ErrMax= 4.50D-04  0.00D+00 EMaxC= 1.00D-01 BMatC= 1.70D-05 BMatP= 2.09D-05
 IDIUse=3 WtCom= 9.95D-01 WtEn= 4.50D-03
 Coeff-Com: -0.237D+00-0.189D+00 0.143D+01
 Coeff-En:   0.000D+00 0.000D+00 0.100D+01
 Coeff:     -0.236D+00-0.188D+00 0.142D+01
 Gap=     0.373 Goal=   None    Shift=    0.000
 Gap=     0.476 Goal=   None    Shift=    0.000
 RMSDP=1.82D-04 MaxDP=8.35D-03 DE=-2.28D-05 OVMax= 6.59D-03

 Cycle  17  Pass 1  IDiag  1:
 RMSU=  3.54D-05    CP:  1.00D+00  2.67D+00  2.38D+00
 E= -153.419177112734     Delta-E=       -0.000045753859 Rises=F Damp=F
 DIIS: error= 4.67D-04 at cycle   4 NSaved=   4.
 NSaved= 4 IEnMin= 4 EnMin= -153.419177112734     IErMin= 1 ErrMin= 4.31D-04
 ErrMax= 4.67D-04  0.00D+00 EMaxC= 1.00D-01 BMatC= 1.63D-05 BMatP= 1.70D-05
 IDIUse=3 WtCom= 9.95D-01 WtEn= 4.67D-03
 Coeff-Com: -0.747D-01-0.130D+00 0.109D+00 0.110D+01
 Coeff-En:   0.000D+00 0.000D+00 0.000D+00 0.100D+01
 Coeff:     -0.744D-01-0.129D+00 0.108D+00 0.110D+01
 Gap=     0.373 Goal=   None    Shift=    0.000
 Gap=     0.476 Goal=   None    Shift=    0.000
 RMSDP=1.51D-04 MaxDP=6.77D-03 DE=-4.58D-05 OVMax= 5.92D-03

 Cycle  18  Pass 1  IDiag  1:
 RMSU=  8.81D-05    CP:  1.00D+00  3.00D+00  3.00D+00  2.13D+00
 E= -153.419217422408     Delta-E=       -0.000040309674 Rises=F Damp=F
 DIIS: error= 4.51D-04 at cycle   5 NSaved=   5.
 NSaved= 5 IEnMin= 5 EnMin= -153.419217422408     IErMin= 1 ErrMin= 4.31D-04
 ErrMax= 4.51D-04  0.00D+00 EMaxC= 1.00D-01 BMatC= 1.65D-05 BMatP= 1.63D-05
 IDIUse=3 WtCom= 9.95D-01 WtEn= 4.51D-03
 Coeff-Com: -0.262D+00-0.365D+00 0.908D+00 0.193D+01-0.121D+01
 Coeff-En:   0.000D+00 0.000D+00 0.000D+00 0.000D+00 0.100D+01
 Coeff:     -0.261D+00-0.364D+00 0.904D+00 0.192D+01-0.120D+01
 Gap=     0.373 Goal=   None    Shift=    0.000
 Gap=     0.476 Goal=   None    Shift=    0.000
 RMSDP=1.85D-04 MaxDP=8.77D-03 DE=-4.03D-05 OVMax= 7.34D-03

 Cycle  19  Pass 1  IDiag  1:
 RMSU=  5.78D-06    CP:  1.00D+00  2.46D+00  2.13D+00  6.86D-01 -3.85D-04
 E= -153.419166382663     Delta-E=        0.000051039745 Rises=F Damp=F
 DIIS: error= 4.45D-04 at cycle   6 NSaved=   6.
 NSaved= 6 IEnMin= 5 EnMin= -153.419217422408     IErMin= 1 ErrMin= 4.31D-04
 ErrMax= 4.45D-04  0.00D+00 EMaxC= 1.00D-01 BMatC= 1.65D-05 BMatP= 1.63D-05
 IDIUse=3 WtCom= 9.96D-01 WtEn= 4.45D-03
 Rare condition: small coef for last iteration:  0.000D+00
 Coeff-Com: -0.329D-01-0.152D+00-0.632D+00 0.244D+01-0.500D+01 0.438D+01
 Coeff-En:   0.000D+00 0.000D+00 0.000D+00 0.000D+00 0.000D+00 0.100D+01
 Coeff:     -0.329D-01-0.152D+00-0.632D+00 0.244D+01-0.500D+01 0.438D+01
 Gap=     0.374 Goal=   None    Shift=    0.000
 Gap=     0.476 Goal=   None    Shift=    0.000
 RMSDP=5.93D-04 MaxDP=2.65D-02 DE= 5.10D-05 OVMax= 2.39D-02

 Cycle  20  Pass 1  IDiag  1:
 RMSU=  4.70D-05    CP:  1.00D+00 -1.06D+00 -2.71D+00 -3.00D+00 -3.89D-02
                    CP:  3.00D+00
 E= -153.419001194648     Delta-E=        0.000165188015 Rises=F Damp=F
 DIIS: error= 4.49D-04 at cycle   7 NSaved=   7.
 NSaved= 7 IEnMin= 5 EnMin= -153.419217422408     IErMin= 1 ErrMin= 4.31D-04
 ErrMax= 4.49D-04  0.00D+00 EMaxC= 1.00D-01 BMatC= 1.65D-05 BMatP= 1.63D-05
 IDIUse=3 WtCom= 9.96D-01 WtEn= 4.45D-03
 Rare condition: small coef for last iteration:  0.000D+00
 Coeff-Com: -0.411D-01-0.348D+00-0.205D+00 0.338D+01-0.722D+01 0.703D+01
 Coeff-Com: -0.159D+01
 Coeff-En:   0.000D+00 0.000D+00 0.000D+00 0.000D+00 0.000D+00 0.000D+00
 Coeff-En:   0.100D+01
 Coeff:     -0.411D-01-0.348D+00-0.205D+00 0.338D+01-0.722D+01 0.703D+01
 Coeff:     -0.159D+01
 Gap=     0.374 Goal=   None    Shift=    0.000
 Gap=     0.476 Goal=   None    Shift=    0.000
 RMSDP=5.51D-04 MaxDP=2.45D-02 DE= 1.65D-04 OVMax= 2.26D-02

 Cycle  21  Pass 1  IDiag  1:
 RMSU=  3.64D-06    CP:  1.00D+00  2.19D+00  1.85D+00  4.82D-01 -1.46D-03
                    CP:  1.38D-01  1.29D-02
 E= -153.419157975011     Delta-E=       -0.000156780364 Rises=F Damp=F
 DIIS: error= 4.53D-04 at cycle   8 NSaved=   8.
 NSaved= 8 IEnMin= 5 EnMin= -153.419217422408     IErMin= 1 ErrMin= 4.31D-04
 ErrMax= 4.53D-04  0.00D+00 EMaxC= 1.00D-01 BMatC= 1.68D-05 BMatP= 1.63D-05
 IDIUse=3 WtCom= 9.96D-01 WtEn= 4.45D-03
 Coeff-Com:  0.224D-01-0.752D+00 0.190D+01 0.335D+01-0.421D+01 0.325D+01
 Coeff-Com:  0.400D+01-0.656D+01
 Coeff-En:   0.000D+00 0.000D+00 0.000D+00 0.000D+00 0.000D+00 0.000D+00
 Coeff-En:   0.000D+00 0.100D+01
 Coeff:      0.223D-01-0.749D+00 0.189D+01 0.333D+01-0.419D+01 0.323D+01
 Coeff:      0.399D+01-0.653D+01
 Gap=     0.374 Goal=   None    Shift=    0.000
 Gap=     0.477 Goal=   None    Shift=    0.000
 RMSDP=2.70D-03 MaxDP=1.20D-01 DE=-1.57D-04 OVMax= 1.07D-01

 Cycle  22  Pass 1  IDiag  1:
 RMSU=  1.66D-03    CP:  1.00D+00 -3.00D+00 -3.00D+00 -3.00D+00 -3.00D+00
                    CP:  3.00D+00  3.00D+00 -3.00D+00
 E= -153.418335092366     Delta-E=        0.000822882645 Rises=F Damp=F
 DIIS: error= 5.83D-04 at cycle   9 NSaved=   9.
 NSaved= 9 IEnMin= 5 EnMin= -153.419217422408     IErMin= 1 ErrMin= 4.31D-04
 ErrMax= 5.83D-04  0.00D+00 EMaxC= 1.00D-01 BMatC= 5.71D-05 BMatP= 1.63D-05
 IDIUse=3 WtCom= 9.96D-01 WtEn= 4.45D-03
 Rare condition: small coef for last iteration:  0.000D+00
 Coeff-Com:  0.246D+01-0.644D+00 0.712D+00-0.202D+01 0.117D+01 0.753D+00
 Coeff-Com: -0.129D+01 0.224D+01-0.238D+01
 Coeff-En:   0.000D+00 0.000D+00 0.000D+00 0.000D+00 0.000D+00 0.000D+00
 Coeff-En:   0.000D+00 0.000D+00 0.100D+01
 Coeff:      0.246D+01-0.644D+00 0.712D+00-0.202D+01 0.117D+01 0.753D+00
 Coeff:     -0.129D+01 0.224D+01-0.238D+01
 Gap=     0.351 Goal=   None    Shift=    0.000
 Gap=     0.442 Goal=   None    Shift=    0.000
 RMSDP=9.19D-03 MaxDP=4.06D-01 DE= 8.23D-04 OVMax= 3.43D-01

 Cycle  23  Pass 1  IDiag  1:
 RMSU=  1.31D-03    CP:  1.00D+00  3.00D+00  3.00D+00  3.00D+00  3.00D+00
                    CP: -3.00D+00 -3.00D+00  3.00D+00 -3.00D+00
 E= -153.420018954974     Delta-E=       -0.001683862608 Rises=F Damp=F
 DIIS: error= 2.86D-03 at cycle  10 NSaved=  10.
 NSaved=10 IEnMin=10 EnMin= -153.420018954974     IErMin= 1 ErrMin= 4.31D-04
 ErrMax= 2.86D-03  0.00D+00 EMaxC= 1.00D-01 BMatC= 2.08D-03 BMatP= 1.63D-05
 IDIUse=3 WtCom= 9.96D-01 WtEn= 4.45D-03
 Coeff-Com:  0.907D+00-0.374D+00 0.157D+01-0.548D+01 0.305D+01 0.302D+01
 Coeff-Com:  0.292D+01-0.294D+01-0.180D+01 0.124D+00
 Coeff-En:   0.000D+00 0.000D+00 0.000D+00 0.000D+00 0.000D+00 0.000D+00
 Coeff-En:   0.000D+00 0.000D+00 0.000D+00 0.100D+01
 Coeff:      0.903D+00-0.372D+00 0.156D+01-0.546D+01 0.304D+01 0.301D+01
 Coeff:      0.291D+01-0.293D+01-0.179D+01 0.128D+00
 Gap=     0.383 Goal=   None    Shift=    0.000
 Gap=     0.481 Goal=   None    Shift=    0.000
 RMSDP=2.44D-03 MaxDP=1.11D-01 DE=-1.68D-03 OVMax= 8.52D-02

 Cycle  24  Pass 1  IDiag  1:
 RMSU=  3.67D-04    CP:  1.00D+00  3.00D+00  3.00D+00  3.00D+00  3.00D+00
                    CP: -3.00D+00 -3.00D+00  3.00D+00 -2.17D+00  2.08D-01
 E= -153.420236275085     Delta-E=       -0.000217320111 Rises=F Damp=F
 DIIS: error= 1.11D-03 at cycle  11 NSaved=  11.
 NSaved=11 IEnMin=11 EnMin= -153.420236275085     IErMin= 1 ErrMin= 4.31D-04
 ErrMax= 1.11D-03  0.00D+00 EMaxC= 1.00D-01 BMatC= 3.41D-04 BMatP= 1.63D-05
 IDIUse=3 WtCom= 9.96D-01 WtEn= 4.45D-03
 Coeff-Com:  0.895D+00-0.346D+00 0.174D+01-0.622D+01 0.284D+01 0.470D+01
 Coeff-Com:  0.133D+01-0.234D+01-0.147D+01 0.253D+00-0.389D+00
 Coeff-En:   0.000D+00 0.000D+00 0.000D+00 0.000D+00 0.000D+00 0.000D+00
 Coeff-En:   0.000D+00 0.000D+00 0.000D+00 0.000D+00 0.100D+01
 Coeff:      0.891D+00-0.345D+00 0.173D+01-0.620D+01 0.283D+01 0.468D+01
 Coeff:      0.132D+01-0.233D+01-0.146D+01 0.252D+00-0.383D+00
 Gap=     0.382 Goal=   None    Shift=    0.000
 Gap=     0.480 Goal=   None    Shift=    0.000
 RMSDP=8.24D-04 MaxDP=3.81D-02 DE=-2.17D-04 OVMax= 3.12D-02

 Cycle  25  Pass 1  IDiag  1:
 RMSU=  2.29D-05    CP:  1.00D+00  3.00D+00  3.00D+00  3.00D+00  3.00D+00
                    CP: -3.00D+00 -3.00D+00  3.00D+00 -1.68D+00  1.49D-01
                    CP:  7.29D-01
 E= -153.420058645913     Delta-E=        0.000177629171 Rises=F Damp=F
 DIIS: error= 7.89D-04 at cycle  12 NSaved=  12.
 NSaved=12 IEnMin=11 EnMin= -153.420236275085     IErMin= 1 ErrMin= 4.31D-04
 ErrMax= 7.89D-04  0.00D+00 EMaxC= 1.00D-01 BMatC= 1.90D-04 BMatP= 1.63D-05
 IDIUse=3 WtCom= 9.96D-01 WtEn= 4.45D-03
 Rare condition: small coef for last iteration:  0.000D+00
 Coeff-Com:  0.137D+01-0.789D+00 0.193D+01-0.467D+01-0.196D-02 0.940D+01
 Coeff-Com: -0.410D+01 0.417D+00-0.132D+01-0.290D+00 0.538D+01-0.632D+01
 Coeff-En:   0.000D+00 0.000D+00 0.000D+00 0.000D+00 0.000D+00 0.000D+00
 Coeff-En:   0.000D+00 0.000D+00 0.000D+00 0.000D+00 0.000D+00 0.100D+01
 Coeff:      0.137D+01-0.789D+00 0.193D+01-0.467D+01-0.196D-02 0.940D+01
 Coeff:     -0.410D+01 0.417D+00-0.132D+01-0.290D+00 0.538D+01-0.632D+01
 Gap=     0.385 Goal=   None    Shift=    0.000
 Gap=     0.484 Goal=   None    Shift=    0.000
 RMSDP=1.65D-03 MaxDP=8.13D-02 DE= 1.78D-04 OVMax= 6.21D-02

 Cycle  26  Pass 1  IDiag  1:
 RMSU=  6.05D-05    CP:  1.00D+00  3.00D+00  3.00D+00  3.00D+00  3.00D+00
                    CP: -3.00D+00 -3.00D+00  3.00D+00 -2.65D+00  2.93D-01
                    CP:  1.45D+00  9.22D-01
 E= -153.420432236758     Delta-E=       -0.000373590844 Rises=F Damp=F
 DIIS: error= 1.15D-03 at cycle  13 NSaved=  13.
 NSaved=13 IEnMin=13 EnMin= -153.420432236758     IErMin= 1 ErrMin= 4.31D-04
 ErrMax= 1.15D-03  0.00D+00 EMaxC= 1.00D-01 BMatC= 3.61D-04 BMatP= 1.63D-05
 IDIUse=3 WtCom= 9.96D-01 WtEn= 4.45D-03
 Coeff-Com:  0.123D+01-0.478D+00 0.127D+01-0.467D+01 0.657D+00 0.667D+01
 Coeff-Com: -0.233D+01 0.287D+00-0.117D+01-0.230D+00 0.734D+00-0.289D+01
 Coeff-Com:  0.193D+01
 Coeff-En:   0.000D+00 0.000D+00 0.000D+00 0.000D+00 0.000D+00 0.000D+00
 Coeff-En:   0.000D+00 0.000D+00 0.000D+00 0.000D+00 0.000D+00 0.000D+00
 Coeff-En:   0.100D+01
 Coeff:      0.122D+01-0.476D+00 0.126D+01-0.465D+01 0.654D+00 0.664D+01
 Coeff:     -0.232D+01 0.285D+00-0.117D+01-0.229D+00 0.730D+00-0.288D+01
 Coeff:      0.192D+01
 Gap=     0.386 Goal=   None    Shift=    0.000
 Gap=     0.487 Goal=   None    Shift=    0.000
 RMSDP=7.54D-04 MaxDP=4.22D-02 DE=-3.74D-04 OVMax= 2.71D-02

 Cycle  27  Pass 1  IDiag  1:
 RMSU=  1.60D-05    CP:  1.00D+00  3.00D+00  3.00D+00  3.00D+00  3.00D+00
                    CP: -3.00D+00 -3.00D+00  3.00D+00 -3.00D+00  4.56D-01
                    CP:  1.74D+00  3.00D+00  2.58D+00
 E= -153.420595814243     Delta-E=       -0.000163577486 Rises=F Damp=F
 DIIS: error= 1.05D-03 at cycle  14 NSaved=  14.
 NSaved=14 IEnMin=14 EnMin= -153.420595814243     IErMin= 1 ErrMin= 4.31D-04
 ErrMax= 1.05D-03  0.00D+00 EMaxC= 1.00D-01 BMatC= 2.95D-04 BMatP= 1.63D-05
 IDIUse=3 WtCom= 9.96D-01 WtEn= 4.45D-03
 Coeff-Com:  0.704D+00-0.100D+01 0.180D+01 0.599D+00-0.168D+01 0.548D+01
 Coeff-Com: -0.389D+01-0.318D+00-0.116D-01-0.379D+00 0.886D+01-0.611D+01
 Coeff-Com: -0.821D+01 0.517D+01
 Coeff-En:   0.000D+00 0.000D+00 0.000D+00 0.000D+00 0.000D+00 0.000D+00
 Coeff-En:   0.000D+00 0.000D+00 0.000D+00 0.000D+00 0.000D+00 0.000D+00
 Coeff-En:   0.000D+00 0.100D+01
 Coeff:      0.701D+00-0.996D+00 0.179D+01 0.597D+00-0.168D+01 0.545D+01
 Coeff:     -0.387D+01-0.317D+00-0.115D-01-0.377D+00 0.882D+01-0.608D+01
 Coeff:     -0.818D+01 0.515D+01
 Gap=     0.367 Goal=   None    Shift=    0.000
 Gap=     0.479 Goal=   None    Shift=    0.000
 RMSDP=1.19D-03 MaxDP=6.35D-02 DE=-1.64D-04 OVMax= 4.22D-02

 Cycle  28  Pass 1  IDiag  1:
 RMSU=  2.13D-04    CP:  1.00D+00  3.00D+00  3.00D+00  3.00D+00  3.00D+00
                    CP: -3.00D+00 -3.00D+00  3.00D+00 -2.39D+00  3.53D-01
                    CP:  2.02D+00  3.00D+00  3.00D+00  3.00D+00
 E= -153.420438050595     Delta-E=        0.000157763648 Rises=F Damp=F
 DIIS: error= 5.51D-04 at cycle  15 NSaved=  15.
 NSaved=15 IEnMin=14 EnMin= -153.420595814243     IErMin= 1 ErrMin= 4.31D-04
 ErrMax= 5.51D-04  0.00D+00 EMaxC= 1.00D-01 BMatC= 6.89D-05 BMatP= 1.63D-05
 IDIUse=3 WtCom= 9.96D-01 WtEn= 4.45D-03
 Rare condition: small coef for last iteration:  0.000D+00
 Coeff-Com:  0.791D+00-0.951D+00 0.168D+01 0.396D+00-0.182D+01 0.566D+01
 Coeff-Com: -0.417D+01-0.826D-01 0.983D-01-0.357D+00 0.852D+01-0.617D+01
 Coeff-Com: -0.770D+01 0.497D+01 0.144D+00
 Coeff-En:   0.000D+00 0.000D+00 0.000D+00 0.000D+00 0.000D+00 0.000D+00
 Coeff-En:   0.000D+00 0.000D+00 0.000D+00 0.000D+00 0.000D+00 0.000D+00
 Coeff-En:   0.000D+00 0.000D+00 0.100D+01
 Coeff:      0.791D+00-0.951D+00 0.168D+01 0.396D+00-0.182D+01 0.566D+01
 Coeff:     -0.417D+01-0.826D-01 0.983D-01-0.357D+00 0.852D+01-0.617D+01
 Coeff:     -0.770D+01 0.497D+01 0.144D+00
 Gap=     0.367 Goal=   None    Shift=    0.000
 Gap=     0.480 Goal=   None    Shift=    0.000
 RMSDP=3.85D-04 MaxDP=2.09D-02 DE= 1.58D-04 OVMax= 1.51D-02

 Cycle  29  Pass 1  IDiag  1:
 RMSU=  1.33D-05    CP:  1.00D+00  3.00D+00  3.00D+00  3.00D+00  3.00D+00
                    CP: -3.00D+00 -3.00D+00  3.00D+00 -2.61D+00  3.96D-01
                    CP:  2.26D+00  3.00D+00  3.00D+00  3.00D+00  1.19D+00
 E= -153.420528525233     Delta-E=       -0.000090474637 Rises=F Damp=F
 DIIS: error= 5.13D-04 at cycle  16 NSaved=  16.
 NSaved=16 IEnMin=14 EnMin= -153.420595814243     IErMin= 1 ErrMin= 4.31D-04
 ErrMax= 5.13D-04  0.00D+00 EMaxC= 1.00D-01 BMatC= 7.60D-05 BMatP= 1.63D-05
 IDIUse=3 WtCom= 9.96D-01 WtEn= 4.45D-03
 Coeff-Com: -0.860D+00-0.210D+00 0.145D+01 0.963D+00 0.154D+00 0.127D+01
 Coeff-Com: -0.172D+01-0.110D+00 0.405D-01 0.215D+00 0.488D+01-0.273D+01
 Coeff-Com: -0.413D+01 0.147D+01-0.742D+01 0.774D+01
 Coeff-En:   0.000D+00 0.000D+00 0.000D+00 0.000D+00 0.000D+00 0.000D+00
 Coeff-En:   0.000D+00 0.000D+00 0.000D+00 0.000D+00 0.000D+00 0.000D+00
 Coeff-En:   0.000D+00 0.000D+00 0.000D+00 0.100D+01
 Coeff:     -0.856D+00-0.210D+00 0.144D+01 0.959D+00 0.153D+00 0.126D+01
 Coeff:     -0.171D+01-0.110D+00 0.403D-01 0.214D+00 0.486D+01-0.272D+01
 Coeff:     -0.411D+01 0.146D+01-0.739D+01 0.771D+01
 Gap=     0.370 Goal=   None    Shift=    0.000
 Gap=     0.485 Goal=   None    Shift=    0.000
 RMSDP=1.11D-03 MaxDP=5.59D-02 DE=-9.05D-05 OVMax= 4.34D-02

 Cycle  30  Pass 1  IDiag  1:
 RMSU=  2.20D-05    CP:  1.01D+00  3.00D+00  3.00D+00  3.00D+00  3.00D+00
                    CP: -3.00D+00 -3.00D+00  3.00D+00 -3.00D+00  7.61D-01
                    CP:  2.16D+00  3.00D+00  3.00D+00  3.00D+00  1.75D+00
                    CP:  2.32D+00
 E= -153.420756428218     Delta-E=       -0.000227902986 Rises=F Damp=F
 DIIS: error= 2.83D-04 at cycle  17 NSaved=  17.
 NSaved=17 IEnMin=17 EnMin= -153.420756428218     IErMin=17 ErrMin= 2.83D-04
 ErrMax= 2.83D-04  0.00D+00 EMaxC= 1.00D-01 BMatC= 2.32D-05 BMatP= 1.63D-05
 IDIUse=3 WtCom= 9.96D-01 WtEn= 4.45D-03
 Coeff-Com:  0.163D+00-0.107D+00 0.154D+00-0.138D+00 0.327D-01 0.693D+00
 Coeff-Com:  0.577D+00-0.127D+01 0.268D-01-0.416D-01 0.161D+01-0.108D+01
 Coeff-Com: -0.175D+01 0.118D+01 0.430D+00-0.127D+01 0.179D+01
 Coeff-En:   0.000D+00 0.000D+00 0.000D+00 0.000D+00 0.000D+00 0.000D+00
 Coeff-En:   0.000D+00 0.000D+00 0.000D+00 0.000D+00 0.000D+00 0.000D+00
 Coeff-En:   0.000D+00 0.000D+00 0.000D+00 0.000D+00 0.100D+01
 Coeff:      0.162D+00-0.107D+00 0.153D+00-0.138D+00 0.326D-01 0.690D+00
 Coeff:      0.575D+00-0.126D+01 0.267D-01-0.414D-01 0.160D+01-0.108D+01
 Coeff:     -0.174D+01 0.117D+01 0.428D+00-0.127D+01 0.179D+01
 Gap=     0.372 Goal=   None    Shift=    0.000
 Gap=     0.488 Goal=   None    Shift=    0.000
 RMSDP=9.14D-04 MaxDP=4.89D-02 DE=-2.28D-04 OVMax= 3.47D-02

 Cycle  31  Pass 1  IDiag  1:
 RMSU=  2.87D-05    CP:  1.01D+00  3.00D+00  3.00D+00  3.00D+00  3.00D+00
                    CP: -3.00D+00 -3.00D+00  3.00D+00 -3.00D+00  1.39D+00
                    CP:  1.36D+00  3.00D+00  3.00D+00  3.00D+00  2.79D+00
                    CP:  2.83D+00  3.00D+00
 E= -153.420821146123     Delta-E=       -0.000064717904 Rises=F Damp=F
 DIIS: error= 2.26D-04 at cycle  18 NSaved=  18.
 NSaved=18 IEnMin=18 EnMin= -153.420821146123     IErMin=18 ErrMin= 2.26D-04
 ErrMax= 2.26D-04  0.00D+00 EMaxC= 1.00D-01 BMatC= 1.31D-05 BMatP= 1.63D-05
 IDIUse=3 WtCom= 9.98D-01 WtEn= 2.26D-03
 Coeff-Com:  0.117D+00-0.576D-01 0.932D-01 0.769D-02-0.355D+00 0.153D+00
 Coeff-Com: -0.306D+00 0.233D+00 0.549D-01 0.812D-03-0.210D+00-0.208D+00
 Coeff-Com:  0.559D+00-0.134D+00 0.214D+01-0.203D+01-0.403D+00 0.135D+01
 Coeff-En:   0.000D+00 0.000D+00 0.000D+00 0.000D+00 0.000D+00 0.000D+00
 Coeff-En:   0.000D+00 0.000D+00 0.000D+00 0.000D+00 0.000D+00 0.000D+00
 Coeff-En:   0.000D+00 0.000D+00 0.000D+00 0.000D+00 0.000D+00 0.100D+01
 Coeff:      0.117D+00-0.575D-01 0.930D-01 0.767D-02-0.355D+00 0.152D+00
 Coeff:     -0.306D+00 0.232D+00 0.548D-01 0.810D-03-0.209D+00-0.207D+00
 Coeff:      0.558D+00-0.133D+00 0.214D+01-0.203D+01-0.402D+00 0.135D+01
 Gap=     0.375 Goal=   None    Shift=    0.000
 Gap=     0.489 Goal=   None    Shift=    0.000
 RMSDP=9.57D-05 MaxDP=5.17D-03 DE=-6.47D-05 OVMax= 2.60D-03

 Cycle  32  Pass 1  IDiag  1:
 RMSU=  2.10D-06    CP:  1.01D+00  3.00D+00  3.00D+00  3.00D+00  3.00D+00
                    CP: -3.00D+00 -3.00D+00  3.00D+00 -3.00D+00  1.43D+00
                    CP:  1.18D+00  3.00D+00  3.00D+00  3.00D+00  2.63D+00
                    CP:  2.31D+00  3.00D+00  9.56D-01
 E= -153.420826154901     Delta-E=       -0.000005008778 Rises=F Damp=F
 DIIS: error= 1.62D-05 at cycle  19 NSaved=  19.
 NSaved=19 IEnMin=19 EnMin= -153.420826154901     IErMin=19 ErrMin= 1.62D-05
 ErrMax= 1.62D-05  0.00D+00 EMaxC= 1.00D-01 BMatC= 2.28D-08 BMatP= 1.31D-05
 IDIUse=1 WtCom= 1.00D+00 WtEn= 0.00D+00
 Coeff-Com: -0.477D-02 0.242D-01-0.977D-01 0.272D-01 0.709D-02-0.661D-01
 Coeff-Com:  0.150D-01 0.693D-01 0.342D-03 0.302D-02-0.156D+00 0.158D+00
 Coeff-Com:  0.475D-01-0.350D-01 0.767D-01-0.866D-01 0.533D-01-0.109D+00
 Coeff-Com:  0.107D+01
 Coeff:     -0.477D-02 0.242D-01-0.977D-01 0.272D-01 0.709D-02-0.661D-01
 Coeff:      0.150D-01 0.693D-01 0.342D-03 0.302D-02-0.156D+00 0.158D+00
 Coeff:      0.475D-01-0.350D-01 0.767D-01-0.866D-01 0.533D-01-0.109D+00
 Coeff:      0.107D+01
 Gap=     0.375 Goal=   None    Shift=    0.000
 Gap=     0.489 Goal=   None    Shift=    0.000
 RMSDP=6.86D-05 MaxDP=3.82D-03 DE=-5.01D-06 OVMax= 2.55D-03

 Cycle  33  Pass 1  IDiag  1:
 RMSU=  1.12D-06    CP:  1.01D+00  3.00D+00  3.00D+00  3.00D+00  3.00D+00
                    CP: -3.00D+00 -3.00D+00  3.00D+00 -3.00D+00  1.38D+00
                    CP:  1.24D+00  3.00D+00  3.00D+00  3.00D+00  2.55D+00
                    CP:  2.26D+00  2.90D+00  8.59D-01  9.55D-01
 E= -153.420826311555     Delta-E=       -0.000000156654 Rises=F Damp=F
 DIIS: error= 6.65D-06 at cycle  20 NSaved=  20.
 NSaved=20 IEnMin=20 EnMin= -153.420826311555     IErMin=20 ErrMin= 6.65D-06
 ErrMax= 6.65D-06  0.00D+00 EMaxC= 1.00D-01 BMatC= 9.28D-09 BMatP= 2.28D-08
 IDIUse=1 WtCom= 1.00D+00 WtEn= 0.00D+00
 Coeff-Com: -0.123D-01 0.218D-03 0.195D-01-0.989D-02 0.289D-01-0.296D-01
 Coeff-Com:  0.479D-01-0.352D-01-0.756D-02 0.434D-03-0.169D-01 0.341D-01
 Coeff-Com: -0.222D-01 0.149D-01-0.197D+00 0.211D+00-0.648D-01 0.136D-01
 Coeff-Com: -0.314D+00 0.134D+01
 Coeff:     -0.123D-01 0.218D-03 0.195D-01-0.989D-02 0.289D-01-0.296D-01
 Coeff:      0.479D-01-0.352D-01-0.756D-02 0.434D-03-0.169D-01 0.341D-01
 Coeff:     -0.222D-01 0.149D-01-0.197D+00 0.211D+00-0.648D-01 0.136D-01
 Coeff:     -0.314D+00 0.134D+01
 Gap=     0.375 Goal=   None    Shift=    0.000
 Gap=     0.489 Goal=   None    Shift=    0.000
 RMSDP=2.01D-05 MaxDP=1.15D-03 DE=-1.57D-07 OVMax= 7.46D-04

 Cycle  34  Pass 1  IDiag  1:
 Restarting incremental Fock formation.
 E= -153.420826343792     Delta-E=       -0.000000032236 Rises=F Damp=F
 DIIS: error= 7.83D-07 at cycle  21 NSaved=  20.
 NSaved=20 IEnMin=20 EnMin= -153.420826343792     IErMin=20 ErrMin= 7.83D-07
 ErrMax= 7.83D-07  0.00D+00 EMaxC= 1.00D-01 BMatC= 1.50D-10 BMatP= 9.28D-09
 IDIUse=1 WtCom= 1.00D+00 WtEn= 0.00D+00
 Coeff-Com:  0.410D-02-0.223D-02 0.476D-02 0.376D-03-0.120D-01 0.901D-02
 Coeff-Com: -0.111D-01 0.726D-02-0.195D-02 0.181D-01-0.227D-01 0.332D-02
 Coeff-Com:  0.765D-03 0.217D-01-0.221D-01 0.785D-02 0.268D-02-0.459D-01
 Coeff-Com: -0.283D+00 0.132D+01
 Coeff:      0.410D-02-0.223D-02 0.476D-02 0.376D-03-0.120D-01 0.901D-02
 Coeff:     -0.111D-01 0.726D-02-0.195D-02 0.181D-01-0.227D-01 0.332D-02
 Coeff:      0.765D-03 0.217D-01-0.221D-01 0.785D-02 0.268D-02-0.459D-01
 Coeff:     -0.283D+00 0.132D+01
 Gap=     0.375 Goal=   None    Shift=    0.000
 Gap=     0.489 Goal=   None    Shift=    0.000
 RMSDP=1.53D-05 MaxDP=7.97D-04 DE=-3.22D-08 OVMax= 5.52D-04

 Cycle  35  Pass 1  IDiag  1:
 RMSU=  1.50D-05    CP:  1.00D+00
 E= -153.420826323194     Delta-E=        0.000000020597 Rises=F Damp=F
 DIIS: error= 5.49D-06 at cycle  22 NSaved=  20.
 NSaved=20 IEnMin=19 EnMin= -153.420826343792     IErMin=19 ErrMin= 7.83D-07
 ErrMax= 5.49D-06  0.00D+00 EMaxC= 1.00D-01 BMatC= 8.46D-09 BMatP= 1.50D-10
 IDIUse=1 WtCom= 1.00D+00 WtEn= 0.00D+00
 Coeff-Com:  0.200D-02-0.421D-03 0.162D-02-0.783D-02 0.644D-03 0.834D-02
 Coeff-Com: -0.371D-02-0.131D-02 0.498D-02-0.111D-01 0.176D-01-0.149D-01
 Coeff-Com:  0.309D-02-0.211D-02 0.105D-01 0.152D-03-0.801D-01 0.133D+00
 Coeff-Com: -0.393D-01 0.979D+00
 Coeff:      0.200D-02-0.421D-03 0.162D-02-0.783D-02 0.644D-03 0.834D-02
 Coeff:     -0.371D-02-0.131D-02 0.498D-02-0.111D-01 0.176D-01-0.149D-01
 Coeff:      0.309D-02-0.211D-02 0.105D-01 0.152D-03-0.801D-01 0.133D+00
 Coeff:     -0.393D-01 0.979D+00
 Gap=     0.375 Goal=   None    Shift=    0.000
 Gap=     0.489 Goal=   None    Shift=    0.000
 RMSDP=1.42D-05 MaxDP=7.14D-04 DE= 2.06D-08 OVMax= 5.09D-04

 Cycle  36  Pass 1  IDiag  1:
 RMSU=  4.07D-07    CP:  1.00D+00  6.83D-02
 E= -153.420826343756     Delta-E=       -0.000000020562 Rises=F Damp=F
 DIIS: error= 3.39D-07 at cycle  23 NSaved=  20.
 NSaved=20 IEnMin=18 EnMin= -153.420826343792     IErMin=20 ErrMin= 3.39D-07
 ErrMax= 3.39D-07  0.00D+00 EMaxC= 1.00D-01 BMatC= 8.81D-12 BMatP= 1.50D-10
 IDIUse=1 WtCom= 1.00D+00 WtEn= 0.00D+00
 Coeff-Com:  0.213D-03-0.855D-03 0.601D-03 0.107D-02-0.351D-02 0.174D-02
 Coeff-Com:  0.590D-03-0.808D-02 0.583D-02 0.122D-02 0.219D-02 0.105D-01
 Coeff-Com: -0.117D-01-0.297D-02 0.318D-02 0.169D-01-0.473D-01-0.532D-01
 Coeff-Com: -0.392D+00 0.148D+01
 Coeff:      0.213D-03-0.855D-03 0.601D-03 0.107D-02-0.351D-02 0.174D-02
 Coeff:      0.590D-03-0.808D-02 0.583D-02 0.122D-02 0.219D-02 0.105D-01
 Coeff:     -0.117D-01-0.297D-02 0.318D-02 0.169D-01-0.473D-01-0.532D-01
 Coeff:     -0.392D+00 0.148D+01
 Gap=     0.375 Goal=   None    Shift=    0.000
 Gap=     0.489 Goal=   None    Shift=    0.000
 RMSDP=1.33D-06 MaxDP=7.69D-05 DE=-2.06D-08 OVMax= 4.76D-05

 Cycle  37  Pass 1  IDiag  1:
 RMSU=  1.10D-07    CP:  1.00D+00 -1.59D-02  6.22D-01
 E= -153.420826343839     Delta-E=       -0.000000000083 Rises=F Damp=F
 DIIS: error= 2.92D-07 at cycle  24 NSaved=  20.
 NSaved=20 IEnMin=20 EnMin= -153.420826343839     IErMin=20 ErrMin= 2.92D-07
 ErrMax= 2.92D-07  0.00D+00 EMaxC= 1.00D-01 BMatC= 2.09D-11 BMatP= 8.81D-12
 IDIUse=1 WtCom= 1.00D+00 WtEn= 0.00D+00
 Coeff-Com: -0.103D-03 0.296D-03 0.816D-04-0.314D-04-0.630D-04-0.269D-04
 Coeff-Com:  0.130D-02-0.534D-03-0.153D-02 0.613D-03-0.206D-02 0.230D-02
 Coeff-Com: -0.530D-03 0.258D-05 0.478D-02-0.573D-02 0.157D-01-0.204D-01
 Coeff-Com: -0.199D+00 0.120D+01
 Coeff:     -0.103D-03 0.296D-03 0.816D-04-0.314D-04-0.630D-04-0.269D-04
 Coeff:      0.130D-02-0.534D-03-0.153D-02 0.613D-03-0.206D-02 0.230D-02
 Coeff:     -0.530D-03 0.258D-05 0.478D-02-0.573D-02 0.157D-01-0.204D-01
 Coeff:     -0.199D+00 0.120D+01
 Gap=     0.375 Goal=   None    Shift=    0.000
 Gap=     0.489 Goal=   None    Shift=    0.000
 RMSDP=1.61D-07 MaxDP=8.28D-06 DE=-8.32D-11 OVMax= 3.50D-06

 Cycle  38  Pass 1  IDiag  1:
 RMSU=  2.47D-08    CP:  1.00D+00 -2.10D-02  8.80D-01  5.02D-01
 E= -153.420826343844     Delta-E=       -0.000000000004 Rises=F Damp=F
 DIIS: error= 1.31D-07 at cycle  25 NSaved=  20.
 NSaved=20 IEnMin=20 EnMin= -153.420826343844     IErMin=20 ErrMin= 1.31D-07
 ErrMax= 1.31D-07  0.00D+00 EMaxC= 1.00D-01 BMatC= 4.99D-12 BMatP= 8.81D-12
 IDIUse=1 WtCom= 1.00D+00 WtEn= 0.00D+00
 Large coefficients: NSaved= 20 BigCof=    0.00 CofMax=   10.00 Det=-8.34D-15
 Inversion failed.  Reducing to 19 matrices.
 Large coefficients: NSaved= 19 BigCof=    0.00 CofMax=   10.00 Det=-8.34D-15
 Inversion failed.  Reducing to 18 matrices.
 Large coefficients: NSaved= 18 BigCof=    0.00 CofMax=   10.00 Det=-8.63D-15
 Inversion failed.  Reducing to 17 matrices.
 Large coefficients: NSaved= 17 BigCof=    0.00 CofMax=   10.00 Det=-8.86D-15
 Inversion failed.  Reducing to 16 matrices.
 Coeff-Com: -0.317D-04 0.200D-03-0.178D-03 0.784D-04-0.939D-04-0.107D-04
 Coeff-Com: -0.110D-03 0.613D-03-0.965D-03 0.107D-03 0.188D-03 0.621D-03
 Coeff-Com:  0.430D-01-0.624D-01-0.426D+00 0.144D+01
 Coeff:     -0.317D-04 0.200D-03-0.178D-03 0.784D-04-0.939D-04-0.107D-04
 Coeff:     -0.110D-03 0.613D-03-0.965D-03 0.107D-03 0.188D-03 0.621D-03
 Coeff:      0.430D-01-0.624D-01-0.426D+00 0.144D+01
 Gap=     0.375 Goal=   None    Shift=    0.000
 Gap=     0.489 Goal=   None    Shift=    0.000
 RMSDP=3.11D-07 MaxDP=1.52D-05 DE=-4.41D-12 OVMax= 1.12D-05

 Cycle  39  Pass 1  IDiag  1:
 RMSU=  2.27D-09    CP:  1.00D+00 -4.73D-04  8.32D-01  5.67D-01  1.03D+00
 E= -153.420826343849     Delta-E=       -0.000000000006 Rises=F Damp=F
 DIIS: error= 2.70D-08 at cycle  26 NSaved=  17.
 NSaved=17 IEnMin=17 EnMin= -153.420826343849     IErMin=17 ErrMin= 2.70D-08
 ErrMax= 2.70D-08  0.00D+00 EMaxC= 1.00D-01 BMatC= 2.00D-13 BMatP= 4.99D-12
 IDIUse=1 WtCom= 1.00D+00 WtEn= 0.00D+00
 Large coefficients: NSaved= 17 BigCof=    0.00 CofMax=   10.00 Det=-1.31D-15
 Inversion failed.  Reducing to 16 matrices.
 Large coefficients: NSaved= 16 BigCof=    0.00 CofMax=   10.00 Det=-1.45D-15
 Inversion failed.  Reducing to 15 matrices.
 Coeff-Com:  0.477D-04-0.123D-03 0.995D-04 0.832D-05-0.215D-04-0.567D-04
 Coeff-Com:  0.331D-03-0.982D-03 0.116D-02 0.299D-03-0.205D-01 0.407D-01
 Coeff-Com:  0.237D-01-0.702D+00 0.166D+01
 Coeff:      0.477D-04-0.123D-03 0.995D-04 0.832D-05-0.215D-04-0.567D-04
 Coeff:      0.331D-03-0.982D-03 0.116D-02 0.299D-03-0.205D-01 0.407D-01
 Coeff:      0.237D-01-0.702D+00 0.166D+01
 Gap=     0.375 Goal=   None    Shift=    0.000
 Gap=     0.489 Goal=   None    Shift=    0.000
 RMSDP=6.98D-08 MaxDP=3.53D-06 DE=-5.60D-12 OVMax= 2.49D-06

 Cycle  40  Pass 1  IDiag  1:
 RMSU=  8.41D-10    CP:  1.00D+00 -5.06D-03  8.37D-01  5.75D-01  1.03D+00
                    CP:  1.31D+00
 E= -153.420826343850     Delta-E=       -0.000000000000 Rises=F Damp=F
 DIIS: error= 3.32D-09 at cycle  27 NSaved=  16.
 NSaved=16 IEnMin=16 EnMin= -153.420826343850     IErMin=16 ErrMin= 3.32D-09
 ErrMax= 3.32D-09  0.00D+00 EMaxC= 1.00D-01 BMatC= 1.74D-15 BMatP= 2.00D-13
 IDIUse=1 WtCom= 1.00D+00 WtEn= 0.00D+00
 Large coefficients: NSaved= 16 BigCof=    0.00 CofMax=   10.00 Det=-1.84D-16
 Inversion failed.  Reducing to 15 matrices.
 Coeff-Com:  0.344D-04-0.424D-04-0.198D-04 0.700D-04-0.985D-04 0.867D-04
 Coeff-Com:  0.956D-04-0.842D-04 0.647D-03 0.948D-03-0.114D-01 0.657D-01
 Coeff-Com: -0.433D-01-0.333D+00 0.132D+01
 Coeff:      0.344D-04-0.424D-04-0.198D-04 0.700D-04-0.985D-04 0.867D-04
 Coeff:      0.956D-04-0.842D-04 0.647D-03 0.948D-03-0.114D-01 0.657D-01
 Coeff:     -0.433D-01-0.333D+00 0.132D+01
 Gap=     0.375 Goal=   None    Shift=    0.000
 Gap=     0.489 Goal=   None    Shift=    0.000
 RMSDP=3.58D-08 MaxDP=1.90D-06 DE=-4.83D-13 OVMax= 1.32D-06

 Cycle  41  Pass 1  IDiag  1:
 RMSU=  2.88D-10    CP:  1.00D+00 -7.40D-03  8.35D-01  5.83D-01  1.01D+00
                    CP:  1.32D+00  1.29D+00
 E= -153.420826343850     Delta-E=       -0.000000000000 Rises=F Damp=F
 DIIS: error= 8.22D-09 at cycle  28 NSaved=  16.
 NSaved=16 IEnMin=16 EnMin= -153.420826343850     IErMin=15 ErrMin= 3.32D-09
 ErrMax= 8.22D-09  0.00D+00 EMaxC= 1.00D-01 BMatC= 1.14D-14 BMatP= 1.74D-15
 IDIUse=1 WtCom= 1.00D+00 WtEn= 0.00D+00
 Large coefficients: NSaved= 16 BigCof=    0.00 CofMax=   10.00 Det=-3.39D-17
 Inversion failed.  Reducing to 15 matrices.
 Coeff-Com: -0.253D-05 0.347D-05-0.176D-04 0.379D-04-0.324D-04 0.849D-05
 Coeff-Com:  0.843D-04-0.925D-03 0.491D-02-0.406D-02-0.191D-01 0.826D-01
 Coeff-Com: -0.901D-01-0.359D+00 0.139D+01
 Coeff:     -0.253D-05 0.347D-05-0.176D-04 0.379D-04-0.324D-04 0.849D-05
 Coeff:      0.843D-04-0.925D-03 0.491D-02-0.406D-02-0.191D-01 0.826D-01
 Coeff:     -0.901D-01-0.359D+00 0.139D+01
 Gap=     0.375 Goal=   None    Shift=    0.000
 Gap=     0.489 Goal=   None    Shift=    0.000
 RMSDP=2.89D-08 MaxDP=1.52D-06 DE=-4.26D-13 OVMax= 1.04D-06

 Cycle  42  Pass 1  IDiag  1:
 RMSU=  9.52D-11    CP:  1.00D+00 -5.51D-03  8.36D-01  5.78D-01  1.01D+00
                    CP:  1.29D+00  1.39D+00  1.26D+00
 E= -153.420826343850     Delta-E=        0.000000000001 Rises=F Damp=F
 DIIS: error= 1.21D-09 at cycle  29 NSaved=  16.
 NSaved=16 IEnMin=15 EnMin= -153.420826343850     IErMin=16 ErrMin= 1.21D-09
 ErrMax= 1.21D-09  0.00D+00 EMaxC= 1.00D-01 BMatC= 2.74D-16 BMatP= 1.74D-15
 IDIUse=1 WtCom= 1.00D+00 WtEn= 0.00D+00
 Large coefficients: NSaved= 16 BigCof=    0.00 CofMax=   10.00 Det=-3.36D-18
 Inversion failed.  Reducing to 15 matrices.
 Coeff-Com:  0.962D-06 0.875D-06-0.314D-05-0.118D-05-0.154D-04 0.472D-04
 Coeff-Com:  0.862D-04-0.176D-02 0.292D-02-0.226D-02-0.219D-01 0.722D-01
 Coeff-Com: -0.583D-01-0.375D+00 0.138D+01
 Coeff:      0.962D-06 0.875D-06-0.314D-05-0.118D-05-0.154D-04 0.472D-04
 Coeff:      0.862D-04-0.176D-02 0.292D-02-0.226D-02-0.219D-01 0.722D-01
 Coeff:     -0.583D-01-0.375D+00 0.138D+01
 Gap=     0.375 Goal=   None    Shift=    0.000
 Gap=     0.489 Goal=   None    Shift=    0.000
 RMSDP=4.05D-09 MaxDP=2.17D-07 DE= 5.12D-13 OVMax= 1.46D-07

 SCF Done:  E(UHF) =  -153.420826344     A.U. after   42 cycles
            NFock= 42  Conv=0.41D-08     -V/T= 2.0002
 <Sx>= 0.0000 <Sy>= 0.0000 <Sz>= 0.5000 <S**2>= 1.0497 S= 0.6400
 <L.S>= 0.000000000000E+00
 KE= 1.533845596293D+02 PE=-5.271775529542D+02 EE= 1.318777599212D+02
 Annihilation of the first spin contaminant:
 S**2 before annihilation     1.0497,   after     0.8115
 Leave Link  502 at Tue Oct 10 14:14:11 2017, MaxMem=    33554432 cpu:        86.4
 (Enter /usr/local/gaussian/2009-E.01/g09/l801.exe)
 Windowed orbitals will be sorted by symmetry type.
 ExpMin= 3.60D-02 ExpMax= 4.56D+03 ExpMxC= 6.82D+02 IAcc=3 IRadAn=         5 AccDes= 0.00D+00
 HarFok:  IExCor=  205 AccDes= 0.00D+00 IRadAn=         5 IDoV=-2 UseB2=F ITyADJ=14
 ICtDFT= 12500011 ScaDFX=  1.000000  1.000000  1.000000  1.000000
 Largest valence mixing into a core orbital is  1.19D-04
 Largest core mixing into a valence orbital is  3.67D-05
 Largest valence mixing into a core orbital is  1.49D-04
 Largest core mixing into a valence orbital is  4.52D-05
 Range of M.O.s used for correlation:     5   115
 NBasis=   116 NAE=    14 NBE=    13 NFC=     4 NFV=     0
 NROrb=    111 NOA=    10 NOB=     9 NVA=   101 NVB=   102

 **** Warning!!: The largest alpha MO coefficient is  0.24495941D+03


 **** Warning!!: The largest beta MO coefficient is  0.25278368D+03

 Leave Link  801 at Tue Oct 10 14:14:11 2017, MaxMem=    33554432 cpu:         0.8
 (Enter /usr/local/gaussian/2009-E.01/g09/l804.exe)
 Open-shell transformation, MDV=    33554432 ITran=4 ISComp=2.
 Semi-Direct transformation.
 ModeAB=           4 MOrb=            10 LenV=      33080080
 LASXX=      3276840 LTotXX=     3276840 LenRXX=     6681378
 LTotAB=     3404538 MaxLAS=     7229430 LenRXY=           0
 NonZer=     9958218 LenScr=    15718400 LnRSAI=     7229430
 LnScr1=    11612160 LExtra=           0 Total=     41241368
 MaxDsk=          -1 SrtSym=           T ITran=            4
 DoSDTr:  NPSUse=  8
 JobTyp=1 Pass  1:  I=   1 to  10.
 (rs|ai) integrals will be sorted in core.
 Complete sort for first half transformation.
 First half transformation complete.
 Begin second half transformation for I=  10.
 Complete sort for second half transformation.
 Second half transformation complete.
 ModeAB=           4 MOrb=             9 LenV=      33080080
 LASXX=      2993967 LTotXX=     2993967 LenRXX=     5570847
 LTotAB=     2576880 MaxLAS=     6506487 LenRXY=           0
 NonZer=     8564814 LenScr=    13602816 LnRSAI=     6506487
 LnScr1=    10508288 LExtra=           0 Total=     36188438
 MaxDsk=          -1 SrtSym=           T ITran=            4
 DoSDTr:  NPSUse=  8
 JobTyp=2 Pass  1:  I=   1 to   9.
 (rs|ai) integrals will be sorted in core.
 Complete sort for first half transformation.
 First half transformation complete.
 Complete sort for second half transformation.
 Second half transformation complete.
 Spin components of T(2) and E(2):
     alpha-alpha T2 =       0.2390815656D-01 E2=     -0.6389116705D-01
     alpha-beta  T2 =       0.1284384633D+00 E2=     -0.3579801635D+00
     beta-beta   T2 =       0.2184300622D-01 E2=     -0.5551734810D-01
 ANorm=    0.1083600307D+01
 E2 =    -0.4773886787D+00 EUMP2 =    -0.15389821502254D+03
 (S**2,0)=  0.10497D+01           (S**2,1)=  0.96621D+00
 E(PUHF)=      -0.15344343797D+03        E(PMP2)=      -0.15391801948D+03
 Leave Link  804 at Tue Oct 10 14:14:14 2017, MaxMem=    33554432 cpu:        20.5
 (Enter /usr/local/gaussian/2009-E.01/g09/l913.exe)
 CIDS:  MDV=    33554432.
 Frozen-core window:  NFC=   4 NFV=   0.
 IFCWin=0 IBDFC=1 NFBD=     0     0 NFCmp=     0     0 NFFFC=     0     0
 Using original routines for 1st iteration, S=T.
 Using DD4UQ or CC4UQ for 2nd and later iterations.
 Would need an additional         2293187 words for in-memory AO integral storage.
 CCSD(T)
 =======
 Iterations= 200 Convergence= 0.100D-06
 Iteration Nr.   1
 **********************
 DD1Dir will call FoFJK   3 times, MxPair=        88
 NAB=    90 NAA=    45 NBB=    36 NumPrc=  8.
 DD1Dir:  Pass   1 NRAB=    44 NRAA=     0 NRBB=     0 NR=    88.
 FoFJK:  IHMeth= 1 ICntrl=     200 DoSepK=F KAlg= 0 I1Cent=   0 FoldK=F
 IRaf= 990000000 NMat=  88 IRICut=     110 DoRegI=T DoRafI=T ISym2E=-1.
 FoFCou: FMM=F IPFlag=           0 FMFlag=      100000 FMFlg1=           0
         NFxFlg=           0 DoJE=F BraDBF=F KetDBF=F FulRan=T
         wScrn=  0.000000 ICntrl=     200 IOpCl=  0 I1Cent=           0 NGrid=           0
         NMat0=   88 NMatS0=      0 NMatT0=   44 NMatD0=   88 NMtDS0=    0 NMtDT0=    0
 Petite list used in FoFCou.
 DD1Dir:  Pass   2 NRAB=    44 NRAA=     0 NRBB=     0 NR=    88.
 DD1Dir:  Pass   3 NRAB=     2 NRAA=    45 NRBB=    36 NR=    85.
 E(PMP3)=      -0.15394539420D+03
 MP4(R+Q)=  0.11982831D-01
 Maximum subspace dimension=  5
 Norm of the A-vectors is  7.4183861D-01 conv= 1.00D-05.
 RLE energy=       -0.4984885835
 E3=       -0.32013774D-01        EUMP3=      -0.15393022880D+03
 E4(DQ)=   -0.96078017D-03        UMP4(DQ)=   -0.15393118958D+03
 E4(SDQ)=  -0.11369349D-01        UMP4(SDQ)=  -0.15394159815D+03
 VARIATIONAL ENERGIES WITH THE FIRST-ORDER WAVEFUNCTION:
 DE(Corr)= -0.49759554     E(Corr)=     -153.91842188    
 NORM(A)=   0.10967231D+01
 Iteration Nr.   2
 **********************
 DD1Dir will call FoFJK   3 times, MxPair=        88
 NAB=    90 NAA=    45 NBB=    36 NumPrc=  8.
 DD1Dir:  Pass   1 NRAB=    44 NRAA=     0 NRBB=     0 NR=    88.
 DD1Dir:  Pass   2 NRAB=    44 NRAA=     0 NRBB=     0 NR=    88.
 DD1Dir:  Pass   3 NRAB=     2 NRAA=    45 NRBB=    36 NR=    85.
 Norm of the A-vectors is  3.6196344D-01 conv= 1.00D-05.
 RLE energy=       -0.5218077385
 DE(Corr)= -0.51736616     E(CORR)=     -153.93819250     Delta=-1.98D-02
 NORM(A)=   0.11132237D+01
 Iteration Nr.   3
 **********************
 DD1Dir will call FoFJK   3 times, MxPair=        88
 NAB=    90 NAA=    45 NBB=    36 NumPrc=  8.
 DD1Dir:  Pass   1 NRAB=    44 NRAA=     0 NRBB=     0 NR=    88.
 DD1Dir:  Pass   2 NRAB=    44 NRAA=     0 NRBB=     0 NR=    88.
 DD1Dir:  Pass   3 NRAB=     2 NRAA=    45 NRBB=    36 NR=    85.
 Norm of the A-vectors is  1.1636720D-01 conv= 1.00D-05.
 RLE energy=       -0.5262671047
 DE(Corr)= -0.52116029     E(CORR)=     -153.94198663     Delta=-3.79D-03
 NORM(A)=   0.11271797D+01
 Iteration Nr.   4
 **********************
 DD1Dir will call FoFJK   3 times, MxPair=        88
 NAB=    90 NAA=    45 NBB=    36 NumPrc=  8.
 DD1Dir:  Pass   1 NRAB=    44 NRAA=     0 NRBB=     0 NR=    88.
 DD1Dir:  Pass   2 NRAB=    44 NRAA=     0 NRBB=     0 NR=    88.
 DD1Dir:  Pass   3 NRAB=     2 NRAA=    45 NRBB=    36 NR=    85.
 Norm of the A-vectors is  7.7357440D-02 conv= 1.00D-05.
 RLE energy=       -0.5281499199
 DE(Corr)= -0.52653259     E(CORR)=     -153.94735893     Delta=-5.37D-03
 NORM(A)=   0.11360540D+01
 Iteration Nr.   5
 **********************
 DD1Dir will call FoFJK   3 times, MxPair=        88
 NAB=    90 NAA=    45 NBB=    36 NumPrc=  8.
 DD1Dir:  Pass   1 NRAB=    44 NRAA=     0 NRBB=     0 NR=    88.
 DD1Dir:  Pass   2 NRAB=    44 NRAA=     0 NRBB=     0 NR=    88.
 DD1Dir:  Pass   3 NRAB=     2 NRAA=    45 NRBB=    36 NR=    85.
 Norm of the A-vectors is  3.8364079D-02 conv= 1.00D-05.
 RLE energy=       -0.5286277063
 DE(Corr)= -0.52815883     E(CORR)=     -153.94898517     Delta=-1.63D-03
 NORM(A)=   0.11395913D+01
 Iteration Nr.   6
 **********************
 DD1Dir will call FoFJK   3 times, MxPair=        88
 NAB=    90 NAA=    45 NBB=    36 NumPrc=  8.
 DD1Dir:  Pass   1 NRAB=    44 NRAA=     0 NRBB=     0 NR=    88.
 DD1Dir:  Pass   2 NRAB=    44 NRAA=     0 NRBB=     0 NR=    88.
 DD1Dir:  Pass   3 NRAB=     2 NRAA=    45 NRBB=    36 NR=    85.
 Norm of the A-vectors is  2.0271596D-02 conv= 1.00D-05.
 RLE energy=       -0.5284305774
 DE(Corr)= -0.52853451     E(CORR)=     -153.94936086     Delta=-3.76D-04
 NORM(A)=   0.11408801D+01
 Iteration Nr.   7
 **********************
 DD1Dir will call FoFJK   3 times, MxPair=        88
 NAB=    90 NAA=    45 NBB=    36 NumPrc=  8.
 DD1Dir:  Pass   1 NRAB=    44 NRAA=     0 NRBB=     0 NR=    88.
 DD1Dir:  Pass   2 NRAB=    44 NRAA=     0 NRBB=     0 NR=    88.
 DD1Dir:  Pass   3 NRAB=     2 NRAA=    45 NRBB=    36 NR=    85.
 Norm of the A-vectors is  1.2817597D-02 conv= 1.00D-05.
 RLE energy=       -0.5286891672
 DE(Corr)= -0.52865356     E(CORR)=     -153.94947990     Delta=-1.19D-04
 NORM(A)=   0.11415249D+01
 Iteration Nr.   8
 **********************
 DD1Dir will call FoFJK   3 times, MxPair=        88
 NAB=    90 NAA=    45 NBB=    36 NumPrc=  8.
 DD1Dir:  Pass   1 NRAB=    44 NRAA=     0 NRBB=     0 NR=    88.
 DD1Dir:  Pass   2 NRAB=    44 NRAA=     0 NRBB=     0 NR=    88.
 DD1Dir:  Pass   3 NRAB=     2 NRAA=    45 NRBB=    36 NR=    85.
 Norm of the A-vectors is  6.4419632D-03 conv= 1.00D-05.
 RLE energy=       -0.5286382964
 DE(Corr)= -0.52864286     E(CORR)=     -153.94946921     Delta= 1.07D-05
 NORM(A)=   0.11418051D+01
 Iteration Nr.   9
 **********************
 DD1Dir will call FoFJK   3 times, MxPair=        88
 NAB=    90 NAA=    45 NBB=    36 NumPrc=  8.
 DD1Dir:  Pass   1 NRAB=    44 NRAA=     0 NRBB=     0 NR=    88.
 DD1Dir:  Pass   2 NRAB=    44 NRAA=     0 NRBB=     0 NR=    88.
 DD1Dir:  Pass   3 NRAB=     2 NRAA=    45 NRBB=    36 NR=    85.
 Norm of the A-vectors is  3.5006743D-03 conv= 1.00D-05.
 RLE energy=       -0.5287043562
 DE(Corr)= -0.52870003     E(CORR)=     -153.94952638     Delta=-5.72D-05
 NORM(A)=   0.11418433D+01
 Iteration Nr.  10
 **********************
 DD1Dir will call FoFJK   3 times, MxPair=        88
 NAB=    90 NAA=    45 NBB=    36 NumPrc=  8.
 DD1Dir:  Pass   1 NRAB=    44 NRAA=     0 NRBB=     0 NR=    88.
 DD1Dir:  Pass   2 NRAB=    44 NRAA=     0 NRBB=     0 NR=    88.
 DD1Dir:  Pass   3 NRAB=     2 NRAA=    45 NRBB=    36 NR=    85.
 Norm of the A-vectors is  1.2903962D-03 conv= 1.00D-05.
 RLE energy=       -0.5287027891
 DE(Corr)= -0.52869469     E(CORR)=     -153.94952103     Delta= 5.35D-06
 NORM(A)=   0.11418926D+01
 Iteration Nr.  11
 **********************
 DD1Dir will call FoFJK   3 times, MxPair=        88
 NAB=    90 NAA=    45 NBB=    36 NumPrc=  8.
 DD1Dir:  Pass   1 NRAB=    44 NRAA=     0 NRBB=     0 NR=    88.
 DD1Dir:  Pass   2 NRAB=    44 NRAA=     0 NRBB=     0 NR=    88.
 DD1Dir:  Pass   3 NRAB=     2 NRAA=    45 NRBB=    36 NR=    85.
 Norm of the A-vectors is  6.9105446D-04 conv= 1.00D-05.
 RLE energy=       -0.5287129979
 DE(Corr)= -0.52870833     E(CORR)=     -153.94953468     Delta=-1.36D-05
 NORM(A)=   0.11419201D+01
 Iteration Nr.  12
 **********************
 DD1Dir will call FoFJK   3 times, MxPair=        88
 NAB=    90 NAA=    45 NBB=    36 NumPrc=  8.
 DD1Dir:  Pass   1 NRAB=    44 NRAA=     0 NRBB=     0 NR=    88.
 DD1Dir:  Pass   2 NRAB=    44 NRAA=     0 NRBB=     0 NR=    88.
 DD1Dir:  Pass   3 NRAB=     2 NRAA=    45 NRBB=    36 NR=    85.
 Norm of the A-vectors is  3.5158541D-04 conv= 1.00D-05.
 RLE energy=       -0.5287189292
 DE(Corr)= -0.52871293     E(CORR)=     -153.94953927     Delta=-4.60D-06
 NORM(A)=   0.11419495D+01
 Iteration Nr.  13
 **********************
 DD1Dir will call FoFJK   3 times, MxPair=        88
 NAB=    90 NAA=    45 NBB=    36 NumPrc=  8.
 DD1Dir:  Pass   1 NRAB=    44 NRAA=     0 NRBB=     0 NR=    88.
 DD1Dir:  Pass   2 NRAB=    44 NRAA=     0 NRBB=     0 NR=    88.
 DD1Dir:  Pass   3 NRAB=     2 NRAA=    45 NRBB=    36 NR=    85.
 Norm of the A-vectors is  1.7957154D-04 conv= 1.00D-05.
 RLE energy=       -0.5287206246
 DE(Corr)= -0.52871797     E(CORR)=     -153.94954432     Delta=-5.04D-06
 NORM(A)=   0.11419663D+01
 Iteration Nr.  14
 **********************
 DD1Dir will call FoFJK   3 times, MxPair=        88
 NAB=    90 NAA=    45 NBB=    36 NumPrc=  8.
 DD1Dir:  Pass   1 NRAB=    44 NRAA=     0 NRBB=     0 NR=    88.
 DD1Dir:  Pass   2 NRAB=    44 NRAA=     0 NRBB=     0 NR=    88.
 DD1Dir:  Pass   3 NRAB=     2 NRAA=    45 NRBB=    36 NR=    85.
 Norm of the A-vectors is  1.1489008D-04 conv= 1.00D-05.
 RLE energy=       -0.5287229131
 DE(Corr)= -0.52872118     E(CORR)=     -153.94954752     Delta=-3.21D-06
 NORM(A)=   0.11419753D+01
 Iteration Nr.  15
 **********************
 DD1Dir will call FoFJK   3 times, MxPair=        88
 NAB=    90 NAA=    45 NBB=    36 NumPrc=  8.
 DD1Dir:  Pass   1 NRAB=    44 NRAA=     0 NRBB=     0 NR=    88.
 DD1Dir:  Pass   2 NRAB=    44 NRAA=     0 NRBB=     0 NR=    88.
 DD1Dir:  Pass   3 NRAB=     2 NRAA=    45 NRBB=    36 NR=    85.
 Norm of the A-vectors is  7.4099303D-05 conv= 1.00D-05.
 RLE energy=       -0.5287227942
 DE(Corr)= -0.52872218     E(CORR)=     -153.94954852     Delta=-1.00D-06
 NORM(A)=   0.11419815D+01
 Iteration Nr.  16
 **********************
 DD1Dir will call FoFJK   3 times, MxPair=        88
 NAB=    90 NAA=    45 NBB=    36 NumPrc=  8.
 DD1Dir:  Pass   1 NRAB=    44 NRAA=     0 NRBB=     0 NR=    88.
 DD1Dir:  Pass   2 NRAB=    44 NRAA=     0 NRBB=     0 NR=    88.
 DD1Dir:  Pass   3 NRAB=     2 NRAA=    45 NRBB=    36 NR=    85.
 Norm of the A-vectors is  5.0057506D-05 conv= 1.00D-05.
 RLE energy=       -0.5287232289
 DE(Corr)= -0.52872317     E(CORR)=     -153.94954951     Delta=-9.91D-07
 NORM(A)=   0.11419830D+01
 Iteration Nr.  17
 **********************
 DD1Dir will call FoFJK   3 times, MxPair=        88
 NAB=    90 NAA=    45 NBB=    36 NumPrc=  8.
 DD1Dir:  Pass   1 NRAB=    44 NRAA=     0 NRBB=     0 NR=    88.
 DD1Dir:  Pass   2 NRAB=    44 NRAA=     0 NRBB=     0 NR=    88.
 DD1Dir:  Pass   3 NRAB=     2 NRAA=    45 NRBB=    36 NR=    85.
 Norm of the A-vectors is  2.5525611D-05 conv= 1.00D-05.
 RLE energy=       -0.5287231152
 DE(Corr)= -0.52872312     E(CORR)=     -153.94954947     Delta= 4.53D-08
 NORM(A)=   0.11419836D+01
 Iteration Nr.  18
 **********************
 DD1Dir will call FoFJK   3 times, MxPair=        88
 NAB=    90 NAA=    45 NBB=    36 NumPrc=  8.
 DD1Dir:  Pass   1 NRAB=    44 NRAA=     0 NRBB=     0 NR=    88.
 DD1Dir:  Pass   2 NRAB=    44 NRAA=     0 NRBB=     0 NR=    88.
 DD1Dir:  Pass   3 NRAB=     2 NRAA=    45 NRBB=    36 NR=    85.
 Norm of the A-vectors is  1.4465987D-05 conv= 1.00D-05.
 RLE energy=       -0.5287230847
 DE(Corr)= -0.52872312     E(CORR)=     -153.94954947     Delta= 2.08D-09
 NORM(A)=   0.11419839D+01
 Iteration Nr.  19
 **********************
 DD1Dir will call FoFJK   3 times, MxPair=        88
 NAB=    90 NAA=    45 NBB=    36 NumPrc=  8.
 DD1Dir:  Pass   1 NRAB=    44 NRAA=     0 NRBB=     0 NR=    88.
 DD1Dir:  Pass   2 NRAB=    44 NRAA=     0 NRBB=     0 NR=    88.
 DD1Dir:  Pass   3 NRAB=     2 NRAA=    45 NRBB=    36 NR=    85.
 Norm of the A-vectors is  7.8600403D-06 conv= 1.00D-05.
 RLE energy=       -0.5287231410
 DE(Corr)= -0.52872312     E(CORR)=     -153.94954946     Delta= 4.84D-09
 NORM(A)=   0.11419841D+01
 CI/CC converged in   19 iterations to DelEn= 4.84D-09 Conv= 1.00D-07 ErrA1= 7.86D-06 Conv= 1.00D-05
 Dominant configurations:
 ***********************
 Spin Case        I    J    A    B          Value
    AA           13        15            0.147493D+00
    BB           12        14           -0.102021D+00
 Largest amplitude= 1.47D-01
 Time for triples=      390.51 seconds.
 T4(CCSD)= -0.28512640D-01
 T5(CCSD)=  0.24563451D-02
 CCSD(T)= -0.15397560576D+03

 S**2, projected HF & approx projected MPn energies after annihilation of
 unwanted spin states (see manual for definitions):

 spins       (S**2,0) (S**2,1)    PUHF        PMP2        PMP3        PMP4
 annihilated
 s+1         0.71355  0.73646 -153.443438 -153.918019 -153.945394
 s+1,s+2     0.75057  0.74984 -153.441181 -153.915881 -153.943399
 s+1 to s+3  0.75000  0.75000 -153.441229 -153.915917 -153.943415
 s+1 to s+4  0.75000  0.75000 -153.441229 -153.915917 -153.943415
 s+1 to s+5  0.75000  0.75000 -153.441229
 s+1 to s+6  0.75000  0.75000 -153.441229

 Discarding MO integrals.
 Leave Link  913 at Tue Oct 10 14:17:21 2017, MaxMem=    33554432 cpu:      1417.4
 (Enter /usr/local/gaussian/2009-E.01/g09/l601.exe)
 Copying SCF densities to generalized density rwf, IOpCl= 1 IROHF=0.

 **********************************************************************

            Population analysis using the SCF density.

 **********************************************************************

 Orbital symmetries:
 Alpha Orbitals:
       Occupied  (A') (A') (A') (A') (A') (A') (A') (A') (A') (A")
                 (A') (A") (A') (A")
       Virtual   (A') (A') (A') (A") (A') (A') (A') (A") (A') (A")
                 (A') (A") (A') (A') (A') (A") (A') (A') (A') (A")
                 (A') (A') (A") (A') (A') (A') (A') (A') (A') (A")
                 (A') (A") (A') (A') (A") (A') (A') (A") (A') (A')
                 (A") (A') (A') (A') (A') (A') (A") (A') (A") (A')
                 (A') (A') (A") (A') (A") (A') (A') (A") (A") (A')
                 (A") (A') (A') (A") (A') (A") (A') (A') (A') (A")
                 (A') (A') (A") (A') (A') (A') (A") (A") (A') (A')
                 (A') (A") (A') (A') (A") (A') (A') (A") (A') (A")
                 (A') (A') (A') (A') (A') (A") (A') (A') (A') (A')
                 (A')
 Beta  Orbitals:
       Occupied  (A') (A') (A') (A') (A') (A') (A') (A') (A') (A')
                 (A") (A') (A")
       Virtual   (A') (A") (A') (A') (A') (A") (A') (A') (A") (A')
                 (A') (A") (A') (A') (A") (A') (A') (A') (A") (A')
                 (A") (A') (A') (A') (A") (A') (A') (A') (A') (A')
                 (A') (A") (A') (A') (A") (A') (A") (A') (A") (A')
                 (A') (A") (A') (A') (A') (A') (A') (A') (A") (A')
                 (A") (A') (A') (A") (A') (A') (A") (A') (A") (A")
                 (A') (A") (A') (A') (A") (A') (A") (A') (A') (A')
                 (A") (A') (A') (A") (A') (A') (A') (A") (A") (A')
                 (A') (A') (A") (A') (A') (A") (A') (A') (A") (A')
                 (A") (A') (A') (A') (A') (A') (A") (A') (A') (A')
                 (A') (A')
 The electronic state is 2-A".
 Alpha  occ. eigenvalues --  -11.58501 -11.55597 -11.48762 -11.46781  -1.35723
 Alpha  occ. eigenvalues --   -1.28406  -1.16152  -0.97202  -0.88574  -0.84867
 Alpha  occ. eigenvalues --   -0.79853  -0.74255  -0.68242  -0.60783
 Alpha virt. eigenvalues --   -0.23292  -0.09370  -0.07222  -0.05113  -0.05102
 Alpha virt. eigenvalues --   -0.03729  -0.02604  -0.02426  -0.00089   0.01197
 Alpha virt. eigenvalues --    0.01207   0.01979   0.03520   0.03632   0.04923
 Alpha virt. eigenvalues --    0.05163   0.06401   0.06827   0.10637   0.10767
 Alpha virt. eigenvalues --    0.13794   0.14262   0.15220   0.15347   0.17502
 Alpha virt. eigenvalues --    0.23162   0.26907   0.38938   0.39802   0.42211
 Alpha virt. eigenvalues --    0.42619   0.46761   0.48475   0.49891   0.54900
 Alpha virt. eigenvalues --    0.56554   0.63477   0.64207   0.65757   0.67260
 Alpha virt. eigenvalues --    0.67655   0.69581   0.72266   0.81614   0.87588
 Alpha virt. eigenvalues --    0.90894   0.98002   0.98598   1.08332   1.08335
 Alpha virt. eigenvalues --    1.15082   1.17072   1.24839   1.25246   1.29610
 Alpha virt. eigenvalues --    1.31510   1.34845   1.46732   1.48990   1.49805
 Alpha virt. eigenvalues --    1.60725   1.61189   1.66646   1.67079   1.77111
 Alpha virt. eigenvalues --    1.78412   1.83603   2.02299   2.04336   2.06841
 Alpha virt. eigenvalues --    2.17133   2.32867   2.33042   2.46128   2.58309
 Alpha virt. eigenvalues --    2.59482   2.60393   2.66062   2.66817   2.74256
 Alpha virt. eigenvalues --    2.77487   2.78404   2.87784   2.90449   2.94311
 Alpha virt. eigenvalues --    3.07587   3.10235   3.10924   3.13736   3.14417
 Alpha virt. eigenvalues --    3.26824   3.57675   3.68772   3.76991   3.97917
 Alpha virt. eigenvalues --    4.00660   4.36529  24.27278  24.84778  25.15167
 Alpha virt. eigenvalues --   26.17755
  Beta  occ. eigenvalues --  -11.56763 -11.52780 -11.50546 -11.46997  -1.34666
  Beta  occ. eigenvalues --   -1.25121  -1.12396  -0.95082  -0.87435  -0.81201
  Beta  occ. eigenvalues --   -0.80504  -0.68402  -0.68156
  Beta virt. eigenvalues --   -0.19263  -0.15837  -0.09328  -0.07030  -0.05074
  Beta virt. eigenvalues --   -0.04945  -0.03633  -0.02961  -0.02636   0.00195
  Beta virt. eigenvalues --    0.01258   0.01894   0.03573   0.03758   0.04351
  Beta virt. eigenvalues --    0.05313   0.06906   0.07607   0.08430   0.10436
  Beta virt. eigenvalues --    0.10946   0.14236   0.14951   0.15108   0.16294
  Beta virt. eigenvalues --    0.18377   0.23366   0.27281   0.39397   0.39933
  Beta virt. eigenvalues --    0.42929   0.43654   0.49841   0.50180   0.51289
  Beta virt. eigenvalues --    0.58280   0.60230   0.63318   0.64419   0.66085
  Beta virt. eigenvalues --    0.67027   0.67811   0.70179   0.72759   0.82371
  Beta virt. eigenvalues --    0.87268   0.90962   0.98742   1.00481   1.09415
  Beta virt. eigenvalues --    1.09574   1.15974   1.18346   1.28449   1.28995
  Beta virt. eigenvalues --    1.34739   1.34816   1.35433   1.48474   1.49516
  Beta virt. eigenvalues --    1.49737   1.61185   1.61246   1.67508   1.67910
  Beta virt. eigenvalues --    1.77141   1.79479   1.84167   2.03034   2.04807
  Beta virt. eigenvalues --    2.08489   2.17357   2.33065   2.34410   2.46522
  Beta virt. eigenvalues --    2.58124   2.59498   2.61149   2.66779   2.67028
  Beta virt. eigenvalues --    2.74996   2.79518   2.82903   2.88089   2.90290
  Beta virt. eigenvalues --    2.97702   3.07805   3.09358   3.10089   3.14341
  Beta virt. eigenvalues --    3.17721   3.27151   3.57890   3.69028   3.78229
  Beta virt. eigenvalues --    3.97788   4.00840   4.36984  24.27580  24.84881
  Beta virt. eigenvalues --   25.16350  26.17821
          Condensed to atoms (all electrons):
               1          2          3          4          5          6
     1  C    9.683377   0.359691   0.359691   0.308499  -3.813076  -2.691151
     2  H    0.359691   0.464604  -0.033410  -0.032487   0.002988  -0.001060
     3  H    0.359691  -0.033410   0.464604  -0.032487   0.002988  -0.001060
     4  H    0.308499  -0.032487  -0.032487   0.460634   0.056868   0.002226
     5  C   -3.813076   0.002988   0.002988   0.056868   8.978542   2.615378
     6  C   -2.691151  -0.001060  -0.001060   0.002226   2.615378  18.740247
     7  C    2.469912   0.006334   0.006334  -0.006396  -2.261755 -14.517645
     8  H    0.022581   0.000294   0.000294   0.000049   0.008136  -0.458041
               7          8
     1  C    2.469912   0.022581
     2  H    0.006334   0.000294
     3  H    0.006334   0.000294
     4  H   -0.006396   0.000049
     5  C   -2.261755   0.008136
     6  C  -14.517645  -0.458041
     7  C   21.458836   0.831903
     8  H    0.831903   0.337958
          Atomic-Atomic Spin Densities.
               1          2          3          4          5          6
     1  C   -0.224641   0.014822   0.014822  -0.000848   0.012931   0.044830
     2  H    0.014822   0.046688  -0.008761   0.000721  -0.013196  -0.000502
     3  H    0.014822  -0.008761   0.046688   0.000721  -0.013196  -0.000502
     4  H   -0.000848   0.000721   0.000721  -0.016777  -0.002799  -0.002638
     5  C    0.012931  -0.013196  -0.013196  -0.002799   0.840124   0.048009
     6  C    0.044830  -0.000502  -0.000502  -0.002638   0.048009   0.228953
     7  C    0.059521  -0.000704  -0.000704   0.004784  -0.148738  -1.167307
     8  H   -0.000190  -0.000001  -0.000001  -0.000000  -0.003726  -0.001735
               7          8
     1  C    0.059521  -0.000190
     2  H   -0.000704  -0.000001
     3  H   -0.000704  -0.000001
     4  H    0.004784  -0.000000
     5  C   -0.148738  -0.003726
     6  C   -1.167307  -0.001735
     7  C    2.495405  -0.012906
     8  H   -0.012906  -0.061851
 Mulliken charges and spin densities:
               1          2
     1  C   -0.699524  -0.078753
     2  H    0.233046   0.039066
     3  H    0.233046   0.039066
     4  H    0.243093  -0.016838
     5  C    0.409931   0.719409
     6  C    2.311106  -0.850893
     7  C   -1.987523   1.229352
     8  H    0.256824  -0.080411
 Sum of Mulliken charges =   1.00000   1.00000
 Mulliken charges and spin densities with hydrogens summed into heavy atoms:
               1          2
     1  C    0.009662  -0.017457
     5  C    0.409931   0.719409
     6  C    2.311106  -0.850893
     7  C   -1.730698   1.148941
 Electronic spatial extent (au):  <R**2>=            316.3872
 Charge=              1.0000 electrons
 Dipole moment (field-independent basis, Debye):
    X=              0.1298    Y=             -0.9212    Z=             -0.0000  Tot=              0.9303
 Quadrupole moment (field-independent basis, Debye-Ang):
   XX=            -20.9810   YY=              2.7418   ZZ=            -22.3438
   XY=              1.2385   XZ=              0.0000   YZ=             -0.0000
 Traceless Quadrupole moment (field-independent basis, Debye-Ang):
   XX=             -7.4534   YY=             16.2695   ZZ=             -8.8161
   XY=              1.2385   XZ=              0.0000   YZ=             -0.0000
 Octapole moment (field-independent basis, Debye-Ang**2):
  XXX=              1.8202  YYY=            -28.8871  ZZZ=             -0.0000  XYY=             -0.6538
  XXY=              3.2107  XXZ=             -0.0000  XZZ=             -0.7892  YZZ=              4.4322
  YYZ=             -0.0000  XYZ=              0.0000
 Hexadecapole moment (field-independent basis, Debye-Ang**3):
 XXXX=            -26.2066 YYYY=           -166.9561 ZZZZ=            -28.5788 XXXY=             -2.7154
 XXXZ=             -0.0000 YYYX=              0.8640 YYYZ=             -0.0000 ZZZX=              0.0000
 ZZZY=             -0.0000 XXYY=            -59.1641 XXZZ=             -9.6285 YYZZ=            -61.4448
 XXYZ=             -0.0000 YYXZ=              0.0000 ZZXY=             -4.4267
 N-N= 8.849440705973D+01 E-N=-5.271775529778D+02  KE= 1.533845596293D+02
 Symmetry A'   KE= 1.477459275474D+02
 Symmetry A"   KE= 5.638632081944D+00
 Leave Link  601 at Tue Oct 10 14:17:21 2017, MaxMem=    33554432 cpu:         0.3
 (Enter /usr/local/gaussian/2009-E.01/g09/l9999.exe)
 1\1\ WCSS.PL-BEM-WN1424\SP\UCCSD(T)-FC\6-311++G(d,p)\C4H4(1+,2)\ROOT\1
 0-Oct-2017\0\\#p ccsd(t,maxcyc=200)/6-311++G(d,p)\\ccsd(t) iener\\1,2\
 C,0,1.859386,0.000001702,-0.008025991\H,0,2.280908,0.908652371,-0.4571
 38991\H,0,2.280925,-0.910432629,-0.453495991\H,0,2.155808,0.002144509,
 1.060574005\C,0,0.447859,-0.000029549,-0.017043991\C,0,-0.826743,-0.00
 0011948,-0.002307002\C,0,-2.078399,-0.000011365,0.003824985\H,0,-3.151
 587,-0.000011329,0.008850973\\Version=ES64L-G09RevE.01\State=2-A"\HF=-
 153.4208263\MP2=-153.898215\MP3=-153.9302288\MP4D=-153.9431724\MP4DQ=-
 153.9311896\PUHF=-153.443438\PMP2-0=-153.9180195\PMP3-0=-153.9453942\M
 P4SDQ=-153.9415981\CCSD=-153.9495495\CCSD(T)=-153.9756058\S2=1.049664\
 S2-1=0.966209\S2A=0.811529\RMSD=4.053e-09\PG=CS [SG(C4H2),X(H2)]\\@


 REFRAIN FROM ILLUSIONS, INSIST ON WORK AND NOT WORDS,
 PATIENTLY SEEK DIVINE AND SCIENTIFIC TRUTH.
 LAST WORDS OF MARIA MENDELEEVA TO HER SON DMITRI, C. 1850
 Job cpu time:       0 days  0 hours 25 minutes 32.2 seconds.
 File lengths (MBytes):  RWF=    346 Int=      0 D2E=      0 Chk=      2 Scr=      1
 Normal termination of Gaussian 09 at Tue Oct 10 14:17:21 2017.
