 Entering Gaussian System, Link 0=/usr/local/gaussian/2009-E.01/g09/g09
 Initial command:
 /usr/local/gaussian/2009-E.01/g09/l1.exe "/lustre/scratch/eerd/4986703.achilles/Gau-20327.inp" -scrdir="/lustre/scratch/eerd/4986703.achilles/"
 Entering Link 1 = /usr/local/gaussian/2009-E.01/g09/l1.exe PID=     20329.
  
 Copyright (c) 1988,1990,1992,1993,1995,1998,2003,2009,2015,
            Gaussian, Inc.  All Rights Reserved.
  
 This is part of the Gaussian(R) 09 program.  It is based on
 the Gaussian(R) 03 system (copyright 2003, Gaussian, Inc.),
 the Gaussian(R) 98 system (copyright 1998, Gaussian, Inc.),
 the Gaussian(R) 94 system (copyright 1995, Gaussian, Inc.),
 the Gaussian 92(TM) system (copyright 1992, Gaussian, Inc.),
 the Gaussian 90(TM) system (copyright 1990, Gaussian, Inc.),
 the Gaussian 88(TM) system (copyright 1988, Gaussian, Inc.),
 the Gaussian 86(TM) system (copyright 1986, Carnegie Mellon
 University), and the Gaussian 82(TM) system (copyright 1983,
 Carnegie Mellon University). Gaussian is a federally registered
 trademark of Gaussian, Inc.
  
 This software contains proprietary and confidential information,
 including trade secrets, belonging to Gaussian, Inc.
  
 This software is provided under written license and may be
 used, copied, transmitted, or stored only in accord with that
 written license.
  
 The following legend is applicable only to US Government
 contracts under FAR:
  
                    RESTRICTED RIGHTS LEGEND
  
 Use, reproduction and disclosure by the US Government is
 subject to restrictions as set forth in subparagraphs (a)
 and (c) of the Commercial Computer Software - Restricted
 Rights clause in FAR 52.227-19.
  
 Gaussian, Inc.
 340 Quinnipiac St., Bldg. 40, Wallingford CT 06492
  
  
 ---------------------------------------------------------------
 Warning -- This program may not be used in any manner that
 competes with the business of Gaussian, Inc. or will provide
 assistance to any competitor of Gaussian, Inc.  The licensee
 of this program is prohibited from giving any competitor of
 Gaussian, Inc. access to this program.  By using this program,
 the user acknowledges that Gaussian, Inc. is engaged in the
 business of creating and licensing software in the field of
 computational chemistry and represents and warrants to the
 licensee that it is not a competitor of Gaussian, Inc. and that
 it will not use this program in any manner prohibited above.
 ---------------------------------------------------------------
  

 Cite this work as:
 Gaussian 09, Revision E.01,
 M. J. Frisch, G. W. Trucks, H. B. Schlegel, G. E. Scuseria, 
 M. A. Robb, J. R. Cheeseman, G. Scalmani, V. Barone, B. Mennucci, 
 G. A. Petersson, H. Nakatsuji, M. Caricato, X. Li, H. P. Hratchian, 
 A. F. Izmaylov, J. Bloino, G. Zheng, J. L. Sonnenberg, M. Hada, 
 M. Ehara, K. Toyota, R. Fukuda, J. Hasegawa, M. Ishida, T. Nakajima, 
 Y. Honda, O. Kitao, H. Nakai, T. Vreven, J. A. Montgomery, Jr., 
 J. E. Peralta, F. Ogliaro, M. Bearpark, J. J. Heyd, E. Brothers, 
 K. N. Kudin, V. N. Staroverov, T. Keith, R. Kobayashi, J. Normand, 
 K. Raghavachari, A. Rendell, J. C. Burant, S. S. Iyengar, J. Tomasi, 
 M. Cossi, N. Rega, J. M. Millam, M. Klene, J. E. Knox, J. B. Cross, 
 V. Bakken, C. Adamo, J. Jaramillo, R. Gomperts, R. E. Stratmann, 
 O. Yazyev, A. J. Austin, R. Cammi, C. Pomelli, J. W. Ochterski, 
 R. L. Martin, K. Morokuma, V. G. Zakrzewski, G. A. Voth, 
 P. Salvador, J. J. Dannenberg, S. Dapprich, A. D. Daniels, 
 O. Farkas, J. B. Foresman, J. V. Ortiz, J. Cioslowski, 
 and D. J. Fox, Gaussian, Inc., Wallingford CT, 2013.
 
 ******************************************
 Gaussian 09:  ES64L-G09RevE.01 30-Nov-2015
                10-Oct-2017 
 ******************************************
 %NProcShared=8
 Will use up to    8 processors via shared memory.
 -----------------------------------
 #p ccsd(t,maxcyc=200)/6-311++G(d,p)
 -----------------------------------
 1/38=1/1;
 2/12=2,17=6,18=5,40=1/2;
 3/5=4,6=6,7=1111,11=9,16=1,25=1,30=1/1,2,3;
 4//1;
 5/5=2,38=5/2;
 8/6=4,9=120000,10=2/1,4;
 9/5=7,6=200,14=2/13;
 6/7=2,8=2,9=2,10=2/1;
 99/5=1,9=1/99;
 Leave Link    1 at Tue Oct 10 16:06:02 2017, MaxMem=           0 cpu:         2.1
 (Enter /usr/local/gaussian/2009-E.01/g09/l101.exe)
 -------------
 ccsd(t) iener
 -------------
 Symbolic Z-matrix:
 Charge =  1 Multiplicity = 1
 C                     0.67785  -0.40999   0. 
 C                    -0.09446   0.68141   0. 
 H                    -1.09223   1.13325   0. 
 
 NAtoms=      3 NQM=        3 NQMF=       0 NMMI=      0 NMMIF=      0
                NMic=       0 NMicF=      0.
                    Isotopes and Nuclear Properties:
 (Nuclear quadrupole moments (NQMom) in fm**2, nuclear magnetic moments (NMagM)
  in nuclear magnetons)

  Atom         1           2           3
 IAtWgt=          12          12           1
 AtmWgt=  12.0000000  12.0000000   1.0078250
 NucSpn=           0           0           1
 AtZEff=   0.0000000   0.0000000   0.0000000
 NQMom=    0.0000000   0.0000000   0.0000000
 NMagM=    0.0000000   0.0000000   2.7928460
 AtZNuc=   6.0000000   6.0000000   1.0000000
 Leave Link  101 at Tue Oct 10 16:06:02 2017, MaxMem=    33554432 cpu:         0.4
 (Enter /usr/local/gaussian/2009-E.01/g09/l202.exe)
                          Input orientation:                          
 ---------------------------------------------------------------------
 Center     Atomic      Atomic             Coordinates (Angstroms)
 Number     Number       Type             X           Y           Z
 ---------------------------------------------------------------------
      1          6           0        0.677846   -0.409992    0.000000
      2          6           0       -0.094457    0.681414    0.000000
      3          1           0       -1.092226    1.133251    0.000000
 ---------------------------------------------------------------------
                    Distance matrix (angstroms):
                    1          2          3
     1  C    0.000000
     2  C    1.337019   0.000000
     3  H    2.348351   1.095308   0.000000
 Stoichiometry    C2H(1+)
 Framework group  CS[SG(C2H)]
 Deg. of freedom     3
 Full point group                 CS      NOp   2
 Largest Abelian subgroup         CS      NOp   2
 Largest concise Abelian subgroup C1      NOp   1
                         Standard orientation:                         
 ---------------------------------------------------------------------
 Center     Atomic      Atomic             Coordinates (Angstroms)
 Number     Number       Type             X           Y           Z
 ---------------------------------------------------------------------
      1          6           0        0.042576   -0.792639    0.000000
      2          6           0        0.042576    0.544380    0.000000
      3          1           0       -0.510907    1.489555    0.000000
 ---------------------------------------------------------------------
 Rotational constants (GHZ):   2115.2903810     37.9936014     37.3232236
 Leave Link  202 at Tue Oct 10 16:06:02 2017, MaxMem=    33554432 cpu:         0.1
 (Enter /usr/local/gaussian/2009-E.01/g09/l301.exe)
 Standard basis: 6-311++G(d,p) (5D, 7F)
 Ernie: Thresh=  0.10000D-02 Tol=  0.10000D-05 Strict=F.
 There are    40 symmetry adapted cartesian basis functions of A'  symmetry.
 There are    13 symmetry adapted cartesian basis functions of A"  symmetry.
 There are    38 symmetry adapted basis functions of A'  symmetry.
 There are    13 symmetry adapted basis functions of A"  symmetry.
    51 basis functions,    81 primitive gaussians,    53 cartesian basis functions
     6 alpha electrons        6 beta electrons
       nuclear repulsion energy        18.4992268189 Hartrees.
 IExCor=    0 DFT=F Ex=HF Corr=None ExCW=0 ScaHFX=  1.000000
 ScaDFX=  1.000000  1.000000  1.000000  1.000000 ScalE2=  1.000000  1.000000
 IRadAn=      0 IRanWt=     -1 IRanGd=            0 ICorTp=0 IEmpDi=  4
 NAtoms=    3 NActive=    3 NUniq=    3 SFac= 1.00D+00 NAtFMM=   60 NAOKFM=F Big=F
 Integral buffers will be    131072 words long.
 Raffenetti 1 integral format.
 Two-electron integral symmetry is turned on.
 Leave Link  301 at Tue Oct 10 16:06:02 2017, MaxMem=    33554432 cpu:         0.3
 (Enter /usr/local/gaussian/2009-E.01/g09/l302.exe)
 NPDir=0 NMtPBC=     1 NCelOv=     1 NCel=       1 NClECP=     1 NCelD=      1
         NCelK=      1 NCelE2=     1 NClLst=     1 CellRange=     0.0.
 One-electron integrals computed using PRISM.
 NBasis=    51 RedAO= T EigKep=  2.64D-04  NBF=    38    13
 NBsUse=    51 1.00D-06 EigRej= -1.00D+00 NBFU=    38    13
 Leave Link  302 at Tue Oct 10 16:06:03 2017, MaxMem=    33554432 cpu:         1.1
 (Enter /usr/local/gaussian/2009-E.01/g09/l303.exe)
 DipDrv:  MaxL=1.
 Leave Link  303 at Tue Oct 10 16:06:03 2017, MaxMem=    33554432 cpu:         0.1
 (Enter /usr/local/gaussian/2009-E.01/g09/l401.exe)
 ExpMin= 3.60D-02 ExpMax= 4.56D+03 ExpMxC= 6.82D+02 IAcc=3 IRadAn=         5 AccDes= 0.00D+00
 Harris functional with IExCor=  205 and IRadAn=       5 diagonalized for initial guess.
 HarFok:  IExCor=  205 AccDes= 0.00D+00 IRadAn=         5 IDoV= 1 UseB2=F ITyADJ=14
 ICtDFT=  3500011 ScaDFX=  1.000000  1.000000  1.000000  1.000000
 FoFCou: FMM=F IPFlag=           0 FMFlag=      100000 FMFlg1=           0
         NFxFlg=           0 DoJE=T BraDBF=F KetDBF=T FulRan=T
         wScrn=  0.000000 ICntrl=     500 IOpCl=  0 I1Cent=   200000004 NGrid=           0
         NMat0=    1 NMatS0=      1 NMatT0=    0 NMatD0=    1 NMtDS0=    0 NMtDT0=    0
 Petite list used in FoFCou.
 Harris En= -75.7953132828566    
 JPrj=0 DoOrth=F DoCkMO=F.
 Initial guess orbital symmetries:
       Occupied  (A') (A') (A') (A') (A') (A")
       Virtual   (A') (A') (A") (A') (A') (A') (A") (A') (A') (A")
                 (A') (A') (A') (A') (A') (A') (A") (A') (A") (A')
                 (A') (A') (A') (A") (A') (A") (A') (A') (A") (A')
                 (A") (A') (A') (A") (A') (A') (A') (A") (A') (A")
                 (A') (A') (A') (A') (A')
 The electronic state of the initial guess is 1-A'.
 Leave Link  401 at Tue Oct 10 16:06:03 2017, MaxMem=    33554432 cpu:         1.1
 (Enter /usr/local/gaussian/2009-E.01/g09/l502.exe)
 Closed shell SCF:
 Using DIIS extrapolation, IDIIS=  1040.
 Integral symmetry usage will be decided dynamically.
 Keep R1 ints in memory in symmetry-blocked form, NReq=1745536.
 IVT=       27814 IEndB=       27814 NGot=    33554432 MDV=    33054511
 LenX=    33054511 LenY=    33051261
 Requested convergence on RMS density matrix=1.00D-08 within 128 cycles.
 Requested convergence on MAX density matrix=1.00D-06.
 Requested convergence on             energy=1.00D-06.
 No special actions if energy rises.
 FoFCou: FMM=F IPFlag=           0 FMFlag=           0 FMFlg1=           0
         NFxFlg=           0 DoJE=F BraDBF=F KetDBF=F FulRan=T
         wScrn=  0.000000 ICntrl=     600 IOpCl=  0 I1Cent=           0 NGrid=           0
         NMat0=    1 NMatS0=   1326 NMatT0=    0 NMatD0=    1 NMtDS0=    0 NMtDT0=    0
 Petite list used in FoFCou.

 Cycle   1  Pass 1  IDiag  1:
 E= -75.6344097696755    
 DIIS: error= 4.21D-02 at cycle   1 NSaved=   1.
 NSaved= 1 IEnMin= 1 EnMin= -75.6344097696755     IErMin= 1 ErrMin= 4.21D-02
 ErrMax= 4.21D-02  0.00D+00 EMaxC= 1.00D-01 BMatC= 1.10D-01 BMatP= 1.10D-01
 IDIUse=3 WtCom= 5.79D-01 WtEn= 4.21D-01
 Coeff-Com:  0.100D+01
 Coeff-En:   0.100D+01
 Coeff:      0.100D+01
 Gap=     0.327 Goal=   None    Shift=    0.000
 GapD=    0.327 DampG=1.000 DampE=0.500 DampFc=0.5000 IDamp=-1.
 Damping current iteration by 5.00D-01
 RMSDP=4.91D-03 MaxDP=7.78D-02              OVMax= 1.61D-01

 Cycle   2  Pass 1  IDiag  1:
 E= -75.6600612434152     Delta-E=       -0.025651473740 Rises=F Damp=T
 DIIS: error= 2.14D-02 at cycle   2 NSaved=   2.
 NSaved= 2 IEnMin= 2 EnMin= -75.6600612434152     IErMin= 2 ErrMin= 2.14D-02
 ErrMax= 2.14D-02  0.00D+00 EMaxC= 1.00D-01 BMatC= 2.85D-02 BMatP= 1.10D-01
 IDIUse=3 WtCom= 7.86D-01 WtEn= 2.14D-01
 Coeff-Com: -0.659D+00 0.166D+01
 Coeff-En:   0.000D+00 0.100D+01
 Coeff:     -0.518D+00 0.152D+01
 Gap=     0.372 Goal=   None    Shift=    0.000
 RMSDP=3.27D-03 MaxDP=6.05D-02 DE=-2.57D-02 OVMax= 8.26D-02

 Cycle   3  Pass 1  IDiag  1:
 E= -75.6926133872019     Delta-E=       -0.032552143787 Rises=F Damp=F
 DIIS: error= 9.26D-03 at cycle   3 NSaved=   3.
 NSaved= 3 IEnMin= 3 EnMin= -75.6926133872019     IErMin= 3 ErrMin= 9.26D-03
 ErrMax= 9.26D-03  0.00D+00 EMaxC= 1.00D-01 BMatC= 2.46D-03 BMatP= 2.85D-02
 IDIUse=3 WtCom= 9.07D-01 WtEn= 9.26D-02
 Coeff-Com: -0.252D+00 0.437D+00 0.815D+00
 Coeff-En:   0.000D+00 0.000D+00 0.100D+01
 Coeff:     -0.229D+00 0.396D+00 0.833D+00
 Gap=     0.367 Goal=   None    Shift=    0.000
 RMSDP=1.44D-03 MaxDP=2.05D-02 DE=-3.26D-02 OVMax= 6.46D-02

 Cycle   4  Pass 1  IDiag  1:
 E= -75.6995542637373     Delta-E=       -0.006940876535 Rises=F Damp=F
 DIIS: error= 5.98D-03 at cycle   4 NSaved=   4.
 NSaved= 4 IEnMin= 4 EnMin= -75.6995542637373     IErMin= 4 ErrMin= 5.98D-03
 ErrMax= 5.98D-03  0.00D+00 EMaxC= 1.00D-01 BMatC= 6.56D-04 BMatP= 2.46D-03
 IDIUse=3 WtCom= 9.40D-01 WtEn= 5.98D-02
 Coeff-Com:  0.269D+00-0.500D+00-0.386D+00 0.162D+01
 Coeff-En:   0.000D+00 0.000D+00 0.000D+00 0.100D+01
 Coeff:      0.253D+00-0.470D+00-0.363D+00 0.158D+01
 Gap=     0.373 Goal=   None    Shift=    0.000
 RMSDP=1.53D-03 MaxDP=2.53D-02 DE=-6.94D-03 OVMax= 7.18D-02

 Cycle   5  Pass 1  IDiag  1:
 E= -75.7052723737784     Delta-E=       -0.005718110041 Rises=F Damp=F
 DIIS: error= 5.02D-03 at cycle   5 NSaved=   5.
 NSaved= 5 IEnMin= 5 EnMin= -75.7052723737784     IErMin= 5 ErrMin= 5.02D-03
 ErrMax= 5.02D-03  0.00D+00 EMaxC= 1.00D-01 BMatC= 2.92D-04 BMatP= 6.56D-04
 IDIUse=3 WtCom= 9.50D-01 WtEn= 5.02D-02
 Coeff-Com: -0.205D+00 0.401D+00 0.215D+00-0.180D+01 0.239D+01
 Coeff-En:   0.000D+00 0.000D+00 0.000D+00 0.000D+00 0.100D+01
 Coeff:     -0.194D+00 0.381D+00 0.204D+00-0.171D+01 0.232D+01
 Gap=     0.378 Goal=   None    Shift=    0.000
 RMSDP=1.68D-03 MaxDP=2.01D-02 DE=-5.72D-03 OVMax= 9.13D-02

 Cycle   6  Pass 1  IDiag  1:
 E= -75.7099604497850     Delta-E=       -0.004688076007 Rises=F Damp=F
 DIIS: error= 2.98D-03 at cycle   6 NSaved=   6.
 NSaved= 6 IEnMin= 6 EnMin= -75.7099604497850     IErMin= 6 ErrMin= 2.98D-03
 ErrMax= 2.98D-03  0.00D+00 EMaxC= 1.00D-01 BMatC= 1.00D-04 BMatP= 2.92D-04
 IDIUse=3 WtCom= 9.70D-01 WtEn= 2.98D-02
 Coeff-Com:  0.338D-02-0.175D-01 0.659D-01 0.540D+00-0.198D+01 0.239D+01
 Coeff-En:   0.000D+00 0.000D+00 0.000D+00 0.000D+00 0.000D+00 0.100D+01
 Coeff:      0.328D-02-0.170D-01 0.639D-01 0.524D+00-0.192D+01 0.235D+01
 Gap=     0.380 Goal=   None    Shift=    0.000
 RMSDP=1.47D-03 MaxDP=1.43D-02 DE=-4.69D-03 OVMax= 8.59D-02

 Cycle   7  Pass 1  IDiag  1:
 E= -75.7119522266631     Delta-E=       -0.001991776878 Rises=F Damp=F
 DIIS: error= 8.21D-04 at cycle   7 NSaved=   7.
 NSaved= 7 IEnMin= 7 EnMin= -75.7119522266631     IErMin= 7 ErrMin= 8.21D-04
 ErrMax= 8.21D-04  0.00D+00 EMaxC= 1.00D-01 BMatC= 1.18D-05 BMatP= 1.00D-04
 IDIUse=3 WtCom= 9.92D-01 WtEn= 8.21D-03
 Coeff-Com:  0.458D-01-0.828D-01-0.827D-01 0.153D+00 0.352D+00-0.968D+00
 Coeff-Com:  0.158D+01
 Coeff-En:   0.000D+00 0.000D+00 0.000D+00 0.000D+00 0.000D+00 0.000D+00
 Coeff-En:   0.100D+01
 Coeff:      0.454D-01-0.821D-01-0.820D-01 0.152D+00 0.349D+00-0.960D+00
 Coeff:      0.158D+01
 Gap=     0.380 Goal=   None    Shift=    0.000
 RMSDP=3.51D-04 MaxDP=3.90D-03 DE=-1.99D-03 OVMax= 2.12D-02

 Cycle   8  Pass 1  IDiag  1:
 E= -75.7120944376769     Delta-E=       -0.000142211014 Rises=F Damp=F
 DIIS: error= 2.36D-04 at cycle   8 NSaved=   8.
 NSaved= 8 IEnMin= 8 EnMin= -75.7120944376769     IErMin= 8 ErrMin= 2.36D-04
 ErrMax= 2.36D-04  0.00D+00 EMaxC= 1.00D-01 BMatC= 1.99D-06 BMatP= 1.18D-05
 IDIUse=3 WtCom= 9.98D-01 WtEn= 2.36D-03
 Coeff-Com: -0.114D-01 0.206D-01 0.302D-01-0.101D+00-0.305D-01 0.233D+00
 Coeff-Com: -0.588D+00 0.145D+01
 Coeff-En:   0.000D+00 0.000D+00 0.000D+00 0.000D+00 0.000D+00 0.000D+00
 Coeff-En:   0.000D+00 0.100D+01
 Coeff:     -0.113D-01 0.205D-01 0.302D-01-0.101D+00-0.304D-01 0.232D+00
 Coeff:     -0.587D+00 0.145D+01
 Gap=     0.382 Goal=   None    Shift=    0.000
 RMSDP=1.33D-04 MaxDP=1.45D-03 DE=-1.42D-04 OVMax= 7.66D-03

 Cycle   9  Pass 1  IDiag  1:
 E= -75.7121085826315     Delta-E=       -0.000014144955 Rises=F Damp=F
 DIIS: error= 1.42D-04 at cycle   9 NSaved=   9.
 NSaved= 9 IEnMin= 9 EnMin= -75.7121085826315     IErMin= 9 ErrMin= 1.42D-04
 ErrMax= 1.42D-04  0.00D+00 EMaxC= 1.00D-01 BMatC= 3.80D-07 BMatP= 1.99D-06
 IDIUse=3 WtCom= 9.99D-01 WtEn= 1.42D-03
 Coeff-Com: -0.289D-02 0.537D-02 0.351D-02 0.249D-02 0.100D-01 0.187D-01
 Coeff-Com: -0.200D+00-0.408D-01 0.120D+01
 Coeff-En:   0.000D+00 0.000D+00 0.000D+00 0.000D+00 0.000D+00 0.000D+00
 Coeff-En:   0.000D+00 0.000D+00 0.100D+01
 Coeff:     -0.288D-02 0.536D-02 0.351D-02 0.249D-02 0.100D-01 0.187D-01
 Coeff:     -0.199D+00-0.407D-01 0.120D+01
 Gap=     0.381 Goal=   None    Shift=    0.000
 RMSDP=3.42D-05 MaxDP=3.66D-04 DE=-1.41D-05 OVMax= 1.39D-03

 Cycle  10  Pass 1  IDiag  1:
 E= -75.7121098643752     Delta-E=       -0.000001281744 Rises=F Damp=F
 DIIS: error= 5.88D-05 at cycle  10 NSaved=  10.
 NSaved=10 IEnMin=10 EnMin= -75.7121098643752     IErMin=10 ErrMin= 5.88D-05
 ErrMax= 5.88D-05  0.00D+00 EMaxC= 1.00D-01 BMatC= 1.59D-07 BMatP= 3.80D-07
 IDIUse=1 WtCom= 1.00D+00 WtEn= 0.00D+00
 Coeff-Com:  0.109D-02-0.216D-02-0.381D-03 0.267D-02-0.164D-01 0.101D-01
 Coeff-Com:  0.968D-01-0.256D+00 0.993D-01 0.106D+01
 Coeff:      0.109D-02-0.216D-02-0.381D-03 0.267D-02-0.164D-01 0.101D-01
 Coeff:      0.968D-01-0.256D+00 0.993D-01 0.106D+01
 Gap=     0.381 Goal=   None    Shift=    0.000
 RMSDP=2.42D-05 MaxDP=3.50D-04 DE=-1.28D-06 OVMax= 1.01D-03

 Cycle  11  Pass 1  IDiag  1:
 E= -75.7121101404328     Delta-E=       -0.000000276058 Rises=F Damp=F
 DIIS: error= 2.19D-05 at cycle  11 NSaved=  11.
 NSaved=11 IEnMin=11 EnMin= -75.7121101404328     IErMin=11 ErrMin= 2.19D-05
 ErrMax= 2.19D-05  0.00D+00 EMaxC= 1.00D-01 BMatC= 1.25D-08 BMatP= 1.59D-07
 IDIUse=1 WtCom= 1.00D+00 WtEn= 0.00D+00
 Coeff-Com: -0.778D-04 0.167D-03 0.142D-03-0.195D-02 0.149D-02-0.507D-03
 Coeff-Com: -0.252D-02 0.618D-01-0.190D+00 0.463D-01 0.109D+01
 Coeff:     -0.778D-04 0.167D-03 0.142D-03-0.195D-02 0.149D-02-0.507D-03
 Coeff:     -0.252D-02 0.618D-01-0.190D+00 0.463D-01 0.109D+01
 Gap=     0.381 Goal=   None    Shift=    0.000
 RMSDP=3.70D-06 MaxDP=3.82D-05 DE=-2.76D-07 OVMax= 1.71D-04

 Cycle  12  Pass 1  IDiag  1:
 E= -75.7121101693124     Delta-E=       -0.000000028880 Rises=F Damp=F
 DIIS: error= 3.66D-06 at cycle  12 NSaved=  12.
 NSaved=12 IEnMin=12 EnMin= -75.7121101693124     IErMin=12 ErrMin= 3.66D-06
 ErrMax= 3.66D-06  0.00D+00 EMaxC= 1.00D-01 BMatC= 3.33D-10 BMatP= 1.25D-08
 IDIUse=1 WtCom= 1.00D+00 WtEn= 0.00D+00
 Coeff-Com: -0.371D-04 0.566D-04 0.118D-03 0.306D-03-0.121D-02 0.226D-02
 Coeff-Com: -0.432D-02-0.788D-02 0.493D-01-0.371D-01-0.526D+00 0.152D+01
 Coeff:     -0.371D-04 0.566D-04 0.118D-03 0.306D-03-0.121D-02 0.226D-02
 Coeff:     -0.432D-02-0.788D-02 0.493D-01-0.371D-01-0.526D+00 0.152D+01
 Gap=     0.381 Goal=   None    Shift=    0.000
 RMSDP=7.96D-07 MaxDP=8.28D-06 DE=-2.89D-08 OVMax= 3.13D-05

 Cycle  13  Pass 1  IDiag  1:
 E= -75.7121101704031     Delta-E=       -0.000000001091 Rises=F Damp=F
 DIIS: error= 6.11D-07 at cycle  13 NSaved=  13.
 NSaved=13 IEnMin=13 EnMin= -75.7121101704031     IErMin=13 ErrMin= 6.11D-07
 ErrMax= 6.11D-07  0.00D+00 EMaxC= 1.00D-01 BMatC= 1.85D-11 BMatP= 3.33D-10
 IDIUse=1 WtCom= 1.00D+00 WtEn= 0.00D+00
 Coeff-Com:  0.249D-04-0.437D-04-0.268D-04-0.594D-04 0.103D-03-0.297D-03
 Coeff-Com:  0.158D-02-0.347D-03-0.723D-02 0.765D-02 0.138D+00-0.581D+00
 Coeff-Com:  0.144D+01
 Coeff:      0.249D-04-0.437D-04-0.268D-04-0.594D-04 0.103D-03-0.297D-03
 Coeff:      0.158D-02-0.347D-03-0.723D-02 0.765D-02 0.138D+00-0.581D+00
 Coeff:      0.144D+01
 Gap=     0.381 Goal=   None    Shift=    0.000
 RMSDP=2.18D-07 MaxDP=1.98D-06 DE=-1.09D-09 OVMax= 7.56D-06

 Cycle  14  Pass 1  IDiag  1:
 E= -75.7121101704467     Delta-E=       -0.000000000044 Rises=F Damp=F
 DIIS: error= 3.89D-07 at cycle  14 NSaved=  14.
 NSaved=14 IEnMin=14 EnMin= -75.7121101704467     IErMin=14 ErrMin= 3.89D-07
 ErrMax= 3.89D-07  0.00D+00 EMaxC= 1.00D-01 BMatC= 4.87D-12 BMatP= 1.85D-11
 IDIUse=1 WtCom= 1.00D+00 WtEn= 0.00D+00
 Coeff-Com:  0.241D-05-0.460D-05-0.784D-05 0.396D-04-0.533D-04 0.300D-04
 Coeff-Com: -0.751D-04 0.761D-03-0.267D-02 0.363D-02 0.583D-02-0.163D-01
 Coeff-Com: -0.140D+00 0.115D+01
 Coeff:      0.241D-05-0.460D-05-0.784D-05 0.396D-04-0.533D-04 0.300D-04
 Coeff:     -0.751D-04 0.761D-03-0.267D-02 0.363D-02 0.583D-02-0.163D-01
 Coeff:     -0.140D+00 0.115D+01
 Gap=     0.381 Goal=   None    Shift=    0.000
 RMSDP=8.98D-08 MaxDP=9.08D-07 DE=-4.35D-11 OVMax= 4.20D-06

 Cycle  15  Pass 1  IDiag  1:
 E= -75.7121101704564     Delta-E=       -0.000000000010 Rises=F Damp=F
 DIIS: error= 2.53D-08 at cycle  15 NSaved=  15.
 NSaved=15 IEnMin=15 EnMin= -75.7121101704564     IErMin=15 ErrMin= 2.53D-08
 ErrMax= 2.53D-08  0.00D+00 EMaxC= 1.00D-01 BMatC= 1.53D-14 BMatP= 4.87D-12
 IDIUse=1 WtCom= 1.00D+00 WtEn= 0.00D+00
 Coeff-Com:  0.235D-06-0.470D-06 0.131D-05-0.248D-05-0.707D-05 0.167D-04
 Coeff-Com:  0.249D-06-0.239D-03 0.916D-03-0.138D-02-0.358D-02 0.150D-01
 Coeff-Com:  0.222D-01-0.444D+00 0.141D+01
 Coeff:      0.235D-06-0.470D-06 0.131D-05-0.248D-05-0.707D-05 0.167D-04
 Coeff:      0.249D-06-0.239D-03 0.916D-03-0.138D-02-0.358D-02 0.150D-01
 Coeff:      0.222D-01-0.444D+00 0.141D+01
 Gap=     0.381 Goal=   None    Shift=    0.000
 RMSDP=7.29D-09 MaxDP=7.01D-08 DE=-9.78D-12 OVMax= 3.00D-07

 SCF Done:  E(RHF) =  -75.7121101705     A.U. after   15 cycles
            NFock= 15  Conv=0.73D-08     -V/T= 1.9998
 KE= 7.572639220020D+01 PE=-2.092195161957D+02 EE= 3.928178700615D+01
 Leave Link  502 at Tue Oct 10 16:06:03 2017, MaxMem=    33554432 cpu:         3.4
 (Enter /usr/local/gaussian/2009-E.01/g09/l801.exe)
 Windowed orbitals will be sorted by symmetry type.
 ExpMin= 3.60D-02 ExpMax= 4.56D+03 ExpMxC= 6.82D+02 IAcc=3 IRadAn=         5 AccDes= 0.00D+00
 HarFok:  IExCor=  205 AccDes= 0.00D+00 IRadAn=         5 IDoV=-2 UseB2=F ITyADJ=14
 ICtDFT= 12500011 ScaDFX=  1.000000  1.000000  1.000000  1.000000
 Largest valence mixing into a core orbital is  1.53D-04
 Largest core mixing into a valence orbital is  4.56D-05
 Range of M.O.s used for correlation:     3    51
 NBasis=    51 NAE=     6 NBE=     6 NFC=     2 NFV=     0
 NROrb=     49 NOA=     4 NOB=     4 NVA=    45 NVB=    45

 **** Warning!!: The largest alpha MO coefficient is  0.34891907D+02

 Leave Link  801 at Tue Oct 10 16:06:03 2017, MaxMem=    33554432 cpu:         0.3
 (Enter /usr/local/gaussian/2009-E.01/g09/l804.exe)
 Closed-shell transformation, MDV=    33554432 ITran=4 ISComp=2.
 Semi-Direct transformation.
 ModeAB=           2 MOrb=             4 LenV=      33353926
 LASXX=       113862 LTotXX=      113862 LenRXX=      113862
 LTotAB=      122038 MaxLAS=      280476 LenRXY=      280476
 NonZer=      296352 LenScr=      888832 LnRSAI=           0
 LnScr1=           0 LExtra=           0 Total=      1283170
 MaxDsk=          -1 SrtSym=           F ITran=            4
 DoSDTr:  NPSUse=  8
 JobTyp=0 Pass  1:  I=   1 to   4.
 (rs|ai) integrals will be sorted in core.
 Complete sort for first half transformation.
 First half transformation complete.
 Complete sort for second half transformation.
 Second half transformation complete.
 Spin components of T(2) and E(2):
     alpha-alpha T2 =       0.6949914091D-02 E2=     -0.1764798208D-01
     alpha-beta  T2 =       0.6546124735D-01 E2=     -0.1575755907D+00
     beta-beta   T2 =       0.6949914091D-02 E2=     -0.1764798208D-01
 ANorm=    0.1038923036D+01
 E2 =    -0.1928715549D+00 EUMP2 =    -0.75904981725337D+02
 Leave Link  804 at Tue Oct 10 16:06:03 2017, MaxMem=    33554432 cpu:         1.2
 (Enter /usr/local/gaussian/2009-E.01/g09/l913.exe)
 CIDS:  MDV=    33554432.
 Frozen-core window:  NFC=   2 NFV=   0.
 IFCWin=0 IBDFC=1 NFBD=     0     0 NFCmp=     0     0 NFFFC=     0     0
 Using DD3R+UMP44R for 1st iteration, S=T.
 Using DD4RQ for 2nd and later iterations.
 Keep R2 and R3 ints in memory in symmetry-blocked form, NReq=1762215.
 FoFCou: FMM=F IPFlag=           0 FMFlag=           0 FMFlg1=           0
         NFxFlg=           0 DoJE=F BraDBF=F KetDBF=F FulRan=T
         wScrn=  0.000000 ICntrl=     600 IOpCl=  0 I1Cent=           0 NGrid=           0
         NMat0=    1 NMatS0=   1326 NMatT0=    0 NMatD0=    1 NMtDS0=    0 NMtDT0=    0
 Petite list used in FoFCou.
 CCSD(T)
 =======
 Iterations= 200 Convergence= 0.100D-06
 Iteration Nr.   1
 **********************
 DD1Dir will call FoFMem   1 times, MxPair=        20
 NAB=    10 NAA=     0 NBB=     0.
 MP4(R+Q)=  0.54626334D-02
 Maximum subspace dimension=  5
 Norm of the A-vectors is  2.7157564D-01 conv= 1.00D-05.
 RLE energy=       -0.2187515647
 E3=       -0.28305081D-01        EUMP3=      -0.75933286806D+02
 E4(DQ)=   -0.45189832D-02        UMP4(DQ)=   -0.75937805790D+02
 E4(SDQ)=  -0.82113772D-02        UMP4(SDQ)=  -0.75941498184D+02
 VARIATIONAL ENERGIES WITH THE FIRST-ORDER WAVEFUNCTION:
 DE(Corr)= -0.21568976     E(Corr)=     -75.927799932    
 NORM(A)=   0.10568763D+01
 Iteration Nr.   2
 **********************
 DD1Dir will call FoFMem   1 times, MxPair=        20
 NAB=    10 NAA=     0 NBB=     0.
 Norm of the A-vectors is  1.5374182D-01 conv= 1.00D-05.
 RLE energy=       -0.2322344250
 DE(Corr)= -0.22736441     E(CORR)=     -75.939474578     Delta=-1.17D-02
 NORM(A)=   0.10734741D+01
 Iteration Nr.   3
 **********************
 DD1Dir will call FoFMem   1 times, MxPair=        20
 NAB=    10 NAA=     0 NBB=     0.
 Norm of the A-vectors is  6.9785031D-02 conv= 1.00D-05.
 RLE energy=       -0.2365457512
 DE(Corr)= -0.23196550     E(CORR)=     -75.944075673     Delta=-4.60D-03
 NORM(A)=   0.10962585D+01
 Iteration Nr.   4
 **********************
 DD1Dir will call FoFMem   1 times, MxPair=        20
 NAB=    10 NAA=     0 NBB=     0.
 Norm of the A-vectors is  7.8064491D-02 conv= 1.00D-05.
 RLE energy=       -0.2406767572
 DE(Corr)= -0.23681437     E(CORR)=     -75.948924537     Delta=-4.85D-03
 NORM(A)=   0.11411091D+01
 Iteration Nr.   5
 **********************
 DD1Dir will call FoFMem   1 times, MxPair=        20
 NAB=    10 NAA=     0 NBB=     0.
 Norm of the A-vectors is  5.0233418D-02 conv= 1.00D-05.
 RLE energy=       -0.2434909255
 DE(Corr)= -0.24036815     E(CORR)=     -75.952478324     Delta=-3.55D-03
 NORM(A)=   0.12297378D+01
 Iteration Nr.   6
 **********************
 DD1Dir will call FoFMem   1 times, MxPair=        20
 NAB=    10 NAA=     0 NBB=     0.
 Norm of the A-vectors is  4.9285013D-02 conv= 1.00D-05.
 RLE energy=       -0.2427255404
 DE(Corr)= -0.24324321     E(CORR)=     -75.955353378     Delta=-2.88D-03
 NORM(A)=   0.12895587D+01
 Iteration Nr.   7
 **********************
 DD1Dir will call FoFMem   1 times, MxPair=        20
 NAB=    10 NAA=     0 NBB=     0.
 Norm of the A-vectors is  3.8108411D-02 conv= 1.00D-05.
 RLE energy=       -0.2448474367
 DE(Corr)= -0.24367329     E(CORR)=     -75.955783456     Delta=-4.30D-04
 NORM(A)=   0.13403224D+01
 Iteration Nr.   8
 **********************
 DD1Dir will call FoFMem   1 times, MxPair=        20
 NAB=    10 NAA=     0 NBB=     0.
 Norm of the A-vectors is  2.6034226D-02 conv= 1.00D-05.
 RLE energy=       -0.2440192424
 DE(Corr)= -0.24444691     E(CORR)=     -75.956557078     Delta=-7.74D-04
 NORM(A)=   0.13301464D+01
 Iteration Nr.   9
 **********************
 DD1Dir will call FoFMem   1 times, MxPair=        20
 NAB=    10 NAA=     0 NBB=     0.
 Norm of the A-vectors is  1.4380235D-02 conv= 1.00D-05.
 RLE energy=       -0.2441761750
 DE(Corr)= -0.24408758     E(CORR)=     -75.956197751     Delta= 3.59D-04
 NORM(A)=   0.13328458D+01
 Iteration Nr.  10
 **********************
 DD1Dir will call FoFMem   1 times, MxPair=        20
 NAB=    10 NAA=     0 NBB=     0.
 Norm of the A-vectors is  6.4233025D-03 conv= 1.00D-05.
 RLE energy=       -0.2441823460
 DE(Corr)= -0.24411685     E(CORR)=     -75.956227016     Delta=-2.93D-05
 NORM(A)=   0.13436693D+01
 Iteration Nr.  11
 **********************
 DD1Dir will call FoFMem   1 times, MxPair=        20
 NAB=    10 NAA=     0 NBB=     0.
 Norm of the A-vectors is  5.3329232D-03 conv= 1.00D-05.
 RLE energy=       -0.2443266867
 DE(Corr)= -0.24426432     E(CORR)=     -75.956374490     Delta=-1.47D-04
 NORM(A)=   0.13468192D+01
 Iteration Nr.  12
 **********************
 DD1Dir will call FoFMem   1 times, MxPair=        20
 NAB=    10 NAA=     0 NBB=     0.
 Norm of the A-vectors is  3.1427869D-03 conv= 1.00D-05.
 RLE energy=       -0.2442646058
 DE(Corr)= -0.24427000     E(CORR)=     -75.956380173     Delta=-5.68D-06
 NORM(A)=   0.13465893D+01
 Iteration Nr.  13
 **********************
 DD1Dir will call FoFMem   1 times, MxPair=        20
 NAB=    10 NAA=     0 NBB=     0.
 Norm of the A-vectors is  1.6410285D-03 conv= 1.00D-05.
 RLE energy=       -0.2442943272
 DE(Corr)= -0.24429454     E(CORR)=     -75.956404710     Delta=-2.45D-05
 NORM(A)=   0.13452974D+01
 Iteration Nr.  14
 **********************
 DD1Dir will call FoFMem   1 times, MxPair=        20
 NAB=    10 NAA=     0 NBB=     0.
 Norm of the A-vectors is  7.0923153D-04 conv= 1.00D-05.
 RLE energy=       -0.2442919548
 DE(Corr)= -0.24430144     E(CORR)=     -75.956411608     Delta=-6.90D-06
 NORM(A)=   0.13442767D+01
 Iteration Nr.  15
 **********************
 DD1Dir will call FoFMem   1 times, MxPair=        20
 NAB=    10 NAA=     0 NBB=     0.
 Norm of the A-vectors is  5.1834108D-04 conv= 1.00D-05.
 RLE energy=       -0.2442831915
 DE(Corr)= -0.24429069     E(CORR)=     -75.956400859     Delta= 1.07D-05
 NORM(A)=   0.13442717D+01
 Iteration Nr.  16
 **********************
 DD1Dir will call FoFMem   1 times, MxPair=        20
 NAB=    10 NAA=     0 NBB=     0.
 Norm of the A-vectors is  2.8493090D-04 conv= 1.00D-05.
 RLE energy=       -0.2442792452
 DE(Corr)= -0.24428520     E(CORR)=     -75.956395366     Delta= 5.49D-06
 NORM(A)=   0.13440302D+01
 Iteration Nr.  17
 **********************
 DD1Dir will call FoFMem   1 times, MxPair=        20
 NAB=    10 NAA=     0 NBB=     0.
 Norm of the A-vectors is  1.5024783D-04 conv= 1.00D-05.
 RLE energy=       -0.2442767499
 DE(Corr)= -0.24427748     E(CORR)=     -75.956387654     Delta= 7.71D-06
 NORM(A)=   0.13440450D+01
 Iteration Nr.  18
 **********************
 DD1Dir will call FoFMem   1 times, MxPair=        20
 NAB=    10 NAA=     0 NBB=     0.
 Norm of the A-vectors is  1.0644404D-04 conv= 1.00D-05.
 RLE energy=       -0.2442785742
 DE(Corr)= -0.24427743     E(CORR)=     -75.956387601     Delta= 5.36D-08
 NORM(A)=   0.13440546D+01
 Iteration Nr.  19
 **********************
 DD1Dir will call FoFMem   1 times, MxPair=        20
 NAB=    10 NAA=     0 NBB=     0.
 Norm of the A-vectors is  5.3934037D-05 conv= 1.00D-05.
 RLE energy=       -0.2442779674
 DE(Corr)= -0.24427832     E(CORR)=     -75.956388494     Delta=-8.93D-07
 NORM(A)=   0.13440384D+01
 Iteration Nr.  20
 **********************
 DD1Dir will call FoFMem   1 times, MxPair=        20
 NAB=    10 NAA=     0 NBB=     0.
 Norm of the A-vectors is  3.0658076D-05 conv= 1.00D-05.
 RLE energy=       -0.2442787573
 DE(Corr)= -0.24427865     E(CORR)=     -75.956388817     Delta=-3.23D-07
 NORM(A)=   0.13440226D+01
 Iteration Nr.  21
 **********************
 DD1Dir will call FoFMem   1 times, MxPair=        20
 NAB=    10 NAA=     0 NBB=     0.
 Norm of the A-vectors is  1.5881546D-05 conv= 1.00D-05.
 RLE energy=       -0.2442785221
 DE(Corr)= -0.24427867     E(CORR)=     -75.956388844     Delta=-2.69D-08
 NORM(A)=   0.13440111D+01
 Iteration Nr.  22
 **********************
 DD1Dir will call FoFMem   1 times, MxPair=        20
 NAB=    10 NAA=     0 NBB=     0.
 Norm of the A-vectors is  5.3893876D-06 conv= 1.00D-05.
 RLE energy=       -0.2442784195
 DE(Corr)= -0.24427854     E(CORR)=     -75.956388706     Delta= 1.37D-07
 NORM(A)=   0.13440067D+01
 Iteration Nr.  23
 **********************
 DD1Dir will call FoFMem   1 times, MxPair=        20
 NAB=    10 NAA=     0 NBB=     0.
 Norm of the A-vectors is  4.1753843D-06 conv= 1.00D-05.
 RLE energy=       -0.2442783260
 DE(Corr)= -0.24427842     E(CORR)=     -75.956388587     Delta= 1.19D-07
 NORM(A)=   0.13440035D+01
 Iteration Nr.  24
 **********************
 DD1Dir will call FoFMem   1 times, MxPair=        20
 NAB=    10 NAA=     0 NBB=     0.
 Norm of the A-vectors is  1.9482510D-06 conv= 1.00D-05.
 RLE energy=       -0.2442782771
 DE(Corr)= -0.24427833     E(CORR)=     -75.956388504     Delta= 8.35D-08
 NORM(A)=   0.13440020D+01
 CI/CC converged in   24 iterations to DelEn= 8.35D-08 Conv= 1.00D-07 ErrA1= 1.95D-06 Conv= 1.00D-05
 Dominant configurations:
 ***********************
 Spin Case        I    J    A    B          Value
    AA            5         7           -0.489357D+00
   ABAB           5    5    7    7      -0.235438D+00
   ABAB           6    6    7    7      -0.202825D+00
   ABAB           6    6    8    8      -0.127445D+00
   ABAB           5    6    7    8      -0.105211D+00
   ABAB           6    5    8    7      -0.105211D+00
 Largest amplitude= 4.89D-01
 IPart=  2 IA=    4   13.03% done.
 IPart=  6 IA=    6   21.21% done.
 IPart=  7 IA=    9   32.73% done.
 IPart=  6 IA=   12   43.33% done.
 IPart=  2 IA=   15   53.03% done.
 IPart=  7 IA=   18   61.82% done.
 IPart=  2 IA=   22   72.12% done.
 IPart=  1 IA=   26   80.81% done.
 IPart=  3 IA=   32   90.81% done.
 Time for triples=        6.93 seconds.
 T4(CCSD)= -0.33131234D-01
 T5(CCSD)=  0.10529059D-01
 CCSD(T)= -0.75978990678D+02
 Discarding MO integrals.
 Leave Link  913 at Tue Oct 10 16:06:14 2017, MaxMem=    33554432 cpu:        78.2
 (Enter /usr/local/gaussian/2009-E.01/g09/l601.exe)
 Copying SCF densities to generalized density rwf, IOpCl= 0 IROHF=0.

 **********************************************************************

            Population analysis using the SCF density.

 **********************************************************************

 Orbital symmetries:
       Occupied  (A') (A') (A') (A') (A') (A")
       Virtual   (A') (A") (A') (A') (A') (A') (A") (A') (A') (A")
                 (A') (A') (A') (A') (A') (A') (A") (A') (A") (A')
                 (A') (A') (A') (A") (A') (A") (A') (A') (A") (A')
                 (A") (A') (A') (A") (A') (A') (A') (A") (A') (A")
                 (A') (A') (A') (A') (A')
 The electronic state is 1-A'.
 Alpha  occ. eigenvalues --  -11.70416 -11.69869  -1.39568  -1.08946  -0.80476
 Alpha  occ. eigenvalues --   -0.77203
 Alpha virt. eigenvalues --   -0.39092  -0.17104  -0.16841  -0.11578  -0.07470
 Alpha virt. eigenvalues --   -0.06257  -0.05878  -0.01952   0.00472   0.01096
 Alpha virt. eigenvalues --    0.02022   0.05886   0.07065   0.21998   0.35938
 Alpha virt. eigenvalues --    0.40299   0.41023   0.43508   0.50729   0.50858
 Alpha virt. eigenvalues --    0.59646   0.62593   0.76453   0.96207   1.05071
 Alpha virt. eigenvalues --    1.06396   1.17720   1.33664   1.34888   1.53303
 Alpha virt. eigenvalues --    1.61370   1.78967   1.92196   2.09663   2.19289
 Alpha virt. eigenvalues --    2.52635   2.63125   2.70258   2.84689   2.87996
 Alpha virt. eigenvalues --    2.89154   3.14704   3.57404  24.08938  24.94108
          Condensed to atoms (all electrons):
               1          2          3
     1  C    4.909335   0.580643   0.025046
     2  C    0.580643   4.901353   0.342058
     3  H    0.025046   0.342058   0.293819
 Mulliken charges:
               1
     1  C    0.484976
     2  C    0.175947
     3  H    0.339077
 Sum of Mulliken charges =   1.00000
 Mulliken charges with hydrogens summed into heavy atoms:
               1
     1  C    0.484976
     2  C    0.515024
 Electronic spatial extent (au):  <R**2>=             47.4199
 Charge=              1.0000 electrons
 Dipole moment (field-independent basis, Debye):
    X=              0.3651    Y=              2.6597    Z=              0.0000  Tot=              2.6846
 Quadrupole moment (field-independent basis, Debye-Ang):
   XX=             -7.3965   YY=             -6.3883   ZZ=            -11.3341
   XY=             -1.2758   XZ=              0.0000   YZ=              0.0000
 Traceless Quadrupole moment (field-independent basis, Debye-Ang):
   XX=              0.9764   YY=              1.9847   ZZ=             -2.9611
   XY=             -1.2758   XZ=              0.0000   YZ=              0.0000
 Octapole moment (field-independent basis, Debye-Ang**2):
  XXX=              0.3475  YYY=             10.9691  ZZZ=              0.0000  XYY=             -0.9284
  XXY=              1.6435  XXZ=              0.0000  XZZ=              0.0879  YZZ=              0.5862
  YYZ=              0.0000  XYZ=              0.0000
 Hexadecapole moment (field-independent basis, Debye-Ang**3):
 XXXX=             -6.9139 YYYY=            -38.3077 ZZZZ=            -12.0985 XXXY=              0.6152
 XXXZ=              0.0000 YYYX=             -2.6871 YYYZ=              0.0000 ZZZX=              0.0000
 ZZZY=              0.0000 XXYY=             -6.5179 XXZZ=             -3.2110 YYZZ=             -9.8061
 XXYZ=              0.0000 YYXZ=              0.0000 ZZXY=              0.3932
 N-N= 1.849922681893D+01 E-N=-2.092195162627D+02  KE= 7.572639220020D+01
 Symmetry A'   KE= 7.340176346564D+01
 Symmetry A"   KE= 2.324628734562D+00
 Leave Link  601 at Tue Oct 10 16:06:14 2017, MaxMem=    33554432 cpu:         0.1
 (Enter /usr/local/gaussian/2009-E.01/g09/l9999.exe)
 1\1\ WCSS.PL-BEM-WN1424\SP\RCCSD(T)-FC\6-311++G(d,p)\C2H1(1+)\ROOT\10-
 Oct-2017\0\\#p ccsd(t,maxcyc=200)/6-311++G(d,p)\\ccsd(t) iener\\1,1\C,
 0,0.677846,-0.409992,0.\C,0,-0.094457,0.681414,0.\H,0,-1.092226,1.1332
 51,0.\\Version=ES64L-G09RevE.01\State=1-A'\HF=-75.7121102\MP2=-75.9049
 817\MP3=-75.9332868\MP4D=-75.9432684\MP4DQ=-75.9378058\MP4SDQ=-75.9414
 982\CCSD=-75.9563885\CCSD(T)=-75.9789907\RMSD=7.292e-09\PG=CS [SG(C2H1
 )]\\@


 LIFE CAN ONLY BE UNDERSTOOD BACKWARD, BUT MUST
 BE LIVED FORWARD. -- KIRKEGAARD
 Job cpu time:       0 days  0 hours  1 minutes 29.0 seconds.
 File lengths (MBytes):  RWF=     17 Int=      0 D2E=      0 Chk=      1 Scr=      1
 Normal termination of Gaussian 09 at Tue Oct 10 16:06:14 2017.
