 Entering Gaussian System, Link 0=/usr/local/gaussian/2009-E.01/g09/g09
 Initial command:
 /usr/local/gaussian/2009-E.01/g09/l1.exe "/lustre/scratch/eerd/4986703.achilles/Gau-21135.inp" -scrdir="/lustre/scratch/eerd/4986703.achilles/"
 Entering Link 1 = /usr/local/gaussian/2009-E.01/g09/l1.exe PID=     21137.
  
 Copyright (c) 1988,1990,1992,1993,1995,1998,2003,2009,2015,
            Gaussian, Inc.  All Rights Reserved.
  
 This is part of the Gaussian(R) 09 program.  It is based on
 the Gaussian(R) 03 system (copyright 2003, Gaussian, Inc.),
 the Gaussian(R) 98 system (copyright 1998, Gaussian, Inc.),
 the Gaussian(R) 94 system (copyright 1995, Gaussian, Inc.),
 the Gaussian 92(TM) system (copyright 1992, Gaussian, Inc.),
 the Gaussian 90(TM) system (copyright 1990, Gaussian, Inc.),
 the Gaussian 88(TM) system (copyright 1988, Gaussian, Inc.),
 the Gaussian 86(TM) system (copyright 1986, Carnegie Mellon
 University), and the Gaussian 82(TM) system (copyright 1983,
 Carnegie Mellon University). Gaussian is a federally registered
 trademark of Gaussian, Inc.
  
 This software contains proprietary and confidential information,
 including trade secrets, belonging to Gaussian, Inc.
  
 This software is provided under written license and may be
 used, copied, transmitted, or stored only in accord with that
 written license.
  
 The following legend is applicable only to US Government
 contracts under FAR:
  
                    RESTRICTED RIGHTS LEGEND
  
 Use, reproduction and disclosure by the US Government is
 subject to restrictions as set forth in subparagraphs (a)
 and (c) of the Commercial Computer Software - Restricted
 Rights clause in FAR 52.227-19.
  
 Gaussian, Inc.
 340 Quinnipiac St., Bldg. 40, Wallingford CT 06492
  
  
 ---------------------------------------------------------------
 Warning -- This program may not be used in any manner that
 competes with the business of Gaussian, Inc. or will provide
 assistance to any competitor of Gaussian, Inc.  The licensee
 of this program is prohibited from giving any competitor of
 Gaussian, Inc. access to this program.  By using this program,
 the user acknowledges that Gaussian, Inc. is engaged in the
 business of creating and licensing software in the field of
 computational chemistry and represents and warrants to the
 licensee that it is not a competitor of Gaussian, Inc. and that
 it will not use this program in any manner prohibited above.
 ---------------------------------------------------------------
  

 Cite this work as:
 Gaussian 09, Revision E.01,
 M. J. Frisch, G. W. Trucks, H. B. Schlegel, G. E. Scuseria, 
 M. A. Robb, J. R. Cheeseman, G. Scalmani, V. Barone, B. Mennucci, 
 G. A. Petersson, H. Nakatsuji, M. Caricato, X. Li, H. P. Hratchian, 
 A. F. Izmaylov, J. Bloino, G. Zheng, J. L. Sonnenberg, M. Hada, 
 M. Ehara, K. Toyota, R. Fukuda, J. Hasegawa, M. Ishida, T. Nakajima, 
 Y. Honda, O. Kitao, H. Nakai, T. Vreven, J. A. Montgomery, Jr., 
 J. E. Peralta, F. Ogliaro, M. Bearpark, J. J. Heyd, E. Brothers, 
 K. N. Kudin, V. N. Staroverov, T. Keith, R. Kobayashi, J. Normand, 
 K. Raghavachari, A. Rendell, J. C. Burant, S. S. Iyengar, J. Tomasi, 
 M. Cossi, N. Rega, J. M. Millam, M. Klene, J. E. Knox, J. B. Cross, 
 V. Bakken, C. Adamo, J. Jaramillo, R. Gomperts, R. E. Stratmann, 
 O. Yazyev, A. J. Austin, R. Cammi, C. Pomelli, J. W. Ochterski, 
 R. L. Martin, K. Morokuma, V. G. Zakrzewski, G. A. Voth, 
 P. Salvador, J. J. Dannenberg, S. Dapprich, A. D. Daniels, 
 O. Farkas, J. B. Foresman, J. V. Ortiz, J. Cioslowski, 
 and D. J. Fox, Gaussian, Inc., Wallingford CT, 2013.
 
 ******************************************
 Gaussian 09:  ES64L-G09RevE.01 30-Nov-2015
                10-Oct-2017 
 ******************************************
 %NProcShared=8
 Will use up to    8 processors via shared memory.
 -----------------------------------
 #p ccsd(t,maxcyc=200)/6-311++G(d,p)
 -----------------------------------
 1/38=1/1;
 2/12=2,17=6,18=5,40=1/2;
 3/5=4,6=6,7=1111,11=9,16=1,25=1,30=1/1,2,3;
 4//1;
 5/5=2,38=5/2;
 8/6=4,9=120000,10=2/1,4;
 9/5=7,6=200,14=2/13;
 6/7=2,8=2,9=2,10=2/1;
 99/5=1,9=1/99;
 Leave Link    1 at Tue Oct 10 16:06:35 2017, MaxMem=           0 cpu:         0.8
 (Enter /usr/local/gaussian/2009-E.01/g09/l101.exe)
 -------------
 ccsd(t) iener
 -------------
 Symbolic Z-matrix:
 Charge =  1 Multiplicity = 3
 C                     0.74512  -0.57132   0. 
 C                    -0.1163    0.33975   0. 
 H                    -0.86321   1.13125   0. 
 
 NAtoms=      3 NQM=        3 NQMF=       0 NMMI=      0 NMMIF=      0
                NMic=       0 NMicF=      0.
                    Isotopes and Nuclear Properties:
 (Nuclear quadrupole moments (NQMom) in fm**2, nuclear magnetic moments (NMagM)
  in nuclear magnetons)

  Atom         1           2           3
 IAtWgt=          12          12           1
 AtmWgt=  12.0000000  12.0000000   1.0078250
 NucSpn=           0           0           1
 AtZEff=   0.0000000   0.0000000   0.0000000
 NQMom=    0.0000000   0.0000000   0.0000000
 NMagM=    0.0000000   0.0000000   2.7928460
 AtZNuc=   6.0000000   6.0000000   1.0000000
 Leave Link  101 at Tue Oct 10 16:06:35 2017, MaxMem=    33554432 cpu:         2.1
 (Enter /usr/local/gaussian/2009-E.01/g09/l202.exe)
                          Input orientation:                          
 ---------------------------------------------------------------------
 Center     Atomic      Atomic             Coordinates (Angstroms)
 Number     Number       Type             X           Y           Z
 ---------------------------------------------------------------------
      1          6           0        0.745116   -0.571315    0.000000
      2          6           0       -0.116303    0.339752    0.000000
      3          1           0       -0.863212    1.131247    0.000000
 ---------------------------------------------------------------------
                    Distance matrix (angstroms):
                    1          2          3
     1  C    0.000000
     2  C    1.253828   0.000000
     3  H    2.342101   1.088273   0.000000
 Stoichiometry    C2H(1+,3)
 Framework group  C*V[C*(CCH)]
 Deg. of freedom     2
 Full point group                 C*V     NOp   4
 Largest Abelian subgroup         C2V     NOp   4
 Largest concise Abelian subgroup C1      NOp   1
                         Standard orientation:                         
 ---------------------------------------------------------------------
 Center     Atomic      Atomic             Coordinates (Angstroms)
 Number     Number       Type             X           Y           Z
 ---------------------------------------------------------------------
      1          6           0        0.000000   -0.000000   -0.758852
      2          6           0       -0.000000    0.000000    0.494977
      3          1           0       -0.000000   -0.000000    1.583249
 ---------------------------------------------------------------------
 Rotational constants (GHZ):      0.0000000     41.1616366     41.1616366
 Leave Link  202 at Tue Oct 10 16:06:36 2017, MaxMem=    33554432 cpu:         0.7
 (Enter /usr/local/gaussian/2009-E.01/g09/l301.exe)
 Standard basis: 6-311++G(d,p) (5D, 7F)
 Ernie: Thresh=  0.10000D-02 Tol=  0.10000D-05 Strict=F.
 There are    29 symmetry adapted cartesian basis functions of A1  symmetry.
 There are     2 symmetry adapted cartesian basis functions of A2  symmetry.
 There are    11 symmetry adapted cartesian basis functions of B1  symmetry.
 There are    11 symmetry adapted cartesian basis functions of B2  symmetry.
 There are    27 symmetry adapted basis functions of A1  symmetry.
 There are     2 symmetry adapted basis functions of A2  symmetry.
 There are    11 symmetry adapted basis functions of B1  symmetry.
 There are    11 symmetry adapted basis functions of B2  symmetry.
    51 basis functions,    81 primitive gaussians,    53 cartesian basis functions
     7 alpha electrons        5 beta electrons
       nuclear repulsion energy        19.4669430718 Hartrees.
 IExCor=    0 DFT=F Ex=HF Corr=None ExCW=0 ScaHFX=  1.000000
 ScaDFX=  1.000000  1.000000  1.000000  1.000000 ScalE2=  1.000000  1.000000
 IRadAn=      0 IRanWt=     -1 IRanGd=            0 ICorTp=0 IEmpDi=  4
 NAtoms=    3 NActive=    3 NUniq=    3 SFac= 1.00D+00 NAtFMM=   60 NAOKFM=F Big=F
 Integral buffers will be    131072 words long.
 Raffenetti 2 integral format.
 Two-electron integral symmetry is turned on.
 Leave Link  301 at Tue Oct 10 16:06:36 2017, MaxMem=    33554432 cpu:         1.1
 (Enter /usr/local/gaussian/2009-E.01/g09/l302.exe)
 NPDir=0 NMtPBC=     1 NCelOv=     1 NCel=       1 NClECP=     1 NCelD=      1
         NCelK=      1 NCelE2=     1 NClLst=     1 CellRange=     0.0.
 One-electron integrals computed using PRISM.
 NBasis=    51 RedAO= T EigKep=  1.11D-04  NBF=    27     2    11    11
 NBsUse=    51 1.00D-06 EigRej= -1.00D+00 NBFU=    27     2    11    11
 Leave Link  302 at Tue Oct 10 16:06:36 2017, MaxMem=    33554432 cpu:         3.3
 (Enter /usr/local/gaussian/2009-E.01/g09/l303.exe)
 DipDrv:  MaxL=1.
 Leave Link  303 at Tue Oct 10 16:06:36 2017, MaxMem=    33554432 cpu:         0.4
 (Enter /usr/local/gaussian/2009-E.01/g09/l401.exe)
 ExpMin= 3.60D-02 ExpMax= 4.56D+03 ExpMxC= 6.82D+02 IAcc=3 IRadAn=         5 AccDes= 0.00D+00
 Harris functional with IExCor=  205 and IRadAn=       5 diagonalized for initial guess.
 HarFok:  IExCor=  205 AccDes= 0.00D+00 IRadAn=         5 IDoV= 1 UseB2=F ITyADJ=14
 ICtDFT=  3500011 ScaDFX=  1.000000  1.000000  1.000000  1.000000
 FoFCou: FMM=F IPFlag=           0 FMFlag=      100000 FMFlg1=           0
         NFxFlg=           0 DoJE=T BraDBF=F KetDBF=T FulRan=T
         wScrn=  0.000000 ICntrl=     500 IOpCl=  0 I1Cent=   200000004 NGrid=           0
         NMat0=    1 NMatS0=      1 NMatT0=    0 NMatD0=    1 NMtDS0=    0 NMtDT0=    0
 Petite list used in FoFCou.
 Harris En= -75.7913815352343    
 JPrj=0 DoOrth=F DoCkMO=F.
 Initial guess orbital symmetries:
 Alpha Orbitals:
       Occupied  (SG) (SG) (SG) (SG) (PI) (PI) (SG)
       Virtual   (PI) (PI) (SG) (SG) (PI) (PI) (SG) (PI) (PI) (SG)
                 (SG) (SG) (SG) (SG) (PI) (PI) (PI) (PI) (SG) (SG)
                 (SG) (SG) (PI) (PI) (DLTA) (DLTA) (DLTA) (DLTA)
                 (PI) (PI) (SG) (SG) (PI) (PI) (SG) (PI) (PI) (PI)
                 (PI) (SG) (SG) (SG) (SG) (SG)
 Beta  Orbitals:
       Occupied  (SG) (SG) (SG) (SG) (PI)
       Virtual   (PI) (SG) (PI) (PI) (SG) (SG) (PI) (PI) (SG) (PI)
                 (PI) (SG) (SG) (SG) (SG) (SG) (PI) (PI) (PI) (PI)
                 (SG) (SG) (SG) (SG) (PI) (PI) (DLTA) (DLTA) (DLTA)
                 (DLTA) (PI) (PI) (SG) (SG) (PI) (PI) (SG) (PI)
                 (PI) (PI) (PI) (SG) (SG) (SG) (SG) (SG)
 Initial guess <Sx>= 0.0000 <Sy>= 0.0000 <Sz>= 1.0000 <S**2>= 2.0000 S= 1.0000
 Leave Link  401 at Tue Oct 10 16:06:37 2017, MaxMem=    33554432 cpu:         1.9
 (Enter /usr/local/gaussian/2009-E.01/g09/l502.exe)
 UHF open shell SCF:
 Using DIIS extrapolation, IDIIS=  1040.
 Integral symmetry usage will be decided dynamically.
 Keep R1 and R2 ints in memory in symmetry-blocked form, NReq=1746760.
 IVT=       27856 IEndB=       27856 NGot=    33554432 MDV=    33023498
 LenX=    33023498 LenY=    33020248
 Requested convergence on RMS density matrix=1.00D-08 within 128 cycles.
 Requested convergence on MAX density matrix=1.00D-06.
 Requested convergence on             energy=1.00D-06.
 No special actions if energy rises.
 FoFCou: FMM=F IPFlag=           0 FMFlag=           0 FMFlg1=           0
         NFxFlg=           0 DoJE=F BraDBF=F KetDBF=F FulRan=T
         wScrn=  0.000000 ICntrl=     600 IOpCl=  0 I1Cent=           0 NGrid=           0
         NMat0=    1 NMatS0=   1326 NMatT0=    0 NMatD0=    1 NMtDS0=    0 NMtDT0=    0
 Petite list used in FoFCou.

 Cycle   1  Pass 1  IDiag  1:
 E= -75.7384590444757    
 DIIS: error= 4.93D-02 at cycle   1 NSaved=   1.
 NSaved= 1 IEnMin= 1 EnMin= -75.7384590444757     IErMin= 1 ErrMin= 4.93D-02
 ErrMax= 4.93D-02  0.00D+00 EMaxC= 1.00D-01 BMatC= 4.62D-01 BMatP= 4.62D-01
 IDIUse=3 WtCom= 5.07D-01 WtEn= 4.93D-01
 Coeff-Com:  0.100D+01
 Coeff-En:   0.100D+01
 Coeff:      0.100D+01
 Gap=     0.581 Goal=   None    Shift=    0.000
 Gap=     0.390 Goal=   None    Shift=    0.000
 GapD=    0.390 DampG=1.000 DampE=0.500 DampFc=0.5000 IDamp=-1.
 Damping current iteration by 5.00D-01
 RMSDP=9.07D-03 MaxDP=2.20D-01              OVMax= 1.19D-01

 Cycle   2  Pass 1  IDiag  1:
 E= -75.7632620276896     Delta-E=       -0.024802983214 Rises=F Damp=T
 DIIS: error= 2.76D-02 at cycle   2 NSaved=   2.
 NSaved= 2 IEnMin= 2 EnMin= -75.7632620276896     IErMin= 2 ErrMin= 2.76D-02
 ErrMax= 2.76D-02  0.00D+00 EMaxC= 1.00D-01 BMatC= 1.20D-01 BMatP= 4.62D-01
 IDIUse=3 WtCom= 7.24D-01 WtEn= 2.76D-01
 Coeff-Com: -0.812D+00 0.181D+01
 Coeff-En:   0.000D+00 0.100D+01
 Coeff:     -0.588D+00 0.159D+01
 Gap=     0.589 Goal=   None    Shift=    0.000
 Gap=     0.437 Goal=   None    Shift=    0.000
 RMSDP=7.51D-03 MaxDP=2.07D-01 DE=-2.48D-02 OVMax= 6.47D-02

 Cycle   3  Pass 1  IDiag  1:
 E= -75.7912421934150     Delta-E=       -0.027980165725 Rises=F Damp=F
 DIIS: error= 7.22D-03 at cycle   3 NSaved=   3.
 NSaved= 3 IEnMin= 3 EnMin= -75.7912421934150     IErMin= 3 ErrMin= 7.22D-03
 ErrMax= 7.22D-03  0.00D+00 EMaxC= 1.00D-01 BMatC= 4.12D-03 BMatP= 1.20D-01
 IDIUse=3 WtCom= 9.28D-01 WtEn= 7.22D-02
 Coeff-Com: -0.194D+00 0.316D+00 0.877D+00
 Coeff-En:   0.000D+00 0.000D+00 0.100D+01
 Coeff:     -0.180D+00 0.294D+00 0.886D+00
 Gap=     0.592 Goal=   None    Shift=    0.000
 Gap=     0.430 Goal=   None    Shift=    0.000
 RMSDP=1.89D-03 MaxDP=5.67D-02 DE=-2.80D-02 OVMax= 2.73D-02

 Cycle   4  Pass 1  IDiag  1:
 E= -75.7935063018338     Delta-E=       -0.002264108419 Rises=F Damp=F
 DIIS: error= 5.10D-03 at cycle   4 NSaved=   4.
 NSaved= 4 IEnMin= 4 EnMin= -75.7935063018338     IErMin= 4 ErrMin= 5.10D-03
 ErrMax= 5.10D-03  0.00D+00 EMaxC= 1.00D-01 BMatC= 1.09D-03 BMatP= 4.12D-03
 IDIUse=3 WtCom= 9.49D-01 WtEn= 5.10D-02
 Coeff-Com:  0.123D+00-0.223D+00-0.265D+00 0.137D+01
 Coeff-En:   0.000D+00 0.000D+00 0.000D+00 0.100D+01
 Coeff:      0.117D+00-0.211D+00-0.252D+00 0.135D+01
 Gap=     0.594 Goal=   None    Shift=    0.000
 Gap=     0.430 Goal=   None    Shift=    0.000
 RMSDP=7.96D-04 MaxDP=1.90D-02 DE=-2.26D-03 OVMax= 3.08D-02

 Cycle   5  Pass 1  IDiag  1:
 E= -75.7951940645756     Delta-E=       -0.001687762742 Rises=F Damp=F
 DIIS: error= 4.46D-03 at cycle   5 NSaved=   5.
 NSaved= 5 IEnMin= 5 EnMin= -75.7951940645756     IErMin= 5 ErrMin= 4.46D-03
 ErrMax= 4.46D-03  0.00D+00 EMaxC= 1.00D-01 BMatC= 8.24D-04 BMatP= 1.09D-03
 IDIUse=3 WtCom= 9.55D-01 WtEn= 4.46D-02
 Coeff-Com: -0.277D+00 0.511D+00 0.660D+00-0.342D+01 0.353D+01
 Coeff-En:   0.000D+00 0.000D+00 0.000D+00 0.000D+00 0.100D+01
 Coeff:     -0.265D+00 0.488D+00 0.630D+00-0.327D+01 0.342D+01
 Gap=     0.597 Goal=   None    Shift=    0.000
 Gap=     0.432 Goal=   None    Shift=    0.000
 RMSDP=1.29D-03 MaxDP=2.28D-02 DE=-1.69D-03 OVMax= 6.60D-02

 Cycle   6  Pass 1  IDiag  1:
 E= -75.7983019485232     Delta-E=       -0.003107883948 Rises=F Damp=F
 DIIS: error= 3.45D-03 at cycle   6 NSaved=   6.
 NSaved= 6 IEnMin= 6 EnMin= -75.7983019485232     IErMin= 6 ErrMin= 3.45D-03
 ErrMax= 3.45D-03  0.00D+00 EMaxC= 1.00D-01 BMatC= 5.11D-04 BMatP= 8.24D-04
 IDIUse=3 WtCom= 9.66D-01 WtEn= 3.45D-02
 Coeff-Com:  0.314D+00-0.587D+00-0.596D+00 0.425D+01-0.665D+01 0.427D+01
 Coeff-En:   0.000D+00 0.000D+00 0.000D+00 0.000D+00 0.000D+00 0.100D+01
 Coeff:      0.303D+00-0.567D+00-0.575D+00 0.411D+01-0.642D+01 0.415D+01
 Gap=     0.611 Goal=   None    Shift=    0.000
 Gap=     0.447 Goal=   None    Shift=    0.000
 RMSDP=2.67D-03 MaxDP=4.45D-02 DE=-3.11D-03 OVMax= 1.29D-01

 Cycle   7  Pass 1  IDiag  1:
 E= -75.8010648174988     Delta-E=       -0.002762868976 Rises=F Damp=F
 DIIS: error= 9.69D-04 at cycle   7 NSaved=   7.
 NSaved= 7 IEnMin= 7 EnMin= -75.8010648174988     IErMin= 7 ErrMin= 9.69D-04
 ErrMax= 9.69D-04  0.00D+00 EMaxC= 1.00D-01 BMatC= 6.67D-05 BMatP= 5.11D-04
 IDIUse=3 WtCom= 9.90D-01 WtEn= 9.69D-03
 Coeff-Com: -0.369D-01 0.725D-01 0.110D+00-0.689D+00 0.181D+01-0.140D+01
 Coeff-Com:  0.113D+01
 Coeff-En:   0.000D+00 0.000D+00 0.000D+00 0.000D+00 0.000D+00 0.000D+00
 Coeff-En:   0.100D+01
 Coeff:     -0.366D-01 0.718D-01 0.109D+00-0.682D+00 0.179D+01-0.138D+01
 Coeff:      0.113D+01
 Gap=     0.602 Goal=   None    Shift=    0.000
 Gap=     0.437 Goal=   None    Shift=    0.000
 RMSDP=1.01D-03 MaxDP=1.93D-02 DE=-2.76D-03 OVMax= 4.63D-02

 Cycle   8  Pass 1  IDiag  1:
 E= -75.8008252629169     Delta-E=        0.000239554582 Rises=F Damp=F
 DIIS: error= 1.40D-03 at cycle   8 NSaved=   8.
 NSaved= 8 IEnMin= 7 EnMin= -75.8010648174988     IErMin= 7 ErrMin= 9.69D-04
 ErrMax= 1.40D-03  0.00D+00 EMaxC= 1.00D-01 BMatC= 8.84D-05 BMatP= 6.67D-05
 IDIUse=3 WtCom= 9.90D-01 WtEn= 9.69D-03
 Rare condition: small coef for last iteration:  0.000D+00
 Coeff-Com: -0.713D-01 0.135D+00 0.132D+00-0.101D+01 0.179D+01-0.139D+01
 Coeff-Com:  0.651D+00 0.767D+00
 Coeff-En:   0.000D+00 0.000D+00 0.000D+00 0.000D+00 0.000D+00 0.000D+00
 Coeff-En:   0.000D+00 0.100D+01
 Coeff:     -0.713D-01 0.135D+00 0.132D+00-0.101D+01 0.179D+01-0.139D+01
 Coeff:      0.651D+00 0.767D+00
 Gap=     0.609 Goal=   None    Shift=    0.000
 Gap=     0.445 Goal=   None    Shift=    0.000
 RMSDP=4.57D-04 MaxDP=7.44D-03 DE= 2.40D-04 OVMax= 2.23D-02

 Cycle   9  Pass 1  IDiag  1:
 E= -75.8010946793168     Delta-E=       -0.000269416400 Rises=F Damp=F
 DIIS: error= 6.47D-04 at cycle   9 NSaved=   9.
 NSaved= 9 IEnMin= 9 EnMin= -75.8010946793168     IErMin= 9 ErrMin= 6.47D-04
 ErrMax= 6.47D-04  0.00D+00 EMaxC= 1.00D-01 BMatC= 1.71D-05 BMatP= 6.67D-05
 IDIUse=3 WtCom= 9.94D-01 WtEn= 6.47D-03
 Coeff-Com: -0.689D-02 0.135D-01 0.115D-01-0.936D-01 0.217D+00-0.888D-01
 Coeff-Com: -0.283D-02-0.101D+01 0.196D+01
 Coeff-En:   0.000D+00 0.000D+00 0.000D+00 0.000D+00 0.000D+00 0.000D+00
 Coeff-En:   0.000D+00 0.000D+00 0.100D+01
 Coeff:     -0.685D-02 0.134D-01 0.115D-01-0.930D-01 0.216D+00-0.883D-01
 Coeff:     -0.281D-02-0.101D+01 0.196D+01
 Gap=     0.613 Goal=   None    Shift=    0.000
 Gap=     0.449 Goal=   None    Shift=    0.000
 RMSDP=2.20D-04 MaxDP=3.80D-03 DE=-2.69D-04 OVMax= 1.05D-02

 Cycle  10  Pass 1  IDiag  1:
 E= -75.8011432035516     Delta-E=       -0.000048524235 Rises=F Damp=F
 DIIS: error= 2.05D-04 at cycle  10 NSaved=  10.
 NSaved=10 IEnMin=10 EnMin= -75.8011432035516     IErMin=10 ErrMin= 2.05D-04
 ErrMax= 2.05D-04  0.00D+00 EMaxC= 1.00D-01 BMatC= 1.61D-06 BMatP= 1.71D-05
 IDIUse=3 WtCom= 9.98D-01 WtEn= 2.05D-03
 Coeff-Com:  0.373D-02-0.711D-02-0.348D-02 0.472D-01-0.673D-01 0.450D-01
 Coeff-Com:  0.165D-01 0.153D+00-0.873D+00 0.169D+01
 Coeff-En:   0.000D+00 0.000D+00 0.000D+00 0.000D+00 0.000D+00 0.000D+00
 Coeff-En:   0.000D+00 0.000D+00 0.000D+00 0.100D+01
 Coeff:      0.373D-02-0.709D-02-0.347D-02 0.471D-01-0.672D-01 0.449D-01
 Coeff:      0.165D-01 0.153D+00-0.871D+00 0.168D+01
 Gap=     0.614 Goal=   None    Shift=    0.000
 Gap=     0.450 Goal=   None    Shift=    0.000
 RMSDP=6.79D-05 MaxDP=1.27D-03 DE=-4.85D-05 OVMax= 3.57D-03

 Cycle  11  Pass 1  IDiag  1:
 E= -75.8011472140847     Delta-E=       -0.000004010533 Rises=F Damp=F
 DIIS: error= 4.20D-05 at cycle  11 NSaved=  11.
 NSaved=11 IEnMin=11 EnMin= -75.8011472140847     IErMin=11 ErrMin= 4.20D-05
 ErrMax= 4.20D-05  0.00D+00 EMaxC= 1.00D-01 BMatC= 1.20D-07 BMatP= 1.61D-06
 IDIUse=1 WtCom= 1.00D+00 WtEn= 0.00D+00
 Coeff-Com: -0.477D-02 0.903D-02 0.732D-02-0.653D-01 0.103D+00-0.859D-01
 Coeff-Com:  0.241D-01 0.764D-01 0.285D+00-0.134D+01 0.199D+01
 Coeff:     -0.477D-02 0.903D-02 0.732D-02-0.653D-01 0.103D+00-0.859D-01
 Coeff:      0.241D-01 0.764D-01 0.285D+00-0.134D+01 0.199D+01
 Gap=     0.614 Goal=   None    Shift=    0.000
 Gap=     0.450 Goal=   None    Shift=    0.000
 RMSDP=1.08D-05 MaxDP=2.08D-04 DE=-4.01D-06 OVMax= 6.34D-04

 Cycle  12  Pass 1  IDiag  1:
 E= -75.8011474412283     Delta-E=       -0.000000227144 Rises=F Damp=F
 DIIS: error= 2.04D-05 at cycle  12 NSaved=  12.
 NSaved=12 IEnMin=12 EnMin= -75.8011474412283     IErMin=12 ErrMin= 2.04D-05
 ErrMax= 2.04D-05  0.00D+00 EMaxC= 1.00D-01 BMatC= 1.62D-08 BMatP= 1.20D-07
 IDIUse=1 WtCom= 1.00D+00 WtEn= 0.00D+00
 Coeff-Com:  0.657D-03-0.122D-02-0.130D-02 0.895D-02-0.124D-01 0.151D-01
 Coeff-Com: -0.540D-02-0.698D-01 0.430D-01 0.234D+00-0.801D+00 0.159D+01
 Coeff:      0.657D-03-0.122D-02-0.130D-02 0.895D-02-0.124D-01 0.151D-01
 Coeff:     -0.540D-02-0.698D-01 0.430D-01 0.234D+00-0.801D+00 0.159D+01
 Gap=     0.614 Goal=   None    Shift=    0.000
 Gap=     0.450 Goal=   None    Shift=    0.000
 RMSDP=5.62D-06 MaxDP=1.26D-04 DE=-2.27D-07 OVMax= 3.76D-04

 Cycle  13  Pass 1  IDiag  1:
 E= -75.8011474774544     Delta-E=       -0.000000036226 Rises=F Damp=F
 DIIS: error= 1.79D-06 at cycle  13 NSaved=  13.
 NSaved=13 IEnMin=13 EnMin= -75.8011474774544     IErMin=13 ErrMin= 1.79D-06
 ErrMax= 1.79D-06  0.00D+00 EMaxC= 1.00D-01 BMatC= 2.68D-10 BMatP= 1.62D-08
 IDIUse=1 WtCom= 1.00D+00 WtEn= 0.00D+00
 Coeff-Com: -0.192D-03 0.355D-03 0.527D-03-0.286D-02 0.452D-02-0.489D-02
 Coeff-Com:  0.218D-02 0.195D-01-0.199D-01-0.391D-01 0.204D+00-0.542D+00
 Coeff-Com:  0.138D+01
 Coeff:     -0.192D-03 0.355D-03 0.527D-03-0.286D-02 0.452D-02-0.489D-02
 Coeff:      0.218D-02 0.195D-01-0.199D-01-0.391D-01 0.204D+00-0.542D+00
 Coeff:      0.138D+01
 Gap=     0.614 Goal=   None    Shift=    0.000
 Gap=     0.450 Goal=   None    Shift=    0.000
 RMSDP=8.28D-07 MaxDP=2.21D-05 DE=-3.62D-08 OVMax= 1.60D-05

 Cycle  14  Pass 1  IDiag  1:
 E= -75.8011474774982     Delta-E=       -0.000000000044 Rises=F Damp=F
 DIIS: error= 1.20D-06 at cycle  14 NSaved=  14.
 NSaved=14 IEnMin=14 EnMin= -75.8011474774982     IErMin=14 ErrMin= 1.20D-06
 ErrMax= 1.20D-06  0.00D+00 EMaxC= 1.00D-01 BMatC= 8.69D-11 BMatP= 2.68D-10
 IDIUse=1 WtCom= 1.00D+00 WtEn= 0.00D+00
 Coeff-Com:  0.538D-05-0.667D-05-0.647D-04 0.847D-04 0.105D-03-0.697D-05
 Coeff-Com:  0.679D-04-0.396D-02 0.630D-02-0.483D-02-0.172D-01 0.861D-01
 Coeff-Com: -0.440D+00 0.137D+01
 Coeff:      0.538D-05-0.667D-05-0.647D-04 0.847D-04 0.105D-03-0.697D-05
 Coeff:      0.679D-04-0.396D-02 0.630D-02-0.483D-02-0.172D-01 0.861D-01
 Coeff:     -0.440D+00 0.137D+01
 Gap=     0.614 Goal=   None    Shift=    0.000
 Gap=     0.450 Goal=   None    Shift=    0.000
 RMSDP=7.34D-07 MaxDP=1.46D-05 DE=-4.39D-11 OVMax= 3.23D-05

 Cycle  15  Pass 1  IDiag  1:
 E= -75.8011474777380     Delta-E=       -0.000000000240 Rises=F Damp=F
 DIIS: error= 8.88D-08 at cycle  15 NSaved=  15.
 NSaved=15 IEnMin=15 EnMin= -75.8011474777380     IErMin=15 ErrMin= 8.88D-08
 ErrMax= 8.88D-08  0.00D+00 EMaxC= 1.00D-01 BMatC= 9.07D-13 BMatP= 8.69D-11
 IDIUse=1 WtCom= 1.00D+00 WtEn= 0.00D+00
 Coeff-Com: -0.153D-05 0.214D-05 0.906D-05-0.263D-05-0.508D-04 0.297D-04
 Coeff-Com: -0.123D-04 0.123D-02-0.175D-02 0.121D-02 0.527D-02-0.226D-01
 Coeff-Com:  0.124D+00-0.468D+00 0.136D+01
 Coeff:     -0.153D-05 0.214D-05 0.906D-05-0.263D-05-0.508D-04 0.297D-04
 Coeff:     -0.123D-04 0.123D-02-0.175D-02 0.121D-02 0.527D-02-0.226D-01
 Coeff:      0.124D+00-0.468D+00 0.136D+01
 Gap=     0.614 Goal=   None    Shift=    0.000
 Gap=     0.450 Goal=   None    Shift=    0.000
 RMSDP=7.94D-08 MaxDP=1.35D-06 DE=-2.40D-10 OVMax= 3.81D-06

 Cycle  16  Pass 1  IDiag  1:
 E= -75.8011474777391     Delta-E=       -0.000000000001 Rises=F Damp=F
 DIIS: error= 7.14D-08 at cycle  16 NSaved=  16.
 NSaved=16 IEnMin=16 EnMin= -75.8011474777391     IErMin=16 ErrMin= 7.14D-08
 ErrMax= 7.14D-08  0.00D+00 EMaxC= 1.00D-01 BMatC= 1.61D-13 BMatP= 9.07D-13
 IDIUse=1 WtCom= 1.00D+00 WtEn= 0.00D+00
 Coeff-Com: -0.377D-06 0.672D-06 0.311D-05-0.117D-04 0.192D-04-0.270D-04
 Coeff-Com:  0.663D-05 0.633D-05-0.657D-04-0.253D-04 0.199D-03-0.131D-02
 Coeff-Com:  0.528D-03 0.749D-02-0.174D+00 0.117D+01
 Coeff:     -0.377D-06 0.672D-06 0.311D-05-0.117D-04 0.192D-04-0.270D-04
 Coeff:      0.663D-05 0.633D-05-0.657D-04-0.253D-04 0.199D-03-0.131D-02
 Coeff:      0.528D-03 0.749D-02-0.174D+00 0.117D+01
 Gap=     0.614 Goal=   None    Shift=    0.000
 Gap=     0.450 Goal=   None    Shift=    0.000
 RMSDP=3.17D-08 MaxDP=5.48D-07 DE=-1.09D-12 OVMax= 1.65D-06

 Cycle  17  Pass 1  IDiag  1:
 E= -75.8011474777396     Delta-E=       -0.000000000001 Rises=F Damp=F
 DIIS: error= 8.96D-09 at cycle  17 NSaved=  17.
 NSaved=17 IEnMin=17 EnMin= -75.8011474777396     IErMin=17 ErrMin= 8.96D-09
 ErrMax= 8.96D-09  0.00D+00 EMaxC= 1.00D-01 BMatC= 4.45D-15 BMatP= 1.61D-13
 IDIUse=1 WtCom= 1.00D+00 WtEn= 0.00D+00
 Large coefficients: NSaved= 17 BigCof=    0.00 CofMax=   10.00 Det=-3.22D-15
 Inversion failed.  Reducing to 16 matrices.
 Large coefficients: NSaved= 16 BigCof=    0.00 CofMax=   10.00 Det=-3.22D-15
 Inversion failed.  Reducing to 15 matrices.
 Coeff-Com: -0.625D-06 0.257D-05-0.524D-05 0.764D-05-0.850D-06 0.219D-04
 Coeff-Com:  0.731D-07-0.430D-04 0.215D-03-0.259D-03 0.140D-02 0.148D-02
 Coeff-Com:  0.158D-01-0.452D+00 0.143D+01
 Coeff:     -0.625D-06 0.257D-05-0.524D-05 0.764D-05-0.850D-06 0.219D-04
 Coeff:      0.731D-07-0.430D-04 0.215D-03-0.259D-03 0.140D-02 0.148D-02
 Coeff:      0.158D-01-0.452D+00 0.143D+01
 Gap=     0.614 Goal=   None    Shift=    0.000
 Gap=     0.450 Goal=   None    Shift=    0.000
 RMSDP=7.19D-09 MaxDP=1.31D-07 DE=-5.83D-13 OVMax= 3.11D-07

 SCF Done:  E(UHF) =  -75.8011474777     A.U. after   17 cycles
            NFock= 17  Conv=0.72D-08     -V/T= 2.0004
 <Sx>= 0.0000 <Sy>= 0.0000 <Sz>= 1.0000 <S**2>= 2.2392 S= 1.0777
 <L.S>= 0.000000000000E+00
 KE= 7.577258261251D+01 PE=-2.113364920565D+02 EE= 4.029581889448D+01
 Annihilation of the first spin contaminant:
 S**2 before annihilation     2.2392,   after     2.0012
 Leave Link  502 at Tue Oct 10 16:06:39 2017, MaxMem=    33554432 cpu:        13.5
 (Enter /usr/local/gaussian/2009-E.01/g09/l801.exe)
 Windowed orbitals will be sorted by symmetry type.
 ExpMin= 3.60D-02 ExpMax= 4.56D+03 ExpMxC= 6.82D+02 IAcc=3 IRadAn=         5 AccDes= 0.00D+00
 HarFok:  IExCor=  205 AccDes= 0.00D+00 IRadAn=         5 IDoV=-2 UseB2=F ITyADJ=14
 ICtDFT= 12500011 ScaDFX=  1.000000  1.000000  1.000000  1.000000
 Largest valence mixing into a core orbital is  1.16D-04
 Largest core mixing into a valence orbital is  2.94D-05
 Largest valence mixing into a core orbital is  1.56D-04
 Largest core mixing into a valence orbital is  4.79D-05
 Range of M.O.s used for correlation:     3    51
 NBasis=    51 NAE=     7 NBE=     5 NFC=     2 NFV=     0
 NROrb=     49 NOA=     5 NOB=     3 NVA=    44 NVB=    46

 **** Warning!!: The largest alpha MO coefficient is  0.59007227D+02


 **** Warning!!: The largest beta MO coefficient is  0.59596184D+02

 Leave Link  801 at Tue Oct 10 16:06:39 2017, MaxMem=    33554432 cpu:         0.3
 (Enter /usr/local/gaussian/2009-E.01/g09/l804.exe)
 Open-shell transformation, MDV=    33554432 ITran=4 ISComp=2.
 Semi-Direct transformation.
 ModeAB=           2 MOrb=             5 LenV=      33342980
 LASXX=        74437 LTotXX=       74437 LenRXX=       74437
 LTotAB=       81715 MaxLAS=      350595 LenRXY=      350595
 NonZer=      370440 LenScr=     1111040 LnRSAI=           0
 LnScr1=           0 LExtra=           0 Total=      1536072
 MaxDsk=          -1 SrtSym=           F ITran=            4
 DoSDTr:  NPSUse=  8
 JobTyp=1 Pass  1:  I=   1 to   5.
 (rs|ai) integrals will be sorted in core.
 Complete sort for first half transformation.
 First half transformation complete.
 Complete sort for second half transformation.
 Second half transformation complete.
 ModeAB=           2 MOrb=             3 LenV=      33342980
 LASXX=        46342 LTotXX=       46342 LenRXX=      210357
 LTotAB=       40680 MaxLAS=      210357 LenRXY=       40680
 NonZer=      222264 LenScr=      785920 LnRSAI=           0
 LnScr1=           0 LExtra=           0 Total=      1036957
 MaxDsk=          -1 SrtSym=           F ITran=            4
 DoSDTr:  NPSUse=  8
 JobTyp=2 Pass  1:  I=   1 to   3.
 (rs|ai) integrals will be sorted in core.
 Complete sort for first half transformation.
 First half transformation complete.
 Complete sort for second half transformation.
 Second half transformation complete.
 Spin components of T(2) and E(2):
     alpha-alpha T2 =       0.1345205985D-01 E2=     -0.3435157304D-01
     alpha-beta  T2 =       0.4364875618D-01 E2=     -0.1204729661D+00
     beta-beta   T2 =       0.3414249162D-02 E2=     -0.1015676411D-01
 ANorm=    0.1029813121D+01
 E2 =    -0.1649813032D+00 EUMP2 =    -0.75966128780948D+02
 (S**2,0)=  0.22392D+01           (S**2,1)=  0.21961D+01
 E(PUHF)=      -0.75810378320D+02        E(PMP2)=      -0.75974530633D+02
 Leave Link  804 at Tue Oct 10 16:06:39 2017, MaxMem=    33554432 cpu:         4.2
 (Enter /usr/local/gaussian/2009-E.01/g09/l913.exe)
 CIDS:  MDV=    33554432.
 Frozen-core window:  NFC=   2 NFV=   0.
 IFCWin=0 IBDFC=1 NFBD=     0     0 NFCmp=     0     0 NFFFC=     0     0
 Using original routines for 1st iteration, S=T.
 Using DD4UQ or CC4UQ for 2nd and later iterations.
 Keep R2 and R3 ints in memory in symmetry-blocked form, NReq=1705586.
 FoFCou: FMM=F IPFlag=           0 FMFlag=           0 FMFlg1=           0
         NFxFlg=           0 DoJE=F BraDBF=F KetDBF=F FulRan=T
         wScrn=  0.000000 ICntrl=     600 IOpCl=  0 I1Cent=           0 NGrid=           0
         NMat0=    1 NMatS0=   1326 NMatT0=    0 NMatD0=    1 NMtDS0=    0 NMtDT0=    0
 Petite list used in FoFCou.
 CCSD(T)
 =======
 Iterations= 200 Convergence= 0.100D-06
 Iteration Nr.   1
 **********************
 DD1Dir will call FoFMem   1 times, MxPair=        44
 NAB=    15 NAA=    10 NBB=     3.
 E(PMP3)=      -0.75992843015D+02
 MP4(R+Q)=  0.35458610D-02
 Maximum subspace dimension=  5
 Norm of the A-vectors is  2.0250249D-01 conv= 1.00D-05.
 RLE energy=       -0.1832890120
 E3=       -0.19889096D-01        EUMP3=      -0.75986017877D+02
 E4(DQ)=   -0.20601898D-02        UMP4(DQ)=   -0.75988078066D+02
 E4(SDQ)=  -0.59279440D-02        UMP4(SDQ)=  -0.75991945821D+02
 VARIATIONAL ENERGIES WITH THE FIRST-ORDER WAVEFUNCTION:
 DE(Corr)= -0.18146048     E(Corr)=     -75.982607960    
 NORM(A)=   0.10405989D+01
 Iteration Nr.   2
 **********************
 DD1Dir will call FoFMem   1 times, MxPair=        44
 NAB=    15 NAA=    10 NBB=     3.
 Norm of the A-vectors is  9.8741306D-02 conv= 1.00D-05.
 RLE energy=       -0.1948498927
 DE(Corr)= -0.18985618     E(CORR)=     -75.991003660     Delta=-8.40D-03
 NORM(A)=   0.10536391D+01
 Iteration Nr.   3
 **********************
 DD1Dir will call FoFMem   1 times, MxPair=        44
 NAB=    15 NAA=    10 NBB=     3.
 Norm of the A-vectors is  4.5976877D-02 conv= 1.00D-05.
 RLE energy=       -0.1996734529
 DE(Corr)= -0.19487898     E(CORR)=     -75.996026460     Delta=-5.02D-03
 NORM(A)=   0.10705336D+01
 Iteration Nr.   4
 **********************
 DD1Dir will call FoFMem   1 times, MxPair=        44
 NAB=    15 NAA=    10 NBB=     3.
 Norm of the A-vectors is  2.6182715D-02 conv= 1.00D-05.
 RLE energy=       -0.2009216948
 DE(Corr)= -0.19973271     E(CORR)=     -76.000880190     Delta=-4.85D-03
 NORM(A)=   0.10768917D+01
 Iteration Nr.   5
 **********************
 DD1Dir will call FoFMem   1 times, MxPair=        44
 NAB=    15 NAA=    10 NBB=     3.
 Norm of the A-vectors is  1.2698157D-02 conv= 1.00D-05.
 RLE energy=       -0.2008666403
 DE(Corr)= -0.20084987     E(CORR)=     -76.001997351     Delta=-1.12D-03
 NORM(A)=   0.10775450D+01
 Iteration Nr.   6
 **********************
 DD1Dir will call FoFMem   1 times, MxPair=        44
 NAB=    15 NAA=    10 NBB=     3.
 Norm of the A-vectors is  6.7551907D-03 conv= 1.00D-05.
 RLE energy=       -0.2009259968
 DE(Corr)= -0.20089463     E(CORR)=     -76.002042109     Delta=-4.48D-05
 NORM(A)=   0.10780130D+01
 Iteration Nr.   7
 **********************
 DD1Dir will call FoFMem   1 times, MxPair=        44
 NAB=    15 NAA=    10 NBB=     3.
 Norm of the A-vectors is  3.5285718D-03 conv= 1.00D-05.
 RLE energy=       -0.2009964293
 DE(Corr)= -0.20094879     E(CORR)=     -76.002096270     Delta=-5.42D-05
 NORM(A)=   0.10781322D+01
 Iteration Nr.   8
 **********************
 DD1Dir will call FoFMem   1 times, MxPair=        44
 NAB=    15 NAA=    10 NBB=     3.
 Norm of the A-vectors is  1.4859223D-03 conv= 1.00D-05.
 RLE energy=       -0.2009731732
 DE(Corr)= -0.20096746     E(CORR)=     -76.002114942     Delta=-1.87D-05
 NORM(A)=   0.10781457D+01
 Iteration Nr.   9
 **********************
 DD1Dir will call FoFMem   1 times, MxPair=        44
 NAB=    15 NAA=    10 NBB=     3.
 Norm of the A-vectors is  5.3427708D-04 conv= 1.00D-05.
 RLE energy=       -0.2009769771
 DE(Corr)= -0.20097400     E(CORR)=     -76.002121475     Delta=-6.53D-06
 NORM(A)=   0.10781454D+01
 Iteration Nr.  10
 **********************
 DD1Dir will call FoFMem   1 times, MxPair=        44
 NAB=    15 NAA=    10 NBB=     3.
 Norm of the A-vectors is  1.8100460D-04 conv= 1.00D-05.
 RLE energy=       -0.2009710173
 DE(Corr)= -0.20097323     E(CORR)=     -76.002120706     Delta= 7.69D-07
 NORM(A)=   0.10781345D+01
 Iteration Nr.  11
 **********************
 DD1Dir will call FoFMem   1 times, MxPair=        44
 NAB=    15 NAA=    10 NBB=     3.
 Norm of the A-vectors is  8.4391323D-05 conv= 1.00D-05.
 RLE energy=       -0.2009700341
 DE(Corr)= -0.20097136     E(CORR)=     -76.002118835     Delta= 1.87D-06
 NORM(A)=   0.10781269D+01
 Iteration Nr.  12
 **********************
 DD1Dir will call FoFMem   1 times, MxPair=        44
 NAB=    15 NAA=    10 NBB=     3.
 Norm of the A-vectors is  4.2585039D-05 conv= 1.00D-05.
 RLE energy=       -0.2009685705
 DE(Corr)= -0.20096964     E(CORR)=     -76.002117119     Delta= 1.72D-06
 NORM(A)=   0.10781213D+01
 Iteration Nr.  13
 **********************
 DD1Dir will call FoFMem   1 times, MxPair=        44
 NAB=    15 NAA=    10 NBB=     3.
 Norm of the A-vectors is  2.0136954D-05 conv= 1.00D-05.
 RLE energy=       -0.2009681278
 DE(Corr)= -0.20096856     E(CORR)=     -76.002116040     Delta= 1.08D-06
 NORM(A)=   0.10781190D+01
 Iteration Nr.  14
 **********************
 DD1Dir will call FoFMem   1 times, MxPair=        44
 NAB=    15 NAA=    10 NBB=     3.
 Norm of the A-vectors is  9.4647555D-06 conv= 1.00D-05.
 RLE energy=       -0.2009679930
 DE(Corr)= -0.20096811     E(CORR)=     -76.002115592     Delta= 4.48D-07
 NORM(A)=   0.10781183D+01
 Iteration Nr.  15
 **********************
 DD1Dir will call FoFMem   1 times, MxPair=        44
 NAB=    15 NAA=    10 NBB=     3.
 Norm of the A-vectors is  4.8596788D-06 conv= 1.00D-05.
 RLE energy=       -0.2009679399
 DE(Corr)= -0.20096800     E(CORR)=     -76.002115474     Delta= 1.18D-07
 NORM(A)=   0.10781180D+01
 Iteration Nr.  16
 **********************
 DD1Dir will call FoFMem   1 times, MxPair=        44
 NAB=    15 NAA=    10 NBB=     3.
 Norm of the A-vectors is  2.5796808D-06 conv= 1.00D-05.
 RLE energy=       -0.2009679581
 DE(Corr)= -0.20096795     E(CORR)=     -76.002115432     Delta= 4.24D-08
 NORM(A)=   0.10781179D+01
 CI/CC converged in   16 iterations to DelEn= 4.24D-08 Conv= 1.00D-07 ErrA1= 2.58D-06 Conv= 1.00D-05
 Dominant configurations:
 ***********************
 Spin Case        I    J    A    B          Value
    AA            7         9            0.126064D+00
    BB            5         9            0.131895D+00
   ABAB           7    5    9    9       0.104079D+00
 Largest amplitude= 1.32D-01
 Time for triples=       14.35 seconds.
 T4(CCSD)= -0.91118760D-02
 T5(CCSD)=  0.78073031D-03
 CCSD(T)= -0.76010446577D+02

 S**2, projected HF & approx projected MPn energies after annihilation of
 unwanted spin states (see manual for definitions):

 spins       (S**2,0) (S**2,1)    PUHF        PMP2        PMP3        PMP4
 annihilated
 s+1         1.99919  2.00012  -75.810378  -75.974531  -75.992843
 s+1,s+2     2.00000  2.00000  -75.810257  -75.974423  -75.992754
 s+1 to s+3  2.00000  2.00000  -75.810257  -75.974423  -75.992754

 Discarding MO integrals.
 Leave Link  913 at Tue Oct 10 16:06:58 2017, MaxMem=    33554432 cpu:       132.9
 (Enter /usr/local/gaussian/2009-E.01/g09/l601.exe)
 Copying SCF densities to generalized density rwf, IOpCl= 1 IROHF=0.

 **********************************************************************

            Population analysis using the SCF density.

 **********************************************************************

 Orbital symmetries:
 Alpha Orbitals:
       Occupied  (SG) (SG) (SG) (SG) (SG) (?A) (?A)
       Virtual   (?A) (?A) (SG) (SG) (?A) (?A) (SG) (?A) (?A) (SG)
                 (SG) (SG) (SG) (SG) (?B) (?B) (?B) (?B) (SG) (SG)
                 (SG) (?C) (PI) (PI) (?C) (?C) (?D) (?D) (PI) (PI)
                 (?D) (SG) (PI) (PI) (SG) (?B) (?B) (?B) (?B) (SG)
                 (SG) (SG) (SG) (SG)
 Beta  Orbitals:
       Occupied  (SG) (SG) (SG) (SG) (?A)
       Virtual   (?A) (SG) (SG) (?A) (?A) (SG) (?A) (?A) (SG) (SG)
                 (?A) (?A) (SG) (SG) (SG) (SG) (?A) (?A) (?A) (?A)
                 (SG) (SG) (SG) (?B) (PI) (PI) (?B) (?B) (DLTA)
                 (DLTA) (PI) (PI) (SG) (SG) (PI) (PI) (SG) (PI)
                 (PI) (PI) (PI) (SG) (SG) (SG) (SG) (SG)
 Unable to determine electronic state:  an orbital has unidentified symmetry.
 Alpha  occ. eigenvalues --  -11.69941 -11.66227  -1.45366  -1.08790  -0.95832
 Alpha  occ. eigenvalues --   -0.84196  -0.80846
 Alpha virt. eigenvalues --   -0.19462  -0.15800  -0.10943  -0.08429  -0.06298
 Alpha virt. eigenvalues --   -0.05394  -0.03851   0.00102   0.00905   0.01505
 Alpha virt. eigenvalues --    0.04912   0.11615   0.28961   0.33159   0.38676
 Alpha virt. eigenvalues --    0.40856   0.48350   0.50946   0.52106   0.60127
 Alpha virt. eigenvalues --    0.75902   0.84754   0.96947   0.99947   1.01747
 Alpha virt. eigenvalues --    1.01814   1.43409   1.43450   1.50756   1.52538
 Alpha virt. eigenvalues --    1.67228   2.15543   2.18771   2.21702   2.51612
 Alpha virt. eigenvalues --    2.69930   2.73189   2.88633   2.92110   3.11905
 Alpha virt. eigenvalues --    3.26176   3.39444  24.08029  25.41241
  Beta  occ. eigenvalues --  -11.66551 -11.63327  -1.33362  -1.05717  -0.77072
  Beta virt. eigenvalues --   -0.32057  -0.27029  -0.10471  -0.10194  -0.07076
  Beta virt. eigenvalues --   -0.06999  -0.05552  -0.04778  -0.02876   0.02146
  Beta virt. eigenvalues --    0.02552   0.04879   0.06332   0.12404   0.32284
  Beta virt. eigenvalues --    0.36209   0.41326   0.44483   0.53608   0.55214
  Beta virt. eigenvalues --    0.57696   0.65335   0.79051   0.89328   1.03022
  Beta virt. eigenvalues --    1.04637   1.09177   1.09316   1.49393   1.49403
  Beta virt. eigenvalues --    1.57192   1.57254   1.72589   2.20649   2.23983
  Beta virt. eigenvalues --    2.24125   2.52888   2.73375   2.74886   2.94569
  Beta virt. eigenvalues --    2.94943   3.12755   3.31401   3.42614  24.11255
  Beta virt. eigenvalues --   25.43126
          Condensed to atoms (all electrons):
               1          2          3
     1  C    4.994575   0.630466   0.020393
     2  C    0.630466   4.784270   0.321117
     3  H    0.020393   0.321117   0.277203
          Atomic-Atomic Spin Densities.
               1          2          3
     1  C    1.919217   0.103260  -0.013230
     2  C    0.103260  -0.168863   0.022474
     3  H   -0.013230   0.022474   0.024637
 Mulliken charges and spin densities:
               1          2
     1  C    0.354566   2.009247
     2  C    0.264147  -0.043129
     3  H    0.381287   0.033881
 Sum of Mulliken charges =   1.00000   2.00000
 Mulliken charges and spin densities with hydrogens summed into heavy atoms:
               1          2
     1  C    0.354566   2.009247
     2  C    0.645434  -0.009247
 Electronic spatial extent (au):  <R**2>=             43.1659
 Charge=              1.0000 electrons
 Dipole moment (field-independent basis, Debye):
    X=             -0.0000    Y=              0.0000    Z=              0.8816  Tot=              0.8816
 Quadrupole moment (field-independent basis, Debye-Ang):
   XX=             -8.8279   YY=            -10.6033   ZZ=             -2.9318
   XY=              0.0000   XZ=             -0.0000   YZ=             -0.0000
 Traceless Quadrupole moment (field-independent basis, Debye-Ang):
   XX=             -1.3736   YY=             -3.1489   ZZ=              4.5225
   XY=              0.0000   XZ=             -0.0000   YZ=             -0.0000
 Octapole moment (field-independent basis, Debye-Ang**2):
  XXX=             -0.0000  YYY=              0.0000  ZZZ=              5.8787  XYY=             -0.0000
  XXY=              0.0000  XXZ=              0.3908  XZZ=             -0.0000  YZZ=              0.0000
  YYZ=              0.2129  XYZ=             -0.0000
 Hexadecapole moment (field-independent basis, Debye-Ang**3):
 XXXX=             -7.7911 YYYY=            -10.7362 ZZZZ=            -22.1540 XXXY=              0.0000
 XXXZ=             -0.0000 YYYX=              0.0000 YYYZ=             -0.0000 ZZZX=             -0.0000
 ZZZY=             -0.0000 XXYY=             -3.0877 XXZZ=             -7.1497 YYZZ=             -8.1034
 XXYZ=             -0.0000 YYXZ=              0.0000 ZZXY=              0.0000
 N-N= 1.946694307178D+01 E-N=-2.113364919810D+02  KE= 7.577258261251D+01
 Symmetry A1   KE= 7.209214934355D+01
 Symmetry A2   KE= 4.583474533313D-34
 Symmetry B1   KE= 1.219336888126D+00
 Symmetry B2   KE= 2.461096380839D+00
 Leave Link  601 at Tue Oct 10 16:06:58 2017, MaxMem=    33554432 cpu:         0.1
 (Enter /usr/local/gaussian/2009-E.01/g09/l9999.exe)
 1\1\ WCSS.PL-BEM-WN1424\SP\UCCSD(T)-FC\6-311++G(d,p)\C2H1(1+,3)\ROOT\1
 0-Oct-2017\0\\#p ccsd(t,maxcyc=200)/6-311++G(d,p)\\ccsd(t) iener\\1,3\
 C,0,0.745116,-0.571315,0.\C,0,-0.116303,0.339752,0.\H,0,-0.863212,1.13
 1247,0.\\Version=ES64L-G09RevE.01\HF=-75.8011475\MP2=-75.9661288\MP3=-
 75.9860179\MP4D=-75.9916239\MP4DQ=-75.9880781\PUHF=-75.8103783\PMP2-0=
 -75.9745306\PMP3-0=-75.992843\MP4SDQ=-75.9919458\CCSD=-76.0021154\CCSD
 (T)=-76.0104466\S2=2.239155\S2-1=2.196054\S2A=2.001216\RMSD=7.189e-09\
 PG=C*V [C*(C1C1H1)]\\@


 HE THAT WALD REACHE THE SWEITE ROSE
 SULD NOW AND THEN BE SCRATCHED WT THE SCHARPE BREERES.
 -- PROVERBS AND REASONS OF THE YEAR 1585
           AS REPRINTED IN PAISLEY MAGAZINE 1828.
 Job cpu time:       0 days  0 hours  2 minutes 42.7 seconds.
 File lengths (MBytes):  RWF=     19 Int=      0 D2E=      0 Chk=      1 Scr=      1
 Normal termination of Gaussian 09 at Tue Oct 10 16:06:58 2017.
