 Entering Gaussian System, Link 0=/usr/local/gaussian/2009-E.01/g09/g09
 Initial command:
 /usr/local/gaussian/2009-E.01/g09/l1.exe "/lustre/scratch/eerd/4986703.achilles/Gau-94785.inp" -scrdir="/lustre/scratch/eerd/4986703.achilles/"
 Entering Link 1 = /usr/local/gaussian/2009-E.01/g09/l1.exe PID=     94787.
  
 Copyright (c) 1988,1990,1992,1993,1995,1998,2003,2009,2015,
            Gaussian, Inc.  All Rights Reserved.
  
 This is part of the Gaussian(R) 09 program.  It is based on
 the Gaussian(R) 03 system (copyright 2003, Gaussian, Inc.),
 the Gaussian(R) 98 system (copyright 1998, Gaussian, Inc.),
 the Gaussian(R) 94 system (copyright 1995, Gaussian, Inc.),
 the Gaussian 92(TM) system (copyright 1992, Gaussian, Inc.),
 the Gaussian 90(TM) system (copyright 1990, Gaussian, Inc.),
 the Gaussian 88(TM) system (copyright 1988, Gaussian, Inc.),
 the Gaussian 86(TM) system (copyright 1986, Carnegie Mellon
 University), and the Gaussian 82(TM) system (copyright 1983,
 Carnegie Mellon University). Gaussian is a federally registered
 trademark of Gaussian, Inc.
  
 This software contains proprietary and confidential information,
 including trade secrets, belonging to Gaussian, Inc.
  
 This software is provided under written license and may be
 used, copied, transmitted, or stored only in accord with that
 written license.
  
 The following legend is applicable only to US Government
 contracts under FAR:
  
                    RESTRICTED RIGHTS LEGEND
  
 Use, reproduction and disclosure by the US Government is
 subject to restrictions as set forth in subparagraphs (a)
 and (c) of the Commercial Computer Software - Restricted
 Rights clause in FAR 52.227-19.
  
 Gaussian, Inc.
 340 Quinnipiac St., Bldg. 40, Wallingford CT 06492
  
  
 ---------------------------------------------------------------
 Warning -- This program may not be used in any manner that
 competes with the business of Gaussian, Inc. or will provide
 assistance to any competitor of Gaussian, Inc.  The licensee
 of this program is prohibited from giving any competitor of
 Gaussian, Inc. access to this program.  By using this program,
 the user acknowledges that Gaussian, Inc. is engaged in the
 business of creating and licensing software in the field of
 computational chemistry and represents and warrants to the
 licensee that it is not a competitor of Gaussian, Inc. and that
 it will not use this program in any manner prohibited above.
 ---------------------------------------------------------------
  

 Cite this work as:
 Gaussian 09, Revision E.01,
 M. J. Frisch, G. W. Trucks, H. B. Schlegel, G. E. Scuseria, 
 M. A. Robb, J. R. Cheeseman, G. Scalmani, V. Barone, B. Mennucci, 
 G. A. Petersson, H. Nakatsuji, M. Caricato, X. Li, H. P. Hratchian, 
 A. F. Izmaylov, J. Bloino, G. Zheng, J. L. Sonnenberg, M. Hada, 
 M. Ehara, K. Toyota, R. Fukuda, J. Hasegawa, M. Ishida, T. Nakajima, 
 Y. Honda, O. Kitao, H. Nakai, T. Vreven, J. A. Montgomery, Jr., 
 J. E. Peralta, F. Ogliaro, M. Bearpark, J. J. Heyd, E. Brothers, 
 K. N. Kudin, V. N. Staroverov, T. Keith, R. Kobayashi, J. Normand, 
 K. Raghavachari, A. Rendell, J. C. Burant, S. S. Iyengar, J. Tomasi, 
 M. Cossi, N. Rega, J. M. Millam, M. Klene, J. E. Knox, J. B. Cross, 
 V. Bakken, C. Adamo, J. Jaramillo, R. Gomperts, R. E. Stratmann, 
 O. Yazyev, A. J. Austin, R. Cammi, C. Pomelli, J. W. Ochterski, 
 R. L. Martin, K. Morokuma, V. G. Zakrzewski, G. A. Voth, 
 P. Salvador, J. J. Dannenberg, S. Dapprich, A. D. Daniels, 
 O. Farkas, J. B. Foresman, J. V. Ortiz, J. Cioslowski, 
 and D. J. Fox, Gaussian, Inc., Wallingford CT, 2013.
 
 ******************************************
 Gaussian 09:  ES64L-G09RevE.01 30-Nov-2015
                10-Oct-2017 
 ******************************************
 %NProcShared=8
 Will use up to    8 processors via shared memory.
 -----------------------------------
 #p ccsd(t,maxcyc=200)/6-311++G(d,p)
 -----------------------------------
 1/38=1/1;
 2/12=2,17=6,18=5,40=1/2;
 3/5=4,6=6,7=1111,11=9,16=1,25=1,30=1/1,2,3;
 4//1;
 5/5=2,38=5/2;
 8/6=4,9=120000,10=2/1,4;
 9/5=7,6=200,14=2/13;
 6/7=2,8=2,9=2,10=2/1;
 99/5=1,9=1/99;
 Leave Link    1 at Tue Oct 10 17:14:05 2017, MaxMem=           0 cpu:         5.2
 (Enter /usr/local/gaussian/2009-E.01/g09/l101.exe)
 -------------
 ccsd(t) iener
 -------------
 Symbolic Z-matrix:
 Charge =  1 Multiplicity = 1
 H                     0.       -1.81192   0. 
 C                     0.       -0.71817   0. 
 C                     0.        0.70843   0. 
 C                     1.28715   0.17783   0. 
 C                    -1.28715   0.17783   0. 
 
 NAtoms=      5 NQM=        5 NQMF=       0 NMMI=      0 NMMIF=      0
                NMic=       0 NMicF=      0.
                    Isotopes and Nuclear Properties:
 (Nuclear quadrupole moments (NQMom) in fm**2, nuclear magnetic moments (NMagM)
  in nuclear magnetons)

  Atom         1           2           3           4           5
 IAtWgt=           1          12          12          12          12
 AtmWgt=   1.0078250  12.0000000  12.0000000  12.0000000  12.0000000
 NucSpn=           1           0           0           0           0
 AtZEff=   0.0000000   0.0000000   0.0000000   0.0000000   0.0000000
 NQMom=    0.0000000   0.0000000   0.0000000   0.0000000   0.0000000
 NMagM=    2.7928460   0.0000000   0.0000000   0.0000000   0.0000000
 AtZNuc=   1.0000000   6.0000000   6.0000000   6.0000000   6.0000000
 Leave Link  101 at Tue Oct 10 17:14:05 2017, MaxMem=    33554432 cpu:         0.9
 (Enter /usr/local/gaussian/2009-E.01/g09/l202.exe)
                          Input orientation:                          
 ---------------------------------------------------------------------
 Center     Atomic      Atomic             Coordinates (Angstroms)
 Number     Number       Type             X           Y           Z
 ---------------------------------------------------------------------
      1          1           0        0.000000   -1.811919    0.000000
      2          6           0        0.000000   -0.718171    0.000000
      3          6           0        0.000000    0.708425    0.000000
      4          6           0        1.287148    0.177832    0.000000
      5          6           0       -1.287148    0.177832    0.000000
 ---------------------------------------------------------------------
                    Distance matrix (angstroms):
                    1          2          3          4          5
     1  H    0.000000
     2  C    1.093748   0.000000
     3  C    2.520344   1.426596   0.000000
     4  C    2.369780   1.568302   1.392221   0.000000
     5  C    2.369780   1.568302   1.392221   2.574296   0.000000
 Stoichiometry    C4H(1+)
 Framework group  C2V[C2(CCH),SGV(C2)]
 Deg. of freedom     4
 Full point group                 C2V     NOp   4
 Largest Abelian subgroup         C2V     NOp   4
 Largest concise Abelian subgroup C2      NOp   2
                         Standard orientation:                         
 ---------------------------------------------------------------------
 Center     Atomic      Atomic             Coordinates (Angstroms)
 Number     Number       Type             X           Y           Z
 ---------------------------------------------------------------------
      1          1           0       -0.000000    0.000000    1.822463
      2          6           0       -0.000000    0.000000    0.728715
      3          6           0        0.000000   -0.000000   -0.697881
      4          6           0        0.000000    1.287148   -0.167288
      5          6           0       -0.000000   -1.287148   -0.167288
 ---------------------------------------------------------------------
 Rotational constants (GHZ):     31.2559395     12.7101004      9.0357497
 Leave Link  202 at Tue Oct 10 17:14:06 2017, MaxMem=    33554432 cpu:         4.4
 (Enter /usr/local/gaussian/2009-E.01/g09/l301.exe)
 Standard basis: 6-311++G(d,p) (5D, 7F)
 Ernie: Thresh=  0.10000D-02 Tol=  0.10000D-05 Strict=F.
 There are    46 symmetry adapted cartesian basis functions of A1  symmetry.
 There are     8 symmetry adapted cartesian basis functions of A2  symmetry.
 There are    17 symmetry adapted cartesian basis functions of B1  symmetry.
 There are    28 symmetry adapted cartesian basis functions of B2  symmetry.
 There are    43 symmetry adapted basis functions of A1  symmetry.
 There are     8 symmetry adapted basis functions of A2  symmetry.
 There are    17 symmetry adapted basis functions of B1  symmetry.
 There are    27 symmetry adapted basis functions of B2  symmetry.
    95 basis functions,   153 primitive gaussians,    99 cartesian basis functions
    12 alpha electrons       12 beta electrons
       nuclear repulsion energy        79.2574469990 Hartrees.
 IExCor=    0 DFT=F Ex=HF Corr=None ExCW=0 ScaHFX=  1.000000
 ScaDFX=  1.000000  1.000000  1.000000  1.000000 ScalE2=  1.000000  1.000000
 IRadAn=      0 IRanWt=     -1 IRanGd=            0 ICorTp=0 IEmpDi=  4
 NAtoms=    5 NActive=    5 NUniq=    4 SFac= 1.56D+00 NAtFMM=   60 NAOKFM=F Big=F
 Integral buffers will be    131072 words long.
 Raffenetti 1 integral format.
 Two-electron integral symmetry is turned on.
 Leave Link  301 at Tue Oct 10 17:14:06 2017, MaxMem=    33554432 cpu:         4.6
 (Enter /usr/local/gaussian/2009-E.01/g09/l302.exe)
 NPDir=0 NMtPBC=     1 NCelOv=     1 NCel=       1 NClECP=     1 NCelD=      1
         NCelK=      1 NCelE2=     1 NClLst=     1 CellRange=     0.0.
 One-electron integrals computed using PRISM.
 One-electron integral symmetry used in STVInt
 NBasis=    95 RedAO= T EigKep=  8.36D-05  NBF=    43     8    17    27
 NBsUse=    95 1.00D-06 EigRej= -1.00D+00 NBFU=    43     8    17    27
 Leave Link  302 at Tue Oct 10 17:14:07 2017, MaxMem=    33554432 cpu:         2.1
 (Enter /usr/local/gaussian/2009-E.01/g09/l303.exe)
 DipDrv:  MaxL=1.
 Leave Link  303 at Tue Oct 10 17:14:07 2017, MaxMem=    33554432 cpu:         0.3
 (Enter /usr/local/gaussian/2009-E.01/g09/l401.exe)
 ExpMin= 3.60D-02 ExpMax= 4.56D+03 ExpMxC= 6.82D+02 IAcc=3 IRadAn=         5 AccDes= 0.00D+00
 Harris functional with IExCor=  205 and IRadAn=       5 diagonalized for initial guess.
 HarFok:  IExCor=  205 AccDes= 0.00D+00 IRadAn=         5 IDoV= 1 UseB2=F ITyADJ=14
 ICtDFT=  3500011 ScaDFX=  1.000000  1.000000  1.000000  1.000000
 FoFCou: FMM=F IPFlag=           0 FMFlag=      100000 FMFlg1=           0
         NFxFlg=           0 DoJE=T BraDBF=F KetDBF=T FulRan=T
         wScrn=  0.000000 ICntrl=     500 IOpCl=  0 I1Cent=   200000004 NGrid=           0
         NMat0=    1 NMatS0=      1 NMatT0=    0 NMatD0=    1 NMtDS0=    0 NMtDT0=    0
 Petite list used in FoFCou.
 Harris En= -151.563140302812    
 JPrj=0 DoOrth=F DoCkMO=F.
 Initial guess orbital symmetries:
       Occupied  (A1) (A1) (B2) (A1) (A1) (B2) (A1) (A1) (B1) (B2)
                 (A1) (B2)
       Virtual   (A2) (B1) (A1) (B1) (A1) (A1) (B2) (B1) (B2) (A1)
                 (A1) (B2) (A2) (B1) (A1) (A1) (A1) (B2) (B1) (A1)
                 (B2) (A1) (B2) (A1) (B2) (A1) (A1) (B2) (B1) (B2)
                 (B1) (A1) (A2) (A1) (B2) (B1) (A1) (A1) (B2) (A1)
                 (A1) (B2) (A1) (B1) (A2) (A2) (B2) (A1) (B1) (B2)
                 (A1) (B1) (A1) (B1) (B2) (A2) (A1) (B2) (A1) (A1)
                 (A2) (B1) (B2) (B2) (A1) (B1) (A1) (B2) (B1) (A2)
                 (A1) (B1) (B2) (A1) (A1) (A1) (B2) (A1) (B2) (A1)
                 (A1) (B2) (A1)
 The electronic state of the initial guess is 1-A1.
 Leave Link  401 at Tue Oct 10 17:14:08 2017, MaxMem=    33554432 cpu:         5.1
 (Enter /usr/local/gaussian/2009-E.01/g09/l502.exe)
 Closed shell SCF:
 Using DIIS extrapolation, IDIIS=  1040.
 Integral symmetry usage will be decided dynamically.
 Keep R1 ints in memory in symmetry-blocked form, NReq=13219361.
 IVT=       49667 IEndB=       49667 NGot=    33554432 MDV=    30734247
 LenX=    30734247 LenY=    30724005
 Requested convergence on RMS density matrix=1.00D-08 within 128 cycles.
 Requested convergence on MAX density matrix=1.00D-06.
 Requested convergence on             energy=1.00D-06.
 No special actions if energy rises.
 FoFCou: FMM=F IPFlag=           0 FMFlag=           0 FMFlg1=           0
         NFxFlg=           0 DoJE=F BraDBF=F KetDBF=F FulRan=T
         wScrn=  0.000000 ICntrl=     600 IOpCl=  0 I1Cent=           0 NGrid=           0
         NMat0=    1 NMatS0=   4560 NMatT0=    0 NMatD0=    1 NMtDS0=    0 NMtDT0=    0
 Petite list used in FoFCou.

 Cycle   1  Pass 1  IDiag  1:
 E= -151.398801098967    
 DIIS: error= 6.08D-02 at cycle   1 NSaved=   1.
 NSaved= 1 IEnMin= 1 EnMin= -151.398801098967     IErMin= 1 ErrMin= 6.08D-02
 ErrMax= 6.08D-02  0.00D+00 EMaxC= 1.00D-01 BMatC= 2.01D-01 BMatP= 2.01D-01
 IDIUse=3 WtCom= 3.92D-01 WtEn= 6.08D-01
 Coeff-Com:  0.100D+01
 Coeff-En:   0.100D+01
 Coeff:      0.100D+01
 Gap=     0.435 Goal=   None    Shift=    0.000
 GapD=    0.435 DampG=2.000 DampE=0.500 DampFc=1.0000 IDamp=-1.
 RMSDP=3.79D-03 MaxDP=1.03D-01              OVMax= 6.32D-02

 Cycle   2  Pass 1  IDiag  1:
 E= -151.455163942150     Delta-E=       -0.056362843183 Rises=F Damp=F
 DIIS: error= 4.84D-03 at cycle   2 NSaved=   2.
 NSaved= 2 IEnMin= 2 EnMin= -151.455163942150     IErMin= 2 ErrMin= 4.84D-03
 ErrMax= 4.84D-03  0.00D+00 EMaxC= 1.00D-01 BMatC= 2.44D-03 BMatP= 2.01D-01
 IDIUse=3 WtCom= 9.52D-01 WtEn= 4.84D-02
 Coeff-Com: -0.566D-01 0.106D+01
 Coeff-En:   0.000D+00 0.100D+01
 Coeff:     -0.539D-01 0.105D+01
 Gap=     0.441 Goal=   None    Shift=    0.000
 RMSDP=1.32D-03 MaxDP=2.61D-02 DE=-5.64D-02 OVMax= 2.01D-02

 Cycle   3  Pass 1  IDiag  1:
 E= -151.457665054190     Delta-E=       -0.002501112041 Rises=F Damp=F
 DIIS: error= 4.31D-03 at cycle   3 NSaved=   3.
 NSaved= 3 IEnMin= 3 EnMin= -151.457665054190     IErMin= 3 ErrMin= 4.31D-03
 ErrMax= 4.31D-03  0.00D+00 EMaxC= 1.00D-01 BMatC= 5.47D-04 BMatP= 2.44D-03
 IDIUse=3 WtCom= 9.57D-01 WtEn= 4.31D-02
 Coeff-Com: -0.255D-01 0.323D+00 0.702D+00
 Coeff-En:   0.000D+00 0.000D+00 0.100D+01
 Coeff:     -0.244D-01 0.309D+00 0.715D+00
 Gap=     0.443 Goal=   None    Shift=    0.000
 RMSDP=3.97D-04 MaxDP=7.47D-03 DE=-2.50D-03 OVMax= 8.04D-03

 Cycle   4  Pass 1  IDiag  1:
 E= -151.458246514490     Delta-E=       -0.000581460300 Rises=F Damp=F
 DIIS: error= 8.26D-04 at cycle   4 NSaved=   4.
 NSaved= 4 IEnMin= 4 EnMin= -151.458246514490     IErMin= 4 ErrMin= 8.26D-04
 ErrMax= 8.26D-04  0.00D+00 EMaxC= 1.00D-01 BMatC= 3.94D-05 BMatP= 5.47D-04
 IDIUse=3 WtCom= 9.92D-01 WtEn= 8.26D-03
 Coeff-Com:  0.658D-02-0.130D+00-0.174D-01 0.114D+01
 Coeff-En:   0.000D+00 0.000D+00 0.000D+00 0.100D+01
 Coeff:      0.653D-02-0.129D+00-0.172D-01 0.114D+01
 Gap=     0.444 Goal=   None    Shift=    0.000
 RMSDP=3.78D-04 MaxDP=7.40D-03 DE=-5.81D-04 OVMax= 4.83D-03

 Cycle   5  Pass 1  IDiag  1:
 E= -151.458332591759     Delta-E=       -0.000086077269 Rises=F Damp=F
 DIIS: error= 4.40D-04 at cycle   5 NSaved=   5.
 NSaved= 5 IEnMin= 5 EnMin= -151.458332591759     IErMin= 5 ErrMin= 4.40D-04
 ErrMax= 4.40D-04  0.00D+00 EMaxC= 1.00D-01 BMatC= 5.50D-06 BMatP= 3.94D-05
 IDIUse=3 WtCom= 9.96D-01 WtEn= 4.40D-03
 Coeff-Com:  0.344D-02-0.569D-01-0.690D-01 0.304D+00 0.819D+00
 Coeff-En:   0.000D+00 0.000D+00 0.000D+00 0.000D+00 0.100D+01
 Coeff:      0.342D-02-0.567D-01-0.687D-01 0.302D+00 0.820D+00
 Gap=     0.445 Goal=   None    Shift=    0.000
 RMSDP=7.35D-05 MaxDP=1.44D-03 DE=-8.61D-05 OVMax= 1.53D-03

 Cycle   6  Pass 1  IDiag  1:
 E= -151.458341196338     Delta-E=       -0.000008604579 Rises=F Damp=F
 DIIS: error= 1.27D-04 at cycle   6 NSaved=   6.
 NSaved= 6 IEnMin= 6 EnMin= -151.458341196338     IErMin= 6 ErrMin= 1.27D-04
 ErrMax= 1.27D-04  0.00D+00 EMaxC= 1.00D-01 BMatC= 3.95D-07 BMatP= 5.50D-06
 IDIUse=3 WtCom= 9.99D-01 WtEn= 1.27D-03
 Coeff-Com: -0.910D-03 0.178D-01-0.760D-03-0.125D+00-0.665D-01 0.118D+01
 Coeff-En:   0.000D+00 0.000D+00 0.000D+00 0.000D+00 0.000D+00 0.100D+01
 Coeff:     -0.909D-03 0.178D-01-0.759D-03-0.125D+00-0.664D-01 0.118D+01
 Gap=     0.445 Goal=   None    Shift=    0.000
 RMSDP=2.04D-05 MaxDP=5.62D-04 DE=-8.60D-06 OVMax= 7.25D-04

 Cycle   7  Pass 1  IDiag  1:
 E= -151.458342537364     Delta-E=       -0.000001341026 Rises=F Damp=F
 DIIS: error= 3.54D-05 at cycle   7 NSaved=   7.
 NSaved= 7 IEnMin= 7 EnMin= -151.458342537364     IErMin= 7 ErrMin= 3.54D-05
 ErrMax= 3.54D-05  0.00D+00 EMaxC= 1.00D-01 BMatC= 5.60D-08 BMatP= 3.95D-07
 IDIUse=1 WtCom= 1.00D+00 WtEn= 0.00D+00
 Coeff-Com:  0.104D-03-0.218D-02 0.230D-02 0.297D-01-0.738D-01-0.381D+00
 Coeff-Com:  0.142D+01
 Coeff:      0.104D-03-0.218D-02 0.230D-02 0.297D-01-0.738D-01-0.381D+00
 Coeff:      0.142D+01
 Gap=     0.445 Goal=   None    Shift=    0.000
 RMSDP=1.12D-05 MaxDP=3.67D-04 DE=-1.34D-06 OVMax= 3.23D-04

 Cycle   8  Pass 1  IDiag  1:
 E= -151.458342745035     Delta-E=       -0.000000207672 Rises=F Damp=F
 DIIS: error= 1.12D-05 at cycle   8 NSaved=   8.
 NSaved= 8 IEnMin= 8 EnMin= -151.458342745035     IErMin= 8 ErrMin= 1.12D-05
 ErrMax= 1.12D-05  0.00D+00 EMaxC= 1.00D-01 BMatC= 3.22D-09 BMatP= 5.60D-08
 IDIUse=1 WtCom= 1.00D+00 WtEn= 0.00D+00
 Coeff-Com:  0.466D-04-0.104D-02-0.429D-03 0.798D-02 0.477D-02-0.539D-01
 Coeff-Com: -0.112D+00 0.115D+01
 Coeff:      0.466D-04-0.104D-02-0.429D-03 0.798D-02 0.477D-02-0.539D-01
 Coeff:     -0.112D+00 0.115D+01
 Gap=     0.445 Goal=   None    Shift=    0.000
 RMSDP=3.27D-06 MaxDP=5.92D-05 DE=-2.08D-07 OVMax= 9.33D-05

 Cycle   9  Pass 1  IDiag  1:
 E= -151.458342759618     Delta-E=       -0.000000014583 Rises=F Damp=F
 DIIS: error= 3.32D-06 at cycle   9 NSaved=   9.
 NSaved= 9 IEnMin= 9 EnMin= -151.458342759618     IErMin= 9 ErrMin= 3.32D-06
 ErrMax= 3.32D-06  0.00D+00 EMaxC= 1.00D-01 BMatC= 4.03D-10 BMatP= 3.22D-09
 IDIUse=1 WtCom= 1.00D+00 WtEn= 0.00D+00
 Coeff-Com: -0.156D-04 0.374D-03-0.299D-03-0.359D-02 0.579D-02 0.463D-01
 Coeff-Com: -0.108D+00-0.345D+00 0.141D+01
 Coeff:     -0.156D-04 0.374D-03-0.299D-03-0.359D-02 0.579D-02 0.463D-01
 Coeff:     -0.108D+00-0.345D+00 0.141D+01
 Gap=     0.445 Goal=   None    Shift=    0.000
 RMSDP=1.00D-06 MaxDP=1.58D-05 DE=-1.46D-08 OVMax= 3.55D-05

 Cycle  10  Pass 1  IDiag  1:
 E= -151.458342761498     Delta-E=       -0.000000001880 Rises=F Damp=F
 DIIS: error= 4.92D-07 at cycle  10 NSaved=  10.
 NSaved=10 IEnMin=10 EnMin= -151.458342761498     IErMin=10 ErrMin= 4.92D-07
 ErrMax= 4.92D-07  0.00D+00 EMaxC= 1.00D-01 BMatC= 2.01D-11 BMatP= 4.03D-10
 IDIUse=1 WtCom= 1.00D+00 WtEn= 0.00D+00
 Coeff-Com:  0.155D-05-0.324D-04 0.109D-03 0.473D-03-0.228D-02-0.112D-01
 Coeff-Com:  0.461D-01 0.281D-01-0.453D+00 0.139D+01
 Coeff:      0.155D-05-0.324D-04 0.109D-03 0.473D-03-0.228D-02-0.112D-01
 Coeff:      0.461D-01 0.281D-01-0.453D+00 0.139D+01
 Gap=     0.445 Goal=   None    Shift=    0.000
 RMSDP=2.54D-07 MaxDP=4.75D-06 DE=-1.88D-09 OVMax= 5.54D-06

 Cycle  11  Pass 1  IDiag  1:
 E= -151.458342761577     Delta-E=       -0.000000000080 Rises=F Damp=F
 DIIS: error= 7.91D-08 at cycle  11 NSaved=  11.
 NSaved=11 IEnMin=11 EnMin= -151.458342761577     IErMin=11 ErrMin= 7.91D-08
 ErrMax= 7.91D-08  0.00D+00 EMaxC= 1.00D-01 BMatC= 7.64D-13 BMatP= 2.01D-11
 IDIUse=1 WtCom= 1.00D+00 WtEn= 0.00D+00
 Coeff-Com:  0.737D-06-0.195D-04 0.461D-05 0.111D-03 0.219D-03 0.404D-04
 Coeff-Com: -0.581D-02 0.167D-01 0.256D-01-0.323D+00 0.129D+01
 Coeff:      0.737D-06-0.195D-04 0.461D-05 0.111D-03 0.219D-03 0.404D-04
 Coeff:     -0.581D-02 0.167D-01 0.256D-01-0.323D+00 0.129D+01
 Gap=     0.445 Goal=   None    Shift=    0.000
 RMSDP=4.71D-08 MaxDP=1.00D-06 DE=-7.96D-11 OVMax= 7.48D-07

 Cycle  12  Pass 1  IDiag  1:
 E= -151.458342761579     Delta-E=       -0.000000000002 Rises=F Damp=F
 DIIS: error= 1.87D-08 at cycle  12 NSaved=  12.
 NSaved=12 IEnMin=12 EnMin= -151.458342761579     IErMin=12 ErrMin= 1.87D-08
 ErrMax= 1.87D-08  0.00D+00 EMaxC= 1.00D-01 BMatC= 1.84D-14 BMatP= 7.64D-13
 IDIUse=1 WtCom= 1.00D+00 WtEn= 0.00D+00
 Coeff-Com: -0.229D-06 0.606D-05-0.202D-05-0.430D-04-0.296D-04 0.323D-03
 Coeff-Com:  0.428D-03-0.542D-02 0.458D-02 0.596D-01-0.376D+00 0.132D+01
 Coeff:     -0.229D-06 0.606D-05-0.202D-05-0.430D-04-0.296D-04 0.323D-03
 Coeff:      0.428D-03-0.542D-02 0.458D-02 0.596D-01-0.376D+00 0.132D+01
 Gap=     0.445 Goal=   None    Shift=    0.000
 RMSDP=6.32D-09 MaxDP=9.13D-08 DE=-1.93D-12 OVMax= 7.30D-08

 SCF Done:  E(RHF) =  -151.458342762     A.U. after   12 cycles
            NFock= 12  Conv=0.63D-08     -V/T= 2.0013
 KE= 1.512643979599D+02 PE=-5.033958133730D+02 EE= 1.214156256526D+02
 Leave Link  502 at Tue Oct 10 17:14:13 2017, MaxMem=    33554432 cpu:        34.7
 (Enter /usr/local/gaussian/2009-E.01/g09/l801.exe)
 Windowed orbitals will be sorted by symmetry type.
 ExpMin= 3.60D-02 ExpMax= 4.56D+03 ExpMxC= 6.82D+02 IAcc=3 IRadAn=         5 AccDes= 0.00D+00
 HarFok:  IExCor=  205 AccDes= 0.00D+00 IRadAn=         5 IDoV=-2 UseB2=F ITyADJ=14
 ICtDFT= 12500011 ScaDFX=  1.000000  1.000000  1.000000  1.000000
 Largest valence mixing into a core orbital is  1.66D-04
 Largest core mixing into a valence orbital is  7.52D-05
 Range of M.O.s used for correlation:     5    95
 NBasis=    95 NAE=    12 NBE=    12 NFC=     4 NFV=     0
 NROrb=     91 NOA=     8 NOB=     8 NVA=    83 NVB=    83

 **** Warning!!: The largest alpha MO coefficient is  0.71358101D+02

 Leave Link  801 at Tue Oct 10 17:14:13 2017, MaxMem=    33554432 cpu:         0.7
 (Enter /usr/local/gaussian/2009-E.01/g09/l804.exe)
 Closed-shell transformation, MDV=    33554432 ITran=4 ISComp=2.
 Semi-Direct transformation.
 ModeAB=           4 MOrb=             8 LenV=      33235575
 LASXX=       749705 LTotXX=      749705 LenRXX=     1530227
 LTotAB=      780522 MaxLAS=     2446808 LenRXY=           0
 NonZer=     2279932 LenScr=     4101120 LnRSAI=     2446808
 LnScr1=     4402176 LExtra=           0 Total=     12480331
 MaxDsk=          -1 SrtSym=           T ITran=            4
 DoSDTr:  NPSUse=  8
 JobTyp=0 Pass  1:  I=   1 to   8.
 (rs|ai) integrals will be sorted in core.
 Complete sort for first half transformation.
 First half transformation complete.
 Complete sort for second half transformation.
 Second half transformation complete.
 Spin components of T(2) and E(2):
     alpha-alpha T2 =       0.2500342423D-01 E2=     -0.5998297244D-01
     alpha-beta  T2 =       0.1403928055D+00 E2=     -0.3488149632D+00
     beta-beta   T2 =       0.2500342423D-01 E2=     -0.5998297244D-01
 ANorm=    0.1091054377D+01
 E2 =    -0.4687809080D+00 EUMP2 =    -0.15192712366963D+03
 Leave Link  804 at Tue Oct 10 17:14:14 2017, MaxMem=    33554432 cpu:         5.5
 (Enter /usr/local/gaussian/2009-E.01/g09/l913.exe)
 CIDS:  MDV=    33554432.
 Frozen-core window:  NFC=   4 NFV=   0.
 IFCWin=0 IBDFC=1 NFBD=     0     0 NFCmp=     0     0 NFFFC=     0     0
 Using DD3R+UMP44R for 1st iteration, S=T.
 Using DD4RQ for 2nd and later iterations.
 Keep R2 and R3 ints in memory in symmetry-blocked form, NReq=13171178.
 FoFCou: FMM=F IPFlag=           0 FMFlag=           0 FMFlg1=           0
         NFxFlg=           0 DoJE=F BraDBF=F KetDBF=F FulRan=T
         wScrn=  0.000000 ICntrl=     600 IOpCl=  0 I1Cent=           0 NGrid=           0
         NMat0=    1 NMatS0=   4560 NMatT0=    0 NMatD0=    1 NMtDS0=    0 NMtDT0=    0
 Petite list used in FoFCou.
 CCSD(T)
 =======
 Iterations= 200 Convergence= 0.100D-06
 Iteration Nr.   1
 **********************
 DD1Dir will call FoFMem   1 times, MxPair=        72
 NAB=    36 NAA=     0 NBB=     0.
 MP4(R+Q)=  0.15997283D-01
 Maximum subspace dimension=  5
 Norm of the A-vectors is  7.7252526D-01 conv= 1.00D-05.
 RLE energy=       -0.4713256383
 E3=       -0.18587251D-01        EUMP3=      -0.15194571092D+03
 E4(DQ)=   -0.13584715D-04        UMP4(DQ)=   -0.15194572451D+03
 E4(SDQ)=  -0.64323217D-02        UMP4(SDQ)=  -0.15195214324D+03
 VARIATIONAL ENERGIES WITH THE FIRST-ORDER WAVEFUNCTION:
 DE(Corr)= -0.47131191     E(Corr)=     -151.92965467    
 NORM(A)=   0.10955063D+01
 Iteration Nr.   2
 **********************
 DD1Dir will call FoFMem   1 times, MxPair=        72
 NAB=    36 NAA=     0 NBB=     0.
 Norm of the A-vectors is  2.8327751D-01 conv= 1.00D-05.
 RLE energy=       -0.4935521535
 DE(Corr)= -0.49075054     E(CORR)=     -151.94909330     Delta=-1.94D-02
 NORM(A)=   0.11083764D+01
 Iteration Nr.   3
 **********************
 DD1Dir will call FoFMem   1 times, MxPair=        72
 NAB=    36 NAA=     0 NBB=     0.
 Norm of the A-vectors is  8.8552633D-02 conv= 1.00D-05.
 RLE energy=       -0.4946343795
 DE(Corr)= -0.49270716     E(CORR)=     -151.95104992     Delta=-1.96D-03
 NORM(A)=   0.11118309D+01
 Iteration Nr.   4
 **********************
 DD1Dir will call FoFMem   1 times, MxPair=        72
 NAB=    36 NAA=     0 NBB=     0.
 Norm of the A-vectors is  3.2119601D-02 conv= 1.00D-05.
 RLE energy=       -0.4951003988
 DE(Corr)= -0.49487497     E(CORR)=     -151.95321773     Delta=-2.17D-03
 NORM(A)=   0.11131060D+01
 Iteration Nr.   5
 **********************
 DD1Dir will call FoFMem   1 times, MxPair=        72
 NAB=    36 NAA=     0 NBB=     0.
 Norm of the A-vectors is  1.2198309D-02 conv= 1.00D-05.
 RLE energy=       -0.4952494569
 DE(Corr)= -0.49516157     E(CORR)=     -151.95350433     Delta=-2.87D-04
 NORM(A)=   0.11134380D+01
 Iteration Nr.   6
 **********************
 DD1Dir will call FoFMem   1 times, MxPair=        72
 NAB=    36 NAA=     0 NBB=     0.
 Norm of the A-vectors is  4.6963971D-03 conv= 1.00D-05.
 RLE energy=       -0.4951803256
 DE(Corr)= -0.49520973     E(CORR)=     -151.95355249     Delta=-4.82D-05
 NORM(A)=   0.11134537D+01
 Iteration Nr.   7
 **********************
 DD1Dir will call FoFMem   1 times, MxPair=        72
 NAB=    36 NAA=     0 NBB=     0.
 Norm of the A-vectors is  2.2187186D-03 conv= 1.00D-05.
 RLE energy=       -0.4952134459
 DE(Corr)= -0.49521612     E(CORR)=     -151.95355888     Delta=-6.38D-06
 NORM(A)=   0.11134713D+01
 Iteration Nr.   8
 **********************
 DD1Dir will call FoFMem   1 times, MxPair=        72
 NAB=    36 NAA=     0 NBB=     0.
 Norm of the A-vectors is  1.1823047D-03 conv= 1.00D-05.
 RLE energy=       -0.4952058210
 DE(Corr)= -0.49521017     E(CORR)=     -151.95355293     Delta= 5.95D-06
 NORM(A)=   0.11134701D+01
 Iteration Nr.   9
 **********************
 DD1Dir will call FoFMem   1 times, MxPair=        72
 NAB=    36 NAA=     0 NBB=     0.
 Norm of the A-vectors is  7.0495222D-04 conv= 1.00D-05.
 RLE energy=       -0.4952141665
 DE(Corr)= -0.49521437     E(CORR)=     -151.95355713     Delta=-4.20D-06
 NORM(A)=   0.11134747D+01
 Iteration Nr.  10
 **********************
 DD1Dir will call FoFMem   1 times, MxPair=        72
 NAB=    36 NAA=     0 NBB=     0.
 Norm of the A-vectors is  3.3492050D-04 conv= 1.00D-05.
 RLE energy=       -0.4952145015
 DE(Corr)= -0.49521361     E(CORR)=     -151.95355637     Delta= 7.55D-07
 NORM(A)=   0.11134775D+01
 Iteration Nr.  11
 **********************
 DD1Dir will call FoFMem   1 times, MxPair=        72
 NAB=    36 NAA=     0 NBB=     0.
 Norm of the A-vectors is  1.5801563D-04 conv= 1.00D-05.
 RLE energy=       -0.4952155595
 DE(Corr)= -0.49521530     E(CORR)=     -151.95355806     Delta=-1.69D-06
 NORM(A)=   0.11134799D+01
 Iteration Nr.  12
 **********************
 DD1Dir will call FoFMem   1 times, MxPair=        72
 NAB=    36 NAA=     0 NBB=     0.
 Norm of the A-vectors is  6.5577705D-05 conv= 1.00D-05.
 RLE energy=       -0.4952160299
 DE(Corr)= -0.49521574     E(CORR)=     -151.95355850     Delta=-4.42D-07
 NORM(A)=   0.11134814D+01
 Iteration Nr.  13
 **********************
 DD1Dir will call FoFMem   1 times, MxPair=        72
 NAB=    36 NAA=     0 NBB=     0.
 Norm of the A-vectors is  3.2080247D-05 conv= 1.00D-05.
 RLE energy=       -0.4952162635
 DE(Corr)= -0.49521615     E(CORR)=     -151.95355891     Delta=-4.13D-07
 NORM(A)=   0.11134821D+01
 Iteration Nr.  14
 **********************
 DD1Dir will call FoFMem   1 times, MxPair=        72
 NAB=    36 NAA=     0 NBB=     0.
 Norm of the A-vectors is  1.6258720D-05 conv= 1.00D-05.
 RLE energy=       -0.4952163702
 DE(Corr)= -0.49521631     E(CORR)=     -151.95355907     Delta=-1.54D-07
 NORM(A)=   0.11134824D+01
 Iteration Nr.  15
 **********************
 DD1Dir will call FoFMem   1 times, MxPair=        72
 NAB=    36 NAA=     0 NBB=     0.
 Norm of the A-vectors is  7.9921168D-06 conv= 1.00D-05.
 RLE energy=       -0.4952163900
 DE(Corr)= -0.49521637     E(CORR)=     -151.95355913     Delta=-6.56D-08
 NORM(A)=   0.11134825D+01
 CI/CC converged in   15 iterations to DelEn=-6.56D-08 Conv= 1.00D-07 ErrA1= 7.99D-06 Conv= 1.00D-05
 Largest amplitude= 7.47D-02
 IPart=  7 IA=    6   11.75% done.
 IPart=  4 IA=   10   20.63% done.
 IPart=  3 IA=   15   31.06% done.
 IPart=  1 IA=   20   40.76% done.
 IPart=  7 IA=   26   51.43% done.
 IPart=  5 IA=   32   61.03% done.
 IPart=  3 IA=   39   70.91% done.
 IPart=  2 IA=   47   80.43% done.
 IPart=  1 IA=   58   90.45% done.
 Time for triples=       55.22 seconds.
 T4(CCSD)= -0.31078254D-01
 T5(CCSD)=  0.85735343D-03
 CCSD(T)= -0.15198378003D+03
 Discarding MO integrals.
 Leave Link  913 at Tue Oct 10 17:14:44 2017, MaxMem=    33554432 cpu:       224.9
 (Enter /usr/local/gaussian/2009-E.01/g09/l601.exe)
 Copying SCF densities to generalized density rwf, IOpCl= 0 IROHF=0.

 **********************************************************************

            Population analysis using the SCF density.

 **********************************************************************

 Orbital symmetries:
       Occupied  (A1) (A1) (B2) (A1) (A1) (B2) (A1) (A1) (B1) (B2)
                 (A1) (B2)
       Virtual   (A2) (B1) (A1) (A1) (B1) (A1) (B2) (A1) (B1) (B2)
                 (A1) (B1) (A2) (A1) (B2) (A1) (A1) (B1) (B2) (A1)
                 (B2) (B2) (A1) (A1) (A1) (B2) (A1) (B1) (B2) (B1)
                 (B2) (A1) (A2) (A1) (B1) (A1) (B2) (A1) (B2) (A1)
                 (A1) (B2) (A1) (B1) (A2) (A2) (B2) (A1) (B1) (B2)
                 (A1) (B1) (A1) (B1) (B2) (A2) (A1) (B2) (A1) (A1)
                 (B1) (A2) (B2) (B2) (A1) (A1) (B1) (B2) (B1) (A2)
                 (A1) (B1) (A1) (B2) (A1) (A1) (A1) (B2) (B2) (A1)
                 (A1) (B2) (A1)
 The electronic state is 1-A1.
 Alpha  occ. eigenvalues --  -11.66443 -11.64952 -11.64062 -11.64047  -1.60955
 Alpha  occ. eigenvalues --   -1.27622  -1.12457  -0.90399  -0.83039  -0.81602
 Alpha  occ. eigenvalues --   -0.79418  -0.70010
 Alpha virt. eigenvalues --   -0.25514  -0.20874  -0.16604  -0.10319  -0.07688
 Alpha virt. eigenvalues --   -0.07612  -0.04890  -0.03380  -0.02271  -0.01715
 Alpha virt. eigenvalues --   -0.01319  -0.00032   0.00508   0.01734   0.02346
 Alpha virt. eigenvalues --    0.04962   0.06029   0.06233   0.07107   0.09802
 Alpha virt. eigenvalues --    0.09995   0.12251   0.12284   0.14942   0.26720
 Alpha virt. eigenvalues --    0.27737   0.36427   0.41969   0.42188   0.48030
 Alpha virt. eigenvalues --    0.48281   0.48495   0.50965   0.52392   0.56879
 Alpha virt. eigenvalues --    0.57615   0.58713   0.61703   0.68288   0.71292
 Alpha virt. eigenvalues --    0.77417   0.80120   0.84014   0.90619   0.97745
 Alpha virt. eigenvalues --    1.02553   1.28198   1.35487   1.37027   1.38698
 Alpha virt. eigenvalues --    1.49605   1.50757   1.67894   1.73340   1.78744
 Alpha virt. eigenvalues --    1.79678   1.90258   1.94932   1.98873   2.01004
 Alpha virt. eigenvalues --    2.09720   2.10566   2.18782   2.24580   2.44408
 Alpha virt. eigenvalues --    2.65145   2.69353   2.84064   2.88018   2.89101
 Alpha virt. eigenvalues --    2.90243   2.94807   3.11505   3.12676   3.30221
 Alpha virt. eigenvalues --    3.58899   3.78800   3.80586   3.82501  24.12006
 Alpha virt. eigenvalues --   24.61366  24.64272  25.03441
          Condensed to atoms (all electrons):
               1          2          3          4          5
     1  H    0.282502   0.325722  -0.000682   0.000937   0.000937
     2  C    0.325722   4.952270   0.211132   0.313645   0.313645
     3  C   -0.000682   0.211132   5.073865   0.446863   0.446863
     4  C    0.000937   0.313645   0.446863   4.859947  -0.073328
     5  C    0.000937   0.313645   0.446863  -0.073328   4.859947
 Mulliken charges:
               1
     1  H    0.390585
     2  C   -0.116414
     3  C   -0.178042
     4  C    0.451935
     5  C    0.451935
 Sum of Mulliken charges =   1.00000
 Mulliken charges with hydrogens summed into heavy atoms:
               1
     2  C    0.274171
     3  C   -0.178042
     4  C    0.451935
     5  C    0.451935
 Electronic spatial extent (au):  <R**2>=            148.2874
 Charge=              1.0000 electrons
 Dipole moment (field-independent basis, Debye):
    X=             -0.0000    Y=              0.0000    Z=              1.5066  Tot=              1.5066
 Quadrupole moment (field-independent basis, Debye-Ang):
   XX=            -19.0161   YY=            -23.7791   ZZ=            -14.2579
   XY=              0.0000   XZ=              0.0000   YZ=              0.0000
 Traceless Quadrupole moment (field-independent basis, Debye-Ang):
   XX=              0.0016   YY=             -4.7614   ZZ=              4.7598
   XY=              0.0000   XZ=              0.0000   YZ=              0.0000
 Octapole moment (field-independent basis, Debye-Ang**2):
  XXX=              0.0000  YYY=              0.0000  ZZZ=             10.4502  XYY=              0.0000
  XXY=             -0.0000  XXZ=              0.5585  XZZ=              0.0000  YZZ=              0.0000
  YYZ=             -0.0540  XYZ=             -0.0000
 Hexadecapole moment (field-independent basis, Debye-Ang**3):
 XXXX=            -18.0938 YYYY=           -157.1317 ZZZZ=            -38.3893 XXXY=             -0.0000
 XXXZ=             -0.0000 YYYX=             -0.0000 YYYZ=             -0.0000 ZZZX=             -0.0000
 ZZZY=              0.0000 XXYY=            -23.4572 XXZZ=            -12.8083 YYZZ=            -33.0111
 XXYZ=              0.0000 YYXZ=             -0.0000 ZZXY=             -0.0000
 N-N= 7.925744699898D+01 E-N=-5.033958132622D+02  KE= 1.512643979599D+02
 Symmetry A1   KE= 1.082401609965D+02
 Symmetry A2   KE= 1.114236647410D-32
 Symmetry B1   KE= 2.003950427379D+00
 Symmetry B2   KE= 4.102028653605D+01
 Leave Link  601 at Tue Oct 10 17:14:44 2017, MaxMem=    33554432 cpu:         0.2
 (Enter /usr/local/gaussian/2009-E.01/g09/l9999.exe)
 1\1\ WCSS.PL-BEM-WN1424\SP\RCCSD(T)-FC\6-311++G(d,p)\C4H1(1+)\ROOT\10-
 Oct-2017\0\\#p ccsd(t,maxcyc=200)/6-311++G(d,p)\\ccsd(t) iener\\1,1\H,
 0,0.,-1.811919,0.\C,0,0.,-0.718171,0.\C,0,0.,0.708425,0.\C,0,1.287148,
 0.177832,0.\C,0,-1.287148,0.177832,0.\\Version=ES64L-G09RevE.01\State=
 1-A1\HF=-151.4583428\MP2=-151.9271237\MP3=-151.9457109\MP4D=-151.96172
 18\MP4DQ=-151.9457245\MP4SDQ=-151.9521432\CCSD=-151.9535591\CCSD(T)=-1
 51.98378\RMSD=6.321e-09\PG=C02V [C2(C1C1H1),SGV(C2)]\\@


 GETTING A SIMPLE ANSWER FROM A PROFESSOR IS LIKE
 GETTING A THIMBLE OF WATER FROM A FIRE HYDRANT.
     -- PROF. LEN SHAPIRO, NDSU
 Job cpu time:       0 days  0 hours  4 minutes 50.5 seconds.
 File lengths (MBytes):  RWF=    105 Int=      0 D2E=      0 Chk=      2 Scr=      1
 Normal termination of Gaussian 09 at Tue Oct 10 17:14:45 2017.
