 Entering Gaussian System, Link 0=/usr/local/gaussian/2009-E.01/g09/g09
 Initial command:
 /usr/local/gaussian/2009-E.01/g09/l1.exe "/lustre/scratch/eerd/4986703.achilles/Gau-107269.inp" -scrdir="/lustre/scratch/eerd/4986703.achilles/"
 Entering Link 1 = /usr/local/gaussian/2009-E.01/g09/l1.exe PID=    107271.
  
 Copyright (c) 1988,1990,1992,1993,1995,1998,2003,2009,2015,
            Gaussian, Inc.  All Rights Reserved.
  
 This is part of the Gaussian(R) 09 program.  It is based on
 the Gaussian(R) 03 system (copyright 2003, Gaussian, Inc.),
 the Gaussian(R) 98 system (copyright 1998, Gaussian, Inc.),
 the Gaussian(R) 94 system (copyright 1995, Gaussian, Inc.),
 the Gaussian 92(TM) system (copyright 1992, Gaussian, Inc.),
 the Gaussian 90(TM) system (copyright 1990, Gaussian, Inc.),
 the Gaussian 88(TM) system (copyright 1988, Gaussian, Inc.),
 the Gaussian 86(TM) system (copyright 1986, Carnegie Mellon
 University), and the Gaussian 82(TM) system (copyright 1983,
 Carnegie Mellon University). Gaussian is a federally registered
 trademark of Gaussian, Inc.
  
 This software contains proprietary and confidential information,
 including trade secrets, belonging to Gaussian, Inc.
  
 This software is provided under written license and may be
 used, copied, transmitted, or stored only in accord with that
 written license.
  
 The following legend is applicable only to US Government
 contracts under FAR:
  
                    RESTRICTED RIGHTS LEGEND
  
 Use, reproduction and disclosure by the US Government is
 subject to restrictions as set forth in subparagraphs (a)
 and (c) of the Commercial Computer Software - Restricted
 Rights clause in FAR 52.227-19.
  
 Gaussian, Inc.
 340 Quinnipiac St., Bldg. 40, Wallingford CT 06492
  
  
 ---------------------------------------------------------------
 Warning -- This program may not be used in any manner that
 competes with the business of Gaussian, Inc. or will provide
 assistance to any competitor of Gaussian, Inc.  The licensee
 of this program is prohibited from giving any competitor of
 Gaussian, Inc. access to this program.  By using this program,
 the user acknowledges that Gaussian, Inc. is engaged in the
 business of creating and licensing software in the field of
 computational chemistry and represents and warrants to the
 licensee that it is not a competitor of Gaussian, Inc. and that
 it will not use this program in any manner prohibited above.
 ---------------------------------------------------------------
  

 Cite this work as:
 Gaussian 09, Revision E.01,
 M. J. Frisch, G. W. Trucks, H. B. Schlegel, G. E. Scuseria, 
 M. A. Robb, J. R. Cheeseman, G. Scalmani, V. Barone, B. Mennucci, 
 G. A. Petersson, H. Nakatsuji, M. Caricato, X. Li, H. P. Hratchian, 
 A. F. Izmaylov, J. Bloino, G. Zheng, J. L. Sonnenberg, M. Hada, 
 M. Ehara, K. Toyota, R. Fukuda, J. Hasegawa, M. Ishida, T. Nakajima, 
 Y. Honda, O. Kitao, H. Nakai, T. Vreven, J. A. Montgomery, Jr., 
 J. E. Peralta, F. Ogliaro, M. Bearpark, J. J. Heyd, E. Brothers, 
 K. N. Kudin, V. N. Staroverov, T. Keith, R. Kobayashi, J. Normand, 
 K. Raghavachari, A. Rendell, J. C. Burant, S. S. Iyengar, J. Tomasi, 
 M. Cossi, N. Rega, J. M. Millam, M. Klene, J. E. Knox, J. B. Cross, 
 V. Bakken, C. Adamo, J. Jaramillo, R. Gomperts, R. E. Stratmann, 
 O. Yazyev, A. J. Austin, R. Cammi, C. Pomelli, J. W. Ochterski, 
 R. L. Martin, K. Morokuma, V. G. Zakrzewski, G. A. Voth, 
 P. Salvador, J. J. Dannenberg, S. Dapprich, A. D. Daniels, 
 O. Farkas, J. B. Foresman, J. V. Ortiz, J. Cioslowski, 
 and D. J. Fox, Gaussian, Inc., Wallingford CT, 2013.
 
 ******************************************
 Gaussian 09:  ES64L-G09RevE.01 30-Nov-2015
                10-Oct-2017 
 ******************************************
 %NProcShared=8
 Will use up to    8 processors via shared memory.
 -----------------------------------
 #p ccsd(t,maxcyc=200)/6-311++G(d,p)
 -----------------------------------
 1/38=1/1;
 2/12=2,17=6,18=5,40=1/2;
 3/5=4,6=6,7=1111,11=9,16=1,25=1,30=1/1,2,3;
 4//1;
 5/5=2,38=5/2;
 8/6=4,9=120000,10=2/1,4;
 9/5=7,6=200,14=2/13;
 6/7=2,8=2,9=2,10=2/1;
 99/5=1,9=1/99;
 Leave Link    1 at Tue Oct 10 17:24:24 2017, MaxMem=           0 cpu:         0.5
 (Enter /usr/local/gaussian/2009-E.01/g09/l101.exe)
 -------------
 ccsd(t) iener
 -------------
 Symbolic Z-matrix:
 Charge =  1 Multiplicity = 3
 H                    -0.88223   0.        0. 
 O                     0.15553   0.        0. 
 
 NAtoms=      2 NQM=        2 NQMF=       0 NMMI=      0 NMMIF=      0
                NMic=       0 NMicF=      0.
                    Isotopes and Nuclear Properties:
 (Nuclear quadrupole moments (NQMom) in fm**2, nuclear magnetic moments (NMagM)
  in nuclear magnetons)

  Atom         1           2
 IAtWgt=           1          16
 AtmWgt=   1.0078250  15.9949146
 NucSpn=           1           0
 AtZEff=   0.0000000   0.0000000
 NQMom=    0.0000000   0.0000000
 NMagM=    2.7928460   0.0000000
 AtZNuc=   1.0000000   8.0000000
 Leave Link  101 at Tue Oct 10 17:24:24 2017, MaxMem=    33554432 cpu:         0.4
 (Enter /usr/local/gaussian/2009-E.01/g09/l202.exe)
                          Input orientation:                          
 ---------------------------------------------------------------------
 Center     Atomic      Atomic             Coordinates (Angstroms)
 Number     Number       Type             X           Y           Z
 ---------------------------------------------------------------------
      1          1           0       -0.882227    0.000000    0.000000
      2          8           0        0.155529    0.000000    0.000000
 ---------------------------------------------------------------------
 Stoichiometry    HO(1+,3)
 Framework group  C*V[C*(HO)]
 Deg. of freedom     1
 Full point group                 C*V     NOp   4
 Largest Abelian subgroup         C2V     NOp   4
 Largest concise Abelian subgroup C1      NOp   1
                         Standard orientation:                         
 ---------------------------------------------------------------------
 Center     Atomic      Atomic             Coordinates (Angstroms)
 Number     Number       Type             X           Y           Z
 ---------------------------------------------------------------------
      1          1           0        0.000000    0.000000   -0.922450
      2          8           0        0.000000    0.000000    0.115306
 ---------------------------------------------------------------------
 Rotational constants (GHZ):      0.0000000    494.9695992    494.9695992
 Leave Link  202 at Tue Oct 10 17:24:24 2017, MaxMem=    33554432 cpu:         0.1
 (Enter /usr/local/gaussian/2009-E.01/g09/l301.exe)
 Standard basis: 6-311++G(d,p) (5D, 7F)
 Ernie: Thresh=  0.10000D-02 Tol=  0.10000D-05 Strict=F.
 There are    17 symmetry adapted cartesian basis functions of A1  symmetry.
 There are     1 symmetry adapted cartesian basis functions of A2  symmetry.
 There are     6 symmetry adapted cartesian basis functions of B1  symmetry.
 There are     6 symmetry adapted cartesian basis functions of B2  symmetry.
 There are    16 symmetry adapted basis functions of A1  symmetry.
 There are     1 symmetry adapted basis functions of A2  symmetry.
 There are     6 symmetry adapted basis functions of B1  symmetry.
 There are     6 symmetry adapted basis functions of B2  symmetry.
    29 basis functions,    45 primitive gaussians,    30 cartesian basis functions
     5 alpha electrons        3 beta electrons
       nuclear repulsion energy         4.0793959936 Hartrees.
 IExCor=    0 DFT=F Ex=HF Corr=None ExCW=0 ScaHFX=  1.000000
 ScaDFX=  1.000000  1.000000  1.000000  1.000000 ScalE2=  1.000000  1.000000
 IRadAn=      0 IRanWt=     -1 IRanGd=            0 ICorTp=0 IEmpDi=  4
 NAtoms=    2 NActive=    2 NUniq=    2 SFac= 1.00D+00 NAtFMM=   60 NAOKFM=F Big=F
 Integral buffers will be    131072 words long.
 Raffenetti 2 integral format.
 Two-electron integral symmetry is turned on.
 Leave Link  301 at Tue Oct 10 17:24:24 2017, MaxMem=    33554432 cpu:         0.4
 (Enter /usr/local/gaussian/2009-E.01/g09/l302.exe)
 NPDir=0 NMtPBC=     1 NCelOv=     1 NCel=       1 NClECP=     1 NCelD=      1
         NCelK=      1 NCelE2=     1 NClLst=     1 CellRange=     0.0.
 One-electron integrals computed using PRISM.
 NBasis=    29 RedAO= T EigKep=  1.74D-02  NBF=    16     1     6     6
 NBsUse=    29 1.00D-06 EigRej= -1.00D+00 NBFU=    16     1     6     6
 Leave Link  302 at Tue Oct 10 17:24:24 2017, MaxMem=    33554432 cpu:         1.6
 (Enter /usr/local/gaussian/2009-E.01/g09/l303.exe)
 DipDrv:  MaxL=1.
 Leave Link  303 at Tue Oct 10 17:24:24 2017, MaxMem=    33554432 cpu:         0.3
 (Enter /usr/local/gaussian/2009-E.01/g09/l401.exe)
 ExpMin= 3.60D-02 ExpMax= 8.59D+03 ExpMxC= 1.30D+03 IAcc=3 IRadAn=         5 AccDes= 0.00D+00
 Harris functional with IExCor=  205 and IRadAn=       5 diagonalized for initial guess.
 HarFok:  IExCor=  205 AccDes= 0.00D+00 IRadAn=         5 IDoV= 1 UseB2=F ITyADJ=14
 ICtDFT=  3500011 ScaDFX=  1.000000  1.000000  1.000000  1.000000
 FoFCou: FMM=F IPFlag=           0 FMFlag=      100000 FMFlg1=           0
         NFxFlg=           0 DoJE=T BraDBF=F KetDBF=T FulRan=T
         wScrn=  0.000000 ICntrl=     500 IOpCl=  0 I1Cent=   200000004 NGrid=           0
         NMat0=    1 NMatS0=      1 NMatT0=    0 NMatD0=    1 NMtDS0=    0 NMtDT0=    0
 Petite list used in FoFCou.
 Harris En= -74.9900362921046    
 JPrj=0 DoOrth=F DoCkMO=F.
 Initial guess orbital symmetries:
 Alpha Orbitals:
       Occupied  (SG) (SG) (SG) (PI) (PI)
       Virtual   (SG) (SG) (PI) (PI) (SG) (SG) (SG) (SG) (PI) (PI)
                 (SG) (PI) (PI) (SG) (SG) (DLTA) (DLTA) (PI) (PI)
                 (SG) (PI) (PI) (SG) (SG)
 Beta  Orbitals:
       Occupied  (SG) (SG) (SG)
       Virtual   (PI) (PI) (SG) (SG) (PI) (PI) (SG) (SG) (SG) (SG)
                 (PI) (PI) (SG) (PI) (PI) (SG) (SG) (DLTA) (DLTA)
                 (PI) (PI) (SG) (PI) (PI) (SG) (SG)
 The electronic state of the initial guess is 3-SG.
 Initial guess <Sx>= 0.0000 <Sy>= 0.0000 <Sz>= 1.0000 <S**2>= 2.0000 S= 1.0000
 Leave Link  401 at Tue Oct 10 17:24:24 2017, MaxMem=    33554432 cpu:         1.4
 (Enter /usr/local/gaussian/2009-E.01/g09/l502.exe)
 UHF open shell SCF:
 Using DIIS extrapolation, IDIIS=  1040.
 Integral symmetry usage will be decided dynamically.
 Keep R1 and R2 ints in memory in symmetry-blocked form, NReq=946977.
 IVT=       21759 IEndB=       21759 NGot=    33554432 MDV=    33474801
 LenX=    33474801 LenY=    33473460
 Requested convergence on RMS density matrix=1.00D-08 within 128 cycles.
 Requested convergence on MAX density matrix=1.00D-06.
 Requested convergence on             energy=1.00D-06.
 No special actions if energy rises.
 FoFCou: FMM=F IPFlag=           0 FMFlag=           0 FMFlg1=           0
         NFxFlg=           0 DoJE=F BraDBF=F KetDBF=F FulRan=T
         wScrn=  0.000000 ICntrl=     600 IOpCl=  0 I1Cent=           0 NGrid=           0
         NMat0=    1 NMatS0=    435 NMatT0=    0 NMatD0=    1 NMtDS0=    0 NMtDT0=    0
 Petite list used in FoFCou.

 Cycle   1  Pass 1  IDiag  1:
 E= -74.9136263815276    
 DIIS: error= 7.26D-02 at cycle   1 NSaved=   1.
 NSaved= 1 IEnMin= 1 EnMin= -74.9136263815276     IErMin= 1 ErrMin= 7.26D-02
 ErrMax= 7.26D-02  0.00D+00 EMaxC= 1.00D-01 BMatC= 5.65D-01 BMatP= 5.65D-01
 IDIUse=3 WtCom= 2.74D-01 WtEn= 7.26D-01
 Coeff-Com:  0.100D+01
 Coeff-En:   0.100D+01
 Coeff:      0.100D+01
 Gap=     1.068 Goal=   None    Shift=    0.000
 Gap=     0.745 Goal=   None    Shift=    0.000
 GapD=    0.745 DampG=2.000 DampE=0.500 DampFc=1.0000 IDamp=-1.
 RMSDP=7.13D-03 MaxDP=1.12D-01              OVMax= 1.18D-01

 Cycle   2  Pass 1  IDiag  1:
 E= -74.9899767944934     Delta-E=       -0.076350412966 Rises=F Damp=F
 DIIS: error= 1.92D-02 at cycle   2 NSaved=   2.
 NSaved= 2 IEnMin= 2 EnMin= -74.9899767944934     IErMin= 2 ErrMin= 1.92D-02
 ErrMax= 1.92D-02  0.00D+00 EMaxC= 1.00D-01 BMatC= 3.92D-02 BMatP= 5.65D-01
 IDIUse=3 WtCom= 8.08D-01 WtEn= 1.92D-01
 Coeff-Com:  0.106D+00 0.894D+00
 Coeff-En:   0.000D+00 0.100D+01
 Coeff:      0.854D-01 0.915D+00
 Gap=     0.989 Goal=   None    Shift=    0.000
 Gap=     0.780 Goal=   None    Shift=    0.000
 RMSDP=2.15D-03 MaxDP=4.74D-02 DE=-7.64D-02 OVMax= 3.14D-02

 Cycle   3  Pass 1  IDiag  1:
 E= -74.9961809464230     Delta-E=       -0.006204151930 Rises=F Damp=F
 DIIS: error= 6.18D-03 at cycle   3 NSaved=   3.
 NSaved= 3 IEnMin= 3 EnMin= -74.9961809464230     IErMin= 3 ErrMin= 6.18D-03
 ErrMax= 6.18D-03  0.00D+00 EMaxC= 1.00D-01 BMatC= 2.21D-03 BMatP= 3.92D-02
 IDIUse=3 WtCom= 9.38D-01 WtEn= 6.18D-02
 Coeff-Com: -0.343D-01 0.288D-01 0.101D+01
 Coeff-En:   0.000D+00 0.000D+00 0.100D+01
 Coeff:     -0.322D-01 0.270D-01 0.101D+01
 Gap=     0.998 Goal=   None    Shift=    0.000
 Gap=     0.769 Goal=   None    Shift=    0.000
 RMSDP=5.74D-04 MaxDP=9.32D-03 DE=-6.20D-03 OVMax= 9.78D-03

 Cycle   4  Pass 1  IDiag  1:
 E= -74.9969526758559     Delta-E=       -0.000771729433 Rises=F Damp=F
 DIIS: error= 2.21D-03 at cycle   4 NSaved=   4.
 NSaved= 4 IEnMin= 4 EnMin= -74.9969526758559     IErMin= 4 ErrMin= 2.21D-03
 ErrMax= 2.21D-03  0.00D+00 EMaxC= 1.00D-01 BMatC= 3.70D-04 BMatP= 2.21D-03
 IDIUse=3 WtCom= 9.78D-01 WtEn= 2.21D-02
 Coeff-Com:  0.150D-01-0.504D-01-0.614D+00 0.165D+01
 Coeff-En:   0.000D+00 0.000D+00 0.000D+00 0.100D+01
 Coeff:      0.146D-01-0.493D-01-0.601D+00 0.164D+01
 Gap=     0.998 Goal=   None    Shift=    0.000
 Gap=     0.767 Goal=   None    Shift=    0.000
 RMSDP=3.97D-04 MaxDP=6.15D-03 DE=-7.72D-04 OVMax= 9.14D-03

 Cycle   5  Pass 1  IDiag  1:
 E= -74.9971877598912     Delta-E=       -0.000235084035 Rises=F Damp=F
 DIIS: error= 7.29D-04 at cycle   5 NSaved=   5.
 NSaved= 5 IEnMin= 5 EnMin= -74.9971877598912     IErMin= 5 ErrMin= 7.29D-04
 ErrMax= 7.29D-04  0.00D+00 EMaxC= 1.00D-01 BMatC= 4.66D-05 BMatP= 3.70D-04
 IDIUse=3 WtCom= 9.93D-01 WtEn= 7.29D-03
 Coeff-Com: -0.488D-02 0.290D-01 0.256D+00-0.964D+00 0.168D+01
 Coeff-En:   0.000D+00 0.000D+00 0.000D+00 0.000D+00 0.100D+01
 Coeff:     -0.485D-02 0.288D-01 0.254D+00-0.956D+00 0.168D+01
 Gap=     1.001 Goal=   None    Shift=    0.000
 Gap=     0.765 Goal=   None    Shift=    0.000
 RMSDP=1.81D-04 MaxDP=2.14D-03 DE=-2.35D-04 OVMax= 4.92D-03

 Cycle   6  Pass 1  IDiag  1:
 E= -74.9972287170188     Delta-E=       -0.000040957128 Rises=F Damp=F
 DIIS: error= 3.08D-04 at cycle   6 NSaved=   6.
 NSaved= 6 IEnMin= 6 EnMin= -74.9972287170188     IErMin= 6 ErrMin= 3.08D-04
 ErrMax= 3.08D-04  0.00D+00 EMaxC= 1.00D-01 BMatC= 6.02D-06 BMatP= 4.66D-05
 IDIUse=3 WtCom= 9.97D-01 WtEn= 3.08D-03
 Coeff-Com:  0.373D-03-0.747D-02-0.440D-01 0.254D+00-0.941D+00 0.174D+01
 Coeff-En:   0.000D+00 0.000D+00 0.000D+00 0.000D+00 0.000D+00 0.100D+01
 Coeff:      0.372D-03-0.744D-02-0.439D-01 0.253D+00-0.938D+00 0.174D+01
 Gap=     1.002 Goal=   None    Shift=    0.000
 Gap=     0.764 Goal=   None    Shift=    0.000
 RMSDP=9.33D-05 MaxDP=1.11D-03 DE=-4.10D-05 OVMax= 2.45D-03

 Cycle   7  Pass 1  IDiag  1:
 E= -74.9972349222372     Delta-E=       -0.000006205218 Rises=F Damp=F
 DIIS: error= 3.63D-05 at cycle   7 NSaved=   7.
 NSaved= 7 IEnMin= 7 EnMin= -74.9972349222372     IErMin= 7 ErrMin= 3.63D-05
 ErrMax= 3.63D-05  0.00D+00 EMaxC= 1.00D-01 BMatC= 1.22D-07 BMatP= 6.02D-06
 IDIUse=1 WtCom= 1.00D+00 WtEn= 0.00D+00
 Coeff-Com:  0.498D-04 0.276D-03 0.247D-02-0.247D-01 0.157D+00-0.457D+00
 Coeff-Com:  0.132D+01
 Coeff:      0.498D-04 0.276D-03 0.247D-02-0.247D-01 0.157D+00-0.457D+00
 Coeff:      0.132D+01
 Gap=     1.002 Goal=   None    Shift=    0.000
 Gap=     0.764 Goal=   None    Shift=    0.000
 RMSDP=1.25D-05 MaxDP=1.50D-04 DE=-6.21D-06 OVMax= 3.25D-04

 Cycle   8  Pass 1  IDiag  1:
 E= -74.9972350116656     Delta-E=       -0.000000089428 Rises=F Damp=F
 DIIS: error= 3.66D-06 at cycle   8 NSaved=   8.
 NSaved= 8 IEnMin= 8 EnMin= -74.9972350116656     IErMin= 8 ErrMin= 3.66D-06
 ErrMax= 3.66D-06  0.00D+00 EMaxC= 1.00D-01 BMatC= 1.45D-09 BMatP= 1.22D-07
 IDIUse=1 WtCom= 1.00D+00 WtEn= 0.00D+00
 Coeff-Com: -0.325D-04 0.126D-03 0.669D-03 0.375D-03-0.242D-01 0.989D-01
 Coeff-Com: -0.379D+00 0.130D+01
 Coeff:     -0.325D-04 0.126D-03 0.669D-03 0.375D-03-0.242D-01 0.989D-01
 Coeff:     -0.379D+00 0.130D+01
 Gap=     1.002 Goal=   None    Shift=    0.000
 Gap=     0.764 Goal=   None    Shift=    0.000
 RMSDP=7.42D-07 MaxDP=9.09D-06 DE=-8.94D-08 OVMax= 1.45D-05

 Cycle   9  Pass 1  IDiag  1:
 E= -74.9972350122368     Delta-E=       -0.000000000571 Rises=F Damp=F
 DIIS: error= 9.20D-07 at cycle   9 NSaved=   9.
 NSaved= 9 IEnMin= 9 EnMin= -74.9972350122368     IErMin= 9 ErrMin= 9.20D-07
 ErrMax= 9.20D-07  0.00D+00 EMaxC= 1.00D-01 BMatC= 5.68D-11 BMatP= 1.45D-09
 IDIUse=1 WtCom= 1.00D+00 WtEn= 0.00D+00
 Coeff-Com:  0.664D-05-0.419D-04-0.239D-03 0.566D-03 0.234D-02-0.142D-01
 Coeff-Com:  0.677D-01-0.385D+00 0.133D+01
 Coeff:      0.664D-05-0.419D-04-0.239D-03 0.566D-03 0.234D-02-0.142D-01
 Coeff:      0.677D-01-0.385D+00 0.133D+01
 Gap=     1.002 Goal=   None    Shift=    0.000
 Gap=     0.764 Goal=   None    Shift=    0.000
 RMSDP=1.57D-07 MaxDP=1.65D-06 DE=-5.71D-10 OVMax= 4.14D-06

 Cycle  10  Pass 1  IDiag  1:
 E= -74.9972350122624     Delta-E=       -0.000000000026 Rises=F Damp=F
 DIIS: error= 1.47D-07 at cycle  10 NSaved=  10.
 NSaved=10 IEnMin=10 EnMin= -74.9972350122624     IErMin=10 ErrMin= 1.47D-07
 ErrMax= 1.47D-07  0.00D+00 EMaxC= 1.00D-01 BMatC= 1.99D-12 BMatP= 5.68D-11
 IDIUse=1 WtCom= 1.00D+00 WtEn= 0.00D+00
 Coeff-Com: -0.113D-05 0.725D-05 0.617D-04-0.196D-03 0.335D-04 0.126D-02
 Coeff-Com: -0.915D-02 0.786D-01-0.424D+00 0.135D+01
 Coeff:     -0.113D-05 0.725D-05 0.617D-04-0.196D-03 0.335D-04 0.126D-02
 Coeff:     -0.915D-02 0.786D-01-0.424D+00 0.135D+01
 Gap=     1.002 Goal=   None    Shift=    0.000
 Gap=     0.764 Goal=   None    Shift=    0.000
 RMSDP=2.85D-08 MaxDP=3.50D-07 DE=-2.56D-11 OVMax= 5.11D-07

 Cycle  11  Pass 1  IDiag  1:
 E= -74.9972350122632     Delta-E=       -0.000000000001 Rises=F Damp=F
 DIIS: error= 2.02D-08 at cycle  11 NSaved=  11.
 NSaved=11 IEnMin=11 EnMin= -74.9972350122632     IErMin=11 ErrMin= 2.02D-08
 ErrMax= 2.02D-08  0.00D+00 EMaxC= 1.00D-01 BMatC= 4.26D-14 BMatP= 1.99D-12
 IDIUse=1 WtCom= 1.00D+00 WtEn= 0.00D+00
 Coeff-Com:  0.120D-06-0.249D-06-0.980D-05 0.295D-04-0.469D-04-0.113D-04
 Coeff-Com:  0.654D-03-0.814D-02 0.601D-01-0.299D+00 0.125D+01
 Coeff:      0.120D-06-0.249D-06-0.980D-05 0.295D-04-0.469D-04-0.113D-04
 Coeff:      0.654D-03-0.814D-02 0.601D-01-0.299D+00 0.125D+01
 Gap=     1.002 Goal=   None    Shift=    0.000
 Gap=     0.764 Goal=   None    Shift=    0.000
 RMSDP=4.14D-09 MaxDP=5.66D-08 DE=-7.96D-13 OVMax= 9.82D-08

 SCF Done:  E(UHF) =  -74.9972350123     A.U. after   11 cycles
            NFock= 11  Conv=0.41D-08     -V/T= 2.0004
 <Sx>= 0.0000 <Sy>= 0.0000 <Sz>= 1.0000 <S**2>= 2.0144 S= 1.0048
 <L.S>= 0.000000000000E+00
 KE= 7.496660776884D+01 PE=-1.823765915219D+02 EE= 2.833335274716D+01
 Annihilation of the first spin contaminant:
 S**2 before annihilation     2.0144,   after     2.0001
 Leave Link  502 at Tue Oct 10 17:24:25 2017, MaxMem=    33554432 cpu:         1.2
 (Enter /usr/local/gaussian/2009-E.01/g09/l801.exe)
 Windowed orbitals will be sorted by symmetry type.
 ExpMin= 3.60D-02 ExpMax= 8.59D+03 ExpMxC= 1.30D+03 IAcc=3 IRadAn=         5 AccDes= 0.00D+00
 HarFok:  IExCor=  205 AccDes= 0.00D+00 IRadAn=         5 IDoV=-2 UseB2=F ITyADJ=14
 ICtDFT= 12500011 ScaDFX=  1.000000  1.000000  1.000000  1.000000
 Largest valence mixing into a core orbital is  2.74D-05
 Largest core mixing into a valence orbital is  5.22D-06
 Largest valence mixing into a core orbital is  9.33D-05
 Largest core mixing into a valence orbital is  3.61D-05
 Range of M.O.s used for correlation:     2    29
 NBasis=    29 NAE=     5 NBE=     3 NFC=     1 NFV=     0
 NROrb=     28 NOA=     4 NOB=     2 NVA=    24 NVB=    26
 Leave Link  801 at Tue Oct 10 17:24:25 2017, MaxMem=    33554432 cpu:         0.3
 (Enter /usr/local/gaussian/2009-E.01/g09/l804.exe)
 Open-shell transformation, MDV=    33554432 ITran=4 ISComp=2.
 Semi-Direct transformation.
 ModeAB=           2 MOrb=             4 LenV=      33376951
 LASXX=        10504 LTotXX=       10504 LenRXX=       10504
 LTotAB=       12338 MaxLAS=       52080 LenRXY=       52080
 NonZer=       56784 LenScr=      785920 LnRSAI=           0
 LnScr1=           0 LExtra=           0 Total=       848504
 MaxDsk=          -1 SrtSym=           F ITran=            4
 DoSDTr:  NPSUse=  8
 JobTyp=1 Pass  1:  I=   1 to   4.
 (rs|ai) integrals will be sorted in core.
 Complete sort for first half transformation.
 First half transformation complete.
 Complete sort for second half transformation.
 Second half transformation complete.
 ModeAB=           2 MOrb=             2 LenV=      33376951
 LASXX=         6025 LTotXX=        6025 LenRXX=       26040
 LTotAB=        5294 MaxLAS=       26040 LenRXY=        5294
 NonZer=       28392 LenScr=      785920 LnRSAI=           0
 LnScr1=           0 LExtra=           0 Total=       817254
 MaxDsk=          -1 SrtSym=           F ITran=            4
 DoSDTr:  NPSUse=  8
 JobTyp=2 Pass  1:  I=   1 to   2.
 (rs|ai) integrals will be sorted in core.
 Complete sort for first half transformation.
 First half transformation complete.
 Complete sort for second half transformation.
 Second half transformation complete.
 Spin components of T(2) and E(2):
     alpha-alpha T2 =       0.4770489516D-02 E2=     -0.2566913184D-01
     alpha-beta  T2 =       0.1930406663D-01 E2=     -0.8917089167D-01
     beta-beta   T2 =       0.7337831941D-03 E2=     -0.3291537333D-02
 ANorm=    0.1012328178D+01
 E2 =    -0.1181315608D+00 EUMP2 =    -0.75115366573107D+02
 (S**2,0)=  0.20144D+01           (S**2,1)=  0.20044D+01
 E(PUHF)=      -0.75001308615D+02        E(PMP2)=      -0.75118025845D+02
 Leave Link  804 at Tue Oct 10 17:24:25 2017, MaxMem=    33554432 cpu:         1.4
 (Enter /usr/local/gaussian/2009-E.01/g09/l913.exe)
 CIDS:  MDV=    33554432.
 Frozen-core window:  NFC=   1 NFV=   0.
 IFCWin=0 IBDFC=1 NFBD=     0     0 NFCmp=     0     0 NFFFC=     0     0
 Using original routines for 1st iteration, S=T.
 Using DD4UQ or CC4UQ for 2nd and later iterations.
 Keep R2 and R3 ints in memory in symmetry-blocked form, NReq=917995.
 FoFCou: FMM=F IPFlag=           0 FMFlag=           0 FMFlg1=           0
         NFxFlg=           0 DoJE=F BraDBF=F KetDBF=F FulRan=T
         wScrn=  0.000000 ICntrl=     600 IOpCl=  0 I1Cent=           0 NGrid=           0
         NMat0=    1 NMatS0=    435 NMatT0=    0 NMatD0=    1 NMtDS0=    0 NMtDT0=    0
 Petite list used in FoFCou.
 CCSD(T)
 =======
 Iterations= 200 Convergence= 0.100D-06
 Iteration Nr.   1
 **********************
 DD1Dir will call FoFMem   1 times, MxPair=        24
 NAB=     8 NAA=     6 NBB=     1.
 E(PMP3)=      -0.75131482581D+02
 MP4(R+Q)=  0.14094303D-02
 Maximum subspace dimension=  5
 Norm of the A-vectors is  8.3530550D-02 conv= 1.00D-05.
 RLE energy=       -0.1328334469
 E3=       -0.14487526D-01        EUMP3=      -0.75129854099D+02
 E4(DQ)=   -0.16413610D-02        UMP4(DQ)=   -0.75131495460D+02
 E4(SDQ)=  -0.22560756D-02        UMP4(SDQ)=  -0.75132110174D+02
 VARIATIONAL ENERGIES WITH THE FIRST-ORDER WAVEFUNCTION:
 DE(Corr)= -0.13120626     E(Corr)=     -75.128441268    
 NORM(A)=   0.10163050D+01
 Iteration Nr.   2
 **********************
 DD1Dir will call FoFMem   1 times, MxPair=        24
 NAB=     8 NAA=     6 NBB=     1.
 Norm of the A-vectors is  2.8788132D-02 conv= 1.00D-05.
 RLE energy=       -0.1355434540
 DE(Corr)= -0.13457870     E(CORR)=     -75.131813708     Delta=-3.37D-03
 NORM(A)=   0.10177288D+01
 Iteration Nr.   3
 **********************
 DD1Dir will call FoFMem   1 times, MxPair=        24
 NAB=     8 NAA=     6 NBB=     1.
 Norm of the A-vectors is  1.0018054D-02 conv= 1.00D-05.
 RLE energy=       -0.1358793796
 DE(Corr)= -0.13558139     E(CORR)=     -75.132816406     Delta=-1.00D-03
 NORM(A)=   0.10181717D+01
 Iteration Nr.   4
 **********************
 DD1Dir will call FoFMem   1 times, MxPair=        24
 NAB=     8 NAA=     6 NBB=     1.
 Norm of the A-vectors is  4.4675962D-03 conv= 1.00D-05.
 RLE energy=       -0.1359552719
 DE(Corr)= -0.13588866     E(CORR)=     -75.133123671     Delta=-3.07D-04
 NORM(A)=   0.10183185D+01
 Iteration Nr.   5
 **********************
 DD1Dir will call FoFMem   1 times, MxPair=        24
 NAB=     8 NAA=     6 NBB=     1.
 Norm of the A-vectors is  1.6902584D-03 conv= 1.00D-05.
 RLE energy=       -0.1359501238
 DE(Corr)= -0.13594525     E(CORR)=     -75.133180257     Delta=-5.66D-05
 NORM(A)=   0.10183371D+01
 Iteration Nr.   6
 **********************
 DD1Dir will call FoFMem   1 times, MxPair=        24
 NAB=     8 NAA=     6 NBB=     1.
 Norm of the A-vectors is  5.4943925D-04 conv= 1.00D-05.
 RLE energy=       -0.1359546936
 DE(Corr)= -0.13595292     E(CORR)=     -75.133187932     Delta=-7.67D-06
 NORM(A)=   0.10183408D+01
 Iteration Nr.   7
 **********************
 DD1Dir will call FoFMem   1 times, MxPair=        24
 NAB=     8 NAA=     6 NBB=     1.
 Norm of the A-vectors is  1.7506969D-04 conv= 1.00D-05.
 RLE energy=       -0.1359558384
 DE(Corr)= -0.13595447     E(CORR)=     -75.133189478     Delta=-1.55D-06
 NORM(A)=   0.10183423D+01
 Iteration Nr.   8
 **********************
 DD1Dir will call FoFMem   1 times, MxPair=        24
 NAB=     8 NAA=     6 NBB=     1.
 Norm of the A-vectors is  6.0541774D-05 conv= 1.00D-05.
 RLE energy=       -0.1359550329
 DE(Corr)= -0.13595497     E(CORR)=     -75.133189982     Delta=-5.04D-07
 NORM(A)=   0.10183425D+01
 Iteration Nr.   9
 **********************
 DD1Dir will call FoFMem   1 times, MxPair=        24
 NAB=     8 NAA=     6 NBB=     1.
 Norm of the A-vectors is  1.6161984D-05 conv= 1.00D-05.
 RLE energy=       -0.1359547057
 DE(Corr)= -0.13595479     E(CORR)=     -75.133189802     Delta= 1.80D-07
 NORM(A)=   0.10183424D+01
 Iteration Nr.  10
 **********************
 DD1Dir will call FoFMem   1 times, MxPair=        24
 NAB=     8 NAA=     6 NBB=     1.
 Norm of the A-vectors is  5.9574809D-06 conv= 1.00D-05.
 RLE energy=       -0.1359545848
 DE(Corr)= -0.13595465     E(CORR)=     -75.133189659     Delta= 1.43D-07
 NORM(A)=   0.10183423D+01
 Iteration Nr.  11
 **********************
 DD1Dir will call FoFMem   1 times, MxPair=        24
 NAB=     8 NAA=     6 NBB=     1.
 Norm of the A-vectors is  2.2108902D-06 conv= 1.00D-05.
 RLE energy=       -0.1359545500
 DE(Corr)= -0.13595457     E(CORR)=     -75.133189587     Delta= 7.22D-08
 NORM(A)=   0.10183422D+01
 CI/CC converged in   11 iterations to DelEn= 7.22D-08 Conv= 1.00D-07 ErrA1= 2.21D-06 Conv= 1.00D-05
 Largest amplitude= 2.55D-02
 Time for triples=        2.22 seconds.
 T4(CCSD)= -0.18553366D-02
 T5(CCSD)=  0.54967836D-04
 CCSD(T)= -0.75134989956D+02

 S**2, projected HF & approx projected MPn energies after annihilation of
 unwanted spin states (see manual for definitions):

 spins       (S**2,0) (S**2,1)    PUHF        PMP2        PMP3        PMP4
 annihilated
 s+1         1.99997  2.00002  -75.001309  -75.118026  -75.131482
 s+1,s+2     2.00000  2.00000  -75.001300  -75.118018  -75.131476

 Discarding MO integrals.
 Leave Link  913 at Tue Oct 10 17:24:27 2017, MaxMem=    33554432 cpu:        18.4
 (Enter /usr/local/gaussian/2009-E.01/g09/l601.exe)
 Copying SCF densities to generalized density rwf, IOpCl= 1 IROHF=0.

 **********************************************************************

            Population analysis using the SCF density.

 **********************************************************************

 Orbital symmetries:
 Alpha Orbitals:
       Occupied  (SG) (SG) (PI) (PI) (SG)
       Virtual   (SG) (SG) (PI) (PI) (SG) (SG) (SG) (PI) (PI) (SG)
                 (SG) (PI) (PI) (SG) (SG) (DLTA) (DLTA) (PI) (PI)
                 (SG) (PI) (PI) (SG) (SG)
 Beta  Orbitals:
       Occupied  (SG) (SG) (SG)
       Virtual   (PI) (PI) (SG) (SG) (SG) (PI) (PI) (SG) (SG) (SG)
                 (PI) (PI) (PI) (PI) (SG) (SG) (SG) (DLTA) (DLTA)
                 (PI) (PI) (SG) (PI) (PI) (SG) (SG)
 The electronic state is 3-SG.
 Alpha  occ. eigenvalues --  -21.25408  -1.96525  -1.21332  -1.21332  -1.20061
 Alpha virt. eigenvalues --   -0.19883  -0.05892  -0.03443  -0.03443  -0.00967
 Alpha virt. eigenvalues --    0.04949   0.29740   0.74939   0.74939   0.79690
 Alpha virt. eigenvalues --    1.09962   1.13085   1.13085   1.73822   2.37284
 Alpha virt. eigenvalues --    2.50208   2.50208   2.82476   2.82476   3.58787
 Alpha virt. eigenvalues --    4.81803   4.81803   5.27109  50.81889
  Beta  occ. eigenvalues --  -21.16418  -1.62872  -1.10379
  Beta virt. eigenvalues --   -0.33950  -0.33950  -0.18214  -0.04927   0.00017
  Beta virt. eigenvalues --    0.01423   0.01423   0.05739   0.30850   0.83058
  Beta virt. eigenvalues --    0.89954   0.89954   1.14988   1.14988   1.17974
  Beta virt. eigenvalues --    1.77383   2.36768   2.76330   2.76330   2.95967
  Beta virt. eigenvalues --    2.95967   3.66703   4.99087   4.99087   5.32501
  Beta virt. eigenvalues --   50.87044
          Condensed to atoms (all electrons):
               1          2
     1  H    0.304524   0.290136
     2  O    0.290136   7.115205
          Atomic-Atomic Spin Densities.
               1          2
     1  H   -0.071599  -0.021644
     2  O   -0.021644   2.114887
 Mulliken charges and spin densities:
               1          2
     1  H    0.405341  -0.093243
     2  O    0.594659   2.093243
 Sum of Mulliken charges =   1.00000   2.00000
 Mulliken charges and spin densities with hydrogens summed into heavy atoms:
               1          2
     2  O    1.000000   2.000000
 Electronic spatial extent (au):  <R**2>=             11.0903
 Charge=              1.0000 electrons
 Dipole moment (field-independent basis, Debye):
    X=              0.0000    Y=              0.0000    Z=             -2.2108  Tot=              2.2108
 Quadrupole moment (field-independent basis, Debye-Ang):
   XX=             -4.0373   YY=             -4.0373   ZZ=             -2.2442
   XY=              0.0000   XZ=              0.0000   YZ=              0.0000
 Traceless Quadrupole moment (field-independent basis, Debye-Ang):
   XX=             -0.5977   YY=             -0.5977   ZZ=              1.1954
   XY=              0.0000   XZ=              0.0000   YZ=              0.0000
 Octapole moment (field-independent basis, Debye-Ang**2):
  XXX=              0.0000  YYY=              0.0000  ZZZ=             -3.2249  XYY=              0.0000
  XXY=              0.0000  XXZ=             -0.2025  XZZ=              0.0000  YZZ=              0.0000
  YYZ=             -0.2025  XYZ=              0.0000
 Hexadecapole moment (field-independent basis, Debye-Ang**3):
 XXXX=             -2.1737 YYYY=             -2.1737 ZZZZ=             -1.9742 XXXY=              0.0000
 XXXZ=              0.0000 YYYX=              0.0000 YYYZ=              0.0000 ZZZX=              0.0000
 ZZZY=              0.0000 XXYY=             -0.7246 XXZZ=             -1.1197 YYZZ=             -1.1197
 XXYZ=              0.0000 YYXZ=              0.0000 ZZXY=              0.0000
 N-N= 4.079395993586D+00 E-N=-1.823765916723D+02  KE= 7.496660776884D+01
 Symmetry A1   KE= 6.921043699232D+01
 Symmetry A2   KE= 2.221982621815D-51
 Symmetry B1   KE= 2.878085388261D+00
 Symmetry B2   KE= 2.878085388261D+00
 Leave Link  601 at Tue Oct 10 17:24:27 2017, MaxMem=    33554432 cpu:         0.1
 (Enter /usr/local/gaussian/2009-E.01/g09/l9999.exe)
 1\1\ WCSS.PL-BEM-WN1424\SP\UCCSD(T)-FC\6-311++G(d,p)\H1O1(1+,3)\ROOT\1
 0-Oct-2017\0\\#p ccsd(t,maxcyc=200)/6-311++G(d,p)\\ccsd(t) iener\\1,3\
 H,0,-0.882227,0.,0.\O,0,0.155529,0.,0.\\Version=ES64L-G09RevE.01\State
 =3-SG\HF=-74.997235\MP2=-75.1153666\MP3=-75.1298541\MP4D=-75.1329049\M
 P4DQ=-75.1314955\PUHF=-75.0013086\PMP2-0=-75.1180258\PMP3-0=-75.131482
 6\MP4SDQ=-75.1321102\CCSD=-75.1331896\CCSD(T)=-75.13499\S2=2.014416\S2
 -1=2.004381\S2A=2.000052\RMSD=4.142e-09\PG=C*V [C*(H1O1)]\\@


 CHARLIE BROWN -- WHICH DO YOU THINK LASTS LONGER IN LIFE, THE GOOD THINGS 
                  OR THE BAD THINGS?
 LINUS --         GOOD THINGS LAST EIGHT SECONDS ..
                  BAD THINGS LAST THREE WEEKS
 CHARLIE BROWN -- WHAT ABOUT IN BETWEEN?
 SNOOPY --        IN BETWEEN YOU SHOULD TAKE A NAP ...
 Job cpu time:       0 days  0 hours  0 minutes 26.5 seconds.
 File lengths (MBytes):  RWF=     13 Int=      0 D2E=      0 Chk=      1 Scr=      1
 Normal termination of Gaussian 09 at Tue Oct 10 17:24:27 2017.
