4
Energy =   -168.759919956     
    N   -0.124173    0.000000   -0.663596
    C   -0.013720   -0.000000   -1.909399
    C   -0.115933   -0.000000    1.931479
    C    0.203827    0.000000    0.535160

FREQUENCIES 6
-280.0310
220.9160
327.5157
760.3364
1241.2027
1726.7249

SYMMETRY CS
ELECTRONIC_STATE 4-A"
