4
Energy =   -168.376376851     
    N    0.251299   -0.107115   -0.784371
    C    1.306676    0.905246   -1.127582
    C    1.708621   -0.420473   -0.967945
    C   -0.918793   -0.432622   -0.538893

FREQUENCIES 6
-861.0417
272.4682
280.7605
736.9096
1287.3865
1653.6567

SYMMETRY C1
ELECTRONIC_STATE 3-A
