4
Energy =   -168.432951708     
    N   -0.010291    0.000001   -0.676132
    C   -0.005761   -0.000001   -1.913295
    C   -0.019293   -0.000000    1.925307
    C   -0.014654   -0.000000    0.557764

FREQUENCIES 7
-66.3257
149.9060
187.6393
396.8757
924.9009
1570.1344
2073.0951

SYMMETRY C*V
ELECTRONIC_STATE ??
