4
Energy =   -168.369918925     
    N    0.297204   -0.094289   -0.793962
    C    1.258179    0.940511   -1.125696
    C    1.687647   -0.475155   -0.955269
    C   -0.895228   -0.426032   -0.543863

FREQUENCIES 6
-181.4930
198.5910
511.2823
784.3098
1070.1618
1568.8231

SYMMETRY C2V
ELECTRONIC_STATE 1-A1
