4
Energy =   -168.759314300     
    N   -0.010320   -0.000000   -0.655796
    C   -0.005643    0.000000   -1.950963
    C   -0.019378   -0.000000    1.954108
    C   -0.014658    0.000000    0.546295

FREQUENCIES 7
-78.7553
116.4149
187.3593
278.8982
835.6888
1033.4661
2080.5215

SYMMETRY C*V
ELECTRONIC_STATE ??
