4
Energy =   -168.870190340     
    N   -0.010222    0.000000   -0.691308
    C   -0.005884   -0.000000   -1.882067
    C   -0.019132    0.000000    1.876799
    C   -0.014761   -0.000000    0.590220

FREQUENCIES 7
-533.4709
216.4495
238.8054
439.3866
950.4609
1869.6845
2118.5538

SYMMETRY C*V
ELECTRONIC_STATE ??
