4
Energy =   -168.785166413     
    C   -0.296722    0.621067   -0.594007
    C    0.331316   -0.827825    0.177845
    N   -0.937443   -0.308404    0.183674
    C    0.902854    0.515148    0.232494

FREQUENCIES 6
-393.3237
624.8352
780.5000
781.4677
1142.4823
1368.7095

SYMMETRY C1
ELECTRONIC_STATE 2-A
