4
Energy =   -168.790356089     
    N    0.230094   -0.112940   -0.779889
    C    1.316330    0.893881   -1.127235
    C    1.710626   -0.405957   -0.970746
    C   -0.909249   -0.429949   -0.540921

FREQUENCIES 6
-312.5601
304.1882
342.5212
676.8314
1406.0767
1802.5332

SYMMETRY CS
ELECTRONIC_STATE 2-A"
