4
Energy =   -167.684683284     
    N    0.333219   -0.084236   -0.800991
    C    1.251739    0.973826   -1.130448
    C    1.700801   -0.506606   -0.952216
    C   -0.937958   -0.437949   -0.535136

FREQUENCIES 6
-700.2279
258.4314
307.6326
659.3862
965.1647
1246.9167

SYMMETRY C1
ELECTRONIC_STATE 2-A
