4
Energy =   -168.788584635     
    C    0.000000   -0.031239   -0.711472
    N    0.000000   -0.055805   -1.942859
    C   -0.000000    0.022703    1.992970
    C   -0.000000   -0.005658    0.560713

FREQUENCIES 7
-173.5059
65.2557
265.9221
373.0567
773.5512
1264.4895
1928.5531

SYMMETRY C*V
ELECTRONIC_STATE ??
