4
Energy =   -168.776077687     
    N   -0.718113   -0.381880    0.220633
    C   -0.269702   -0.194168   -1.113497
    C    0.424515    0.685612   -0.217296
    C    0.488783   -0.165680    0.936190

FREQUENCIES 6
-328.5313
523.1595
651.1999
853.0063
1263.7743
1288.4199

SYMMETRY C1
ELECTRONIC_STATE 2-A
