4
Energy =   -167.784281383     
    N   -0.010488    0.000000   -0.637580
    C   -0.005681   -0.000000   -1.931769
    C   -0.019200   -0.000000    1.890660
    C   -0.014630    0.000000    0.572333

FREQUENCIES 7
-93.1958
-93.1958
442.4703
442.4703
972.7440
1488.5877
2138.4261

SYMMETRY C*V
ELECTRONIC_STATE 4-SG
