4
Energy =   -168.464799626     
    N   -0.010012    0.000000   -0.678521
    C   -0.005872   -0.000000   -1.909142
    C   -0.019206   -0.000000    1.921828
    C   -0.014909    0.000000    0.559480

FREQUENCIES 7
-336.1869
-336.1869
183.7457
183.7457
925.7669
1602.1643
2066.3610

SYMMETRY C*V
ELECTRONIC_STATE 3-SG
