5
Energy =   -206.850635930     
    N    0.722808   -0.714125    0.127132
    C   -0.196076    0.144830   -0.018569
    C   -0.770276    1.511324    0.088812
    C   -1.553753    0.584707   -0.432960
    C    1.601126   -1.535023    0.266404

FREQUENCIES 9
-323.7334
160.4160
257.0070
310.9853
471.2325
703.8893
1445.8426
1626.1722
1793.7440

SYMMETRY CS
ELECTRONIC_STATE 4-A"
