5
Energy =   -206.582066763     
    N    0.700082   -0.692905    0.123481
    C   -0.222807    0.169899   -0.022966
    C   -0.744649    1.464007    0.087345
    C   -1.506089    0.563465   -0.419748
    C    1.577293   -1.512753    0.262705

FREQUENCIES 9
-239.7189
147.7304
151.4612
522.3669
554.0779
818.0085
1599.3109
1748.4421
2075.1682

SYMMETRY CS
ELECTRONIC_STATE 1-A'
