5
Energy =   -206.399987882     
    N    0.042871   -0.885111   -0.057732
    C    0.908005    0.106508   -0.800816
    C   -0.076125    0.867459    0.017243
    C   -1.158812   -0.049344   -0.434118
    C    0.197642   -0.039403    1.174435

FREQUENCIES 9
-207.5147
-188.5211
597.5028
600.0540
694.5289
822.0602
966.2350
971.7081
1190.8509

SYMMETRY C1
ELECTRONIC_STATE 1-A
