5
Energy =   -206.592590720     
    C   -1.050125    1.285599    0.248877
    C   -1.521454    0.176720    0.694279
    C   -0.254589    0.151693    0.120134
    N    1.860487   -1.036652   -0.600665
    C    0.890242   -0.491589   -0.270005

FREQUENCIES 9
-234.6847
209.4635
225.7565
557.1816
573.5319
752.7399
1571.8243
1749.5217
2307.9336

SYMMETRY C2V
ELECTRONIC_STATE 1-A1
