5
Energy =   -206.394731390     
    N    0.934520    0.291616   -0.251211
    C    0.330338   -0.969653    0.312970
    C   -0.297517    0.171650    0.921875
    C   -0.543095   -0.433944   -0.696042
    C   -0.424299    0.940315   -0.287577

FREQUENCIES 9
-351.7713
308.5356
400.9708
700.1484
899.2906
903.7436
917.9795
1333.0610
1339.1340

SYMMETRY C1
ELECTRONIC_STATE 3-A
