5
Energy =   -206.895341967     
    C    0.323134    1.632259   -0.002624
    C   -0.021386    0.184666    0.006254
    C    0.272095   -1.110508    0.005040
    N    0.533416   -2.261405    0.005734
    C   -0.956009    1.344470    0.002896

FREQUENCIES 9
-117.4273
196.3354
377.2396
417.1627
554.1541
683.0235
1397.9770
1657.1421
2002.2589

SYMMETRY C1
ELECTRONIC_STATE 4-A
