5
Energy =   -206.491260528     
    N    1.389805   -0.173423   -0.215657
    C    0.127439   -0.584220    0.179049
    C    0.702892    0.838653   -0.552922
    C   -0.875803    0.582978    0.022847
    C   -1.189423   -0.651570    0.435910

FREQUENCIES 9
-65.8833
381.6099
483.1431
516.3668
799.0106
866.1770
1302.0444
1522.6703
1685.3195

SYMMETRY C1
ELECTRONIC_STATE 3-A
