5
Energy =   -206.895342431     
    C   -1.085805    1.320089    0.258055
    C   -1.567066    0.187922    0.712826
    C   -0.209809    0.126486    0.104848
    N    1.886857   -1.051468   -0.609637
    C    0.900385   -0.497258   -0.273472

FREQUENCIES 9
-117.6489
197.2158
378.1939
417.3380
554.8572
683.1267
1397.0584
1655.3104
2000.7845

SYMMETRY C2V
ELECTRONIC_STATE 4-A2
