5
Energy =   -206.782169741     
    N   -0.049688   -1.128112   -0.018911
    C    0.672801    0.126098   -0.589569
    C   -0.143871    1.161259    0.023337
    C   -0.890260   -0.084634   -0.434625
    C    0.324730   -0.074671    0.918751

FREQUENCIES 9
-93.8138
244.7713
395.6715
443.2527
755.2909
837.7854
900.8258
1190.7449
1260.6549

SYMMETRY C1
ELECTRONIC_STATE 2-A
