6
Energy =   -244.595683792     
    N   -0.275437    0.009386   -0.311096
    C   -1.977260    0.065557   -2.231166
    C    1.672054    0.485394    1.329637
    C    1.103152   -0.577704    1.802227
    C   -1.079293    0.035297   -1.217407
    C    0.556808   -0.017950    0.627786

FREQUENCIES 12
-173.6310
91.3708
103.0743
209.8499
467.3165
484.5142
678.5953
791.5271
1176.4504
1566.4549
1746.4667
2052.0072

SYMMETRY CS
ELECTRONIC_STATE 3-A"
