6
Energy =   -244.580130026     
    N   -0.276027    0.009982   -0.312327
    C   -1.974406    0.064602   -2.227084
    C    1.678458    0.500549    1.321017
    C    1.092779   -0.593404    1.807035
    C   -1.076800    0.035833   -1.215220
    C    0.556020   -0.017583    0.626560

FREQUENCIES 12
-39.2225
107.9565
252.4880
265.1453
396.4241
503.4094
563.6388
673.8513
1166.0039
1441.0885
1681.6041
2075.1552

SYMMETRY CS
ELECTRONIC_STATE 1-A'
