6
Energy =   -245.100587481     
    N   -2.254424    1.975222    0.800044
    C    0.479204   -0.390108   -0.173450
    C   -0.423479    0.390367    0.147969
    C    1.437230   -1.218853   -0.514482
    C    2.376044   -2.030511   -0.849823
    C   -1.405090    1.239749    0.497561

FREQUENCIES 13
-88.9432
104.9004
139.5073
239.1865
400.9590
493.6679
560.0143
569.9798
639.1855
1207.1489
1907.4379
2110.6497
2215.5239

SYMMETRY C*V
ELECTRONIC_STATE ??
