6
Energy =   -244.971689072     
    N    0.000000    0.000000    1.912070
    C    0.000000   -0.000000    0.681928
    C    0.000000   -0.000000   -0.623719
    C    0.000000   -0.000000   -1.882871
    C   -0.000000    0.000000   -3.234710
    C   -0.000000    0.000000    3.147302

FREQUENCIES 13
-174.0948
73.9444
100.5715
201.8290
284.6273
320.6684
373.9707
467.0306
651.0300
1112.3403
1516.6721
1701.1926
2150.3106

SYMMETRY C*V
ELECTRONIC_STATE ??
