6
Energy =   -244.474082140     
    N   -0.262961    0.264460   -0.081541
    C   -1.577010   -0.036885   -0.155487
    C   -0.073276   -2.311823    0.355774
    C   -0.528925   -1.066474    0.110359
    C    1.592155    1.967966   -0.185350
    C    0.710356    1.141180   -0.133276

FREQUENCIES 12
-493.9452
-407.9811
190.8988
286.0388
431.0106
506.9122
559.4016
781.0297
821.7448
1244.6872
1565.9859
2277.5030

SYMMETRY CS
ELECTRONIC_STATE 3-A"
