6
Energy =   -245.061170399     
    N    0.000000    0.000000    1.925418
    C   -0.000000    0.000000    0.642695
    C   -0.000000    0.000000   -0.587985
    C    0.000000   -0.000000   -1.904335
    C    0.000000   -0.000000   -3.188440
    C    0.000000   -0.000000    3.112647

FREQUENCIES 13
-70.7176
113.8914
150.3808
238.8258
331.5209
400.7721
509.2046
518.6586
662.2414
1244.9768
1909.9287
2097.2464
2171.2668

SYMMETRY C*V
ELECTRONIC_STATE ??
