6
Energy =   -244.971689095     
    N    0.000000    0.000000    1.911830
    C    0.000000    0.000000    0.681863
    C    0.000000    0.000000   -0.623488
    C    0.000000   -0.000000   -1.882632
    C   -0.000000   -0.000000   -3.234611
    C   -0.000000   -0.000000    3.147038

FREQUENCIES 13
-174.9842
73.6443
100.6197
201.6522
284.3636
320.8075
373.7254
466.7334
651.2873
1111.9940
1517.1143
1701.8867
2151.1427

SYMMETRY C*V
ELECTRONIC_STATE ??
