6
Energy =   -245.061170394     
    N    0.000000    0.000000    1.925561
    C   -0.000000    0.000000    0.642739
    C   -0.000000    0.000000   -0.587997
    C    0.000000   -0.000000   -1.904501
    C    0.000000   -0.000000   -3.188521
    C    0.000000   -0.000000    3.112719

FREQUENCIES 13
-72.7835
113.6332
150.1733
238.6772
331.4918
400.7916
509.4204
518.8543
662.0805
1244.7697
1910.1177
2097.4388
2170.8209

SYMMETRY C*V
ELECTRONIC_STATE ??
