6
Energy =   -244.977268267     
    N    1.593709   -1.551558   -0.085913
    C    1.333716   -0.222088   -0.013216
    C    0.256433   -1.327377   -0.041522
    C   -1.014581    0.985633    0.104597
    C   -0.069332    0.066130    0.035536
    C   -1.928124    1.874041    0.170402

FREQUENCIES 12
-588.1435
145.6932
159.6526
351.7350
474.9838
570.0976
685.6762
687.4076
986.9291
1418.5425
1492.1184
2016.4944

SYMMETRY C1
ELECTRONIC_STATE 2-A
