6
Energy =   -244.931309114     
    C   -1.354433    0.306072   -0.398124
    C    1.630830    0.257263    2.071228
    N   -1.349032   -0.584851   -1.420133
    C    0.064261    0.143562    0.016459
    C   -0.014109   -0.350012   -1.383902
    C    0.851341    0.189050    1.056372

FREQUENCIES 12
-147.0718
128.5553
315.8139
470.5171
509.7736
645.5057
713.1015
723.6662
1325.1709
1425.6982
1582.0255
1963.5436

SYMMETRY C1
ELECTRONIC_STATE 2-A
