6
Energy =   -244.931715841     
    N   -0.286048    0.010327   -0.323786
    C   -1.973473    0.064588   -2.225969
    C    1.677001    0.514499    1.305106
    C    1.076619   -0.606596    1.803027
    C   -1.081703    0.035972   -1.220793
    C    0.587635   -0.018818    0.662387

FREQUENCIES 12
-134.4512
40.5279
289.8875
315.8600
429.4342
454.7800
637.6630
650.9416
1188.5421
1350.3513
1686.5441
2122.7801

SYMMETRY C1
ELECTRONIC_STATE 4-A
