6
Energy =   -244.931340765     
    C   -1.058085   -0.035569   -0.875046
    C    0.926795   -0.883249    0.653357
    N    1.387749    0.082143    1.486431
    C    0.048042   -0.023275   -0.182703
    C    1.028085    0.891723    0.459872
    C   -2.135905   -0.048856   -1.568399

FREQUENCIES 12
-146.3985
130.5842
315.9227
470.6755
509.9421
645.5105
712.9811
723.7932
1324.9853
1425.3757
1584.6789
1962.9441

SYMMETRY C1
ELECTRONIC_STATE 2-A
