6
Energy =   -244.474137181     
    N   -0.262898    0.264686   -0.081065
    C   -1.577187   -0.036886   -0.153546
    C   -0.073259   -2.311945    0.354125
    C   -0.529105   -1.066366    0.109939
    C    1.592356    1.967836   -0.185747
    C    0.710437    1.141091   -0.133268

FREQUENCIES 12
-493.7369
-407.6573
190.5908
285.6108
430.7971
507.1100
560.3086
781.2059
820.9293
1244.3756
1565.6740
2277.2474

SYMMETRY C1
ELECTRONIC_STATE 3-A
