6
Energy =   -244.977268310     
    N    1.593492   -1.551650   -0.085952
    C    1.333773   -0.221981   -0.013554
    C    0.256480   -1.327586   -0.041507
    C   -1.014556    0.985735    0.104542
    C   -0.069091    0.066245    0.035642
    C   -1.928278    1.874017    0.170712

FREQUENCIES 12
-589.0430
145.7884
159.9155
351.9787
475.0265
570.1509
685.5551
687.6882
986.6181
1418.6860
1491.8726
2015.9144

SYMMETRY C1
ELECTRONIC_STATE 2-A
