6
Energy =   -244.722333504     
    N   -2.259722    1.980060    0.802533
    C    0.487150   -0.397956   -0.177074
    C   -0.434761    0.400266    0.151741
    C    1.421269   -1.206614   -0.510189
    C    2.396265   -2.046307   -0.855379
    C   -1.400715    1.236416    0.496187

FREQUENCIES 13
-14.1465
-14.1461
147.3482
147.3482
391.8097
391.8097
559.1733
559.1734
643.5054
1194.7490
1768.0646
2031.5650
2099.4812

SYMMETRY C*V
ELECTRONIC_STATE 3-SG
