6
Energy =   -244.977268265     
    N    1.593225   -1.552007   -0.086077
    C    1.333983   -0.222254   -0.012955
    C    0.255943   -1.327789   -0.041250
    C   -1.014307    0.985906    0.104178
    C   -0.069289    0.066212    0.035490
    C   -1.927814    1.874626    0.170507

FREQUENCIES 12
-590.8957
146.6989
160.8445
352.1513
475.0196
570.2664
685.4858
687.3207
985.8378
1418.0030
1491.1825
2015.5747

SYMMETRY C1
ELECTRONIC_STATE 2-A
