6
Energy =   -244.883812806     
    N   -0.307149    0.341220   -0.098168
    C   -1.557638   -0.068519   -0.148517
    C    0.002234   -2.257018    0.353956
    C   -0.627777   -1.142601    0.113435
    C    1.666777    1.951662   -0.175697
    C    0.683892    1.133682   -0.134529

FREQUENCIES 12
-123.6829
142.6259
156.9232
249.8825
277.2605
394.1956
517.2220
802.1317
927.2950
1441.5329
1733.0357
1977.9652

SYMMETRY CS
ELECTRONIC_STATE 2-A"
