6
Energy =   -244.559361985     
    C   -1.359166    0.361142   -0.392885
    C    1.564067    0.185415    2.028086
    N   -1.292977   -0.672339   -1.285661
    C    0.052904    0.213030   -0.045167
    C    0.021191   -0.314623   -1.407900
    C    0.842839    0.188459    1.045428

FREQUENCIES 12
-865.9477
165.6668
166.7767
349.5403
461.8870
666.9188
671.1018
802.5468
891.7340
1309.9094
1476.3652
2154.4997

SYMMETRY C1
ELECTRONIC_STATE 3-A
