6
Energy =   -244.644611202     
    C   -0.260127   -0.873196    0.727011
    C   -0.162653    1.076509    0.443481
    N   -0.470527    0.230171    1.379670
    C    0.135493   -1.310101   -0.487664
    C    0.256409    1.109513   -0.839529
    C    0.348571   -0.175968   -1.131619

FREQUENCIES 12
-579.5307
410.1678
480.1103
497.7621
538.5440
653.5745
856.3199
1129.1297
1205.2091
1244.0248
1566.7520
1684.4925

SYMMETRY C2V
ELECTRONIC_STATE 3-B2
