6
Energy =   -244.580129797     
    N   -0.275548    0.010609   -0.312453
    C   -1.974893    0.064250   -2.227286
    C    1.678374    0.500196    1.321287
    C    1.092660   -0.593615    1.807153
    C   -1.076730    0.035744   -1.215068
    C    0.556168   -0.017212    0.626341

FREQUENCIES 12
-37.7166
110.4606
252.6795
266.1393
396.3306
502.8799
563.3117
673.7550
1164.7699
1441.7637
1681.8837
2074.4380

SYMMETRY CS
ELECTRONIC_STATE 1-A'
