6
Energy =   -244.931715887     
    N   -0.286727    0.008989   -0.323153
    C   -1.972737    0.065781   -2.226352
    C    1.676767    0.515014    1.304336
    C    1.077219   -0.606138    1.803194
    C   -1.081889    0.035589   -1.220582
    C    0.587391   -0.019256    0.662538

FREQUENCIES 12
-134.6497
39.6879
289.6085
315.6606
429.3286
454.6224
637.9346
651.0884
1188.8176
1350.5419
1686.8543
2122.9586

SYMMETRY C1
ELECTRONIC_STATE 4-A
