6
Energy =   -244.595685000     
    N   -0.275248    0.009638   -0.311138
    C   -1.977386    0.065262   -2.231045
    C    1.672088    0.485172    1.329886
    C    1.103101   -0.577756    1.802243
    C   -1.079218    0.035431   -1.217479
    C    0.556695   -0.017777    0.627506

FREQUENCIES 12
-179.1915
91.6835
103.6557
210.8266
467.2829
484.0840
678.5949
789.4871
1176.2517
1568.1395
1746.7550
2052.4287

SYMMETRY CS
ELECTRONIC_STATE 3-A"
