6
Energy =   -244.559361535     
    C   -1.047339   -0.035491   -0.866523
    C    0.947950   -0.915712    0.613576
    N    1.219412    0.092894    1.496200
    C    0.133076   -0.032005   -0.218041
    C    1.052403    0.912331    0.414286
    C   -2.108823   -0.039100   -1.465985

FREQUENCIES 12
-866.3149
166.4653
167.3326
350.2054
461.9432
666.8434
671.1370
802.2501
891.7818
1309.6241
1476.2121
2153.7999

SYMMETRY C1
ELECTRONIC_STATE 3-A
