1
Energy = -37.8229212380
    C    0.000000    0.000000    0.000000

FREQUENCIES 0

SYMMETRY R3
ELECTRONIC_STATE 4-S
