2
Energy = -75.8982971210
    C    0.628966    0.000000    0.000000
    C   -0.628966    0.000000   -0.000000

FREQUENCIES 1
1841.0019

SYMMETRY D*H
ELECTRONIC_STATE 2-SGG
