3
Energy = -150.9945943100
    C    1.410421    0.597849   -0.000000
    C   -0.048832    0.135093    0.000000
    O   -0.863847   -0.770175    0.000000

FREQUENCIES 3
457.3440
611.4116
1559.7177

SYMMETRY CS
ELECTRONIC_STATE 4-A"
