3
Energy = -150.9295808700
    C   -0.300122   -0.007338   -0.890600
    C    0.280337   -0.179575    1.455276
    O    0.424530    0.240433    0.199111

FREQUENCIES 3
444.3344
506.4542
1045.6080

SYMMETRY C2V
ELECTRONIC_STATE 4-B1
