4
Energy = -189.1176089400
C  1.899863342 -0.506027160 -0.144324437
C  0.706609714 -0.116978101 -0.045235990
C -0.519615000  0.360645000  0.289829000
O -1.621814292  0.534937946 -0.173293930

FREQUENCIES 6
218.9180
233.3535
539.9050
920.1446
1773.5642
1944.9262

SYMMETRY CS
ELECTRONIC_STATE 2-A'
