5
Energy = -227.0202371200
    C   -0.011878    0.126403    0.018586
    C    0.374681   -0.653302    1.143271
    C   -0.168345    0.534276    1.403920
    C   -0.161045    0.380897   -1.345721
    O    0.148575   -0.335617   -2.297664

FREQUENCIES 9
228.7032
254.6941
461.0875
466.0301
566.9076
817.2008
1355.2558
1581.3209
1698.1690

SYMMETRY CS
ELECTRONIC_STATE 4-A"
