5
Energy = -227.1336298400
    C   -1.987453   -1.794167    0.066262
    C   -1.014319   -0.979490    0.026347
    C    0.967051    0.680556   -0.055672
    C    0.005068   -0.126189   -0.015738
    O    1.889333    1.453113   -0.094159

FREQUENCIES 10
124.7230
151.5864
406.6885
433.8537
464.9211
569.4306
753.4483
1466.8110
1942.9186
2248.6847

SYMMETRY C*V
ELECTRONIC_STATE ??
