5
Energy = -226.9837575800
    C    0.496539   -0.184926   -0.894864
    C    0.666871    0.142634    0.772237
    C    1.560083    0.465271   -0.256857
    C   -0.613231    0.054550    0.045847
    O   -1.804270   -0.198550    0.217336

FREQUENCIES 9
305.1612
487.4475
559.5952
634.8832
699.6928
879.1102
1006.5893
1302.7022
1681.4599

SYMMETRY CS
ELECTRONIC_STATE 4-A"
