5
Energy = -226.9837564200
    C   -1.028471    0.246308    0.021016
    C   -0.660533    1.565125   -0.272025
    C    0.281791   -0.385966    0.265065
    C    0.466239    0.798702   -0.593022
    O    0.793784   -1.470967    0.535238

FREQUENCIES 9
304.7248
486.6458
559.2803
634.7937
697.6937
877.3996
1007.3678
1303.6608
1680.2330

SYMMETRY CS
ELECTRONIC_STATE 4-A"
