2
Energy = -113.0946228400
    C   -0.751739    0.000000    0.000000
    O    0.431099    0.000000    0.000000

FREQUENCIES 1
1664.1329

SYMMETRY C*V
ELECTRONIC_STATE ??
