1
Energy = -0.5197264628
    H    0.000000    0.000000    0.000000

FREQUENCIES 0

SYMMETRY R3
ELECTRONIC_STATE 1-S
