1
Energy = -0.4206916807
    H    0.000000    0.000000    0.000000

FREQUENCIES 0

SYMMETRY R3
ELECTRONIC_STATE 3-S
