2
Energy = -1.1028441016
    H    0.386373    0.000000   -0.000000
    H   -0.386373    0.000000   -0.000000

FREQUENCIES 1
3820.6149

SYMMETRY D*H
ELECTRONIC_STATE 2-SGU
