3
Energy = -39.0359902600
    C   -0.000000   -0.000000    0.104157
    H    0.000000    1.002630   -0.308604
    H   -0.000000   -1.002630   -0.308604

FREQUENCIES 3
1012.1551
2971.0479
3261.1581

SYMMETRY C2V
ELECTRONIC_STATE 4-B1
