3
Energy = -39.0926253500
    C    0.000000   -0.000000    0.174285
    H    0.000000    0.876332   -0.523709
    H   -0.000000   -0.876332   -0.523709

FREQUENCIES 3
1292.0087
2733.6840
2793.3054

SYMMETRY C2V
ELECTRONIC_STATE 2-B1
