3
Energy = -39.0926270300
    C    0.000000   -0.000000    0.294946
    H    0.000000    0.875784   -0.403999
    H   -0.000000   -0.875784   -0.403999

FREQUENCIES 3
1292.9387
2732.7222
2791.3932

SYMMETRY C2V
ELECTRONIC_STATE 2-B1
