4
Energy = -77.1317809620
    C    0.515761    0.327101   -0.065412
    C   -0.654635   -0.028837    0.358598
    H    0.855108    1.352133   -0.241793
    H   -0.993982   -1.053868    0.534980

FREQUENCIES 6
773.5452
862.4156
919.9281
1606.4436
2901.8159
2946.1560

SYMMETRY C2H
ELECTRONIC_STATE 2-AG
