5
Energy = -152.3417232500
    C    1.240660   -0.581101    0.571756
    C    0.096121    0.151763    0.512767
    H    2.108840   -0.225353    1.105715
    H    1.306343   -1.557874    0.073302
    O   -1.028705    0.073546    0.026381

FREQUENCIES 9
457.3406
509.5250
630.0381
1003.2934
1111.9474
1422.4765
1715.3127
2939.0622
3179.7295

SYMMETRY CS
ELECTRONIC_STATE 2-A'
