4
Energy = -77.1431103530
    C    0.317504    0.579224   -0.011591
    C   -0.456322   -0.280960    0.304908
    H    1.007681    1.346424   -0.293877
    H   -1.146499   -1.048160    0.587194

FREQUENCIES 7
816.8470
816.8470
1210.0563
1210.0563
2031.2684
3297.2598
3394.6490

SYMMETRY D*H
ELECTRONIC_STATE 2-SGU
