4
Energy = -77.1431152570
    C    0.317219    0.579563   -0.011597
    C   -0.456096   -0.281284    0.304815
    H    1.006677    1.347061   -0.293699
    H   -1.145554   -1.048782    0.586917

FREQUENCIES 7
815.2462
815.2462
1208.9698
1208.9698
2030.8410
3300.1537
3397.2444

SYMMETRY D*H
ELECTRONIC_STATE 2-SGU
