4
Energy = -76.9710903560
    C    0.864495    0.403278   -0.148635
    C   -0.287179   -0.060949    0.273445
    H   -1.221234    0.487904    0.118991
    H   -0.365175   -1.017747    0.798809

FREQUENCIES 6
605.6292
951.0043
1367.1112
1561.3925
2929.8940
3049.0281

SYMMETRY C2V
ELECTRONIC_STATE 4-B2
