5
Energy = -152.2044104200
    C    0.125271    0.457432    0.013213
    C    1.483581    0.113479   -0.120864
    H    2.067809   -0.752263   -0.394277
    H   -0.121752    1.478516    0.325935
    O   -0.775670   -0.363671   -0.213376

FREQUENCIES 9
398.0534
582.9130
833.9923
962.1231
1145.9927
1401.6286
1494.7099
3000.5095
3187.8537

SYMMETRY CS
ELECTRONIC_STATE 4-A"
