4
Energy = -76.9711320390
    C    0.864256    0.403355   -0.148577
    C   -0.287582   -0.061126    0.273587
    H   -1.221261    0.488351    0.118679
    H   -0.364473   -1.018116    0.798881

FREQUENCIES 6
604.5282
951.6253
1366.8081
1560.2218
2929.0818
3048.9918

SYMMETRY C2V
ELECTRONIC_STATE 4-B2
