5
Energy = -152.2718959000
    C    1.362542   -0.426219    0.328776
    C    0.261613    0.151410    0.064863
    H    2.388421   -0.111328    0.373010
    H   -1.136507   -1.150113    0.210895
    O   -1.047565   -0.185663   -0.006656

FREQUENCIES 9
195.1513
365.4043
584.0246
586.1925
910.3236
1222.0186
1760.8000
3200.8529
3257.1065

SYMMETRY CS
ELECTRONIC_STATE 2-A'
