4
Energy = -76.9758857120
    C    0.616103    0.357160   -0.034305
    C   -0.274362   -0.624802   -0.012252
    H    0.642592    1.281615    0.551322
    H   -1.178484   -0.726579    0.596421

FREQUENCIES 6
786.6450
802.7029
1068.9212
1616.3456
2981.9561
3004.2407

SYMMETRY C2V
ELECTRONIC_STATE 4-B2
