7
Energy = -228.2061088700
    C   -0.819171   -0.351185   -0.484653
    C    0.778323    0.939997    0.386447
    O   -0.585698    0.959581    0.081556
    C    1.182374   -0.462662    0.556691
    C    0.237103   -1.233225   -0.038031
    H    1.380445    1.630491   -0.231604
    H    0.183299   -2.304442   -0.166015

FREQUENCIES 15
354.7681
438.4363
582.0411
705.4481
764.8824
780.3430
818.7624
897.6891
1007.0915
1050.6931
1193.3014
1265.0242
1391.1619
2823.8377
3180.7101

SYMMETRY C1
ELECTRONIC_STATE 4-A
