7
Energy = -228.2314750500
    C    1.082543    0.842552   -0.361432
    C   -1.280395   -0.259185    0.418524
    C   -1.419295   -0.023249   -0.998521
    C   -0.238976    0.384230   -0.469933
    H   -1.075433   -1.184230    0.980152
    H    1.490497    0.815310    0.666661
    O    1.788155    1.291577   -1.313735

FREQUENCIES 15
218.4585
229.4444
404.5096
509.9473
753.9480
806.7015
898.8685
933.5066
962.6069
1123.8126
1342.3791
1458.7031
1647.7095
2859.6350
2870.0481

SYMMETRY C1
ELECTRONIC_STATE 4-A
