7
Energy = -228.2288083600
    C    1.024955   -0.591764   -0.054242
    C   -1.686702   -0.477177   -0.026478
    C   -1.272129    0.549093    0.906883
    C   -0.341176   -0.374103    0.172562
    H   -1.198837    1.641280    0.811953
    H    1.226203   -1.396414   -0.791063
    O    1.997085    0.001948    0.500020

FREQUENCIES 15
206.5696
243.9736
346.1757
609.0266
677.8187
785.8030
892.2906
944.3276
1003.7658
1113.2901
1336.3136
1449.6439
1641.5424
2834.4392
2895.4767

SYMMETRY C1
ELECTRONIC_STATE 4-A
