4
Energy = -114.2959520000
    C    0.068305    0.570720   -0.471975
    H    0.887506    0.335189   -1.181815
    H   -0.134000    1.653838   -0.344116
    O   -0.691448   -0.311795   -0.009117

FREQUENCIES 6
655.8656
1172.4288
1184.5141
1528.9095
2805.8176
2846.4541

SYMMETRY CS
ELECTRONIC_STATE 2-A'
