4
Energy = -114.2959663900
    C    0.295691   -0.240863   -0.413712
    H    0.831149   -1.204456   -0.290968
    H    0.520020    0.294250   -1.359013
    O   -0.629067    0.114416    0.354141

FREQUENCIES 6
654.6051
1172.1493
1182.3500
1528.5848
2806.5576
2847.0933

SYMMETRY CS
ELECTRONIC_STATE 2-A'
