3
Energy = -76.2976340720
    H    0.662053    0.805457    0.000000
    H    1.204039   -0.617802    0.000000
    O    0.363516   -0.123065    0.000000

FREQUENCIES 3
1557.4906
3547.2367
3576.9800

SYMMETRY C2V
ELECTRONIC_STATE 2-A1
