3
Energy = -76.2976304010
    H   -0.718523    0.788348    0.000000
    H   -1.010103   -0.707324    0.000000
    O   -0.266865   -0.075966    0.000000

FREQUENCIES 3
1556.3356
3548.3264
3579.0762

SYMMETRY C2V
ELECTRONIC_STATE 2-A1
