4
Energy = -39.7538187100
C  0.332192859  0.000366357 -0.098009131
H -0.092569594 -0.000992966  0.917801041
H -0.020291891  0.896769126 -0.631405676
H -0.019330822 -0.895223449 -0.633401789

FREQUENCIES 6
782.0802
1421.6453
1421.6457
2896.4299
2979.0636
2979.0639

SYMMETRY C3V
ELECTRONIC_STATE 1-A1
