4
Energy = -39.7198112770
    C   -0.000000    0.000000    0.000000
    H   -0.000000    1.083666    0.000000
    H    0.938482   -0.541833    0.000000
    H   -0.938482   -0.541833    0.000000

FREQUENCIES 6
500.1189
1379.7764
1379.7876
2988.2641
3206.1072
3206.1179

SYMMETRY D3H
ELECTRONIC_STATE 3-A2"
