5
Energy = -77.7698390910
    C   -0.092251   -0.502074    0.000000
    H    0.950513   -0.880545    0.000000
    H   -0.825797   -1.316573    0.000000
    C   -0.468147    0.794663   -0.000000
    H    0.437601    1.441314   -0.000000

FREQUENCIES 9
860.8007
929.9785
1078.4935
1204.6946
1383.5519
1529.3643
2742.5848
2829.2047
2957.1656

SYMMETRY CS
ELECTRONIC_STATE 1-A'
