5
Energy = -77.6879333610
C  0.000435320 -0.486300985  0.000027343
C -0.000795444  1.021747973 -0.000003346
H -1.019501233 -0.929682983 -0.000036999
H  0.510881827 -0.928416008  0.883677070
H  0.511008897 -0.928451867 -0.883531026

FREQUENCIES 9
885.4361
885.7377
892.9509
1302.3826
1422.8569
1422.9348
2720.6970
2720.9848
2771.5822

SYMMETRY C3V
ELECTRONIC_STATE 3-A1
