5
Energy = -77.7097600760
    C    0.141366   -0.668092   -0.000000
    H    1.105895   -1.170041   -0.000000
    H   -0.726026   -1.336648   -0.000000
    C   -0.003204    0.625269   -0.000000
    H   -0.772770    1.377874   -0.000000

FREQUENCIES 9
648.9032
821.6328
926.1404
972.4348
1377.5309
1638.1248
2981.3363
3097.4907
3231.4936

SYMMETRY CS
ELECTRONIC_STATE 3-A'
