5
Energy = -77.6879299510
C -0.000701929 -0.448373866 -0.000000000
C  0.001334844  1.059378798  0.000000000
H -1.021797004 -0.889229835 -0.000000000
H  0.508949509 -0.891297670  0.883777718
H  0.508949509 -0.891297670 -0.883777718

FREQUENCIES 9
885.7809
886.0838
893.7653
1302.3002
1422.8013
1422.8794
2720.0187
2720.3035
2770.8869

SYMMETRY C3V
ELECTRONIC_STATE 3-A1
