5
Energy = -77.7698358840
    C    0.062046   -0.521391    0.000000
    H    0.916996   -1.207792    0.000000
    H   -0.905501   -1.065270    0.000000
    C    0.222679    0.819133    0.000000
    H   -0.775797    1.310424    0.000000

FREQUENCIES 9
862.9973
929.9604
1078.5921
1204.4623
1383.6783
1530.2030
2740.7146
2826.2766
2954.6258

SYMMETRY CS
ELECTRONIC_STATE 1-A'
