6
Energy = -152.8347203100
    C   -0.608952    1.241454   -0.095857
    C    0.280767   -0.928908    0.448932
    H    0.814306   -0.417900    1.257159
    H   -1.124497    1.622427   -1.021352
    O   -0.299472    0.026732   -0.417359
    H    0.937828   -1.543774   -0.171534

FREQUENCIES 12
372.4469
508.7886
644.3333
719.3262
988.1291
1199.1710
1322.7414
1399.4374
1453.8334
2637.3482
2965.8727
3056.0149

SYMMETRY C1
ELECTRONIC_STATE 1-A
