7
Energy = -190.8648419000
    C    1.165601   -0.933845    0.472714
    C    0.716366    0.629657   -1.064611
    C    0.208876   -0.065039    0.009632
    H    2.143112   -0.456572    0.545647
    H   -1.146741   -1.012163    0.897691
    H    0.052404    0.471045   -1.939243
    O   -1.149799   -0.259187    0.286870

FREQUENCIES 15
248.2524
468.3332
473.1492
579.0199
676.9578
766.0160
849.9126
987.0155
1044.9043
1190.6484
1377.9664
1489.0874
2857.5268
3076.3545
3685.0427

SYMMETRY C1
ELECTRONIC_STATE 1-A
