8
Energy = -228.9225711300
    C   -1.534868   -0.697298    0.227944
    C    0.992598    0.084488   -0.440644
    O    1.889378   -0.778475   -0.169424
    C   -0.371679   -0.064856   -0.494904
    C   -1.641787    0.557590   -0.124354
    H   -2.033997   -1.564210    0.625799
    H    1.322396    1.095427   -0.793001
    H   -2.298311    1.415870   -0.165440

FREQUENCIES 18
137.6927
214.6040
372.6573
406.0984
465.5392
650.8541
811.3139
858.3611
879.4663
967.2901
1040.5765
1322.9023
1388.1124
1590.0752
1690.0965
2712.2599
3154.5204
3232.6910

SYMMETRY C1
ELECTRONIC_STATE 1-A
