8
Energy = -228.9900659200
    C    0.689679    0.941281   -0.000326
    H   -2.019842   -0.853604    0.000262
    C    1.097850   -0.357656   -0.000099
    C   -1.087532   -0.306656    0.000078
    C   -0.770273    1.013149   -0.000083
    H    1.371640    1.784220   -0.000563
    H    2.065275   -0.839221   -0.000111
    O    0.026063   -1.192457    0.000176

FREQUENCIES 18
605.5535
614.0308
670.3481
720.0975
794.4685
849.5918
863.6393
919.2036
1030.2029
1072.2342
1139.2105
1247.6797
1323.3431
1435.7067
1495.1195
3127.6642
3180.2256
3188.1064

SYMMETRY CS
ELECTRONIC_STATE 1-A'
