8
Energy = -228.8847690000
    C    0.816558   -1.006603    0.000000
    C   -0.000476    1.096554   -0.000000
    O    1.127331    0.356684   -0.000000
    C   -1.128503    0.283683    0.000000
    C   -0.639434   -1.003747   -0.000000
    H    0.104275    2.173412   -0.000000
    H   -2.150556    0.632133    0.000000
    H   -1.228577   -1.909825   -0.000000

FREQUENCIES 18
410.3161
716.1344
744.2044
848.3864
869.9929
905.9060
984.0845
1018.8745
1027.2471
1100.2487
1136.6362
1212.1885
1340.7061
1408.4052
1482.4937
3161.9959
3180.8587
3187.2746

SYMMETRY CS
ELECTRONIC_STATE 3-A"
