5
Energy = -114.8736919200
    C   -0.388245   -0.222484   -0.947175
    H    1.266786    0.480061   -0.198144
    H   -1.299458    0.406117   -0.938805
    H   -0.734521   -1.231934   -0.653486
    O    0.438884    0.265715    0.219721

FREQUENCIES 9
356.0467
771.0907
978.3256
1176.3668
1190.3799
1450.6962
2821.9321
2856.7554
3938.2550

SYMMETRY C1
ELECTRONIC_STATE 1-A
