5
Energy = -114.9242268100
    C   -0.058101   -0.197097   -0.463162
    H   -0.517438    0.522024    0.290270
    H   -0.522861    0.144217   -1.444227
    H   -0.617122   -1.165401   -0.249297
    O    1.268983   -0.279895   -0.449497

FREQUENCIES 9
1160.9909
1168.2974
1168.3781
1423.1184
1423.4253
1469.7874
2418.6438
2418.9607
2577.7216

SYMMETRY C3V
ELECTRONIC_STATE 1-A1
