5
Energy = -40.3986702470
C  0.000154000 -0.000134625  0.001779312
H  0.629112695  0.632249320  0.630249278
H -0.627639924 -0.630746668  0.633187447
H -0.631927552  0.627356201 -0.628459663
H  0.631070780 -0.629397354 -0.627859811

FREQUENCIES 9
1319.2864
1319.2864
1319.2864
1563.9168
1563.9168
2964.8135
3083.3019
3083.3020
3083.3020

SYMMETRY TD
ELECTRONIC_STATE 2-A1
