6
Energy = -78.3772274510
C -0.155889975 -0.114475989  0.034054906
C -1.064005168  0.200718060 -0.986790906
H  0.217676540  0.634460379  0.723060088
H  0.215594317 -1.122009044  0.182588839
H -1.437571682 -0.548218308 -1.675796088
H -1.435489460  1.208251115 -1.135324839

FREQUENCIES 12
193.1709
388.5244
555.8588
783.3814
1181.2273
1182.1081
1437.5817
1498.4004
3096.1427
3116.1912
3153.2258
3183.8160

SYMMETRY D2H
ELECTRONIC_STATE 2-B2G
