6
Energy = -78.2886595840
C -0.142936219 -0.118971962  0.048617206
C -1.076959781  0.205213962 -1.001353206
H -0.263557212  0.249810041  1.064030647
H  0.726667123 -0.747714788 -0.124837491
H -1.948187917 -0.410243304 -1.210608875
H -0.954713995  1.080632051 -1.634056282

FREQUENCIES 12
400.2015
400.2015
722.8649
916.8705
916.8705
1132.1746
1405.5654
1424.4963
3039.2569
3042.0688
3135.9390
3135.9390

SYMMETRY D2D
ELECTRONIC_STATE 4-A1
