7
Energy = -153.4533281100
    C    0.568491    0.673579   -0.133987
    C   -0.761954    0.445402    0.502638
    H   -1.391730    1.325327    0.315719
    H   -1.301266   -0.454786    0.180041
    H   -0.624277    0.408615    1.591445
    H    0.210338   -0.971637   -1.102138
    O    0.888872   -0.252043   -0.992948

FREQUENCIES 15
98.5613
516.2753
738.7040
903.8987
972.0499
1069.4108
1293.1903
1338.4100
1351.7924
1426.7581
1456.3899
2920.1564
3005.1968
3156.8377
3202.5458

SYMMETRY CS
ELECTRONIC_STATE 2-A'
