7
Energy = -153.4256088200
    C    0.079346    0.406787    0.349132
    C   -1.182747    0.275096   -0.353431
    H   -2.074047   -0.127869    0.127097
    H    0.671846   -1.381379   -0.092500
    H    0.258787    1.172069    1.090912
    H   -1.276423    0.489620   -1.415495
    O    0.904141   -0.680734    0.538513

FREQUENCIES 15
283.7680
374.4463
408.9842
555.9133
588.4882
956.5545
1006.3396
1178.6632
1239.5246
1389.8848
1438.7777
3012.7668
3118.8647
3162.4641
3598.2658

SYMMETRY C1
ELECTRONIC_STATE 4-A
