6
Energy = -78.3804622020
    C    0.576779   -0.135102    0.222971
    C   -0.659557   -0.337182   -0.214334
    H   -1.233357    0.449150   -0.691871
    H    1.150579   -0.921434    0.700508
    H   -1.152207   -1.297826   -0.114012
    H    1.069429    0.825542    0.122649

FREQUENCIES 12
813.8873
951.2267
974.4983
1055.7919
1113.0396
1364.4591
1453.4817
1666.1477
3078.1123
3098.3394
3169.7608
3172.3654

SYMMETRY D2H
ELECTRONIC_STATE 2-AG
