6
Energy = -78.3262519540
C  0.968421337  0.207596445 -0.622238522
C -0.303005631 -0.426603949 -0.075816924
H -1.107196848  0.306988906  0.161832688
H -0.153019495 -0.995440714  0.870379790
H -0.752834037 -1.139049213 -0.779642731
H  1.335127907  0.905674069  0.167114604

FREQUENCIES 12
311.2284
855.0984
877.2769
913.3324
1193.9484
1323.0506
1445.4566
1465.1528
2714.4457
2733.7776
2776.6072
2938.1213

SYMMETRY CS
ELECTRONIC_STATE 2-A"
