8
Energy = -191.3770085900
    C   -0.663225    0.395126    0.604159
    C    0.585174   -0.395137    0.446856
    C   -1.609922    0.590943   -0.532193
    H    1.484253    1.188262   -0.202534
    H    1.005175   -0.623894    1.437471
    H    0.381995   -1.353814   -0.063416
    H   -1.143733    0.183990    1.569406
    O    1.596113    0.241568   -0.361348

FREQUENCIES 18
125.2398
208.7516
313.8032
465.9712
657.4221
705.2428
878.8024
972.4761
1044.0805
1158.0103
1248.7029
1315.3760
1366.1450
1439.2254
2866.7239
2921.7897
2945.9206
3709.1551

SYMMETRY C1
ELECTRONIC_STATE 4-A
