8
Energy = -191.5086544700
    C   -0.733978    0.224715    0.537475
    C    0.653976   -0.405535    0.552848
    C   -1.048358    1.283061   -0.203576
    H    0.987101    0.989582   -0.691743
    H    1.077082   -0.395525    1.570793
    H    0.606376   -1.463937    0.248088
    H   -1.455183   -0.284708    1.202865
    O    1.548816    0.279391   -0.318347

FREQUENCIES 18
181.4004
287.3628
523.3961
621.2170
647.3246
856.1496
1017.1029
1044.3501
1152.0359
1220.2832
1286.6890
1444.0773
1507.4424
1558.6565
2845.8243
2890.8780
2900.3822
3462.9678

SYMMETRY C1
ELECTRONIC_STATE 2-A
