8
Energy = -191.5084479900
    C   -1.378182    0.781436   -0.119296
    C    0.754284   -0.151403    0.512621
    C   -0.648544   -0.533828    0.221490
    H    0.867898    0.394402    1.478483
    H   -0.696916   -1.260607   -0.594113
    H   -1.017176    1.564153    0.588724
    H   -1.092547   -0.996375    1.123255
    O    1.721549   -0.258576   -0.234044

FREQUENCIES 18
180.1827
246.3918
387.8646
501.4845
825.4691
854.0395
909.4959
997.6297
1102.4616
1161.2950
1233.6849
1392.6677
1438.6271
1676.9717
2783.3352
2808.5492
2837.4910
3007.5619

SYMMETRY C1
ELECTRONIC_STATE 2-A
