9
Energy = -229.6055314400
O  1.527381000 -2.534313000  0.476369000
C  0.137468000  1.558827000 -0.124700000
C  1.026976635 -1.434591034  0.295063237
C -0.602602427  0.421037264 -0.133399225
C -0.243447602 -0.952867022  0.051598347
H -0.330614520  2.521738392 -0.288121221
H  1.206858398  1.546884594  0.043300834
H -1.669421199  0.563113351 -0.313212748
H -1.052992955 -1.689913831 -0.005555187

FREQUENCIES 21
194.1649
220.0723
263.4645
432.2140
621.3665
637.4968
673.0342
746.6462
964.8475
1002.3557
1048.6926
1169.7168
1310.2612
1394.1800
1446.7236
1602.5449
1720.5031
2969.2341
3056.0458
3113.7156
3188.2762

SYMMETRY CS
ELECTRONIC_STATE 2-A'
