9
Energy = -229.5470574500
    C   -0.916451    0.701750   -0.000040
    C    1.170869   -0.175819   -0.000516
    O    0.392264    1.115039   -0.000445
    C    0.225903   -1.329671   -0.000190
    C   -1.016375   -0.695073    0.000096
    H   -1.658624    1.487155    0.000016
    H    1.822218   -0.131803   -0.887617
    H    1.822631   -0.131653    0.886275
    H   -1.980124   -1.197183    0.000395

FREQUENCIES 21
175.2465
341.3738
503.0103
633.9701
774.3860
833.0702
852.8612
935.5436
938.6856
1012.8113
1094.5122
1133.1916
1204.2304
1271.2555
1324.2357
1400.1224
1453.1924
2874.0017
2899.9732
3097.0205
3188.9563

SYMMETRY CS
ELECTRONIC_STATE 2-A"
