9
Energy = -229.4405882100
    C    3.172700    3.378065    0.932729
    C    2.900798    1.966106    0.510498
    O    3.721496    1.456998   -0.407346
    C    1.916730    1.115104    0.951994
    C    1.059859    0.322960    1.313186
    H    4.165855    3.478439    1.384780
    H    2.423777    3.676581    1.666886
    H    3.124723    4.068084    0.083133
    H    0.300375   -0.336644    1.653671

FREQUENCIES 21
74.5482
171.3583
243.4984
315.8790
335.1570
460.5868
540.8799
725.6298
750.4948
964.8213
1013.6920
1198.2189
1309.0377
1382.2906
1434.3674
1468.4145
2009.8069
2955.7521
3011.1438
3073.2950
3425.6454

SYMMETRY C1
ELECTRONIC_STATE 4-A
