9
Energy = -229.4380071600
    C   -2.492937   -0.175260    0.000000
    C    1.214633   -0.368168    0.000000
    O    2.453192    0.064337   -0.000000
    C    0.067911    0.447624    0.000000
    C   -1.206242    0.040589    0.000000
    H   -3.062726   -0.282160   -0.922930
    H    1.153535   -1.457699    0.000000
    H    0.246679    1.522450   -0.000000
    H   -3.062726   -0.282161    0.922930

FREQUENCIES 21
123.3780
173.2562
191.3286
375.1815
461.8698
542.8570
545.0782
854.7679
893.5122
984.9453
986.0296
1075.2002
1166.1628
1250.8714
1330.8605
1441.7985
1832.8539
3013.2283
3046.5008
3058.3866
3080.0289

SYMMETRY CS
ELECTRONIC_STATE 4-A"
