9
Energy = -229.5799158700
    O   -2.951038    1.073795    0.156286
    C    1.771081   -0.045584   -0.030574
    C    0.370021   -0.020877   -0.494125
    C   -0.824202    0.040459   -0.146711
    C   -2.200429    0.056232    0.065399
    H    1.855201   -0.078143    1.073259
    H    2.320296    0.837742   -0.370383
    H    2.312949   -0.911794   -0.421076
    H   -2.653979   -0.951829    0.167926

FREQUENCIES 21
103.4846
140.3422
180.0651
308.6160
384.2520
597.7339
796.5929
828.7249
1015.7121
1049.2358
1157.0147
1336.3875
1384.9601
1467.3485
1475.6905
1497.1697
2031.0588
2820.1660
2839.7297
2999.1454
3020.8176

SYMMETRY C1
ELECTRONIC_STATE 2-A
