6
Energy = -115.3405751000
    C    0.477099   -0.348248   -0.271167
    H   -2.837933   -0.107515   -0.118176
    H    0.903191    0.339550   -1.038147
    H    1.303634   -0.464488    0.451114
    H    0.250123   -1.295514   -0.778941
    O   -0.595589    0.286335    0.271280

FREQUENCIES 12
80.3687
108.7472
257.4776
766.7627
1000.4971
1113.3499
1305.1068
1343.6429
1488.6133
2776.4049
2878.7728
2974.8723

SYMMETRY C1
ELECTRONIC_STATE 4-A
