2
Energy = -38.4494318450
    C    0.168239    0.000000    0.000000
    H   -0.968529    0.000000    0.000000

FREQUENCIES 1
2607.8386

SYMMETRY C*V
ELECTRONIC_STATE 3-SG
