2
Energy = -38.4079314350
    C    0.165178    0.000000    0.000000
    H   -0.965468    0.000000    0.000000

FREQUENCIES 1
2690.9228

SYMMETRY C*V
ELECTRONIC_STATE ??
