3
Energy = -76.4316772850
    H    0.000000    0.459699   -1.472026
    C    0.000000   -0.285877   -0.608040
    C    0.000000    0.126178    0.669999

FREQUENCIES 3
832.0715
1257.9793
2288.1082

SYMMETRY CS
ELECTRONIC_STATE 3-A'
