3
Energy = -76.4301048870
    H    0.000000    0.000000    1.547743
    C    0.000000    0.000000    0.484495
    C    0.000000    0.000000   -0.716553

FREQUENCIES 4
667.9259
667.9263
2071.1045
3403.8076

SYMMETRY C*V
ELECTRONIC_STATE 3-SG
