3
Energy = -76.5734903730
    H   -0.749995   -1.328405    0.000000
    C    0.275146    0.737540    0.000000
    C   -0.275456   -0.372122    0.000000

FREQUENCIES 4
543.7969
543.7969
1888.1736
3368.3052

SYMMETRY C*V
ELECTRONIC_STATE 1-SG
