4
Energy = -151.5764907700
    C   -1.022289   -0.110043    0.466848
    C    1.402974    0.194245   -0.260236
    H   -1.203675    0.597947    1.299854
    O    0.281719    0.128136    0.155247

FREQUENCIES 6
404.0738
495.7203
804.9921
1255.2244
1641.2466
2848.9402

SYMMETRY CS
ELECTRONIC_STATE 1-A'
