4
Energy = -151.6850283500
    C   -1.064843    0.886793   -0.437704
    C   -0.236101    0.089018    0.021918
    H    1.487293   -0.376680    0.644469
    O    0.644139   -0.823841    0.528425

FREQUENCIES 6
306.2452
364.4773
932.6840
1219.5453
2051.3636
3772.8558

SYMMETRY CS
ELECTRONIC_STATE 1-A'
