4
Energy = -151.5900627100
    C   -1.060685    0.910206   -0.443062
    C   -0.262451    0.025017    0.032275
    H    1.569923   -0.374632    0.667509
    O    0.583702   -0.785301    0.500384

FREQUENCIES 6
273.9230
287.1547
1038.5943
1073.9607
1465.0463
1983.5683

SYMMETRY CS
ELECTRONIC_STATE 3-A"
