4
Energy = -151.5900650900
    C    0.119352    0.420035   -0.153964
    C    0.858943    1.277557   -0.757128
    H    0.032768   -1.079718    1.135780
    O   -0.548587   -0.430681    0.495454

FREQUENCIES 6
273.8210
288.5137
1036.7755
1073.8917
1461.0381
1984.6870

SYMMETRY C1
ELECTRONIC_STATE 3-A
