4
Energy = -151.7630335700
    C    0.122687   -0.256498   -0.004016
    C   -0.663320    0.661257    0.337480
    H   -1.097893    1.106962    1.203933
    O    0.860932   -1.104941   -0.472218

FREQUENCIES 6
418.2226
587.6691
600.8179
1240.8377
2079.1514
3356.6805

SYMMETRY CS
ELECTRONIC_STATE 1-A'
