5
Energy = -189.7569354200
    C    0.490966    0.051054   -0.221012
    C   -1.901900   -1.082040   -0.196779
    C   -0.797764   -0.505105   -0.144789
    H    1.113607   -0.358250   -1.050134
    O    1.000140    0.912920    0.498680

FREQUENCIES 9
219.9325
232.1697
637.8384
1004.6665
1010.1565
1398.2082
1642.1036
2046.1041
2784.4162

SYMMETRY CS
ELECTRONIC_STATE 1-A'
