5
Energy = -189.6829248400
    C   -0.582379    0.570302   -0.516576
    C    0.529509   -0.238820   -0.596347
    C   -1.593753    1.315628   -0.532848
    H    0.378337   -0.339985    1.318897
    O    0.959932   -0.689393    0.610338

FREQUENCIES 9
216.0934
246.2405
634.4797
789.4065
945.7792
1150.9427
1341.2762
1976.4686
3440.3518

SYMMETRY CS
ELECTRONIC_STATE 1-A'
