5
Energy = -189.6829394400
    C   -0.078806    0.603474   -0.553958
    C    0.059724   -0.690868   -0.101552
    C    0.154435   -1.898522    0.231795
    H    0.602748    1.095726    1.176060
    O    0.298263    1.538452    0.355311

FREQUENCIES 9
215.9098
247.0322
634.9011
788.7068
945.7121
1151.3955
1340.3578
1976.1748
3440.4091

SYMMETRY CS
ELECTRONIC_STATE 1-A'
