5
Energy = -189.6386119400
    C   -0.657614    0.629667   -0.554497
    C    0.394563   -0.156555   -0.441589
    C   -1.670096    1.397528   -0.764372
    H    0.577703   -0.498363    1.425078
    O    1.047090   -0.754545    0.618844

FREQUENCIES 9
44.8568
207.8180
381.8264
537.7219
845.0464
1230.1156
1325.7283
1713.1687
3689.7922

SYMMETRY CS
ELECTRONIC_STATE 3-A"
