6
Energy = -227.7240117900
    C   -1.079088    0.091570    0.466240
    C    1.087730    0.388124   -1.061085
    C    1.599632   -0.490972   -0.239528
    C    0.033663    0.084897   -0.120215
    H    1.214983    1.025378   -1.922740
    O   -2.145843    0.086899    1.042429

FREQUENCIES 12
153.3800
169.1197
359.6808
383.2657
621.3767
640.3296
781.3374
1024.8100
1384.3769
1623.5118
2169.7546
3186.5474

SYMMETRY CS
ELECTRONIC_STATE 1-A'
