3
Energy = -113.6896205800
    C    0.736623    0.701537    0.000000
    H   -0.038245    1.680726    0.000000
    O    0.105089   -0.344746    0.000000

FREQUENCIES 3
1255.2966
1346.9519
1750.6696

SYMMETRY CS
ELECTRONIC_STATE 1-A'
