3
Energy = -113.6808377900
    C   -0.942562    0.032624   -0.000000
    H    0.544008   -2.019788   -0.000000
    O   -0.220307    0.918403   -0.000000

FREQUENCIES 3
72.9208
391.4725
2035.2447

SYMMETRY CS
ELECTRONIC_STATE 1-A'
