 Entering Gaussian System, Link 0=/home/proyectos/fulerenos/M3C-v2.0/M3C-deps_CCC/g09-AM64L-G09RevC.01/g09
 Initial command:
 /home/proyectos/fulerenos/M3C-v2.0/M3C-deps_CCC/g09-AM64L-G09RevC.01/l1.exe "/scratch/naguirre/gaussian/Gau-743.inp" -scrdir="/scratch/naguirre/gaussian/"
 Entering Link 1 = /home/proyectos/fulerenos/M3C-v2.0/M3C-deps_CCC/g09-AM64L-G09RevC.01/l1.exe PID=       748.
  
 Copyright (c) 1988,1990,1992,1993,1995,1998,2003,2009,2015,
            Gaussian, Inc.  All Rights Reserved.
  
 This is part of the Gaussian(R) 09 program.  It is based on
 the Gaussian(R) 03 system (copyright 2003, Gaussian, Inc.),
 the Gaussian(R) 98 system (copyright 1998, Gaussian, Inc.),
 the Gaussian(R) 94 system (copyright 1995, Gaussian, Inc.),
 the Gaussian 92(TM) system (copyright 1992, Gaussian, Inc.),
 the Gaussian 90(TM) system (copyright 1990, Gaussian, Inc.),
 the Gaussian 88(TM) system (copyright 1988, Gaussian, Inc.),
 the Gaussian 86(TM) system (copyright 1986, Carnegie Mellon
 University), and the Gaussian 82(TM) system (copyright 1983,
 Carnegie Mellon University). Gaussian is a federally registered
 trademark of Gaussian, Inc.
  
 This software contains proprietary and confidential information,
 including trade secrets, belonging to Gaussian, Inc.
  
 This software is provided under written license and may be
 used, copied, transmitted, or stored only in accord with that
 written license.
  
 The following legend is applicable only to US Government
 contracts under FAR:
  
                    RESTRICTED RIGHTS LEGEND
  
 Use, reproduction and disclosure by the US Government is
 subject to restrictions as set forth in subparagraphs (a)
 and (c) of the Commercial Computer Software - Restricted
 Rights clause in FAR 52.227-19.
  
 Gaussian, Inc.
 340 Quinnipiac St., Bldg. 40, Wallingford CT 06492
  
  
 ---------------------------------------------------------------
 Warning -- This program may not be used in any manner that
 competes with the business of Gaussian, Inc. or will provide
 assistance to any competitor of Gaussian, Inc.  The licensee
 of this program is prohibited from giving any competitor of
 Gaussian, Inc. access to this program.  By using this program,
 the user acknowledges that Gaussian, Inc. is engaged in the
 business of creating and licensing software in the field of
 computational chemistry and represents and warrants to the
 licensee that it is not a competitor of Gaussian, Inc. and that
 it will not use this program in any manner prohibited above.
 ---------------------------------------------------------------
  

 Cite this work as:
 Gaussian 09, Revision E.01,
 M. J. Frisch, G. W. Trucks, H. B. Schlegel, G. E. Scuseria, 
 M. A. Robb, J. R. Cheeseman, G. Scalmani, V. Barone, B. Mennucci, 
 G. A. Petersson, H. Nakatsuji, M. Caricato, X. Li, H. P. Hratchian, 
 A. F. Izmaylov, J. Bloino, G. Zheng, J. L. Sonnenberg, M. Hada, 
 M. Ehara, K. Toyota, R. Fukuda, J. Hasegawa, M. Ishida, T. Nakajima, 
 Y. Honda, O. Kitao, H. Nakai, T. Vreven, J. A. Montgomery, Jr., 
 J. E. Peralta, F. Ogliaro, M. Bearpark, J. J. Heyd, E. Brothers, 
 K. N. Kudin, V. N. Staroverov, T. Keith, R. Kobayashi, J. Normand, 
 K. Raghavachari, A. Rendell, J. C. Burant, S. S. Iyengar, J. Tomasi, 
 M. Cossi, N. Rega, J. M. Millam, M. Klene, J. E. Knox, J. B. Cross, 
 V. Bakken, C. Adamo, J. Jaramillo, R. Gomperts, R. E. Stratmann, 
 O. Yazyev, A. J. Austin, R. Cammi, C. Pomelli, J. W. Ochterski, 
 R. L. Martin, K. Morokuma, V. G. Zakrzewski, G. A. Voth, 
 P. Salvador, J. J. Dannenberg, S. Dapprich, A. D. Daniels, 
 O. Farkas, J. B. Foresman, J. V. Ortiz, J. Cioslowski, 
 and D. J. Fox, Gaussian, Inc., Wallingford CT, 2013.
 
 ******************************************
 Gaussian 09:  EM64L-G09RevE.01 30-Nov-2015
                 2-Nov-2016 
 ******************************************
 %NProcShared=4
 Will use up to    4 processors via shared memory.
 ---------------------------------------
 #p ccsd(t)/6-311+G(3df) scf(MaxCyc=300)
 ---------------------------------------
 1/38=1/1;
 2/12=2,17=6,18=5,40=1/2;
 3/5=4,6=6,7=16,11=9,16=1,25=1,30=1/1,2,3;
 4//1;
 5/5=2,7=300,38=5/2;
 8/6=4,9=120000,10=2/1,4;
 9/5=7,14=2/13;
 6/7=2,8=2,9=2,10=2/1;
 99/5=1,9=1/99;
 Leave Link    1 at Wed Nov  2 08:31:51 2016, MaxMem=           0 cpu:         0.2
 (Enter /home/proyectos/fulerenos/M3C-v2.0/M3C-deps_CCC/g09-AM64L-G09RevC.01/l101.exe)
 -------------
 ccsd(t) iener
 -------------
 Symbolic Z-matrix:
 Charge =  1 Multiplicity = 2
 C                     0.65337  -0.65865  -0.23959 
 C                    -0.5781   -1.13156  -0.44698 
 C                    -1.17722   0.20109   0.05039 
 C                    -0.06066   0.17668   1.02353 
 C                    -0.02253   0.81769  -0.64242 
 C                     1.18515   0.59475   0.25506 
 
 NAtoms=      6 NQM=        6 NQMF=       0 NMMI=      0 NMMIF=      0
                NMic=       0 NMicF=      0.
                    Isotopes and Nuclear Properties:
 (Nuclear quadrupole moments (NQMom) in fm**2, nuclear magnetic moments (NMagM)
  in nuclear magnetons)

  Atom         1           2           3           4           5           6
 IAtWgt=          12          12          12          12          12          12
 AtmWgt=  12.0000000  12.0000000  12.0000000  12.0000000  12.0000000  12.0000000
 NucSpn=           0           0           0           0           0           0
 AtZEff=   0.0000000   0.0000000   0.0000000   0.0000000   0.0000000   0.0000000
 NQMom=    0.0000000   0.0000000   0.0000000   0.0000000   0.0000000   0.0000000
 NMagM=    0.0000000   0.0000000   0.0000000   0.0000000   0.0000000   0.0000000
 AtZNuc=   6.0000000   6.0000000   6.0000000   6.0000000   6.0000000   6.0000000
 Leave Link  101 at Wed Nov  2 08:31:51 2016, MaxMem=    33554432 cpu:         0.2
 (Enter /home/proyectos/fulerenos/M3C-v2.0/M3C-deps_CCC/g09-AM64L-G09RevC.01/l202.exe)
                          Input orientation:                          
 ---------------------------------------------------------------------
 Center     Atomic      Atomic             Coordinates (Angstroms)
 Number     Number       Type             X           Y           Z
 ---------------------------------------------------------------------
      1          6           0        0.653371   -0.658648   -0.239585
      2          6           0       -0.578096   -1.131560   -0.446978
      3          6           0       -1.177225    0.201088    0.050392
      4          6           0       -0.060663    0.176684    1.023532
      5          6           0       -0.022534    0.817687   -0.642423
      6          6           0        1.185146    0.594748    0.255062
 ---------------------------------------------------------------------
                    Distance matrix (angstroms):
                    1          2          3          4          5
     1  C    0.000000
     2  C    1.335353   0.000000
     3  C    2.043114   1.543465   0.000000
     4  C    1.674243   2.035102   1.481320   0.000000
     5  C    1.672929   2.036274   1.481046   1.785426   0.000000
     6  C    1.448607   2.565545   2.403675   1.522289   1.521076
                    6
     6  C    0.000000
 Stoichiometry    C6(1+,2)
 Framework group  C1[X(C6)]
 Deg. of freedom    12
 Full point group                 C1      NOp   1
 Largest Abelian subgroup         C1      NOp   1
 Largest concise Abelian subgroup C1      NOp   1
                         Standard orientation:                         
 ---------------------------------------------------------------------
 Center     Atomic      Atomic             Coordinates (Angstroms)
 Number     Number       Type             X           Y           Z
 ---------------------------------------------------------------------
      1          6           0       -0.141901    0.947616   -0.000643
      2          6           0        1.165419    0.675434    0.000305
      3          6           0        0.854069   -0.836301   -0.001251
      4          6           0       -0.266115   -0.462655    0.893112
      5          6           0       -0.268239   -0.462226   -0.892313
      6          6           0       -1.343232    0.138132    0.000790
 ---------------------------------------------------------------------
 Rotational constants (GHZ):     10.2863780      7.4557029      6.4246769
 Leave Link  202 at Wed Nov  2 08:31:51 2016, MaxMem=    33554432 cpu:         0.0
 (Enter /home/proyectos/fulerenos/M3C-v2.0/M3C-deps_CCC/g09-AM64L-G09RevC.01/l301.exe)
 Standard basis: 6-311+G(3df) (5D, 7F)
 Ernie: Thresh=  0.10000D-02 Tol=  0.10000D-05 Strict=F.
 There are   270 symmetry adapted cartesian basis functions of A   symmetry.
 There are   234 symmetry adapted basis functions of A   symmetry.
   234 basis functions,   348 primitive gaussians,   270 cartesian basis functions
    18 alpha electrons       17 beta electrons
       nuclear repulsion energy       167.3488520955 Hartrees.
 IExCor=    0 DFT=F Ex=HF Corr=None ExCW=0 ScaHFX=  1.000000
 ScaDFX=  1.000000  1.000000  1.000000  1.000000 ScalE2=  1.000000  1.000000
 IRadAn=      0 IRanWt=     -1 IRanGd=            0 ICorTp=0 IEmpDi=  4
 NAtoms=    6 NActive=    6 NUniq=    6 SFac= 1.00D+00 NAtFMM=   60 NAOKFM=F Big=F
 Integral buffers will be    131072 words long.
 Raffenetti 2 integral format.
 Two-electron integral symmetry is turned on.
 Leave Link  301 at Wed Nov  2 08:31:51 2016, MaxMem=    33554432 cpu:         0.1
 (Enter /home/proyectos/fulerenos/M3C-v2.0/M3C-deps_CCC/g09-AM64L-G09RevC.01/l302.exe)
 NPDir=0 NMtPBC=     1 NCelOv=     1 NCel=       1 NClECP=     1 NCelD=      1
         NCelK=      1 NCelE2=     1 NClLst=     1 CellRange=     0.0.
 One-electron integrals computed using PRISM.
 NBasis=   234 RedAO= T EigKep=  1.79D-05  NBF=   234
 NBsUse=   234 1.00D-06 EigRej= -1.00D+00 NBFU=   234
 Leave Link  302 at Wed Nov  2 08:31:51 2016, MaxMem=    33554432 cpu:         1.1
 (Enter /home/proyectos/fulerenos/M3C-v2.0/M3C-deps_CCC/g09-AM64L-G09RevC.01/l303.exe)
 DipDrv:  MaxL=1.
 Leave Link  303 at Wed Nov  2 08:31:51 2016, MaxMem=    33554432 cpu:         0.1
 (Enter /home/proyectos/fulerenos/M3C-v2.0/M3C-deps_CCC/g09-AM64L-G09RevC.01/l401.exe)
 ExpMin= 4.38D-02 ExpMax= 4.56D+03 ExpMxC= 6.82D+02 IAcc=2 IRadAn=         4 AccDes= 0.00D+00
 Harris functional with IExCor=  205 and IRadAn=       4 diagonalized for initial guess.
 HarFok:  IExCor=  205 AccDes= 0.00D+00 IRadAn=         4 IDoV= 1 UseB2=F ITyADJ=14
 ICtDFT=  3500011 ScaDFX=  1.000000  1.000000  1.000000  1.000000
 FoFCou: FMM=F IPFlag=           0 FMFlag=      100000 FMFlg1=           0
         NFxFlg=           0 DoJE=T BraDBF=F KetDBF=T FulRan=T
         wScrn=  0.000000 ICntrl=     500 IOpCl=  0 I1Cent=   200000004 NGrid=           0
         NMat0=    1 NMatS0=      1 NMatT0=    0 NMatD0=    1 NMtDS0=    0 NMtDT0=    0
 Petite list used in FoFCou.
 Harris En= -226.532555449430    
 JPrj=0 DoOrth=F DoCkMO=F.
 Initial guess <Sx>= 0.0000 <Sy>= 0.0000 <Sz>= 0.5000 <S**2>= 0.7500 S= 0.5000
 Leave Link  401 at Wed Nov  2 08:31:52 2016, MaxMem=    33554432 cpu:         2.5
 (Enter /home/proyectos/fulerenos/M3C-v2.0/M3C-deps_CCC/g09-AM64L-G09RevC.01/l502.exe)
 UHF open shell SCF:
 Using DIIS extrapolation, IDIIS=  1040.
 Integral symmetry usage will be decided dynamically.
 IVT=      315266 IEndB=      315266 NGot=    33554432 MDV=    33402937
 LenX=    33402937 LenY=    33329596
 Requested convergence on RMS density matrix=1.00D-08 within 300 cycles.
 Requested convergence on MAX density matrix=1.00D-06.
 Requested convergence on             energy=1.00D-06.
 No special actions if energy rises.
 Fock matrices will be formed incrementally for  20 cycles.

 Cycle   1  Pass 0  IDiag  1:
 FoFJK:  IHMeth= 1 ICntrl=       0 DoSepK=F KAlg= 0 I1Cent=   0 FoldK=F
 IRaf= 990000000 NMat=   1 IRICut=       1 DoRegI=T DoRafI=F ISym2E= 0.
 FoFCou: FMM=F IPFlag=           0 FMFlag=      100000 FMFlg1=           0
         NFxFlg=           0 DoJE=F BraDBF=F KetDBF=F FulRan=T
         wScrn=  0.000000 ICntrl=       0 IOpCl=  1 I1Cent=           0 NGrid=           0
         NMat0=    1 NMatS0=      1 NMatT0=    0 NMatD0=    1 NMtDS0=    0 NMtDT0=    0
 Symmetry not used in FoFCou.
 E= -226.250763267863    
 DIIS: error= 3.60D-02 at cycle   1 NSaved=   1.
 NSaved= 1 IEnMin= 1 EnMin= -226.250763267863     IErMin= 1 ErrMin= 3.60D-02
 ErrMax= 3.60D-02  0.00D+00 EMaxC= 1.00D-01 BMatC= 1.30D+00 BMatP= 1.30D+00
 IDIUse=3 WtCom= 6.40D-01 WtEn= 3.60D-01
 Coeff-Com:  0.100D+01
 Coeff-En:   0.100D+01
 Coeff:      0.100D+01
 Gap=     0.436 Goal=   None    Shift=    0.000
 Gap=     0.319 Goal=   None    Shift=    0.000
 GapD=    0.319 DampG=1.000 DampE=0.500 DampFc=0.5000 IDamp=-1.
 Damping current iteration by 5.00D-01
 RMSDP=3.90D-03 MaxDP=2.83D-01              OVMax= 8.26D-02

 Cycle   2  Pass 0  IDiag  1:
 RMSU=  1.87D-03    CP:  9.73D-01
 E= -226.302093537041     Delta-E=       -0.051330269178 Rises=F Damp=T
 DIIS: error= 1.90D-02 at cycle   2 NSaved=   2.
 NSaved= 2 IEnMin= 2 EnMin= -226.302093537041     IErMin= 2 ErrMin= 1.90D-02
 ErrMax= 1.90D-02  0.00D+00 EMaxC= 1.00D-01 BMatC= 3.68D-01 BMatP= 1.30D+00
 IDIUse=3 WtCom= 8.10D-01 WtEn= 1.90D-01
 Coeff-Com: -0.104D+01 0.204D+01
 Coeff-En:   0.000D+00 0.100D+01
 Coeff:     -0.840D+00 0.184D+01
 Gap=     0.422 Goal=   None    Shift=    0.000
 Gap=     0.377 Goal=   None    Shift=    0.000
 RMSDP=3.43D-03 MaxDP=2.78D-01 DE=-5.13D-02 OVMax= 8.30D-02

 Cycle   3  Pass 0  IDiag  1:
 RMSU=  2.23D-03    CP:  9.05D-01  2.17D+00
 E= -226.367779647797     Delta-E=       -0.065686110757 Rises=F Damp=F
 DIIS: error= 6.83D-03 at cycle   3 NSaved=   3.
 NSaved= 3 IEnMin= 3 EnMin= -226.367779647797     IErMin= 3 ErrMin= 6.83D-03
 ErrMax= 6.83D-03  0.00D+00 EMaxC= 1.00D-01 BMatC= 2.04D-02 BMatP= 3.68D-01
 IDIUse=3 WtCom= 9.32D-01 WtEn= 6.83D-02
 Coeff-Com: -0.419D+00 0.767D+00 0.652D+00
 Coeff-En:   0.000D+00 0.000D+00 0.100D+01
 Coeff:     -0.390D+00 0.714D+00 0.676D+00
 Gap=     0.409 Goal=   None    Shift=    0.000
 Gap=     0.362 Goal=   None    Shift=    0.000
 RMSDP=8.65D-04 MaxDP=5.88D-02 DE=-6.57D-02 OVMax= 3.03D-02

 Cycle   4  Pass 0  IDiag  1:
 RMSU=  6.72D-04    CP:  9.16D-01  2.43D+00  9.62D-01
 E= -226.375136099706     Delta-E=       -0.007356451909 Rises=F Damp=F
 DIIS: error= 2.54D-03 at cycle   4 NSaved=   4.
 NSaved= 4 IEnMin= 4 EnMin= -226.375136099706     IErMin= 4 ErrMin= 2.54D-03
 ErrMax= 2.54D-03  0.00D+00 EMaxC= 1.00D-01 BMatC= 3.29D-03 BMatP= 2.04D-02
 IDIUse=3 WtCom= 9.75D-01 WtEn= 2.54D-02
 Coeff-Com:  0.839D-01-0.171D+00 0.842D-01 0.100D+01
 Coeff-En:   0.000D+00 0.000D+00 0.000D+00 0.100D+01
 Coeff:      0.818D-01-0.167D+00 0.821D-01 0.100D+01
 Gap=     0.410 Goal=   None    Shift=    0.000
 Gap=     0.373 Goal=   None    Shift=    0.000
 RMSDP=6.42D-04 MaxDP=4.27D-02 DE=-7.36D-03 OVMax= 4.32D-02

 Cycle   5  Pass 0  IDiag  1:
 RMSU=  3.66D-04    CP:  9.18D-01  2.55D+00  1.13D+00  1.43D+00
 E= -226.378369760924     Delta-E=       -0.003233661218 Rises=F Damp=F
 DIIS: error= 2.02D-03 at cycle   5 NSaved=   5.
 NSaved= 5 IEnMin= 5 EnMin= -226.378369760924     IErMin= 5 ErrMin= 2.02D-03
 ErrMax= 2.02D-03  0.00D+00 EMaxC= 1.00D-01 BMatC= 1.48D-03 BMatP= 3.29D-03
 IDIUse=3 WtCom= 9.80D-01 WtEn= 2.02D-02
 Coeff-Com:  0.143D+00-0.264D+00-0.200D+00 0.236D+00 0.109D+01
 Coeff-En:   0.000D+00 0.000D+00 0.000D+00 0.000D+00 0.100D+01
 Coeff:      0.140D+00-0.259D+00-0.196D+00 0.231D+00 0.108D+01
 Gap=     0.414 Goal=   None    Shift=    0.000
 Gap=     0.381 Goal=   None    Shift=    0.000
 RMSDP=5.94D-04 MaxDP=3.22D-02 DE=-3.23D-03 OVMax= 3.93D-02

 Cycle   6  Pass 0  IDiag  1:
 RMSU=  2.42D-04    CP:  9.19D-01  2.64D+00  1.25D+00  1.96D+00  1.68D+00
 E= -226.380669977120     Delta-E=       -0.002300216196 Rises=F Damp=F
 DIIS: error= 1.38D-03 at cycle   6 NSaved=   6.
 NSaved= 6 IEnMin= 6 EnMin= -226.380669977120     IErMin= 6 ErrMin= 1.38D-03
 ErrMax= 1.38D-03  0.00D+00 EMaxC= 1.00D-01 BMatC= 7.19D-04 BMatP= 1.48D-03
 IDIUse=3 WtCom= 9.86D-01 WtEn= 1.38D-02
 Coeff-Com: -0.811D-01 0.153D+00 0.866D-01-0.219D+00-0.548D+00 0.161D+01
 Coeff-En:   0.000D+00 0.000D+00 0.000D+00 0.000D+00 0.000D+00 0.100D+01
 Coeff:     -0.800D-01 0.151D+00 0.854D-01-0.216D+00-0.541D+00 0.160D+01
 Gap=     0.415 Goal=   None    Shift=    0.000
 Gap=     0.385 Goal=   None    Shift=    0.000
 RMSDP=5.34D-04 MaxDP=3.45D-02 DE=-2.30D-03 OVMax= 3.92D-02

 Cycle   7  Pass 0  IDiag  1:
 RMSU=  1.60D-04    CP:  9.19D-01  2.66D+00  1.30D+00  2.25D+00  2.56D+00
                    CP:  2.34D+00
 E= -226.382456577522     Delta-E=       -0.001786600402 Rises=F Damp=F
 DIIS: error= 1.23D-03 at cycle   7 NSaved=   7.
 NSaved= 7 IEnMin= 7 EnMin= -226.382456577522     IErMin= 7 ErrMin= 1.23D-03
 ErrMax= 1.23D-03  0.00D+00 EMaxC= 1.00D-01 BMatC= 5.92D-04 BMatP= 7.19D-04
 IDIUse=3 WtCom= 9.88D-01 WtEn= 1.23D-02
 Coeff-Com: -0.673D-01 0.125D+00 0.100D+00-0.397D-01-0.598D+00 0.258D+00
 Coeff-Com:  0.122D+01
 Coeff-En:   0.000D+00 0.000D+00 0.000D+00 0.000D+00 0.000D+00 0.000D+00
 Coeff-En:   0.100D+01
 Coeff:     -0.664D-01 0.123D+00 0.988D-01-0.392D-01-0.591D+00 0.255D+00
 Coeff:      0.122D+01
 Gap=     0.418 Goal=   None    Shift=    0.000
 Gap=     0.390 Goal=   None    Shift=    0.000
 RMSDP=5.18D-04 MaxDP=3.59D-02 DE=-1.79D-03 OVMax= 3.62D-02

 Cycle   8  Pass 0  IDiag  1:
 RMSU=  2.25D-04    CP:  9.18D-01  2.67D+00  1.33D+00  2.46D+00  3.00D+00
                    CP:  3.00D+00  2.37D+00
 E= -226.383972175480     Delta-E=       -0.001515597958 Rises=F Damp=F
 DIIS: error= 1.30D-03 at cycle   8 NSaved=   8.
 NSaved= 8 IEnMin= 8 EnMin= -226.383972175480     IErMin= 7 ErrMin= 1.23D-03
 ErrMax= 1.30D-03  0.00D+00 EMaxC= 1.00D-01 BMatC= 4.82D-04 BMatP= 5.92D-04
 IDIUse=3 WtCom= 9.88D-01 WtEn= 1.23D-02
 Coeff-Com:  0.525D-01-0.987D-01-0.543D-01 0.208D+00 0.227D+00-0.756D+00
 Coeff-Com: -0.580D+00 0.200D+01
 Coeff-En:   0.000D+00 0.000D+00 0.000D+00 0.000D+00 0.000D+00 0.000D+00
 Coeff-En:   0.000D+00 0.100D+01
 Coeff:      0.518D-01-0.975D-01-0.536D-01 0.205D+00 0.224D+00-0.747D+00
 Coeff:     -0.573D+00 0.199D+01
 Gap=     0.421 Goal=   None    Shift=    0.000
 Gap=     0.399 Goal=   None    Shift=    0.000
 RMSDP=8.38D-04 MaxDP=5.69D-02 DE=-1.52D-03 OVMax= 5.88D-02

 Cycle   9  Pass 0  IDiag  1:
 RMSU=  4.07D-04    CP:  9.18D-01  2.66D+00  1.38D+00  2.75D+00  3.00D+00
                    CP:  3.00D+00  3.00D+00  3.00D+00
 E= -226.386069107491     Delta-E=       -0.002096932011 Rises=F Damp=F
 DIIS: error= 1.08D-03 at cycle   9 NSaved=   9.
 NSaved= 9 IEnMin= 9 EnMin= -226.386069107491     IErMin= 9 ErrMin= 1.08D-03
 ErrMax= 1.08D-03  0.00D+00 EMaxC= 1.00D-01 BMatC= 3.51D-04 BMatP= 4.82D-04
 IDIUse=3 WtCom= 9.89D-01 WtEn= 1.08D-02
 Coeff-Com:  0.286D-01-0.519D-01-0.453D-01 0.164D-01 0.227D+00 0.536D+00
 Coeff-Com: -0.139D+01-0.365D+00 0.205D+01
 Coeff-En:   0.000D+00 0.000D+00 0.000D+00 0.000D+00 0.000D+00 0.000D+00
 Coeff-En:   0.000D+00 0.000D+00 0.100D+01
 Coeff:      0.283D-01-0.514D-01-0.448D-01 0.162D-01 0.224D+00 0.530D+00
 Coeff:     -0.138D+01-0.361D+00 0.204D+01
 Gap=     0.425 Goal=   None    Shift=    0.000
 Gap=     0.410 Goal=   None    Shift=    0.000
 RMSDP=9.69D-04 MaxDP=6.50D-02 DE=-2.10D-03 OVMax= 7.03D-02

 Cycle  10  Pass 0  IDiag  1:
 RMSU=  3.90D-04    CP:  9.17D-01  2.65D+00  1.44D+00  3.00D+00  3.00D+00
                    CP:  3.00D+00  3.00D+00  3.00D+00  3.00D+00
 E= -226.387929657577     Delta-E=       -0.001860550086 Rises=F Damp=F
 DIIS: error= 8.37D-04 at cycle  10 NSaved=  10.
 NSaved=10 IEnMin=10 EnMin= -226.387929657577     IErMin=10 ErrMin= 8.37D-04
 ErrMax= 8.37D-04  0.00D+00 EMaxC= 1.00D-01 BMatC= 1.80D-04 BMatP= 3.51D-04
 IDIUse=3 WtCom= 9.92D-01 WtEn= 8.37D-03
 Coeff-Com: -0.691D-01 0.130D+00 0.895D-01-0.166D+00-0.375D+00 0.896D+00
 Coeff-Com:  0.461D+00-0.160D+01 0.124D+00 0.151D+01
 Coeff-En:   0.000D+00 0.000D+00 0.000D+00 0.000D+00 0.000D+00 0.000D+00
 Coeff-En:   0.000D+00 0.000D+00 0.000D+00 0.100D+01
 Coeff:     -0.686D-01 0.129D+00 0.887D-01-0.164D+00-0.372D+00 0.888D+00
 Coeff:      0.457D+00-0.158D+01 0.123D+00 0.150D+01
 Gap=     0.426 Goal=   None    Shift=    0.000
 Gap=     0.415 Goal=   None    Shift=    0.000
 RMSDP=4.81D-04 MaxDP=3.50D-02 DE=-1.86D-03 OVMax= 3.80D-02

 Cycle  11  Pass 0  IDiag  1:
 RMSU=  4.09D-04    CP:  9.15D-01  2.64D+00  1.45D+00  3.00D+00  3.00D+00
                    CP:  3.00D+00  3.00D+00  3.00D+00  3.00D+00  1.64D+00
 E= -226.388620683317     Delta-E=       -0.000691025740 Rises=F Damp=F
 DIIS: error= 5.80D-04 at cycle  11 NSaved=  11.
 NSaved=11 IEnMin=11 EnMin= -226.388620683317     IErMin=11 ErrMin= 5.80D-04
 ErrMax= 5.80D-04  0.00D+00 EMaxC= 1.00D-01 BMatC= 9.90D-05 BMatP= 1.80D-04
 IDIUse=3 WtCom= 9.94D-01 WtEn= 5.80D-03
 Coeff-Com:  0.998D-03-0.249D-02-0.132D-01 0.132D-01-0.187D-01-0.554D+00
 Coeff-Com:  0.394D+00 0.996D+00-0.109D+01-0.865D+00 0.214D+01
 Coeff-En:   0.000D+00 0.000D+00 0.000D+00 0.000D+00 0.000D+00 0.000D+00
 Coeff-En:   0.000D+00 0.000D+00 0.000D+00 0.000D+00 0.100D+01
 Coeff:      0.993D-03-0.247D-02-0.131D-01 0.131D-01-0.186D-01-0.551D+00
 Coeff:      0.392D+00 0.991D+00-0.109D+01-0.860D+00 0.214D+01
 Gap=     0.430 Goal=   None    Shift=    0.000
 Gap=     0.424 Goal=   None    Shift=    0.000
 RMSDP=5.20D-04 MaxDP=3.70D-02 DE=-6.91D-04 OVMax= 4.24D-02

 Cycle  12  Pass 0  IDiag  1:
 RMSU=  1.03D-04    CP:  9.14D-01  2.63D+00  1.46D+00  3.00D+00  3.00D+00
                    CP:  3.00D+00  3.00D+00  3.00D+00  3.00D+00  2.39D+00
                    CP:  2.02D+00
 E= -226.389133380813     Delta-E=       -0.000512697496 Rises=F Damp=F
 DIIS: error= 4.62D-04 at cycle  12 NSaved=  12.
 NSaved=12 IEnMin=12 EnMin= -226.389133380813     IErMin=12 ErrMin= 4.62D-04
 ErrMax= 4.62D-04  0.00D+00 EMaxC= 1.00D-01 BMatC= 4.82D-05 BMatP= 9.90D-05
 IDIUse=3 WtCom= 9.95D-01 WtEn= 4.62D-03
 Coeff-Com:  0.181D-01-0.342D-01-0.428D-02 0.459D-01 0.110D+00-0.213D+00
 Coeff-Com: -0.199D+00 0.635D+00-0.357D-01-0.384D+00-0.542D+00 0.160D+01
 Coeff-En:   0.000D+00 0.000D+00 0.000D+00 0.000D+00 0.000D+00 0.000D+00
 Coeff-En:   0.000D+00 0.000D+00 0.000D+00 0.000D+00 0.000D+00 0.100D+01
 Coeff:      0.180D-01-0.341D-01-0.426D-02 0.457D-01 0.109D+00-0.213D+00
 Coeff:     -0.198D+00 0.632D+00-0.355D-01-0.382D+00-0.539D+00 0.160D+01
 Gap=     0.429 Goal=   None    Shift=    0.000
 Gap=     0.418 Goal=   None    Shift=    0.000
 RMSDP=1.65D-04 MaxDP=8.37D-03 DE=-5.13D-04 OVMax= 8.65D-03

 Cycle  13  Pass 0  IDiag  1:
 RMSU=  1.41D-04    CP:  9.14D-01  2.63D+00  1.44D+00  3.00D+00  3.00D+00
                    CP:  3.00D+00  3.00D+00  3.00D+00  3.00D+00  2.31D+00
                    CP:  1.84D+00  1.19D+00
 E= -226.389202955753     Delta-E=       -0.000069574940 Rises=F Damp=F
 DIIS: error= 3.28D-04 at cycle  13 NSaved=  13.
 NSaved=13 IEnMin=13 EnMin= -226.389202955753     IErMin=13 ErrMin= 3.28D-04
 ErrMax= 3.28D-04  0.00D+00 EMaxC= 1.00D-01 BMatC= 3.78D-05 BMatP= 4.82D-05
 IDIUse=3 WtCom= 9.97D-01 WtEn= 3.28D-03
 Coeff-Com: -0.657D-02 0.126D-01 0.575D-02-0.898D-02-0.214D-01 0.328D+00
 Coeff-Com: -0.179D+00-0.646D+00 0.517D+00 0.391D+00-0.113D+01 0.504D+00
 Coeff-Com:  0.124D+01
 Coeff-En:   0.000D+00 0.000D+00 0.000D+00 0.000D+00 0.000D+00 0.000D+00
 Coeff-En:   0.000D+00 0.000D+00 0.000D+00 0.000D+00 0.000D+00 0.000D+00
 Coeff-En:   0.100D+01
 Coeff:     -0.654D-02 0.126D-01 0.573D-02-0.895D-02-0.214D-01 0.327D+00
 Coeff:     -0.179D+00-0.643D+00 0.515D+00 0.390D+00-0.113D+01 0.502D+00
 Coeff:      0.123D+01
 Gap=     0.432 Goal=   None    Shift=    0.000
 Gap=     0.428 Goal=   None    Shift=    0.000
 RMSDP=3.76D-04 MaxDP=2.26D-02 DE=-6.96D-05 OVMax= 2.91D-02

 Cycle  14  Pass 0  IDiag  1:
 RMSU=  5.58D-05    CP:  9.14D-01  2.62D+00  1.45D+00  3.00D+00  3.00D+00
                    CP:  3.00D+00  3.00D+00  3.00D+00  3.00D+00  2.81D+00
                    CP:  2.59D+00  1.88D+00  9.82D-01
 E= -226.389378270276     Delta-E=       -0.000175314523 Rises=F Damp=F
 DIIS: error= 2.65D-04 at cycle  14 NSaved=  14.
 NSaved=14 IEnMin=14 EnMin= -226.389378270276     IErMin=14 ErrMin= 2.65D-04
 ErrMax= 2.65D-04  0.00D+00 EMaxC= 1.00D-01 BMatC= 2.07D-05 BMatP= 3.78D-05
 IDIUse=3 WtCom= 9.97D-01 WtEn= 2.65D-03
 Coeff-Com: -0.752D-02 0.145D-01 0.407D-03-0.387D-01 0.203D-01 0.941D-01
 Coeff-Com:  0.106D+00-0.514D+00 0.231D+00 0.418D+00-0.297D+00-0.651D+00
 Coeff-Com:  0.505D+00 0.112D+01
 Coeff-En:   0.000D+00 0.000D+00 0.000D+00 0.000D+00 0.000D+00 0.000D+00
 Coeff-En:   0.000D+00 0.000D+00 0.000D+00 0.000D+00 0.000D+00 0.000D+00
 Coeff-En:   0.000D+00 0.100D+01
 Coeff:     -0.750D-02 0.145D-01 0.406D-03-0.386D-01 0.202D-01 0.938D-01
 Coeff:      0.105D+00-0.513D+00 0.231D+00 0.417D+00-0.296D+00-0.649D+00
 Coeff:      0.504D+00 0.112D+01
 Gap=     0.433 Goal=   None    Shift=    0.000
 Gap=     0.428 Goal=   None    Shift=    0.000
 RMSDP=7.36D-05 MaxDP=3.50D-03 DE=-1.75D-04 OVMax= 8.78D-03

 Cycle  15  Pass 0  IDiag  1:
 RMSU=  2.58D-05    CP:  9.14D-01  2.62D+00  1.45D+00  3.00D+00  3.00D+00
                    CP:  3.00D+00  3.00D+00  3.00D+00  3.00D+00  2.86D+00
                    CP:  2.67D+00  2.18D+00  1.25D+00  1.56D+00
 E= -226.389418153468     Delta-E=       -0.000039883192 Rises=F Damp=F
 DIIS: error= 1.82D-04 at cycle  15 NSaved=  15.
 NSaved=15 IEnMin=15 EnMin= -226.389418153468     IErMin=15 ErrMin= 1.82D-04
 ErrMax= 1.82D-04  0.00D+00 EMaxC= 1.00D-01 BMatC= 9.14D-06 BMatP= 2.07D-05
 IDIUse=3 WtCom= 9.98D-01 WtEn= 1.82D-03
 Coeff-Com: -0.168D-02 0.303D-02 0.299D-02-0.144D-01 0.134D-01-0.159D+00
 Coeff-Com:  0.192D+00 0.210D+00-0.246D+00-0.126D+00 0.542D+00-0.417D+00
 Coeff-Com: -0.402D+00-0.366D+00 0.177D+01
 Coeff-En:   0.000D+00 0.000D+00 0.000D+00 0.000D+00 0.000D+00 0.000D+00
 Coeff-En:   0.000D+00 0.000D+00 0.000D+00 0.000D+00 0.000D+00 0.000D+00
 Coeff-En:   0.000D+00 0.000D+00 0.100D+01
 Coeff:     -0.167D-02 0.302D-02 0.298D-02-0.144D-01 0.133D-01-0.158D+00
 Coeff:      0.191D+00 0.210D+00-0.245D+00-0.126D+00 0.541D+00-0.417D+00
 Coeff:     -0.401D+00-0.366D+00 0.177D+01
 Gap=     0.432 Goal=   None    Shift=    0.000
 Gap=     0.423 Goal=   None    Shift=    0.000
 RMSDP=1.38D-04 MaxDP=8.23D-03 DE=-3.99D-05 OVMax= 7.32D-03

 Cycle  16  Pass 0  IDiag  1:
 RMSU=  1.84D-05    CP:  9.15D-01  2.62D+00  1.45D+00  3.00D+00  3.00D+00
                    CP:  3.00D+00  3.00D+00  3.00D+00  3.00D+00  2.71D+00
                    CP:  2.46D+00  2.25D+00  1.78D+00  2.04D+00  2.39D+00
 E= -226.389435386128     Delta-E=       -0.000017232660 Rises=F Damp=F
 DIIS: error= 1.71D-04 at cycle  16 NSaved=  16.
 NSaved=16 IEnMin=16 EnMin= -226.389435386128     IErMin=16 ErrMin= 1.71D-04
 ErrMax= 1.71D-04  0.00D+00 EMaxC= 1.00D-01 BMatC= 6.97D-06 BMatP= 9.14D-06
 IDIUse=3 WtCom= 9.98D-01 WtEn= 1.71D-03
 Coeff-Com: -0.235D-02 0.432D-02 0.342D-03-0.136D-03-0.284D-01-0.278D-01
 Coeff-Com:  0.527D-01 0.112D+00-0.151D+00-0.155D+00 0.367D+00-0.512D-01
 Coeff-Com: -0.335D+00-0.296D+00 0.666D+00 0.845D+00
 Coeff-En:   0.000D+00 0.000D+00 0.000D+00 0.000D+00 0.000D+00 0.000D+00
 Coeff-En:   0.000D+00 0.000D+00 0.000D+00 0.000D+00 0.000D+00 0.000D+00
 Coeff-En:   0.000D+00 0.000D+00 0.000D+00 0.100D+01
 Coeff:     -0.235D-02 0.431D-02 0.341D-03-0.135D-03-0.284D-01-0.278D-01
 Coeff:      0.526D-01 0.112D+00-0.151D+00-0.154D+00 0.366D+00-0.511D-01
 Coeff:     -0.334D+00-0.295D+00 0.665D+00 0.845D+00
 Gap=     0.433 Goal=   None    Shift=    0.000
 Gap=     0.427 Goal=   None    Shift=    0.000
 RMSDP=1.11D-04 MaxDP=7.58D-03 DE=-1.72D-05 OVMax= 8.20D-03

 Cycle  17  Pass 0  IDiag  1:
 RMSU=  1.14D-05    CP:  9.15D-01  2.61D+00  1.45D+00  3.00D+00  3.00D+00
                    CP:  3.00D+00  3.00D+00  3.00D+00  3.00D+00  2.85D+00
                    CP:  2.67D+00  2.44D+00  1.74D+00  2.46D+00  2.74D+00
                    CP:  1.30D+00
 E= -226.389451594168     Delta-E=       -0.000016208040 Rises=F Damp=F
 DIIS: error= 6.19D-05 at cycle  17 NSaved=  17.
 NSaved=17 IEnMin=17 EnMin= -226.389451594168     IErMin=17 ErrMin= 6.19D-05
 ErrMax= 6.19D-05  0.00D+00 EMaxC= 1.00D-01 BMatC= 1.39D-06 BMatP= 6.97D-06
 IDIUse=1 WtCom= 1.00D+00 WtEn= 0.00D+00
 Coeff-Com:  0.360D-02-0.677D-02-0.295D-02 0.125D-01 0.818D-02-0.125D-02
 Coeff-Com: -0.951D-01 0.121D+00 0.101D-01-0.963D-01-0.695D-01 0.314D+00
 Coeff-Com: -0.894D-01-0.757D-01-0.523D+00 0.194D+00 0.130D+01
 Coeff:      0.360D-02-0.677D-02-0.295D-02 0.125D-01 0.818D-02-0.125D-02
 Coeff:     -0.951D-01 0.121D+00 0.101D-01-0.963D-01-0.695D-01 0.314D+00
 Coeff:     -0.894D-01-0.757D-01-0.523D+00 0.194D+00 0.130D+01
 Gap=     0.434 Goal=   None    Shift=    0.000
 Gap=     0.426 Goal=   None    Shift=    0.000
 RMSDP=3.56D-05 MaxDP=2.61D-03 DE=-1.62D-05 OVMax= 2.77D-03

 Cycle  18  Pass 0  IDiag  1:
 RMSU=  1.25D-05    CP:  9.15D-01  2.61D+00  1.45D+00  3.00D+00  3.00D+00
                    CP:  3.00D+00  3.00D+00  3.00D+00  3.00D+00  2.83D+00
                    CP:  2.65D+00  2.50D+00  1.87D+00  2.71D+00  3.00D+00
                    CP:  1.97D+00  1.68D+00
 E= -226.389455633374     Delta-E=       -0.000004039206 Rises=F Damp=F
 DIIS: error= 4.13D-05 at cycle  18 NSaved=  18.
 NSaved=18 IEnMin=18 EnMin= -226.389455633374     IErMin=18 ErrMin= 4.13D-05
 ErrMax= 4.13D-05  0.00D+00 EMaxC= 1.00D-01 BMatC= 4.35D-07 BMatP= 1.39D-06
 IDIUse=1 WtCom= 1.00D+00 WtEn= 0.00D+00
 Coeff-Com: -0.108D-02 0.205D-02 0.157D-03-0.675D-02 0.860D-02-0.154D-01
 Coeff-Com:  0.408D-01-0.540D-01 0.134D-01 0.533D-01-0.487D-02-0.145D+00
 Coeff-Com:  0.898D-01 0.943D-01 0.123D+00-0.372D+00-0.568D+00 0.174D+01
 Coeff:     -0.108D-02 0.205D-02 0.157D-03-0.675D-02 0.860D-02-0.154D-01
 Coeff:      0.408D-01-0.540D-01 0.134D-01 0.533D-01-0.487D-02-0.145D+00
 Coeff:      0.898D-01 0.943D-01 0.123D+00-0.372D+00-0.568D+00 0.174D+01
 Gap=     0.434 Goal=   None    Shift=    0.000
 Gap=     0.427 Goal=   None    Shift=    0.000
 RMSDP=2.24D-05 MaxDP=1.24D-03 DE=-4.04D-06 OVMax= 2.02D-03

 Cycle  19  Pass 0  IDiag  1:
 RMSU=  4.89D-06    CP:  9.15D-01  2.61D+00  1.45D+00  3.00D+00  3.00D+00
                    CP:  3.00D+00  3.00D+00  3.00D+00  3.00D+00  2.84D+00
                    CP:  2.68D+00  2.57D+00  1.91D+00  2.87D+00  3.00D+00
                    CP:  2.31D+00  2.24D+00  1.87D+00
 E= -226.389457152577     Delta-E=       -0.000001519203 Rises=F Damp=F
 DIIS: error= 3.19D-05 at cycle  19 NSaved=  19.
 NSaved=19 IEnMin=19 EnMin= -226.389457152577     IErMin=19 ErrMin= 3.19D-05
 ErrMax= 3.19D-05  0.00D+00 EMaxC= 1.00D-01 BMatC= 2.27D-07 BMatP= 4.35D-07
 IDIUse=1 WtCom= 1.00D+00 WtEn= 0.00D+00
 Coeff-Com: -0.208D-03 0.387D-03 0.154D-03 0.659D-04-0.307D-02 0.540D-03
 Coeff-Com:  0.638D-02 0.128D-02-0.792D-02-0.738D-02 0.237D-01-0.264D-01
 Coeff-Com:  0.578D-02-0.164D-01 0.595D-01 0.656D-01-0.102D+00-0.353D+00
 Coeff-Com:  0.135D+01
 Coeff:     -0.208D-03 0.387D-03 0.154D-03 0.659D-04-0.307D-02 0.540D-03
 Coeff:      0.638D-02 0.128D-02-0.792D-02-0.738D-02 0.237D-01-0.264D-01
 Coeff:      0.578D-02-0.164D-01 0.595D-01 0.656D-01-0.102D+00-0.353D+00
 Coeff:      0.135D+01
 Gap=     0.434 Goal=   None    Shift=    0.000
 Gap=     0.426 Goal=   None    Shift=    0.000
 RMSDP=9.26D-06 MaxDP=4.23D-04 DE=-1.52D-06 OVMax= 5.64D-04

 Initial convergence to 1.0D-05 achieved.  Increase integral accuracy.
 Cycle  20  Pass 1  IDiag  1:
 E= -226.389457719798     Delta-E=       -0.000000567221 Rises=F Damp=F
 DIIS: error= 3.74D-05 at cycle   1 NSaved=   1.
 NSaved= 1 IEnMin= 1 EnMin= -226.389457719798     IErMin= 1 ErrMin= 3.74D-05
 ErrMax= 3.74D-05  0.00D+00 EMaxC= 1.00D-01 BMatC= 2.26D-07 BMatP= 2.26D-07
 IDIUse=1 WtCom= 1.00D+00 WtEn= 0.00D+00
 Coeff-Com:  0.100D+01
 Coeff:      0.100D+01
 Gap=     0.434 Goal=   None    Shift=    0.000
 Gap=     0.426 Goal=   None    Shift=    0.000
 RMSDP=9.26D-06 MaxDP=4.23D-04 DE=-5.67D-07 OVMax= 3.76D-04

 Cycle  21  Pass 1  IDiag  1:
 RMSU=  3.96D-06    CP:  1.00D+00
 E= -226.389458092317     Delta-E=       -0.000000372519 Rises=F Damp=F
 DIIS: error= 4.05D-05 at cycle   2 NSaved=   2.
 NSaved= 2 IEnMin= 2 EnMin= -226.389458092317     IErMin= 1 ErrMin= 3.74D-05
 ErrMax= 4.05D-05  0.00D+00 EMaxC= 1.00D-01 BMatC= 2.57D-07 BMatP= 2.26D-07
 IDIUse=1 WtCom= 1.00D+00 WtEn= 0.00D+00
 Coeff-Com:  0.225D+01-0.125D+01
 Coeff:      0.225D+01-0.125D+01
 Gap=     0.434 Goal=   None    Shift=    0.000
 Gap=     0.426 Goal=   None    Shift=    0.000
 RMSDP=5.29D-06 MaxDP=3.24D-04 DE=-3.73D-07 OVMax= 5.10D-04

 Cycle  22  Pass 1  IDiag  1:
 RMSU=  9.28D-07    CP:  1.00D+00 -3.16D-01
 E= -226.389457596040     Delta-E=        0.000000496277 Rises=F Damp=F
 DIIS: error= 3.52D-05 at cycle   3 NSaved=   3.
 NSaved= 3 IEnMin= 2 EnMin= -226.389458092317     IErMin= 3 ErrMin= 3.52D-05
 ErrMax= 3.52D-05  0.00D+00 EMaxC= 1.00D-01 BMatC= 2.20D-07 BMatP= 2.26D-07
 IDIUse=1 WtCom= 1.00D+00 WtEn= 0.00D+00
 Coeff-Com:  0.267D+01-0.426D+01 0.258D+01
 Coeff:      0.267D+01-0.426D+01 0.258D+01
 Gap=     0.434 Goal=   None    Shift=    0.000
 Gap=     0.426 Goal=   None    Shift=    0.000
 RMSDP=1.66D-05 MaxDP=9.86D-04 DE= 4.96D-07 OVMax= 1.64D-03

 Cycle  23  Pass 1  IDiag  1:
 RMSU=  5.99D-06    CP:  1.00D+00 -3.00D+00  3.00D+00
 E= -226.389456444344     Delta-E=        0.000001151696 Rises=F Damp=F
 DIIS: error= 1.99D-05 at cycle   4 NSaved=   4.
 NSaved= 4 IEnMin= 2 EnMin= -226.389458092317     IErMin= 4 ErrMin= 1.99D-05
 ErrMax= 1.99D-05  0.00D+00 EMaxC= 1.00D-01 BMatC= 1.12D-07 BMatP= 2.20D-07
 IDIUse=1 WtCom= 1.00D+00 WtEn= 0.00D+00
 Coeff-Com: -0.541D+01 0.571D+01-0.234D+01 0.304D+01
 Coeff:     -0.541D+01 0.571D+01-0.234D+01 0.304D+01
 Gap=     0.434 Goal=   None    Shift=    0.000
 Gap=     0.426 Goal=   None    Shift=    0.000
 RMSDP=1.12D-05 MaxDP=6.49D-04 DE= 1.15D-06 OVMax= 1.07D-03

 Cycle  24  Pass 1  IDiag  1:
 RMSU=  4.49D-06    CP:  1.00D+00 -3.00D+00  3.00D+00  2.71D+00
 E= -226.389456181449     Delta-E=        0.000000262894 Rises=F Damp=F
 DIIS: error= 9.84D-06 at cycle   5 NSaved=   5.
 NSaved= 5 IEnMin= 2 EnMin= -226.389458092317     IErMin= 5 ErrMin= 9.84D-06
 ErrMax= 9.84D-06  0.00D+00 EMaxC= 1.00D-01 BMatC= 4.40D-08 BMatP= 1.12D-07
 IDIUse=1 WtCom= 1.00D+00 WtEn= 0.00D+00
 Coeff-Com: -0.344D+01 0.438D+01-0.215D+01 0.923D+00 0.130D+01
 Coeff:     -0.344D+01 0.438D+01-0.215D+01 0.923D+00 0.130D+01
 Gap=     0.434 Goal=   None    Shift=    0.000
 Gap=     0.426 Goal=   None    Shift=    0.000
 RMSDP=6.29D-06 MaxDP=3.86D-04 DE= 2.63D-07 OVMax= 5.66D-04

 Cycle  25  Pass 1  IDiag  1:
 RMSU=  3.39D-06    CP:  1.00D+00 -3.00D+00  3.00D+00  3.00D+00  1.85D+00
 E= -226.389456186502     Delta-E=       -0.000000005053 Rises=F Damp=F
 DIIS: error= 6.61D-06 at cycle   6 NSaved=   6.
 NSaved= 6 IEnMin= 2 EnMin= -226.389458092317     IErMin= 6 ErrMin= 6.61D-06
 ErrMax= 6.61D-06  0.00D+00 EMaxC= 1.00D-01 BMatC= 1.55D-08 BMatP= 4.40D-08
 IDIUse=1 WtCom= 1.00D+00 WtEn= 0.00D+00
 Coeff-Com:  0.144D+01-0.143D+01 0.547D+00-0.940D+00 0.172D+00 0.122D+01
 Coeff:      0.144D+01-0.143D+01 0.547D+00-0.940D+00 0.172D+00 0.122D+01
 Gap=     0.434 Goal=   None    Shift=    0.000
 Gap=     0.426 Goal=   None    Shift=    0.000
 RMSDP=2.70D-06 MaxDP=1.54D-04 DE=-5.05D-09 OVMax= 1.94D-04

 Cycle  26  Pass 1  IDiag  1:
 RMSU=  8.43D-07    CP:  1.00D+00 -3.00D+00  3.00D+00  3.00D+00  2.29D+00
                    CP:  1.47D+00
 E= -226.389456208818     Delta-E=       -0.000000022316 Rises=F Damp=F
 DIIS: error= 4.82D-06 at cycle   7 NSaved=   7.
 NSaved= 7 IEnMin= 2 EnMin= -226.389458092317     IErMin= 7 ErrMin= 4.82D-06
 ErrMax= 4.82D-06  0.00D+00 EMaxC= 1.00D-01 BMatC= 7.34D-09 BMatP= 1.55D-08
 IDIUse=1 WtCom= 1.00D+00 WtEn= 0.00D+00
 Coeff-Com:  0.207D+01-0.239D+01 0.104D+01-0.736D+00-0.472D+00 0.360D+00
 Coeff-Com:  0.113D+01
 Coeff:      0.207D+01-0.239D+01 0.104D+01-0.736D+00-0.472D+00 0.360D+00
 Coeff:      0.113D+01
 Gap=     0.434 Goal=   None    Shift=    0.000
 Gap=     0.426 Goal=   None    Shift=    0.000
 RMSDP=1.60D-06 MaxDP=7.11D-05 DE=-2.23D-08 OVMax= 9.39D-05

 Cycle  27  Pass 1  IDiag  1:
 RMSU=  5.83D-07    CP:  1.00D+00 -3.00D+00  3.00D+00  3.00D+00  2.55D+00
                    CP:  1.64D+00  1.87D+00
 E= -226.389456222676     Delta-E=       -0.000000013858 Rises=F Damp=F
 DIIS: error= 3.28D-06 at cycle   8 NSaved=   8.
 NSaved= 8 IEnMin= 2 EnMin= -226.389458092317     IErMin= 8 ErrMin= 3.28D-06
 ErrMax= 3.28D-06  0.00D+00 EMaxC= 1.00D-01 BMatC= 3.26D-09 BMatP= 7.34D-09
 IDIUse=1 WtCom= 1.00D+00 WtEn= 0.00D+00
 Coeff-Com: -0.528D+00 0.627D+00-0.342D+00 0.379D+00-0.447D-02-0.537D+00
 Coeff-Com: -0.142D-01 0.142D+01
 Coeff:     -0.528D+00 0.627D+00-0.342D+00 0.379D+00-0.447D-02-0.537D+00
 Coeff:     -0.142D-01 0.142D+01
 Gap=     0.434 Goal=   None    Shift=    0.000
 Gap=     0.426 Goal=   None    Shift=    0.000
 RMSDP=1.00D-06 MaxDP=4.22D-05 DE=-1.39D-08 OVMax= 8.28D-05

 Cycle  28  Pass 1  IDiag  1:
 RMSU=  3.73D-07    CP:  1.00D+00 -3.00D+00  3.00D+00  3.00D+00  2.67D+00
                    CP:  1.74D+00  2.56D+00  1.63D+00
 E= -226.389456230410     Delta-E=       -0.000000007735 Rises=F Damp=F
 DIIS: error= 2.80D-06 at cycle   9 NSaved=   9.
 NSaved= 9 IEnMin= 2 EnMin= -226.389458092317     IErMin= 9 ErrMin= 2.80D-06
 ErrMax= 2.80D-06  0.00D+00 EMaxC= 1.00D-01 BMatC= 1.58D-09 BMatP= 3.26D-09
 IDIUse=1 WtCom= 1.00D+00 WtEn= 0.00D+00
 Coeff-Com: -0.686D+00 0.845D+00-0.387D+00 0.147D+00 0.291D+00 0.424D-01
 Coeff-Com: -0.590D+00-0.556D+00 0.190D+01
 Coeff:     -0.686D+00 0.845D+00-0.387D+00 0.147D+00 0.291D+00 0.424D-01
 Coeff:     -0.590D+00-0.556D+00 0.190D+01
 Gap=     0.434 Goal=   None    Shift=    0.000
 Gap=     0.426 Goal=   None    Shift=    0.000
 RMSDP=9.07D-07 MaxDP=4.44D-05 DE=-7.73D-09 OVMax= 9.44D-05

 Cycle  29  Pass 1  IDiag  1:
 RMSU=  2.39D-07    CP:  1.00D+00 -3.00D+00  3.00D+00  3.00D+00  2.76D+00
                    CP:  1.78D+00  3.00D+00  2.34D+00  2.28D+00
 E= -226.389456235776     Delta-E=       -0.000000005366 Rises=F Damp=F
 DIIS: error= 1.71D-06 at cycle  10 NSaved=  10.
 NSaved=10 IEnMin= 2 EnMin= -226.389458092317     IErMin=10 ErrMin= 1.71D-06
 ErrMax= 1.71D-06  0.00D+00 EMaxC= 1.00D-01 BMatC= 6.98D-10 BMatP= 1.58D-09
 IDIUse=1 WtCom= 1.00D+00 WtEn= 0.00D+00
 Coeff-Com:  0.561D-01-0.583D-01 0.363D-01-0.735D-01 0.237D-01 0.133D+00
 Coeff-Com: -0.234D-01-0.410D+00-0.446D-01 0.136D+01
 Coeff:      0.561D-01-0.583D-01 0.363D-01-0.735D-01 0.237D-01 0.133D+00
 Coeff:     -0.234D-01-0.410D+00-0.446D-01 0.136D+01
 Gap=     0.434 Goal=   None    Shift=    0.000
 Gap=     0.426 Goal=   None    Shift=    0.000
 RMSDP=5.27D-07 MaxDP=2.75D-05 DE=-5.37D-09 OVMax= 6.24D-05

 Cycle  30  Pass 1  IDiag  1:
 RMSU=  2.17D-07    CP:  1.00D+00 -3.00D+00  3.00D+00  3.00D+00  2.80D+00
                    CP:  1.80D+00  3.00D+00  2.70D+00  3.00D+00  2.03D+00
 E= -226.389456238102     Delta-E=       -0.000000002326 Rises=F Damp=F
 DIIS: error= 1.43D-06 at cycle  11 NSaved=  11.
 NSaved=11 IEnMin= 2 EnMin= -226.389458092317     IErMin=11 ErrMin= 1.43D-06
 ErrMax= 1.43D-06  0.00D+00 EMaxC= 1.00D-01 BMatC= 4.10D-10 BMatP= 6.98D-10
 IDIUse=1 WtCom= 1.00D+00 WtEn= 0.00D+00
 Coeff-Com:  0.256D+00-0.333D+00 0.144D+00 0.280D-01-0.196D+00-0.154D+00
 Coeff-Com:  0.391D+00 0.648D+00-0.125D+01-0.708D+00 0.217D+01
 Coeff:      0.256D+00-0.333D+00 0.144D+00 0.280D-01-0.196D+00-0.154D+00
 Coeff:      0.391D+00 0.648D+00-0.125D+01-0.708D+00 0.217D+01
 Gap=     0.434 Goal=   None    Shift=    0.000
 Gap=     0.426 Goal=   None    Shift=    0.000
 RMSDP=5.91D-07 MaxDP=3.09D-05 DE=-2.33D-09 OVMax= 7.20D-05

 Cycle  31  Pass 1  IDiag  1:
 RMSU=  3.22D-07    CP:  1.00D+00 -3.00D+00  3.00D+00  3.00D+00  2.84D+00
                    CP:  1.82D+00  3.00D+00  3.00D+00  3.00D+00  3.00D+00
                    CP:  2.20D+00
 E= -226.389456240036     Delta-E=       -0.000000001934 Rises=F Damp=F
 DIIS: error= 9.20D-07 at cycle  12 NSaved=  12.
 NSaved=12 IEnMin= 2 EnMin= -226.389458092317     IErMin=12 ErrMin= 9.20D-07
 ErrMax= 9.20D-07  0.00D+00 EMaxC= 1.00D-01 BMatC= 1.83D-10 BMatP= 4.10D-10
 IDIUse=1 WtCom= 1.00D+00 WtEn= 0.00D+00
 Coeff-Com: -0.538D-01 0.442D-01-0.209D-01 0.779D-01-0.491D-01-0.119D+00
 Coeff-Com:  0.805D-01 0.355D+00-0.228D+00-0.798D+00 0.409D+00 0.130D+01
 Coeff:     -0.538D-01 0.442D-01-0.209D-01 0.779D-01-0.491D-01-0.119D+00
 Coeff:      0.805D-01 0.355D+00-0.228D+00-0.798D+00 0.409D+00 0.130D+01
 Gap=     0.434 Goal=   None    Shift=    0.000
 Gap=     0.426 Goal=   None    Shift=    0.000
 RMSDP=4.16D-07 MaxDP=2.43D-05 DE=-1.93D-09 OVMax= 4.72D-05

 Cycle  32  Pass 1  IDiag  1:
 RMSU=  1.86D-07    CP:  1.00D+00 -3.00D+00  3.00D+00  3.00D+00  2.87D+00
                    CP:  1.82D+00  3.00D+00  3.00D+00  3.00D+00  3.00D+00
                    CP:  3.00D+00  1.91D+00
 E= -226.389456240835     Delta-E=       -0.000000000799 Rises=F Damp=F
 DIIS: error= 4.49D-07 at cycle  13 NSaved=  13.
 NSaved=13 IEnMin= 2 EnMin= -226.389458092317     IErMin=13 ErrMin= 4.49D-07
 ErrMax= 4.49D-07  0.00D+00 EMaxC= 1.00D-01 BMatC= 8.02D-11 BMatP= 1.83D-10
 IDIUse=1 WtCom= 1.00D+00 WtEn= 0.00D+00
 Coeff-Com: -0.229D+00 0.274D+00-0.112D+00 0.266D-01 0.108D+00 0.583D-01
 Coeff-Com: -0.223D+00-0.316D+00 0.683D+00 0.374D+00-0.126D+01 0.827D-01
 Coeff-Com:  0.153D+01
 Coeff:     -0.229D+00 0.274D+00-0.112D+00 0.266D-01 0.108D+00 0.583D-01
 Coeff:     -0.223D+00-0.316D+00 0.683D+00 0.374D+00-0.126D+01 0.827D-01
 Coeff:      0.153D+01
 Gap=     0.434 Goal=   None    Shift=    0.000
 Gap=     0.426 Goal=   None    Shift=    0.000
 RMSDP=3.51D-07 MaxDP=2.42D-05 DE=-7.99D-10 OVMax= 3.51D-05

 Cycle  33  Pass 1  IDiag  1:
 RMSU=  1.50D-07    CP:  1.00D+00 -3.00D+00  3.00D+00  3.00D+00  2.88D+00
                    CP:  1.83D+00  3.00D+00  3.00D+00  3.00D+00  3.00D+00
                    CP:  3.00D+00  2.71D+00  1.86D+00
 E= -226.389456241196     Delta-E=       -0.000000000361 Rises=F Damp=F
 DIIS: error= 2.64D-07 at cycle  14 NSaved=  14.
 NSaved=14 IEnMin= 2 EnMin= -226.389458092317     IErMin=14 ErrMin= 2.64D-07
 ErrMax= 2.64D-07  0.00D+00 EMaxC= 1.00D-01 BMatC= 2.50D-11 BMatP= 8.02D-11
 IDIUse=1 WtCom= 1.00D+00 WtEn= 0.00D+00
 Coeff-Com:  0.870D-01-0.108D+00 0.502D-01-0.210D-01-0.374D-01 0.957D-02
 Coeff-Com:  0.764D-01 0.154D-01-0.241D+00 0.207D+00 0.334D+00-0.575D+00
 Coeff-Com: -0.647D+00 0.185D+01
 Coeff:      0.870D-01-0.108D+00 0.502D-01-0.210D-01-0.374D-01 0.957D-02
 Coeff:      0.764D-01 0.154D-01-0.241D+00 0.207D+00 0.334D+00-0.575D+00
 Coeff:     -0.647D+00 0.185D+01
 Gap=     0.434 Goal=   None    Shift=    0.000
 Gap=     0.426 Goal=   None    Shift=    0.000
 RMSDP=2.36D-07 MaxDP=1.68D-05 DE=-3.61D-10 OVMax= 1.89D-05

 Cycle  34  Pass 1  IDiag  1:
 RMSU=  9.48D-08    CP:  1.00D+00 -3.00D+00  3.00D+00  3.00D+00  2.89D+00
                    CP:  1.83D+00  3.00D+00  3.00D+00  3.00D+00  3.00D+00
                    CP:  3.00D+00  3.00D+00  2.42D+00  1.70D+00
 E= -226.389456241296     Delta-E=       -0.000000000100 Rises=F Damp=F
 DIIS: error= 1.08D-07 at cycle  15 NSaved=  15.
 NSaved=15 IEnMin= 2 EnMin= -226.389458092317     IErMin=15 ErrMin= 1.08D-07
 ErrMax= 1.08D-07  0.00D+00 EMaxC= 1.00D-01 BMatC= 5.59D-12 BMatP= 2.50D-11
 IDIUse=1 WtCom= 1.00D+00 WtEn= 0.00D+00
 Coeff-Com:  0.787D-02-0.958D-02 0.132D-02 0.919D-02-0.127D-01-0.201D-01
 Coeff-Com:  0.206D-01 0.620D-01-0.216D-01-0.234D+00 0.126D+00 0.353D+00
 Coeff-Com: -0.578D-02-0.120D+01 0.193D+01
 Coeff:      0.787D-02-0.958D-02 0.132D-02 0.919D-02-0.127D-01-0.201D-01
 Coeff:      0.206D-01 0.620D-01-0.216D-01-0.234D+00 0.126D+00 0.353D+00
 Coeff:     -0.578D-02-0.120D+01 0.193D+01
 Gap=     0.434 Goal=   None    Shift=    0.000
 Gap=     0.426 Goal=   None    Shift=    0.000
 RMSDP=1.02D-07 MaxDP=6.71D-06 DE=-1.00D-10 OVMax= 7.69D-06

 Cycle  35  Pass 1  IDiag  1:
 RMSU=  2.06D-08    CP:  1.00D+00 -3.00D+00  3.00D+00  3.00D+00  2.89D+00
                    CP:  1.83D+00  3.00D+00  3.00D+00  3.00D+00  3.00D+00
                    CP:  3.00D+00  3.00D+00  2.62D+00  2.01D+00  1.82D+00
 E= -226.389456241314     Delta-E=       -0.000000000018 Rises=F Damp=F
 DIIS: error= 4.44D-08 at cycle  16 NSaved=  16.
 NSaved=16 IEnMin= 2 EnMin= -226.389458092317     IErMin=16 ErrMin= 4.44D-08
 ErrMax= 4.44D-08  0.00D+00 EMaxC= 1.00D-01 BMatC= 8.49D-13 BMatP= 5.59D-12
 IDIUse=1 WtCom= 1.00D+00 WtEn= 0.00D+00
 Coeff-Com: -0.179D-01 0.220D-01-0.916D-02 0.657D-03 0.103D-01 0.750D-02
 Coeff-Com: -0.219D-01-0.345D-01 0.714D-01 0.305D-01-0.118D+00 0.979D-02
 Coeff-Com:  0.129D+00 0.388D-01-0.604D+00 0.149D+01
 Coeff:     -0.179D-01 0.220D-01-0.916D-02 0.657D-03 0.103D-01 0.750D-02
 Coeff:     -0.219D-01-0.345D-01 0.714D-01 0.305D-01-0.118D+00 0.979D-02
 Coeff:      0.129D+00 0.388D-01-0.604D+00 0.149D+01
 Gap=     0.434 Goal=   None    Shift=    0.000
 Gap=     0.426 Goal=   None    Shift=    0.000
 RMSDP=2.63D-08 MaxDP=1.36D-06 DE=-1.80D-11 OVMax= 1.63D-06

 Cycle  36  Pass 1  IDiag  1:
 RMSU=  8.56D-09    CP:  1.00D+00 -3.00D+00  3.00D+00  3.00D+00  2.89D+00
                    CP:  1.83D+00  3.00D+00  3.00D+00  3.00D+00  3.00D+00
                    CP:  3.00D+00  3.00D+00  2.65D+00  2.08D+00  2.02D+00
                    CP:  1.60D+00
 E= -226.389456241321     Delta-E=       -0.000000000007 Rises=F Damp=F
 DIIS: error= 2.93D-08 at cycle  17 NSaved=  17.
 NSaved=17 IEnMin= 2 EnMin= -226.389458092317     IErMin=17 ErrMin= 2.93D-08
 ErrMax= 2.93D-08  0.00D+00 EMaxC= 1.00D-01 BMatC= 2.23D-13 BMatP= 8.49D-13
 IDIUse=1 WtCom= 1.00D+00 WtEn= 0.00D+00
 Coeff-Com:  0.504D-02-0.638D-02 0.331D-02-0.202D-02-0.165D-02 0.241D-02
 Coeff-Com:  0.338D-02-0.449D-02-0.113D-01 0.282D-01 0.892D-02-0.552D-01
 Coeff-Com: -0.416D-01 0.202D+00-0.179D+00-0.404D+00 0.145D+01
 Coeff:      0.504D-02-0.638D-02 0.331D-02-0.202D-02-0.165D-02 0.241D-02
 Coeff:      0.338D-02-0.449D-02-0.113D-01 0.282D-01 0.892D-02-0.552D-01
 Coeff:     -0.416D-01 0.202D+00-0.179D+00-0.404D+00 0.145D+01
 Gap=     0.434 Goal=   None    Shift=    0.000
 Gap=     0.426 Goal=   None    Shift=    0.000
 RMSDP=1.21D-08 MaxDP=9.66D-07 DE=-7.05D-12 OVMax= 6.44D-07

 Cycle  37  Pass 1  IDiag  1:
 RMSU=  3.84D-09    CP:  1.00D+00 -3.00D+00  3.00D+00  3.00D+00  2.89D+00
                    CP:  1.83D+00  3.00D+00  3.00D+00  3.00D+00  3.00D+00
                    CP:  3.00D+00  3.00D+00  2.65D+00  2.10D+00  2.09D+00
                    CP:  1.85D+00  1.80D+00
 E= -226.389456241317     Delta-E=        0.000000000004 Rises=F Damp=F
 DIIS: error= 1.48D-08 at cycle  18 NSaved=  18.
 NSaved=18 IEnMin= 2 EnMin= -226.389458092317     IErMin=18 ErrMin= 1.48D-08
 ErrMax= 1.48D-08  0.00D+00 EMaxC= 1.00D-01 BMatC= 7.60D-14 BMatP= 2.23D-13
 IDIUse=1 WtCom= 1.00D+00 WtEn= 0.00D+00
 Coeff-Com:  0.283D-02-0.353D-02 0.132D-02 0.642D-03-0.241D-02-0.229D-02
 Coeff-Com:  0.453D-02 0.790D-02-0.113D-01-0.159D-01 0.235D-01 0.155D-01
 Coeff-Com: -0.280D-01-0.455D-01 0.186D+00-0.321D+00-0.400D+00 0.159D+01
 Coeff:      0.283D-02-0.353D-02 0.132D-02 0.642D-03-0.241D-02-0.229D-02
 Coeff:      0.453D-02 0.790D-02-0.113D-01-0.159D-01 0.235D-01 0.155D-01
 Coeff:     -0.280D-01-0.455D-01 0.186D+00-0.321D+00-0.400D+00 0.159D+01
 Gap=     0.434 Goal=   None    Shift=    0.000
 Gap=     0.426 Goal=   None    Shift=    0.000
 RMSDP=9.12D-09 MaxDP=7.11D-07 DE= 4.43D-12 OVMax= 5.39D-07

 SCF Done:  E(UHF) =  -226.389456241     A.U. after   37 cycles
            NFock= 37  Conv=0.91D-08     -V/T= 2.0004
 <Sx>= 0.0000 <Sy>= 0.0000 <Sz>= 0.5000 <S**2>= 1.3898 S= 0.7805
 <L.S>= 0.000000000000E+00
 KE= 2.262932359472D+02 PE=-8.512506226954D+02 EE= 2.312190784115D+02
 Annihilation of the first spin contaminant:
 S**2 before annihilation     1.3898,   after     0.9351
 Leave Link  502 at Wed Nov  2 08:38:50 2016, MaxMem=    33554432 cpu:      1666.0
 (Enter /home/proyectos/fulerenos/M3C-v2.0/M3C-deps_CCC/g09-AM64L-G09RevC.01/l801.exe)
 Windowed orbitals will be sorted by symmetry type.
 ExpMin= 4.38D-02 ExpMax= 4.56D+03 ExpMxC= 6.82D+02 IAcc=3 IRadAn=         5 AccDes= 0.00D+00
 HarFok:  IExCor=  205 AccDes= 0.00D+00 IRadAn=         5 IDoV=-2 UseB2=F ITyADJ=14
 ICtDFT= 12500011 ScaDFX=  1.000000  1.000000  1.000000  1.000000
 Largest valence mixing into a core orbital is  1.63D-04
 Largest core mixing into a valence orbital is  5.05D-05
 Largest valence mixing into a core orbital is  1.61D-04
 Largest core mixing into a valence orbital is  4.90D-05
 Range of M.O.s used for correlation:     7   234
 NBasis=   234 NAE=    18 NBE=    17 NFC=     6 NFV=     0
 NROrb=    228 NOA=    12 NOB=    11 NVA=   216 NVB=   217

 **** Warning!!: The largest alpha MO coefficient is  0.88773472D+02


 **** Warning!!: The largest beta MO coefficient is  0.80881862D+02

 Leave Link  801 at Wed Nov  2 08:38:51 2016, MaxMem=    33554432 cpu:         0.9
 (Enter /home/proyectos/fulerenos/M3C-v2.0/M3C-deps_CCC/g09-AM64L-G09RevC.01/l804.exe)
 Open-shell transformation, MDV=    33554432 ITran=4 ISComp=1.
 Semi-Direct transformation.
 ModeAB=           2 MOrb=            12 LenV=      31970546
 LASXX=     68610507 LTotXX=    68610507 LenRXX=    68610507
 LTotAB=    69703020 MaxLAS=   100096560 LenRXY=   100096560
 NonZer=   137221014 LenScr=   208156672 LnRSAI=           0
 LnScr1=           0 LExtra=           0 Total=    376863739
 MaxDsk=          -1 SrtSym=           F ITran=            4
 DoSDTr:  NPSUse=  4
 JobTyp=1 Pass  1:  I=   1 to  12.
 Complete sort for first half transformation.
 First half transformation complete.
 Begin second half transformation for I=  10.
 Begin second half transformation for I=  10.
 Complete sort for second half transformation.
 Second half transformation complete.
 ModeAB=           2 MOrb=            11 LenV=      31970546
 LASXX=     63061306 LTotXX=    63061306 LenRXX=    91755180
 LTotAB=    57488508 MaxLAS=    91755180 LenRXY=    57488508
 NonZer=   126122612 LenScr=   191514624 LnRSAI=           0
 LnScr1=           0 LExtra=           0 Total=    340758312
 MaxDsk=          -1 SrtSym=           F ITran=            4
 DoSDTr:  NPSUse=  4
 JobTyp=2 Pass  1:  I=   1 to  11.
 Complete sort for first half transformation.
 First half transformation complete.
 Begin second half transformation for I=  10.
 Begin second half transformation for I=  10.
 Complete sort for second half transformation.
 Second half transformation complete.
 SymMOI:  orbitals are not symmetric.
 Spin components of T(2) and E(2):
     alpha-alpha T2 =       0.5292354373D-01 E2=     -0.1261845208D+00
     alpha-beta  T2 =       0.2450878950D+00 E2=     -0.6154992500D+00
     beta-beta   T2 =       0.4987541315D-01 E2=     -0.1159977254D+00
 ANorm=    0.1160985294D+01
 E2 =    -0.8576814961D+00 EUMP2 =    -0.22724713773747D+03
 (S**2,0)=  0.13898D+01           (S**2,1)=  0.12948D+01
 E(PUHF)=      -0.22641664341D+03        E(PMP2)=      -0.22727260178D+03
 Leave Link  804 at Wed Nov  2 08:46:37 2016, MaxMem=    33554432 cpu:      1617.1
 (Enter /home/proyectos/fulerenos/M3C-v2.0/M3C-deps_CCC/g09-AM64L-G09RevC.01/l913.exe)
 CIDS:  MDV=    33554432.
 Frozen-core window:  NFC=   6 NFV=   0.
 IFCWin=0 IBDFC=1 NFBD=     0     0 NFCmp=     0     0 NFFFC=     0     0
 Using original routines for 1st iteration, S=T.
 Using DD4UQ or CC4UQ for 2nd and later iterations.
 Would need an additional       732401483 words for in-memory AO integral storage.
 CCSD(T)
 =======
 Iterations=  50 Convergence= 0.100D-06
 Iteration Nr.   1
 **********************
 DD1Dir will call FoFJK   8 times, MxPair=        50
 NAB=   132 NAA=    66 NBB=    55 NumPrc=  4.
 DD1Dir:  Pass   1 NRAB=    25 NRAA=     0 NRBB=     0 NR=    50.
 FoFJK:  IHMeth= 1 ICntrl=     200 DoSepK=F KAlg= 0 I1Cent=   0 FoldK=F
 IRaf= 990000000 NMat=  50 IRICut=      62 DoRegI=T DoRafI=T ISym2E= 2.
 FoFCou: FMM=F IPFlag=           0 FMFlag=      100000 FMFlg1=           0
         NFxFlg=           0 DoJE=F BraDBF=F KetDBF=F FulRan=T
         wScrn=  0.000000 ICntrl=     200 IOpCl=  0 I1Cent=           0 NGrid=           0
         NMat0=   50 NMatS0=      0 NMatT0=   25 NMatD0=   50 NMtDS0=    0 NMtDT0=    0
 Integrals replicated using symmetry in FoFCou.
 DD1Dir:  Pass   2 NRAB=    25 NRAA=     0 NRBB=     0 NR=    50.
 DD1Dir:  Pass   3 NRAB=    25 NRAA=     0 NRBB=     0 NR=    50.
 DD1Dir:  Pass   4 NRAB=    25 NRAA=     0 NRBB=     0 NR=    50.
 DD1Dir:  Pass   5 NRAB=    25 NRAA=     0 NRBB=     0 NR=    50.
 DD1Dir:  Pass   6 NRAB=     7 NRAA=    36 NRBB=     0 NR=    50.
 DD1Dir:  Pass   7 NRAB=     0 NRAA=    30 NRBB=    20 NR=    50.
 DD1Dir:  Pass   8 NRAB=     0 NRAA=     0 NRBB=    35 NR=    35.
 E(PMP3)=      -0.22724635636D+03
 MP4(R+Q)=  0.37820119D-01
 Maximum subspace dimension=  5
 Norm of the A-vectors is  1.8349037D+00 conv= 1.00D-05.
 RLE energy=       -0.8010106464
 E3=        0.23076453D-01        EUMP3=      -0.22722406128D+03
 E4(DQ)=    0.41033201D-02        UMP4(DQ)=   -0.22721995796D+03
 E4(SDQ)=  -0.16556938D-01        UMP4(SDQ)=  -0.22724061822D+03
 VARIATIONAL ENERGIES WITH THE FIRST-ORDER WAVEFUNCTION:
 DE(Corr)= -0.79700128     E(Corr)=     -227.18645752    
 NORM(A)=   0.11466013D+01
 Iteration Nr.   2
 **********************
 DD1Dir will call FoFJK   8 times, MxPair=        50
 NAB=   132 NAA=    66 NBB=    55 NumPrc=  4.
 DD1Dir:  Pass   1 NRAB=    25 NRAA=     0 NRBB=     0 NR=    50.
 DD1Dir:  Pass   2 NRAB=    25 NRAA=     0 NRBB=     0 NR=    50.
 DD1Dir:  Pass   3 NRAB=    25 NRAA=     0 NRBB=     0 NR=    50.
 DD1Dir:  Pass   4 NRAB=    25 NRAA=     0 NRBB=     0 NR=    50.
 DD1Dir:  Pass   5 NRAB=    25 NRAA=     0 NRBB=     0 NR=    50.
 DD1Dir:  Pass   6 NRAB=     7 NRAA=    36 NRBB=     0 NR=    50.
 DD1Dir:  Pass   7 NRAB=     0 NRAA=    30 NRBB=    20 NR=    50.
 DD1Dir:  Pass   8 NRAB=     0 NRAA=     0 NRBB=    35 NR=    35.
 Norm of the A-vectors is  7.5907232D-01 conv= 1.00D-05.
 RLE energy=       -0.8474568333
 DE(Corr)= -0.84681190     E(CORR)=     -227.23626814     Delta=-4.98D-02
 NORM(A)=   0.11735663D+01
 Iteration Nr.   3
 **********************
 DD1Dir will call FoFJK   8 times, MxPair=        50
 NAB=   132 NAA=    66 NBB=    55 NumPrc=  4.
 DD1Dir:  Pass   1 NRAB=    25 NRAA=     0 NRBB=     0 NR=    50.
 DD1Dir:  Pass   2 NRAB=    25 NRAA=     0 NRBB=     0 NR=    50.
 DD1Dir:  Pass   3 NRAB=    25 NRAA=     0 NRBB=     0 NR=    50.
 DD1Dir:  Pass   4 NRAB=    25 NRAA=     0 NRBB=     0 NR=    50.
 DD1Dir:  Pass   5 NRAB=    25 NRAA=     0 NRBB=     0 NR=    50.
 DD1Dir:  Pass   6 NRAB=     7 NRAA=    36 NRBB=     0 NR=    50.
 DD1Dir:  Pass   7 NRAB=     0 NRAA=    30 NRBB=    20 NR=    50.
 DD1Dir:  Pass   8 NRAB=     0 NRAA=     0 NRBB=    35 NR=    35.
 Norm of the A-vectors is  2.2778514D-01 conv= 1.00D-05.
 RLE energy=       -0.8535910738
 DE(Corr)= -0.84503030     E(CORR)=     -227.23448654     Delta= 1.78D-03
 NORM(A)=   0.11951431D+01
 Iteration Nr.   4
 **********************
 DD1Dir will call FoFJK   8 times, MxPair=        50
 NAB=   132 NAA=    66 NBB=    55 NumPrc=  4.
 DD1Dir:  Pass   1 NRAB=    25 NRAA=     0 NRBB=     0 NR=    50.
 DD1Dir:  Pass   2 NRAB=    25 NRAA=     0 NRBB=     0 NR=    50.
 DD1Dir:  Pass   3 NRAB=    25 NRAA=     0 NRBB=     0 NR=    50.
 DD1Dir:  Pass   4 NRAB=    25 NRAA=     0 NRBB=     0 NR=    50.
 DD1Dir:  Pass   5 NRAB=    25 NRAA=     0 NRBB=     0 NR=    50.
 DD1Dir:  Pass   6 NRAB=     7 NRAA=    36 NRBB=     0 NR=    50.
 DD1Dir:  Pass   7 NRAB=     0 NRAA=    30 NRBB=    20 NR=    50.
 DD1Dir:  Pass   8 NRAB=     0 NRAA=     0 NRBB=    35 NR=    35.
 Norm of the A-vectors is  1.9939991D-01 conv= 1.00D-05.
 RLE energy=       -0.8569994793
 DE(Corr)= -0.85396157     E(CORR)=     -227.24341781     Delta=-8.93D-03
 NORM(A)=   0.12141111D+01
 Iteration Nr.   5
 **********************
 DD1Dir will call FoFJK   8 times, MxPair=        50
 NAB=   132 NAA=    66 NBB=    55 NumPrc=  4.
 DD1Dir:  Pass   1 NRAB=    25 NRAA=     0 NRBB=     0 NR=    50.
 DD1Dir:  Pass   2 NRAB=    25 NRAA=     0 NRBB=     0 NR=    50.
 DD1Dir:  Pass   3 NRAB=    25 NRAA=     0 NRBB=     0 NR=    50.
 DD1Dir:  Pass   4 NRAB=    25 NRAA=     0 NRBB=     0 NR=    50.
 DD1Dir:  Pass   5 NRAB=    25 NRAA=     0 NRBB=     0 NR=    50.
 DD1Dir:  Pass   6 NRAB=     7 NRAA=    36 NRBB=     0 NR=    50.
 DD1Dir:  Pass   7 NRAB=     0 NRAA=    30 NRBB=    20 NR=    50.
 DD1Dir:  Pass   8 NRAB=     0 NRAA=     0 NRBB=    35 NR=    35.
 Norm of the A-vectors is  9.7201029D-02 conv= 1.00D-05.
 RLE energy=       -0.8599897561
 DE(Corr)= -0.85773806     E(CORR)=     -227.24719431     Delta=-3.78D-03
 NORM(A)=   0.12302311D+01
 Iteration Nr.   6
 **********************
 DD1Dir will call FoFJK   8 times, MxPair=        50
 NAB=   132 NAA=    66 NBB=    55 NumPrc=  4.
 DD1Dir:  Pass   1 NRAB=    25 NRAA=     0 NRBB=     0 NR=    50.
 DD1Dir:  Pass   2 NRAB=    25 NRAA=     0 NRBB=     0 NR=    50.
 DD1Dir:  Pass   3 NRAB=    25 NRAA=     0 NRBB=     0 NR=    50.
 DD1Dir:  Pass   4 NRAB=    25 NRAA=     0 NRBB=     0 NR=    50.
 DD1Dir:  Pass   5 NRAB=    25 NRAA=     0 NRBB=     0 NR=    50.
 DD1Dir:  Pass   6 NRAB=     7 NRAA=    36 NRBB=     0 NR=    50.
 DD1Dir:  Pass   7 NRAB=     0 NRAA=    30 NRBB=    20 NR=    50.
 DD1Dir:  Pass   8 NRAB=     0 NRAA=     0 NRBB=    35 NR=    35.
 Norm of the A-vectors is  8.1881657D-02 conv= 1.00D-05.
 RLE energy=       -0.8596482158
 DE(Corr)= -0.85950702     E(CORR)=     -227.24896326     Delta=-1.77D-03
 NORM(A)=   0.12346601D+01
 Iteration Nr.   7
 **********************
 DD1Dir will call FoFJK   8 times, MxPair=        50
 NAB=   132 NAA=    66 NBB=    55 NumPrc=  4.
 DD1Dir:  Pass   1 NRAB=    25 NRAA=     0 NRBB=     0 NR=    50.
 DD1Dir:  Pass   2 NRAB=    25 NRAA=     0 NRBB=     0 NR=    50.
 DD1Dir:  Pass   3 NRAB=    25 NRAA=     0 NRBB=     0 NR=    50.
 DD1Dir:  Pass   4 NRAB=    25 NRAA=     0 NRBB=     0 NR=    50.
 DD1Dir:  Pass   5 NRAB=    25 NRAA=     0 NRBB=     0 NR=    50.
 DD1Dir:  Pass   6 NRAB=     7 NRAA=    36 NRBB=     0 NR=    50.
 DD1Dir:  Pass   7 NRAB=     0 NRAA=    30 NRBB=    20 NR=    50.
 DD1Dir:  Pass   8 NRAB=     0 NRAA=     0 NRBB=    35 NR=    35.
 Norm of the A-vectors is  3.4917560D-02 conv= 1.00D-05.
 RLE energy=       -0.8598364574
 DE(Corr)= -0.85998360     E(CORR)=     -227.24943984     Delta=-4.77D-04
 NORM(A)=   0.12374892D+01
 Iteration Nr.   8
 **********************
 DD1Dir will call FoFJK   8 times, MxPair=        50
 NAB=   132 NAA=    66 NBB=    55 NumPrc=  4.
 DD1Dir:  Pass   1 NRAB=    25 NRAA=     0 NRBB=     0 NR=    50.
 DD1Dir:  Pass   2 NRAB=    25 NRAA=     0 NRBB=     0 NR=    50.
 DD1Dir:  Pass   3 NRAB=    25 NRAA=     0 NRBB=     0 NR=    50.
 DD1Dir:  Pass   4 NRAB=    25 NRAA=     0 NRBB=     0 NR=    50.
 DD1Dir:  Pass   5 NRAB=    25 NRAA=     0 NRBB=     0 NR=    50.
 DD1Dir:  Pass   6 NRAB=     7 NRAA=    36 NRBB=     0 NR=    50.
 DD1Dir:  Pass   7 NRAB=     0 NRAA=    30 NRBB=    20 NR=    50.
 DD1Dir:  Pass   8 NRAB=     0 NRAA=     0 NRBB=    35 NR=    35.
 Norm of the A-vectors is  3.1526331D-02 conv= 1.00D-05.
 RLE energy=       -0.8599084608
 DE(Corr)= -0.86000269     E(CORR)=     -227.24945893     Delta=-1.91D-05
 NORM(A)=   0.12389470D+01
 Iteration Nr.   9
 **********************
 DD1Dir will call FoFJK   8 times, MxPair=        50
 NAB=   132 NAA=    66 NBB=    55 NumPrc=  4.
 DD1Dir:  Pass   1 NRAB=    25 NRAA=     0 NRBB=     0 NR=    50.
 DD1Dir:  Pass   2 NRAB=    25 NRAA=     0 NRBB=     0 NR=    50.
 DD1Dir:  Pass   3 NRAB=    25 NRAA=     0 NRBB=     0 NR=    50.
 DD1Dir:  Pass   4 NRAB=    25 NRAA=     0 NRBB=     0 NR=    50.
 DD1Dir:  Pass   5 NRAB=    25 NRAA=     0 NRBB=     0 NR=    50.
 DD1Dir:  Pass   6 NRAB=     7 NRAA=    36 NRBB=     0 NR=    50.
 DD1Dir:  Pass   7 NRAB=     0 NRAA=    30 NRBB=    20 NR=    50.
 DD1Dir:  Pass   8 NRAB=     0 NRAA=     0 NRBB=    35 NR=    35.
 Norm of the A-vectors is  1.8802689D-02 conv= 1.00D-05.
 RLE energy=       -0.8601058616
 DE(Corr)= -0.86015390     E(CORR)=     -227.24961015     Delta=-1.51D-04
 NORM(A)=   0.12392917D+01
 Iteration Nr.  10
 **********************
 DD1Dir will call FoFJK   8 times, MxPair=        50
 NAB=   132 NAA=    66 NBB=    55 NumPrc=  4.
 DD1Dir:  Pass   1 NRAB=    25 NRAA=     0 NRBB=     0 NR=    50.
 DD1Dir:  Pass   2 NRAB=    25 NRAA=     0 NRBB=     0 NR=    50.
 DD1Dir:  Pass   3 NRAB=    25 NRAA=     0 NRBB=     0 NR=    50.
 DD1Dir:  Pass   4 NRAB=    25 NRAA=     0 NRBB=     0 NR=    50.
 DD1Dir:  Pass   5 NRAB=    25 NRAA=     0 NRBB=     0 NR=    50.
 DD1Dir:  Pass   6 NRAB=     7 NRAA=    36 NRBB=     0 NR=    50.
 DD1Dir:  Pass   7 NRAB=     0 NRAA=    30 NRBB=    20 NR=    50.
 DD1Dir:  Pass   8 NRAB=     0 NRAA=     0 NRBB=    35 NR=    35.
 Norm of the A-vectors is  1.1866850D-02 conv= 1.00D-05.
 RLE energy=       -0.8600964953
 DE(Corr)= -0.86009630     E(CORR)=     -227.24955254     Delta= 5.76D-05
 NORM(A)=   0.12396776D+01
 Iteration Nr.  11
 **********************
 DD1Dir will call FoFJK   8 times, MxPair=        50
 NAB=   132 NAA=    66 NBB=    55 NumPrc=  4.
 DD1Dir:  Pass   1 NRAB=    25 NRAA=     0 NRBB=     0 NR=    50.
 DD1Dir:  Pass   2 NRAB=    25 NRAA=     0 NRBB=     0 NR=    50.
 DD1Dir:  Pass   3 NRAB=    25 NRAA=     0 NRBB=     0 NR=    50.
 DD1Dir:  Pass   4 NRAB=    25 NRAA=     0 NRBB=     0 NR=    50.
 DD1Dir:  Pass   5 NRAB=    25 NRAA=     0 NRBB=     0 NR=    50.
 DD1Dir:  Pass   6 NRAB=     7 NRAA=    36 NRBB=     0 NR=    50.
 DD1Dir:  Pass   7 NRAB=     0 NRAA=    30 NRBB=    20 NR=    50.
 DD1Dir:  Pass   8 NRAB=     0 NRAA=     0 NRBB=    35 NR=    35.
 Norm of the A-vectors is  7.5134752D-03 conv= 1.00D-05.
 RLE energy=       -0.8601776915
 DE(Corr)= -0.86017260     E(CORR)=     -227.24962884     Delta=-7.63D-05
 NORM(A)=   0.12398150D+01
 Iteration Nr.  12
 **********************
 DD1Dir will call FoFJK   8 times, MxPair=        50
 NAB=   132 NAA=    66 NBB=    55 NumPrc=  4.
 DD1Dir:  Pass   1 NRAB=    25 NRAA=     0 NRBB=     0 NR=    50.
 DD1Dir:  Pass   2 NRAB=    25 NRAA=     0 NRBB=     0 NR=    50.
 DD1Dir:  Pass   3 NRAB=    25 NRAA=     0 NRBB=     0 NR=    50.
 DD1Dir:  Pass   4 NRAB=    25 NRAA=     0 NRBB=     0 NR=    50.
 DD1Dir:  Pass   5 NRAB=    25 NRAA=     0 NRBB=     0 NR=    50.
 DD1Dir:  Pass   6 NRAB=     7 NRAA=    36 NRBB=     0 NR=    50.
 DD1Dir:  Pass   7 NRAB=     0 NRAA=    30 NRBB=    20 NR=    50.
 DD1Dir:  Pass   8 NRAB=     0 NRAA=     0 NRBB=    35 NR=    35.
 Norm of the A-vectors is  5.0726676D-03 conv= 1.00D-05.
 RLE energy=       -0.8602226543
 DE(Corr)= -0.86018623     E(CORR)=     -227.24964247     Delta=-1.36D-05
 NORM(A)=   0.12401380D+01
 Iteration Nr.  13
 **********************
 DD1Dir will call FoFJK   8 times, MxPair=        50
 NAB=   132 NAA=    66 NBB=    55 NumPrc=  4.
 DD1Dir:  Pass   1 NRAB=    25 NRAA=     0 NRBB=     0 NR=    50.
 DD1Dir:  Pass   2 NRAB=    25 NRAA=     0 NRBB=     0 NR=    50.
 DD1Dir:  Pass   3 NRAB=    25 NRAA=     0 NRBB=     0 NR=    50.
 DD1Dir:  Pass   4 NRAB=    25 NRAA=     0 NRBB=     0 NR=    50.
 DD1Dir:  Pass   5 NRAB=    25 NRAA=     0 NRBB=     0 NR=    50.
 DD1Dir:  Pass   6 NRAB=     7 NRAA=    36 NRBB=     0 NR=    50.
 DD1Dir:  Pass   7 NRAB=     0 NRAA=    30 NRBB=    20 NR=    50.
 DD1Dir:  Pass   8 NRAB=     0 NRAA=     0 NRBB=    35 NR=    35.
 Norm of the A-vectors is  3.7109536D-03 conv= 1.00D-05.
 RLE energy=       -0.8602496944
 DE(Corr)= -0.86023127     E(CORR)=     -227.24968751     Delta=-4.50D-05
 NORM(A)=   0.12403104D+01
 Iteration Nr.  14
 **********************
 DD1Dir will call FoFJK   8 times, MxPair=        50
 NAB=   132 NAA=    66 NBB=    55 NumPrc=  4.
 DD1Dir:  Pass   1 NRAB=    25 NRAA=     0 NRBB=     0 NR=    50.
 DD1Dir:  Pass   2 NRAB=    25 NRAA=     0 NRBB=     0 NR=    50.
 DD1Dir:  Pass   3 NRAB=    25 NRAA=     0 NRBB=     0 NR=    50.
 DD1Dir:  Pass   4 NRAB=    25 NRAA=     0 NRBB=     0 NR=    50.
 DD1Dir:  Pass   5 NRAB=    25 NRAA=     0 NRBB=     0 NR=    50.
 DD1Dir:  Pass   6 NRAB=     7 NRAA=    36 NRBB=     0 NR=    50.
 DD1Dir:  Pass   7 NRAB=     0 NRAA=    30 NRBB=    20 NR=    50.
 DD1Dir:  Pass   8 NRAB=     0 NRAA=     0 NRBB=    35 NR=    35.
 Norm of the A-vectors is  2.2055915D-03 conv= 1.00D-05.
 RLE energy=       -0.8602891847
 DE(Corr)= -0.86026373     E(CORR)=     -227.24971997     Delta=-3.25D-05
 NORM(A)=   0.12405099D+01
 Iteration Nr.  15
 **********************
 DD1Dir will call FoFJK   8 times, MxPair=        50
 NAB=   132 NAA=    66 NBB=    55 NumPrc=  4.
 DD1Dir:  Pass   1 NRAB=    25 NRAA=     0 NRBB=     0 NR=    50.
 DD1Dir:  Pass   2 NRAB=    25 NRAA=     0 NRBB=     0 NR=    50.
 DD1Dir:  Pass   3 NRAB=    25 NRAA=     0 NRBB=     0 NR=    50.
 DD1Dir:  Pass   4 NRAB=    25 NRAA=     0 NRBB=     0 NR=    50.
 DD1Dir:  Pass   5 NRAB=    25 NRAA=     0 NRBB=     0 NR=    50.
 DD1Dir:  Pass   6 NRAB=     7 NRAA=    36 NRBB=     0 NR=    50.
 DD1Dir:  Pass   7 NRAB=     0 NRAA=    30 NRBB=    20 NR=    50.
 DD1Dir:  Pass   8 NRAB=     0 NRAA=     0 NRBB=    35 NR=    35.
 Norm of the A-vectors is  1.8299207D-03 conv= 1.00D-05.
 RLE energy=       -0.8602938444
 DE(Corr)= -0.86028308     E(CORR)=     -227.24973932     Delta=-1.93D-05
 NORM(A)=   0.12406258D+01
 Iteration Nr.  16
 **********************
 DD1Dir will call FoFJK   8 times, MxPair=        50
 NAB=   132 NAA=    66 NBB=    55 NumPrc=  4.
 DD1Dir:  Pass   1 NRAB=    25 NRAA=     0 NRBB=     0 NR=    50.
 DD1Dir:  Pass   2 NRAB=    25 NRAA=     0 NRBB=     0 NR=    50.
 DD1Dir:  Pass   3 NRAB=    25 NRAA=     0 NRBB=     0 NR=    50.
 DD1Dir:  Pass   4 NRAB=    25 NRAA=     0 NRBB=     0 NR=    50.
 DD1Dir:  Pass   5 NRAB=    25 NRAA=     0 NRBB=     0 NR=    50.
 DD1Dir:  Pass   6 NRAB=     7 NRAA=    36 NRBB=     0 NR=    50.
 DD1Dir:  Pass   7 NRAB=     0 NRAA=    30 NRBB=    20 NR=    50.
 DD1Dir:  Pass   8 NRAB=     0 NRAA=     0 NRBB=    35 NR=    35.
 Norm of the A-vectors is  1.1343122D-03 conv= 1.00D-05.
 RLE energy=       -0.8603072238
 DE(Corr)= -0.86029902     E(CORR)=     -227.24975526     Delta=-1.59D-05
 NORM(A)=   0.12407238D+01
 Iteration Nr.  17
 **********************
 DD1Dir will call FoFJK   8 times, MxPair=        50
 NAB=   132 NAA=    66 NBB=    55 NumPrc=  4.
 DD1Dir:  Pass   1 NRAB=    25 NRAA=     0 NRBB=     0 NR=    50.
 DD1Dir:  Pass   2 NRAB=    25 NRAA=     0 NRBB=     0 NR=    50.
 DD1Dir:  Pass   3 NRAB=    25 NRAA=     0 NRBB=     0 NR=    50.
 DD1Dir:  Pass   4 NRAB=    25 NRAA=     0 NRBB=     0 NR=    50.
 DD1Dir:  Pass   5 NRAB=    25 NRAA=     0 NRBB=     0 NR=    50.
 DD1Dir:  Pass   6 NRAB=     7 NRAA=    36 NRBB=     0 NR=    50.
 DD1Dir:  Pass   7 NRAB=     0 NRAA=    30 NRBB=    20 NR=    50.
 DD1Dir:  Pass   8 NRAB=     0 NRAA=     0 NRBB=    35 NR=    35.
 Norm of the A-vectors is  7.4664795D-04 conv= 1.00D-05.
 RLE energy=       -0.8603085463
 DE(Corr)= -0.86030612     E(CORR)=     -227.24976236     Delta=-7.10D-06
 NORM(A)=   0.12407904D+01
 Iteration Nr.  18
 **********************
 DD1Dir will call FoFJK   8 times, MxPair=        50
 NAB=   132 NAA=    66 NBB=    55 NumPrc=  4.
 DD1Dir:  Pass   1 NRAB=    25 NRAA=     0 NRBB=     0 NR=    50.
 DD1Dir:  Pass   2 NRAB=    25 NRAA=     0 NRBB=     0 NR=    50.
 DD1Dir:  Pass   3 NRAB=    25 NRAA=     0 NRBB=     0 NR=    50.
 DD1Dir:  Pass   4 NRAB=    25 NRAA=     0 NRBB=     0 NR=    50.
 DD1Dir:  Pass   5 NRAB=    25 NRAA=     0 NRBB=     0 NR=    50.
 DD1Dir:  Pass   6 NRAB=     7 NRAA=    36 NRBB=     0 NR=    50.
 DD1Dir:  Pass   7 NRAB=     0 NRAA=    30 NRBB=    20 NR=    50.
 DD1Dir:  Pass   8 NRAB=     0 NRAA=     0 NRBB=    35 NR=    35.
 Norm of the A-vectors is  6.2178494D-04 conv= 1.00D-05.
 RLE energy=       -0.8603102620
 DE(Corr)= -0.86031031     E(CORR)=     -227.24976656     Delta=-4.19D-06
 NORM(A)=   0.12408170D+01
 Iteration Nr.  19
 **********************
 DD1Dir will call FoFJK   8 times, MxPair=        50
 NAB=   132 NAA=    66 NBB=    55 NumPrc=  4.
 DD1Dir:  Pass   1 NRAB=    25 NRAA=     0 NRBB=     0 NR=    50.
 DD1Dir:  Pass   2 NRAB=    25 NRAA=     0 NRBB=     0 NR=    50.
 DD1Dir:  Pass   3 NRAB=    25 NRAA=     0 NRBB=     0 NR=    50.
 DD1Dir:  Pass   4 NRAB=    25 NRAA=     0 NRBB=     0 NR=    50.
 DD1Dir:  Pass   5 NRAB=    25 NRAA=     0 NRBB=     0 NR=    50.
 DD1Dir:  Pass   6 NRAB=     7 NRAA=    36 NRBB=     0 NR=    50.
 DD1Dir:  Pass   7 NRAB=     0 NRAA=    30 NRBB=    20 NR=    50.
 DD1Dir:  Pass   8 NRAB=     0 NRAA=     0 NRBB=    35 NR=    35.
 Norm of the A-vectors is  3.6648834D-04 conv= 1.00D-05.
 RLE energy=       -0.8603124052
 DE(Corr)= -0.86031185     E(CORR)=     -227.24976809     Delta=-1.54D-06
 NORM(A)=   0.12408494D+01
 Iteration Nr.  20
 **********************
 DD1Dir will call FoFJK   8 times, MxPair=        50
 NAB=   132 NAA=    66 NBB=    55 NumPrc=  4.
 DD1Dir:  Pass   1 NRAB=    25 NRAA=     0 NRBB=     0 NR=    50.
 DD1Dir:  Pass   2 NRAB=    25 NRAA=     0 NRBB=     0 NR=    50.
 DD1Dir:  Pass   3 NRAB=    25 NRAA=     0 NRBB=     0 NR=    50.
 DD1Dir:  Pass   4 NRAB=    25 NRAA=     0 NRBB=     0 NR=    50.
 DD1Dir:  Pass   5 NRAB=    25 NRAA=     0 NRBB=     0 NR=    50.
 DD1Dir:  Pass   6 NRAB=     7 NRAA=    36 NRBB=     0 NR=    50.
 DD1Dir:  Pass   7 NRAB=     0 NRAA=    30 NRBB=    20 NR=    50.
 DD1Dir:  Pass   8 NRAB=     0 NRAA=     0 NRBB=    35 NR=    35.
 Norm of the A-vectors is  3.1359544D-04 conv= 1.00D-05.
 RLE energy=       -0.8603136884
 DE(Corr)= -0.86031358     E(CORR)=     -227.24976982     Delta=-1.72D-06
 NORM(A)=   0.12408569D+01
 Iteration Nr.  21
 **********************
 DD1Dir will call FoFJK   8 times, MxPair=        50
 NAB=   132 NAA=    66 NBB=    55 NumPrc=  4.
 DD1Dir:  Pass   1 NRAB=    25 NRAA=     0 NRBB=     0 NR=    50.
 DD1Dir:  Pass   2 NRAB=    25 NRAA=     0 NRBB=     0 NR=    50.
 DD1Dir:  Pass   3 NRAB=    25 NRAA=     0 NRBB=     0 NR=    50.
 DD1Dir:  Pass   4 NRAB=    25 NRAA=     0 NRBB=     0 NR=    50.
 DD1Dir:  Pass   5 NRAB=    25 NRAA=     0 NRBB=     0 NR=    50.
 DD1Dir:  Pass   6 NRAB=     7 NRAA=    36 NRBB=     0 NR=    50.
 DD1Dir:  Pass   7 NRAB=     0 NRAA=    30 NRBB=    20 NR=    50.
 DD1Dir:  Pass   8 NRAB=     0 NRAA=     0 NRBB=    35 NR=    35.
 Norm of the A-vectors is  1.4880137D-04 conv= 1.00D-05.
 RLE energy=       -0.8603145832
 DE(Corr)= -0.86031425     E(CORR)=     -227.24977049     Delta=-6.76D-07
 NORM(A)=   0.12408645D+01
 Iteration Nr.  22
 **********************
 DD1Dir will call FoFJK   8 times, MxPair=        50
 NAB=   132 NAA=    66 NBB=    55 NumPrc=  4.
 DD1Dir:  Pass   1 NRAB=    25 NRAA=     0 NRBB=     0 NR=    50.
 DD1Dir:  Pass   2 NRAB=    25 NRAA=     0 NRBB=     0 NR=    50.
 DD1Dir:  Pass   3 NRAB=    25 NRAA=     0 NRBB=     0 NR=    50.
 DD1Dir:  Pass   4 NRAB=    25 NRAA=     0 NRBB=     0 NR=    50.
 DD1Dir:  Pass   5 NRAB=    25 NRAA=     0 NRBB=     0 NR=    50.
 DD1Dir:  Pass   6 NRAB=     7 NRAA=    36 NRBB=     0 NR=    50.
 DD1Dir:  Pass   7 NRAB=     0 NRAA=    30 NRBB=    20 NR=    50.
 DD1Dir:  Pass   8 NRAB=     0 NRAA=     0 NRBB=    35 NR=    35.
 Norm of the A-vectors is  1.2831157D-04 conv= 1.00D-05.
 RLE energy=       -0.8603152161
 DE(Corr)= -0.86031504     E(CORR)=     -227.24977128     Delta=-7.87D-07
 NORM(A)=   0.12408674D+01
 Iteration Nr.  23
 **********************
 DD1Dir will call FoFJK   8 times, MxPair=        50
 NAB=   132 NAA=    66 NBB=    55 NumPrc=  4.
 DD1Dir:  Pass   1 NRAB=    25 NRAA=     0 NRBB=     0 NR=    50.
 DD1Dir:  Pass   2 NRAB=    25 NRAA=     0 NRBB=     0 NR=    50.
 DD1Dir:  Pass   3 NRAB=    25 NRAA=     0 NRBB=     0 NR=    50.
 DD1Dir:  Pass   4 NRAB=    25 NRAA=     0 NRBB=     0 NR=    50.
 DD1Dir:  Pass   5 NRAB=    25 NRAA=     0 NRBB=     0 NR=    50.
 DD1Dir:  Pass   6 NRAB=     7 NRAA=    36 NRBB=     0 NR=    50.
 DD1Dir:  Pass   7 NRAB=     0 NRAA=    30 NRBB=    20 NR=    50.
 DD1Dir:  Pass   8 NRAB=     0 NRAA=     0 NRBB=    35 NR=    35.
 Norm of the A-vectors is  6.6718729D-05 conv= 1.00D-05.
 RLE energy=       -0.8603157049
 DE(Corr)= -0.86031534     E(CORR)=     -227.24977158     Delta=-2.97D-07
 NORM(A)=   0.12408707D+01
 Iteration Nr.  24
 **********************
 DD1Dir will call FoFJK   8 times, MxPair=        50
 NAB=   132 NAA=    66 NBB=    55 NumPrc=  4.
 DD1Dir:  Pass   1 NRAB=    25 NRAA=     0 NRBB=     0 NR=    50.
 DD1Dir:  Pass   2 NRAB=    25 NRAA=     0 NRBB=     0 NR=    50.
 DD1Dir:  Pass   3 NRAB=    25 NRAA=     0 NRBB=     0 NR=    50.
 DD1Dir:  Pass   4 NRAB=    25 NRAA=     0 NRBB=     0 NR=    50.
 DD1Dir:  Pass   5 NRAB=    25 NRAA=     0 NRBB=     0 NR=    50.
 DD1Dir:  Pass   6 NRAB=     7 NRAA=    36 NRBB=     0 NR=    50.
 DD1Dir:  Pass   7 NRAB=     0 NRAA=    30 NRBB=    20 NR=    50.
 DD1Dir:  Pass   8 NRAB=     0 NRAA=     0 NRBB=    35 NR=    35.
 Norm of the A-vectors is  6.1856240D-05 conv= 1.00D-05.
 RLE energy=       -0.8603159367
 DE(Corr)= -0.86031577     E(CORR)=     -227.24977201     Delta=-4.37D-07
 NORM(A)=   0.12408730D+01
 Iteration Nr.  25
 **********************
 DD1Dir will call FoFJK   8 times, MxPair=        50
 NAB=   132 NAA=    66 NBB=    55 NumPrc=  4.
 DD1Dir:  Pass   1 NRAB=    25 NRAA=     0 NRBB=     0 NR=    50.
 DD1Dir:  Pass   2 NRAB=    25 NRAA=     0 NRBB=     0 NR=    50.
 DD1Dir:  Pass   3 NRAB=    25 NRAA=     0 NRBB=     0 NR=    50.
 DD1Dir:  Pass   4 NRAB=    25 NRAA=     0 NRBB=     0 NR=    50.
 DD1Dir:  Pass   5 NRAB=    25 NRAA=     0 NRBB=     0 NR=    50.
 DD1Dir:  Pass   6 NRAB=     7 NRAA=    36 NRBB=     0 NR=    50.
 DD1Dir:  Pass   7 NRAB=     0 NRAA=    30 NRBB=    20 NR=    50.
 DD1Dir:  Pass   8 NRAB=     0 NRAA=     0 NRBB=    35 NR=    35.
 Norm of the A-vectors is  3.6901204D-05 conv= 1.00D-05.
 RLE energy=       -0.8603161865
 DE(Corr)= -0.86031604     E(CORR)=     -227.24977228     Delta=-2.70D-07
 NORM(A)=   0.12408744D+01
 Iteration Nr.  26
 **********************
 DD1Dir will call FoFJK   8 times, MxPair=        50
 NAB=   132 NAA=    66 NBB=    55 NumPrc=  4.
 DD1Dir:  Pass   1 NRAB=    25 NRAA=     0 NRBB=     0 NR=    50.
 DD1Dir:  Pass   2 NRAB=    25 NRAA=     0 NRBB=     0 NR=    50.
 DD1Dir:  Pass   3 NRAB=    25 NRAA=     0 NRBB=     0 NR=    50.
 DD1Dir:  Pass   4 NRAB=    25 NRAA=     0 NRBB=     0 NR=    50.
 DD1Dir:  Pass   5 NRAB=    25 NRAA=     0 NRBB=     0 NR=    50.
 DD1Dir:  Pass   6 NRAB=     7 NRAA=    36 NRBB=     0 NR=    50.
 DD1Dir:  Pass   7 NRAB=     0 NRAA=    30 NRBB=    20 NR=    50.
 DD1Dir:  Pass   8 NRAB=     0 NRAA=     0 NRBB=    35 NR=    35.
 Norm of the A-vectors is  2.4771140D-05 conv= 1.00D-05.
 RLE energy=       -0.8603162605
 DE(Corr)= -0.86031616     E(CORR)=     -227.24977240     Delta=-1.15D-07
 NORM(A)=   0.12408764D+01
 Iteration Nr.  27
 **********************
 DD1Dir will call FoFJK   8 times, MxPair=        50
 NAB=   132 NAA=    66 NBB=    55 NumPrc=  4.
 DD1Dir:  Pass   1 NRAB=    25 NRAA=     0 NRBB=     0 NR=    50.
 DD1Dir:  Pass   2 NRAB=    25 NRAA=     0 NRBB=     0 NR=    50.
 DD1Dir:  Pass   3 NRAB=    25 NRAA=     0 NRBB=     0 NR=    50.
 DD1Dir:  Pass   4 NRAB=    25 NRAA=     0 NRBB=     0 NR=    50.
 DD1Dir:  Pass   5 NRAB=    25 NRAA=     0 NRBB=     0 NR=    50.
 DD1Dir:  Pass   6 NRAB=     7 NRAA=    36 NRBB=     0 NR=    50.
 DD1Dir:  Pass   7 NRAB=     0 NRAA=    30 NRBB=    20 NR=    50.
 DD1Dir:  Pass   8 NRAB=     0 NRAA=     0 NRBB=    35 NR=    35.
 Norm of the A-vectors is  2.4726552D-05 conv= 1.00D-05.
 RLE energy=       -0.8603164459
 DE(Corr)= -0.86031640     E(CORR)=     -227.24977264     Delta=-2.40D-07
 NORM(A)=   0.12408774D+01
 Iteration Nr.  28
 **********************
 DD1Dir will call FoFJK   8 times, MxPair=        50
 NAB=   132 NAA=    66 NBB=    55 NumPrc=  4.
 DD1Dir:  Pass   1 NRAB=    25 NRAA=     0 NRBB=     0 NR=    50.
 DD1Dir:  Pass   2 NRAB=    25 NRAA=     0 NRBB=     0 NR=    50.
 DD1Dir:  Pass   3 NRAB=    25 NRAA=     0 NRBB=     0 NR=    50.
 DD1Dir:  Pass   4 NRAB=    25 NRAA=     0 NRBB=     0 NR=    50.
 DD1Dir:  Pass   5 NRAB=    25 NRAA=     0 NRBB=     0 NR=    50.
 DD1Dir:  Pass   6 NRAB=     7 NRAA=    36 NRBB=     0 NR=    50.
 DD1Dir:  Pass   7 NRAB=     0 NRAA=    30 NRBB=    20 NR=    50.
 DD1Dir:  Pass   8 NRAB=     0 NRAA=     0 NRBB=    35 NR=    35.
 Norm of the A-vectors is  1.3604798D-05 conv= 1.00D-05.
 RLE energy=       -0.8603164928
 DE(Corr)= -0.86031644     E(CORR)=     -227.24977268     Delta=-4.05D-08
 NORM(A)=   0.12408783D+01
 Iteration Nr.  29
 **********************
 DD1Dir will call FoFJK   8 times, MxPair=        50
 NAB=   132 NAA=    66 NBB=    55 NumPrc=  4.
 DD1Dir:  Pass   1 NRAB=    25 NRAA=     0 NRBB=     0 NR=    50.
 DD1Dir:  Pass   2 NRAB=    25 NRAA=     0 NRBB=     0 NR=    50.
 DD1Dir:  Pass   3 NRAB=    25 NRAA=     0 NRBB=     0 NR=    50.
 DD1Dir:  Pass   4 NRAB=    25 NRAA=     0 NRBB=     0 NR=    50.
 DD1Dir:  Pass   5 NRAB=    25 NRAA=     0 NRBB=     0 NR=    50.
 DD1Dir:  Pass   6 NRAB=     7 NRAA=    36 NRBB=     0 NR=    50.
 DD1Dir:  Pass   7 NRAB=     0 NRAA=    30 NRBB=    20 NR=    50.
 DD1Dir:  Pass   8 NRAB=     0 NRAA=     0 NRBB=    35 NR=    35.
 Norm of the A-vectors is  1.1441655D-05 conv= 1.00D-05.
 RLE energy=       -0.8603165339
 DE(Corr)= -0.86031653     E(CORR)=     -227.24977277     Delta=-8.89D-08
 NORM(A)=   0.12408788D+01
 Iteration Nr.  30
 **********************
 DD1Dir will call FoFJK   8 times, MxPair=        50
 NAB=   132 NAA=    66 NBB=    55 NumPrc=  4.
 DD1Dir:  Pass   1 NRAB=    25 NRAA=     0 NRBB=     0 NR=    50.
 DD1Dir:  Pass   2 NRAB=    25 NRAA=     0 NRBB=     0 NR=    50.
 DD1Dir:  Pass   3 NRAB=    25 NRAA=     0 NRBB=     0 NR=    50.
 DD1Dir:  Pass   4 NRAB=    25 NRAA=     0 NRBB=     0 NR=    50.
 DD1Dir:  Pass   5 NRAB=    25 NRAA=     0 NRBB=     0 NR=    50.
 DD1Dir:  Pass   6 NRAB=     7 NRAA=    36 NRBB=     0 NR=    50.
 DD1Dir:  Pass   7 NRAB=     0 NRAA=    30 NRBB=    20 NR=    50.
 DD1Dir:  Pass   8 NRAB=     0 NRAA=     0 NRBB=    35 NR=    35.
 Norm of the A-vectors is  7.0086160D-06 conv= 1.00D-05.
 RLE energy=       -0.8603165743
 DE(Corr)= -0.86031655     E(CORR)=     -227.24977280     Delta=-2.60D-08
 NORM(A)=   0.12408791D+01
 CI/CC converged in   30 iterations to DelEn=-2.60D-08 Conv= 1.00D-07 ErrA1= 7.01D-06 Conv= 1.00D-05
 Dominant configurations:
 ***********************
 Spin Case        I    J    A    B          Value
    AA           15        19            0.103762D+00
    BB           17        18           -0.196508D+00
    BB           17        19           -0.189750D+00
 Largest amplitude= 1.97D-01
 Time for triples=    22553.30 seconds.
 T4(CCSD)= -0.79473196D-01
 T5(CCSD)=  0.64126570D-02
 CCSD(T)= -0.22732283333D+03

 S**2, projected HF & approx projected MPn energies after annihilation of
 unwanted spin states (see manual for definitions):

 spins       (S**2,0) (S**2,1)    PUHF        PMP2        PMP3        PMP4
 annihilated
 s+1         0.64072  0.69431 -226.416643 -227.272602 -227.246356
 s+1,s+2     0.75359  0.75002 -226.411541 -227.267771 -227.241956
 s+1 to s+3  0.74995  0.75003 -226.411742 -227.267945 -227.242086
 s+1 to s+4  0.75000  0.75000 -226.411739 -227.267942 -227.242084
 s+1 to s+5  0.75000  0.75000 -226.411739
 s+1 to s+6  0.75000  0.75000 -226.411739

 Discarding MO integrals.
 Leave Link  913 at Wed Nov  2 23:31:27 2016, MaxMem=    33554432 cpu:    171709.7
 (Enter /home/proyectos/fulerenos/M3C-v2.0/M3C-deps_CCC/g09-AM64L-G09RevC.01/l601.exe)
 Copying SCF densities to generalized density rwf, IOpCl= 1 IROHF=0.

 **********************************************************************

            Population analysis using the SCF density.

 **********************************************************************

 Orbital symmetries:
 Alpha Orbitals:
       Occupied  (A) (A) (A) (A) (A) (A) (A) (A) (A) (A) (A) (A)
                 (A) (A) (A) (A) (A) (A)
       Virtual   (A) (A) (A) (A) (A) (A) (A) (A) (A) (A) (A) (A)
                 (A) (A) (A) (A) (A) (A) (A) (A) (A) (A) (A) (A)
                 (A) (A) (A) (A) (A) (A) (A) (A) (A) (A) (A) (A)
                 (A) (A) (A) (A) (A) (A) (A) (A) (A) (A) (A) (A)
                 (A) (A) (A) (A) (A) (A) (A) (A) (A) (A) (A) (A)
                 (A) (A) (A) (A) (A) (A) (A) (A) (A) (A) (A) (A)
                 (A) (A) (A) (A) (A) (A) (A) (A) (A) (A) (A) (A)
                 (A) (A) (A) (A) (A) (A) (A) (A) (A) (A) (A) (A)
                 (A) (A) (A) (A) (A) (A) (A) (A) (A) (A) (A) (A)
                 (A) (A) (A) (A) (A) (A) (A) (A) (A) (A) (A) (A)
                 (A) (A) (A) (A) (A) (A) (A) (A) (A) (A) (A) (A)
                 (A) (A) (A) (A) (A) (A) (A) (A) (A) (A) (A) (A)
                 (A) (A) (A) (A) (A) (A) (A) (A) (A) (A) (A) (A)
                 (A) (A) (A) (A) (A) (A) (A) (A) (A) (A) (A) (A)
                 (A) (A) (A) (A) (A) (A) (A) (A) (A) (A) (A) (A)
                 (A) (A) (A) (A) (A) (A) (A) (A) (A) (A) (A) (A)
                 (A) (A) (A) (A) (A) (A) (A) (A) (A) (A) (A) (A)
                 (A) (A) (A) (A) (A) (A) (A) (A) (A) (A) (A) (A)
 Beta  Orbitals:
       Occupied  (A) (A) (A) (A) (A) (A) (A) (A) (A) (A) (A) (A)
                 (A) (A) (A) (A) (A)
       Virtual   (A) (A) (A) (A) (A) (A) (A) (A) (A) (A) (A) (A)
                 (A) (A) (A) (A) (A) (A) (A) (A) (A) (A) (A) (A)
                 (A) (A) (A) (A) (A) (A) (A) (A) (A) (A) (A) (A)
                 (A) (A) (A) (A) (A) (A) (A) (A) (A) (A) (A) (A)
                 (A) (A) (A) (A) (A) (A) (A) (A) (A) (A) (A) (A)
                 (A) (A) (A) (A) (A) (A) (A) (A) (A) (A) (A) (A)
                 (A) (A) (A) (A) (A) (A) (A) (A) (A) (A) (A) (A)
                 (A) (A) (A) (A) (A) (A) (A) (A) (A) (A) (A) (A)
                 (A) (A) (A) (A) (A) (A) (A) (A) (A) (A) (A) (A)
                 (A) (A) (A) (A) (A) (A) (A) (A) (A) (A) (A) (A)
                 (A) (A) (A) (A) (A) (A) (A) (A) (A) (A) (A) (A)
                 (A) (A) (A) (A) (A) (A) (A) (A) (A) (A) (A) (A)
                 (A) (A) (A) (A) (A) (A) (A) (A) (A) (A) (A) (A)
                 (A) (A) (A) (A) (A) (A) (A) (A) (A) (A) (A) (A)
                 (A) (A) (A) (A) (A) (A) (A) (A) (A) (A) (A) (A)
                 (A) (A) (A) (A) (A) (A) (A) (A) (A) (A) (A) (A)
                 (A) (A) (A) (A) (A) (A) (A) (A) (A) (A) (A) (A)
                 (A) (A) (A) (A) (A) (A) (A) (A) (A) (A) (A) (A)
                 (A)
 The electronic state is 2-A.
 Alpha  occ. eigenvalues --  -11.66915 -11.66115 -11.63831 -11.63803 -11.62773
 Alpha  occ. eigenvalues --  -11.59398  -1.69286  -1.36405  -1.27911  -1.12981
 Alpha  occ. eigenvalues --   -0.97912  -0.91886  -0.87550  -0.85759  -0.76382
 Alpha  occ. eigenvalues --   -0.71551  -0.69875  -0.65879
 Alpha virt. eigenvalues --   -0.22494  -0.21864  -0.18273  -0.12277  -0.07935
 Alpha virt. eigenvalues --   -0.06767  -0.05555  -0.04826  -0.03640  -0.02353
 Alpha virt. eigenvalues --   -0.02176  -0.01589  -0.01273  -0.00600   0.01547
 Alpha virt. eigenvalues --    0.02020   0.02243   0.03937   0.04237   0.04956
 Alpha virt. eigenvalues --    0.06275   0.07016   0.07700   0.08597   0.09518
 Alpha virt. eigenvalues --    0.09660   0.09933   0.11551   0.12208   0.13213
 Alpha virt. eigenvalues --    0.16864   0.17633   0.20382   0.21171   0.23726
 Alpha virt. eigenvalues --    0.28872   0.31408   0.32038   0.33336   0.35041
 Alpha virt. eigenvalues --    0.35811   0.37284   0.37959   0.38459   0.41143
 Alpha virt. eigenvalues --    0.41811   0.42479   0.44388   0.45082   0.46924
 Alpha virt. eigenvalues --    0.48082   0.48515   0.49161   0.51773   0.53885
 Alpha virt. eigenvalues --    0.55062   0.57393   0.57420   0.59302   0.59406
 Alpha virt. eigenvalues --    0.60674   0.61258   0.63144   0.63825   0.64079
 Alpha virt. eigenvalues --    0.65469   0.66769   0.70103   0.72309   0.76309
 Alpha virt. eigenvalues --    0.80044   0.80168   0.81343   0.84810   0.88423
 Alpha virt. eigenvalues --    0.93923   0.94951   0.99681   1.00327   1.00666
 Alpha virt. eigenvalues --    1.03699   1.03895   1.06613   1.07575   1.09622
 Alpha virt. eigenvalues --    1.16370   1.18263   1.23825   1.30202   1.32552
 Alpha virt. eigenvalues --    1.34251   1.38814   1.46316   1.49572   1.50100
 Alpha virt. eigenvalues --    1.58438   1.60993   1.61221   1.66623   1.67318
 Alpha virt. eigenvalues --    1.74986   1.76051   1.82984   1.83576   1.94764
 Alpha virt. eigenvalues --    1.95529   1.97356   2.00182   2.01480   2.03444
 Alpha virt. eigenvalues --    2.08756   2.10834   2.11558   2.18720   2.23582
 Alpha virt. eigenvalues --    2.25375   2.25753   2.29056   2.37126   2.47735
 Alpha virt. eigenvalues --    2.52122   2.61901   2.70332   2.74782   2.76421
 Alpha virt. eigenvalues --    2.79876   2.80777   2.85914   2.86482   2.88032
 Alpha virt. eigenvalues --    2.91194   2.96774   2.97831   2.99407   3.03493
 Alpha virt. eigenvalues --    3.04306   3.06844   3.14717   3.16739   3.17340
 Alpha virt. eigenvalues --    3.23149   3.24206   3.32835   3.37083   3.37278
 Alpha virt. eigenvalues --    3.41836   3.46935   3.48296   3.52943   3.53785
 Alpha virt. eigenvalues --    3.55133   3.63698   3.65476   3.66919   3.69030
 Alpha virt. eigenvalues --    3.70131   3.85805   3.95053   3.99344   4.01924
 Alpha virt. eigenvalues --    4.04409   4.05688   4.12425   4.14783   4.28963
 Alpha virt. eigenvalues --    4.31148   4.34348   4.38653   4.41829   4.48717
 Alpha virt. eigenvalues --    4.60607   4.67556   4.71212   4.76050   4.93861
 Alpha virt. eigenvalues --    5.02171   5.07888   5.27847   5.45114   5.88101
 Alpha virt. eigenvalues --    7.08275   7.10124   7.20724   7.22324   7.23424
 Alpha virt. eigenvalues --    7.28803   7.32650   7.44121   7.49163   7.53321
 Alpha virt. eigenvalues --    7.59919   7.61182   7.65455   7.65611   7.65869
 Alpha virt. eigenvalues --    7.73436   7.75546   7.80414   7.85387   7.91521
 Alpha virt. eigenvalues --    7.97924   7.99823   8.15129   8.23345   8.26841
 Alpha virt. eigenvalues --    8.40082   8.68435   8.79266   8.83172   9.09519
 Alpha virt. eigenvalues --   25.16093  25.25257  25.41018  25.41353  25.57403
 Alpha virt. eigenvalues --   26.61581
  Beta  occ. eigenvalues --  -11.64204 -11.64157 -11.64142 -11.63449 -11.63063
  Beta  occ. eigenvalues --  -11.59865  -1.68510  -1.32628  -1.25307  -1.13734
  Beta  occ. eigenvalues --   -0.92993  -0.87560  -0.84735  -0.83839  -0.72753
  Beta  occ. eigenvalues --   -0.69419  -0.65354
  Beta virt. eigenvalues --   -0.22716  -0.21800  -0.20359  -0.14369  -0.13042
  Beta virt. eigenvalues --   -0.07510  -0.07205  -0.06021  -0.05110  -0.03880
  Beta virt. eigenvalues --   -0.02226  -0.02059  -0.01626  -0.01079  -0.00485
  Beta virt. eigenvalues --    0.02245   0.02349   0.02842   0.03966   0.04323
  Beta virt. eigenvalues --    0.05009   0.05716   0.07248   0.08940   0.09516
  Beta virt. eigenvalues --    0.09761   0.09892   0.10141   0.11809   0.12482
  Beta virt. eigenvalues --    0.15644   0.17438   0.17472   0.22082   0.22724
  Beta virt. eigenvalues --    0.24513   0.29925   0.31795   0.32513   0.33745
  Beta virt. eigenvalues --    0.36233   0.36553   0.37966   0.38555   0.40372
  Beta virt. eigenvalues --    0.41184   0.42584   0.42839   0.44690   0.46371
  Beta virt. eigenvalues --    0.46999   0.48066   0.48639   0.49577   0.52401
  Beta virt. eigenvalues --    0.53957   0.56579   0.57420   0.57556   0.59595
  Beta virt. eigenvalues --    0.59840   0.61186   0.61423   0.64051   0.64115
  Beta virt. eigenvalues --    0.65393   0.65879   0.67992   0.71400   0.72791
  Beta virt. eigenvalues --    0.77472   0.80268   0.80377   0.81431   0.84533
  Beta virt. eigenvalues --    0.88802   0.94441   0.95173   0.99752   1.00852
  Beta virt. eigenvalues --    1.01197   1.04208   1.04594   1.07358   1.07695
  Beta virt. eigenvalues --    1.10230   1.17391   1.19102   1.25294   1.32049
  Beta virt. eigenvalues --    1.32271   1.33879   1.39587   1.47485   1.48750
  Beta virt. eigenvalues --    1.51926   1.61217   1.62487   1.63789   1.65699
  Beta virt. eigenvalues --    1.67506   1.76305   1.77612   1.83615   1.84850
  Beta virt. eigenvalues --    1.96054   1.96404   1.98279   2.01583   2.03572
  Beta virt. eigenvalues --    2.05366   2.10209   2.11246   2.12435   2.19307
  Beta virt. eigenvalues --    2.24320   2.25548   2.26456   2.30094   2.38810
  Beta virt. eigenvalues --    2.47783   2.52183   2.62600   2.71693   2.75588
  Beta virt. eigenvalues --    2.76923   2.80804   2.80860   2.87034   2.87401
  Beta virt. eigenvalues --    2.88536   2.90556   2.97671   2.98564   3.00033
  Beta virt. eigenvalues --    3.04923   3.05795   3.07258   3.16112   3.16215
  Beta virt. eigenvalues --    3.17871   3.22508   3.25343   3.33899   3.37027
  Beta virt. eigenvalues --    3.38378   3.42470   3.47252   3.48939   3.53225
  Beta virt. eigenvalues --    3.54774   3.56175   3.64656   3.66340   3.66592
  Beta virt. eigenvalues --    3.69835   3.70471   3.85482   3.96799   3.99214
  Beta virt. eigenvalues --    4.01868   4.05065   4.07340   4.13878   4.15178
  Beta virt. eigenvalues --    4.29757   4.30935   4.35029   4.39388   4.43132
  Beta virt. eigenvalues --    4.48955   4.59854   4.68331   4.71624   4.76279
  Beta virt. eigenvalues --    4.94526   5.01910   5.08455   5.29156   5.45743
  Beta virt. eigenvalues --    5.88632   7.10301   7.10818   7.21282   7.23224
  Beta virt. eigenvalues --    7.23329   7.29510   7.32821   7.44594   7.48862
  Beta virt. eigenvalues --    7.54912   7.60310   7.61407   7.65617   7.65649
  Beta virt. eigenvalues --    7.67071   7.74771   7.76803   7.81958   7.86439
  Beta virt. eigenvalues --    7.92135   7.99521   8.00237   8.15520   8.23463
  Beta virt. eigenvalues --    8.27161   8.40595   8.67364   8.79460   8.83429
  Beta virt. eigenvalues --    9.10894  25.16721  25.25331  25.41141  25.43083
  Beta virt. eigenvalues --   25.57491  26.61933
          Condensed to atoms (all electrons):
               1          2          3          4          5          6
     1  C    9.034924  -1.461584   0.206438  -0.760862  -0.765659  -0.907339
     2  C   -1.461584   7.540373  -0.348590   0.375009   0.377791  -0.359869
     3  C    0.206438  -0.348590   7.207196  -1.026938  -1.027929   0.504335
     4  C   -0.760862   0.375009  -1.026938   8.389087   0.126945  -1.109463
     5  C   -0.765659   0.377791  -1.027929   0.126945   8.399878  -1.117283
     6  C   -0.907339  -0.359869   0.504335  -1.109463  -1.117283   9.018541
          Atomic-Atomic Spin Densities.
               1          2          3          4          5          6
     1  C   -0.382968  -0.852953   0.499656  -0.327038  -0.329150   0.584413
     2  C   -0.852953   2.318708  -0.738619   0.383626   0.384766  -0.334295
     3  C    0.499656  -0.738619   1.980267  -0.443290  -0.445742   0.128333
     4  C   -0.327038   0.383626  -0.443290   0.076580   0.272759  -0.226032
     5  C   -0.329150   0.384766  -0.445742   0.272759   0.079665  -0.226107
     6  C    0.584413  -0.334295   0.128333  -0.226032  -0.226107   0.267095
 Mulliken charges and spin densities:
               1          2
     1  C    0.654084  -0.808039
     2  C   -0.123130   1.161233
     3  C    0.485488   0.980604
     4  C    0.006223  -0.263396
     5  C    0.006258  -0.263809
     6  C   -0.028922   0.193407
 Sum of Mulliken charges =   1.00000   1.00000
 Mulliken charges and spin densities with hydrogens summed into heavy atoms:
               1          2
     1  C    0.654084  -0.808039
     2  C   -0.123130   1.161233
     3  C    0.485488   0.980604
     4  C    0.006223  -0.263396
     5  C    0.006258  -0.263809
     6  C   -0.028922   0.193407
 Electronic spatial extent (au):  <R**2>=            238.0308
 Charge=              1.0000 electrons
 Dipole moment (field-independent basis, Debye):
    X=              2.2514    Y=              0.1028    Z=             -0.0046  Tot=              2.2537
 Quadrupole moment (field-independent basis, Debye-Ang):
   XX=            -29.7525   YY=            -25.5428   ZZ=            -30.0149
   XY=              0.4903   XZ=              0.0050   YZ=              0.0014
 Traceless Quadrupole moment (field-independent basis, Debye-Ang):
   XX=             -1.3157   YY=              2.8939   ZZ=             -1.5782
   XY=              0.4903   XZ=              0.0050   YZ=              0.0014
 Octapole moment (field-independent basis, Debye-Ang**2):
  XXX=              9.8814  YYY=              0.6560  ZZZ=             -0.0175  XYY=              2.3874
  XXY=             -0.4571  XXZ=             -0.0053  XZZ=              1.0492  YZZ=              0.4249
  YYZ=             -0.0046  XYZ=              0.0031
 Hexadecapole moment (field-independent basis, Debye-Ang**3):
 XXXX=           -169.4781 YYYY=            -94.3138 ZZZZ=            -83.1450 XXXY=              2.5591
 XXXZ=              0.0137 YYYX=              0.2922 YYYZ=              0.0026 ZZZX=              0.0082
 ZZZY=              0.0057 XXYY=            -41.6448 XXZZ=            -39.3198 YYZZ=            -30.0542
 XXYZ=             -0.0002 YYXZ=              0.0025 ZZXY=              0.0787
 N-N= 1.673488520955D+02 E-N=-8.512506228178D+02  KE= 2.262932359472D+02
 Leave Link  601 at Wed Nov  2 23:31:27 2016, MaxMem=    33554432 cpu:         0.2
 (Enter /home/proyectos/fulerenos/M3C-v2.0/M3C-deps_CCC/g09-AM64L-G09RevC.01/l9999.exe)
 1\1\GINC-BELVIS3\SP\UCCSD(T)-FC\6-311+G(3df)\C6(1+,2)\NAGUIRRE\02-Nov-
 2016\0\\#p ccsd(t)/6-311+G(3df) scf(MaxCyc=300)\\ccsd(t) iener\\1,2\C,
 0,0.653371,-0.658648,-0.239585\C,0,-0.578096,-1.13156,-0.446978\C,0,-1
 .177225,0.201088,0.050392\C,0,-0.060663,0.176684,1.023532\C,0,-0.02253
 4,0.817687,-0.642423\C,0,1.185146,0.594748,0.255062\\Version=EM64L-G09
 RevE.01\State=2-A\HF=-226.3894562\MP2=-227.2471377\MP3=-227.2240613\MP
 4D=-227.2577781\MP4DQ=-227.219958\PUHF=-226.4166434\PMP2-0=-227.272601
 8\PMP3-0=-227.2463564\MP4SDQ=-227.2406182\CCSD=-227.2497728\CCSD(T)=-2
 27.3228333\S2=1.389799\S2-1=1.294846\S2A=0.935095\RMSD=9.122e-09\PG=C0
 1 [X(C6)]\\@


 BLESSED ARE THOSE WHO NOUGHT EXPECT,
 FOR THEY SHALL NOT BE DISAPPOINTED..  WALCOT - ODE TO PITT
 Job cpu time:       2 days  0 hours 36 minutes 38.7 seconds.
 File lengths (MBytes):  RWF=   7169 Int=      0 D2E=      0 Chk=      5 Scr=      1
 Normal termination of Gaussian 09 at Wed Nov  2 23:31:29 2016.
