 Entering Gaussian System, Link 0=/home/proyectos/fulerenos/M3C-v2.0/M3C-deps_CCC/g09-AM64L-G09RevC.01/g09
 Initial command:
 /home/proyectos/fulerenos/M3C-v2.0/M3C-deps_CCC/g09-AM64L-G09RevC.01/l1.exe "/scratch/naguirre/gaussian/Gau-14369.inp" -scrdir="/scratch/naguirre/gaussian/"
 Entering Link 1 = /home/proyectos/fulerenos/M3C-v2.0/M3C-deps_CCC/g09-AM64L-G09RevC.01/l1.exe PID=     14374.
  
 Copyright (c) 1988,1990,1992,1993,1995,1998,2003,2009,2015,
            Gaussian, Inc.  All Rights Reserved.
  
 This is part of the Gaussian(R) 09 program.  It is based on
 the Gaussian(R) 03 system (copyright 2003, Gaussian, Inc.),
 the Gaussian(R) 98 system (copyright 1998, Gaussian, Inc.),
 the Gaussian(R) 94 system (copyright 1995, Gaussian, Inc.),
 the Gaussian 92(TM) system (copyright 1992, Gaussian, Inc.),
 the Gaussian 90(TM) system (copyright 1990, Gaussian, Inc.),
 the Gaussian 88(TM) system (copyright 1988, Gaussian, Inc.),
 the Gaussian 86(TM) system (copyright 1986, Carnegie Mellon
 University), and the Gaussian 82(TM) system (copyright 1983,
 Carnegie Mellon University). Gaussian is a federally registered
 trademark of Gaussian, Inc.
  
 This software contains proprietary and confidential information,
 including trade secrets, belonging to Gaussian, Inc.
  
 This software is provided under written license and may be
 used, copied, transmitted, or stored only in accord with that
 written license.
  
 The following legend is applicable only to US Government
 contracts under FAR:
  
                    RESTRICTED RIGHTS LEGEND
  
 Use, reproduction and disclosure by the US Government is
 subject to restrictions as set forth in subparagraphs (a)
 and (c) of the Commercial Computer Software - Restricted
 Rights clause in FAR 52.227-19.
  
 Gaussian, Inc.
 340 Quinnipiac St., Bldg. 40, Wallingford CT 06492
  
  
 ---------------------------------------------------------------
 Warning -- This program may not be used in any manner that
 competes with the business of Gaussian, Inc. or will provide
 assistance to any competitor of Gaussian, Inc.  The licensee
 of this program is prohibited from giving any competitor of
 Gaussian, Inc. access to this program.  By using this program,
 the user acknowledges that Gaussian, Inc. is engaged in the
 business of creating and licensing software in the field of
 computational chemistry and represents and warrants to the
 licensee that it is not a competitor of Gaussian, Inc. and that
 it will not use this program in any manner prohibited above.
 ---------------------------------------------------------------
  

 Cite this work as:
 Gaussian 09, Revision E.01,
 M. J. Frisch, G. W. Trucks, H. B. Schlegel, G. E. Scuseria, 
 M. A. Robb, J. R. Cheeseman, G. Scalmani, V. Barone, B. Mennucci, 
 G. A. Petersson, H. Nakatsuji, M. Caricato, X. Li, H. P. Hratchian, 
 A. F. Izmaylov, J. Bloino, G. Zheng, J. L. Sonnenberg, M. Hada, 
 M. Ehara, K. Toyota, R. Fukuda, J. Hasegawa, M. Ishida, T. Nakajima, 
 Y. Honda, O. Kitao, H. Nakai, T. Vreven, J. A. Montgomery, Jr., 
 J. E. Peralta, F. Ogliaro, M. Bearpark, J. J. Heyd, E. Brothers, 
 K. N. Kudin, V. N. Staroverov, T. Keith, R. Kobayashi, J. Normand, 
 K. Raghavachari, A. Rendell, J. C. Burant, S. S. Iyengar, J. Tomasi, 
 M. Cossi, N. Rega, J. M. Millam, M. Klene, J. E. Knox, J. B. Cross, 
 V. Bakken, C. Adamo, J. Jaramillo, R. Gomperts, R. E. Stratmann, 
 O. Yazyev, A. J. Austin, R. Cammi, C. Pomelli, J. W. Ochterski, 
 R. L. Martin, K. Morokuma, V. G. Zakrzewski, G. A. Voth, 
 P. Salvador, J. J. Dannenberg, S. Dapprich, A. D. Daniels, 
 O. Farkas, J. B. Foresman, J. V. Ortiz, J. Cioslowski, 
 and D. J. Fox, Gaussian, Inc., Wallingford CT, 2013.
 
 ******************************************
 Gaussian 09:  EM64L-G09RevE.01 30-Nov-2015
                 2-Nov-2016 
 ******************************************
 %NProcShared=6
 Will use up to    6 processors via shared memory.
 ---------------------------------------
 #p ccsd(t)/6-311+G(3df) scf(MaxCyc=300)
 ---------------------------------------
 1/38=1/1;
 2/12=2,17=6,18=5,40=1/2;
 3/5=4,6=6,7=16,11=9,16=1,25=1,30=1/1,2,3;
 4//1;
 5/5=2,7=300,38=5/2;
 8/6=4,9=120000,10=2/1,4;
 9/5=7,14=2/13;
 6/7=2,8=2,9=2,10=2/1;
 99/5=1,9=1/99;
 Leave Link    1 at Wed Nov  2 08:21:51 2016, MaxMem=           0 cpu:         0.4
 (Enter /home/proyectos/fulerenos/M3C-v2.0/M3C-deps_CCC/g09-AM64L-G09RevC.01/l101.exe)
 -------------
 ccsd(t) iener
 -------------
 Symbolic Z-matrix:
 Charge =  1 Multiplicity = 4
 C                    -0.89429  -0.31115  -1.26274 
 C                    -0.71467   0.99263  -0.99649 
 C                     1.28333  -0.24811   1.83805 
 C                     0.02917  -0.05482   1.42143 
 C                    -0.03808   0.26722  -0.03925 
 C                    -0.9677   -1.64526  -1.37793 
 C                     1.31537  -0.04751   0.51796 
 
 NAtoms=      7 NQM=        7 NQMF=       0 NMMI=      0 NMMIF=      0
                NMic=       0 NMicF=      0.
                    Isotopes and Nuclear Properties:
 (Nuclear quadrupole moments (NQMom) in fm**2, nuclear magnetic moments (NMagM)
  in nuclear magnetons)

  Atom         1           2           3           4           5           6           7
 IAtWgt=          12          12          12          12          12          12          12
 AtmWgt=  12.0000000  12.0000000  12.0000000  12.0000000  12.0000000  12.0000000  12.0000000
 NucSpn=           0           0           0           0           0           0           0
 AtZEff=   0.0000000   0.0000000   0.0000000   0.0000000   0.0000000   0.0000000   0.0000000
 NQMom=    0.0000000   0.0000000   0.0000000   0.0000000   0.0000000   0.0000000   0.0000000
 NMagM=    0.0000000   0.0000000   0.0000000   0.0000000   0.0000000   0.0000000   0.0000000
 AtZNuc=   6.0000000   6.0000000   6.0000000   6.0000000   6.0000000   6.0000000   6.0000000
 Leave Link  101 at Wed Nov  2 08:21:51 2016, MaxMem=    33554432 cpu:         0.3
 (Enter /home/proyectos/fulerenos/M3C-v2.0/M3C-deps_CCC/g09-AM64L-G09RevC.01/l202.exe)
                          Input orientation:                          
 ---------------------------------------------------------------------
 Center     Atomic      Atomic             Coordinates (Angstroms)
 Number     Number       Type             X           Y           Z
 ---------------------------------------------------------------------
      1          6           0       -0.894286   -0.311149   -1.262737
      2          6           0       -0.714668    0.992627   -0.996486
      3          6           0        1.283327   -0.248113    1.838045
      4          6           0        0.029166   -0.054820    1.421428
      5          6           0       -0.038083    0.267218   -0.039247
      6          6           0       -0.967700   -1.645261   -1.377931
      7          6           0        1.315367   -0.047511    0.517961
 ---------------------------------------------------------------------
                    Distance matrix (angstroms):
                    1          2          3          4          5
     1  C    0.000000
     2  C    1.342752   0.000000
     3  C    3.789567   3.683203   0.000000
     4  C    2.850125   2.738018   1.335609   0.000000
     5  C    1.601412   1.378511   2.352853   1.497265   0.000000
     6  C    1.341087   2.677308   4.166731   3.370409   2.512735
     7  C    2.850080   2.737970   1.335623   1.571820   1.497118
                    6          7
     6  C    0.000000
     7  C    3.370402   0.000000
 Stoichiometry    C7(1+,4)
 Framework group  C1[X(C7)]
 Deg. of freedom    15
 Full point group                 C1      NOp   1
 Largest Abelian subgroup         C1      NOp   1
 Largest concise Abelian subgroup C1      NOp   1
                         Standard orientation:                         
 ---------------------------------------------------------------------
 Center     Atomic      Atomic             Coordinates (Angstroms)
 Number     Number       Type             X           Y           Z
 ---------------------------------------------------------------------
      1          6           0       -1.568239    0.031630   -0.000002
      2          6           0       -1.089135    1.286000    0.000066
      3          6           0        2.199767   -0.372044   -0.000013
      4          6           0        1.170282   -0.045990    0.785927
      5          6           0       -0.015100    0.421859   -0.000068
      6          6           0       -1.867824   -1.275566   -0.000016
      7          6           0        1.170250   -0.045888   -0.785893
 ---------------------------------------------------------------------
 Rotational constants (GHZ):      8.7054259      2.6407792      2.2994677
 Leave Link  202 at Wed Nov  2 08:21:51 2016, MaxMem=    33554432 cpu:         0.0
 (Enter /home/proyectos/fulerenos/M3C-v2.0/M3C-deps_CCC/g09-AM64L-G09RevC.01/l301.exe)
 Standard basis: 6-311+G(3df) (5D, 7F)
 Ernie: Thresh=  0.10000D-02 Tol=  0.10000D-05 Strict=F.
 There are   315 symmetry adapted cartesian basis functions of A   symmetry.
 There are   273 symmetry adapted basis functions of A   symmetry.
   273 basis functions,   406 primitive gaussians,   315 cartesian basis functions
    22 alpha electrons       19 beta electrons
       nuclear repulsion energy       196.3564361132 Hartrees.
 IExCor=    0 DFT=F Ex=HF Corr=None ExCW=0 ScaHFX=  1.000000
 ScaDFX=  1.000000  1.000000  1.000000  1.000000 ScalE2=  1.000000  1.000000
 IRadAn=      0 IRanWt=     -1 IRanGd=            0 ICorTp=0 IEmpDi=  4
 NAtoms=    7 NActive=    7 NUniq=    7 SFac= 1.00D+00 NAtFMM=   60 NAOKFM=F Big=F
 Integral buffers will be    131072 words long.
 Raffenetti 2 integral format.
 Two-electron integral symmetry is turned on.
 Leave Link  301 at Wed Nov  2 08:21:51 2016, MaxMem=    33554432 cpu:         0.2
 (Enter /home/proyectos/fulerenos/M3C-v2.0/M3C-deps_CCC/g09-AM64L-G09RevC.01/l302.exe)
 NPDir=0 NMtPBC=     1 NCelOv=     1 NCel=       1 NClECP=     1 NCelD=      1
         NCelK=      1 NCelE2=     1 NClLst=     1 CellRange=     0.0.
 One-electron integrals computed using PRISM.
 PrsmSu:  requested number of processors reduced to:   4 ShMem   1 Linda.
 NBasis=   273 RedAO= T EigKep=  1.98D-06  NBF=   273
 NBsUse=   273 1.00D-06 EigRej= -1.00D+00 NBFU=   273
 Leave Link  302 at Wed Nov  2 08:21:51 2016, MaxMem=    33554432 cpu:         1.9
 (Enter /home/proyectos/fulerenos/M3C-v2.0/M3C-deps_CCC/g09-AM64L-G09RevC.01/l303.exe)
 DipDrv:  MaxL=1.
 Leave Link  303 at Wed Nov  2 08:21:51 2016, MaxMem=    33554432 cpu:         0.2
 (Enter /home/proyectos/fulerenos/M3C-v2.0/M3C-deps_CCC/g09-AM64L-G09RevC.01/l401.exe)
 ExpMin= 4.38D-02 ExpMax= 4.56D+03 ExpMxC= 6.82D+02 IAcc=2 IRadAn=         4 AccDes= 0.00D+00
 Harris functional with IExCor=  205 and IRadAn=       4 diagonalized for initial guess.
 HarFok:  IExCor=  205 AccDes= 0.00D+00 IRadAn=         4 IDoV= 1 UseB2=F ITyADJ=14
 ICtDFT=  3500011 ScaDFX=  1.000000  1.000000  1.000000  1.000000
 FoFCou: FMM=F IPFlag=           0 FMFlag=      100000 FMFlg1=           0
         NFxFlg=           0 DoJE=T BraDBF=F KetDBF=T FulRan=T
         wScrn=  0.000000 ICntrl=     500 IOpCl=  0 I1Cent=   200000004 NGrid=           0
         NMat0=    1 NMatS0=      1 NMatT0=    0 NMatD0=    1 NMtDS0=    0 NMtDT0=    0
 Petite list used in FoFCou.
 Harris En= -264.368043262644    
 JPrj=0 DoOrth=F DoCkMO=F.
 Initial guess <Sx>= 0.0000 <Sy>= 0.0000 <Sz>= 1.5000 <S**2>= 3.7500 S= 1.5000
 Leave Link  401 at Wed Nov  2 08:21:52 2016, MaxMem=    33554432 cpu:         3.8
 (Enter /home/proyectos/fulerenos/M3C-v2.0/M3C-deps_CCC/g09-AM64L-G09RevC.01/l502.exe)
 UHF open shell SCF:
 Using DIIS extrapolation, IDIIS=  1040.
 Integral symmetry usage will be decided dynamically.
 IVT=      394831 IEndB=      394831 NGot=    33554432 MDV=    33349742
 LenX=    33349742 LenY=    33250076
 Requested convergence on RMS density matrix=1.00D-08 within 300 cycles.
 Requested convergence on MAX density matrix=1.00D-06.
 Requested convergence on             energy=1.00D-06.
 No special actions if energy rises.
 Fock matrices will be formed incrementally for  20 cycles.

 Cycle   1  Pass 0  IDiag  1:
 FoFJK:  IHMeth= 1 ICntrl=       0 DoSepK=F KAlg= 0 I1Cent=   0 FoldK=F
 IRaf= 980000000 NMat=   1 IRICut=       1 DoRegI=T DoRafI=F ISym2E= 0.
 FoFCou: FMM=F IPFlag=           0 FMFlag=      100000 FMFlg1=           0
         NFxFlg=           0 DoJE=F BraDBF=F KetDBF=F FulRan=T
         wScrn=  0.000000 ICntrl=       0 IOpCl=  1 I1Cent=           0 NGrid=           0
         NMat0=    1 NMatS0=      1 NMatT0=    0 NMatD0=    1 NMtDS0=    0 NMtDT0=    0
 Symmetry not used in FoFCou.
 E= -264.080038016714    
 DIIS: error= 3.69D-02 at cycle   1 NSaved=   1.
 NSaved= 1 IEnMin= 1 EnMin= -264.080038016714     IErMin= 1 ErrMin= 3.69D-02
 ErrMax= 3.69D-02  0.00D+00 EMaxC= 1.00D-01 BMatC= 1.68D+00 BMatP= 1.68D+00
 IDIUse=3 WtCom= 6.31D-01 WtEn= 3.69D-01
 Coeff-Com:  0.100D+01
 Coeff-En:   0.100D+01
 Coeff:      0.100D+01
 Gap=     0.320 Goal=   None    Shift=    0.000
 Gap=     0.400 Goal=   None    Shift=    0.000
 GapD=    0.320 DampG=1.000 DampE=0.500 DampFc=0.5000 IDamp=-1.
 Damping current iteration by 5.00D-01
 RMSDP=9.09D-03 MaxDP=5.40D-01              OVMax= 1.47D-01

 Cycle   2  Pass 0  IDiag  1:
 RMSU=  3.74D-03    CP:  9.13D-01
 E= -264.165928825156     Delta-E=       -0.085890808442 Rises=F Damp=T
 DIIS: error= 1.89D-02 at cycle   2 NSaved=   2.
 NSaved= 2 IEnMin= 2 EnMin= -264.165928825156     IErMin= 2 ErrMin= 1.89D-02
 ErrMax= 1.89D-02  0.00D+00 EMaxC= 1.00D-01 BMatC= 4.56D-01 BMatP= 1.68D+00
 IDIUse=3 WtCom= 8.11D-01 WtEn= 1.89D-01
 Coeff-Com: -0.892D+00 0.189D+01
 Coeff-En:   0.000D+00 0.100D+01
 Coeff:     -0.724D+00 0.172D+01
 Gap=     0.378 Goal=   None    Shift=    0.000
 Gap=     0.390 Goal=   None    Shift=    0.000
 RMSDP=7.94D-03 MaxDP=6.16D-01 DE=-8.59D-02 OVMax= 7.37D-02

 Cycle   3  Pass 0  IDiag  1:
 RMSU=  4.13D-03    CP:  7.58D-01  2.33D+00
 E= -264.270440354259     Delta-E=       -0.104511529104 Rises=F Damp=F
 DIIS: error= 8.99D-03 at cycle   3 NSaved=   3.
 NSaved= 3 IEnMin= 3 EnMin= -264.270440354259     IErMin= 3 ErrMin= 8.99D-03
 ErrMax= 8.99D-03  0.00D+00 EMaxC= 1.00D-01 BMatC= 3.14D-02 BMatP= 4.56D-01
 IDIUse=3 WtCom= 9.10D-01 WtEn= 8.99D-02
 Coeff-Com: -0.329D+00 0.593D+00 0.736D+00
 Coeff-En:   0.000D+00 0.000D+00 0.100D+01
 Coeff:     -0.299D+00 0.540D+00 0.760D+00
 Gap=     0.362 Goal=   None    Shift=    0.000
 Gap=     0.383 Goal=   None    Shift=    0.000
 RMSDP=1.70D-03 MaxDP=1.53D-01 DE=-1.05D-01 OVMax= 5.90D-02

 Cycle   4  Pass 0  IDiag  1:
 RMSU=  1.25D-03    CP:  7.57D-01  2.59D+00  1.15D+00
 E= -264.283960987410     Delta-E=       -0.013520633150 Rises=F Damp=F
 DIIS: error= 3.84D-03 at cycle   4 NSaved=   4.
 NSaved= 4 IEnMin= 4 EnMin= -264.283960987410     IErMin= 4 ErrMin= 3.84D-03
 ErrMax= 3.84D-03  0.00D+00 EMaxC= 1.00D-01 BMatC= 6.18D-03 BMatP= 3.14D-02
 IDIUse=3 WtCom= 9.62D-01 WtEn= 3.84D-02
 Coeff-Com:  0.122D+00-0.242D+00 0.443D-02 0.112D+01
 Coeff-En:   0.000D+00 0.000D+00 0.000D+00 0.100D+01
 Coeff:      0.117D+00-0.232D+00 0.426D-02 0.111D+01
 Gap=     0.375 Goal=   None    Shift=    0.000
 Gap=     0.385 Goal=   None    Shift=    0.000
 RMSDP=1.68D-03 MaxDP=1.41D-01 DE=-1.35D-02 OVMax= 4.21D-02

 Cycle   5  Pass 0  IDiag  1:
 RMSU=  5.26D-04    CP:  7.52D-01  2.76D+00  1.43D+00  1.73D+00
 E= -264.290884042257     Delta-E=       -0.006923054847 Rises=F Damp=F
 DIIS: error= 2.32D-03 at cycle   5 NSaved=   5.
 NSaved= 5 IEnMin= 5 EnMin= -264.290884042257     IErMin= 5 ErrMin= 2.32D-03
 ErrMax= 2.32D-03  0.00D+00 EMaxC= 1.00D-01 BMatC= 2.59D-03 BMatP= 6.18D-03
 IDIUse=3 WtCom= 9.77D-01 WtEn= 2.32D-02
 Coeff-Com:  0.102D+00-0.183D+00-0.188D+00-0.372D-01 0.131D+01
 Coeff-En:   0.000D+00 0.000D+00 0.000D+00 0.000D+00 0.100D+01
 Coeff:      0.995D-01-0.179D+00-0.184D+00-0.363D-01 0.130D+01
 Gap=     0.392 Goal=   None    Shift=    0.000
 Gap=     0.407 Goal=   None    Shift=    0.000
 RMSDP=1.27D-03 MaxDP=1.07D-01 DE=-6.92D-03 OVMax= 5.50D-02

 Cycle   6  Pass 0  IDiag  1:
 RMSU=  3.84D-04    CP:  7.47D-01  2.85D+00  1.60D+00  2.36D+00  1.90D+00
 E= -264.295892328616     Delta-E=       -0.005008286359 Rises=F Damp=F
 DIIS: error= 1.58D-03 at cycle   6 NSaved=   6.
 NSaved= 6 IEnMin= 6 EnMin= -264.295892328616     IErMin= 6 ErrMin= 1.58D-03
 ErrMax= 1.58D-03  0.00D+00 EMaxC= 1.00D-01 BMatC= 1.27D-03 BMatP= 2.59D-03
 IDIUse=3 WtCom= 9.84D-01 WtEn= 1.58D-02
 Coeff-Com: -0.650D-01 0.124D+00 0.936D-01-0.359D+00-0.270D+00 0.148D+01
 Coeff-En:   0.000D+00 0.000D+00 0.000D+00 0.000D+00 0.000D+00 0.100D+01
 Coeff:     -0.639D-01 0.122D+00 0.921D-01-0.353D+00-0.266D+00 0.147D+01
 Gap=     0.399 Goal=   None    Shift=    0.000
 Gap=     0.413 Goal=   None    Shift=    0.000
 RMSDP=7.28D-04 MaxDP=3.87D-02 DE=-5.01D-03 OVMax= 4.81D-02

 Cycle   7  Pass 0  IDiag  1:
 RMSU=  2.22D-04    CP:  7.40D-01  2.86D+00  1.64D+00  2.60D+00  2.63D+00
                    CP:  2.07D+00
 E= -264.298709252793     Delta-E=       -0.002816924177 Rises=F Damp=F
 DIIS: error= 1.14D-03 at cycle   7 NSaved=   7.
 NSaved= 7 IEnMin= 7 EnMin= -264.298709252793     IErMin= 7 ErrMin= 1.14D-03
 ErrMax= 1.14D-03  0.00D+00 EMaxC= 1.00D-01 BMatC= 6.28D-04 BMatP= 1.27D-03
 IDIUse=3 WtCom= 9.89D-01 WtEn= 1.14D-02
 Coeff-Com: -0.446D-01 0.788D-01 0.129D+00 0.159D+00-0.744D+00-0.474D+00
 Coeff-Com:  0.190D+01
 Coeff-En:   0.000D+00 0.000D+00 0.000D+00 0.000D+00 0.000D+00 0.000D+00
 Coeff-En:   0.100D+01
 Coeff:     -0.441D-01 0.779D-01 0.128D+00 0.157D+00-0.735D+00-0.468D+00
 Coeff:      0.189D+01
 Gap=     0.404 Goal=   None    Shift=    0.000
 Gap=     0.414 Goal=   None    Shift=    0.000
 RMSDP=8.15D-04 MaxDP=4.77D-02 DE=-2.82D-03 OVMax= 5.55D-02

 Cycle   8  Pass 0  IDiag  1:
 RMSU=  3.18D-04    CP:  7.34D-01  2.85D+00  1.65D+00  2.71D+00  3.00D+00
                    CP:  3.00D+00  2.60D+00
 E= -264.300717930095     Delta-E=       -0.002008677302 Rises=F Damp=F
 DIIS: error= 5.81D-04 at cycle   8 NSaved=   8.
 NSaved= 8 IEnMin= 8 EnMin= -264.300717930095     IErMin= 8 ErrMin= 5.81D-04
 ErrMax= 5.81D-04  0.00D+00 EMaxC= 1.00D-01 BMatC= 2.21D-04 BMatP= 6.28D-04
 IDIUse=3 WtCom= 9.94D-01 WtEn= 5.81D-03
 Coeff-Com:  0.472D-01-0.874D-01-0.894D-01 0.493D-01 0.452D+00-0.256D+00
 Coeff-Com: -0.887D+00 0.177D+01
 Coeff-En:   0.000D+00 0.000D+00 0.000D+00 0.000D+00 0.000D+00 0.000D+00
 Coeff-En:   0.000D+00 0.100D+01
 Coeff:      0.469D-01-0.869D-01-0.889D-01 0.491D-01 0.449D+00-0.255D+00
 Coeff:     -0.882D+00 0.177D+01
 Gap=     0.406 Goal=   None    Shift=    0.000
 Gap=     0.420 Goal=   None    Shift=    0.000
 RMSDP=5.32D-04 MaxDP=3.26D-02 DE=-2.01D-03 OVMax= 3.05D-02

 Cycle   9  Pass 0  IDiag  1:
 RMSU=  2.31D-04    CP:  7.31D-01  2.85D+00  1.69D+00  2.81D+00  3.00D+00
                    CP:  3.00D+00  3.00D+00  2.19D+00
 E= -264.301412835618     Delta-E=       -0.000694905523 Rises=F Damp=F
 DIIS: error= 3.24D-04 at cycle   9 NSaved=   9.
 NSaved= 9 IEnMin= 9 EnMin= -264.301412835618     IErMin= 9 ErrMin= 3.24D-04
 ErrMax= 3.24D-04  0.00D+00 EMaxC= 1.00D-01 BMatC= 1.03D-04 BMatP= 2.21D-04
 IDIUse=3 WtCom= 9.97D-01 WtEn= 3.24D-03
 Coeff-Com:  0.301D-02-0.454D-02-0.648D-02-0.176D-01 0.721D-01 0.142D+00
 Coeff-Com: -0.214D+00-0.572D+00 0.160D+01
 Coeff-En:   0.000D+00 0.000D+00 0.000D+00 0.000D+00 0.000D+00 0.000D+00
 Coeff-En:   0.000D+00 0.000D+00 0.100D+01
 Coeff:      0.300D-02-0.452D-02-0.645D-02-0.175D-01 0.719D-01 0.141D+00
 Coeff:     -0.213D+00-0.570D+00 0.160D+01
 Gap=     0.406 Goal=   None    Shift=    0.000
 Gap=     0.422 Goal=   None    Shift=    0.000
 RMSDP=3.20D-04 MaxDP=1.73D-02 DE=-6.95D-04 OVMax= 1.33D-02

 Cycle  10  Pass 0  IDiag  1:
 RMSU=  1.09D-04    CP:  7.30D-01  2.85D+00  1.70D+00  2.83D+00  3.00D+00
                    CP:  3.00D+00  3.00D+00  2.79D+00  1.96D+00
 E= -264.301700688402     Delta-E=       -0.000287852784 Rises=F Damp=F
 DIIS: error= 3.23D-04 at cycle  10 NSaved=  10.
 NSaved=10 IEnMin=10 EnMin= -264.301700688402     IErMin=10 ErrMin= 3.23D-04
 ErrMax= 3.23D-04  0.00D+00 EMaxC= 1.00D-01 BMatC= 6.75D-05 BMatP= 1.03D-04
 IDIUse=3 WtCom= 9.97D-01 WtEn= 3.23D-03
 Coeff-Com: -0.182D-01 0.335D-01 0.428D-01-0.146D-01-0.196D+00 0.504D-01
 Coeff-Com:  0.440D+00-0.737D+00-0.544D-02 0.140D+01
 Coeff-En:   0.000D+00 0.000D+00 0.000D+00 0.000D+00 0.000D+00 0.000D+00
 Coeff-En:   0.000D+00 0.000D+00 0.000D+00 0.100D+01
 Coeff:     -0.182D-01 0.334D-01 0.427D-01-0.145D-01-0.196D+00 0.502D-01
 Coeff:      0.439D+00-0.735D+00-0.543D-02 0.140D+01
 Gap=     0.405 Goal=   None    Shift=    0.000
 Gap=     0.425 Goal=   None    Shift=    0.000
 RMSDP=2.96D-04 MaxDP=1.97D-02 DE=-2.88D-04 OVMax= 1.15D-02

 Cycle  11  Pass 0  IDiag  1:
 RMSU=  1.05D-04    CP:  7.29D-01  2.84D+00  1.71D+00  2.86D+00  3.00D+00
                    CP:  3.00D+00  3.00D+00  3.00D+00  2.80D+00  2.31D+00
 E= -264.301904041972     Delta-E=       -0.000203353570 Rises=F Damp=F
 DIIS: error= 3.00D-04 at cycle  11 NSaved=  11.
 NSaved=11 IEnMin=11 EnMin= -264.301904041972     IErMin=11 ErrMin= 3.00D-04
 ErrMax= 3.00D-04  0.00D+00 EMaxC= 1.00D-01 BMatC= 5.27D-05 BMatP= 6.75D-05
 IDIUse=3 WtCom= 9.97D-01 WtEn= 3.00D-03
 Coeff-Com:  0.114D-02-0.233D-02-0.311D-02-0.121D-03 0.108D-01-0.486D-01
 Coeff-Com: -0.510D-02 0.301D+00-0.461D+00-0.316D+00 0.152D+01
 Coeff-En:   0.000D+00 0.000D+00 0.000D+00 0.000D+00 0.000D+00 0.000D+00
 Coeff-En:   0.000D+00 0.000D+00 0.000D+00 0.000D+00 0.100D+01
 Coeff:      0.114D-02-0.232D-02-0.310D-02-0.121D-03 0.108D-01-0.484D-01
 Coeff:     -0.508D-02 0.300D+00-0.459D+00-0.315D+00 0.152D+01
 Gap=     0.406 Goal=   None    Shift=    0.000
 Gap=     0.427 Goal=   None    Shift=    0.000
 RMSDP=2.75D-04 MaxDP=1.94D-02 DE=-2.03D-04 OVMax= 1.10D-02

 Cycle  12  Pass 0  IDiag  1:
 RMSU=  1.41D-04    CP:  7.28D-01  2.84D+00  1.71D+00  2.88D+00  3.00D+00
                    CP:  3.00D+00  3.00D+00  3.00D+00  3.00D+00  3.00D+00
                    CP:  2.45D+00
 E= -264.302066832856     Delta-E=       -0.000162790884 Rises=F Damp=F
 DIIS: error= 3.07D-04 at cycle  12 NSaved=  12.
 NSaved=12 IEnMin=12 EnMin= -264.302066832856     IErMin=11 ErrMin= 3.00D-04
 ErrMax= 3.07D-04  0.00D+00 EMaxC= 1.00D-01 BMatC= 4.99D-05 BMatP= 5.27D-05
 IDIUse=3 WtCom= 9.97D-01 WtEn= 3.00D-03
 Coeff-Com:  0.932D-03-0.176D-02-0.208D-02 0.339D-02 0.730D-02-0.150D-01
 Coeff-Com: -0.134D-01 0.113D+00-0.137D+00-0.979D-01 0.252D+00 0.892D+00
 Coeff-En:   0.000D+00 0.000D+00 0.000D+00 0.000D+00 0.000D+00 0.000D+00
 Coeff-En:   0.000D+00 0.000D+00 0.000D+00 0.000D+00 0.000D+00 0.100D+01
 Coeff:      0.929D-03-0.175D-02-0.207D-02 0.338D-02 0.727D-02-0.150D-01
 Coeff:     -0.134D-01 0.112D+00-0.137D+00-0.976D-01 0.251D+00 0.892D+00
 Gap=     0.406 Goal=   None    Shift=    0.000
 Gap=     0.427 Goal=   None    Shift=    0.000
 RMSDP=1.31D-04 MaxDP=9.28D-03 DE=-1.63D-04 OVMax= 5.44D-03

 Cycle  13  Pass 0  IDiag  1:
 RMSU=  3.25D-05    CP:  7.28D-01  2.84D+00  1.71D+00  2.89D+00  3.00D+00
                    CP:  3.00D+00  3.00D+00  3.00D+00  3.00D+00  3.00D+00
                    CP:  3.00D+00  1.77D+00
 E= -264.302139624406     Delta-E=       -0.000072791550 Rises=F Damp=F
 DIIS: error= 3.14D-04 at cycle  13 NSaved=  13.
 NSaved=13 IEnMin=13 EnMin= -264.302139624406     IErMin=11 ErrMin= 3.00D-04
 ErrMax= 3.14D-04  0.00D+00 EMaxC= 1.00D-01 BMatC= 5.05D-05 BMatP= 4.99D-05
 IDIUse=3 WtCom= 9.97D-01 WtEn= 3.00D-03
 Coeff-Com:  0.261D-02-0.484D-02-0.678D-02 0.810D-02 0.248D-01-0.193D-01
 Coeff-Com: -0.554D-01 0.203D+00-0.172D+00-0.229D+00 0.252D+00 0.211D+01
 Coeff-Com: -0.112D+01
 Coeff-En:   0.000D+00 0.000D+00 0.000D+00 0.000D+00 0.000D+00 0.000D+00
 Coeff-En:   0.000D+00 0.000D+00 0.000D+00 0.000D+00 0.000D+00 0.000D+00
 Coeff-En:   0.100D+01
 Coeff:      0.261D-02-0.482D-02-0.676D-02 0.808D-02 0.247D-01-0.193D-01
 Coeff:     -0.552D-01 0.202D+00-0.172D+00-0.229D+00 0.252D+00 0.211D+01
 Coeff:     -0.111D+01
 Gap=     0.406 Goal=   None    Shift=    0.000
 Gap=     0.427 Goal=   None    Shift=    0.000
 RMSDP=1.10D-04 MaxDP=7.66D-03 DE=-7.28D-05 OVMax= 4.60D-03

 Cycle  14  Pass 0  IDiag  1:
 RMSU=  7.83D-06    CP:  7.28D-01  2.84D+00  1.71D+00  2.88D+00  3.00D+00
                    CP:  3.00D+00  3.00D+00  3.00D+00  3.00D+00  3.00D+00
                    CP:  2.52D+00  1.14D+00  2.09D-01
 E= -264.302080049456     Delta-E=        0.000059574950 Rises=F Damp=F
 DIIS: error= 3.08D-04 at cycle  14 NSaved=  14.
 NSaved=14 IEnMin=13 EnMin= -264.302139624406     IErMin=11 ErrMin= 3.00D-04
 ErrMax= 3.08D-04  0.00D+00 EMaxC= 1.00D-01 BMatC= 4.95D-05 BMatP= 4.99D-05
 IDIUse=3 WtCom= 9.97D-01 WtEn= 3.00D-03
 Large coefficients: NSaved= 14 BigCof=   10.14 CofMax=   10.00 Det=-4.57D-08
 Inversion failed.  Reducing to 13 matrices.
 Large coefficients: NSaved= 13 BigCof=   10.07 CofMax=   10.00 Det=-4.83D-08
 Inversion failed.  Reducing to 12 matrices.
 Large coefficients: NSaved= 12 BigCof=   10.07 CofMax=   10.00 Det=-4.83D-08
 Inversion failed.  Reducing to 11 matrices.
 Rare condition: small coef for last iteration:  0.000D+00
 Coeff-Com:  0.387D-02 0.741D-03 0.195D-01-0.497D-01-0.563D-01 0.244D+00
 Coeff-Com:  0.627D-01-0.148D+01 0.203D+01-0.951D+01 0.973D+01
 Coeff-En:   0.000D+00 0.000D+00 0.000D+00 0.000D+00 0.000D+00 0.000D+00
 Coeff-En:   0.000D+00 0.000D+00 0.000D+00 0.000D+00 0.100D+01
 Coeff:      0.387D-02 0.741D-03 0.195D-01-0.497D-01-0.563D-01 0.244D+00
 Coeff:      0.627D-01-0.148D+01 0.203D+01-0.951D+01 0.973D+01
 Gap=     0.405 Goal=   None    Shift=    0.000
 Gap=     0.425 Goal=   None    Shift=    0.000
 RMSDP=6.88D-04 MaxDP=4.81D-02 DE= 5.96D-05 OVMax= 2.88D-02

 Cycle  15  Pass 0  IDiag  1:
 RMSU=  1.75D-04    CP:  7.28D-01  2.85D+00  1.71D+00  2.83D+00  3.00D+00
                    CP:  3.00D+00  3.00D+00  2.92D+00  2.15D+00 -3.19D-02
                    CP: -6.87D-01 -2.85D-01 -2.52D+00  3.00D+00
 E= -264.301743896658     Delta-E=        0.000336152798 Rises=F Damp=F
 DIIS: error= 2.69D-04 at cycle  15 NSaved=  12.
 NSaved=12 IEnMin=10 EnMin= -264.302139624406     IErMin=12 ErrMin= 2.69D-04
 ErrMax= 2.69D-04  0.00D+00 EMaxC= 1.00D-01 BMatC= 4.06D-05 BMatP= 4.95D-05
 IDIUse=3 WtCom= 9.97D-01 WtEn= 2.69D-03
 Rare condition: small coef for last iteration:  0.000D+00
 Coeff-Com: -0.326D-01 0.560D-01 0.827D-01-0.160D+00-0.342D+00 0.795D+00
 Coeff-Com:  0.531D+00-0.261D+01-0.420D+01-0.359D+01 0.726D+01 0.321D+01
 Coeff-En:   0.000D+00 0.000D+00 0.000D+00 0.000D+00 0.000D+00 0.000D+00
 Coeff-En:   0.000D+00 0.000D+00 0.000D+00 0.000D+00 0.000D+00 0.100D+01
 Coeff:     -0.326D-01 0.560D-01 0.827D-01-0.160D+00-0.342D+00 0.795D+00
 Coeff:      0.531D+00-0.261D+01-0.420D+01-0.359D+01 0.726D+01 0.321D+01
 Gap=     0.405 Goal=   None    Shift=    0.000
 Gap=     0.424 Goal=   None    Shift=    0.000
 RMSDP=1.51D-03 MaxDP=1.04D-01 DE= 3.36D-04 OVMax= 6.16D-02

 Problem detected with inexpensive integrals.
 Switching to full accuracy and repeating last cycle.
 Cycle  16  Pass 1  IDiag  1:
 E= -264.301743896695     Delta-E=       -0.000000000037 Rises=F Damp=F
 DIIS: error= 2.69D-04 at cycle   1 NSaved=   1.
 NSaved= 1 IEnMin= 1 EnMin= -264.301743896695     IErMin= 1 ErrMin= 2.69D-04
 ErrMax= 2.69D-04  0.00D+00 EMaxC= 1.00D-01 BMatC= 4.06D-05 BMatP= 4.06D-05
 IDIUse=3 WtCom= 9.97D-01 WtEn= 2.69D-03
 Coeff-Com:  0.100D+01
 Coeff-En:   0.100D+01
 Coeff:      0.100D+01
 Gap=     0.405 Goal=   None    Shift=    0.000
 Gap=     0.426 Goal=   None    Shift=    0.000
 RMSDP=1.11D-04 MaxDP=7.84D-03 DE=-3.74D-11 OVMax= 4.70D-03

 Cycle  17  Pass 1  IDiag  1:
 RMSU=  1.11D-04    CP:  1.00D+00
 E= -264.301800883639     Delta-E=       -0.000056986943 Rises=F Damp=F
 DIIS: error= 2.70D-04 at cycle   2 NSaved=   2.
 NSaved= 2 IEnMin= 2 EnMin= -264.301800883639     IErMin= 1 ErrMin= 2.69D-04
 ErrMax= 2.70D-04  0.00D+00 EMaxC= 1.00D-01 BMatC= 3.99D-05 BMatP= 4.06D-05
 IDIUse=3 WtCom= 9.97D-01 WtEn= 2.70D-03
 Coeff-Com:  0.316D+00 0.684D+00
 Coeff-En:   0.000D+00 0.100D+01
 Coeff:      0.315D+00 0.685D+00
 Gap=     0.405 Goal=   None    Shift=    0.000
 Gap=     0.426 Goal=   None    Shift=    0.000
 RMSDP=7.81D-05 MaxDP=5.44D-03 DE=-5.70D-05 OVMax= 3.29D-03

 Cycle  18  Pass 1  IDiag  1:
 RMSU=  9.73D-06    CP:  1.00D+00  1.70D+00
 E= -264.301840311187     Delta-E=       -0.000039427548 Rises=F Damp=F
 DIIS: error= 2.80D-04 at cycle   3 NSaved=   3.
 NSaved= 3 IEnMin= 3 EnMin= -264.301840311187     IErMin= 1 ErrMin= 2.69D-04
 ErrMax= 2.80D-04  0.00D+00 EMaxC= 1.00D-01 BMatC= 4.04D-05 BMatP= 3.99D-05
 IDIUse=3 WtCom= 9.97D-01 WtEn= 2.80D-03
 Coeff-Com:  0.606D+00 0.150D+01-0.110D+01
 Coeff-En:   0.000D+00 0.000D+00 0.100D+01
 Coeff:      0.605D+00 0.149D+01-0.110D+01
 Gap=     0.405 Goal=   None    Shift=    0.000
 Gap=     0.426 Goal=   None    Shift=    0.000
 RMSDP=1.21D-04 MaxDP=8.50D-03 DE=-3.94D-05 OVMax= 5.11D-03

 Cycle  19  Pass 1  IDiag  1:
 RMSU=  5.46D-06    CP:  1.00D+00  6.14D-01 -2.58D-01
 E= -264.301780187409     Delta-E=        0.000060123778 Rises=F Damp=F
 DIIS: error= 2.73D-04 at cycle   4 NSaved=   4.
 NSaved= 4 IEnMin= 3 EnMin= -264.301840311187     IErMin= 1 ErrMin= 2.69D-04
 ErrMax= 2.73D-04  0.00D+00 EMaxC= 1.00D-01 BMatC= 3.94D-05 BMatP= 3.99D-05
 IDIUse=3 WtCom= 9.97D-01 WtEn= 2.73D-03
 Rare condition: small coef for last iteration:  0.000D+00
 Coeff-Com: -0.124D+01 0.780D+00-0.460D+01 0.606D+01
 Coeff-En:   0.000D+00 0.000D+00 0.000D+00 0.100D+01
 Coeff:     -0.124D+01 0.780D+00-0.460D+01 0.606D+01
 Gap=     0.405 Goal=   None    Shift=    0.000
 Gap=     0.425 Goal=   None    Shift=    0.000
 RMSDP=3.41D-04 MaxDP=2.39D-02 DE= 6.01D-05 OVMax= 1.42D-02

 Cycle  20  Pass 1  IDiag  1:
 RMSU=  3.18D-05    CP:  1.00D+00 -2.41D+00 -3.00D+00  3.00D+00
 E= -264.301626248119     Delta-E=        0.000153939290 Rises=F Damp=F
 DIIS: error= 2.50D-04 at cycle   5 NSaved=   5.
 NSaved= 5 IEnMin= 3 EnMin= -264.301840311187     IErMin= 5 ErrMin= 2.50D-04
 ErrMax= 2.50D-04  0.00D+00 EMaxC= 1.00D-01 BMatC= 3.57D-05 BMatP= 3.94D-05
 IDIUse=3 WtCom= 9.97D-01 WtEn= 2.50D-03
 Rare condition: small coef for last iteration:  0.000D+00
 Coeff-Com: -0.434D+01-0.362D+01-0.136D+01 0.666D+01 0.367D+01
 Coeff-En:   0.000D+00 0.000D+00 0.000D+00 0.000D+00 0.100D+01
 Coeff:     -0.434D+01-0.362D+01-0.136D+01 0.666D+01 0.367D+01
 Gap=     0.405 Goal=   None    Shift=    0.000
 Gap=     0.423 Goal=   None    Shift=    0.000
 RMSDP=8.71D-04 MaxDP=6.04D-02 DE= 1.54D-04 OVMax= 3.57D-02

 Cycle  21  Pass 1  IDiag  1:
 RMSU=  7.94D-04    CP:  9.98D-01 -3.00D+00 -3.00D+00  3.00D+00  3.00D+00
 E= -264.301326524687     Delta-E=        0.000299723433 Rises=F Damp=F
 DIIS: error= 1.71D-04 at cycle   6 NSaved=   6.
 NSaved= 6 IEnMin= 3 EnMin= -264.301840311187     IErMin= 6 ErrMin= 1.71D-04
 ErrMax= 1.71D-04  0.00D+00 EMaxC= 1.00D-01 BMatC= 2.32D-05 BMatP= 3.57D-05
 IDIUse=3 WtCom= 9.98D-01 WtEn= 1.71D-03
 Rare condition: small coef for last iteration:  0.000D+00
 Coeff-Com:  0.217D+00-0.503D+00 0.473D+01-0.578D+01 0.372D+00 0.196D+01
 Coeff-En:   0.000D+00 0.000D+00 0.000D+00 0.000D+00 0.000D+00 0.100D+01
 Coeff:      0.217D+00-0.503D+00 0.473D+01-0.578D+01 0.372D+00 0.196D+01
 Gap=     0.405 Goal=   None    Shift=    0.000
 Gap=     0.422 Goal=   None    Shift=    0.000
 RMSDP=7.14D-04 MaxDP=4.86D-02 DE= 3.00D-04 OVMax= 2.86D-02

 Cycle  22  Pass 1  IDiag  1:
 RMSU=  1.09D-04    CP:  9.97D-01 -3.00D+00 -3.00D+00  3.00D+00  3.00D+00
                    CP:  1.89D+00
 E= -264.301187846203     Delta-E=        0.000138678483 Rises=F Damp=F
 DIIS: error= 1.17D-04 at cycle   7 NSaved=   7.
 NSaved= 7 IEnMin= 3 EnMin= -264.301840311187     IErMin= 7 ErrMin= 1.17D-04
 ErrMax= 1.17D-04  0.00D+00 EMaxC= 1.00D-01 BMatC= 1.24D-05 BMatP= 2.32D-05
 IDIUse=3 WtCom= 9.99D-01 WtEn= 1.17D-03
 Rare condition: small coef for last iteration:  0.000D+00
 Coeff-Com:  0.201D+01 0.245D+01-0.133D+01-0.946D+00-0.238D+01-0.104D+01
 Coeff-Com:  0.224D+01
 Coeff-En:   0.000D+00 0.000D+00 0.000D+00 0.000D+00 0.000D+00 0.000D+00
 Coeff-En:   0.100D+01
 Coeff:      0.201D+01 0.245D+01-0.133D+01-0.946D+00-0.238D+01-0.104D+01
 Coeff:      0.224D+01
 Gap=     0.406 Goal=   None    Shift=    0.000
 Gap=     0.422 Goal=   None    Shift=    0.000
 RMSDP=4.76D-04 MaxDP=3.12D-02 DE= 1.39D-04 OVMax= 1.87D-02

 Cycle  23  Pass 1  IDiag  1:
 RMSU=  4.39D-05    CP:  9.96D-01 -3.00D+00 -3.00D+00  3.00D+00  3.00D+00
                    CP:  2.47D+00  2.06D+00
 E= -264.301152942554     Delta-E=        0.000034903649 Rises=F Damp=F
 DIIS: error= 7.88D-05 at cycle   8 NSaved=   8.
 NSaved= 8 IEnMin= 3 EnMin= -264.301840311187     IErMin= 8 ErrMin= 7.88D-05
 ErrMax= 7.88D-05  0.00D+00 EMaxC= 1.00D-01 BMatC= 4.84D-06 BMatP= 1.24D-05
 IDIUse=1 WtCom= 1.00D+00 WtEn= 0.00D+00
 Coeff-Com:  0.906D+00 0.667D+00-0.154D+01 0.779D+00-0.595D+00-0.827D+00
 Coeff-Com:  0.300D+00 0.131D+01
 Coeff:      0.906D+00 0.667D+00-0.154D+01 0.779D+00-0.595D+00-0.827D+00
 Coeff:      0.300D+00 0.131D+01
 Gap=     0.406 Goal=   None    Shift=    0.000
 Gap=     0.422 Goal=   None    Shift=    0.000
 RMSDP=3.20D-04 MaxDP=2.11D-02 DE= 3.49D-05 OVMax= 1.26D-02

 Cycle  24  Pass 1  IDiag  1:
 RMSU=  2.22D-05    CP:  9.96D-01 -3.00D+00 -3.00D+00  3.00D+00  3.00D+00
                    CP:  2.86D+00  2.71D+00  1.80D+00
 E= -264.301143544673     Delta-E=        0.000009397881 Rises=F Damp=F
 DIIS: error= 6.73D-05 at cycle   9 NSaved=   9.
 NSaved= 9 IEnMin= 3 EnMin= -264.301840311187     IErMin= 9 ErrMin= 6.73D-05
 ErrMax= 6.73D-05  0.00D+00 EMaxC= 1.00D-01 BMatC= 1.94D-06 BMatP= 4.84D-06
 IDIUse=1 WtCom= 1.00D+00 WtEn= 0.00D+00
 Coeff-Com: -0.465D+00-0.762D+00 0.464D+00 0.216D-01 0.819D+00 0.360D+00
 Coeff-Com: -0.858D+00-0.127D-01 0.143D+01
 Coeff:     -0.465D+00-0.762D+00 0.464D+00 0.216D-01 0.819D+00 0.360D+00
 Coeff:     -0.858D+00-0.127D-01 0.143D+01
 Gap=     0.406 Goal=   None    Shift=    0.000
 Gap=     0.423 Goal=   None    Shift=    0.000
 RMSDP=1.54D-04 MaxDP=9.79D-03 DE= 9.40D-06 OVMax= 5.84D-03

 Cycle  25  Pass 1  IDiag  1:
 RMSU=  3.36D-05    CP:  9.95D-01 -3.00D+00 -3.00D+00  3.00D+00  3.00D+00
                    CP:  3.00D+00  3.00D+00  2.52D+00  1.75D+00
 E= -264.301145152874     Delta-E=       -0.000001608200 Rises=F Damp=F
 DIIS: error= 3.49D-05 at cycle  10 NSaved=  10.
 NSaved=10 IEnMin= 3 EnMin= -264.301840311187     IErMin=10 ErrMin= 3.49D-05
 ErrMax= 3.49D-05  0.00D+00 EMaxC= 1.00D-01 BMatC= 6.44D-07 BMatP= 1.94D-06
 IDIUse=1 WtCom= 1.00D+00 WtEn= 0.00D+00
 Coeff-Com: -0.962D+00-0.897D+00 0.749D+00 0.332D+00 0.789D+00 0.396D+00
 Coeff-Com: -0.429D+00-0.464D+00 0.236D+00 0.125D+01
 Coeff:     -0.962D+00-0.897D+00 0.749D+00 0.332D+00 0.789D+00 0.396D+00
 Coeff:     -0.429D+00-0.464D+00 0.236D+00 0.125D+01
 Gap=     0.406 Goal=   None    Shift=    0.000
 Gap=     0.423 Goal=   None    Shift=    0.000
 RMSDP=5.92D-05 MaxDP=3.52D-03 DE=-1.61D-06 OVMax= 1.99D-03

 Cycle  26  Pass 1  IDiag  1:
 RMSU=  1.46D-05    CP:  9.95D-01 -3.00D+00 -3.00D+00  3.00D+00  3.00D+00
                    CP:  3.00D+00  3.00D+00  2.96D+00  2.08D+00  2.58D+00
 E= -264.301146659564     Delta-E=       -0.000001506690 Rises=F Damp=F
 DIIS: error= 1.44D-05 at cycle  11 NSaved=  11.
 NSaved=11 IEnMin= 3 EnMin= -264.301840311187     IErMin=11 ErrMin= 1.44D-05
 ErrMax= 1.44D-05  0.00D+00 EMaxC= 1.00D-01 BMatC= 1.63D-07 BMatP= 6.44D-07
 IDIUse=1 WtCom= 1.00D+00 WtEn= 0.00D+00
 Coeff-Com:  0.166D+00 0.283D+00-0.214D+00 0.800D-01-0.300D+00-0.188D+00
 Coeff-Com:  0.291D+00 0.666D-01-0.462D+00-0.504D-01 0.133D+01
 Coeff:      0.166D+00 0.283D+00-0.214D+00 0.800D-01-0.300D+00-0.188D+00
 Coeff:      0.291D+00 0.666D-01-0.462D+00-0.504D-01 0.133D+01
 Gap=     0.406 Goal=   None    Shift=    0.000
 Gap=     0.423 Goal=   None    Shift=    0.000
 RMSDP=3.03D-05 MaxDP=1.91D-03 DE=-1.51D-06 OVMax= 1.23D-03

 Cycle  27  Pass 1  IDiag  1:
 RMSU=  1.80D-05    CP:  9.95D-01 -3.00D+00 -3.00D+00  3.00D+00  3.00D+00
                    CP:  3.00D+00  3.00D+00  3.00D+00  1.93D+00  1.89D+00
                    CP:  7.59D-01
 E= -264.301147026721     Delta-E=       -0.000000367157 Rises=F Damp=F
 DIIS: error= 1.11D-05 at cycle  12 NSaved=  12.
 NSaved=12 IEnMin= 3 EnMin= -264.301840311187     IErMin=12 ErrMin= 1.11D-05
 ErrMax= 1.11D-05  0.00D+00 EMaxC= 1.00D-01 BMatC= 6.41D-08 BMatP= 1.63D-07
 IDIUse=1 WtCom= 1.00D+00 WtEn= 0.00D+00
 Coeff-Com:  0.628D+00 0.421D+00 0.211D+00-0.104D+01-0.335D+00 0.644D-01
 Coeff-Com:  0.722D-01 0.441D-01 0.105D+00-0.412D+00-0.280D+00 0.152D+01
 Coeff:      0.628D+00 0.421D+00 0.211D+00-0.104D+01-0.335D+00 0.644D-01
 Coeff:      0.722D-01 0.441D-01 0.105D+00-0.412D+00-0.280D+00 0.152D+01
 Gap=     0.406 Goal=   None    Shift=    0.000
 Gap=     0.423 Goal=   None    Shift=    0.000
 RMSDP=7.41D-06 MaxDP=3.57D-04 DE=-3.67D-07 OVMax= 3.26D-04

 Cycle  28  Pass 1  IDiag  1:
 RMSU=  4.03D-06    CP:  9.95D-01 -3.00D+00 -3.00D+00  3.00D+00  3.00D+00
                    CP:  3.00D+00  3.00D+00  3.00D+00  1.97D+00  1.76D+00
                    CP:  6.89D-01  1.24D+00
 E= -264.301147137510     Delta-E=       -0.000000110789 Rises=F Damp=F
 DIIS: error= 4.10D-06 at cycle  13 NSaved=  13.
 NSaved=13 IEnMin= 3 EnMin= -264.301840311187     IErMin=13 ErrMin= 4.10D-06
 ErrMax= 4.10D-06  0.00D+00 EMaxC= 1.00D-01 BMatC= 1.13D-08 BMatP= 6.41D-08
 IDIUse=1 WtCom= 1.00D+00 WtEn= 0.00D+00
 Coeff-Com: -0.293D+00-0.201D+00-0.147D+00 0.501D+00 0.186D+00-0.195D-01
 Coeff-Com: -0.682D-01-0.575D-02 0.116D-01 0.169D+00-0.162D+00-0.581D+00
 Coeff-Com:  0.161D+01
 Coeff:     -0.293D+00-0.201D+00-0.147D+00 0.501D+00 0.186D+00-0.195D-01
 Coeff:     -0.682D-01-0.575D-02 0.116D-01 0.169D+00-0.162D+00-0.581D+00
 Coeff:      0.161D+01
 Gap=     0.407 Goal=   None    Shift=    0.000
 Gap=     0.423 Goal=   None    Shift=    0.000
 RMSDP=2.28D-05 MaxDP=1.50D-03 DE=-1.11D-07 OVMax= 8.95D-04

 Cycle  29  Pass 1  IDiag  1:
 RMSU=  4.44D-06    CP:  9.95D-01 -3.00D+00 -3.00D+00  3.00D+00  3.00D+00
                    CP:  3.00D+00  3.00D+00  3.00D+00  2.11D+00  2.39D+00
                    CP:  1.02D+00  1.00D+00  1.43D+00
 E= -264.301147141502     Delta-E=       -0.000000003992 Rises=F Damp=F
 DIIS: error= 2.28D-06 at cycle  14 NSaved=  14.
 NSaved=14 IEnMin= 3 EnMin= -264.301840311187     IErMin=14 ErrMin= 2.28D-06
 ErrMax= 2.28D-06  0.00D+00 EMaxC= 1.00D-01 BMatC= 5.91D-09 BMatP= 1.13D-08
 IDIUse=1 WtCom= 1.00D+00 WtEn= 0.00D+00
 Coeff-Com: -0.154D+00-0.117D+00-0.794D-01 0.297D+00 0.911D-01-0.312D-01
 Coeff-Com: -0.250D-01 0.216D-01-0.418D-02 0.358D-01-0.524D-01 0.318D-01
 Coeff-Com: -0.348D+00 0.133D+01
 Coeff:     -0.154D+00-0.117D+00-0.794D-01 0.297D+00 0.911D-01-0.312D-01
 Coeff:     -0.250D-01 0.216D-01-0.418D-02 0.358D-01-0.524D-01 0.318D-01
 Coeff:     -0.348D+00 0.133D+01
 Gap=     0.407 Goal=   None    Shift=    0.000
 Gap=     0.423 Goal=   None    Shift=    0.000
 RMSDP=2.49D-06 MaxDP=1.49D-04 DE=-3.99D-09 OVMax= 8.61D-05

 Cycle  30  Pass 1  IDiag  1:
 RMSU=  8.86D-07    CP:  9.95D-01 -3.00D+00 -3.00D+00  3.00D+00  3.00D+00
                    CP:  3.00D+00  3.00D+00  3.00D+00  2.09D+00  2.34D+00
                    CP:  1.00D+00  1.08D+00  1.38D+00  1.15D+00
 E= -264.301147144724     Delta-E=       -0.000000003222 Rises=F Damp=F
 DIIS: error= 1.24D-06 at cycle  15 NSaved=  15.
 NSaved=15 IEnMin= 3 EnMin= -264.301840311187     IErMin=15 ErrMin= 1.24D-06
 ErrMax= 1.24D-06  0.00D+00 EMaxC= 1.00D-01 BMatC= 5.34D-10 BMatP= 5.91D-09
 IDIUse=1 WtCom= 1.00D+00 WtEn= 0.00D+00
 Coeff-Com:  0.660D-01 0.431D-01 0.566D-01-0.143D+00-0.367D-01 0.156D-01
 Coeff-Com:  0.643D-02-0.605D-02 0.501D-02-0.230D-01 0.298D-01 0.310D-01
 Coeff-Com: -0.125D+00-0.259D+00 0.134D+01
 Coeff:      0.660D-01 0.431D-01 0.566D-01-0.143D+00-0.367D-01 0.156D-01
 Coeff:      0.643D-02-0.605D-02 0.501D-02-0.230D-01 0.298D-01 0.310D-01
 Coeff:     -0.125D+00-0.259D+00 0.134D+01
 Gap=     0.407 Goal=   None    Shift=    0.000
 Gap=     0.423 Goal=   None    Shift=    0.000
 RMSDP=4.94D-06 MaxDP=3.23D-04 DE=-3.22D-09 OVMax= 1.95D-04

 Cycle  31  Pass 1  IDiag  1:
 RMSU=  3.10D-07    CP:  9.95D-01 -3.00D+00 -3.00D+00  3.00D+00  3.00D+00
                    CP:  3.00D+00  3.00D+00  3.00D+00  2.07D+00  2.21D+00
                    CP:  9.29D-01  1.16D+00  1.41D+00  1.02D+00  1.50D+00
 E= -264.301147144479     Delta-E=        0.000000000245 Rises=F Damp=F
 DIIS: error= 8.13D-07 at cycle  16 NSaved=  16.
 NSaved=16 IEnMin= 3 EnMin= -264.301840311187     IErMin=16 ErrMin= 8.13D-07
 ErrMax= 8.13D-07  0.00D+00 EMaxC= 1.00D-01 BMatC= 3.90D-10 BMatP= 5.34D-10
 IDIUse=1 WtCom= 1.00D+00 WtEn= 0.00D+00
 Coeff-Com:  0.108D-01 0.939D-02 0.928D-02-0.260D-01-0.782D-02 0.418D-02
 Coeff-Com:  0.330D-02-0.526D-02-0.456D-02 0.439D-02 0.349D-01-0.684D-01
 Coeff-Com:  0.470D-01-0.796D-02-0.336D+00 0.133D+01
 Coeff:      0.108D-01 0.939D-02 0.928D-02-0.260D-01-0.782D-02 0.418D-02
 Coeff:      0.330D-02-0.526D-02-0.456D-02 0.439D-02 0.349D-01-0.684D-01
 Coeff:      0.470D-01-0.796D-02-0.336D+00 0.133D+01
 Gap=     0.407 Goal=   None    Shift=    0.000
 Gap=     0.423 Goal=   None    Shift=    0.000
 RMSDP=9.77D-07 MaxDP=6.20D-05 DE= 2.45D-10 OVMax= 3.95D-05

 Cycle  32  Pass 1  IDiag  1:
 RMSU=  1.11D-07    CP:  9.95D-01 -3.00D+00 -3.00D+00  3.00D+00  3.00D+00
                    CP:  3.00D+00  3.00D+00  3.00D+00  2.08D+00  2.23D+00
                    CP:  9.35D-01  1.14D+00  1.47D+00  1.02D+00  1.52D+00
                    CP:  1.48D+00
 E= -264.301147144694     Delta-E=       -0.000000000215 Rises=F Damp=F
 DIIS: error= 3.46D-07 at cycle  17 NSaved=  17.
 NSaved=17 IEnMin= 3 EnMin= -264.301840311187     IErMin=17 ErrMin= 3.46D-07
 ErrMax= 3.46D-07  0.00D+00 EMaxC= 1.00D-01 BMatC= 4.13D-11 BMatP= 3.90D-10
 IDIUse=1 WtCom= 1.00D+00 WtEn= 0.00D+00
 Coeff-Com: -0.153D-01-0.886D-02-0.201D-01 0.421D-01 0.667D-02-0.740D-02
 Coeff-Com:  0.664D-03 0.488D-02-0.378D-02-0.259D-04-0.305D-02 0.155D-01
 Coeff-Com: -0.148D-01 0.758D-01-0.290D+00-0.281D+00 0.150D+01
 Coeff:     -0.153D-01-0.886D-02-0.201D-01 0.421D-01 0.667D-02-0.740D-02
 Coeff:      0.664D-03 0.488D-02-0.378D-02-0.259D-04-0.305D-02 0.155D-01
 Coeff:     -0.148D-01 0.758D-01-0.290D+00-0.281D+00 0.150D+01
 Gap=     0.407 Goal=   None    Shift=    0.000
 Gap=     0.423 Goal=   None    Shift=    0.000
 RMSDP=6.44D-07 MaxDP=4.22D-05 DE=-2.15D-10 OVMax= 2.62D-05

 Cycle  33  Pass 1  IDiag  1:
 RMSU=  6.50D-08    CP:  9.95D-01 -3.00D+00 -3.00D+00  3.00D+00  3.00D+00
                    CP:  3.00D+00  3.00D+00  3.00D+00  2.08D+00  2.25D+00
                    CP:  9.43D-01  1.14D+00  1.48D+00  1.04D+00  1.55D+00
                    CP:  1.61D+00  1.89D+00
 E= -264.301147144775     Delta-E=       -0.000000000081 Rises=F Damp=F
 DIIS: error= 1.32D-07 at cycle  18 NSaved=  18.
 NSaved=18 IEnMin= 3 EnMin= -264.301840311187     IErMin=18 ErrMin= 1.32D-07
 ErrMax= 1.32D-07  0.00D+00 EMaxC= 1.00D-01 BMatC= 1.40D-11 BMatP= 4.13D-11
 IDIUse=1 WtCom= 1.00D+00 WtEn= 0.00D+00
 Coeff-Com:  0.440D-02 0.201D-02 0.631D-02-0.130D-01-0.937D-03 0.258D-02
 Coeff-Com: -0.134D-02-0.781D-03 0.248D-02-0.111D-02-0.575D-02 0.535D-02
 Coeff-Com:  0.133D-01-0.668D-01 0.161D+00-0.195D-01-0.614D+00 0.153D+01
 Coeff:      0.440D-02 0.201D-02 0.631D-02-0.130D-01-0.937D-03 0.258D-02
 Coeff:     -0.134D-02-0.781D-03 0.248D-02-0.111D-02-0.575D-02 0.535D-02
 Coeff:      0.133D-01-0.668D-01 0.161D+00-0.195D-01-0.614D+00 0.153D+01
 Gap=     0.407 Goal=   None    Shift=    0.000
 Gap=     0.423 Goal=   None    Shift=    0.000
 RMSDP=2.48D-07 MaxDP=1.61D-05 DE=-8.09D-11 OVMax= 9.60D-06

 Cycle  34  Pass 1  IDiag  1:
 RMSU=  2.65D-08    CP:  9.95D-01 -3.00D+00 -3.00D+00  3.00D+00  3.00D+00
                    CP:  3.00D+00  3.00D+00  3.00D+00  2.08D+00  2.24D+00
                    CP:  9.40D-01  1.14D+00  1.47D+00  1.04D+00  1.58D+00
                    CP:  1.57D+00  2.14D+00  1.75D+00
 E= -264.301147144778     Delta-E=       -0.000000000003 Rises=F Damp=F
 DIIS: error= 6.60D-08 at cycle  19 NSaved=  19.
 NSaved=19 IEnMin= 3 EnMin= -264.301840311187     IErMin=19 ErrMin= 6.60D-08
 ErrMax= 6.60D-08  0.00D+00 EMaxC= 1.00D-01 BMatC= 2.89D-12 BMatP= 1.40D-11
 IDIUse=1 WtCom= 1.00D+00 WtEn= 0.00D+00
 Coeff-Com:  0.106D-02 0.386D-04 0.391D-02-0.583D-02 0.169D-03 0.155D-02
 Coeff-Com: -0.813D-03-0.900D-03 0.849D-03 0.101D-02 0.137D-03-0.673D-02
 Coeff-Com:  0.649D-02-0.854D-04 0.256D-01 0.629D-01-0.251D+00-0.191D+00
 Coeff-Com:  0.135D+01
 Coeff:      0.106D-02 0.386D-04 0.391D-02-0.583D-02 0.169D-03 0.155D-02
 Coeff:     -0.813D-03-0.900D-03 0.849D-03 0.101D-02 0.137D-03-0.673D-02
 Coeff:      0.649D-02-0.854D-04 0.256D-01 0.629D-01-0.251D+00-0.191D+00
 Coeff:      0.135D+01
 Gap=     0.407 Goal=   None    Shift=    0.000
 Gap=     0.423 Goal=   None    Shift=    0.000
 RMSDP=3.59D-08 MaxDP=2.19D-06 DE=-2.96D-12 OVMax= 1.35D-06

 Cycle  35  Pass 1  IDiag  1:
 RMSU=  1.32D-08    CP:  9.95D-01 -3.00D+00 -3.00D+00  3.00D+00  3.00D+00
                    CP:  3.00D+00  3.00D+00  3.00D+00  2.08D+00  2.24D+00
                    CP:  9.40D-01  1.14D+00  1.48D+00  1.04D+00  1.58D+00
                    CP:  1.59D+00  2.19D+00  2.03D+00  1.57D+00
 E= -264.301147144790     Delta-E=       -0.000000000012 Rises=F Damp=F
 DIIS: error= 2.90D-08 at cycle  20 NSaved=  20.
 NSaved=20 IEnMin= 3 EnMin= -264.301840311187     IErMin=20 ErrMin= 2.90D-08
 ErrMax= 2.90D-08  0.00D+00 EMaxC= 1.00D-01 BMatC= 8.14D-13 BMatP= 2.89D-12
 IDIUse=1 WtCom= 1.00D+00 WtEn= 0.00D+00
 Coeff-Com: -0.479D-03 0.262D-04-0.177D-02 0.291D-02-0.344D-03-0.989D-03
 Coeff-Com:  0.741D-03 0.499D-03-0.113D-02-0.232D-03 0.283D-02 0.475D-03
 Coeff-Com: -0.120D-01 0.285D-01-0.521D-01-0.333D-02 0.256D+00-0.627D+00
 Coeff-Com: -0.795D-02 0.142D+01
 Coeff:     -0.479D-03 0.262D-04-0.177D-02 0.291D-02-0.344D-03-0.989D-03
 Coeff:      0.741D-03 0.499D-03-0.113D-02-0.232D-03 0.283D-02 0.475D-03
 Coeff:     -0.120D-01 0.285D-01-0.521D-01-0.333D-02 0.256D+00-0.627D+00
 Coeff:     -0.795D-02 0.142D+01
 Gap=     0.407 Goal=   None    Shift=    0.000
 Gap=     0.423 Goal=   None    Shift=    0.000
 RMSDP=3.07D-08 MaxDP=1.83D-06 DE=-1.22D-11 OVMax= 1.12D-06

 Cycle  36  Pass 1  IDiag  1:
 Restarting incremental Fock formation.
 E= -264.301147144795     Delta-E=       -0.000000000005 Rises=F Damp=F
 DIIS: error= 1.19D-08 at cycle  21 NSaved=  20.
 NSaved=20 IEnMin= 3 EnMin= -264.301840311187     IErMin=20 ErrMin= 1.19D-08
 ErrMax= 1.19D-08  0.00D+00 EMaxC= 1.00D-01 BMatC= 1.25D-13 BMatP= 8.14D-13
 IDIUse=1 WtCom= 1.00D+00 WtEn= 0.00D+00
 Coeff-Com: -0.348D-03-0.258D-03-0.337D-03 0.806D-03 0.228D-03-0.877D-04
 Coeff-Com: -0.449D-04 0.555D-04 0.389D-04-0.517D-03 0.732D-03 0.971D-03
 Coeff-Com: -0.348D-02 0.427D-02-0.176D-01-0.140D-02 0.175D+00-0.241D+00
 Coeff-Com: -0.286D+00 0.137D+01
 Coeff:     -0.348D-03-0.258D-03-0.337D-03 0.806D-03 0.228D-03-0.877D-04
 Coeff:     -0.449D-04 0.555D-04 0.389D-04-0.517D-03 0.732D-03 0.971D-03
 Coeff:     -0.348D-02 0.427D-02-0.176D-01-0.140D-02 0.175D+00-0.241D+00
 Coeff:     -0.286D+00 0.137D+01
 Gap=     0.407 Goal=   None    Shift=    0.000
 Gap=     0.423 Goal=   None    Shift=    0.000
 RMSDP=2.76D-08 MaxDP=1.72D-06 DE=-5.23D-12 OVMax= 1.05D-06

 Cycle  37  Pass 1  IDiag  1:
 RMSU=  2.72D-08    CP:  1.00D+00
 E= -264.301147144792     Delta-E=        0.000000000003 Rises=F Damp=F
 DIIS: error= 4.31D-09 at cycle  22 NSaved=  20.
 NSaved=20 IEnMin= 3 EnMin= -264.301840311187     IErMin=20 ErrMin= 4.31D-09
 ErrMax= 4.31D-09  0.00D+00 EMaxC= 1.00D-01 BMatC= 1.57D-14 BMatP= 1.25D-13
 IDIUse=1 WtCom= 1.00D+00 WtEn= 0.00D+00
 Large coefficients: NSaved= 20 BigCof=    0.00 CofMax=   10.00 Det=-9.43D-15
 Inversion failed.  Reducing to 19 matrices.
 Coeff-Com:  0.735D-04 0.673D-04 0.483D-04-0.161D-03-0.471D-04 0.181D-04
 Coeff-Com:  0.200D-05 0.182D-05-0.185D-03 0.554D-03-0.818D-03-0.317D-03
 Coeff-Com:  0.657D-02-0.842D-02-0.174D-01 0.722D-01-0.296D-01-0.426D+00
 Coeff-Com:  0.140D+01
 Coeff:      0.735D-04 0.673D-04 0.483D-04-0.161D-03-0.471D-04 0.181D-04
 Coeff:      0.200D-05 0.182D-05-0.185D-03 0.554D-03-0.818D-03-0.317D-03
 Coeff:      0.657D-02-0.842D-02-0.174D-01 0.722D-01-0.296D-01-0.426D+00
 Coeff:      0.140D+01
 Gap=     0.407 Goal=   None    Shift=    0.000
 Gap=     0.423 Goal=   None    Shift=    0.000
 RMSDP=1.17D-08 MaxDP=7.40D-07 DE= 2.84D-12 OVMax= 4.45D-07

 Cycle  38  Pass 1  IDiag  1:
 RMSU=  4.79D-09    CP:  1.00D+00  6.12D-01
 E= -264.301147144793     Delta-E=       -0.000000000000 Rises=F Damp=F
 DIIS: error= 2.11D-09 at cycle  23 NSaved=  20.
 NSaved=20 IEnMin= 3 EnMin= -264.301840311187     IErMin=20 ErrMin= 2.11D-09
 ErrMax= 2.11D-09  0.00D+00 EMaxC= 1.00D-01 BMatC= 3.27D-15 BMatP= 1.57D-14
 IDIUse=1 WtCom= 1.00D+00 WtEn= 0.00D+00
 Large coefficients: NSaved= 20 BigCof=    0.00 CofMax=   10.00 Det=-1.73D-15
 Inversion failed.  Reducing to 19 matrices.
 Large coefficients: NSaved= 19 BigCof=    0.00 CofMax=   10.00 Det=-1.86D-15
 Inversion failed.  Reducing to 18 matrices.
 Large coefficients: NSaved= 18 BigCof=    0.00 CofMax=   10.00 Det=-1.88D-15
 Inversion failed.  Reducing to 17 matrices.
 Large coefficients: NSaved= 17 BigCof=    0.00 CofMax=   10.00 Det=-1.89D-15
 Inversion failed.  Reducing to 16 matrices.
 Large coefficients: NSaved= 16 BigCof=    0.00 CofMax=   10.00 Det=-2.82D-15
 Inversion failed.  Reducing to 15 matrices.
 Coeff-Com:  0.114D-04 0.691D-05 0.523D-05-0.211D-04-0.669D-05 0.372D-05
 Coeff-Com:  0.953D-06-0.143D-06 0.905D-04-0.464D-02 0.907D-02 0.165D-01
 Coeff-Com: -0.975D-01-0.132D+00 0.121D+01
 Coeff:      0.114D-04 0.691D-05 0.523D-05-0.211D-04-0.669D-05 0.372D-05
 Coeff:      0.953D-06-0.143D-06 0.905D-04-0.464D-02 0.907D-02 0.165D-01
 Coeff:     -0.975D-01-0.132D+00 0.121D+01
 Gap=     0.407 Goal=   None    Shift=    0.000
 Gap=     0.423 Goal=   None    Shift=    0.000
 RMSDP=2.36D-09 MaxDP=1.72D-07 DE=-2.27D-13 OVMax= 9.60D-08

 SCF Done:  E(UHF) =  -264.301147145     A.U. after   38 cycles
            NFock= 38  Conv=0.24D-08     -V/T= 2.0008
 <Sx>= 0.0000 <Sy>= 0.0000 <Sz>= 1.5000 <S**2>= 3.9689 S= 1.5540
 <L.S>= 0.000000000000E+00
 KE= 2.640898381442D+02 PE=-9.974052337410D+02 EE= 2.726578123387D+02
 Annihilation of the first spin contaminant:
 S**2 before annihilation     3.9689,   after     3.7662
 Leave Link  502 at Wed Nov  2 08:33:05 2016, MaxMem=    33554432 cpu:      3771.6
 (Enter /home/proyectos/fulerenos/M3C-v2.0/M3C-deps_CCC/g09-AM64L-G09RevC.01/l801.exe)
 Windowed orbitals will be sorted by symmetry type.
 ExpMin= 4.38D-02 ExpMax= 4.56D+03 ExpMxC= 6.82D+02 IAcc=3 IRadAn=         5 AccDes= 0.00D+00
 HarFok:  IExCor=  205 AccDes= 0.00D+00 IRadAn=         5 IDoV=-2 UseB2=F ITyADJ=14
 ICtDFT= 12500011 ScaDFX=  1.000000  1.000000  1.000000  1.000000
 Largest valence mixing into a core orbital is  1.49D-04
 Largest core mixing into a valence orbital is  5.53D-05
 Largest valence mixing into a core orbital is  1.81D-04
 Largest core mixing into a valence orbital is  5.42D-05
 Range of M.O.s used for correlation:     8   273
 NBasis=   273 NAE=    22 NBE=    19 NFC=     7 NFV=     0
 NROrb=    266 NOA=    15 NOB=    12 NVA=   251 NVB=   254

 **** Warning!!: The largest alpha MO coefficient is  0.16855340D+03


 **** Warning!!: The largest beta MO coefficient is  0.19860197D+03

 Leave Link  801 at Wed Nov  2 08:33:05 2016, MaxMem=    33554432 cpu:         1.1
 (Enter /home/proyectos/fulerenos/M3C-v2.0/M3C-deps_CCC/g09-AM64L-G09RevC.01/l804.exe)
 Open-shell transformation, MDV=    33554432 ITran=4 ISComp=1.
 Semi-Direct transformation.
 ModeAB=           2 MOrb=            15 LenV=      31469332
 LASXX=    135997365 LTotXX=   135997365 LenRXX=   135997365
 LTotAB=   137960235 MaxLAS=   198582300 LenRXY=   198582300
 NonZer=   271994730 LenScr=   411844608 LnRSAI=           0
 LnScr1=           0 LExtra=           0 Total=    746424273
 MaxDsk=          -1 SrtSym=           F ITran=            4
 GetIJB would need an additional     9440718 words of memory to use all   6 processors.
 DoSDTr:  NPSUse=  1
 JobTyp=1 Pass  1:  I=   1 to  15.
 Complete sort for first half transformation.
 First half transformation complete.
 Begin second half transformation for I=  10.
 Begin second half transformation for I=  10.
 Complete sort for second half transformation.
 Second half transformation complete.
 ModeAB=           2 MOrb=            12 LenV=      31469332
 LASXX=    109549617 LTotXX=   109549617 LenRXX=   158865840
 LTotAB=    98862876 MaxLAS=   158865840 LenRXY=    98862876
 NonZer=   219099234 LenScr=   331748352 LnRSAI=           0
 LnScr1=           0 LExtra=           0 Total=    589477068
 MaxDsk=          -1 SrtSym=           F ITran=            4
 GetIJB would need an additional     8306718 words of memory to use all   6 processors.
 DoSDTr:  NPSUse=  1
 JobTyp=2 Pass  1:  I=   1 to  12.
 Complete sort for first half transformation.
 First half transformation complete.
 Begin second half transformation for I=  10.
 Begin second half transformation for I=  10.
 Complete sort for second half transformation.
 Second half transformation complete.
 SymMOI:  orbitals are not symmetric.
 Spin components of T(2) and E(2):
     alpha-alpha T2 =       0.5332260599D-01 E2=     -0.1386173904D+00
     alpha-beta  T2 =       0.2417162177D+00 E2=     -0.6560373240D+00
     beta-beta   T2 =       0.4253778965D-01 E2=     -0.1060627151D+00
 ANorm=    0.1156536473D+01
 E2 =    -0.9007174295D+00 EUMP2 =    -0.26520186457429D+03
 (S**2,0)=  0.39689D+01           (S**2,1)=  0.38857D+01
 E(PUHF)=      -0.26431442273D+03        E(PMP2)=      -0.26521273991D+03
 Leave Link  804 at Wed Nov  2 08:51:56 2016, MaxMem=    33554432 cpu:       518.8
 (Enter /home/proyectos/fulerenos/M3C-v2.0/M3C-deps_CCC/g09-AM64L-G09RevC.01/l913.exe)
 CIDS:  MDV=    33554432.
 Frozen-core window:  NFC=   7 NFV=   0.
 IFCWin=0 IBDFC=1 NFBD=     0     0 NFCmp=     0     0 NFFFC=     0     0
 Using original routines for 1st iteration, S=T.
 Using DD4UQ or CC4UQ for 2nd and later iterations.
 Would need an additional      1381097300 words for in-memory AO integral storage.
 CCSD(T)
 =======
 Iterations=  50 Convergence= 0.100D-06
 Iteration Nr.   1
 **********************
 DD1Dir will call FoFJK  14 times, MxPair=        38
 NAB=   180 NAA=   105 NBB=    66 NumPrc=  4.
 DD1Dir:  Pass   1 NRAB=    19 NRAA=     0 NRBB=     0 NR=    38.
 FoFJK:  IHMeth= 1 ICntrl=     200 DoSepK=F KAlg= 0 I1Cent=   0 FoldK=F
 IRaf= 990000000 NMat=  38 IRICut=      47 DoRegI=T DoRafI=T ISym2E= 2.
 FoFCou: FMM=F IPFlag=           0 FMFlag=      100000 FMFlg1=           0
         NFxFlg=           0 DoJE=F BraDBF=F KetDBF=F FulRan=T
         wScrn=  0.000000 ICntrl=     200 IOpCl=  0 I1Cent=           0 NGrid=           0
         NMat0=   38 NMatS0=      0 NMatT0=   19 NMatD0=   38 NMtDS0=    0 NMtDT0=    0
 Integrals replicated using symmetry in FoFCou.
 PrRfSu:  requested number of processors reduced to:   5 ShMem   1 Linda.
 DD1Dir:  Pass   2 NRAB=    19 NRAA=     0 NRBB=     0 NR=    38.
 PrRfSu:  requested number of processors reduced to:   5 ShMem   1 Linda.
 DD1Dir:  Pass   3 NRAB=    19 NRAA=     0 NRBB=     0 NR=    38.
 PrRfSu:  requested number of processors reduced to:   5 ShMem   1 Linda.
 DD1Dir:  Pass   4 NRAB=    19 NRAA=     0 NRBB=     0 NR=    38.
 PrRfSu:  requested number of processors reduced to:   5 ShMem   1 Linda.
 DD1Dir:  Pass   5 NRAB=    19 NRAA=     0 NRBB=     0 NR=    38.
 PrRfSu:  requested number of processors reduced to:   5 ShMem   1 Linda.
 DD1Dir:  Pass   6 NRAB=    19 NRAA=     0 NRBB=     0 NR=    38.
 PrRfSu:  requested number of processors reduced to:   5 ShMem   1 Linda.
 DD1Dir:  Pass   7 NRAB=    19 NRAA=     0 NRBB=     0 NR=    38.
 PrRfSu:  requested number of processors reduced to:   5 ShMem   1 Linda.
 DD1Dir:  Pass   8 NRAB=    19 NRAA=     0 NRBB=     0 NR=    38.
 PrRfSu:  requested number of processors reduced to:   5 ShMem   1 Linda.
 DD1Dir:  Pass   9 NRAB=    19 NRAA=     0 NRBB=     0 NR=    38.
 PrRfSu:  requested number of processors reduced to:   5 ShMem   1 Linda.
 DD1Dir:  Pass  10 NRAB=     9 NRAA=    20 NRBB=     0 NR=    38.
 PrRfSu:  requested number of processors reduced to:   5 ShMem   1 Linda.
 DD1Dir:  Pass  11 NRAB=     0 NRAA=    38 NRBB=     0 NR=    38.
 PrRfSu:  requested number of processors reduced to:   5 ShMem   1 Linda.
 DD1Dir:  Pass  12 NRAB=     0 NRAA=    38 NRBB=     0 NR=    38.
 PrRfSu:  requested number of processors reduced to:   5 ShMem   1 Linda.
 DD1Dir:  Pass  13 NRAB=     0 NRAA=     9 NRBB=    29 NR=    38.
 PrRfSu:  requested number of processors reduced to:   5 ShMem   1 Linda.
 DD1Dir:  Pass  14 NRAB=     0 NRAA=     0 NRBB=    37 NR=    37.
 PrRfSu:  requested number of processors reduced to:   5 ShMem   1 Linda.
 E(PMP3)=      -0.26522407417D+03
 MP4(R+Q)=  0.34121262D-01
 Maximum subspace dimension=  5
 Norm of the A-vectors is  1.7293103D+00 conv= 1.00D-05.
 RLE energy=       -0.8816291796
 E3=       -0.14502131D-01        EUMP3=      -0.26521636671D+03
 E4(DQ)=    0.68217953D-02        UMP4(DQ)=   -0.26520954491D+03
 E4(SDQ)=  -0.97120309D-02        UMP4(SDQ)=  -0.26522607874D+03
 VARIATIONAL ENERGIES WITH THE FIRST-ORDER WAVEFUNCTION:
 DE(Corr)= -0.88121591     E(Corr)=     -265.18236306    
 NORM(A)=   0.11570985D+01
 Iteration Nr.   2
 **********************
 DD1Dir will call FoFJK  14 times, MxPair=        38
 NAB=   180 NAA=   105 NBB=    66 NumPrc=  4.
 DD1Dir:  Pass   1 NRAB=    19 NRAA=     0 NRBB=     0 NR=    38.
 PrRfSu:  requested number of processors reduced to:   5 ShMem   1 Linda.
 DD1Dir:  Pass   2 NRAB=    19 NRAA=     0 NRBB=     0 NR=    38.
 PrRfSu:  requested number of processors reduced to:   5 ShMem   1 Linda.
 DD1Dir:  Pass   3 NRAB=    19 NRAA=     0 NRBB=     0 NR=    38.
 PrRfSu:  requested number of processors reduced to:   5 ShMem   1 Linda.
 DD1Dir:  Pass   4 NRAB=    19 NRAA=     0 NRBB=     0 NR=    38.
 PrRfSu:  requested number of processors reduced to:   5 ShMem   1 Linda.
 DD1Dir:  Pass   5 NRAB=    19 NRAA=     0 NRBB=     0 NR=    38.
 PrRfSu:  requested number of processors reduced to:   5 ShMem   1 Linda.
 DD1Dir:  Pass   6 NRAB=    19 NRAA=     0 NRBB=     0 NR=    38.
 PrRfSu:  requested number of processors reduced to:   5 ShMem   1 Linda.
 DD1Dir:  Pass   7 NRAB=    19 NRAA=     0 NRBB=     0 NR=    38.
 PrRfSu:  requested number of processors reduced to:   5 ShMem   1 Linda.
 DD1Dir:  Pass   8 NRAB=    19 NRAA=     0 NRBB=     0 NR=    38.
 PrRfSu:  requested number of processors reduced to:   5 ShMem   1 Linda.
 DD1Dir:  Pass   9 NRAB=    19 NRAA=     0 NRBB=     0 NR=    38.
 PrRfSu:  requested number of processors reduced to:   5 ShMem   1 Linda.
 DD1Dir:  Pass  10 NRAB=     9 NRAA=    20 NRBB=     0 NR=    38.
 PrRfSu:  requested number of processors reduced to:   5 ShMem   1 Linda.
 DD1Dir:  Pass  11 NRAB=     0 NRAA=    38 NRBB=     0 NR=    38.
 PrRfSu:  requested number of processors reduced to:   5 ShMem   1 Linda.
 DD1Dir:  Pass  12 NRAB=     0 NRAA=    38 NRBB=     0 NR=    38.
 PrRfSu:  requested number of processors reduced to:   5 ShMem   1 Linda.
 DD1Dir:  Pass  13 NRAB=     0 NRAA=     9 NRBB=    29 NR=    38.
 PrRfSu:  requested number of processors reduced to:   5 ShMem   1 Linda.
 DD1Dir:  Pass  14 NRAB=     0 NRAA=     0 NRBB=    37 NR=    37.
 PrRfSu:  requested number of processors reduced to:   5 ShMem   1 Linda.
 Norm of the A-vectors is  7.2690345D-01 conv= 1.00D-05.
 RLE energy=       -0.9243599721
 DE(Corr)= -0.91989496     E(CORR)=     -265.22104210     Delta=-3.87D-02
 NORM(A)=   0.11821132D+01
 Iteration Nr.   3
 **********************
 DD1Dir will call FoFJK  14 times, MxPair=        38
 NAB=   180 NAA=   105 NBB=    66 NumPrc=  4.
 DD1Dir:  Pass   1 NRAB=    19 NRAA=     0 NRBB=     0 NR=    38.
 PrRfSu:  requested number of processors reduced to:   5 ShMem   1 Linda.
 DD1Dir:  Pass   2 NRAB=    19 NRAA=     0 NRBB=     0 NR=    38.
 PrRfSu:  requested number of processors reduced to:   5 ShMem   1 Linda.
 DD1Dir:  Pass   3 NRAB=    19 NRAA=     0 NRBB=     0 NR=    38.
 PrRfSu:  requested number of processors reduced to:   5 ShMem   1 Linda.
 DD1Dir:  Pass   4 NRAB=    19 NRAA=     0 NRBB=     0 NR=    38.
 PrRfSu:  requested number of processors reduced to:   5 ShMem   1 Linda.
 DD1Dir:  Pass   5 NRAB=    19 NRAA=     0 NRBB=     0 NR=    38.
 PrRfSu:  requested number of processors reduced to:   5 ShMem   1 Linda.
 DD1Dir:  Pass   6 NRAB=    19 NRAA=     0 NRBB=     0 NR=    38.
 PrRfSu:  requested number of processors reduced to:   5 ShMem   1 Linda.
 DD1Dir:  Pass   7 NRAB=    19 NRAA=     0 NRBB=     0 NR=    38.
 PrRfSu:  requested number of processors reduced to:   5 ShMem   1 Linda.
 DD1Dir:  Pass   8 NRAB=    19 NRAA=     0 NRBB=     0 NR=    38.
 PrRfSu:  requested number of processors reduced to:   5 ShMem   1 Linda.
 DD1Dir:  Pass   9 NRAB=    19 NRAA=     0 NRBB=     0 NR=    38.
 PrRfSu:  requested number of processors reduced to:   5 ShMem   1 Linda.
 DD1Dir:  Pass  10 NRAB=     9 NRAA=    20 NRBB=     0 NR=    38.
 PrRfSu:  requested number of processors reduced to:   5 ShMem   1 Linda.
 DD1Dir:  Pass  11 NRAB=     0 NRAA=    38 NRBB=     0 NR=    38.
 PrRfSu:  requested number of processors reduced to:   5 ShMem   1 Linda.
 DD1Dir:  Pass  12 NRAB=     0 NRAA=    38 NRBB=     0 NR=    38.
 PrRfSu:  requested number of processors reduced to:   5 ShMem   1 Linda.
 DD1Dir:  Pass  13 NRAB=     0 NRAA=     9 NRBB=    29 NR=    38.
 PrRfSu:  requested number of processors reduced to:   5 ShMem   1 Linda.
 DD1Dir:  Pass  14 NRAB=     0 NRAA=     0 NRBB=    37 NR=    37.
 PrRfSu:  requested number of processors reduced to:   5 ShMem   1 Linda.
 Norm of the A-vectors is  2.3928100D-01 conv= 1.00D-05.
 RLE energy=       -0.9292805224
 DE(Corr)= -0.92246480     E(CORR)=     -265.22361194     Delta=-2.57D-03
 NORM(A)=   0.11976071D+01
 Iteration Nr.   4
 **********************
 DD1Dir will call FoFJK  14 times, MxPair=        38
 NAB=   180 NAA=   105 NBB=    66 NumPrc=  4.
 DD1Dir:  Pass   1 NRAB=    19 NRAA=     0 NRBB=     0 NR=    38.
 PrRfSu:  requested number of processors reduced to:   5 ShMem   1 Linda.
 DD1Dir:  Pass   2 NRAB=    19 NRAA=     0 NRBB=     0 NR=    38.
 PrRfSu:  requested number of processors reduced to:   5 ShMem   1 Linda.
 DD1Dir:  Pass   3 NRAB=    19 NRAA=     0 NRBB=     0 NR=    38.
 PrRfSu:  requested number of processors reduced to:   5 ShMem   1 Linda.
 DD1Dir:  Pass   4 NRAB=    19 NRAA=     0 NRBB=     0 NR=    38.
 PrRfSu:  requested number of processors reduced to:   5 ShMem   1 Linda.
 DD1Dir:  Pass   5 NRAB=    19 NRAA=     0 NRBB=     0 NR=    38.
 PrRfSu:  requested number of processors reduced to:   5 ShMem   1 Linda.
 DD1Dir:  Pass   6 NRAB=    19 NRAA=     0 NRBB=     0 NR=    38.
 PrRfSu:  requested number of processors reduced to:   5 ShMem   1 Linda.
 DD1Dir:  Pass   7 NRAB=    19 NRAA=     0 NRBB=     0 NR=    38.
 PrRfSu:  requested number of processors reduced to:   5 ShMem   1 Linda.
 DD1Dir:  Pass   8 NRAB=    19 NRAA=     0 NRBB=     0 NR=    38.
 PrRfSu:  requested number of processors reduced to:   5 ShMem   1 Linda.
 DD1Dir:  Pass   9 NRAB=    19 NRAA=     0 NRBB=     0 NR=    38.
 PrRfSu:  requested number of processors reduced to:   5 ShMem   1 Linda.
 DD1Dir:  Pass  10 NRAB=     9 NRAA=    20 NRBB=     0 NR=    38.
 PrRfSu:  requested number of processors reduced to:   5 ShMem   1 Linda.
 DD1Dir:  Pass  11 NRAB=     0 NRAA=    38 NRBB=     0 NR=    38.
 PrRfSu:  requested number of processors reduced to:   5 ShMem   1 Linda.
 DD1Dir:  Pass  12 NRAB=     0 NRAA=    38 NRBB=     0 NR=    38.
 PrRfSu:  requested number of processors reduced to:   5 ShMem   1 Linda.
 DD1Dir:  Pass  13 NRAB=     0 NRAA=     9 NRBB=    29 NR=    38.
 PrRfSu:  requested number of processors reduced to:   5 ShMem   1 Linda.
 DD1Dir:  Pass  14 NRAB=     0 NRAA=     0 NRBB=    37 NR=    37.
 PrRfSu:  requested number of processors reduced to:   5 ShMem   1 Linda.
 Norm of the A-vectors is  1.5025190D-01 conv= 1.00D-05.
 RLE energy=       -0.9315574129
 DE(Corr)= -0.92984736     E(CORR)=     -265.23099451     Delta=-7.38D-03
 NORM(A)=   0.12070796D+01
 Iteration Nr.   5
 **********************
 DD1Dir will call FoFJK  14 times, MxPair=        38
 NAB=   180 NAA=   105 NBB=    66 NumPrc=  4.
 DD1Dir:  Pass   1 NRAB=    19 NRAA=     0 NRBB=     0 NR=    38.
 PrRfSu:  requested number of processors reduced to:   5 ShMem   1 Linda.
 DD1Dir:  Pass   2 NRAB=    19 NRAA=     0 NRBB=     0 NR=    38.
 PrRfSu:  requested number of processors reduced to:   5 ShMem   1 Linda.
 DD1Dir:  Pass   3 NRAB=    19 NRAA=     0 NRBB=     0 NR=    38.
 PrRfSu:  requested number of processors reduced to:   5 ShMem   1 Linda.
 DD1Dir:  Pass   4 NRAB=    19 NRAA=     0 NRBB=     0 NR=    38.
 PrRfSu:  requested number of processors reduced to:   5 ShMem   1 Linda.
 DD1Dir:  Pass   5 NRAB=    19 NRAA=     0 NRBB=     0 NR=    38.
 PrRfSu:  requested number of processors reduced to:   5 ShMem   1 Linda.
 DD1Dir:  Pass   6 NRAB=    19 NRAA=     0 NRBB=     0 NR=    38.
 PrRfSu:  requested number of processors reduced to:   5 ShMem   1 Linda.
 DD1Dir:  Pass   7 NRAB=    19 NRAA=     0 NRBB=     0 NR=    38.
 PrRfSu:  requested number of processors reduced to:   5 ShMem   1 Linda.
 DD1Dir:  Pass   8 NRAB=    19 NRAA=     0 NRBB=     0 NR=    38.
 PrRfSu:  requested number of processors reduced to:   5 ShMem   1 Linda.
 DD1Dir:  Pass   9 NRAB=    19 NRAA=     0 NRBB=     0 NR=    38.
 PrRfSu:  requested number of processors reduced to:   5 ShMem   1 Linda.
 DD1Dir:  Pass  10 NRAB=     9 NRAA=    20 NRBB=     0 NR=    38.
 PrRfSu:  requested number of processors reduced to:   5 ShMem   1 Linda.
 DD1Dir:  Pass  11 NRAB=     0 NRAA=    38 NRBB=     0 NR=    38.
 PrRfSu:  requested number of processors reduced to:   5 ShMem   1 Linda.
 DD1Dir:  Pass  12 NRAB=     0 NRAA=    38 NRBB=     0 NR=    38.
 PrRfSu:  requested number of processors reduced to:   5 ShMem   1 Linda.
 DD1Dir:  Pass  13 NRAB=     0 NRAA=     9 NRBB=    29 NR=    38.
 PrRfSu:  requested number of processors reduced to:   5 ShMem   1 Linda.
 DD1Dir:  Pass  14 NRAB=     0 NRAA=     0 NRBB=    37 NR=    37.
 PrRfSu:  requested number of processors reduced to:   5 ShMem   1 Linda.
 Norm of the A-vectors is  8.0491310D-02 conv= 1.00D-05.
 RLE energy=       -0.9327959699
 DE(Corr)= -0.93185148     E(CORR)=     -265.23299862     Delta=-2.00D-03
 NORM(A)=   0.12125450D+01
 Iteration Nr.   6
 **********************
 DD1Dir will call FoFJK  14 times, MxPair=        38
 NAB=   180 NAA=   105 NBB=    66 NumPrc=  4.
 DD1Dir:  Pass   1 NRAB=    19 NRAA=     0 NRBB=     0 NR=    38.
 PrRfSu:  requested number of processors reduced to:   5 ShMem   1 Linda.
 DD1Dir:  Pass   2 NRAB=    19 NRAA=     0 NRBB=     0 NR=    38.
 PrRfSu:  requested number of processors reduced to:   5 ShMem   1 Linda.
 DD1Dir:  Pass   3 NRAB=    19 NRAA=     0 NRBB=     0 NR=    38.
 PrRfSu:  requested number of processors reduced to:   5 ShMem   1 Linda.
 DD1Dir:  Pass   4 NRAB=    19 NRAA=     0 NRBB=     0 NR=    38.
 PrRfSu:  requested number of processors reduced to:   5 ShMem   1 Linda.
 DD1Dir:  Pass   5 NRAB=    19 NRAA=     0 NRBB=     0 NR=    38.
 PrRfSu:  requested number of processors reduced to:   5 ShMem   1 Linda.
 DD1Dir:  Pass   6 NRAB=    19 NRAA=     0 NRBB=     0 NR=    38.
 PrRfSu:  requested number of processors reduced to:   5 ShMem   1 Linda.
 DD1Dir:  Pass   7 NRAB=    19 NRAA=     0 NRBB=     0 NR=    38.
 PrRfSu:  requested number of processors reduced to:   5 ShMem   1 Linda.
 DD1Dir:  Pass   8 NRAB=    19 NRAA=     0 NRBB=     0 NR=    38.
 PrRfSu:  requested number of processors reduced to:   5 ShMem   1 Linda.
 DD1Dir:  Pass   9 NRAB=    19 NRAA=     0 NRBB=     0 NR=    38.
 PrRfSu:  requested number of processors reduced to:   5 ShMem   1 Linda.
 DD1Dir:  Pass  10 NRAB=     9 NRAA=    20 NRBB=     0 NR=    38.
 PrRfSu:  requested number of processors reduced to:   5 ShMem   1 Linda.
 DD1Dir:  Pass  11 NRAB=     0 NRAA=    38 NRBB=     0 NR=    38.
 PrRfSu:  requested number of processors reduced to:   5 ShMem   1 Linda.
 DD1Dir:  Pass  12 NRAB=     0 NRAA=    38 NRBB=     0 NR=    38.
 PrRfSu:  requested number of processors reduced to:   5 ShMem   1 Linda.
 DD1Dir:  Pass  13 NRAB=     0 NRAA=     9 NRBB=    29 NR=    38.
 PrRfSu:  requested number of processors reduced to:   5 ShMem   1 Linda.
 DD1Dir:  Pass  14 NRAB=     0 NRAA=     0 NRBB=    37 NR=    37.
 PrRfSu:  requested number of processors reduced to:   5 ShMem   1 Linda.
 Norm of the A-vectors is  5.4474947D-02 conv= 1.00D-05.
 RLE energy=       -0.9323415156
 DE(Corr)= -0.93251894     E(CORR)=     -265.23366609     Delta=-6.67D-04
 NORM(A)=   0.12150074D+01
 Iteration Nr.   7
 **********************
 DD1Dir will call FoFJK  14 times, MxPair=        38
 NAB=   180 NAA=   105 NBB=    66 NumPrc=  4.
 DD1Dir:  Pass   1 NRAB=    19 NRAA=     0 NRBB=     0 NR=    38.
 PrRfSu:  requested number of processors reduced to:   5 ShMem   1 Linda.
 DD1Dir:  Pass   2 NRAB=    19 NRAA=     0 NRBB=     0 NR=    38.
 PrRfSu:  requested number of processors reduced to:   5 ShMem   1 Linda.
 DD1Dir:  Pass   3 NRAB=    19 NRAA=     0 NRBB=     0 NR=    38.
 PrRfSu:  requested number of processors reduced to:   5 ShMem   1 Linda.
 DD1Dir:  Pass   4 NRAB=    19 NRAA=     0 NRBB=     0 NR=    38.
 PrRfSu:  requested number of processors reduced to:   5 ShMem   1 Linda.
 DD1Dir:  Pass   5 NRAB=    19 NRAA=     0 NRBB=     0 NR=    38.
 PrRfSu:  requested number of processors reduced to:   5 ShMem   1 Linda.
 DD1Dir:  Pass   6 NRAB=    19 NRAA=     0 NRBB=     0 NR=    38.
 PrRfSu:  requested number of processors reduced to:   5 ShMem   1 Linda.
 DD1Dir:  Pass   7 NRAB=    19 NRAA=     0 NRBB=     0 NR=    38.
 PrRfSu:  requested number of processors reduced to:   5 ShMem   1 Linda.
 DD1Dir:  Pass   8 NRAB=    19 NRAA=     0 NRBB=     0 NR=    38.
 PrRfSu:  requested number of processors reduced to:   5 ShMem   1 Linda.
 DD1Dir:  Pass   9 NRAB=    19 NRAA=     0 NRBB=     0 NR=    38.
 PrRfSu:  requested number of processors reduced to:   5 ShMem   1 Linda.
 DD1Dir:  Pass  10 NRAB=     9 NRAA=    20 NRBB=     0 NR=    38.
 PrRfSu:  requested number of processors reduced to:   5 ShMem   1 Linda.
 DD1Dir:  Pass  11 NRAB=     0 NRAA=    38 NRBB=     0 NR=    38.
 PrRfSu:  requested number of processors reduced to:   5 ShMem   1 Linda.
 DD1Dir:  Pass  12 NRAB=     0 NRAA=    38 NRBB=     0 NR=    38.
 PrRfSu:  requested number of processors reduced to:   5 ShMem   1 Linda.
 DD1Dir:  Pass  13 NRAB=     0 NRAA=     9 NRBB=    29 NR=    38.
 PrRfSu:  requested number of processors reduced to:   5 ShMem   1 Linda.
 DD1Dir:  Pass  14 NRAB=     0 NRAA=     0 NRBB=    37 NR=    37.
 PrRfSu:  requested number of processors reduced to:   5 ShMem   1 Linda.
 Norm of the A-vectors is  3.5292042D-02 conv= 1.00D-05.
 RLE energy=       -0.9328648778
 DE(Corr)= -0.93281626     E(CORR)=     -265.23396341     Delta=-2.97D-04
 NORM(A)=   0.12170442D+01
 Iteration Nr.   8
 **********************
 DD1Dir will call FoFJK  14 times, MxPair=        38
 NAB=   180 NAA=   105 NBB=    66 NumPrc=  4.
 DD1Dir:  Pass   1 NRAB=    19 NRAA=     0 NRBB=     0 NR=    38.
 PrRfSu:  requested number of processors reduced to:   5 ShMem   1 Linda.
 DD1Dir:  Pass   2 NRAB=    19 NRAA=     0 NRBB=     0 NR=    38.
 PrRfSu:  requested number of processors reduced to:   5 ShMem   1 Linda.
 DD1Dir:  Pass   3 NRAB=    19 NRAA=     0 NRBB=     0 NR=    38.
 PrRfSu:  requested number of processors reduced to:   5 ShMem   1 Linda.
 DD1Dir:  Pass   4 NRAB=    19 NRAA=     0 NRBB=     0 NR=    38.
 PrRfSu:  requested number of processors reduced to:   5 ShMem   1 Linda.
 DD1Dir:  Pass   5 NRAB=    19 NRAA=     0 NRBB=     0 NR=    38.
 PrRfSu:  requested number of processors reduced to:   5 ShMem   1 Linda.
 DD1Dir:  Pass   6 NRAB=    19 NRAA=     0 NRBB=     0 NR=    38.
 PrRfSu:  requested number of processors reduced to:   5 ShMem   1 Linda.
 DD1Dir:  Pass   7 NRAB=    19 NRAA=     0 NRBB=     0 NR=    38.
 PrRfSu:  requested number of processors reduced to:   5 ShMem   1 Linda.
 DD1Dir:  Pass   8 NRAB=    19 NRAA=     0 NRBB=     0 NR=    38.
 PrRfSu:  requested number of processors reduced to:   5 ShMem   1 Linda.
 DD1Dir:  Pass   9 NRAB=    19 NRAA=     0 NRBB=     0 NR=    38.
 PrRfSu:  requested number of processors reduced to:   5 ShMem   1 Linda.
 DD1Dir:  Pass  10 NRAB=     9 NRAA=    20 NRBB=     0 NR=    38.
 PrRfSu:  requested number of processors reduced to:   5 ShMem   1 Linda.
 DD1Dir:  Pass  11 NRAB=     0 NRAA=    38 NRBB=     0 NR=    38.
 PrRfSu:  requested number of processors reduced to:   5 ShMem   1 Linda.
 DD1Dir:  Pass  12 NRAB=     0 NRAA=    38 NRBB=     0 NR=    38.
 PrRfSu:  requested number of processors reduced to:   5 ShMem   1 Linda.
 DD1Dir:  Pass  13 NRAB=     0 NRAA=     9 NRBB=    29 NR=    38.
 PrRfSu:  requested number of processors reduced to:   5 ShMem   1 Linda.
 DD1Dir:  Pass  14 NRAB=     0 NRAA=     0 NRBB=    37 NR=    37.
 PrRfSu:  requested number of processors reduced to:   5 ShMem   1 Linda.
 Norm of the A-vectors is  2.6763135D-02 conv= 1.00D-05.
 RLE energy=       -0.9327175263
 DE(Corr)= -0.93280395     E(CORR)=     -265.23395110     Delta= 1.23D-05
 NORM(A)=   0.12179340D+01
 Iteration Nr.   9
 **********************
 DD1Dir will call FoFJK  14 times, MxPair=        38
 NAB=   180 NAA=   105 NBB=    66 NumPrc=  4.
 DD1Dir:  Pass   1 NRAB=    19 NRAA=     0 NRBB=     0 NR=    38.
 PrRfSu:  requested number of processors reduced to:   5 ShMem   1 Linda.
 DD1Dir:  Pass   2 NRAB=    19 NRAA=     0 NRBB=     0 NR=    38.
 PrRfSu:  requested number of processors reduced to:   5 ShMem   1 Linda.
 DD1Dir:  Pass   3 NRAB=    19 NRAA=     0 NRBB=     0 NR=    38.
 PrRfSu:  requested number of processors reduced to:   5 ShMem   1 Linda.
 DD1Dir:  Pass   4 NRAB=    19 NRAA=     0 NRBB=     0 NR=    38.
 PrRfSu:  requested number of processors reduced to:   5 ShMem   1 Linda.
 DD1Dir:  Pass   5 NRAB=    19 NRAA=     0 NRBB=     0 NR=    38.
 PrRfSu:  requested number of processors reduced to:   5 ShMem   1 Linda.
 DD1Dir:  Pass   6 NRAB=    19 NRAA=     0 NRBB=     0 NR=    38.
 PrRfSu:  requested number of processors reduced to:   5 ShMem   1 Linda.
 DD1Dir:  Pass   7 NRAB=    19 NRAA=     0 NRBB=     0 NR=    38.
 PrRfSu:  requested number of processors reduced to:   5 ShMem   1 Linda.
 DD1Dir:  Pass   8 NRAB=    19 NRAA=     0 NRBB=     0 NR=    38.
 PrRfSu:  requested number of processors reduced to:   5 ShMem   1 Linda.
 DD1Dir:  Pass   9 NRAB=    19 NRAA=     0 NRBB=     0 NR=    38.
 PrRfSu:  requested number of processors reduced to:   5 ShMem   1 Linda.
 DD1Dir:  Pass  10 NRAB=     9 NRAA=    20 NRBB=     0 NR=    38.
 PrRfSu:  requested number of processors reduced to:   5 ShMem   1 Linda.
 DD1Dir:  Pass  11 NRAB=     0 NRAA=    38 NRBB=     0 NR=    38.
 PrRfSu:  requested number of processors reduced to:   5 ShMem   1 Linda.
 DD1Dir:  Pass  12 NRAB=     0 NRAA=    38 NRBB=     0 NR=    38.
 PrRfSu:  requested number of processors reduced to:   5 ShMem   1 Linda.
 DD1Dir:  Pass  13 NRAB=     0 NRAA=     9 NRBB=    29 NR=    38.
 PrRfSu:  requested number of processors reduced to:   5 ShMem   1 Linda.
 DD1Dir:  Pass  14 NRAB=     0 NRAA=     0 NRBB=    37 NR=    37.
 PrRfSu:  requested number of processors reduced to:   5 ShMem   1 Linda.
 Norm of the A-vectors is  1.9814043D-02 conv= 1.00D-05.
 RLE energy=       -0.9329075170
 DE(Corr)= -0.93293117     E(CORR)=     -265.23407831     Delta=-1.27D-04
 NORM(A)=   0.12184802D+01
 Iteration Nr.  10
 **********************
 DD1Dir will call FoFJK  14 times, MxPair=        38
 NAB=   180 NAA=   105 NBB=    66 NumPrc=  4.
 DD1Dir:  Pass   1 NRAB=    19 NRAA=     0 NRBB=     0 NR=    38.
 PrRfSu:  requested number of processors reduced to:   5 ShMem   1 Linda.
 DD1Dir:  Pass   2 NRAB=    19 NRAA=     0 NRBB=     0 NR=    38.
 PrRfSu:  requested number of processors reduced to:   5 ShMem   1 Linda.
 DD1Dir:  Pass   3 NRAB=    19 NRAA=     0 NRBB=     0 NR=    38.
 PrRfSu:  requested number of processors reduced to:   5 ShMem   1 Linda.
 DD1Dir:  Pass   4 NRAB=    19 NRAA=     0 NRBB=     0 NR=    38.
 PrRfSu:  requested number of processors reduced to:   5 ShMem   1 Linda.
 DD1Dir:  Pass   5 NRAB=    19 NRAA=     0 NRBB=     0 NR=    38.
 PrRfSu:  requested number of processors reduced to:   5 ShMem   1 Linda.
 DD1Dir:  Pass   6 NRAB=    19 NRAA=     0 NRBB=     0 NR=    38.
 PrRfSu:  requested number of processors reduced to:   5 ShMem   1 Linda.
 DD1Dir:  Pass   7 NRAB=    19 NRAA=     0 NRBB=     0 NR=    38.
 PrRfSu:  requested number of processors reduced to:   5 ShMem   1 Linda.
 DD1Dir:  Pass   8 NRAB=    19 NRAA=     0 NRBB=     0 NR=    38.
 PrRfSu:  requested number of processors reduced to:   5 ShMem   1 Linda.
 DD1Dir:  Pass   9 NRAB=    19 NRAA=     0 NRBB=     0 NR=    38.
 PrRfSu:  requested number of processors reduced to:   5 ShMem   1 Linda.
 DD1Dir:  Pass  10 NRAB=     9 NRAA=    20 NRBB=     0 NR=    38.
 PrRfSu:  requested number of processors reduced to:   5 ShMem   1 Linda.
 DD1Dir:  Pass  11 NRAB=     0 NRAA=    38 NRBB=     0 NR=    38.
 PrRfSu:  requested number of processors reduced to:   5 ShMem   1 Linda.
 DD1Dir:  Pass  12 NRAB=     0 NRAA=    38 NRBB=     0 NR=    38.
 PrRfSu:  requested number of processors reduced to:   5 ShMem   1 Linda.
 DD1Dir:  Pass  13 NRAB=     0 NRAA=     9 NRBB=    29 NR=    38.
 PrRfSu:  requested number of processors reduced to:   5 ShMem   1 Linda.
 DD1Dir:  Pass  14 NRAB=     0 NRAA=     0 NRBB=    37 NR=    37.
 PrRfSu:  requested number of processors reduced to:   5 ShMem   1 Linda.
 Norm of the A-vectors is  1.3787917D-02 conv= 1.00D-05.
 RLE energy=       -0.9329265154
 DE(Corr)= -0.93290767     E(CORR)=     -265.23405482     Delta= 2.35D-05
 NORM(A)=   0.12187764D+01
 Iteration Nr.  11
 **********************
 DD1Dir will call FoFJK  14 times, MxPair=        38
 NAB=   180 NAA=   105 NBB=    66 NumPrc=  4.
 DD1Dir:  Pass   1 NRAB=    19 NRAA=     0 NRBB=     0 NR=    38.
 PrRfSu:  requested number of processors reduced to:   5 ShMem   1 Linda.
 DD1Dir:  Pass   2 NRAB=    19 NRAA=     0 NRBB=     0 NR=    38.
 PrRfSu:  requested number of processors reduced to:   5 ShMem   1 Linda.
 DD1Dir:  Pass   3 NRAB=    19 NRAA=     0 NRBB=     0 NR=    38.
 PrRfSu:  requested number of processors reduced to:   5 ShMem   1 Linda.
 DD1Dir:  Pass   4 NRAB=    19 NRAA=     0 NRBB=     0 NR=    38.
 PrRfSu:  requested number of processors reduced to:   5 ShMem   1 Linda.
 DD1Dir:  Pass   5 NRAB=    19 NRAA=     0 NRBB=     0 NR=    38.
 PrRfSu:  requested number of processors reduced to:   5 ShMem   1 Linda.
 DD1Dir:  Pass   6 NRAB=    19 NRAA=     0 NRBB=     0 NR=    38.
 PrRfSu:  requested number of processors reduced to:   5 ShMem   1 Linda.
 DD1Dir:  Pass   7 NRAB=    19 NRAA=     0 NRBB=     0 NR=    38.
 PrRfSu:  requested number of processors reduced to:   5 ShMem   1 Linda.
 DD1Dir:  Pass   8 NRAB=    19 NRAA=     0 NRBB=     0 NR=    38.
 PrRfSu:  requested number of processors reduced to:   5 ShMem   1 Linda.
 DD1Dir:  Pass   9 NRAB=    19 NRAA=     0 NRBB=     0 NR=    38.
 PrRfSu:  requested number of processors reduced to:   5 ShMem   1 Linda.
 DD1Dir:  Pass  10 NRAB=     9 NRAA=    20 NRBB=     0 NR=    38.
 PrRfSu:  requested number of processors reduced to:   5 ShMem   1 Linda.
 DD1Dir:  Pass  11 NRAB=     0 NRAA=    38 NRBB=     0 NR=    38.
 PrRfSu:  requested number of processors reduced to:   5 ShMem   1 Linda.
 DD1Dir:  Pass  12 NRAB=     0 NRAA=    38 NRBB=     0 NR=    38.
 PrRfSu:  requested number of processors reduced to:   5 ShMem   1 Linda.
 DD1Dir:  Pass  13 NRAB=     0 NRAA=     9 NRBB=    29 NR=    38.
 PrRfSu:  requested number of processors reduced to:   5 ShMem   1 Linda.
 DD1Dir:  Pass  14 NRAB=     0 NRAA=     0 NRBB=    37 NR=    37.
 PrRfSu:  requested number of processors reduced to:   5 ShMem   1 Linda.
 Norm of the A-vectors is  1.1726311D-02 conv= 1.00D-05.
 RLE energy=       -0.9329647749
 DE(Corr)= -0.93295891     E(CORR)=     -265.23410605     Delta=-5.12D-05
 NORM(A)=   0.12190190D+01
 Iteration Nr.  12
 **********************
[...]
 DD1Dir:  Pass   4 NRAB=    19 NRAA=     0 NRBB=     0 NR=    38.
 PrRfSu:  requested number of processors reduced to:   5 ShMem   1 Linda.
 DD1Dir:  Pass   5 NRAB=    19 NRAA=     0 NRBB=     0 NR=    38.
 PrRfSu:  requested number of processors reduced to:   5 ShMem   1 Linda.
 DD1Dir:  Pass   6 NRAB=    19 NRAA=     0 NRBB=     0 NR=    38.
 PrRfSu:  requested number of processors reduced to:   5 ShMem   1 Linda.
 DD1Dir:  Pass   7 NRAB=    19 NRAA=     0 NRBB=     0 NR=    38.
 PrRfSu:  requested number of processors reduced to:   5 ShMem   1 Linda.
 DD1Dir:  Pass   8 NRAB=    19 NRAA=     0 NRBB=     0 NR=    38.
 PrRfSu:  requested number of processors reduced to:   5 ShMem   1 Linda.
 DD1Dir:  Pass   9 NRAB=    19 NRAA=     0 NRBB=     0 NR=    38.
 PrRfSu:  requested number of processors reduced to:   5 ShMem   1 Linda.
 DD1Dir:  Pass  10 NRAB=     9 NRAA=    20 NRBB=     0 NR=    38.
 PrRfSu:  requested number of processors reduced to:   5 ShMem   1 Linda.
 DD1Dir:  Pass  11 NRAB=     0 NRAA=    38 NRBB=     0 NR=    38.
 PrRfSu:  requested number of processors reduced to:   5 ShMem   1 Linda.
 DD1Dir:  Pass  12 NRAB=     0 NRAA=    38 NRBB=     0 NR=    38.
 PrRfSu:  requested number of processors reduced to:   5 ShMem   1 Linda.
 DD1Dir:  Pass  13 NRAB=     0 NRAA=     9 NRBB=    29 NR=    38.
 PrRfSu:  requested number of processors reduced to:   5 ShMem   1 Linda.
 DD1Dir:  Pass  14 NRAB=     0 NRAA=     0 NRBB=    37 NR=    37.
 PrRfSu:  requested number of processors reduced to:   5 ShMem   1 Linda.
 Norm of the A-vectors is  9.7507375D-06 conv= 1.00D-05.
 RLE energy=       -0.9330865964
 DE(Corr)= -0.93308657     E(CORR)=     -265.23423371     Delta=-4.28D-08
 NORM(A)=   0.12199315D+01
 CI/CC converged in   38 iterations to DelEn=-4.28D-08 Conv= 1.00D-07 ErrA1= 9.75D-06 Conv= 1.00D-05
 Dominant configurations:
 ***********************
 Spin Case        I    J    A    B          Value
    BB           17        20            0.117834D+00
 Largest amplitude= 1.18D-01
 Time for triples=   172548.56 seconds.
 T4(CCSD)= -0.68963242D-01
 T5(CCSD)=  0.33024098D-02
 CCSD(T)= -0.26529989455D+03

 S**2, projected HF & approx projected MPn energies after annihilation of
 unwanted spin states (see manual for definitions):

 spins       (S**2,0) (S**2,1)    PUHF        PMP2        PMP3        PMP4
 annihilated
 s+1         3.73881  3.74800 -264.314423 -265.212740 -265.224074
 s+1,s+2     3.75022  3.74993 -264.313796 -265.212167 -265.223561
 s+1 to s+3  3.75000  3.75000 -264.313808 -265.212175 -265.223563
 s+1 to s+4  3.75000  3.75000 -264.313808 -265.212175 -265.223563
 s+1 to s+5  3.75000  3.75000 -264.313808
 s+1 to s+6  3.75000  3.75000 -264.313808

 Discarding MO integrals.
 Leave Link  913 at Fri Nov  4 13:45:33 2016, MaxMem=    33554432 cpu:    966811.7
 (Enter /home/proyectos/fulerenos/M3C-v2.0/M3C-deps_CCC/g09-AM64L-G09RevC.01/l601.exe)
 Copying SCF densities to generalized density rwf, IOpCl= 1 IROHF=0.

 **********************************************************************

            Population analysis using the SCF density.

 **********************************************************************

 Orbital symmetries:
 Alpha Orbitals:
       Occupied  (A) (A) (A) (A) (A) (A) (A) (A) (A) (A) (A) (A)
                 (A) (A) (A) (A) (A) (A) (A) (A) (A) (A)
       Virtual   (A) (A) (A) (A) (A) (A) (A) (A) (A) (A) (A) (A)
                 (A) (A) (A) (A) (A) (A) (A) (A) (A) (A) (A) (A)
                 (A) (A) (A) (A) (A) (A) (A) (A) (A) (A) (A) (A)
                 (A) (A) (A) (A) (A) (A) (A) (A) (A) (A) (A) (A)
                 (A) (A) (A) (A) (A) (A) (A) (A) (A) (A) (A) (A)
                 (A) (A) (A) (A) (A) (A) (A) (A) (A) (A) (A) (A)
                 (A) (A) (A) (A) (A) (A) (A) (A) (A) (A) (A) (A)
                 (A) (A) (A) (A) (A) (A) (A) (A) (A) (A) (A) (A)
                 (A) (A) (A) (A) (A) (A) (A) (A) (A) (A) (A) (A)
                 (A) (A) (A) (A) (A) (A) (A) (A) (A) (A) (A) (A)
                 (A) (A) (A) (A) (A) (A) (A) (A) (A) (A) (A) (A)
                 (A) (A) (A) (A) (A) (A) (A) (A) (A) (A) (A) (A)
                 (A) (A) (A) (A) (A) (A) (A) (A) (A) (A) (A) (A)
                 (A) (A) (A) (A) (A) (A) (A) (A) (A) (A) (A) (A)
                 (A) (A) (A) (A) (A) (A) (A) (A) (A) (A) (A) (A)
                 (A) (A) (A) (A) (A) (A) (A) (A) (A) (A) (A) (A)
                 (A) (A) (A) (A) (A) (A) (A) (A) (A) (A) (A) (A)
                 (A) (A) (A) (A) (A) (A) (A) (A) (A) (A) (A) (A)
                 (A) (A) (A) (A) (A) (A) (A) (A) (A) (A) (A) (A)
                 (A) (A) (A) (A) (A) (A) (A) (A) (A) (A) (A) (A)
                 (A) (A) (A) (A) (A) (A) (A) (A) (A) (A) (A)
 Beta  Orbitals:
       Occupied  (A) (A) (A) (A) (A) (A) (A) (A) (A) (A) (A) (A)
                 (A) (A) (A) (A) (A) (A) (A)
       Virtual   (A) (A) (A) (A) (A) (A) (A) (A) (A) (A) (A) (A)
                 (A) (A) (A) (A) (A) (A) (A) (A) (A) (A) (A) (A)
                 (A) (A) (A) (A) (A) (A) (A) (A) (A) (A) (A) (A)
                 (A) (A) (A) (A) (A) (A) (A) (A) (A) (A) (A) (A)
                 (A) (A) (A) (A) (A) (A) (A) (A) (A) (A) (A) (A)
                 (A) (A) (A) (A) (A) (A) (A) (A) (A) (A) (A) (A)
                 (A) (A) (A) (A) (A) (A) (A) (A) (A) (A) (A) (A)
                 (A) (A) (A) (A) (A) (A) (A) (A) (A) (A) (A) (A)
                 (A) (A) (A) (A) (A) (A) (A) (A) (A) (A) (A) (A)
                 (A) (A) (A) (A) (A) (A) (A) (A) (A) (A) (A) (A)
                 (A) (A) (A) (A) (A) (A) (A) (A) (A) (A) (A) (A)
                 (A) (A) (A) (A) (A) (A) (A) (A) (A) (A) (A) (A)
                 (A) (A) (A) (A) (A) (A) (A) (A) (A) (A) (A) (A)
                 (A) (A) (A) (A) (A) (A) (A) (A) (A) (A) (A) (A)
                 (A) (A) (A) (A) (A) (A) (A) (A) (A) (A) (A) (A)
                 (A) (A) (A) (A) (A) (A) (A) (A) (A) (A) (A) (A)
                 (A) (A) (A) (A) (A) (A) (A) (A) (A) (A) (A) (A)
                 (A) (A) (A) (A) (A) (A) (A) (A) (A) (A) (A) (A)
                 (A) (A) (A) (A) (A) (A) (A) (A) (A) (A) (A) (A)
                 (A) (A) (A) (A) (A) (A) (A) (A) (A) (A) (A) (A)
                 (A) (A) (A) (A) (A) (A) (A) (A) (A) (A) (A) (A)
                 (A) (A)
 The electronic state is 4-A.
 Alpha  occ. eigenvalues --  -11.63683 -11.62148 -11.61481 -11.61442 -11.56968
 Alpha  occ. eigenvalues --  -11.53312 -11.51312  -1.59157  -1.46786  -1.23438
 Alpha  occ. eigenvalues --   -1.20415  -1.04881  -0.92400  -0.91721  -0.88514
 Alpha  occ. eigenvalues --   -0.84439  -0.80731  -0.72076  -0.68981  -0.68322
 Alpha  occ. eigenvalues --   -0.64147  -0.60271
 Alpha virt. eigenvalues --   -0.19621  -0.16817  -0.15065  -0.09103  -0.07052
 Alpha virt. eigenvalues --   -0.05195  -0.04808  -0.04369  -0.02715  -0.02407
 Alpha virt. eigenvalues --   -0.01844  -0.01055  -0.00528   0.00977   0.01176
 Alpha virt. eigenvalues --    0.01544   0.02782   0.03325   0.04525   0.04897
 Alpha virt. eigenvalues --    0.06110   0.06785   0.08212   0.08596   0.09407
 Alpha virt. eigenvalues --    0.09461   0.10078   0.10326   0.11468   0.12997
 Alpha virt. eigenvalues --    0.14383   0.14644   0.15657   0.16640   0.18693
 Alpha virt. eigenvalues --    0.19062   0.23270   0.24660   0.26010   0.26776
 Alpha virt. eigenvalues --    0.27290   0.31707   0.33573   0.35000   0.35332
 Alpha virt. eigenvalues --    0.37220   0.38502   0.38849   0.39901   0.40789
 Alpha virt. eigenvalues --    0.41421   0.43437   0.43598   0.44068   0.45871
 Alpha virt. eigenvalues --    0.46164   0.46375   0.47720   0.48573   0.49043
 Alpha virt. eigenvalues --    0.50206   0.51356   0.51393   0.52692   0.53164
 Alpha virt. eigenvalues --    0.54404   0.56667   0.59621   0.60346   0.61355
 Alpha virt. eigenvalues --    0.64187   0.65519   0.65898   0.67422   0.67656
 Alpha virt. eigenvalues --    0.68639   0.68861   0.73452   0.75477   0.77510
 Alpha virt. eigenvalues --    0.79537   0.80842   0.83226   0.83944   0.84407
 Alpha virt. eigenvalues --    0.85477   0.86259   0.91575   0.92986   0.95551
 Alpha virt. eigenvalues --    0.99796   1.00995   1.04185   1.06472   1.07617
 Alpha virt. eigenvalues --    1.13158   1.17205   1.23424   1.27961   1.29341
 Alpha virt. eigenvalues --    1.30441   1.32399   1.34825   1.35910   1.37650
 Alpha virt. eigenvalues --    1.39351   1.47482   1.50498   1.51431   1.55573
 Alpha virt. eigenvalues --    1.58261   1.63708   1.64618   1.65585   1.66573
 Alpha virt. eigenvalues --    1.75285   1.75952   1.79412   1.79450   1.80100
 Alpha virt. eigenvalues --    1.82891   1.84131   1.92954   1.94644   1.99803
 Alpha virt. eigenvalues --    2.03321   2.05796   2.08622   2.14784   2.15199
 Alpha virt. eigenvalues --    2.24417   2.27226   2.31625   2.32954   2.34788
 Alpha virt. eigenvalues --    2.36423   2.40698   2.53816   2.63861   2.65811
 Alpha virt. eigenvalues --    2.73864   2.77269   2.78780   2.81204   2.83012
 Alpha virt. eigenvalues --    2.84478   2.88331   2.89269   2.91046   2.91994
 Alpha virt. eigenvalues --    2.92502   2.93771   2.96983   2.97047   3.00229
 Alpha virt. eigenvalues --    3.05201   3.07921   3.09002   3.09841   3.11120
 Alpha virt. eigenvalues --    3.11292   3.15975   3.16599   3.18232   3.21863
 Alpha virt. eigenvalues --    3.25176   3.25446   3.26605   3.28586   3.33892
 Alpha virt. eigenvalues --    3.36291   3.39018   3.43631   3.48014   3.49820
 Alpha virt. eigenvalues --    3.54462   3.58018   3.62054   3.63468   3.75188
 Alpha virt. eigenvalues --    3.77540   3.90205   3.94216   3.95078   3.96092
 Alpha virt. eigenvalues --    4.00175   4.06304   4.07407   4.11274   4.16333
 Alpha virt. eigenvalues --    4.17613   4.20435   4.28343   4.39135   4.40732
 Alpha virt. eigenvalues --    4.42684   4.50535   4.60933   4.61538   4.69527
 Alpha virt. eigenvalues --    4.84444   5.08995   5.29132   5.35685   5.47801
 Alpha virt. eigenvalues --    5.48902   5.61080   5.99387   6.44183   7.16549
 Alpha virt. eigenvalues --    7.17001   7.17713   7.19100   7.22036   7.22902
 Alpha virt. eigenvalues --    7.24918   7.31801   7.31910   7.36769   7.38425
 Alpha virt. eigenvalues --    7.40134   7.43450   7.46565   7.50912   7.55975
 Alpha virt. eigenvalues --    7.56190   7.60300   7.60359   7.66034   7.68623
 Alpha virt. eigenvalues --    7.76312   7.79537   7.81978   7.90137   7.95497
 Alpha virt. eigenvalues --    8.03212   8.13521   8.18313   8.44426   8.53753
 Alpha virt. eigenvalues --    8.57304   8.78581   8.89651   8.97967  24.88385
 Alpha virt. eigenvalues --   25.01338  26.01926  26.38157  26.53014  26.62980
 Alpha virt. eigenvalues --   26.63486
  Beta  occ. eigenvalues --  -11.63253 -11.61160 -11.61088 -11.58010 -11.52441
  Beta  occ. eigenvalues --  -11.52245 -11.51625  -1.58116  -1.43851  -1.18738
  Beta  occ. eigenvalues --   -1.13502  -1.02436  -0.88043  -0.85826  -0.83026
  Beta  occ. eigenvalues --   -0.70208  -0.68562  -0.66194  -0.65028
  Beta virt. eigenvalues --   -0.22725  -0.19617  -0.19004  -0.15685  -0.13759
  Beta virt. eigenvalues --   -0.09715  -0.06077  -0.05373  -0.04827  -0.03495
  Beta virt. eigenvalues --   -0.02932  -0.02241  -0.01766  -0.01132   0.00452
  Beta virt. eigenvalues --    0.01230   0.01795   0.01885   0.02965   0.03923
  Beta virt. eigenvalues --    0.04193   0.05049   0.05755   0.06844   0.08441
  Beta virt. eigenvalues --    0.08858   0.09927   0.10044   0.10616   0.11065
  Beta virt. eigenvalues --    0.11113   0.12094   0.13994   0.15856   0.16168
  Beta virt. eigenvalues --    0.16467   0.17540   0.20019   0.22823   0.24314
  Beta virt. eigenvalues --    0.26598   0.27611   0.28655   0.29494   0.33655
  Beta virt. eigenvalues --    0.34962   0.36079   0.37125   0.37920   0.40204
  Beta virt. eigenvalues --    0.40875   0.41433   0.42016   0.44271   0.44351
  Beta virt. eigenvalues --    0.45627   0.45907   0.47601   0.48051   0.48764
  Beta virt. eigenvalues --    0.49433   0.49847   0.50044   0.52046   0.52581
  Beta virt. eigenvalues --    0.52996   0.54037   0.55444   0.56591   0.57717
  Beta virt. eigenvalues --    0.60788   0.61650   0.61789   0.65436   0.66830
  Beta virt. eigenvalues --    0.67599   0.67762   0.68624   0.69861   0.70545
  Beta virt. eigenvalues --    0.74310   0.76768   0.78923   0.80376   0.81761
  Beta virt. eigenvalues --    0.84036   0.85550   0.85585   0.87604   0.87738
  Beta virt. eigenvalues --    0.92497   0.93479   0.97909   1.00870   1.02065
  Beta virt. eigenvalues --    1.05557   1.07410   1.09422   1.14966   1.19179
  Beta virt. eigenvalues --    1.27655   1.30095   1.30179   1.31304   1.34942
  Beta virt. eigenvalues --    1.36615   1.38624   1.39173   1.42345   1.49637
  Beta virt. eigenvalues --    1.51651   1.53834   1.57972   1.59678   1.65847
  Beta virt. eigenvalues --    1.66591   1.68607   1.70029   1.79720   1.80185
  Beta virt. eigenvalues --    1.81164   1.81571   1.82733   1.86084   1.87312
  Beta virt. eigenvalues --    1.95748   1.96697   2.04542   2.06357   2.08987
  Beta virt. eigenvalues --    2.10609   2.16497   2.16813   2.27857   2.29853
  Beta virt. eigenvalues --    2.34594   2.35063   2.37930   2.39148   2.43130
  Beta virt. eigenvalues --    2.55138   2.65625   2.66998   2.74712   2.77358
  Beta virt. eigenvalues --    2.80487   2.82978   2.85039   2.85645   2.89846
  Beta virt. eigenvalues --    2.91760   2.92974   2.93645   2.94093   2.95084
  Beta virt. eigenvalues --    2.99238   2.99310   3.02243   3.07186   3.09981
  Beta virt. eigenvalues --    3.10046   3.11403   3.12621   3.13100   3.18467
  Beta virt. eigenvalues --    3.18902   3.19553   3.23503   3.26378   3.27244
  Beta virt. eigenvalues --    3.28221   3.29424   3.35298   3.37810   3.40322
  Beta virt. eigenvalues --    3.45291   3.49693   3.51133   3.55857   3.59502
  Beta virt. eigenvalues --    3.63810   3.64117   3.76629   3.78738   3.91342
  Beta virt. eigenvalues --    3.94554   3.96591   3.97671   4.02772   4.07540
  Beta virt. eigenvalues --    4.09655   4.12317   4.17945   4.20035   4.22955
  Beta virt. eigenvalues --    4.30235   4.41071   4.41829   4.44005   4.52004
  Beta virt. eigenvalues --    4.61764   4.62702   4.70787   4.85737   5.10146
  Beta virt. eigenvalues --    5.29670   5.36222   5.48750   5.50087   5.62554
  Beta virt. eigenvalues --    6.00320   6.45277   7.17040   7.18048   7.19867
  Beta virt. eigenvalues --    7.22283   7.24147   7.25007   7.27955   7.32151
  Beta virt. eigenvalues --    7.32713   7.38857   7.39674   7.41318   7.44568
  Beta virt. eigenvalues --    7.49561   7.52367   7.58427   7.60034   7.61531
  Beta virt. eigenvalues --    7.61540   7.66573   7.70576   7.78268   7.81342
  Beta virt. eigenvalues --    7.82621   7.92710   7.96112   8.03757   8.14415
  Beta virt. eigenvalues --    8.20221   8.46018   8.54183   8.59624   8.78870
  Beta virt. eigenvalues --    8.91089   8.98271  24.89645  25.02417  26.02396
  Beta virt. eigenvalues --   26.38561  26.55328  26.63023  26.65643
          Condensed to atoms (all electrons):
               1          2          3          4          5          6
     1  C    8.188399  -0.574520  -0.066479   0.075619   0.031980  -2.224866
     2  C   -0.574520  11.544322   0.506378  -1.003663  -2.121051  -1.504618
     3  C   -0.066479   0.506378   9.062169  -1.440607  -0.422435  -0.063587
     4  C    0.075619  -1.003663  -1.440607   8.950061  -0.411562   0.057583
     5  C    0.031980  -2.121051  -0.422435  -0.411562   8.932784  -0.130132
     6  C   -2.224866  -1.504618  -0.063587   0.057583  -0.130132  10.111634
     7  C    0.075671  -1.004561  -1.440650  -0.354180  -0.412320   0.057522
               7
     1  C    0.075671
     2  C   -1.004561
     3  C   -1.440650
     4  C   -0.354180
     5  C   -0.412320
     6  C    0.057522
     7  C    8.951583
          Atomic-Atomic Spin Densities.
               1          2          3          4          5          6
     1  C   -0.451752  -0.022337   0.027785  -0.123257   0.353887  -0.068964
     2  C   -0.022337   1.595690  -0.259406   0.234494  -0.349521   0.095518
     3  C    0.027785  -0.259406   3.560031  -1.035837  -0.099198  -0.007432
     4  C   -0.123257   0.234494  -1.035837   0.876154  -0.323481   0.043013
     5  C    0.353887  -0.349521  -0.099198  -0.323481   0.822380  -0.254497
     6  C   -0.068964   0.095518  -0.007432   0.043013  -0.254497   0.917279
     7  C   -0.123334   0.234536  -1.035981   0.396398  -0.323562   0.043022
               7
     1  C   -0.123334
     2  C    0.234536
     3  C   -1.035981
     4  C    0.396398
     5  C   -0.323562
     6  C    0.043022
     7  C    0.876529
 Mulliken charges and spin densities:
               1          2
     1  C    0.494195  -0.407973
     2  C    0.157713   1.528974
     3  C   -0.134789   1.149961
     4  C    0.126748   0.067483
     5  C    0.532735  -0.173993
     6  C   -0.303536   0.767939
     7  C    0.126934   0.067608
 Sum of Mulliken charges =   1.00000   3.00000
 Mulliken charges and spin densities with hydrogens summed into heavy atoms:
               1          2
     1  C    0.494195  -0.407973
     2  C    0.157713   1.528974
     3  C   -0.134789   1.149961
     4  C    0.126748   0.067483
     5  C    0.532735  -0.173993
     6  C   -0.303536   0.767939
     7  C    0.126934   0.067608
 Electronic spatial extent (au):  <R**2>=            488.3375
 Charge=              1.0000 electrons
 Dipole moment (field-independent basis, Debye):
    X=              2.5075    Y=              1.4013    Z=             -0.0002  Tot=              2.8725
 Quadrupole moment (field-independent basis, Debye-Ang):
   XX=            -21.0589   YY=            -35.7785   ZZ=            -36.5663
   XY=             -3.9403   XZ=             -0.0004   YZ=              0.0000
 Traceless Quadrupole moment (field-independent basis, Debye-Ang):
   XX=             10.0757   YY=             -4.6440   ZZ=             -5.4317
   XY=             -3.9403   XZ=             -0.0004   YZ=              0.0000
 Octapole moment (field-independent basis, Debye-Ang**2):
  XXX=             12.7631  YYY=             12.3656  ZZZ=             -0.0009  XYY=              5.3738
  XXY=              0.7281  XXZ=              0.0009  XZZ=              2.8595  YZZ=              1.3056
  YYZ=              0.0002  XYZ=             -0.0001
 Hexadecapole moment (field-independent basis, Debye-Ang**3):
 XXXX=           -398.7526 YYYY=           -165.6245 ZZZZ=            -79.4968 XXXY=            -16.5891
 XXXZ=             -0.0020 YYYX=            -23.5684 YYYZ=              0.0001 ZZZX=             -0.0009
 ZZZY=             -0.0001 XXYY=           -110.4050 XXZZ=            -95.4464 YYZZ=            -39.2967
 XXYZ=             -0.0005 YYXZ=             -0.0008 ZZXY=             -2.7611
 N-N= 1.963564361132D+02 E-N=-9.974052337887D+02  KE= 2.640898381442D+02
 Leave Link  601 at Fri Nov  4 13:45:33 2016, MaxMem=    33554432 cpu:         0.8
 (Enter /home/proyectos/fulerenos/M3C-v2.0/M3C-deps_CCC/g09-AM64L-G09RevC.01/l9999.exe)
 1\1\GINC-BELVIS7\SP\UCCSD(T)-FC\6-311+G(3df)\C7(1+,4)\ROOT\04-Nov-2016
 \0\\#p ccsd(t)/6-311+G(3df) scf(MaxCyc=300)\\ccsd(t) iener\\1,4\C,0,-0
 .894286,-0.311149,-1.262737\C,0,-0.714668,0.992627,-0.996486\C,0,1.283
 327,-0.248113,1.838045\C,0,0.029166,-0.05482,1.421428\C,0,-0.038083,0.
 267218,-0.039247\C,0,-0.9677,-1.645261,-1.377931\C,0,1.315367,-0.04751
 1,0.517961\\Version=EM64L-G09RevE.01\State=4-A\HF=-264.3011471\MP2=-26
 5.2018646\MP3=-265.2163667\MP4D=-265.2436662\MP4DQ=-265.2095449\PUHF=-
 264.3144227\PMP2-0=-265.2127399\PMP3-0=-265.2240742\MP4SDQ=-265.226078
 7\CCSD=-265.2342337\CCSD(T)=-265.2998945\S2=3.968906\S2-1=3.885702\S2A
 =3.766164\RMSD=2.360e-09\PG=C01 [X(C7)]\\@


 UNLESS WE CHANGE DIRECTIONS, WE WILL WIND UP WHERE WE ARE HEADED.
     -- CONFUCIUS
 Job cpu time:      11 days  5 hours 45 minutes 11.4 seconds.
 File lengths (MBytes):  RWF=  13960 Int=      0 D2E=      0 Chk=      7 Scr=      1
 Normal termination of Gaussian 09 at Fri Nov  4 13:45:53 2016.
