 Entering Gaussian System, Link 0=g09
 Initial command:
 /usr/local/gaussian/gaussian09/g09/l1.exe "/scratch/sergio/H2C3.q0.m1-3.com-2310439/Gau-20524.inp" -scrdir="/scratch/sergio/H2C3.q0.m1-3.com-2310439/"
 Default is to use a total of   4 processors:
                                4 via shared-memory
                                1 via Linda
 Entering Link 1 = /usr/local/gaussian/gaussian09/g09/l1.exe PID=     20531.
  
 Copyright (c) 1988,1990,1992,1993,1995,1998,2003,2009,2015,
            Gaussian, Inc.  All Rights Reserved.
  
 This is part of the Gaussian(R) 09 program.  It is based on
 the Gaussian(R) 03 system (copyright 2003, Gaussian, Inc.),
 the Gaussian(R) 98 system (copyright 1998, Gaussian, Inc.),
 the Gaussian(R) 94 system (copyright 1995, Gaussian, Inc.),
 the Gaussian 92(TM) system (copyright 1992, Gaussian, Inc.),
 the Gaussian 90(TM) system (copyright 1990, Gaussian, Inc.),
 the Gaussian 88(TM) system (copyright 1988, Gaussian, Inc.),
 the Gaussian 86(TM) system (copyright 1986, Carnegie Mellon
 University), and the Gaussian 82(TM) system (copyright 1983,
 Carnegie Mellon University). Gaussian is a federally registered
 trademark of Gaussian, Inc.
  
 This software contains proprietary and confidential information,
 including trade secrets, belonging to Gaussian, Inc.
  
 This software is provided under written license and may be
 used, copied, transmitted, or stored only in accord with that
 written license.
  
 The following legend is applicable only to US Government
 contracts under FAR:
  
                    RESTRICTED RIGHTS LEGEND
  
 Use, reproduction and disclosure by the US Government is
 subject to restrictions as set forth in subparagraphs (a)
 and (c) of the Commercial Computer Software - Restricted
 Rights clause in FAR 52.227-19.
  
 Gaussian, Inc.
 340 Quinnipiac St., Bldg. 40, Wallingford CT 06492
  
  
 ---------------------------------------------------------------
 Warning -- This program may not be used in any manner that
 competes with the business of Gaussian, Inc. or will provide
 assistance to any competitor of Gaussian, Inc.  The licensee
 of this program is prohibited from giving any competitor of
 Gaussian, Inc. access to this program.  By using this program,
 the user acknowledges that Gaussian, Inc. is engaged in the
 business of creating and licensing software in the field of
 computational chemistry and represents and warrants to the
 licensee that it is not a competitor of Gaussian, Inc. and that
 it will not use this program in any manner prohibited above.
 ---------------------------------------------------------------
  

 Cite this work as:
 Gaussian 09, Revision E.01,
 M. J. Frisch, G. W. Trucks, H. B. Schlegel, G. E. Scuseria, 
 M. A. Robb, J. R. Cheeseman, G. Scalmani, V. Barone, B. Mennucci, 
 G. A. Petersson, H. Nakatsuji, M. Caricato, X. Li, H. P. Hratchian, 
 A. F. Izmaylov, J. Bloino, G. Zheng, J. L. Sonnenberg, M. Hada, 
 M. Ehara, K. Toyota, R. Fukuda, J. Hasegawa, M. Ishida, T. Nakajima, 
 Y. Honda, O. Kitao, H. Nakai, T. Vreven, J. A. Montgomery, Jr., 
 J. E. Peralta, F. Ogliaro, M. Bearpark, J. J. Heyd, E. Brothers, 
 K. N. Kudin, V. N. Staroverov, T. Keith, R. Kobayashi, J. Normand, 
 K. Raghavachari, A. Rendell, J. C. Burant, S. S. Iyengar, J. Tomasi, 
 M. Cossi, N. Rega, J. M. Millam, M. Klene, J. E. Knox, J. B. Cross, 
 V. Bakken, C. Adamo, J. Jaramillo, R. Gomperts, R. E. Stratmann, 
 O. Yazyev, A. J. Austin, R. Cammi, C. Pomelli, J. W. Ochterski, 
 R. L. Martin, K. Morokuma, V. G. Zakrzewski, G. A. Voth, 
 P. Salvador, J. J. Dannenberg, S. Dapprich, A. D. Daniels, 
 O. Farkas, J. B. Foresman, J. V. Ortiz, J. Cioslowski, 
 and D. J. Fox, Gaussian, Inc., Wallingford CT, 2013.
 
 ******************************************
 Gaussian 09:  EM64L-G09RevE.01 30-Nov-2015
                22-Nov-2016 
 ******************************************
 Default route:  MaxDisk=40000MB
 ---------------------------------------------------------
 #p ccsd(t)/6-311++G(3df,2p) scf(MaxCyc=300) guess(Huckel)
 ---------------------------------------------------------
 1/38=1/1;
 2/12=2,17=6,18=5,40=1/2;
 3/5=4,6=6,7=1216,11=9,16=1,25=1,30=1/1,2,3;
 4/11=4/1;
 5/5=2,7=300,38=5/2;
 8/6=4,9=120000,10=2/1,4;
 9/5=7,14=2/13;
 6/7=2,8=2,9=2,10=2/1;
 99/5=1,9=1/99;
 Leave Link    1 at Tue Nov 22 18:23:56 2016, MaxMem=           0 cpu:         2.8
 (Enter /usr/local/gaussian/gaussian09/g09/l101.exe)
 -------------
 ccsd(t) iener
 -------------
 Symbolic Z-matrix:
 Charge =  0 Multiplicity = 1
 6                     0.        0.        0. 
 6                     0.        1.28386   0. 
 6                     0.       -1.28386   0. 
 1                     0.83547   1.96854   0. 
 1                    -0.83547  -1.96854   0. 
 
 NAtoms=      5 NQM=        5 NQMF=       0 NMMI=      0 NMMIF=      0
                NMic=       0 NMicF=      0.
                    Isotopes and Nuclear Properties:
 (Nuclear quadrupole moments (NQMom) in fm**2, nuclear magnetic moments (NMagM)
  in nuclear magnetons)

  Atom         1           2           3           4           5
 IAtWgt=          12          12          12           1           1
 AtmWgt=  12.0000000  12.0000000  12.0000000   1.0078250   1.0078250
 NucSpn=           0           0           0           1           1
 AtZEff=   0.0000000   0.0000000   0.0000000   0.0000000   0.0000000
 NQMom=    0.0000000   0.0000000   0.0000000   0.0000000   0.0000000
 NMagM=    0.0000000   0.0000000   0.0000000   2.7928460   2.7928460
 AtZNuc=   6.0000000   6.0000000   6.0000000   1.0000000   1.0000000
 Leave Link  101 at Tue Nov 22 18:23:57 2016, MaxMem=  1835008000 cpu:         0.5
 (Enter /usr/local/gaussian/gaussian09/g09/l202.exe)
                          Input orientation:                          
 ---------------------------------------------------------------------
 Center     Atomic      Atomic             Coordinates (Angstroms)
 Number     Number       Type             X           Y           Z
 ---------------------------------------------------------------------
      1          6           0        0.000000    0.000000    0.000000
      2          6           0        0.000000    1.283862    0.000000
      3          6           0        0.000000   -1.283862    0.000000
      4          1           0        0.835465    1.968544    0.000000
      5          1           0       -0.835465   -1.968544    0.000000
 ---------------------------------------------------------------------
                    Distance matrix (angstroms):
                    1          2          3          4          5
     1  C    0.000000
     2  C    1.283862   0.000000
     3  C    1.283862   2.567724   0.000000
     4  H    2.138496   1.080181   3.357997   0.000000
     5  H    2.138496   3.357997   1.080181   4.276993   0.000000
 Stoichiometry    C3H2
 Framework group  C2H[O(C),SGH(C2H2)]
 Deg. of freedom     3
 Full point group                 C2H     NOp   4
 Largest Abelian subgroup         C2H     NOp   4
 Largest concise Abelian subgroup C2      NOp   2
                         Standard orientation:                         
 ---------------------------------------------------------------------
 Center     Atomic      Atomic             Coordinates (Angstroms)
 Number     Number       Type             X           Y           Z
 ---------------------------------------------------------------------
      1          6           0        0.000000    0.000000    0.000000
      2          6           0        0.000000    1.283862    0.000000
      3          6           0       -0.000000   -1.283862    0.000000
      4          1           0        0.835465    1.968544    0.000000
      5          1           0       -0.835465   -1.968544    0.000000
 ---------------------------------------------------------------------
 Rotational constants (GHZ):    432.2930534     10.6154044     10.3609798
 Leave Link  202 at Tue Nov 22 18:23:57 2016, MaxMem=  1835008000 cpu:         0.1
 (Enter /usr/local/gaussian/gaussian09/g09/l301.exe)
 Standard basis: 6-311++G(3df,2p) (5D, 7F)
 Ernie: Thresh=  0.10000D-02 Tol=  0.10000D-05 Strict=F.
 There are    56 symmetry adapted cartesian basis functions of AG  symmetry.
 There are    22 symmetry adapted cartesian basis functions of BG  symmetry.
 There are    24 symmetry adapted cartesian basis functions of AU  symmetry.
 There are    53 symmetry adapted cartesian basis functions of BU  symmetry.
 There are    48 symmetry adapted basis functions of AG  symmetry.
 There are    21 symmetry adapted basis functions of BG  symmetry.
 There are    22 symmetry adapted basis functions of AU  symmetry.
 There are    46 symmetry adapted basis functions of BU  symmetry.
   137 basis functions,   198 primitive gaussians,   155 cartesian basis functions
    10 alpha electrons       10 beta electrons
       nuclear repulsion energy        47.9588155655 Hartrees.
 IExCor=    0 DFT=F Ex=HF Corr=None ExCW=0 ScaHFX=  1.000000
 ScaDFX=  1.000000  1.000000  1.000000  1.000000 ScalE2=  1.000000  1.000000
 IRadAn=      0 IRanWt=     -1 IRanGd=            0 ICorTp=0 IEmpDi=  4
 NAtoms=    5 NActive=    5 NUniq=    3 SFac= 2.78D+00 NAtFMM=   60 NAOKFM=F Big=F
 Integral buffers will be    131072 words long.
 Raffenetti 1 integral format.
 Two-electron integral symmetry is turned on.
 Leave Link  301 at Tue Nov 22 18:23:57 2016, MaxMem=  1835008000 cpu:         0.5
 (Enter /usr/local/gaussian/gaussian09/g09/l302.exe)
 NPDir=0 NMtPBC=     1 NCelOv=     1 NCel=       1 NClECP=     1 NCelD=      1
         NCelK=      1 NCelE2=     1 NClLst=     1 CellRange=     0.0.
 One-electron integrals computed using PRISM.
 One-electron integral symmetry used in STVInt
 NBasis=   137 RedAO= T EigKep=  2.98D-06  NBF=    48    21    22    46
 NBsUse=   137 1.00D-06 EigRej= -1.00D+00 NBFU=    48    21    22    46
 Leave Link  302 at Tue Nov 22 18:23:57 2016, MaxMem=  1835008000 cpu:         1.1
 (Enter /usr/local/gaussian/gaussian09/g09/l303.exe)
 DipDrv:  MaxL=1.
 Leave Link  303 at Tue Nov 22 18:23:57 2016, MaxMem=  1835008000 cpu:         0.2
 (Enter /usr/local/gaussian/gaussian09/g09/l401.exe)
 Projected New-EHT guess.
 Enter ItEHT:  IZDO=4 IZDPar=0 Conv= 1.00D-06 N=   14
 It=   1                  EEH= -45.1218720896     EQH= 0.000000000000E+00 EH= -45.1218720896    
 JPrj=0 DoOrth=T DoCkMO=T.
 Initial guess orbital symmetries:
       Occupied  (AG) (AG) (BU) (AG) (BU) (AG) (BU) (AU) (BU) (AG)
       Virtual   (BG) (BU) (AU) (BU) (AG) (AG) (BU) (AG) (AG) (AG)
                 (AG) (AG) (AG) (AG) (AG) (AG) (AG) (AG) (AG) (AG)
                 (AG) (AG) (AG) (AG) (AG) (AG) (AG) (AG) (AG) (AG)
                 (AG) (AG) (AG) (AG) (AG) (AG) (AG) (AG) (AG) (AG)
                 (AG) (AG) (AG) (AG) (AG) (AG) (AG) (AG) (BG) (BG)
                 (BG) (BG) (BG) (BG) (BG) (BG) (BG) (BG) (BG) (BG)
                 (BG) (BG) (BG) (BG) (BG) (BG) (BG) (BG) (AU) (AU)
                 (AU) (AU) (AU) (AU) (AU) (AU) (AU) (AU) (AU) (AU)
                 (AU) (AU) (AU) (AU) (AU) (AU) (AU) (AU) (BU) (BU)
                 (BU) (BU) (BU) (BU) (BU) (BU) (BU) (BU) (BU) (BU)
                 (BU) (BU) (BU) (BU) (BU) (BU) (BU) (BU) (BU) (BU)
                 (BU) (BU) (BU) (BU) (BU) (BU) (BU) (BU) (BU) (BU)
                 (BU) (BU) (BU) (BU) (BU) (BU) (BU)
 The electronic state of the initial guess is 1-AG.
 Leave Link  401 at Tue Nov 22 18:23:58 2016, MaxMem=  1835008000 cpu:         0.7
 (Enter /usr/local/gaussian/gaussian09/g09/l502.exe)
 Closed shell SCF:
 Using DIIS extrapolation, IDIIS=  1040.
 Integral symmetry usage will be decided dynamically.
 Keep R1 ints in memory in symmetry-blocked form, NReq=56284173.
 IVT=      167413 IEndB=      167413 NGot=  1835008000 MDV=  1823408296
 LenX=  1823408296 LenY=  1823383830
 Requested convergence on RMS density matrix=1.00D-08 within 300 cycles.
 Requested convergence on MAX density matrix=1.00D-06.
 Requested convergence on             energy=1.00D-06.
 No special actions if energy rises.
 FoFCou: FMM=F IPFlag=           0 FMFlag=           0 FMFlg1=           0
         NFxFlg=           0 DoJE=F BraDBF=F KetDBF=F FulRan=T
         wScrn=  0.000000 ICntrl=     600 IOpCl=  0 I1Cent=           0 NGrid=           0
         NMat0=    1 NMatS0=   9453 NMatT0=    0 NMatD0=    1 NMtDS0=    0 NMtDT0=    0
 Petite list used in FoFCou.

 Cycle   1  Pass 1  IDiag  1:
 E= -113.906156436059    
 DIIS: error= 1.67D-01 at cycle   1 NSaved=   1.
 NSaved= 1 IEnMin= 1 EnMin= -113.906156436059     IErMin= 1 ErrMin= 1.67D-01
 ErrMax= 1.67D-01  0.00D+00 EMaxC= 1.00D-01 BMatC= 2.40D+00 BMatP= 2.40D+00
 IDIUse=3 WtCom= 0.00D+00 WtEn= 1.00D+00
 Coeff-Com:  0.100D+01
 Coeff-En:   0.100D+01
 Coeff:      0.100D+01
 Gap=     0.405 Goal=   None    Shift=    0.000
 GapD=    0.405 DampG=2.000 DampE=0.250 DampFc=0.5000 IDamp=-1.
 Damping current iteration by 5.00D-01
 RMSDP=1.85D-02 MaxDP=6.37D-01              OVMax= 2.04D-01

 Cycle   2  Pass 1  IDiag  1:
 E= -114.231461396060     Delta-E=       -0.325304960001 Rises=F Damp=T
 DIIS: error= 8.91D-02 at cycle   2 NSaved=   2.
 NSaved= 2 IEnMin= 2 EnMin= -114.231461396060     IErMin= 2 ErrMin= 8.91D-02
 ErrMax= 8.91D-02  0.00D+00 EMaxC= 1.00D-01 BMatC= 6.67D-01 BMatP= 2.40D+00
 IDIUse=3 WtCom= 1.09D-01 WtEn= 8.91D-01
 Coeff-Com: -0.109D+01 0.209D+01
 Coeff-En:   0.000D+00 0.100D+01
 Coeff:     -0.119D+00 0.112D+01
 Gap=     0.339 Goal=   None    Shift=    0.000
 RMSDP=1.58D-02 MaxDP=7.28D-01 DE=-3.25D-01 OVMax= 4.93D-02

 Cycle   3  Pass 1  IDiag  1:
 E= -114.598418493443     Delta-E=       -0.366957097384 Rises=F Damp=F
 DIIS: error= 7.93D-03 at cycle   3 NSaved=   3.
 NSaved= 3 IEnMin= 3 EnMin= -114.598418493443     IErMin= 3 ErrMin= 7.93D-03
 ErrMax= 7.93D-03  0.00D+00 EMaxC= 1.00D-01 BMatC= 4.77D-03 BMatP= 6.67D-01
 IDIUse=3 WtCom= 9.21D-01 WtEn= 7.93D-02
 Coeff-Com:  0.296D+00-0.629D+00 0.133D+01
 Coeff-En:   0.000D+00 0.000D+00 0.100D+01
 Coeff:      0.273D+00-0.579D+00 0.131D+01
 Gap=     0.354 Goal=   None    Shift=    0.000
 RMSDP=1.40D-02 MaxDP=7.33D-01 DE=-3.67D-01 OVMax= 3.84D-02

 Cycle   4  Pass 1  IDiag  1:
 E= -114.606590466493     Delta-E=       -0.008171973050 Rises=F Damp=F
 DIIS: error= 4.06D-03 at cycle   4 NSaved=   4.
 NSaved= 4 IEnMin= 4 EnMin= -114.606590466493     IErMin= 4 ErrMin= 4.06D-03
 ErrMax= 4.06D-03  0.00D+00 EMaxC= 1.00D-01 BMatC= 3.06D-04 BMatP= 4.77D-03
 IDIUse=3 WtCom= 9.59D-01 WtEn= 4.06D-02
 Coeff-Com:  0.612D-01-0.111D+00-0.146D+00 0.120D+01
 Coeff-En:   0.000D+00 0.000D+00 0.000D+00 0.100D+01
 Coeff:      0.587D-01-0.107D+00-0.141D+00 0.119D+01
 Gap=     0.356 Goal=   None    Shift=    0.000
 RMSDP=2.89D-03 MaxDP=1.47D-01 DE=-8.17D-03 OVMax= 2.01D-02

 Cycle   5  Pass 1  IDiag  1:
 E= -114.607580043006     Delta-E=       -0.000989576513 Rises=F Damp=F
 DIIS: error= 1.02D-03 at cycle   5 NSaved=   5.
 NSaved= 5 IEnMin= 5 EnMin= -114.607580043006     IErMin= 5 ErrMin= 1.02D-03
 ErrMax= 1.02D-03  0.00D+00 EMaxC= 1.00D-01 BMatC= 3.25D-05 BMatP= 3.06D-04
 IDIUse=3 WtCom= 9.90D-01 WtEn= 1.02D-02
 Coeff-Com: -0.469D-01 0.956D-01-0.128D+00-0.101D+00 0.118D+01
 Coeff-En:   0.000D+00 0.000D+00 0.000D+00 0.000D+00 0.100D+01
 Coeff:     -0.465D-01 0.947D-01-0.126D+00-0.100D+00 0.118D+01
 Gap=     0.357 Goal=   None    Shift=    0.000
 RMSDP=4.89D-04 MaxDP=2.49D-02 DE=-9.90D-04 OVMax= 6.50D-03

 Cycle   6  Pass 1  IDiag  1:
 E= -114.607689051893     Delta-E=       -0.000109008886 Rises=F Damp=F
 DIIS: error= 3.19D-04 at cycle   6 NSaved=   6.
 NSaved= 6 IEnMin= 6 EnMin= -114.607689051893     IErMin= 6 ErrMin= 3.19D-04
 ErrMax= 3.19D-04  0.00D+00 EMaxC= 1.00D-01 BMatC= 2.62D-06 BMatP= 3.25D-05
 IDIUse=3 WtCom= 9.97D-01 WtEn= 3.19D-03
 Coeff-Com: -0.278D-02 0.376D-02 0.316D-01-0.984D-01-0.153D+00 0.122D+01
 Coeff-En:   0.000D+00 0.000D+00 0.000D+00 0.000D+00 0.000D+00 0.100D+01
 Coeff:     -0.277D-02 0.374D-02 0.315D-01-0.981D-01-0.152D+00 0.122D+01
 Gap=     0.358 Goal=   None    Shift=    0.000
 RMSDP=1.76D-04 MaxDP=8.35D-03 DE=-1.09D-04 OVMax= 2.28D-03

 Cycle   7  Pass 1  IDiag  1:
 E= -114.607699417046     Delta-E=       -0.000010365153 Rises=F Damp=F
 DIIS: error= 1.19D-04 at cycle   7 NSaved=   7.
 NSaved= 7 IEnMin= 7 EnMin= -114.607699417046     IErMin= 7 ErrMin= 1.19D-04
 ErrMax= 1.19D-04  0.00D+00 EMaxC= 1.00D-01 BMatC= 2.42D-07 BMatP= 2.62D-06
 IDIUse=3 WtCom= 9.99D-01 WtEn= 1.19D-03
 Coeff-Com:  0.333D-02-0.634D-02-0.590D-03 0.350D-01-0.553D-01-0.383D+00
 Coeff-Com:  0.141D+01
 Coeff-En:   0.000D+00 0.000D+00 0.000D+00 0.000D+00 0.000D+00 0.000D+00
 Coeff-En:   0.100D+01
 Coeff:      0.332D-02-0.633D-02-0.589D-03 0.350D-01-0.552D-01-0.383D+00
 Coeff:      0.141D+01
 Gap=     0.358 Goal=   None    Shift=    0.000
 RMSDP=2.56D-05 MaxDP=6.31D-04 DE=-1.04D-05 OVMax= 8.04D-04

 Cycle   8  Pass 1  IDiag  1:
 E= -114.607700526357     Delta-E=       -0.000001109311 Rises=F Damp=F
 DIIS: error= 1.56D-05 at cycle   8 NSaved=   8.
 NSaved= 8 IEnMin= 8 EnMin= -114.607700526357     IErMin= 8 ErrMin= 1.56D-05
 ErrMax= 1.56D-05  0.00D+00 EMaxC= 1.00D-01 BMatC= 8.47D-09 BMatP= 2.42D-07
 IDIUse=1 WtCom= 1.00D+00 WtEn= 0.00D+00
 Coeff-Com: -0.631D-03 0.128D-02-0.157D-02-0.300D-02 0.247D-01 0.736D-02
 Coeff-Com: -0.286D+00 0.126D+01
 Coeff:     -0.631D-03 0.128D-02-0.157D-02-0.300D-02 0.247D-01 0.736D-02
 Coeff:     -0.286D+00 0.126D+01
 Gap=     0.358 Goal=   None    Shift=    0.000
 RMSDP=7.89D-06 MaxDP=3.35D-04 DE=-1.11D-06 OVMax= 1.02D-04

 Cycle   9  Pass 1  IDiag  1:
 E= -114.607700557909     Delta-E=       -0.000000031552 Rises=F Damp=F
 DIIS: error= 3.06D-06 at cycle   9 NSaved=   9.
 NSaved= 9 IEnMin= 9 EnMin= -114.607700557909     IErMin= 9 ErrMin= 3.06D-06
 ErrMax= 3.06D-06  0.00D+00 EMaxC= 1.00D-01 BMatC= 3.26D-10 BMatP= 8.47D-09
 IDIUse=1 WtCom= 1.00D+00 WtEn= 0.00D+00
 Coeff-Com:  0.162D-04-0.446D-04 0.307D-03-0.741D-03-0.192D-02 0.909D-02
 Coeff-Com:  0.122D-01-0.307D+00 0.129D+01
 Coeff:      0.162D-04-0.446D-04 0.307D-03-0.741D-03-0.192D-02 0.909D-02
 Coeff:      0.122D-01-0.307D+00 0.129D+01
 Gap=     0.358 Goal=   None    Shift=    0.000
 RMSDP=2.17D-06 MaxDP=1.01D-04 DE=-3.16D-08 OVMax= 1.90D-05

 Cycle  10  Pass 1  IDiag  1:
 E= -114.607700559053     Delta-E=       -0.000000001144 Rises=F Damp=F
 DIIS: error= 3.78D-07 at cycle  10 NSaved=  10.
 NSaved=10 IEnMin=10 EnMin= -114.607700559053     IErMin=10 ErrMin= 3.78D-07
 ErrMax= 3.78D-07  0.00D+00 EMaxC= 1.00D-01 BMatC= 9.31D-12 BMatP= 3.26D-10
 IDIUse=1 WtCom= 1.00D+00 WtEn= 0.00D+00
 Coeff-Com:  0.104D-04-0.169D-04-0.729D-04 0.354D-03 0.575D-04-0.383D-02
 Coeff-Com:  0.501D-02 0.720D-01-0.453D+00 0.138D+01
 Coeff:      0.104D-04-0.169D-04-0.729D-04 0.354D-03 0.575D-04-0.383D-02
 Coeff:      0.501D-02 0.720D-01-0.453D+00 0.138D+01
 Gap=     0.358 Goal=   None    Shift=    0.000
 RMSDP=8.75D-07 MaxDP=4.51D-05 DE=-1.14D-09 OVMax= 3.73D-06

 Cycle  11  Pass 1  IDiag  1:
 E= -114.607700559086     Delta-E=       -0.000000000033 Rises=F Damp=F
 DIIS: error= 5.65D-08 at cycle  11 NSaved=  11.
 NSaved=11 IEnMin=11 EnMin= -114.607700559086     IErMin=11 ErrMin= 5.65D-08
 ErrMax= 5.65D-08  0.00D+00 EMaxC= 1.00D-01 BMatC= 2.21D-13 BMatP= 9.31D-12
 IDIUse=1 WtCom= 1.00D+00 WtEn= 0.00D+00
 Coeff-Com: -0.131D-05 0.214D-05 0.910D-05-0.501D-04 0.938D-05 0.563D-03
 Coeff-Com: -0.945D-03-0.106D-01 0.760D-01-0.342D+00 0.128D+01
 Coeff:     -0.131D-05 0.214D-05 0.910D-05-0.501D-04 0.938D-05 0.563D-03
 Coeff:     -0.945D-03-0.106D-01 0.760D-01-0.342D+00 0.128D+01
 Gap=     0.358 Goal=   None    Shift=    0.000
 RMSDP=1.95D-07 MaxDP=9.36D-06 DE=-3.32D-11 OVMax= 7.17D-07

 Cycle  12  Pass 1  IDiag  1:
 E= -114.607700559086     Delta-E=        0.000000000000 Rises=F Damp=F
 DIIS: error= 1.03D-08 at cycle  12 NSaved=  12.
 NSaved=12 IEnMin=11 EnMin= -114.607700559086     IErMin=12 ErrMin= 1.03D-08
 ErrMax= 1.03D-08  0.00D+00 EMaxC= 1.00D-01 BMatC= 8.23D-15 BMatP= 2.21D-13
 IDIUse=1 WtCom= 1.00D+00 WtEn= 0.00D+00
 Coeff-Com:  0.842D-06-0.159D-05-0.478D-06 0.117D-04-0.187D-04-0.113D-03
 Coeff-Com:  0.378D-03 0.760D-03-0.106D-01 0.656D-01-0.392D+00 0.134D+01
 Coeff:      0.842D-06-0.159D-05-0.478D-06 0.117D-04-0.187D-04-0.113D-03
 Coeff:      0.378D-03 0.760D-03-0.106D-01 0.656D-01-0.392D+00 0.134D+01
 Gap=     0.358 Goal=   None    Shift=    0.000
 RMSDP=5.13D-08 MaxDP=2.38D-06 DE= 2.27D-13 OVMax= 1.68D-07

 Cycle  13  Pass 1  IDiag  1:
 E= -114.607700559085     Delta-E=        0.000000000001 Rises=F Damp=F
 DIIS: error= 2.59D-09 at cycle  13 NSaved=  13.
 NSaved=13 IEnMin=11 EnMin= -114.607700559086     IErMin=13 ErrMin= 2.59D-09
 ErrMax= 2.59D-09  0.00D+00 EMaxC= 1.00D-01 BMatC= 3.46D-16 BMatP= 8.23D-15
 IDIUse=1 WtCom= 1.00D+00 WtEn= 0.00D+00
 Coeff-Com: -0.911D-07 0.174D-06-0.233D-07-0.108D-05 0.232D-05 0.121D-04
 Coeff-Com: -0.425D-04-0.547D-04 0.105D-02-0.849D-02 0.770D-01-0.432D+00
 Coeff-Com:  0.136D+01
 Coeff:     -0.911D-07 0.174D-06-0.233D-07-0.108D-05 0.232D-05 0.121D-04
 Coeff:     -0.425D-04-0.547D-04 0.105D-02-0.849D-02 0.770D-01-0.432D+00
 Coeff:      0.136D+01
 Gap=     0.358 Goal=   None    Shift=    0.000
 RMSDP=3.89D-09 MaxDP=1.88D-07 DE= 6.54D-13 OVMax= 3.40D-08

 SCF Done:  E(RHF) =  -114.607700559     A.U. after   13 cycles
            NFock= 13  Conv=0.39D-08     -V/T= 2.0009
 KE= 1.145055671925D+02 PE=-3.625239729874D+02 EE= 8.545188967035D+01
 Leave Link  502 at Tue Nov 22 18:24:02 2016, MaxMem=  1835008000 cpu:        17.3
 (Enter /usr/local/gaussian/gaussian09/g09/l801.exe)
 Windowed orbitals will be sorted by symmetry type.
 ExpMin= 3.60D-02 ExpMax= 4.56D+03 ExpMxC= 6.82D+02 IAcc=3 IRadAn=         5 AccDes= 0.00D+00
 HarFok:  IExCor=  205 AccDes= 0.00D+00 IRadAn=         5 IDoV=-2 UseB2=F ITyADJ=14
 ICtDFT= 12500011 ScaDFX=  1.000000  1.000000  1.000000  1.000000
 Largest valence mixing into a core orbital is  1.32D-04
 Largest core mixing into a valence orbital is  4.31D-05
 Range of M.O.s used for correlation:     4   137
 NBasis=   137 NAE=    10 NBE=    10 NFC=     3 NFV=     0
 NROrb=    134 NOA=     7 NOB=     7 NVA=   127 NVB=   127

 **** Warning!!: The largest alpha MO coefficient is  0.25064611D+03

 Leave Link  801 at Tue Nov 22 18:24:03 2016, MaxMem=  1835008000 cpu:         0.7
 (Enter /usr/local/gaussian/gaussian09/g09/l804.exe)
 Closed-shell transformation, MDV=  1835008000 ITran=4 ISComp=2.
 Semi-Direct transformation.
 ModeAB=           4 MOrb=             7 LenV=    1834422259
 LASXX=      2082904 LTotXX=     2082904 LenRXX=     4219921
 LTotAB=     2137017 MaxLAS=     6484394 LenRXY=           0
 NonZer=     6302825 LenScr=    10216960 LnRSAI=     6484394
 LnScr1=    10472448 LExtra=     1049001 Total=     32442724
 MaxDsk=  5242880000 SrtSym=           T ITran=            4
 DoSDTr:  NPSUse=  4
 JobTyp=0 Pass  1:  I=   1 to   7.
 (rs|ai) integrals will be sorted in core.
 Complete sort for first half transformation.
 First half transformation complete.
 Complete sort for second half transformation.
 Second half transformation complete.
 Spin components of T(2) and E(2):
     alpha-alpha T2 =       0.2087800878D-01 E2=     -0.5109843435D-01
     alpha-beta  T2 =       0.1240167092D+00 E2=     -0.3284311971D+00
     beta-beta   T2 =       0.2087800878D-01 E2=     -0.5109843435D-01
 ANorm=    0.1079709557D+01
 E2 =    -0.4306280658D+00 EUMP2 =    -0.11503832862489D+03
 Leave Link  804 at Tue Nov 22 18:24:07 2016, MaxMem=  1835008000 cpu:        17.2
 (Enter /usr/local/gaussian/gaussian09/g09/l913.exe)
 CIDS:  MDV=  1835008000.
 Frozen-core window:  NFC=   3 NFV=   0.
 IFCWin=0 IBDFC=1 NFBD=     0     0 NFCmp=     0     0 NFFFC=     0     0
 Using DD3R+UMP44R for 1st iteration, S=T.
 Using DD4RQ for 2nd and later iterations.
 Keep R2 and R3 ints in memory in symmetry-blocked form, NReq=56118368.
 FoFCou: FMM=F IPFlag=           0 FMFlag=           0 FMFlg1=           0
         NFxFlg=           0 DoJE=F BraDBF=F KetDBF=F FulRan=T
         wScrn=  0.000000 ICntrl=     600 IOpCl=  0 I1Cent=           0 NGrid=           0
         NMat0=    1 NMatS0=   9453 NMatT0=    0 NMatD0=    1 NMtDS0=    0 NMtDT0=    0
 Petite list used in FoFCou.
 CCSD(T)
 =======
 Iterations=  50 Convergence= 0.100D-06
 Iteration Nr.   1
 **********************
 DD1Dir will call FoFMem   1 times, MxPair=        56
 NAB=    28 NAA=     0 NBB=     0.
 MP4(R+Q)=  0.14762359D-01
 Maximum subspace dimension=  5
 Norm of the A-vectors is  5.6402307D-01 conv= 1.00D-05.
 RLE energy=       -0.4334035554
 E3=       -0.17595780D-01        EUMP3=      -0.11505592440D+03
 E4(DQ)=    0.27452579D-02        UMP4(DQ)=   -0.11505317915D+03
 E4(SDQ)=  -0.61152216D-02        UMP4(SDQ)=  -0.11506203963D+03
 VARIATIONAL ENERGIES WITH THE FIRST-ORDER WAVEFUNCTION:
 DE(Corr)= -0.43338579     E(Corr)=     -115.04108635    
 NORM(A)=   0.10849553D+01
 Iteration Nr.   2
 **********************
 DD1Dir will call FoFMem   1 times, MxPair=        56
 NAB=    28 NAA=     0 NBB=     0.
 Norm of the A-vectors is  2.6162509D-01 conv= 1.00D-05.
 RLE energy=       -0.4525958608
 DE(Corr)= -0.45106336     E(CORR)=     -115.05876392     Delta=-1.77D-02
 NORM(A)=   0.10973036D+01
 Iteration Nr.   3
 **********************
 DD1Dir will call FoFMem   1 times, MxPair=        56
 NAB=    28 NAA=     0 NBB=     0.
 Norm of the A-vectors is  7.5268022D-02 conv= 1.00D-05.
 RLE energy=       -0.4542685032
 DE(Corr)= -0.45163925     E(CORR)=     -115.05933981     Delta=-5.76D-04
 NORM(A)=   0.11037663D+01
 Iteration Nr.   4
 **********************
 DD1Dir will call FoFMem   1 times, MxPair=        56
 NAB=    28 NAA=     0 NBB=     0.
 Norm of the A-vectors is  4.0351454D-02 conv= 1.00D-05.
 RLE energy=       -0.4549190782
 DE(Corr)= -0.45447427     E(CORR)=     -115.06217483     Delta=-2.84D-03
 NORM(A)=   0.11069175D+01
 Iteration Nr.   5
 **********************
 DD1Dir will call FoFMem   1 times, MxPair=        56
 NAB=    28 NAA=     0 NBB=     0.
 Norm of the A-vectors is  1.5264980D-02 conv= 1.00D-05.
 RLE energy=       -0.4550783148
 DE(Corr)= -0.45495376     E(CORR)=     -115.06265431     Delta=-4.79D-04
 NORM(A)=   0.11077434D+01
 Iteration Nr.   6
 **********************
 DD1Dir will call FoFMem   1 times, MxPair=        56
 NAB=    28 NAA=     0 NBB=     0.
 Norm of the A-vectors is  6.9889091D-03 conv= 1.00D-05.
 RLE energy=       -0.4549887055
 DE(Corr)= -0.45503162     E(CORR)=     -115.06273218     Delta=-7.79D-05
 NORM(A)=   0.11078375D+01
 Iteration Nr.   7
 **********************
 DD1Dir will call FoFMem   1 times, MxPair=        56
 NAB=    28 NAA=     0 NBB=     0.
 Norm of the A-vectors is  3.0643994D-03 conv= 1.00D-05.
 RLE energy=       -0.4550471247
 DE(Corr)= -0.45504496     E(CORR)=     -115.06274552     Delta=-1.33D-05
 NORM(A)=   0.11078831D+01
 Iteration Nr.   8
 **********************
 DD1Dir will call FoFMem   1 times, MxPair=        56
 NAB=    28 NAA=     0 NBB=     0.
 Norm of the A-vectors is  1.7113316D-03 conv= 1.00D-05.
 RLE energy=       -0.4550295637
 DE(Corr)= -0.45503517     E(CORR)=     -115.06273573     Delta= 9.79D-06
 NORM(A)=   0.11078788D+01
 Iteration Nr.   9
 **********************
 DD1Dir will call FoFMem   1 times, MxPair=        56
 NAB=    28 NAA=     0 NBB=     0.
 Norm of the A-vectors is  8.0201808D-04 conv= 1.00D-05.
 RLE energy=       -0.4550515702
 DE(Corr)= -0.45505018     E(CORR)=     -115.06275074     Delta=-1.50D-05
 NORM(A)=   0.11078867D+01
 Iteration Nr.  10
 **********************
 DD1Dir will call FoFMem   1 times, MxPair=        56
 NAB=    28 NAA=     0 NBB=     0.
 Norm of the A-vectors is  3.5030207D-04 conv= 1.00D-05.
 RLE energy=       -0.4550477612
 DE(Corr)= -0.45504638     E(CORR)=     -115.06274693     Delta= 3.80D-06
 NORM(A)=   0.11078892D+01
 Iteration Nr.  11
 **********************
 DD1Dir will call FoFMem   1 times, MxPair=        56
 NAB=    28 NAA=     0 NBB=     0.
 Norm of the A-vectors is  1.5871726D-04 conv= 1.00D-05.
 RLE energy=       -0.4550504847
 DE(Corr)= -0.45505005     E(CORR)=     -115.06275061     Delta=-3.67D-06
 NORM(A)=   0.11078942D+01
 Iteration Nr.  12
 **********************
 DD1Dir will call FoFMem   1 times, MxPair=        56
 NAB=    28 NAA=     0 NBB=     0.
 Norm of the A-vectors is  6.9362773D-05 conv= 1.00D-05.
 RLE energy=       -0.4550509872
 DE(Corr)= -0.45505045     E(CORR)=     -115.06275100     Delta=-3.96D-07
 NORM(A)=   0.11078976D+01
 Iteration Nr.  13
 **********************
 DD1Dir will call FoFMem   1 times, MxPair=        56
 NAB=    28 NAA=     0 NBB=     0.
 Norm of the A-vectors is  3.9091677D-05 conv= 1.00D-05.
 RLE energy=       -0.4550512170
 DE(Corr)= -0.45505111     E(CORR)=     -115.06275167     Delta=-6.67D-07
 NORM(A)=   0.11078996D+01
 Iteration Nr.  14
 **********************
 DD1Dir will call FoFMem   1 times, MxPair=        56
 NAB=    28 NAA=     0 NBB=     0.
 Norm of the A-vectors is  1.9497482D-05 conv= 1.00D-05.
 RLE energy=       -0.4550516742
 DE(Corr)= -0.45505147     E(CORR)=     -115.06275203     Delta=-3.57D-07
 NORM(A)=   0.11079008D+01
 Iteration Nr.  15
 **********************
 DD1Dir will call FoFMem   1 times, MxPair=        56
 NAB=    28 NAA=     0 NBB=     0.
 Norm of the A-vectors is  1.1215273D-05 conv= 1.00D-05.
 RLE energy=       -0.4550515920
 DE(Corr)= -0.45505157     E(CORR)=     -115.06275213     Delta=-1.05D-07
 NORM(A)=   0.11079012D+01
 Iteration Nr.  16
 **********************
 DD1Dir will call FoFMem   1 times, MxPair=        56
 NAB=    28 NAA=     0 NBB=     0.
 Norm of the A-vectors is  5.9845106D-06 conv= 1.00D-05.
 RLE energy=       -0.4550517340
 DE(Corr)= -0.45505171     E(CORR)=     -115.06275227     Delta=-1.32D-07
 NORM(A)=   0.11079013D+01
 Iteration Nr.  17
 **********************
 DD1Dir will call FoFMem   1 times, MxPair=        56
 NAB=    28 NAA=     0 NBB=     0.
 Norm of the A-vectors is  3.7443331D-06 conv= 1.00D-05.
 RLE energy=       -0.4550516886
 DE(Corr)= -0.45505169     E(CORR)=     -115.06275225     Delta= 2.09D-08
 NORM(A)=   0.11079013D+01
 CI/CC converged in   17 iterations to DelEn= 2.09D-08 Conv= 1.00D-07 ErrA1= 3.74D-06 Conv= 1.00D-05
 Largest amplitude= 8.34D-02
 IPart=  1 IA=    8   10.76% done.
 IPart=  3 IA=   15   20.91% done.
 IPart=  2 IA=   22   30.45% done.
 IPart=  2 IA=   30   40.59% done.
 IPart=  3 IA=   39   51.06% done.
 IPart=  1 IA=   48   60.50% done.
 IPart=  2 IA=   59   70.68% done.
 IPart=  3 IA=   71   80.05% done.
 IPart=  4 IA=   88   90.25% done.
 Time for triples=       98.89 seconds.
 T4(CCSD)= -0.29415937D-01
 T5(CCSD)=  0.18407623D-02
 CCSD(T)= -0.11509032742D+03
 Discarding MO integrals.
 Leave Link  913 at Tue Nov 22 18:25:35 2016, MaxMem=  1835008000 cpu:       346.0
 (Enter /usr/local/gaussian/gaussian09/g09/l601.exe)
 Copying SCF densities to generalized density rwf, IOpCl= 0 IROHF=0.

 **********************************************************************

            Population analysis using the SCF density.

 **********************************************************************

 Orbital symmetries:
       Occupied  (AG) (BU) (AG) (AG) (BU) (AG) (BU) (BU) (AU) (AG)
       Virtual   (BG) (AG) (BU) (BU) (AU) (AG) (BU) (AG) (BG) (BU)
                 (AG) (BU) (AU) (BU) (AG) (AG) (AU) (BU) (BU) (BG)
                 (AG) (AG) (AU) (AG) (BU) (AG) (BU) (BG) (BU) (AG)
                 (AU) (AG) (BG) (BU) (AG) (BG) (BU) (AU) (AG) (BU)
                 (BU) (AU) (AG) (BU) (BG) (AG) (AU) (BU) (BG) (AG)
                 (AG) (BU) (AG) (BU) (AG) (BU) (BG) (AG) (BG) (AU)
                 (BU) (AG) (AU) (BG) (AG) (BU) (AG) (BU) (BG) (AG)
                 (BU) (AU) (BU) (AU) (BU) (AU) (AG) (BU) (BG) (AG)
                 (BG) (BU) (AU) (AG) (AG) (AU) (BG) (BU) (BU) (AU)
                 (AG) (BU) (AG) (BU) (AU) (AG) (BU) (AG) (BG) (BU)
                 (BG) (BU) (AU) (AG) (BU) (AU) (AG) (BU) (BU) (BG)
                 (AG) (AU) (BU) (BG) (AG) (AG) (AU) (BG) (AG) (BG)
                 (BU) (AG) (BU) (AG) (AG) (BU) (AG)
 The electronic state is 1-AG.
 Alpha  occ. eigenvalues --  -11.28271 -11.28243 -11.27359  -1.09441  -0.95417
 Alpha  occ. eigenvalues --   -0.71697  -0.66943  -0.48284  -0.45170  -0.34906
 Alpha virt. eigenvalues --    0.00911   0.04491   0.05263   0.09425   0.10232
 Alpha virt. eigenvalues --    0.11469   0.13804   0.14088   0.16180   0.16594
 Alpha virt. eigenvalues --    0.17446   0.18922   0.18934   0.21343   0.25045
 Alpha virt. eigenvalues --    0.26593   0.29473   0.30665   0.32625   0.38612
 Alpha virt. eigenvalues --    0.43399   0.46162   0.50234   0.50405   0.55412
 Alpha virt. eigenvalues --    0.55465   0.56486   0.57698   0.59210   0.64530
 Alpha virt. eigenvalues --    0.66407   0.67764   0.68761   0.70074   0.70298
 Alpha virt. eigenvalues --    0.70974   0.75711   0.76112   0.88689   0.92255
 Alpha virt. eigenvalues --    0.97516   1.00443   1.01501   1.07388   1.08240
 Alpha virt. eigenvalues --    1.13544   1.17123   1.21890   1.23735   1.25979
 Alpha virt. eigenvalues --    1.43043   1.43748   1.50216   1.50379   1.55017
 Alpha virt. eigenvalues --    1.59713   1.68925   1.71941   1.80248   1.83691
 Alpha virt. eigenvalues --    1.92887   1.98764   2.03598   2.08260   2.20300
 Alpha virt. eigenvalues --    2.32417   2.37567   2.51190   2.66471   2.77227
 Alpha virt. eigenvalues --    2.80785   2.86943   2.92836   2.96298   3.01159
 Alpha virt. eigenvalues --    3.04813   3.06290   3.12402   3.15825   3.18687
 Alpha virt. eigenvalues --    3.21090   3.21980   3.29103   3.30103   3.40785
 Alpha virt. eigenvalues --    3.42324   3.44867   3.48775   3.49901   3.58174
 Alpha virt. eigenvalues --    3.59474   3.82530   3.99353   4.14838   4.15034
 Alpha virt. eigenvalues --    4.31174   4.43316   4.45147   4.51229   4.58129
 Alpha virt. eigenvalues --    4.65827   4.72718   4.78042   5.09310   5.57189
 Alpha virt. eigenvalues --    5.95813   5.95981   6.26760   6.51337   7.37530
 Alpha virt. eigenvalues --    7.41137   7.46892   7.51476   7.53117   7.55641
 Alpha virt. eigenvalues --    7.58996   7.66840   7.76171   7.89176   8.05530
 Alpha virt. eigenvalues --    8.15929   8.28325   8.36447   9.05280  24.96889
 Alpha virt. eigenvalues --   27.29369  27.30691
          Condensed to atoms (all electrons):
               1          2          3          4          5
     1  C    7.593952  -1.043172  -1.043172  -0.005035  -0.005035
     2  C   -1.043172  10.210937  -3.050230   0.343272   0.009070
     3  C   -1.043172  -3.050230  10.210937   0.009070   0.343272
     4  H   -0.005035   0.343272   0.009070   0.432088   0.001958
     5  H   -0.005035   0.009070   0.343272   0.001958   0.432088
 Mulliken charges:
               1
     1  C    0.502461
     2  C   -0.469877
     3  C   -0.469877
     4  H    0.218646
     5  H    0.218646
 Sum of Mulliken charges =   0.00000
 Mulliken charges with hydrogens summed into heavy atoms:
               1
     1  C    0.502461
     2  C   -0.251231
     3  C   -0.251231
 Electronic spatial extent (au):  <R**2>=            143.6224
 Charge=              0.0000 electrons
 Dipole moment (field-independent basis, Debye):
    X=             -0.0000    Y=             -0.0000    Z=              0.0000  Tot=              0.0000
 Quadrupole moment (field-independent basis, Debye-Ang):
   XX=            -19.3160   YY=            -16.6830   ZZ=            -18.2408
   XY=              6.0987   XZ=              0.0000   YZ=              0.0000
 Traceless Quadrupole moment (field-independent basis, Debye-Ang):
   XX=             -1.2361   YY=              1.3970   ZZ=             -0.1609
   XY=              6.0987   XZ=              0.0000   YZ=              0.0000
 Octapole moment (field-independent basis, Debye-Ang**2):
  XXX=              0.0000  YYY=              0.0000  ZZZ=              0.0000  XYY=              0.0000
  XXY=              0.0000  XXZ=              0.0000  XZZ=              0.0000  YZZ=              0.0000
  YYZ=              0.0000  XYZ=              0.0000
 Hexadecapole moment (field-independent basis, Debye-Ang**3):
 XXXX=            -30.4140 YYYY=           -161.8184 ZZZZ=            -21.3367 XXXY=              1.4982
 XXXZ=              0.0000 YYYX=             21.1414 YYYZ=              0.0000 ZZZX=              0.0000
 ZZZY=              0.0000 XXYY=            -31.5624 XXZZ=             -8.8944 YYZZ=            -30.3637
 XXYZ=              0.0000 YYXZ=              0.0000 ZZXY=             -0.3983
 N-N= 4.795881556548D+01 E-N=-3.625239729631D+02  KE= 1.145055671925D+02
 Symmetry AG   KE= 7.240732780201D+01
 Symmetry BG   KE=-4.879734168845D-20
 Symmetry AU   KE= 2.017757411665D+00
 Symmetry BU   KE= 4.008048197881D+01
 Leave Link  601 at Tue Nov 22 18:25:36 2016, MaxMem=  1835008000 cpu:         0.3
 (Enter /usr/local/gaussian/gaussian09/g09/l9999.exe)
 1\1\GINC-EINSTENIO\SP\RCCSD(T)-FC\6-311++G(3df,2p)\C3H2\SERGIO\22-Nov-
 2016\0\\#p ccsd(t)/6-311++G(3df,2p) scf(MaxCyc=300) guess(Huckel)\\ccs
 d(t) iener\\0,1\C,0,0.,0.,0.\C,0,0.,1.283862,0.\C,0,0.,-1.283862,0.\H,
 0,0.835465,1.968544,0.\H,0,-0.835465,-1.968544,0.\\Version=EM64L-G09Re
 vE.01\State=1-AG\HF=-114.6077006\MP2=-115.0383286\MP3=-115.0559244\MP4
 D=-115.0679415\MP4DQ=-115.0531791\MP4SDQ=-115.0620396\CCSD=-115.062752
 2\CCSD(T)=-115.0903274\RMSD=3.887e-09\PG=C02H [O(C1),SGH(C2H2)]\\@


 EVERYBODY NEEDS BEAUTY AS WELL AS BREAD, PLACES TO PLAY IN AND PRAY IN,
 WHERE NATURE MAY HEAL AND CHEER AND GIVE STRENGTH TO BODY AND SOUL ALIKE.

                                    -- JOHN MUIR
 Job cpu time:       0 days  0 hours  6 minutes 28.1 seconds.
 File lengths (MBytes):  RWF=    253 Int=      0 D2E=      0 Chk=      2 Scr=      1
 Normal termination of Gaussian 09 at Tue Nov 22 18:25:36 2016.
