5
Energy = -115.0172942500
    C    1.250460   -0.040323    0.000000
    C    0.000000    0.467595    0.000000
    C   -1.029962   -0.434960    0.000000
    H   -1.169593   -1.501827    0.000000
    H   -0.153395    1.547957    0.000000

FREQUENCIES 0

SYMMETRY CS
ELECTRONIC_STATE 3-A"
