5
Energy = -115.0598596100
    C   -0.826545    1.227956    0.000000
    C    0.000000    0.243102    0.000000
    C    0.560203   -0.977989    0.000000
    H   -0.040211   -1.878151    0.000000
    H    1.638265   -1.080258    0.000000

FREQUENCIES 0

SYMMETRY CS
ELECTRONIC_STATE 3-A"
