1
Energy = -37.7791720550
  C            0.00000000          0.00000000          0.00000000

FREQUENCIES   0

SYMMETRY SO3
ELECTRONIC_STATE 3-P
