1
Energy = -37.1747024100
  C            0.00000000          0.00000000          0.00000000

FREQUENCIES   0

SYMMETRY SO3
ELECTRONIC_STATE 4-P
