1
Energy = -37.3683391290
  C            0.00000000          0.00000000          0.00000000

FREQUENCIES   0

SYMMETRY OH
ELECTRONIC_STATE 2-P
