2
Energy = -75.2864152480
    C    0.780480    0.000000    0.000000
    C   -0.780480    0.000000    0.000000

FREQUENCIES   1
973.0029

SYMMETRY D*H
ELECTRONIC_STATE ??
