3
Energy = -76.4235314070
    C   -0.633558    0.133090    0.000000
    C    0.634514    0.126880    0.000000
    H   -0.021017   -0.978721    0.000000

FREQUENCIES   3
333.2847
1810.6744
2368.8626

SYMMETRY CS
ELECTRONIC_STATE 2-A'
