3
Energy = -76.0396141930
    H   -0.000209    1.576368    0.000000
    C    0.000017    0.492927    0.000000
    C    0.000017   -0.755655    0.000000

FREQUENCIES   3
788.8318
1896.9598
3259.8343

SYMMETRY C*V
ELECTRONIC_STATE ?? 
