4
Energy = -77.1034510280
    C    0.839843    0.393026   -0.139354
    C   -0.293587   -0.063217    0.275547
    H   -1.208783    0.498647    0.111355
    H   -0.346567   -1.015971    0.795062

FREQUENCIES   6
346.8564
758.8504
1217.0468
1711.4539
3113.7588
3188.8709

SYMMETRY C1
ELECTRONIC_STATE 1-A
