4
Energy = -77.0331091650
    C    0.616509    0.355434   -0.035733
    C   -0.272643   -0.625068   -0.013716
    H    0.634345    1.274702    0.552939
    H   -1.172359   -0.717680    0.597690

FREQUENCIES   6
802.9340
821.7559
1096.3625
1631.3226
3029.3247
3070.2327

SYMMETRY C1
ELECTRONIC_STATE 3-A
