4
Energy = -76.6428955160
    C    0.646865    0.393081   -0.033715
    C   -0.307095   -0.658870   -0.010156
    H    0.680085    1.320996    0.549070
    H   -1.214002   -0.767819    0.595981

FREQUENCIES   6
819.6276
986.3770
1061.7889
1364.6924
3060.1135
3078.0560

SYMMETRY C1
ELECTRONIC_STATE 4-A
