3
Energy = -113.7521758300
    C    0.000000    0.069124   -1.257914
    C    0.000000    0.066481    0.025239
    C    0.000000    0.064395    1.322675

FREQUENCIES   4
218.4857
386.4303
588.4824
1222.8915
