3
Energy = -113.3795246700
    C   -0.166441   -0.783825    0.000000
    C   -0.595589    0.536053    0.000005
    C    0.762030    0.247772    0.000000

FREQUENCIES   3
1181.8162
1181.8951
1556.3732

SYMMETRY D3H
ELECTRONIC_STATE --
