3
Energy = -113.7521758300
  C            1.28791634         0.00000000         -0.00000000
  C            0.00476065         0.00000000         -0.00000000
  C           -1.29267699         0.00000000          0.00000000

FREQUENCIES   4
218.4857
386.4303
588.4824
1222.8915

SYMMETRY C*V
ELECTRONIC_STATE --
