3
Energy = -113.3908255700
  C           -1.27320647          0.00000000         -0.00000000
  C           -0.03288631         -0.00000000          0.00000000
  C            1.30609278          0.00000000         -0.00000000

FREQUENCIES   4
33.8139
37.2879
1196.7055
2022.5744

SYMMETRY C*V
ELECTRONIC_STATE ??