3
Energy = -113.8326552900
    C    1.290898    0.000000   -0.000000
    C   -0.000000   -0.000000    0.000000
    C   -1.290898    0.000000   -0.000000

FREQUENCIES   4
154.6830
154.6830
1226.0208
2119.4300

SYMMETRY D*H
ELECTRONIC_STATE 1-SGG
