4
Energy =   -151.3501617000
C  0.133988771  0.080804851  1.169793557
C -0.866095798 -0.681892110 -1.254397920
C  0.883813582  0.720527812  0.304324519
C -0.151705555 -0.119440553 -0.219721156

FREQUENCIES 6
227.5554
333.6470
840.1552
851.0374
1327.8719
1690.6821

SYMMETRY C2V
ELECTRONIC_STATE 4-A2
