4
Energy = -151.3773680700
    C    0.051459    0.755081   -0.039085
    C   -0.049515    0.062934    1.151859
    C   -0.051112   -0.755089    0.039096
    C    0.049168   -0.062926   -1.151871

FREQUENCIES   6
586.2301
770.8144
837.9015
888.6613
1386.5479
1452.4186

SYMMETRY C1
ELECTRONIC_STATE 4-A
