4
Energy = -151.7157335400
    C    0.053139    0.782264   -0.040495
    C   -0.050899    0.064887    1.188041
    C   -0.053124   -0.782233    0.040514
    C    0.050884   -0.064918   -1.188060

FREQUENCIES   6
476.5515
594.5843
621.0380
720.0608
890.4515
1286.9355

SYMMETRY D2H
ELECTRONIC_STATE 3-B2G
