4
Energy =   -151.3949374500
    C    0.063643   -0.802221   -0.023231
    C   -1.045586   -0.000006    0.024824
    C    0.063635    0.802221   -0.023231
    C    1.318308    0.000006    0.021637

FREQUENCIES 6
313.0287
429.1406
570.3858
1107.7831
1205.7469
1311.3895

SYMMETRY CS
ELECTRONIC_STATE 2-A'
