4
Energy =   -151.3791485100
    C    0.000000    0.378248    1.902287
    C   -0.000000    0.121752    0.649152
    C    0.000000    0.121752   -0.649152
    C   -0.000000    0.378248   -1.902287

FREQUENCIES 6
199.7979
488.9537
522.2594
947.5351
1843.0094
1975.4798

SYMMETRY C2V
ELECTRONIC_STATE 4-B1
