5
Energy = -189.3702940100
    C   -0.000045    0.606759    0.000371
    C   -1.467099    0.387146   -0.007554
    C   -0.719496   -0.689847   -0.004460
    C    0.718535   -0.689775    0.003652
    C    1.468104    0.385717    0.007990

FREQUENCIES   9
289.2820
365.9669
378.1372
587.3013
597.4735
838.5346
1246.9867
1461.3587
1673.2437

SYMMETRY C1
ELECTRONIC_STATE 2-A
