5
Energy =   -189.3728455700
    C   -0.193190   -1.003740   -0.265872
    C   -1.025273    0.147893    0.272185
    C   -0.239279    0.959092    0.968065
    C    0.578679    0.427927   -0.030940
    C    0.879062   -0.531172   -0.943438

FREQUENCIES 9
290.3160
314.0873
555.1617
658.9958
790.5117
1018.1659
1085.5920
1304.1329
1493.5291

SYMMETRY C1
ELECTRONIC_STATE 2-A
