5
Energy = -189.3810827500
    C    2.024068   -0.001165    0.000245
    C   -0.534236   -0.761569   -0.000073
    C   -1.641205    0.001001    0.000170
    C   -0.534159    0.761630   -0.000073
    C    0.685532    0.000002   -0.000268

FREQUENCIES   9
197.2907
215.0821
477.5948
649.6589
718.9670
1011.5668
1047.0666
1650.5658
1758.1338
