5
Energy = -189.7273762400
    C    0.100388   -0.003528   -0.021658
    C    1.307663    0.013214    0.723821
    C   -0.689083    0.002887    2.508282
    C   -0.685894   -0.017661   -1.063930
    C    0.099107    0.005067    1.467361

FREQUENCIES   9
98.2766
252.0743
271.6699
346.5125
723.8973
801.4921
1060.7249
1619.7418
1848.7633

SYMMETRY C1
ELECTRONIC_STATE 1-A
