5
Energy =   -189.2859526400
C  0.208188252  0.602447117  0.844891835
C -0.796999175 -0.473761715  0.584211486
C -0.608710874  0.201058962 -0.706265627
C  0.384816122 -0.848957556 -0.202368006
C  0.812705675  0.519212192 -0.520469689

FREQUENCIES 9
423.7407
449.0874
592.0386
747.7198
834.1255
956.7544
958.9455
1258.4394
1305.3168

SYMMETRY C2V
ELECTRONIC_STATE 4-A2
