5
Energy = -189.6806224300
    C   -0.372301    0.980984   -0.361316
    C    0.984041    0.336098   -0.146230
    C    0.397807   -0.993293    0.294340
    C   -0.315380    0.155526    0.838766
    C   -0.694167   -0.479315   -0.625560

FREQUENCIES   9
416.4311
423.7509
489.7433
613.4290
809.8974
888.0242
908.1917
1129.8399
1249.9868

SYMMETRY C1
ELECTRONIC_STATE 3-A
