5
Energy = -189.7075271600
    C   -0.748065   -0.318675   -1.361822
    C    0.448798    0.118443   -0.878584
    C    0.946084   -0.058907    1.738093
    C   -0.977949    0.144942   -0.101196
    C    0.331133    0.114197    0.603509

FREQUENCIES   9
182.5597
286.9710
370.7686
376.8950
596.0108
921.5686
1123.7653
1271.7370
1726.3246

SYMMETRY C1
ELECTRONIC_STATE 3-A
