5
Energy = -189.7220794900
    C   -0.053916   -0.847079    0.381633
    C    0.053971    0.847119   -0.381746
    C   -0.675690   -0.356963   -0.886818
    C   -0.488006    0.463077    0.958085
    C    1.163641   -0.106154   -0.071154

FREQUENCIES   9
426.2595
426.8218
582.1449
582.3473
702.5123
810.5250
1007.4362
1008.6177
1236.2942

SYMMETRY C1
ELECTRONIC_STATE 1-A
