6
Energy =   -227.7701848700
C  0.579689864 -0.019463192  0.654205773
C -0.287655520  0.009658335 -0.324631788
C -1.989736143  0.066806489 -2.245504923
C  1.713750164  0.512742323  1.347171893
C  1.114598120 -0.607705107  1.844744359
C -1.130646485  0.037962152 -1.275984313

FREQUENCIES 12
100.9901
121.7307
274.6493
289.5634
531.3884
636.0753
636.6935
700.3997
1164.2145
1384.4904
1725.1239
2119.5927

SYMMETRY C2V
ELECTRONIC_STATE 1-A1
