6
Energy = -227.6362038600
    C   -0.043040   -0.068321    0.060285
    C    0.067427    0.034298    1.741863
    C   -0.828347   -0.879080    1.024309
    C    1.280797    0.005695    0.807377
    C    1.428143    1.426841    1.226031
    C    0.006071    1.251834    0.816268

FREQUENCIES   12
135.7651
221.0062
616.5247
637.2487
704.9439
718.4199
767.6634
781.1506
838.7959
1056.5466
1096.9274
1155.1091

SYMMETRY C1
ELECTRONIC_STATE 3-A
