6
Energy = -227.6806600400
    C   -0.053970   -0.063994   -0.052528
    C    1.518235    0.437885    1.466295
    C    0.139671   -0.051897    1.399267
    C   -0.977226    0.190719   -0.943571
    C    1.403484   -0.052128    0.090768
    C    2.269332    1.226664    2.190815

FREQUENCIES   12
116.4125
250.4368
300.8668
328.2741
466.1919
598.5740
661.3876
760.2845
908.9385
1009.7124
1673.8795
1762.8231

SYMMETRY C1
ELECTRONIC_STATE 1-A
