6
Energy = -227.7701848700
    C    0.580781   -0.017511    0.653297
    C   -0.286996    0.010673   -0.325186
    C   -1.991076    0.065384   -2.244360
    C    1.714148    0.512296    1.347838
    C    1.113972   -0.608117    1.844255
    C   -1.130829    0.037276   -1.275843

FREQUENCIES   12
101.0010
121.7387
274.6534
289.5656
531.3844
636.0744
636.6865
700.3973
1164.2134
1384.4861
1725.1216
2119.5839

SYMMETRY C1
ELECTRONIC_STATE 1-A
