7
Energy =   -265.7403682600
C  1.393423821  0.007317021 -0.517550398
C -0.022264532 -0.002495566  0.016538072
C  1.783647034  0.006589300  0.732049415
C  0.081626501 -0.008680509  2.787288135
C -0.020742062 -0.006012246  1.451338505
C  1.396076591  0.001189516  1.982463096
C  0.077268647  0.001385484 -1.319622825

FREQUENCIES 15
201.7292
211.6018
386.2780
453.5020
456.3532
483.0978
609.1196
631.8521
730.6272
756.5233
937.4845
1351.1283
1484.3926
1598.7447
1727.2920

SYMMETRY C2V
ELECTRONIC_STATE 1-A1
