7
Energy = -265.6985963400
    C   -0.871907   -0.362248   -1.231346
    C   -0.734838    0.998265   -1.025341
    C    1.347274   -0.243531    1.928832
    C    0.051521   -0.024716    1.397111
    C   -0.027235    0.230750   -0.024226
    C   -1.036678   -1.627767   -1.474673
    C    1.284988   -0.017763    0.530675

FREQUENCIES   15
154.8041
156.0832
257.8976
334.5749
359.1802
498.3188
569.4909
583.8302
708.2639
956.0074
956.8678
1045.5864
1376.8073
1441.9604
1778.0211

SYMMETRY C1
ELECTRONIC_STATE 1-A
