7
Energy =   -265.8185091400
    C   -1.543987   -0.000025    0.000000
    C   -0.737674   -1.038710    0.000000
    C    0.365912   -1.785670    0.000000
    C    1.143756   -0.627225    0.000000
    C    1.143756    0.627233    0.000000
    C    0.365912    1.785678    0.000000
    C   -0.737674    1.038718    0.000000

FREQUENCIES 15
283.3750
303.1025
396.6343
440.7626
496.2637
514.2239
529.3835
596.3162
957.1134
1026.2899
1148.2339
1174.0347
1613.6678
1667.3962
1945.4172

SYMMETRY C2V
ELECTRONIC_STATE 1-A1
