7
Energy = -265.7088329500
    C    0.044229    0.664723    2.553747
    C   -0.074098   -0.000787   -0.034782
    C    0.047066   -0.662110    2.554698
    C   -0.719320   -0.003239   -1.255423
    C    0.740076    0.000170   -1.236689
    C    1.970348    0.002676   -1.668772
    C   -0.005394    0.000453    1.302653

FREQUENCIES   15
102.3341
102.6606
142.5785
238.9609
322.0721
432.2770
556.7588
578.3447
583.1509
835.8744
903.6166
1259.2851
1484.7351
1669.2623
1799.7602

SYMMETRY C1
ELECTRONIC_STATE 1-A
