7
Energy =   -265.7345379400
    C   -1.396662    0.005525   -2.104460
    C   -2.155938    0.007781   -3.145524
    C   -0.756514   -0.013830    2.444301
    C    1.310618    0.001841    0.697785
    C    0.125769    0.001071   -0.030607
    C   -0.646941    0.003289   -1.074064
    C    0.094259   -0.006114    1.457338

FREQUENCIES 15
84.4710
138.2636
167.8798
289.4751
296.3851
343.5274
551.1565
571.8114
602.5360
807.9894
893.6294
1279.1478
1674.9264
1840.6814
2142.8833

SYMMETRY CS
ELECTRONIC_STATE 1-A'
