8
Energy = -303.7361014600
    C    1.293827   -0.001551    0.734360
    C   -0.637354   -0.001555   -1.085760
    C   -2.206993   -0.003454   -3.095485
    C   -1.417175   -0.002467   -2.075607
    C   -0.871034    0.011452    2.355086
    C    0.155478   -0.000550   -0.059789
    C    0.124061    0.005145    1.507588
    C   -2.994022   -0.004487   -4.107139

FREQUENCIES   18
72.7064
94.4030
184.7008
218.5183
256.0615
257.0926
410.4146
446.6065
475.9616
565.5204
624.7628
634.4780
930.9570
1139.3740
1572.1314
1726.8868
1992.2321
2180.0647
