8
Energy =   -303.7000053400
C -1.043663118  0.599371615  0.100454931
C  1.387947735 -1.001981937  0.365755644
C  0.401850772  0.342899877 -1.436839246
C -0.709171972  0.960517301 -1.280088066
C -0.273469140  0.788351079  1.288479544
C -1.186492127 -0.699166652  0.678133673
C  0.180997350 -0.546674187  1.061582578
C  1.242000501 -0.443318096 -0.777480058

FREQUENCIES 18
184.4457
308.2315
415.2772
432.8506
463.7201
489.7612
524.1987
540.8596
670.6187
701.6429
759.2526
853.5680
867.8895
1138.4751
1149.6980
1402.1627
1608.4265
1848.9182

SYMMETRY C2V
ELECTRONIC_STATE 3-B1
