8
Energy =   -303.7469225500
C -0.533478497  1.174436106  2.144112104
C -0.987939521  0.998247496 -0.146793794
C -1.157904710  1.494202785  0.979851379
C  1.395774544  0.116239272  0.025271253
C -0.017383661 -0.043467124 -0.260040476
C  0.769051702 -0.446198173  1.206290993
C  0.344155974  0.316085628  2.336936767
C -0.094529831 -1.316380990  0.431091774

FREQUENCIES 18
70.6094
299.2504
345.0056
423.9944
433.2403
497.9969
577.7919
580.0489
587.9050
717.1552
870.5740
974.0897
1169.3961
1199.3572
1215.6693
1357.0907
1892.4132
1953.7890

SYMMETRY C2V
ELECTRONIC_STATE 1-A1
