8
Energy =   -303.8010433500
C -1.500949241  0.000310996 -0.000000000
C -1.293883535 -1.293347551 -0.000000000
C -0.000310871 -1.500949116  0.000000000
C  1.293347676 -1.293883410  0.000000000
C -1.293347676  1.293883660 -0.000000000
C  0.000310871  1.500949366 -0.000000000
C  1.293883535  1.293347801  0.000000000
C  1.500949241 -0.000310746  0.000000000

FREQUENCIES 18
133.1489
149.2306
220.1571
280.2140
280.2141
309.0172
489.3247
577.3601
577.3601
715.4616
1009.8501
1143.3189
1143.3189
1370.1732
1647.0395
1647.0395
1729.8053
1845.4115

SYMMETRY D4H
ELECTRONIC_STATE 3-A2G
