8
Energy = -303.7000053400
    C   -1.043784    0.599490    0.100631
    C    1.388124   -1.001756    0.365802
    C    0.401606    0.342575   -1.436961
    C   -0.709083    0.960721   -1.279957
    C   -0.273388    0.788320    1.288566
    C   -1.186427   -0.699162    0.678157
    C    0.181141   -0.546563    1.061413
    C    1.241811   -0.443626   -0.777652

FREQUENCIES   18
184.4458
308.2313
415.2757
432.8503
463.7201
489.7605
524.1999
540.8598
670.6185
701.6426
759.2515
853.5684
867.8923
1138.4753
1149.6985
1402.1626
1608.4241
1848.9172
