8
Energy =   -303.7361014600
    C    1.293827   -0.001551    0.734360
    C   -0.637354   -0.001555   -1.085760
    C   -2.206993   -0.003454   -3.095485
    C   -1.417175   -0.002467   -2.075607
    C   -0.871034    0.011452    2.355086
    C    0.155478   -0.000550   -0.059789
    C    0.124061    0.005145    1.507588
    C   -2.994022   -0.004487   -4.107139

FREQUENCIES 18
72.4790
94.2355
184.5878
218.3875
256.0571
256.9404
410.4148
446.5671
475.8430
565.4806
624.7167
634.4348
930.9772
1139.3539
1572.0302
1726.8208
1992.1526
2179.9864

SYMMETRY CS
ELECTRONIC_STATE 1-A'
