8
Energy = -303.8010433500
    C   -1.500580    0.000395    0.000000
    C   -1.293756   -1.293365    0.000000
    C   -0.000139   -1.500930    0.000000
    C    1.293431   -1.293933    0.000000
    C   -1.293756    1.294042    0.000000
    C    0.000099    1.501017    0.000000
    C    1.293431    1.293211    0.000000
    C    1.501270   -0.000436    0.000000

FREQUENCIES   18
133.1588
149.2303
220.1566
280.0911
280.3290
309.0226
489.3247
577.2502
577.4697
715.4617
1009.8501
1143.1558
1143.4813
1370.1722
1646.9029
1647.1760
1729.8043
1845.4118
