9
Energy = -341.5993583400
    C   -0.314987    1.062331   -0.980332
    C   -0.489416   -2.260811   -1.022825
    C   -0.433468   -0.955043   -1.034963
    C   -0.786147    0.173001   -1.972228
    C   -1.319623    0.101134   -3.197043
    C    1.044622   -0.060572    2.284676
    C   -0.114539    0.011133    1.484519
    C    1.258294   -0.053435    0.890680
    C    0.073974    0.049934    0.028701

FREQUENCIES   21
89.7336
116.4940
163.4831
209.9034
289.6410
350.5563
404.9621
458.5086
465.0800
521.9638
684.6179
690.3829
792.3543
923.1762
974.6702
1019.0981
1064.6869
1303.3733
1443.0003
1468.1194
1697.9695
