9
Energy =   -341.8097522200
C  0.376413000 -1.698815000  0.000150000
C  1.631930000 -1.222281000 -0.000167000
C  1.746734889  0.038847927 -0.000357984
C  1.477288953  1.352405969 -0.000478331
C  0.260467905  1.698543937 -0.000278605
C -1.074979029  1.677679981 -0.000006088
C -1.673647886  0.551181075  0.000264717
C -1.858209910 -0.748482941  0.000474919
C -0.885997922 -1.649079949  0.000398372

FREQUENCIES 21
134.0252
178.5807
235.3281
265.1263
298.3010
336.8670
390.4150
403.3319
444.5439
456.7161
507.6381
541.1102
861.2847
922.7681
1075.7637
1139.3398
1368.3889
1540.3860
1664.1419
1860.9433
1892.0297

SYMMETRY CS
ELECTRONIC_STATE 3-A"
