9
Energy = -341.6342561500
    C   -1.159645    0.000000   -2.266434
    C   -1.606934    0.000001   -3.492045
    C   -1.187656    0.000001    3.803594
    C    1.237482   -0.000000    0.813448
    C    2.470123    0.000001    0.366420
    C   -0.744837   -0.000001   -1.059992
    C   -0.180581   -0.000001    0.108214
    C   -0.001191   -0.000001    1.490983
    C   -0.597935    0.000000    2.676320

FREQUENCIES   21
68.8019
85.5889
109.5035
137.7445
190.2388
219.8978
253.5375
257.3457
311.3504
418.5241
477.5957
548.5885
568.0293
606.4586
805.7881
1054.9822
1363.1154
1616.0339
1769.8005
1990.3415
2048.9028
