9
Energy = -341.7970163900
    C   -1.195182    1.383657    0.000018
    C    0.968019   -0.087798    0.000153
    C    0.078615   -1.225566   -0.000024
    C   -2.143611    0.455648   -0.000035
    C   -1.163832   -1.335883   -0.000064
    C    2.307654    0.013774    0.000048
    C   -2.406312   -0.792975   -0.000051
    C    3.566251    0.141887   -0.000119
    C   -0.011602    0.947257    0.000073

FREQUENCIES   21
93.0204
127.8978
225.6736
332.4839
376.4538
383.6147
416.1897
443.1047
494.3818
524.5305
590.0458
651.4937
723.7435
967.0510
1150.7548
1305.3197
1366.4361
1729.3205
1878.3453
1980.8820
2056.6461
