9
Energy = -341.7843724900
    C    0.000000    0.000000    5.131292
    C    0.000000    0.000000    3.835730
    C    0.000000    0.000000    2.549751
    C    0.000000    0.000000    1.276408
    C    0.000000    0.000000    0.000000
    C    0.000000    0.000000   -1.276408
    C    0.000000    0.000000   -2.549751
    C    0.000000    0.000000   -3.835730
    C    0.000000    0.000000   -5.131292

FREQUENCIES   22
47.3205
48.8538
120.7831
122.4200
194.1339
209.1710
287.6362
336.0433
377.8586
458.4855
502.1670
521.7616
590.4907
598.0996
652.0106
871.8260
1255.1036
1589.8352
1616.1398
1874.9322
2038.0764
2102.8189
