9
Energy =   -341.7078043700
C  0.096529941  0.850397040 -1.036899462
C -1.230572252  0.159732105 -0.665693703
C  1.182006890 -1.110687018  0.507442960
C  0.719289162 -1.417024901 -0.602435121
C -1.624659357  0.005323949  0.675864898
C -0.141837046 -0.502046637 -1.316405746
C  0.868159377  0.166611915  1.106178959
C -0.473701681  0.660811088  1.149741509
C  0.604784965  1.186882458  0.182204706

FREQUENCIES 21
311.2723
349.9361
397.9869
459.8427
524.1874
612.3259
615.7851
633.6664
665.5438
713.1110
737.6095
880.6780
889.7295
930.6065
968.6253
1123.5569
1161.9549
1271.1706
1329.7793
1406.1890
1931.6523

SYMMETRY CS
ELECTRONIC_STATE 1-A'
