9
Energy = -341.8097522200
    C    0.376413   -1.698815    0.000150
    C    1.631930   -1.222281   -0.000167
    C    1.746735    0.038848    0.000190
    C    1.477289    1.352406   -0.000247
    C    0.260468    1.698544    0.000193
    C   -1.074979    1.677680    0.000138
    C   -1.673648    0.551181   -0.000300
    C   -1.858210   -0.748483    0.000031
    C   -0.885998   -1.649080    0.000012

FREQUENCIES   21
134.8834
178.9617
235.4450
265.3420
298.3032
337.2657
390.8692
403.1534
445.3025
457.4114
508.2534
541.4167
861.5190
923.1141
1076.0762
1139.6619
1368.8932
1540.7930
1664.3020
1861.1060
1892.1268
