9
Energy =   -341.8407633000
    C    0.000000    0.000000    5.106476
    C    0.000000    0.000000    3.825772
    C    0.000000    0.000000    2.539861
    C    0.000000    0.000000    1.273074
    C    0.000000    0.000000    0.000000
    C    0.000000    0.000000   -1.273074
    C    0.000000    0.000000   -2.539861
    C    0.000000    0.000000   -3.825772
    C    0.000000    0.000000   -5.106476

FREQUENCIES 22
48.8633
48.8633
121.1222
121.1222
204.6205
204.6205
278.9851
278.9851
462.8074
505.1771
505.1771
591.5081
591.5081
649.2336
649.2336
892.6463
1289.2777
1664.5883
1965.2835
2115.9715
2198.7004
2263.0685

SYMMETRY D*H
ELECTRONIC_STATE 1-SGG
