9
Energy = -341.6536636700
    C    0.875210   -0.120074    2.310544
    C    2.163421    0.715261   -3.187995
    C   -0.129871    0.008013   -0.087812
    C   -0.095611   -0.078608    1.445130
    C    2.161676   -0.697244   -3.170597
    C    2.288231   -1.983408   -3.322047
    C    1.406808    0.168743   -2.151389
    C    0.641898    0.084722   -1.117331
    C   -1.287661   -0.055129    0.687565

FREQUENCIES   21
67.2813
94.3108
95.3967
203.7833
207.0807
278.4495
321.9019
377.3227
383.7006
468.9019
520.6604
543.6169
546.7538
745.0757
859.4424
946.0090
1157.6613
1559.7642
1713.1540
1791.0483
1957.6867
