3
Energy = -237.0040125800
    C    0.010203   -0.494071   -0.029801
    F    1.080850    0.078781    0.051584
    F   -1.073922    0.058864   -0.035164

FREQUENCIES   3
642.9654
1365.7919
1677.4980

SYMMETRY CS
ELECTRONIC_STATE 2-A'
