3
Energy = -236.7416491100
    C    0.531126   -0.457688    0.000000
    F    0.503389    0.896393    0.000000
    F   -0.812278   -0.633002    0.000000

FREQUENCIES   3
426.7460
672.2408
1143.9701

SYMMETRY CS
ELECTRONIC_STATE 4-A"
