3
Energy = -237.4184763300
    C   -0.640109   -0.081121   -0.005423
    F    0.022052    1.038431    0.010018
    F    0.273153   -1.007338   -0.024976

FREQUENCIES   3
671.3817
1103.8771
1225.8464

SYMMETRY CS
ELECTRONIC_STATE 1-A'
