3
Energy = -237.3291021400
    C    0.040518   -0.539587   -0.083936
    F    1.132009    0.180366    0.054845
    F   -1.136084    0.036430    0.029037

FREQUENCIES   3
510.9274
1136.0045
1297.3256

SYMMETRY CS
ELECTRONIC_STATE 3-A"
