4
Energy = -336.8449626600
    C   -0.011959    0.043691   -0.075904
    F    0.251610    1.228178    0.147151
    F    0.896431   -0.788670   -0.140817
    F   -1.183837   -0.308384   -0.234266

FREQUENCIES   6
587.5680
588.2816
800.9357
1051.0038
1660.3171
1660.4617

SYMMETRY C1
ELECTRONIC_STATE 1-A
