4
Energy =   -337.1729359500
    C   -0.302127    0.236407   -0.045951
    F    0.638938    0.306669   -0.966525
    F   -0.878724   -0.949146   -0.037814
    F    0.166559    0.551160    1.145431

FREQUENCIES 6
504.1045
504.1120
698.1906
1076.8757
1236.3238
1236.3308

SYMMETRY C3V
ELECTRONIC_STATE 2-A1
