5
Energy = -437.0000764600
    C   -0.017450    0.084423    0.060967
    F   -0.261316    0.324180    1.340187
    F    0.778925    1.026479   -0.420534
    F   -1.157361    0.082646   -0.612928
    F    0.570124   -1.095759   -0.062437

FREQUENCIES   9
427.7949
427.8334
621.3494
621.5660
621.7816
902.2082
1243.4170
1243.7427
1243.7991

SYMMETRY C1
ELECTRONIC_STATE 1-A
