2
Energy = -38.4021265770
    C    0.161209    0.000000    0.000000
    H   -0.961499    0.000000    0.000000

FREQUENCIES   1
2827.1903

SYMMETRY C*V
ELECTRONIC_STATE ??
