2
Energy = -37.9735256630
    C    0.166386    0.000000    0.000000
    H   -0.975414    0.000000    0.000000

FREQUENCIES   1
2614.5370

SYMMETRY C*V
ELECTRONIC_STATE --
