1
Energy =   -99.0999358470
  F            0.00000000          0.00000000          0.00000000

FREQUENCIES 0

SYMMETRY SO3
ELECTRONIC_STATE 4-P
