1
Energy = -98.8800391780
  F            0.00000000          0.00000000          0.00000000

FREQUENCIES   0

SYMMETRY OH
ELECTRONIC_STATE ??
