2
Energy = -199.2272327800
    F    0.867329    0.000000    0.000000
    F   -0.867329    0.000000    0.000000

FREQUENCIES   1
640.8893

SYMMETRY D*H
ELECTRONIC_STATE --
