2
Energy = -198.7154308100
    F    0.645307    0.000000    0.000000
    F   -0.645307    0.000000    0.000000

FREQUENCIES   1
1233.6131

SYMMETRY D*H
ELECTRONIC_STATE --
