3
Energy =   -298.3557963500
F -1.159153972 -0.237300385 -0.013478344
F  1.140839972 -0.312752615  0.028311344
F  0.018315000  0.550053000 -0.014870000

FREQUENCIES 3
391.2873
743.7808
887.4781

SYMMETRY C2V
ELECTRONIC_STATE 1-A1
