3
Energy = -298.3557963500
    F   -1.159147   -0.237091   -0.013484
    F    1.140833   -0.312962    0.028317
    F    0.018315    0.550053   -0.014870

FREQUENCIES   3
391.2873
743.7803
887.4788

SYMMETRY CS
ELECTRONIC_STATE 1-A'
