3
Energy =   -298.8351187100
F -0.647438000 -0.905382000  0.000000000
F  1.073597755 -0.083546825  0.000000000
F -0.426160755  0.988928825 -0.000000000

FREQUENCIES 3
325.4415
423.9412
576.9595

SYMMETRY C2V
ELECTRONIC_STATE 2-A1
