3
Energy = -298.8445758900
    F   -0.960183   -0.508866    0.000000
    F    0.920701   -0.578410    0.000000
    F    0.039482    1.087276    0.000000

FREQUENCIES   3
369.5238
370.1584
581.0137

SYMMETRY CS
ELECTRONIC_STATE 4-A'
