4
Energy = -398.4737321600
    F    0.178295   -1.048146   -1.243090
    F    1.215855    1.023915    0.385286
    F   -1.393346    0.023916    0.857953
    F   -0.000804    0.000315   -0.000150

FREQUENCIES   6
146.2318
152.9895
354.1718
474.1249
476.2454
515.9973

SYMMETRY C1
ELECTRONIC_STATE 1-A
