1
Energy = -0.4998179156
  H            0.00000000          0.00000000          0.00000000

FREQUENCIES   0

SYMMETRY SO3
ELECTRONIC_STATE 2-S
