2
Energy = -1.1534900174
    H   -0.371378    0.000000    0.000000
    H    0.371378    0.000000    0.000000

FREQUENCIES   1
4421.0681

SYMMETRY D*H
ELECTRONIC_STATE 1-SGG
