2
Energy =  -0.609942328972     
    H   -0.557117    0.000000    0.000000
    H    0.557117    0.000000    0.000000

FREQUENCIES 1
1978.9684

SYMMETRY D*H
ELECTRONIC_STATE 2-SGG
