3
Energy = -38.5483161630
    C   -0.020635   -0.002101    0.000000
    H   -0.887728   -0.836115    0.000000
    H   -0.991031    0.709150    0.000000

FREQUENCIES   3
1024.5635
1858.7531
2377.6101

SYMMETRY CS
ELECTRONIC_STATE 4-A"
