3
Energy = -39.0461500470
    C   -0.546031    0.132043    0.042795
    H   -0.862377   -0.928346   -0.036256
    H   -1.517326    0.665706   -0.007633

FREQUENCIES   3
1402.4186
2909.2840
2973.5495

SYMMETRY CS
ELECTRONIC_STATE 1-A'
