3
Energy = -39.0631032710
    C   -0.723041    0.059635    0.024996
    H   -0.722845   -1.016350   -0.029588
    H   -1.479849    0.826118    0.003497

FREQUENCIES   3
1049.8143
3122.2642
3361.5303

SYMMETRY CS
ELECTRONIC_STATE 3-A"
