3
Energy = -38.6859842420
    C   -0.752853    0.047440    0.021998
    H   -0.693122   -1.046317   -0.028736
    H   -1.479760    0.868280    0.005644

FREQUENCIES   3
918.9119
2975.6623
3226.8685

SYMMETRY CS
ELECTRONIC_STATE 2-A'
