3
Energy = -37.9141044500
    C    0.000000    0.000000    0.000000
    H    0.000000    0.000000    1.184427
    H    0.000000    0.000000   -1.184427

FREQUENCIES   4
1127.7691
1127.7691
2282.2922
2419.1843

SYMMETRY D*H
ELECTRONIC_STATE 1-SGG
