4
Energy = -76.6374205570
    C    0.907705    0.420809   -0.164469
    C   -0.322452   -0.075172    0.286369
    H   -1.234503    0.502472    0.113134
    H   -0.359844   -1.035623    0.807576

FREQUENCIES   6
999.2626
1051.0904
1304.4554
1404.2661
3022.6993
3145.8245

SYMMETRY C1
ELECTRONIC_STATE 4-A
