4
Energy =   -77.0331091650
    C    0.616509    0.355434   -0.035733
    C   -0.272643   -0.625068   -0.013716
    H    0.634345    1.274702    0.552939
    H   -1.172359   -0.717680    0.597690

FREQUENCIES 6
802.9549
821.7783
1096.3788
1631.3212
3029.2750
3070.1838

SYMMETRY C2V
ELECTRONIC_STATE 3-B2
