4
Energy =   -76.6909803490
C  0.858807925  0.420961170 -0.249302908
C -0.243351890  0.004736314  0.355905283
H -1.201244214  0.481887100  0.090506744
H -0.147203214 -0.521285900  1.320126744

FREQUENCIES 6
456.3128
772.8427
904.1892
1271.8476
2963.8068
3044.0635

SYMMETRY CS
ELECTRONIC_STATE 2-A'
