4
Energy = -76.6909803490
    C    0.858951    0.420825   -0.249136
    C   -0.243485    0.004863    0.355750
    H   -1.201304    0.481944    0.090437
    H   -0.147263   -0.521229    1.320057

FREQUENCIES   6
456.2077
775.9302
905.2500
1272.0439
2963.7329
3043.9979

SYMMETRY C1
ELECTRONIC_STATE 2-A
