4
Energy = -138.4125693900
    C   -0.026229    0.834249   -1.212892
    H    0.508106    1.597072   -0.592480
    H    0.271691   -0.201346    0.799334
    F   -0.087535   -0.304240   -0.083944

FREQUENCIES   6
497.3069
509.0408
843.6476
1257.9201
2904.3891
3546.8073

SYMMETRY C1
ELECTRONIC_STATE 1-A
