4
Energy = -138.5591045200
    C    0.021724   -0.008536    0.102170
    H    0.023363   -0.009741    1.197282
    H    0.906738   -0.061526   -0.540661
    F   -1.071365    0.058733   -0.455432

FREQUENCIES   6
1247.1904
1290.3748
1443.6338
1599.2205
3028.6383
3192.5775

SYMMETRY C1
ELECTRONIC_STATE 1-A
