4
Energy =   -138.8853451500
    C    0.061880    0.098523    0.117451
    H    0.046269   -0.034417    1.188192
    H    0.905403   -0.108019   -0.523027
    F   -1.133093    0.022843   -0.479256

FREQUENCIES 6
483.0191
1169.5235
1177.9299
1464.0097
3130.2985
3289.6410

SYMMETRY CS
ELECTRONIC_STATE 2-A'
