4
Energy = -138.4200196700
    H    1.038289   -0.560092    0.767818
    H   -0.569055   -0.048258   -1.496328
    C   -0.705761   -0.343556   -0.429815
    F    0.862302   -0.325535   -0.143675

FREQUENCIES   6
541.5156
627.0802
860.4281
1303.7060
2944.6176
3587.0196

SYMMETRY C1
ELECTRONIC_STATE 1-A
