4
Energy = -138.8853451500
    C    0.061880    0.098523    0.117451
    H    0.046269   -0.034417    1.188192
    H    0.905403   -0.108019   -0.523027
    F   -1.133093    0.022843   -0.479256

FREQUENCIES   6
482.6376
1169.4382
1177.9252
1463.9144
3130.0934
3289.4456

SYMMETRY C1
ELECTRONIC_STATE 2-A
