5
Energy = -238.2265366200
    H    0.403514    1.117021   -0.348138
    H    0.329059   -0.201994   -1.328176
    C    0.320763   -0.036677   -0.169492
    F    1.365934   -0.512513    0.391503
    F   -0.798290   -0.362977    0.354573

FREQUENCIES   9
592.3017
638.7628
988.2811
1055.4787
1104.8140
1241.7525
1398.0035
2113.7181
2478.3634

SYMMETRY C1
ELECTRONIC_STATE 2-A
