3
Energy = -100.5307529000
    H    0.709470    0.855393   -0.011051
    H    0.855716   -0.754111    0.023274
    F    0.254500    0.002256   -0.013060

FREQUENCIES   3
1432.1121
3465.7679
3479.4539

SYMMETRY CS
ELECTRONIC_STATE 1-A'
