4
Energy =   -199.9522374300
    H    0.113608   -1.068304    0.153358
    H   -0.154350   -2.247797    0.241826
    F    0.507165   -0.032874    0.106529
    F   -0.578969    0.821683   -0.207661

FREQUENCIES 6
245.5913
692.1825
873.7728
999.0768
1112.8211
1652.8684

SYMMETRY CS
ELECTRONIC_STATE 2-A'
