3
Energy =   -1.1127549740
H -0.360975559  1.353291313  0.035938091
H  0.361025442 -1.353278687 -0.041328909
H -0.000049883 -0.000013625 -0.002696182

FREQUENCIES 4
598.3271
598.3271
967.7001
1109.5938

SYMMETRY D*H
ELECTRONIC_STATE 3-SGU
