3
Energy = -1.3392574521
    H   -0.358330    0.359493    0.006913
    H   -0.132239   -0.489859   -0.017335
    H    0.490568    0.130366    0.002336

FREQUENCIES   3
2704.3907
2708.4054
3396.9023

SYMMETRY CS
ELECTRONIC_STATE 1-A'
