4
Energy = -39.7572561890
    H   -1.294636   -0.066957   -0.806126
    H   -0.087976   -1.011749    0.260219
    H   -0.713705    0.658136    0.813278
    C   -0.697720   -0.139595    0.088503

FREQUENCIES   6
539.8413
1406.7245
1406.9637
3107.1378
3283.2558
3283.8509

SYMMETRY C1
ELECTRONIC_STATE 2-A
