4
Energy = -38.4029669510
    C   -0.000087    0.001786    0.560720
    H   -1.080122    0.551763   -0.122334
    H    1.018409    0.658702   -0.122331
    H    0.061801   -1.212261   -0.116055

FREQUENCIES   6
632.5077
632.6607
755.5580
1076.3134
1076.5649
1547.2031

SYMMETRY C1
ELECTRONIC_STATE 4-A
