4
Energy = -38.5258120400
    C   -0.056462    0.312135   -0.000533
    H   -1.135886   -0.059342    0.000971
    H    0.827790   -1.166651    0.002118
    H    0.781434    1.087425   -0.002753

FREQUENCIES   6
449.7739
560.6825
1016.2986
1136.9159
2573.2593
2752.1718

SYMMETRY C1
ELECTRONIC_STATE 2-A
