4
Energy =   -39.7572588320
    C    0.000000    0.000000    0.000000
    H    0.000000    1.078592    0.000000
    H    0.934088   -0.539296    0.000000
    H   -0.934088   -0.539296    0.000000

FREQUENCIES 6
544.8254
1408.1933
1408.1942
3101.5348
3277.5862
3277.5873

SYMMETRY D3H
ELECTRONIC_STATE 2-A2"
