4
Energy =   -38.4029669510
C -0.000087836  0.001778236  0.560720027
H -1.080140297  0.551772356 -0.122334035
H  1.018463010  0.658714400 -0.122331033
H  0.061775324 -1.212189586 -0.116055251

FREQUENCIES 6
633.1899
633.1900
755.7429
1076.7006
1076.7009
1547.4914

SYMMETRY C3V
ELECTRONIC_STATE 4-A1
