4
Energy = -39.2651520430
    H   -1.337385    0.167906   -0.560835
    H   -0.114064   -1.185488    0.344218
    H   -0.984366    0.641966    0.570667
    C   -0.358222   -0.184548    0.001823

FREQUENCIES   6
798.7738
805.3290
1254.7683
2115.6061
2537.4776
3206.9146

SYMMETRY C1
ELECTRONIC_STATE 3-A
