5
Energy = -139.0963760400
    H   -0.083746    1.474895   -0.423162
    H    0.515323   -1.242919    0.360106
    H   -1.096581   -0.285740    1.016542
    C   -0.091483   -0.390752    0.630730
    F    0.018321    0.543773   -0.606398

FREQUENCIES   9
167.4681
595.0710
804.5729
882.7206
1090.8010
1345.5556
3116.3222
3337.6757
3625.5525

SYMMETRY C1
ELECTRONIC_STATE 2-A
