4
Energy =   -1.8460922627
H  1.326430025 -0.337083877 -0.050994753
H -0.793747701  0.043830912 -0.356047608
H  0.157911469 -0.040129829 -0.006070924
H -0.690593793  0.333382794  0.413113286

FREQUENCIES 6
654.2651
839.6017
851.0986
1709.0432
1775.0718
3468.1429

SYMMETRY C2V
ELECTRONIC_STATE 2-A1
