4
Energy = -1.8460922627
    H    1.326313   -0.337328   -0.052425
    H   -0.793776    0.043951   -0.355455
    H    0.157932   -0.040087   -0.005820
    H   -0.690469    0.333464    0.413700

FREQUENCIES   6
654.2659
839.6340
851.0994
1709.0412
1775.0724
3468.1409

SYMMETRY C1
ELECTRONIC_STATE 2-A
