5
Energy =   -40.4329794600
C -0.308604875 -0.391562250  0.035757250
H -1.096396818 -1.050205274 -0.324241270
H -0.512167737  0.627496668 -0.286898596
H -0.274042854 -0.427792022  1.122734059
H  0.648187909 -0.715748373 -0.368565193

FREQUENCIES 9
1342.5649
1342.5649
1342.5649
1560.5794
1560.5794
3026.4572
3128.8057
3128.8057
3128.8057

SYMMETRY TD
ELECTRONIC_STATE 1-A1
