5
Energy =   -39.9610587500
C -0.399901563  0.168907375  0.117405000
H -1.358890314  0.643783234 -0.212744160
H  0.175462440 -0.075857968  1.046496580
H -0.690180954 -0.883904558 -0.130566536
H  0.274002578  0.991608792 -0.233565884

FREQUENCIES 9
358.6485
358.6485
1065.6054
1296.4778
1446.5661
2665.7559
2800.0888
2861.9520
2861.9520

SYMMETRY D2D
ELECTRONIC_STATE 2-B2
