2
Energy = -38.0158466480
    C    0.162135    0.000000    0.000000
    H   -0.975051    0.000000    0.000000

FREQUENCIES   1
2798.9974

SYMMETRY C*V
ELECTRONIC_STATE 1-SG
