3
Energy = -76.0126589450
    H    0.000000    0.346778    1.563005
    C    0.000000   -0.101237    0.566150
    C    0.000000    0.054458   -0.755109

FREQUENCIES   3
644.6231
1386.0097
3138.4302

SYMMETRY CS
ELECTRONIC_STATE 1-A'
