4
Energy = -114.0932408800
    H    0.000084   -1.783505    0.000000
    C    0.000000   -0.697774    0.000000
    C    0.679892    0.497511    0.000000
    C   -0.679906    0.497514    0.000000

FREQUENCIES   6
890.0222
900.8175
1189.4914
1245.9178
1618.4597
3196.4350

SYMMETRY CS
ELECTRONIC_STATE 3-A'
