4
Energy = -114.4602800800
    H    0.000000    0.000000    1.772330
    C    0.000000    0.000000    0.692718
    C    0.000000    0.680459   -0.494053
    C    0.000000   -0.680459   -0.494053

FREQUENCIES   6
582.8783
873.4626
921.3552
1235.2168
1616.4823
3222.6408

SYMMETRY C2V
ELECTRONIC_STATE 2-B2
