4
Energy =   -114.4550096900
    C   -0.000000   -0.007994   -1.408572
    C    0.000000    0.028822   -0.084747
    C   -0.000000   -0.026196    1.160594
    H   -0.000000    0.305369    2.175221

FREQUENCIES 6
242.8161
283.1926
374.0638
1194.3619
1892.2928
3387.2513

SYMMETRY CS
ELECTRONIC_STATE 2-A'
