4
Energy =   -114.0612784500
    C   -1.387550    0.000149    0.000015
    C   -0.117676   -0.000276    0.000010
    C    1.136358    0.000099   -0.000072
    H    2.213206    0.000166    0.000281

FREQUENCIES 7
278.3938
330.8509
409.3348
893.7725
1314.7867
1922.8732
3314.1844

SYMMETRY C*V
ELECTRONIC_STATE 3-PI
