4
Energy = -114.3617466400
    H   -1.630013   -0.001297   -0.558901
    C   -0.800754   -0.000716    0.150927
    C    0.537301   -0.653608   -0.028899
    C    0.535121    0.654540   -0.028878

FREQUENCIES   6
537.9155
888.8315
929.4943
1029.6930
1641.9406
3033.9939

SYMMETRY C1
ELECTRONIC_STATE 4-A
