3
Energy = -138.2050155800
    H    0.718948    1.337954    0.005159
    C    0.631588    0.253112    0.003673
    F   -0.534282   -0.344084   -0.009085

FREQUENCIES   3
1109.4865
1261.2845
3102.7577

SYMMETRY CS
ELECTRONIC_STATE 3-A"
