4
Energy =   -237.4983480600
    H   -0.429346    0.675248    1.164800
    C   -0.002794    0.393110   -0.077926
    F   -0.980977   -0.355391   -0.410211
    F    1.147873   -0.048821    0.251002

FREQUENCIES 6
527.5515
686.6530
816.1977
896.2334
1307.5086
1371.4300

SYMMETRY C1
ELECTRONIC_STATE 3-A
