4
Energy = -238.0274058400
    H   -0.654470    0.994803    0.613231
    C   -0.223880    0.010670    0.442700
    F    1.102662   -0.013990    0.460659
    F   -0.701660   -0.614861   -0.625391

FREQUENCIES   6
547.5174
985.5218
1170.5696
1175.8266
1327.0658
3114.4218

SYMMETRY C1
ELECTRONIC_STATE 2-A
