5
Energy = -337.8507256100
    H    1.360478    0.001203   -0.675977
    C    0.411023   -0.010643   -0.142672
    F   -0.291111   -1.103035   -0.465065
    F    0.618533   -0.013776    1.179218
    F   -0.313856    1.069248   -0.456868

FREQUENCIES   9
499.9729
500.8455
693.3810
1133.7259
1133.9481
1134.7738
1385.0591
1385.2708
3121.2207

SYMMETRY C1
ELECTRONIC_STATE 1-A
