3
Energy = -199.4069391700
    H    0.620516    1.151874   -0.029242
    F   -1.214421   -0.295071    0.012928
    F    0.623879    0.185024   -0.009408

FREQUENCIES   3
404.1004
702.4531
3481.0782

SYMMETRY CS
ELECTRONIC_STATE 3-A"
