3
Energy = -199.4359529500
    H    0.508265    1.095334   -0.027319
    F   -0.938959   -0.163265    0.008351
    F    0.460668    0.109757   -0.006755

FREQUENCIES   3
928.7323
1155.0121
3230.9397

SYMMETRY CS
ELECTRONIC_STATE 1-A'
