4
Energy = -299.5684464200
    H    0.824244   -0.356937    0.467268
    F   -0.407324    1.118306   -0.127778
    F   -0.748121   -0.854814    0.091585
    F    1.397203    0.394480    0.513603

FREQUENCIES   6
204.5810
293.4752
307.6636
518.0487
748.2733
3575.7716

SYMMETRY C1
ELECTRONIC_STATE 3-A
