1
Energy =   -37.8528411448     
    C    0.000000    0.000000    0.000000

FREQUENCIES 0

SYMMETRY SO3
ELECTRONIC_STATE ??
