1
Energy =   -37.9072968600     
    C    0.000000    0.000000    0.000000

FREQUENCIES 0

SYMMETRY R3
ELECTRONIC_STATE ??
