2
Energy =   -75.9127201073     
    C    0.713510    0.000000    0.000000
    C   -0.713510    0.000000   -0.000000

FREQUENCIES 1
1181.0638

SYMMETRY D*H
ELECTRONIC_STATE 4-SGU
