3
Energy =   -151.400565847     
    C    1.250513    0.621877    0.000000
    C    0.143954   -0.025401   -0.000000
    O   -0.896725   -0.633710   -0.000000

FREQUENCIES 4
421.6135
491.6356
1234.7775
2019.3835

SYMMETRY C*V
ELECTRONIC_STATE 2-PI
