4
Energy =   -189.393225708     
    C    0.699092   -0.225462    0.061080
    C    1.930360   -0.635645    0.221539
    C   -0.510818    0.116929   -0.124923
    O   -1.670966    0.482510   -0.285910

FREQUENCIES 6
47.4445
282.7260
283.8558
937.2895
1514.9910
2116.9076

SYMMETRY C1
ELECTRONIC_STATE 4-A
