5
Energy =   -227.439435682     
    C    0.723080   -0.280741    0.071874
    C   -0.757456    0.180760   -0.095380
    C   -1.990562   -0.108679   -0.292625
    C    1.589617   -1.224554    0.111456
    O    0.309510    1.048935    0.128586

FREQUENCIES 9
238.3343
324.4550
390.2188
390.5488
411.1663
758.5191
935.6039
1713.1048
1849.1146

SYMMETRY C2V
ELECTRONIC_STATE 2-B2
