1
Energy =  -0.430999126139     
    H    0.000000    0.000000    0.000000

FREQUENCIES 0

SYMMETRY R3
ELECTRONIC_STATE ??
