3
Energy =   -39.1949559975     
C -0.000000000 -0.002827000 -1.500656000
H  0.000000000  0.877129799 -2.194359568
H -0.000000000 -0.874302799 -2.204984432

FREQUENCIES 3
1293.0192
2732.6585
2791.2435

SYMMETRY C2V
ELECTRONIC_STATE 2-B1
