3
Energy =   -39.1358465801     
    C    0.000000   -0.000000   -0.014856
    H    0.000000    1.002651   -0.429138
    H   -0.000000   -1.002651   -0.429138

FREQUENCIES 3
1016.9504
2965.8454
3255.0412

SYMMETRY C2V
ELECTRONIC_STATE 4-B1
