4
Energy =   -77.3166756864     
    C    0.896773    0.416289   -0.160465
    C   -0.273301   -0.055355    0.268359
    H   -1.239105    0.469443    0.131584
    H   -0.393461   -1.017892    0.803132

FREQUENCIES 6
783.0273
878.2378
1347.8908
1509.9660
2741.3072
2826.4238

SYMMETRY C2V
ELECTRONIC_STATE 2-B2
