5
Energy =   -152.478241005     
    C    1.418866    0.491693   -0.775111
    C    0.506662   -0.086389    0.128769
    H    0.803626   -0.435552    1.121652
    H   -1.250919   -0.688042    0.642911
    O   -0.766281   -0.256026   -0.136466

FREQUENCIES 9
503.6388
507.8012
919.4439
1095.8343
1209.3459
1296.3110
1500.4021
2725.1139
3022.5456

SYMMETRY CS
ELECTRONIC_STATE 4-A"
