5
Energy =   -152.465064140     
    C    1.486385    0.530630    0.430589
    C    0.577084   -0.215905   -0.343854
    H    0.865877   -1.091798   -0.917507
    H   -1.025734    0.808161    0.013024
    O   -0.713960    0.012417   -0.495402

FREQUENCIES 9
356.1574
436.5407
626.9432
1047.6042
1158.4434
1292.7959
1418.6204
2990.5107
3084.8026

SYMMETRY CS
ELECTRONIC_STATE 4-A"
