5
Energy =   -152.655507199     
    C    0.815774   -0.553416    0.433948
    C   -0.013214    0.414237   -0.043277
    H    1.846292   -0.341313    0.675432
    H    0.449735   -1.578078    0.584898
    O   -1.179905    0.535974   -0.406448

FREQUENCIES 9
457.8873
505.9576
630.0013
1003.2886
1111.5908
1421.6728
1714.7762
2939.8608
3179.4200

SYMMETRY CS
ELECTRONIC_STATE 2-A'
