5
Energy =   -152.551945531     
    C    0.698529    0.287677   -0.599965
    C   -0.581199    0.054578   -0.016000
    H    1.520128   -0.415217   -0.477865
    H    0.887484    1.183149   -1.187556
    O   -0.983164   -0.856270    0.655134

FREQUENCIES 9
403.1341
453.4913
813.2800
973.3053
1067.7473
1423.5724
1761.2235
3006.6699
3140.2875

SYMMETRY CS
ELECTRONIC_STATE 4-A"
