4
Energy =   -77.3166756931     
    C    0.896706    0.416440   -0.160471
    C   -0.273281   -0.055359    0.268345
    H   -1.239180    0.469329    0.131579
    H   -0.393306   -1.017947    0.803116

FREQUENCIES 6
783.1322
878.3124
1347.9273
1510.0503
2740.9925
2826.1615

SYMMETRY C2V
ELECTRONIC_STATE 2-B2
