6
Energy =   -190.574442736     
    C   -0.661219   -0.011888   -0.125274
    C   -1.896105    0.557758   -0.304616
    C    0.628296    0.319682   -0.414648
    H    1.303969   -1.277306    0.344780
    H    0.945430    1.231158   -0.912697
    O    1.698256   -0.500627   -0.091199

FREQUENCIES 12
271.5188
278.9753
466.7383
477.2966
559.8277
844.7233
1128.7235
1158.5737
1272.7504
1392.8531
3096.5983
3551.1742

SYMMETRY CS
ELECTRONIC_STATE 4-A"
