7
Energy =   -228.711296175     
    C    0.982843   -0.874649   -0.075324
    C   -2.647862    0.317699    0.337253
    C   -0.298223   -0.359200   -0.555591
    C   -1.450360   -0.028830   -0.048483
    H    1.601250    0.912823    0.100172
    H    1.019225   -1.789792    0.517803
    O    1.884613    0.058458    0.448328

FREQUENCIES 15
90.2366
182.9758
389.6188
419.5072
469.7925
528.2833
766.9285
858.9976
1055.8707
1200.8816
1293.2412
1393.3902
1724.7955
3028.4848
3765.5032

SYMMETRY C1
ELECTRONIC_STATE 4-A
