7
Energy =   -228.796642531     
    C    0.872920   -0.746767    0.206297
    C   -2.872666    0.191126   -0.059503
    C   -0.314310   -0.212136    0.083105
    C   -1.624313   -0.039562    0.015713
    H    1.848466    0.879938   -0.033212
    H    1.085420   -1.797492    0.385800
    O    2.095968   -0.038598    0.125959

FREQUENCIES 15
90.2209
191.8998
388.4823
416.7779
473.8098
484.6121
719.5427
857.0141
1042.5417
1213.5718
1363.4751
1713.3953
1952.3166
3089.8974
3772.4730

SYMMETRY CS
ELECTRONIC_STATE 2-A'
