4
Energy =   -114.338907430     
    C    1.098920   -0.288414    0.360599
    H   -0.286425    0.736594   -1.086076
    H   -0.614012    1.170294    0.391110
    O   -0.344942    0.384792   -0.157255

FREQUENCIES 6
376.0688
611.7930
718.8432
1461.9474
3086.9705
3186.6036

SYMMETRY CS
ELECTRONIC_STATE 4-A"
