4
Energy =   -114.413053150     
    C    0.197781    0.579294   -0.327566
    H    0.821120    0.342208   -1.213446
    H   -0.170721    1.622592   -0.400070
    O   -0.717818   -0.296144   -0.065941

FREQUENCIES 6
767.1745
844.7375
1205.4188
1304.8544
2776.1946
2862.8340

SYMMETRY CS
ELECTRONIC_STATE 4-A"
