4
Energy =   -114.449683585     
    C    0.537085    0.089872   -0.587207
    H    0.671367    1.198647   -0.740054
    H   -0.507249    0.858005    0.948369
    O   -0.295268   -0.018959    0.609648

FREQUENCIES 6
386.0124
805.2149
1073.6391
1327.7179
2600.2093
3703.2196

SYMMETRY CS
ELECTRONIC_STATE 2-A"
