3
Energy =   -1.63008186552     
    H    0.386763   -0.711428    0.000000
    H   -0.386763   -0.711428   -0.000000
    H    0.000000    1.822855   -0.000000

FREQUENCIES 3
236.1295
580.1937
3800.7125

SYMMETRY C2V
ELECTRONIC_STATE 3-B2
