4
Energy =   -39.8270468928     
C  0.049931800  0.000171600 -0.111250333
H  0.019263407 -0.006669473  0.971572629
H  0.056970182  0.941685135 -0.646970078
H  0.073561811 -0.934500862 -0.658353552

FREQUENCIES 6
496.9147
1379.2395
1379.2506
2991.8335
3209.7482
3209.7588

SYMMETRY D3H
ELECTRONIC_STATE 3-A2"
