4
Energy =   -39.8270468298     
    C    0.000000   -0.000000    0.000000
    H   -0.000000    1.083160    0.000000
    H    0.938044   -0.541580    0.000000
    H   -0.938044   -0.541580    0.000000

FREQUENCIES 6
495.9276
1379.0745
1379.0856
2992.9265
3210.8632
3210.8739

SYMMETRY D3H
ELECTRONIC_STATE 3-A2"
