5
Energy =   -77.9032838869     
    C   -0.074112   -0.569636    0.000000
    H    0.936189   -0.992196    0.000000
    H   -0.876921   -1.302860    0.000000
    C   -0.266822    0.717462   -0.000000
    H    0.281589    1.643610   -0.000000

FREQUENCIES 9
647.1981
821.8805
926.0566
971.8672
1377.5310
1637.8486
2981.5895
3098.0931
3232.2140

SYMMETRY CS
ELECTRONIC_STATE 3-A'
