5
Energy =   -77.9586138070     
    C    0.144202   -0.606120   -0.000000
    H    1.063418   -1.203667   -0.000000
    H   -0.765135   -1.241257   -0.000000
    C    0.172127    0.743899   -0.000000
    H   -0.869352    1.135507   -0.000000

FREQUENCIES 9
860.9857
929.2379
1078.2159
1204.1219
1383.1285
1529.0137
2744.3761
2830.6739
2955.0246

SYMMETRY CS
ELECTRONIC_STATE 1-A'
