5
Energy =   -77.9032836456     
    C   -0.071624   -0.561598    0.000000
    H    0.939844   -0.981679    0.000000
    H   -0.871500   -1.297857    0.000000
    C   -0.269253    0.724508   -0.000000
    H    0.274452    1.653410   -0.000000

FREQUENCIES 9
646.4465
821.9695
926.2923
971.0177
1377.8489
1638.7516
2980.8138
3098.4753
3232.4271

SYMMETRY CS
ELECTRONIC_STATE 3-A'
