6
Energy =   -153.232549443     
    C    0.800445    0.332863    0.761928
    C   -0.207579    0.483493   -0.082354
    H   -0.315038    1.130612   -0.961042
    H    1.651578    0.980123    0.506919
    H   -1.242861   -0.784070    0.828319
    O   -1.423004   -0.247284    0.040874

FREQUENCIES 12
523.2068
549.6974
719.0693
858.6174
901.0596
1009.3760
1228.0380
1321.4802
1571.0219
2936.7510
2994.0118
3677.0216

SYMMETRY CS
ELECTRONIC_STATE 1-A'
