6
Energy =   -153.217943846     
    C    0.756110   -0.760121   -0.030419
    C   -0.570049   -0.451759    0.585215
    H    1.525963   -0.152962    0.493267
    H    1.029700   -1.801561    0.113523
    H    0.794118   -0.508861   -1.089988
    O   -1.413981    0.324685    0.255394

FREQUENCIES 12
113.8218
453.7846
826.5817
942.2841
1046.7295
1296.0595
1410.3940
1459.7790
1646.2533
2755.5479
3046.8250
3110.7015

SYMMETRY C1
ELECTRONIC_STATE 3-A
