6
Energy =   -153.256664083     
    C    0.779039   -0.720159   -0.007834
    C   -0.558826   -0.380445    0.750027
    H    1.607818   -0.239804    0.523423
    H    0.943564   -1.801552    0.052263
    H    0.755636   -0.391916   -1.063851
    O   -1.405369    0.183296    0.072964

FREQUENCIES 12
116.5547
500.1235
701.8348
859.8753
982.0370
1269.5595
1435.6239
1438.7728
1598.0111
2862.8497
3015.0138
3039.9155

SYMMETRY CS
ELECTRONIC_STATE 1-A'
