5
Energy =   -77.9032838731     
    C    0.053911   -0.583403    0.000000
    H    0.965386   -1.176035    0.000000
    H   -0.874019   -1.165181    0.000000
    C    0.033792    0.717865    0.000000
    H   -0.658646    1.541859    0.000000

FREQUENCIES 9
647.1276
821.8075
926.2108
971.9346
1377.6028
1637.9438
2980.7279
3098.3719
3232.5118

SYMMETRY CS
ELECTRONIC_STATE 3-A'
