5
Energy =   -77.9586140690     
    C   -0.091948   -0.510292    0.000000
    H    0.951276   -0.887173    0.000000
    H   -0.824346   -1.325841    0.000000
    C   -0.469918    0.785812   -0.000000
    H    0.434858    1.433875   -0.000000

FREQUENCIES 9
860.6309
929.9596
1078.5199
1204.7221
1383.6260
1529.3935
2742.8149
2829.6837
2957.0172

SYMMETRY CS
ELECTRONIC_STATE 1-A'
