8
Energy =   -229.379662460     
C -0.659815000  0.885731000  0.107537000
C  0.055128000 -1.144478000 -0.056623000
O -1.066465174 -0.438390105  0.025286995
C  1.184943396 -0.405355956 -0.036377351
C  0.690054209  0.945015510  0.073362060
H -1.447690668  1.613669412  0.181507877
H  2.208377108 -0.735741001 -0.088879219
H  1.290786079  1.840586630  0.119732905

FREQUENCIES 18
451.9843
604.4458
760.8379
812.2684
848.2371
865.2036
903.4592
988.1127
1004.0969
1086.5067
1162.8416
1233.4959
1351.1859
1449.4596
1574.7377
3191.0792
3224.0014
3245.6555

SYMMETRY CS
ELECTRONIC_STATE 3-A'
