8
Energy =   -229.462586019     
C  0.216233000  1.071526000 -0.137211000
C -0.683201000 -0.906135000  0.107125000
O -0.998784333  0.475379806 -0.023171690
C  0.642670971 -1.195265792  0.080489580
C  1.209868478  0.141906596 -0.082963454
H  0.200194917  2.146355990 -0.248402112
H -1.578960832 -1.502719186  0.207549709
H  2.264089848  0.384971649 -0.153371074

FREQUENCIES 18
605.5430
614.0512
670.5707
720.0431
794.2822
849.0637
863.4778
918.8665
1030.3233
1072.7486
1139.5122
1247.5969
1323.3524
1435.8776
1494.4900
3128.5152
3180.1860
3187.8630

SYMMETRY CS
ELECTRONIC_STATE 1-A'
