5
Energy =   -115.086670139     
    C    0.425812   -0.309843    0.783547
    H    0.368651    0.889937   -0.713063
    H    0.528592   -1.355205    1.035208
    H   -0.226901    0.344603    1.347333
    O    0.664481   -0.022910   -0.520877

FREQUENCIES 9
487.5569
501.8406
1062.3088
1199.1601
1355.8033
1462.4313
3079.7865
3229.2335
3414.9051

SYMMETRY C1
ELECTRONIC_STATE 3-A
