5
Energy =   -115.086670328     
    C   -0.435113   -0.318033   -0.748243
    H    0.943049    0.848245   -0.095507
    H   -1.007046    0.533430   -1.095201
    H   -0.903954   -1.273042   -0.560833
    O    0.686510   -0.093123   -0.018104

FREQUENCIES 9
488.7725
501.9581
1062.4460
1197.9896
1355.5869
1462.2404
3078.5261
3228.1364
3413.1643

SYMMETRY C1
ELECTRONIC_STATE 3-A
