6
Energy =   -78.4790481417     
C  0.880924772  0.241131042 -0.443180653
C -0.345049940 -0.441246828 -0.046262311
H -1.167661380  0.262297277  0.154841097
H -0.210508977 -1.044278691  0.864977378
H -0.705983058 -1.127103336 -0.821684783
H  1.535616437  0.968577178  0.012821874

FREQUENCIES 12
161.1432
736.8381
985.7882
1052.4910
1099.0408
1366.0426
1431.0527
1433.9726
2894.7099
2949.7356
2994.0250
3199.2450

SYMMETRY CS
ELECTRONIC_STATE 4-A"
