7
Energy =   -153.855253115     
    C   -0.166978    0.084504    0.241245
    C   -1.112500   -0.398721   -0.562080
    H   -1.938240   -0.954718   -0.135886
    H    1.462979    1.042457    0.576445
    H   -1.084522   -0.254100   -1.633557
    H   -0.206419   -0.067656    1.315843
    O    0.899811    0.789114   -0.188321

FREQUENCIES 15
427.0872
482.8494
694.8571
817.5481
962.2278
1009.2199
1159.2986
1279.7685
1330.3377
1436.0720
1698.0358
3106.4465
3116.6181
3204.3512
3353.0057

SYMMETRY CS
ELECTRONIC_STATE 2-A'
