6
Energy =   -78.4880978009     
    C    0.825056   -0.353915    0.009125
    C   -0.603322   -0.410227    0.200606
    H   -1.073685   -0.109208    1.133007
    H    1.473741   -1.192334    0.248892
    H   -1.277587   -0.756372   -0.578353
    H    1.321001    0.529630   -0.384085

FREQUENCIES 12
397.9508
397.9508
721.9923
916.4301
916.4301
1132.1198
1405.1752
1424.0847
3040.7812
3043.5973
3137.7539
3137.7539

SYMMETRY D2D
ELECTRONIC_STATE 4-A1
