6
Energy =   -78.5209891105     
    C    0.284646    0.696138   -0.127383
    C   -0.568049   -0.565289   -0.135239
    H   -0.855366   -0.882676    0.875387
    H   -0.065056   -1.446740   -0.594711
    H   -1.522869   -0.459961   -0.699140
    H    0.516986    0.923640   -1.194770

FREQUENCIES 12
311.7830
855.1916
877.1332
913.1555
1195.1092
1322.3624
1445.0161
1464.6595
2716.6056
2733.3996
2776.4150
2940.9701

SYMMETRY C1
ELECTRONIC_STATE 2-A
