6
Energy =   -78.5209908727     
    C    1.157648    0.302070    0.149656
    C   -0.203263   -0.374576    0.233905
    H   -1.052139    0.333862    0.371644
    H   -0.270073   -1.080529    1.071933
    H   -0.472559   -0.961987   -0.673770
    H    1.112093    0.989756   -0.728024

FREQUENCIES 12
312.9495
855.0844
877.4410
913.6924
1194.2095
1323.1796
1445.5217
1465.0509
2713.9074
2732.6855
2775.6285
2938.7909

SYMMETRY CS
ELECTRONIC_STATE 2-A"
