6
Energy =   -78.4790481545     
C  0.206681846  0.600738018 -0.289360582
C -0.593319603 -0.610140146 -0.148191133
H -0.839047616 -0.823702900  0.898639496
H -0.073586980 -1.500602699 -0.534157209
H -1.551766605 -0.541645317 -0.685502191
H  0.641513294  1.140344459 -1.117266507

FREQUENCIES 12
160.1154
736.5866
985.7051
1052.3831
1099.0840
1365.9565
1431.0084
1433.9426
2895.0545
2950.1213
2994.4727
3199.4982

SYMMETRY CS
ELECTRONIC_STATE 4-A"
