6
Energy =   -78.4790478467     
    C    0.998623    0.329124    0.027958
    C   -0.253875   -0.391341    0.226627
    H   -1.100748    0.288584    0.405473
    H   -0.210654   -1.067270    1.088439
    H   -0.519354   -1.011321   -0.643214
    H    1.357715    1.060822   -0.679940

FREQUENCIES 12
156.6439
735.8342
985.3200
1052.2729
1098.1902
1365.3324
1430.8394
1433.8923
2897.0450
2952.5422
2996.2937
3200.4962

SYMMETRY CS
ELECTRONIC_STATE 4-A"
