8
Energy =   -191.878934332     
    C   -0.102607    1.536763   -0.500978
    C    0.324524    0.268854    0.127515
    C   -0.871028    0.222407   -0.760883
    H    1.968806    0.389045   -0.834031
    H   -0.787429   -0.236908   -1.747532
    H    0.194009    0.074792    1.194688
    H   -1.848307    0.033081   -0.300805
    O    1.580727   -0.315161   -0.297574

FREQUENCIES 18
355.1438
367.8371
398.5564
674.7030
786.5689
821.6029
890.1495
953.5347
963.0512
1051.3512
1185.9171
1250.8714
1342.5688
1432.1888
2939.1785
2985.3519
3013.3600
3716.4738

SYMMETRY C1
ELECTRONIC_STATE 2-A
