8
Energy =   -191.811399078     
    C   -1.118305   -1.179851    0.735494
    C    0.723151    0.523804    0.577986
    C   -0.639195   -0.066287    0.251817
    H    0.604968    1.346963    1.329941
    H    1.365756   -0.176256    1.137244
    H   -0.829376   -1.987261    1.386028
    H   -1.240769    0.550302   -0.412072
    O    1.403930    1.066810   -0.455477

FREQUENCIES 18
70.0847
325.2618
422.8621
559.0491
758.7759
797.3918
892.1687
994.9869
1051.0806
1108.8626
1240.6264
1287.8018
1340.6356
1621.5824
2670.5255
2913.6824
3099.1079
3243.5160

SYMMETRY C1
ELECTRONIC_STATE 4-A
