8
Energy =   -191.852144892     
    C   -1.902649   -0.806300    0.206819
    C    0.337381    0.042173   -0.255356
    C   -0.607899   -0.570878    0.555058
    H    1.834951   -0.034497    0.972984
    H   -0.277757   -0.886150    1.541852
    H    0.100908    0.386565   -1.250043
    H   -2.547991   -0.644220   -0.639596
    O    1.626604    0.281680    0.072145

FREQUENCIES 18
246.9455
301.9032
402.3845
526.5077
565.0496
779.9722
844.7419
983.2390
1065.3934
1222.8504
1255.6892
1296.7077
1403.9428
1493.3472
3104.1221
3197.7279
3237.8366
3430.0944

SYMMETRY C1
ELECTRONIC_STATE 4-A
