8
Energy =   -191.790253676     
    C   -0.845516    0.469709   -0.089403
    C    0.607097    0.455133   -0.026434
    C   -1.691671   -0.174812   -0.910301
    H    2.085022   -0.126321    1.112371
    H    0.982986    0.056342   -0.992298
    H    1.000446    1.492257    0.025774
    H   -1.487335   -0.999890   -1.597672
    O    1.121810   -0.298011    1.061877

FREQUENCIES 18
125.2255
257.2861
339.5238
404.9908
564.8308
830.2541
897.4707
1020.8800
1049.4218
1183.3661
1216.0713
1385.0799
1402.6484
1532.8155
2804.4129
2819.5135
3016.5456
3444.6468

SYMMETRY C1
ELECTRONIC_STATE 4-A
