8
Energy =   -191.904304104     
    C   -1.721743    0.354374    0.519751
    C    0.391328    0.430774   -0.850143
    C   -1.001919   -0.044846   -0.532423
    H    1.038619   -0.945248    0.335993
    H    0.551144    0.571105   -1.926342
    H    0.578480    1.380859   -0.339316
    H   -1.372726   -0.815929   -1.235911
    O    1.413410   -0.529659   -0.448360

FREQUENCIES 18
120.7754
337.1808
403.5246
420.1440
717.5053
893.3810
937.3169
1015.8846
1173.0629
1215.8320
1301.8521
1382.1051
1489.3735
1529.9212
2824.3572
2960.4516
3002.9531
3787.2249

SYMMETRY C1
ELECTRONIC_STATE 2-A
