8
Energy =   -191.811471925     
    C   -0.058673    1.313488   -1.709086
    C    0.440123   -0.367047    0.044717
    C   -0.656121    0.321182   -0.732003
    H    1.513233    1.022017   -0.541229
    H   -1.287452   -0.447231   -1.219252
    H    0.258154   -1.052193    0.870394
    H   -1.351871    0.837103   -0.018170
    O    1.601302    0.345553    0.185029

FREQUENCIES 18
157.6162
301.3233
498.9939
645.2470
770.9079
840.7887
865.0347
934.2507
1071.5146
1161.4381
1177.1068
1303.4618
1415.1260
1466.5298
2609.3041
2809.7731
3072.7872
3173.4176

SYMMETRY C1
ELECTRONIC_STATE 4-A
