9
Energy =   -230.033985603     
    C    0.349579   -1.248802    0.627814
    C   -0.027134    0.646125   -0.836904
    O   -0.475435   -0.865422    1.624926
    C   -0.531587    1.700061   -1.137911
    C    0.582893   -0.587645   -0.515567
    H    0.833364   -2.190133    0.843924
    H   -0.887862   -0.019628    1.389227
    H   -0.974160    2.627491   -1.405733
    H    1.277540   -1.029014   -1.224642

FREQUENCIES 21
125.2827
276.1263
365.6840
511.4286
616.6107
649.0362
695.4168
728.2072
799.0236
948.7398
962.5846
1089.6779
1215.6412
1353.4220
1420.0095
1662.7855
2165.1246
3095.2813
3194.1000
3438.1107
3656.8625

SYMMETRY C1
ELECTRONIC_STATE 2-A
