9
Energy =   -229.939439445     
    O   -2.862818    1.081987    0.274244
    C    1.814092   -0.014248    0.009121
    C    0.363815   -0.039877   -0.010391
    C   -0.858644   -0.032318   -0.013592
    C   -2.231110   -0.054379   -0.028597
    H    2.207387    0.152325    1.019466
    H    2.214654    0.772851   -0.641928
    H    2.221531   -0.963823   -0.344813
    H   -2.869007   -0.902517   -0.263512

FREQUENCIES 21
20.3248
95.1682
173.7478
216.4203
290.6465
381.6495
434.5307
756.9449
1024.2894
1027.7742
1111.7715
1191.3439
1340.0416
1391.3810
1440.4314
1442.3899
2110.3551
2938.7014
2991.7280
3029.9613
3089.2088

SYMMETRY C1
ELECTRONIC_STATE 4-A
