9
Energy =   -230.079697622     
    C   -1.189475    0.202971    0.510805
    C    2.346349   -0.405504   -0.229319
    O   -1.536524   -0.997713    0.597463
    C    1.138495    0.067742   -0.437020
    C    0.047637    0.739668    0.073677
    H   -1.920191    0.992167    0.807048
    H    2.824778   -0.384536    0.762343
    H    2.945072   -0.868427   -1.012126
    H    0.087274    1.828042    0.038430

FREQUENCIES 21
66.3731
219.6476
249.3029
425.4998
541.6009
665.4356
801.3810
851.8879
887.4349
925.9827
1036.1513
1106.0662
1370.5664
1381.0073
1459.0246
1582.9047
1772.6969
2768.8100
2898.0467
3050.7021
3071.6701

SYMMETRY C1
ELECTRONIC_STATE 2-A
