9
Energy =   -230.080963862     
    C   -0.000000    1.093270    0.340763
    C    0.000000   -1.093270    0.340763
    O    0.000000   -0.000000    1.153660
    C   -0.000000   -0.715415   -0.959508
    C    0.000000    0.715415   -0.959508
    H   -0.000000    2.049839    0.834326
    H    0.000000   -2.049839    0.834326
    H   -0.000000   -1.371457   -1.815528
    H    0.000000    1.371457   -1.815528

FREQUENCIES 21
612.2173
612.3211
730.9556
774.8359
860.4732
865.6151
880.7211
894.3099
1001.2556
1049.2203
1076.3379
1159.9914
1186.7068
1285.8087
1408.6163
1505.9535
1586.6752
3200.1897
3204.5892
3234.7237
3236.7142

SYMMETRY C2V
ELECTRONIC_STATE 2-A1
