9
Energy =   -230.020346191     
    C    1.317170    0.272567   -0.058367
    C   -2.066596   -0.545679   -0.681362
    O    1.865970    0.150776    0.989822
    C   -1.161021   -0.035276    0.160127
    C   -0.044360    0.897427   -0.321207
    H   -0.040439    1.854184    0.224149
    H   -2.813892   -1.149133   -0.133022
    H   -1.093527   -0.217658    1.244441
    H   -0.177787    1.076443   -1.384579

FREQUENCIES 21
89.5858
113.3380
279.2810
436.3752
476.6045
638.7922
799.8273
842.9690
918.6228
968.2906
1064.0076
1143.5147
1210.3393
1272.5833
1444.2851
1510.9794
1836.1092
2854.2786
2916.6069
2929.0083
3106.9949

SYMMETRY C1
ELECTRONIC_STATE 2-A
