9
Energy =   -230.018813708     
    C   -1.483307    0.036865    0.681065
    C    0.996410   -0.376093    0.000056
    O    1.457306    0.773567   -0.000036
    C   -0.386340   -0.812340    0.000020
    C   -1.483277    0.036869   -0.681070
    H   -1.286012    0.861044    1.369263
    H   -0.487756   -1.897074    0.000010
    H    1.720689   -1.230694   -0.000053
    H   -1.285952    0.861051   -1.369255

FREQUENCIES 21
147.0025
246.4078
307.7784
591.6351
646.1616
696.9987
849.5485
866.4387
933.0697
943.0295
1006.6693
1059.0749
1064.9825
1299.0519
1377.8268
1451.7689
1627.7551
2728.8858
2976.2453
3021.7977
3034.5550

SYMMETRY CS
ELECTRONIC_STATE 2-A"
