9
Energy =   -229.977919848     
    C   -1.354838    0.296662    0.355766
    C    2.438268   -0.401654   -0.185158
    O   -1.934173   -0.817719    0.294212
    C    1.067289   -0.406127    0.037766
    C    0.075028    0.498902    0.268235
    H   -1.932859    1.212565    0.577852
    H    3.028438    0.504517   -0.045916
    H    2.962724   -1.250780   -0.614548
    H    0.393537    1.538043    0.423090

FREQUENCIES 21
122.0525
150.9104
276.4664
319.3240
432.3139
533.6923
669.3242
720.9335
813.7161
855.3776
987.1395
1048.8023
1225.5791
1314.7269
1419.1305
1468.5051
1520.5794
2878.8027
2973.7076
3029.7301
3122.1973

SYMMETRY C1
ELECTRONIC_STATE 4-A
