9
Energy =   -229.932994974     
    C   -0.970983    0.617159   -0.000000
    C    0.268074   -1.177285    0.000000
    O   -1.030875   -0.778056    0.000000
    C    1.260336   -0.057818   -0.000000
    C    0.269539    1.088851    0.000000
    H   -1.929523    1.109927   -0.000000
    H    1.923981   -0.047370    0.879321
    H    1.923981   -0.047370   -0.879321
    H    0.547177    2.131936    0.000000

FREQUENCIES 21
199.1060
464.7889
734.6737
744.9256
797.7393
906.0094
930.9587
957.0198
961.5966
997.4765
1098.9730
1136.1969
1166.0335
1251.1907
1336.0513
1452.3962
1652.0571
2889.2192
2900.1298
3190.5347
3220.4682

SYMMETRY CS
ELECTRONIC_STATE 4-A"
