3
Energy =   -76.7502549554     
    H    0.000000    0.000000    1.563249
    C    0.000000    0.000000    0.495617
    C    0.000000    0.000000   -0.743181

FREQUENCIES 4
544.4041
544.4041
1887.9201
3367.5458

SYMMETRY C*V
ELECTRONIC_STATE 1-SG
