3
Energy =   -76.7136552887     
    H    0.000000   -0.000000    1.010263
    C    0.000000    0.636314   -0.078837
    C   -0.000000   -0.636314   -0.078837

FREQUENCIES 3
636.9138
1790.7004
2348.7771

SYMMETRY C2V
ELECTRONIC_STATE 1-A1
