3
Energy =   -76.6134380668     
    H   -0.902950   -1.161938   -0.000000
    C    0.078742    0.770883    0.000000
    C    0.073904   -0.571932   -0.000000

FREQUENCIES 3
832.0660
1257.9764
2288.1150

SYMMETRY CS
ELECTRONIC_STATE 3-A'
