4
Energy =   -152.069001687     
    C    0.320304   -0.184456    0.109517
    C   -0.851746    0.185289    0.366136
    H   -1.710924   -0.090577    0.934952
    O    1.467482   -0.425423   -0.222993

FREQUENCIES 6
411.8310
587.8520
600.3845
1240.4608
2079.0621
3358.8757

SYMMETRY C1
ELECTRONIC_STATE 1-A
