4
Energy =   -151.938458352     
    C   -0.790881   -0.337715   -0.160438
    C   -0.039408    0.769541    0.294636
    H    0.177948    0.678843    1.371552
    O    0.480876   -0.615427   -0.428425

FREQUENCIES 6
479.9182
702.4998
828.4386
1096.6141
1398.1899
2914.6054

SYMMETRY C1
ELECTRONIC_STATE 1-A
