5
Energy =   -190.030833180     
    C   -0.011980    0.494962   -0.373224
    C    0.054545   -0.794320   -0.107239
    C    0.084265   -2.070787    0.062356
    H    0.618596    1.372973    1.197125
    O    0.290938    1.645435    0.328638

FREQUENCIES 9
38.6748
207.7684
381.8532
537.7653
845.0391
1229.9699
1325.8049
1713.1943
3690.4876

SYMMETRY CS
ELECTRONIC_STATE 3-A"
