6
Energy =   -228.278344014     
    C   -0.981500   -0.217722   -1.036180
    C    0.787584    0.096800    0.826593
    C   -0.130816   -0.066269   -0.140310
    C    1.625254    0.245727    1.708626
    H    2.354193    0.364133    2.467263
    O   -1.809615   -0.366069   -1.908214

FREQUENCIES 13
99.0699
99.0699
351.5876
351.5877
508.4841
508.4841
553.8275
553.8275
750.3480
1491.4540
2090.3578
2266.9846
3476.6351

SYMMETRY C*V
ELECTRONIC_STATE 1-SG
