6
Energy =   -228.077468985     
C -0.058731000  0.219316000 -0.031870000
C  0.912729000 -0.139706000  0.923905000
C -0.830294697  1.108967674 -0.718282556
C  1.325402833 -1.412310755  1.195221225
H  1.324311102  0.734887969  1.452305891
O -0.827937671 -0.454508500 -0.903871683

FREQUENCIES 12
170.8405
237.5722
396.8229
473.3185
576.9560
761.8668
907.0363
1094.8969
1224.5109
1426.5163
1662.8391
2899.4410

SYMMETRY CS
ELECTRONIC_STATE 3-A"
