3
Energy =   -113.875079888     
    C   -0.849822   -0.124008    0.000000
    H   -1.477524   -1.045699    0.000000
    O    0.397162   -0.088103    0.000000

FREQUENCIES 3
1026.8367
1443.5811
2699.5110

SYMMETRY CS
ELECTRONIC_STATE 3-A"
