3
Energy =   -113.875080007     
    C   -0.815678   -0.255606    0.000000
    H   -1.191729   -1.305517    0.000000
    O    0.382377    0.091519    0.000000

FREQUENCIES 3
1027.1785
1444.3672
2698.6354

SYMMETRY CS
ELECTRONIC_STATE 3-A"
