2
Energy =   -75.7357763561     
    H   -0.858110    0.000000    0.000000
    O    0.141929    0.000000    0.000000

FREQUENCIES 1
3185.5550

SYMMETRY C*V
ELECTRONIC_STATE 3-PI
