1
Energy =   -37.2383194349     
  C            0.00000000          0.00000000          0.00000000

FREQUENCIES 0

SYMMETRY R3
ELECTRONIC_STATE 4-P
