1
Energy =   -36.3045032009     
  C            0.00          0.00          0.000

FREQUENCIES 0

SYMMETRY R3
ELECTRONIC_STATE 3-P
