2
Energy =   -75.4388940165     
    C    0.780480    0.000000    0.000000
    C   -0.780480    0.000000    0.000000

FREQUENCIES 1
973.0029

SYMMETRY D*H
ELECTRONIC_STATE 2-DLTG
