3
Energy =   -130.795136345     
C  1.411482000  0.006736000  0.000000000
C  0.023481000  0.017450000  0.000000000
N -1.161391000  0.027566000  0.000000000

FREQUENCIES 4
328.7422
439.3893
1009.1130
1961.1614

SYMMETRY C*V
ELECTRONIC_STATE 2-PI
