3
Energy =   -114.083529632     
    C    1.290898    0.000000   -0.000000
    C   -0.000000   -0.000000    0.000000
    C   -1.290898    0.000000   -0.000000

FREQUENCIES 4
154.6817
154.6817
1226.0212
2119.4308

SYMMETRY D*H
ELECTRONIC_STATE 1-SGG
