3
Energy =   -112.897875369     
C  0.000014544 -0.000036543 -0.000000000
C  1.179465728  0.469451771 -0.000000000
C -1.179480272 -0.469415228  0.000000000

FREQUENCIES 4
214.4285
214.4285
1321.2505
2163.6121

SYMMETRY D*H
ELECTRONIC_STATE 3-SGU
