3
Energy =   -112.823299405     
    C    0.000000    0.000000    0.000000
    C    0.000000    0.000000    1.300874
    C    0.000049    0.000000    2.601747

FREQUENCIES 4
151.0978
151.0978
1166.8667
1518.6865

SYMMETRY C*V
ELECTRONIC_STATE 1-SG
