4
Energy =   -168.830780052     
    C   -1.676021    0.049963   -0.000000
    C   -0.373316   -0.054994   -0.000000
    C    0.992067    0.683282    0.000000
    N    0.906231   -0.581358    0.000000

FREQUENCIES 6
222.7777
292.7721
582.7000
870.2563
1458.2485
1803.9233

SYMMETRY CS
ELECTRONIC_STATE 2-A"
