4
Energy =   -168.908326105     
    C    0.007275   -0.615986    0.000000
    C   -0.188516    0.720049    0.000000
    C    0.017557    1.964147    0.000000
    N    0.139556   -1.772794    0.000000

FREQUENCIES 6
229.1207
440.2630
501.7336
899.7751
1564.2566
2150.7660

SYMMETRY CS
ELECTRONIC_STATE 2-A'
