4
Energy =   -151.043551970     
C  0.553916490 -0.541901802  0.184622919
C -0.553958588  0.541862006 -0.184611945
C -0.823663950 -0.768835104  0.214718009
C  0.823706049  0.768873900 -0.214728984

FREQUENCIES 6
375.9891
719.2254
811.3675
1291.9934
1383.7209
1443.8265

SYMMETRY D2H
ELECTRONIC_STATE 3-B1U
