5
Energy =   -206.935199914     
    C    1.558248    0.653702    0.000000
    C    0.217352    0.058012    0.000000
    C   -1.077132    0.001754   -0.000000
    C   -2.360900    0.003355   -0.000000
    N    1.424941   -0.614419    0.000000

FREQUENCIES 9
158.5929
169.5083
454.2978
531.7938
688.2030
771.9435
1284.6824
1664.5828
2008.1024

SYMMETRY CS
ELECTRONIC_STATE 2-A'
