5
Energy =   -206.954151683     
    C   -2.074924    1.175515    0.000000
    C   -0.749324    1.175515    0.000000
    C    0.528309    1.175515    0.000000
    C    1.786816    1.175515    0.000000
    N   -3.249199    1.175515    0.000000

FREQUENCIES 10
132.3017
132.3133
416.6151
416.6151
468.3630
468.3649
765.4924
1558.7269
1752.4858
2070.6216

SYMMETRY C*V
ELECTRONIC_STATE 4-SG
