5
Energy =   -206.909285645     
    C   -2.279482   -0.720662   -0.380167
    C    2.427678    0.790956    0.368393
    C    1.236077    0.408370    0.178980
    C    0.042282    0.024975   -0.010874
    N   -1.155373   -0.359670   -0.201367

FREQUENCIES 10
104.8411
104.8412
336.9361
336.9361
382.0561
382.0562
800.3061
1547.3603
1815.1780
1966.7765

SYMMETRY C*V
ELECTRONIC_STATE 4-SG
