5
Energy =   -206.847591293     
C -0.761791000  0.853686000 -0.017072000
C  0.737193000  0.815321000  0.003949000
C -0.062501502 -0.775523116  0.010955994
C -1.339303277 -0.374906949 -0.011110056
N  1.211041096 -0.446465373  0.024725768

FREQUENCIES 9
408.4820
439.8796
606.9660
674.8320
888.5584
969.8081
1073.3236
1351.9261
1606.9351

SYMMETRY CS
ELECTRONIC_STATE 4-A"
