5
Energy =   -206.733812570     
C  0.806369264 -0.145967479  0.275110074
C -0.130444519 -1.028141233 -0.340871956
C  0.644248265  1.116909086 -0.504998598
C -0.610505736  0.307681521 -0.483711926
N -0.554741520 -0.238070053  0.923707633

FREQUENCIES 9
497.7495
578.0193
649.9080
650.0297
844.6152
916.1722
1019.4783
1036.1291
1398.0593

SYMMETRY CS
ELECTRONIC_STATE 4-A'
