5
Energy =   -206.853383829     
    C    0.438282   -0.718107   -0.675602
    C    1.559164   -0.223091   -0.073481
    C   -0.545415    0.181688   -0.027168
    C    0.636208    0.134491    0.866877
    N   -1.685711    0.648991   -0.139113

FREQUENCIES 9
284.6152
377.3748
545.3684
612.8942
625.7323
930.4531
1094.7083
1445.4961
1736.1585

SYMMETRY CS
ELECTRONIC_STATE 4-A'
