5
Energy =   -189.232084800     
    C    0.000023    0.000013    0.000061
    C   -2.514524    0.152639    0.279125
    C   -1.281511    0.077768    0.142377
    C    2.514515   -0.152665   -0.279244
    C    1.281498   -0.077756   -0.142319

FREQUENCIES 10
143.8369
143.8370
275.0234
275.0235
642.6527
642.6528
807.7575
1586.7399
2132.7899
2262.9043

SYMMETRY D*H
ELECTRONIC_STATE 3-SGU
