5
Energy =   -189.842680759     
    C    2.542511   -0.000000    0.000000
    C    1.281338    0.000000   -0.000000
    C    0.000000    0.000000    0.000000
    C   -1.281338    0.000000    0.000000
    C   -2.542511   -0.000000    0.000000

FREQUENCIES 10
154.2542
154.2542
274.0852
274.0852
696.1331
696.1331
807.3300
1588.5729
2093.2010
2994.0157

SYMMETRY D*H
ELECTRONIC_STATE 2-SGU
