6
Energy =   -227.319388339     
C -0.334166758  0.927024880 -0.629663352
C -1.430421816  0.247431013 -0.546312130
C -0.916068339 -0.710762552  0.152169078
C  0.916068005  0.710761885 -0.152168744
C  1.430421483 -0.247431679  0.546312463
C  0.334166425 -0.927025547  0.629663686

FREQUENCIES 12
286.1173
355.3214
465.3486
504.6222
511.1822
524.0001
1153.3769
1190.4700
1568.3875
1669.3157
1674.1282
1853.4885

SYMMETRY D2H
ELECTRONIC_STATE 1-AG
