6
Energy =   -227.915624839     
    C    1.013722   -0.019417    0.630059
    C   -1.168399    0.348730   -0.534534
    C   -0.127924   -0.063958    1.317166
    C   -1.435212    0.063378    1.129354
    C    0.138890    0.221367   -0.346744
    C   -2.310050    0.304177    0.152561

FREQUENCIES 12
276.9863
416.1910
459.2793
499.3816
552.5352
744.7661
935.6972
1174.8338
1351.3365
1391.0130
1479.6398
1888.6060

SYMMETRY D2H
ELECTRONIC_STATE 2-AG
