6
Energy =   -227.176602960     
    C    0.717504   -0.742222   -0.271234
    C   -0.539806   -1.119254   -0.440206
    C   -1.170428    0.216468    0.055477
    C   -0.076751    0.216195    1.085740
    C   -0.036328    0.889487   -0.661577
    C    1.105808    0.539325    0.231799

FREQUENCIES 12
244.5018
427.3554
484.9792
512.7959
643.0186
722.4432
736.6173
846.8411
917.9347
1072.6109
1161.3284
1493.7069

SYMMETRY C1
ELECTRONIC_STATE 3-A
