6
Energy =   -227.882240009     
    C    0.944518    0.404742   -0.003258
    C   -0.452597    0.766763   -0.512907
    C   -0.944518   -0.404742    0.003258
    C    0.452597   -0.766763    0.512907
    C   -0.653321   -1.555972    0.685571
    C    0.653322    1.555972   -0.685571

FREQUENCIES 12
194.2811
411.2305
444.6049
520.1517
635.8329
713.9073
863.8464
950.4178
1188.3537
1252.9065
1327.0482
1756.2725

SYMMETRY D2H
ELECTRONIC_STATE 2-B3G
