6
Energy =   -227.134834615     
C  0.813766906 -0.751254489 -0.272418947
C -0.545463508 -0.931065857 -0.369321476
C -1.213303755  0.206161726  0.054563722
C -0.094090738  0.157521789  1.027491843
C -0.059674100  0.806613717 -0.659711277
C  1.098764195  0.512023114  0.219396136

FREQUENCIES 12
141.8390
288.7410
432.7202
473.2110
513.9097
705.9091
763.9848
910.8192
965.4968
1249.6363
1305.0439
1377.4593

SYMMETRY C2V
ELECTRONIC_STATE 1-A1
