6
Energy =   -228.239750697     
    C    0.161916   -0.008143   -0.091426
    C   -1.539763    0.028136    3.470743
    C   -0.758505    0.010189    2.457707
    C    0.099057   -0.009645    1.478733
    C    1.278420   -0.038111    0.743468
    C   -0.795907    0.017891   -0.987589

FREQUENCIES 12
142.0668
153.8868
244.0369
246.7892
440.6804
488.8643
509.7866
807.8313
994.4308
1469.7206
1716.5624
2064.6930

SYMMETRY CS
ELECTRONIC_STATE 1-A'
