6
Energy =   -227.794894924     
    C    0.653371   -0.658648   -0.239585
    C   -0.578096   -1.131560   -0.446978
    C   -1.177225    0.201088    0.050392
    C   -0.060663    0.176684    1.023532
    C   -0.022534    0.817687   -0.642423
    C    1.185146    0.594748    0.255062

FREQUENCIES 12
117.9536
396.3420
402.3203
515.3079
718.1262
745.8793
750.6809
771.1982
852.7140
1066.2249
1148.6192
1426.8061

SYMMETRY C1
ELECTRONIC_STATE 2-A
