6
Energy =   -227.780494665     
    C    0.150852   -1.114693   -0.235194
    C    0.671734    0.929210   -0.071403
    C    0.059703   -0.010145   -1.148500
    C   -0.777193   -0.366879    0.763238
    C    0.762942   -0.175218    0.841783
    C   -0.868035    0.737724   -0.149923

FREQUENCIES 12
304.6641
403.8243
407.2061
624.5841
626.4591
763.1953
822.3934
823.7749
1004.1498
1005.3851
1035.2357
1306.1096

SYMMETRY C1
ELECTRONIC_STATE 4-A
