7
Energy =   -265.906166858     
    C   -0.822582   -0.369360   -1.161169
    C   -0.736883    1.019982   -1.027868
    C    1.308651   -0.178684    1.874681
    C    0.057263   -0.032567    1.432584
    C   -0.035551    0.158093   -0.036562
    C   -1.074002   -1.619170   -1.528968
    C    1.316229   -0.025303    0.548334

FREQUENCIES 15
114.6344
136.3254
245.2653
342.6727
385.8469
504.5650
514.1813
600.9101
807.5388
868.5790
978.5651
1181.7329
1270.2874
1685.5769
1710.6186

SYMMETRY C1
ELECTRONIC_STATE 2-A
