7
Energy =   -265.275279464     
    C   -1.192439   -0.701282    0.372519
    C    1.025139    0.647352   -0.374708
    C    0.379763    1.278696   -1.432876
    C    0.098200   -0.232065    0.331610
    C   -2.458344   -0.651441   -0.222985
    C    2.367099    0.825290   -0.033577
    C   -0.219418   -1.166551    1.360017

FREQUENCIES 15
74.9977
78.1868
178.8500
224.2568
271.1651
280.0759
418.7249
505.0886
667.4242
788.7614
915.8656
1127.1519
1311.5275
1435.8817
1640.0127

SYMMETRY C1
ELECTRONIC_STATE 1-A
