7
Energy =   -265.397627653     
    C   -0.675872   -1.850526    1.439895
    C    0.484127    1.135732   -0.966229
    C   -0.310586   -0.767647    0.632446
    C   -0.785741    0.594350    0.735080
    C    1.092576    0.030449   -1.314501
    C    0.585190   -0.764817   -0.439303
    C   -0.389694    1.622457   -0.087386

FREQUENCIES 15
170.3221
172.5565
386.1232
410.2839
476.8310
535.3854
544.8279
557.8752
853.0345
969.8320
1168.9171
1275.9650
1440.1221
1625.5942
1758.1492

SYMMETRY C1
ELECTRONIC_STATE 3-A
