7
Energy =   -266.027265171     
    C   -1.691873   -0.000000   -0.000000
    C   -0.944002    1.179902    0.000000
    C   -0.944002   -1.179902   -0.000000
    C    0.310703   -1.330220   -0.000000
    C    0.310703    1.330220    0.000000
    C    1.474235    0.712869    0.000000
    C    1.474235   -0.712869   -0.000000

FREQUENCIES 15
113.6865
306.5243
349.2557
453.0849
507.8456
508.9339
528.5144
599.2160
749.4690
992.7695
1130.2934
1156.6454
1415.1765
1664.4509
1810.2722

SYMMETRY C2V
ELECTRONIC_STATE 4-B2
