7
Energy =   -265.922808139     
    C   -0.687961   -0.945433    1.632836
    C    0.342366   -0.437362   -0.705185
    C   -0.135817   -1.165861    0.438489
    C   -0.516335    0.269633    1.109321
    C   -0.010331    0.893745   -0.083061
    C    0.889889   -0.763551   -1.876794
    C    0.118189    2.148831   -0.515604

FREQUENCIES 15
122.2919
163.0895
192.3830
227.8697
460.9754
470.1076
541.7825
616.1158
745.4342
794.0458
950.9599
1311.4739
1590.6769
1622.4486
1752.9388

SYMMETRY C2
ELECTRONIC_STATE 2-A
