7
Energy =   -265.501229375     
C -2.626679640 -2.284619609  1.705823561
C  2.805567469  2.014000820 -1.761067039
C  1.824333364  1.502411817 -0.986528248
C -1.909344574 -1.373808993  1.012780674
C -0.970438129 -0.673471865  0.518733667
C  0.904350965  0.773446740 -0.498325264
C -0.027789454  0.042039090  0.008581649

FREQUENCIES 15
72.3799
98.0025
136.9064
214.3723
233.6207
425.3368
431.8431
572.1830
622.1261
630.9652
983.7621
1264.6416
1627.5062
1716.6092
1898.9811

SYMMETRY C2
ELECTRONIC_STATE 3-B
