7
Energy =   -265.328272280     
C  1.068584379 -0.454942274 -0.270908976
C  0.391612292  1.150626657  0.490690120
C -0.528208259 -0.003340549 -1.199609753
C  0.052497312  1.111087754 -0.787107044
C -0.399704183 -0.918960096  0.844883183
C -0.771010582 -1.042691526 -0.418505110
C  0.186229041  0.158220034  1.340557581

FREQUENCIES 15
215.0366
302.1293
302.1397
309.4289
424.3384
424.3431
621.9169
621.9203
624.9803
1224.8311
1393.4623
1393.4624
1411.5661
1688.5523
1688.5525

SYMMETRY C3V
ELECTRONIC_STATE 1-A1
