7
Energy =   -265.412088862     
    C    1.385797    1.118028    0.362003
    C    0.474539    0.138781   -0.020996
    C   -0.867656   -0.192648   -0.103028
    C    1.773336   -0.293979   -0.269615
    C   -2.061619   -0.475880   -0.198838
    C   -3.400747   -0.794498   -0.303873
    C    2.696349    0.500196    0.534348

FREQUENCIES 15
98.6549
101.5941
218.0037
251.6162
410.4278
512.0764
549.9485
611.9708
714.1807
827.6040
914.3337
1106.3234
1206.6831
1574.4832
2194.4033

SYMMETRY C1
ELECTRONIC_STATE 1-A
