8
Energy =   -304.496575850     
    C   -0.064662    1.506161    0.000000
    C   -1.298650    1.298650    0.000000
    C   -1.506161   -0.064662    0.000000
    C   -1.298650   -1.298650    0.000000
    C    0.064662   -1.506161    0.000000
    C    1.298650   -1.298650    0.000000
    C    1.506161    0.064662    0.000000
    C    1.298650    1.298650    0.000000

FREQUENCIES 18
112.4104
191.8486
346.0641
399.8474
426.5729
426.5729
486.5817
568.9357
568.9357
620.3442
969.7604
1064.1627
1064.1627
1246.8262
1905.0888
1930.4400
1932.0499
1932.0499

SYMMETRY C4H
ELECTRONIC_STATE 1-AG
