8
Energy =   -304.305892369     
C  1.203722393  0.006031539  0.803479999
C -0.000240059 -0.000426365  0.019970993
C -0.834408861 -1.794259707 -1.653499964
C -0.901666110 -1.937829237  0.888138022
C -0.771119607  0.924713539  0.803114999
C -0.610899889 -1.312381352  1.902841996
C -0.010547269 -0.021954574  1.602255004
C -0.641846597 -1.379830842 -0.425302049

FREQUENCIES 18
158.4213
174.9653
209.7397
366.8557
367.6781
492.1251
503.6379
582.3189
604.8441
704.1690
887.8322
938.5408
958.4047
1119.8591
1231.2022
1311.0873
1727.2890
2016.3321

SYMMETRY CS
ELECTRONIC_STATE 1-A'
