9
Energy =   -342.582435660     
    C    0.000000    0.000000    5.131292
    C    0.000000    0.000000    3.835730
    C    0.000000    0.000000    2.549751
    C    0.000000    0.000000    1.276408
    C    0.000000    0.000000    0.000000
    C    0.000000    0.000000   -1.276408
    C    0.000000    0.000000   -2.549751
    C    0.000000    0.000000   -3.835730
    C    0.000000    0.000000   -5.131292

FREQUENCIES 22
43.1256
47.8107
88.8917
128.9994
135.7201
217.8348
237.8669
341.7270
423.4947
427.4907
458.1447
498.5644
547.7527
579.7919
673.2371
870.0503
1253.0040
1510.5399
1594.5193
1872.7658
2033.9219
2080.4421

SYMMETRY D*H
ELECTRONIC_STATE 3-PIG
