2
Energy =   -137.486235926     
    C    0.769105    0.000000    0.000000
    F   -0.384124    0.000000    0.000000

FREQUENCIES 1
1801.9738

SYMMETRY C*V
ELECTRONIC_STATE 1-SG
