2
Energy =   -137.833659453     
    C    0.828601    0.000000    0.000000
    F   -0.443620    0.000000    0.000000

FREQUENCIES 1
1299.2136

SYMMETRY C*V
ELECTRONIC_STATE 2-PI
