3
Energy =   -237.126097430     
C  0.531126000 -0.457688000  0.000000000
F  0.503144798  0.896602940 -0.000000000
F -0.812033798 -0.633211940  0.000000000

FREQUENCIES 3
426.7468
672.2422
1143.9684

SYMMETRY C2V
ELECTRONIC_STATE 4-A2
