2
Energy =   -92.5408943302     
    C   -0.807530    0.000000    0.000000
    N    0.697353    0.000000    0.000000

FREQUENCIES 1
984.8957

SYMMETRY C*V
ELECTRONIC_STATE 4-PI
