1
Energy =   -99.7616809587     
  F            0.00000000          0.00000000          0.00000000

FREQUENCIES 0

SYMMETRY R3
ELECTRONIC_STATE 2-P
