1
Energy =   -99.1088822415     
  F            0.00000000          0.00000000          0.00000000

FREQUENCIES 0

SYMMETRY R3
ELECTRONIC_STATE 3-P
