4
Energy =   -399.041308161     
F  0.178239488 -1.048129581 -1.243362840
F  1.215127779  1.024894707  0.386459041
F -1.393367267  0.023234874  0.856903049
F  0.000000000 -0.000000000 -0.000000250

FREQUENCIES 6
148.5312
148.5371
352.8848
474.1027
474.1205
515.6629

SYMMETRY D3H
ELECTRONIC_STATE 1-A1'
