1
Energy =   0.000000000000
  H            0.00000000          0.00000000          0.00000000

FREQUENCIES   0

SYMMETRY SO3
ELECTRONIC_STATE 1-S
