5
Energy =   -113.259795900     
    C    1.514303    0.321421    0.000103
    C   -1.210071    0.201711   -0.000206
    C    0.077432   -0.352033   -0.000106
    H    0.057276   -1.538899   -0.000197
    H   -2.348064    0.513250   -0.000308

FREQUENCIES 9
213.2456
589.6770
593.5873
786.3838
873.2187
990.6376
1230.3919
2197.9688
2371.4626

SYMMETRY CS
ELECTRONIC_STATE 4-A"
