6
Energy =   -153.116357240     
    C   -1.763440   -0.000157   -0.000195
    C   -0.437805   -0.000070   -0.000077
    C    0.822980    0.000014    0.000034
    C    2.151006    0.000102    0.000151
    H   -2.318106   -0.938653   -0.000243
    H   -2.318230    0.938265   -0.000244

FREQUENCIES 12
87.6652
143.6478
392.5374
411.6360
901.3782
937.4364
953.4433
1367.2669
1515.1628
2072.7707
3070.9105
3163.7272

SYMMETRY C2V
ELECTRONIC_STATE 2-B2
