6
Energy =   -151.575013176     
C -1.850664950 -0.000178570 -0.000683083
C -0.402123849  0.000028767 -0.000275859
C  0.877684110  0.000211952  0.000083930
C  2.183429688  0.000398850  0.000451011
H -2.422923583 -0.984762020 -0.000844039
H -2.423205417  0.984241020 -0.000843961

FREQUENCIES 12
204.8529
205.9370
424.7778
430.2698
725.0269
909.1242
1090.9305
1207.4114
1315.0380
2007.1997
2606.2386
2706.2814

SYMMETRY C2V
ELECTRONIC_STATE 2-A1
