6
Energy =   -153.179592856     
    C   -1.890656    0.000451    0.000124
    C   -0.661821    0.000288   -0.000063
    C    0.661784    0.000178   -0.000223
    C    1.890620    0.000126   -0.000319
    H   -2.963462    0.000393    0.000177
    H    2.963426   -0.000135   -0.000201

FREQUENCIES 13
212.4696
218.7051
502.0504
536.2552
662.9063
665.1038
775.7276
777.9680
958.5433
1918.4854
2247.4860
3357.2758
3362.5124

SYMMETRY D*H
ELECTRONIC_STATE 2-PIG
