7
Energy =   -191.445733291     
C -0.715015000 -0.094844000  0.000084000
C  0.419926000  0.907666000  0.000075000
C  1.409609979 -0.073083978 -0.000196091
C  0.418482976 -1.060079974 -0.000204058
C -2.011087957  0.000656954  0.000270299
H  0.383557066  1.985540930  0.000232813
H  2.484952953 -0.067433950 -0.000338616

FREQUENCIES 15
185.4446
200.7975
493.8663
637.4052
689.3051
778.7063
848.3999
901.2572
960.1118
1113.3816
1238.3844
1373.5098
1745.6561
3219.5333
3268.7480

SYMMETRY CS
ELECTRONIC_STATE 3-A"
