7
Energy =   -190.525577952     
C  1.303290744 -0.282699116 -0.000596801
C -0.113036069 -0.760777031  0.000229024
C -1.435438550 -0.506476796  0.000839345
C -0.832293749  0.714812114  0.000254200
C  0.451392630  0.993961832 -0.000458922
H  1.878720336 -0.476250152  0.920521036
H  1.877788580 -0.476672886 -0.922207187

FREQUENCIES 15
199.1363
365.8228
413.2753
518.5674
663.0403
864.2671
946.0090
1024.5065
1131.1722
1212.8227
1324.2669
1527.4489
1579.5584
2950.0057
3014.7774

SYMMETRY CS
ELECTRONIC_STATE 3-A"
