7
Energy =   -191.200546163     
    C   -0.688169   -0.018950    0.000010
    C    0.527223    0.804518    0.000007
    C    1.630354    0.012827   -0.000007
    C    0.538555   -0.796516    0.000005
    C   -1.961685   -0.050588   -0.000005
    H   -2.984166    0.274363   -0.000031
    H    2.706495    0.017900   -0.000033

FREQUENCIES 15
240.7358
252.9574
408.4548
558.1486
582.8988
731.4208
759.9536
788.2306
976.2629
1034.4965
1074.1482
1587.7192
1797.7384
3295.6307
3336.1827

SYMMETRY CS
ELECTRONIC_STATE 2-A'
