7
Energy =   -191.456683999     
    C    1.543365    0.327016   -0.641024
    C    0.389088   -0.567765   -0.000511
    C   -0.948213   -0.131807   -0.000332
    C   -2.100077    0.228081   -0.000272
    C    1.543098    0.326553    0.641152
    H   -3.111871    0.550338    0.000695
    H    0.541716   -1.643190   -0.000290

FREQUENCIES 15
201.1031
204.9822
442.5895
530.8414
570.3301
638.9569
676.1517
808.5552
854.7597
1027.7962
1325.6491
1733.6616
2125.4136
3101.4654
3457.8084

SYMMETRY C1
ELECTRONIC_STATE 3-A
