7
Energy =   -189.614337663     
    C   -1.416192   -0.997399   -0.000297
    C   -0.405051    0.122861    0.000221
    C    0.937795    0.086680    0.000385
    C    2.353793   -0.319211    0.000322
    C   -0.874921    1.578180   -0.000906
    H   -1.068677   -2.050660    0.001524
    H   -2.503522   -0.775682   -0.002211

FREQUENCIES 15
134.3740
142.4185
231.5938
266.4952
405.8388
449.3319
640.3846
745.6999
924.9546
1040.1474
1164.3498
1412.1838
1524.3405
2901.4822
3023.5945

SYMMETRY C1
ELECTRONIC_STATE 2-A
