7
Energy =   -189.782516392     
C -2.285478000  0.358859000  0.000275000
C -1.195611000 -0.347141000  0.000416000
C  0.163979002 -0.114856995  0.000179732
C  1.428319002  0.037122006 -0.000016272
C  2.701118998  0.167841993 -0.000205338
H -3.299579016  0.845828948  0.000206737
H -1.571351000 -1.455055002  0.000867801

FREQUENCIES 15
-33.1149
174.5995
271.3179
417.6113
503.7166
642.6402
751.7938
764.6812
896.6647
1026.0823
1445.9021
1735.2948
2143.5041
2386.5727
2862.4834

SYMMETRY CS
ELECTRONIC_STATE 2-A'
