7
Energy =   -191.104289696     
C  1.123811009  0.146420027 -0.000216191
C  0.035081986 -0.905802040  0.000404491
C -1.002981962  0.140930112  0.000100742
C  0.089808396  0.461706148 -0.947395159
C  0.090088560  0.462533721  0.946992747
H  0.067772106 -1.984926685  0.000871077
H -2.082618976  0.150198070  0.000256362

FREQUENCIES 15
373.3318
462.5583
525.6071
706.0437
737.4274
826.4972
893.6646
961.0290
978.7340
1074.4234
1112.7603
1313.3349
1361.6079
3237.7861
3254.0295

SYMMETRY CS
ELECTRONIC_STATE 2-A'
