7
Energy =   -191.104953444     
C  0.418340936  0.000059004  0.107042128
C  1.789242892  0.000517794 -0.095706784
C -0.691680223 -0.908174363  0.187856362
C -1.599057881 -0.000235735 -0.328538239
C -0.692148716  0.907635201  0.188797515
H  2.326149118 -0.935983182 -0.178836886
H  2.325665776  0.937381368 -0.177865902

FREQUENCIES 15
259.3773
342.1673
363.6060
486.0294
655.3104
878.8040
912.1495
974.2192
1065.6192
1184.3772
1433.3056
1456.0207
1588.6299
3141.0454
3256.4026

SYMMETRY CS
ELECTRONIC_STATE 4-A"
