4
Energy =   -138.645706890     
    C   -0.086509    0.339404    0.044080
    H    0.192830   -0.139817    1.089775
    H    0.916288   -0.153437   -0.346730
    F   -1.142149   -0.067220   -0.483766

FREQUENCIES 6
779.0866
895.5806
1003.5880
1445.6931
1994.2314
2378.3355

SYMMETRY CS
ELECTRONIC_STATE 3-A"
