4
Energy =   -138.792617362     
C  0.021729336 -0.008453809  0.102169436
H  0.023364396 -0.009791030  1.197284701
H  0.906730145 -0.061575462 -0.540663018
F -1.071368030  0.058686326 -0.455431680

FREQUENCIES 6
1247.1904
1290.3748
1443.6338
1599.2200
3028.6500
3192.5771

SYMMETRY C2V
ELECTRONIC_STATE 1-A1
