5
Energy =   -238.618942408     
H  0.403503506  1.117054458 -0.348082394
H  0.329071939 -0.201931860 -1.328160772
C  0.320762658 -0.036690369 -0.169501905
F  1.365935858 -0.512495837  0.391460398
F -0.798291771 -0.362990752  0.354618130

FREQUENCIES 9
592.3017
638.7628
988.2811
1055.4787
1104.8140
1241.7526
1398.0034
2113.7183
2478.3632

SYMMETRY C2V
ELECTRONIC_STATE 2-B1
