3
Energy =   -1.34713050540     
    H   -0.358330    0.359493    0.006913
    H   -0.132239   -0.489859   -0.017335
    H    0.490568    0.130366    0.002336

FREQUENCIES 3
2707.9482
2707.9482
3395.9979

SYMMETRY D3H
ELECTRONIC_STATE 1-A1'
