5
Energy =   -77.7998390955     
C  0.000430627 -0.521647570 -0.000000000
C -0.000733248  0.971868523  0.000000000
H -1.025715923 -0.901241702 -0.000000000
H  0.513946686 -0.900041865  0.888924892
H  0.513946686 -0.900041865 -0.888924892

FREQUENCIES 9
979.3558
1008.2269
1008.2289
1355.0527
1447.9064
1447.9068
2972.3380
3036.9963
3036.9963

SYMMETRY C3V
ELECTRONIC_STATE 4-A1
