5
Energy =   -75.6518283476     
    C   -0.000174   -0.555702    0.000000
    C   -0.000174    0.864802    0.000000
    H   -1.362385   -0.619014    0.000000
    H    0.682234   -0.617792    1.182052
    H    0.682234   -0.617792   -1.182052

FREQUENCIES 9
452.8705
454.4334
675.5350
677.0997
762.8386
832.8351
901.1370
912.5690
1377.4049

SYMMETRY CS
ELECTRONIC_STATE 1-A'
