6
Energy =   -115.613920655     
    C    0.760683   -0.206186    0.000139
    H    1.325176   -0.490492    0.907555
    H    1.326597   -0.488576   -0.906969
    C   -0.176737    0.876606    0.000713
    C   -0.761457   -0.334115   -0.000524
    H   -1.586168   -1.035113    0.000215

FREQUENCIES 12
584.1915
687.0821
734.3208
839.0232
910.0479
989.5442
1148.8416
1259.6363
1509.8329
2888.1053
2910.5339
3227.4179

SYMMETRY C1
ELECTRONIC_STATE 3-A
