6
Energy =   -115.729101352     
    C    1.328015    0.000239   -0.000064
    H    2.401583    0.000662    0.000037
    C    0.104975   -0.000243   -0.000178
    H   -1.792343   -0.936114   -0.000358
    C   -1.235934   -0.000771   -0.000303
    H   -1.793080    0.934133   -0.000353

FREQUENCIES 12
269.4868
320.1019
636.8833
908.5538
1033.7600
1129.0535
1149.8924
1474.0331
2132.1188
3096.6151
3194.3613
3358.1540

SYMMETRY C2V
ELECTRONIC_STATE 1-A1
