7
Energy =   -154.079093941     
    C    0.164704    0.036987   -0.004711
    C   -1.053324    0.822217   -0.066611
    C   -1.069440   -0.543079    0.036331
    H   -1.623260   -1.457644    0.175142
    C    1.533359   -0.046714    0.002393
    H    2.128242    0.743611    0.438903
    H    2.043217   -0.902434   -0.418461

FREQUENCIES 15
331.1381
420.2473
487.6670
726.5720
801.5240
834.7796
913.3927
990.3596
1042.3645
1149.7431
1454.0837
1631.2179
3135.9793
3228.6983
3230.7431

SYMMETRY C1
ELECTRONIC_STATE 2-A
