7
Energy =   -153.031627483     
C  0.314911417  0.832788394  0.224414633
H  0.678369174  1.793803213  0.614977682
C -0.000480405 -0.000136948 -0.981867092
C -0.878466682 -0.143707439  0.225145683
C  0.563892548 -0.688955447  0.224517785
H -1.892120491 -0.309530549  0.616552336
H  1.214664774 -1.483973395  0.615199868

FREQUENCIES 15
738.8662
738.8671
755.6019
778.2753
821.2749
821.2757
859.0539
859.0547
870.2811
892.2504
892.2582
1304.6179
3056.5606
3056.5606
3088.6136

SYMMETRY C3V
ELECTRONIC_STATE 4-A1
