7
Energy =   -153.680278140     
    C   -1.229478    1.215172    0.000000
    H   -1.640334    2.217011    0.000000
    C    0.000000    0.625166    0.000000
    H    0.896395    1.246792    0.000000
    C    0.137424   -0.777780    0.000000
    H   -0.729531   -1.450509    0.000000
    C    1.337632   -1.398107    0.000000

FREQUENCIES 15
185.8290
187.6633
420.6406
667.0835
780.1174
805.7723
962.6772
995.4688
1176.0035
1270.0879
1394.0014
1592.1126
3042.1413
3088.1117
3215.2779

SYMMETRY CS
ELECTRONIC_STATE 3-A"
