7
Energy =   -152.201981302     
    C   -0.756361    0.384520    0.000060
    H   -1.056731    1.033563    0.933426
    H   -1.056658    1.033755   -0.933195
    C   -1.928438   -0.570685   -0.000084
    C    0.617234    0.059635    0.000081
    C    1.914373   -0.159923    0.000109
    H    3.031145   -0.348484    0.000133

FREQUENCIES 15
227.6690
305.4188
473.0442
597.5691
672.2224
695.1197
704.6284
865.8488
950.7066
1028.0281
1179.4368
1752.2338
2305.0793
2324.5291
2788.7718

SYMMETRY CS
ELECTRONIC_STATE 3-A"
