8
Energy =   -191.169490042     
    C   -0.486127    0.026985   -0.000025
    C    0.869895   -0.059393    0.000172
    C    2.117983   -0.084303    0.000379
    H    3.204809   -0.139787    0.000383
    C   -0.855718    1.491434    0.000127
    C   -1.475957   -0.958734    0.000371
    H   -2.540208   -0.732451   -0.000083
    H   -1.149632   -2.001053    0.000159

FREQUENCIES 18
135.3724
243.5815
267.3049
467.6923
495.5017
582.7898
671.9412
742.1859
763.0666
881.3721
990.0007
1078.1486
1336.9522
1423.2963
1974.5144
3055.1632
3186.4977
3210.9086

SYMMETRY C1
ELECTRONIC_STATE 4-A
