8
Energy =   -190.438698160     
C -0.529316000 -0.000089824 -0.000163325
C  0.590002961 -0.853478564  0.001612893
C  1.734868013 -0.000094214 -0.000310983
H  2.853855010 -0.000096384 -0.000383957
C  0.590006030  0.853294576 -0.002085536
C -2.002909003 -0.000086966 -0.000067226
H -2.574273436  0.002026399  0.974747383
H -2.574400583 -0.002198116 -0.974807304

FREQUENCIES 18
244.5320
276.2393
363.6442
489.5097
631.2880
652.3223
810.0638
884.8536
922.3231
1007.7866
1150.3428
1254.4687
1286.7909
1307.8669
1495.3550
2696.4762
2801.2252
2905.6772

SYMMETRY C2V
ELECTRONIC_STATE 1-A1
