8
Energy =   -191.202235841     
C  0.771253054  0.799226652 -0.000518895
C  0.746525914 -0.796573440  0.000651429
C  1.860590998 -0.014384986  0.000202636
C -0.438725005  0.019341036 -0.000082662
C -1.826637971  0.033684814 -0.000250453
H -2.195591222 -0.635209635  0.832537430
H -2.287046020  1.023882128 -0.001030543
H -2.195402620 -0.636433393 -0.832137563

FREQUENCIES 18
117.4590
250.7676
363.5236
509.0235
623.3729
722.1926
831.4701
877.4506
972.5657
1099.4661
1228.6965
1264.1078
1382.8784
1573.7675
1593.7796
2686.1011
2748.6745
3097.3634

SYMMETRY CS
ELECTRONIC_STATE 2-A'
