8
Energy =   -191.186016403     
C -1.370755000  0.158454000 -0.000534000
H -2.314665000  0.822116000 -0.001137000
C  1.121408016  0.085943938 -0.000051303
C -2.122192000 -0.879188001  0.000020208
C  2.293215916 -0.399222681  0.000473572
H  3.295071776 -0.819831154  0.000926157
C -0.083887937  0.729348763 -0.000686528
H -0.006996718  1.827738932 -0.001398545

FREQUENCIES 18
139.1771
234.2606
245.9026
372.9703
491.4826
520.4202
556.3312
682.2152
730.9425
850.8010
939.7984
1101.9139
1349.7443
1634.0620
1835.5344
2599.8794
2981.6747
3215.0289

SYMMETRY CS
ELECTRONIC_STATE 4-A"
