8
Energy =   -191.299001748     
    C    2.551109   -0.000282   -0.000370
    H    3.111323    0.945784   -0.000432
    H    3.111529   -0.946226   -0.000428
    C    1.185297   -0.000431   -0.000223
    C   -0.099663   -0.000571   -0.000085
    C   -1.381075   -0.000710    0.000053
    C   -2.667200   -0.000850    0.000192
    H   -3.755961   -0.000969    0.000309

FREQUENCIES 18
122.4304
141.2784
341.3000
392.3440
434.0006
497.3982
535.1064
711.6508
729.2768
825.0171
899.6820
1216.5161
1320.1284
1736.4892
2165.7862
2966.4347
3064.6392
3186.3997

SYMMETRY C2
ELECTRONIC_STATE 4-B
