8
Energy =   -192.074460755     
    H    1.503521   -0.446676    1.334760
    C    0.348686   -0.803469   -0.502540
    C   -0.796260   -0.090103   -0.028097
    C   -2.085329   -0.015206    0.232953
    C    1.448456   -0.088362    0.311442
    H    2.417049    0.042872   -0.157776
    C    0.361632    0.800843   -0.073343
    H    0.416326    1.581583   -0.819484

FREQUENCIES 18
122.8712
232.1517
428.7561
546.4367
661.8151
823.9534
893.3650
948.3262
1032.8043
1061.0560
1120.1718
1198.7710
1286.0324
1495.4030
1618.4584
3084.8013
3161.3838
3174.0316

SYMMETRY C1
ELECTRONIC_STATE 2-A
