8
Energy =   -191.771198537     
    C    2.131518   -0.823202    0.000000
    H    3.007619   -1.436615    0.000002
    C    1.133248   -0.130976   -0.000001
    C   -1.320883    0.186279    0.000001
    C   -2.471867   -0.217995   -0.000002
    C    0.000406    0.741685   -0.000000
    H    0.084891    1.453421    0.850650
    H    0.084882    1.453423   -0.850649

FREQUENCIES 18
130.5799
234.6309
277.9048
325.8671
546.0234
638.8119
718.7310
749.7372
875.9611
1030.0402
1103.5376
1226.0205
1254.2584
2059.8707
2183.5397
2836.0953
2871.2163
3393.3805

SYMMETRY CS
ELECTRONIC_STATE 3-A"
