8
Energy =   -190.363699395     
C -1.826589036  0.680336659  0.001988181
C -1.828074965 -0.680786838 -0.001996074
C -0.581772999 -0.002910891  0.000008737
C  0.815104999  0.000020861  0.000040361
C  2.122397004  0.025018644  0.000135098
H  2.598433386 -0.608651328  0.882187287
H  2.598462546 -0.603476739 -0.885595950
H  2.596712039  1.082051844  0.003237030

FREQUENCIES 18
71.2753
205.0845
213.9066
369.8536
411.6387
644.2607
661.8967
703.2887
753.6776
838.4991
954.7389
1091.8657
1264.4159
1521.9120
1743.2955
2174.3320
2302.5320
2443.4533

SYMMETRY CS
ELECTRONIC_STATE 3-A'
