5
Energy =   -39.3352983535     
    C    0.101882    0.000167    0.000340
    H    0.696460   -0.976310    0.000312
    H   -0.998191   -0.582015   -0.000171
    H   -1.000528    0.578070    0.000342
    H    0.691096    0.979967    0.000007

FREQUENCIES 9
517.3707
875.7545
1139.1963
1150.3124
1422.3281
1786.0875
2201.6824
2630.8056
2688.5507

SYMMETRY C1
ELECTRONIC_STATE 1-A
