7
Energy =   -116.198047440     
    C    0.000282    0.711740    0.000128
    H   -0.183802    1.311835    0.903373
    H    0.185432    1.312689   -0.902564
    C   -0.910815   -0.401707   -0.164941
    C    0.909905   -0.402363    0.164470
    H   -1.503186   -1.035307    0.487871
    H    1.505327   -1.035234   -0.486625

FREQUENCIES 15
451.1157
684.7271
720.2138
740.1518
841.6602
852.2183
1028.8949
1096.5552
1103.1182
1200.0599
1376.2257
2935.6177
3007.2876
3173.7829
3182.7722

SYMMETRY C1
ELECTRONIC_STATE 4-A
