7
Energy =   -116.700960727     
C  1.236175016  0.000198132 -0.000320803
H  1.626802579  0.588857920  0.831115011
H  1.626719954 -1.014201000  0.093832282
H  1.626928514  0.425834024 -0.925816099
C -0.218535994  0.000326549 -0.000436991
C -1.417604024  0.000432399 -0.000532761
H -2.479004016  0.000526095 -0.000617536

FREQUENCIES 15
346.3269
346.3293
672.2452
672.2456
941.0204
1056.1574
1056.1586
1417.3378
1480.3721
1480.3723
2222.4473
3025.5638
3082.6468
3082.6475
3465.2780

SYMMETRY C3V
ELECTRONIC_STATE 1-A1
