8
Energy =   -154.299816906     
    C    0.000000    0.809959   -0.570057
    H   -0.901062    1.266401   -0.991291
    H    0.901062    1.266401   -0.991291
    C    0.000000   -0.809959   -0.570057
    H   -0.901062   -1.266401   -0.991291
    H    0.901062   -1.266401   -0.991291
    C    0.000000    0.708864    0.900488
    C    0.000000   -0.708864    0.900488

FREQUENCIES 18
304.6529
687.1990
728.9840
785.0235
930.9917
941.9876
950.1614
1079.1996
1087.5488
1089.9127
1209.4588
1340.5554
1353.4360
1384.8602
3003.4060
3020.6577
3067.9349
3083.4716

SYMMETRY C2V
ELECTRONIC_STATE 4-A2
