8
Energy =   -154.648210676     
C  0.398975238 -0.000808502  0.499125235
H  1.349837522 -0.000022434 -1.295578472
H  0.418028409 -0.001852608  1.584877404
C  1.602247985 -0.001278940 -0.221306002
C -0.928310987 -0.627537905 -0.120280561
C -0.927108286  0.629628689 -0.119092721
H -1.324088875 -1.613110764 -0.261283293
H -1.320999452  1.616221699 -0.258232042

FREQUENCIES 18
137.2410
471.6319
530.1417
618.8855
663.2350
777.8292
788.7585
869.7596
940.6074
1080.1708
1117.8174
1265.9901
1362.7452
1815.1615
2952.9938
3102.1329
3288.7238
3350.0289

SYMMETRY CS
ELECTRONIC_STATE 1-A'
