8
Energy =   -152.825759471     
    C    1.747813    0.402739   -0.000393
    H    2.624081    1.117061   -0.002326
    C    0.713725   -0.459156    0.001531
    H    1.024143   -1.556177    0.006187
    C   -0.957123   -0.371683   -0.002620
    H   -1.322155   -0.985298    0.893490
    H   -1.315189   -0.979179   -0.905534
    C   -1.673429    0.828575    0.001444

FREQUENCIES 18
45.3968
233.9840
272.2724
470.6804
490.1603
631.8896
740.8673
833.7722
942.2042
960.9113
1017.8270
1091.4157
1182.5072
1442.0624
2559.1764
2560.1762
2636.5268
2791.9986

SYMMETRY C1
ELECTRONIC_STATE 4-A
