8
Energy =   -153.685961327     
    C    1.782025   -0.242493   -0.124488
    H    2.275379   -1.212996   -0.026211
    C    0.624936    0.503846   -0.036301
    H    0.657636    1.577625   -0.256836
    C   -0.739906   -0.049021    0.376282
    H   -1.270939    0.664223    1.093995
    H   -0.751918   -1.064535    0.871854
    C   -1.818748   -0.206385   -0.495959

FREQUENCIES 18
99.6955
253.5233
347.8079
419.7267
642.9258
714.0159
774.0852
804.5867
918.5071
993.8929
1220.3797
1264.2713
1347.8989
1389.6225
2637.1205
2739.7353
3055.9741
3127.4946

SYMMETRY C1
ELECTRONIC_STATE 3-A
