8
Energy =   -154.675750424     
    C   -1.568808   -0.157769   -0.000081
    H   -1.883710   -1.190442   -0.000003
    H   -2.331120    0.610415   -0.000204
    C   -0.263994    0.184031   -0.000029
    C    1.188354   -0.509895    0.000132
    H    1.503983   -1.003962   -0.916208
    H    1.503864   -1.003787    0.916608
    C    0.845613    0.914930   -0.000026

FREQUENCIES 18
329.7557
367.5769
541.2353
591.5854
761.0967
889.9240
981.5948
994.3710
1011.2762
1058.3397
1125.2949
1448.4752
1479.8841
1617.9515
3048.4641
3122.2276
3137.8053
3232.0385

SYMMETRY CS
ELECTRONIC_STATE 3-A"
