9
Energy =   -192.470529995     
C  2.118867347 -0.451740705  0.001064611
H  2.758475349 -0.259818702  0.872409001
H  2.759542349 -0.258667702 -0.869240999
H  1.772563471 -1.479653571  0.000173138
C -0.274785158  0.259754830  0.000068375
C -1.504188713 -0.007546690 -0.000861455
C -2.799761664 -0.280767559 -0.001835734
C  1.030325414  0.545429368  0.001056727
H  1.286677122  1.607361053  0.001915574

FREQUENCIES 21
110.7443
118.9943
167.7954
247.3017
399.5116
586.5315
754.3198
797.4396
989.0993
1007.8821
1121.1250
1284.7138
1336.0240
1427.7904
1460.4255
1546.7159
2094.3752
2984.5158
3019.6626
3088.0890
3162.1852

SYMMETRY CS
ELECTRONIC_STATE 2-A"
