9
Energy =   -190.973095010     
    C    0.428045   -0.054517    0.268119
    C   -1.726532   -0.141140   -0.064233
    C   -0.614754   -1.093143   -0.135915
    H    0.559858   -0.134506    1.429134
    C    1.871373    0.020806   -0.148946
    H    2.389181    0.999455   -0.209184
    H    2.439987   -0.916074   -0.325836
    C   -0.727346    0.941044   -0.014281
    H   -0.773225    2.011820   -0.327359

FREQUENCIES 21
236.8729
290.2335
348.9284
395.1071
629.4544
708.8885
770.0280
808.6261
911.3827
968.1435
1006.7076
1046.8868
1101.9434
1126.2526
1218.8263
1245.5054
1401.9012
2338.0290
2886.6200
2903.3244
3021.8030

SYMMETRY C1
ELECTRONIC_STATE 4-A
