9
Energy =   -192.392368321     
    C   -1.456031    0.000247    0.266395
    H   -2.369466    0.000439   -0.319470
    H   -1.627799    0.000212    1.340190
    C   -0.321794    0.864769   -0.192015
    C   -0.322091   -0.864609   -0.192119
    H   -0.337439   -1.649154   -0.940861
    C    0.759286   -0.000123    0.115918
    C    2.119227   -0.000358    0.145288
    H   -0.336873    1.649409   -0.940664

FREQUENCIES 21
280.6358
410.5575
514.2919
682.3139
758.0133
872.6461
920.5909
995.9240
1026.9740
1030.4014
1113.9286
1120.5555
1133.7841
1249.2332
1297.4842
1459.4277
1504.2958
3081.5090
3168.2934
3176.7451
3181.5609

SYMMETRY CS
ELECTRONIC_STATE 4-A"
