9
Energy =   -192.699311789     
    C    1.016963   -0.427400   -0.224058
    H    1.339918   -0.089046   -1.251447
    H    1.240121   -1.499732   -0.176467
    C    1.949485    0.544826    0.325284
    H    2.937074    0.050002    0.314360
    C   -0.423780   -0.146942   -0.070164
    C   -1.686709   -0.659646    0.304137
    C   -1.462517    0.671082   -0.100873
    H   -1.877765    1.647258   -0.292413

FREQUENCIES 21
60.4958
211.9223
285.5607
407.0819
540.0804
679.1340
757.9605
892.0295
937.6017
994.5978
1123.9336
1138.3411
1151.6502
1290.9099
1313.4436
1396.2741
1770.7833
2767.0406
2948.9344
3001.0194
3234.3793

SYMMETRY C1
ELECTRONIC_STATE 1-A
