9
Energy =   -191.883387610     
    C   -1.000056   -0.497632   -0.000663
    H   -1.205761   -1.201766    0.850267
    H   -1.206245   -1.197769   -0.854877
    C   -2.047621    0.444704    0.000986
    H   -3.145832    0.462719    0.001548
    C    0.414738   -0.017362   -0.000260
    C    1.371681    0.937929   -0.000656
    C    1.767736   -0.354494    0.000799
    H    2.518968   -1.142049    0.001824

FREQUENCIES 21
42.3480
227.4266
230.0131
390.2567
486.9139
662.9448
669.6597
855.9841
923.7696
974.0386
1063.0518
1082.2784
1159.0185
1213.6829
1361.0267
1377.0197
1741.1747
2770.3903
2794.2050
3082.5679
3178.4132

SYMMETRY C1
ELECTRONIC_STATE 3-A
