9
Energy =   -191.184805269     
    C   -0.363697   -0.000028    0.000035
    C    0.976448    0.000057    0.000074
    C   -1.622472   -0.679365    0.000073
    H   -2.069848   -1.697828    0.000171
    C   -1.622448    0.679503   -0.000075
    H   -2.069454    1.698149   -0.000199
    C    2.342936    0.000185    0.000113
    H    2.937540   -0.962747    0.000235
    H    2.937372    0.963230    0.000025

FREQUENCIES 21
176.3338
205.5850
226.2467
446.3936
490.4270
654.4682
807.2963
814.0630
825.1712
905.0808
939.2293
988.3066
1011.7148
1145.2308
1230.0070
1384.1879
1654.5545
2681.5271
2747.8701
2917.6191
2967.8038

SYMMETRY C2V
ELECTRONIC_STATE 2-B1
