9
Energy =   -191.871142295     
C  1.462880676 -0.003114061  0.002203772
C  2.559028047  0.574658876  0.005972270
C  0.280958534 -0.722147251 -0.002256375
H  0.285210548 -1.829505926 -0.006825305
C -0.904250702 -0.129753023 -0.001303407
C -2.164876669  0.378950083 -0.000791222
H -2.447965406  0.911466832 -0.931476891
H -2.783907272 -0.580195170 -0.005533634
H -2.450316493  0.903762776  0.933545376

FREQUENCIES 21
106.6288
116.4052
291.5362
338.6240
367.5511
391.6564
735.6966
757.4162
910.2108
924.8641
1064.0357
1163.5010
1178.9655
1285.0600
1340.4568
1741.4525
2115.2702
2655.4918
2873.1075
2931.8960
2938.8541

SYMMETRY CS
ELECTRONIC_STATE 3-A"
