9
Energy =   -191.956845350     
C -0.307733997 -0.000267728  0.130861013
C  1.084405053 -0.000750900  0.470022248
H  1.327438094 -0.001608106  1.545696442
H -1.976491427  1.641088483 -0.208291271
C  2.101642886 -0.000190405 -0.483657538
H  3.193785867 -0.000356096 -0.498196623
C -1.486077558  0.673103674 -0.111038162
C -1.486295385 -0.672889073 -0.112061571
H -1.977022510 -1.640566091 -0.210786435

FREQUENCIES 21
123.7643
222.1431
293.6707
543.4948
635.7965
703.8736
843.2274
920.2797
925.0314
975.4637
991.3964
1029.1846
1149.2477
1211.2956
1238.8580
1447.5291
1727.2304
2984.5207
3132.3203
3144.6435
3184.5844

SYMMETRY CS
ELECTRONIC_STATE 3-A"
