9
Energy =   -191.085257962     
    H   -1.242139   -1.220701    0.936157
    C    2.625561   -0.400854   -0.254511
    C   -1.073893   -0.316804    0.253198
    H    1.853515    1.463727    0.242535
    C    1.476051    0.397919    0.072848
    C    0.197374    0.057091    0.106527
    C   -2.363278    0.133478   -0.240408
    H   -2.996540    0.816261    0.375864
    H   -2.784083   -0.283912   -1.188058

FREQUENCIES 21
117.8230
149.4575
186.7100
279.6418
380.1168
542.2521
625.3406
675.0846
745.8684
853.4799
940.7533
950.9619
1126.5258
1207.6389
1334.4571
1361.0509
1618.1313
2578.2204
2599.3107
2814.8482
2926.6002

SYMMETRY C1
ELECTRONIC_STATE 2-A
