9
Energy =   -190.925997145     
    C   -2.322536    0.599646    0.002334
    C   -1.384950   -0.278540   -0.000056
    C    0.018706   -0.576400   -0.001316
    H   -2.195411   -1.141738   -0.001441
    H    0.257504   -1.654171   -0.001339
    C    1.137886    0.428552   -0.002237
    H    1.091971    1.176266    0.850103
    H    1.098541    1.162890   -0.867175
    C    2.508794   -0.097133    0.004584

FREQUENCIES 21
40.7283
184.6274
227.5188
342.5358
431.2673
473.9139
543.1123
791.5161
830.5052
873.6025
941.1752
1032.0246
1118.3938
1149.6594
1224.5406
1394.3097
1704.8755
2345.5183
2648.7559
2683.6912
2996.3144

SYMMETRY C1
ELECTRONIC_STATE 4-A
