9
Energy =   -191.910540258     
    C   -1.034816   -0.695267    0.000115
    C    0.448150   -0.914727   -0.000051
    H   -1.531259   -1.092127   -0.903594
    H   -1.531059   -1.092141    0.903928
    C   -0.941253    0.829169    0.000117
    H   -1.718629    1.596697    0.000210
    C    0.434359    0.888980   -0.000035
    C    1.463952   -0.009952   -0.000157
    H    2.558595   -0.001647   -0.000279

FREQUENCIES 21
336.8904
356.5079
399.4660
604.8047
715.4584
789.5149
807.1385
841.3103
885.8246
970.1532
1045.0162
1089.2830
1108.5925
1190.7339
1289.9238
1385.7452
1582.6019
2931.7410
2980.3177
3094.7148
3112.0631

SYMMETRY CS
ELECTRONIC_STATE 3-A"
