9
Energy =   -191.027075965     
C -0.762604021  0.000216385  0.000450994
C -2.079995882  0.000619771 -0.000920965
C  0.331262013  1.048692068  0.001430261
H  0.286051577  2.158010075  0.006098527
C  0.330619918 -1.048928940  0.001239719
H  0.284730352 -2.158219891  0.005706452
C  1.357167981 -0.000432299 -0.001658006
H  2.180298964 -0.000610326 -0.815626011
H  2.187433003 -0.000759684  0.804569001

FREQUENCIES 21
128.8184
286.7285
345.4773
503.6779
687.8932
760.8186
794.6932
831.5398
862.0234
896.6147
1009.2583
1049.8214
1091.9138
1161.3824
1236.0227
1286.9859
1510.3386
2389.0885
2539.0562
2965.3402
2966.3145

SYMMETRY CS
ELECTRONIC_STATE 2-A'
