9
Energy =   -191.088370721     
    C   -1.541211    0.049128   -0.000248
    C   -2.802690    0.215917    0.000334
    C   -0.278803   -0.146188   -0.000313
    C    1.103758   -0.495945   -0.000027
    H    1.279851   -1.229255    0.861009
    H    1.280345   -1.228547   -0.861649
    C    2.208517    0.503925    0.000385
    H    3.236322    0.099627    0.000639
    H    2.062538    1.595380   -0.000555

FREQUENCIES 21
156.7505
181.4642
257.8361
303.1317
408.1631
571.6131
691.5043
729.7949
918.7355
1018.4793
1066.2868
1086.6719
1264.9216
1283.2758
1439.1665
1486.5663
2154.3710
2561.3942
2600.8951
2967.2457
3090.2072

SYMMETRY C1
ELECTRONIC_STATE 2-A
