9
Energy =   -191.883978386     
    C    0.708177   -0.826572    0.000000
    C   -0.533228   -1.268695    0.000000
    C   -1.208097    0.086618    0.000000
    H   -1.831002    0.219892   -0.903664
    H   -1.831002    0.219892    0.903664
    C    0.000000    1.052949    0.000000
    H   -0.109432    2.144715    0.000000
    C    1.279132    0.393619    0.000000
    H    2.295533    0.787991    0.000000

FREQUENCIES 21
300.4284
376.4888
530.1906
533.7001
662.7001
818.9934
848.2052
900.9137
913.5245
1025.4072
1105.0289
1108.6332
1182.5702
1222.6327
1291.7266
1354.0926
1608.3174
2921.2932
2970.9764
3052.7154
3139.7211

SYMMETRY CS
ELECTRONIC_STATE 3-A"
