9
Energy =   -117.953736851     
    C    1.158574   -0.766789    0.574999
    C   -1.025909    0.303416   -0.042452
    C   -0.287672   -0.436331    0.775563
    H    1.550062   -0.317278   -0.337615
    H    1.761995   -0.414394    1.415575
    H   -0.749788   -0.845753    1.669686
    H    1.309281   -1.847860    0.515152
    H   -0.613360    0.734355   -0.947293
    H   -2.069073    0.505712    0.160439

FREQUENCIES 21
206.0577
425.4898
593.2078
923.2817
949.3117
950.5127
1028.7960
1073.6582
1191.9709
1329.7646
1409.9764
1452.2887
1480.9513
1495.8318
1706.9716
3011.1593
3052.7264
3087.9234
3119.4814
3126.7486
3206.7612

SYMMETRY C1
ELECTRONIC_STATE 1-A
