3
Energy =   -76.5020129602     
    H   -0.900366   -1.155585    0.000000
    C    0.075031    0.822790    0.000000
    C    0.075031   -0.630192    0.000000

FREQUENCIES 3
868.4361
1171.1385
2873.8471

SYMMETRY CS
ELECTRONIC_STATE 4-A"
