3
Energy =   -75.4170670961     
    H    0.002808    1.681009    0.000000
    C   -0.000234    0.535725    0.000000
    C   -0.000234   -0.815893    0.000000

FREQUENCIES 4
287.4029
723.8264
1512.7417
2673.3555

SYMMETRY C*V
ELECTRONIC_STATE 2-PI
