4
Energy =   -114.617105879     
H -1.630012085 -0.002021289 -0.558901073
C -0.800753584 -0.001045517  0.150926967
C  0.537036738 -0.653413391 -0.028954308
C  0.535384770  0.654735265 -0.028822653

FREQUENCIES 6
537.9146
888.8317
929.4935
1029.6944
1641.9414
3033.9943

SYMMETRY C1
ELECTRONIC_STATE 4-A
