4
Energy =   -114.617102782     
    H    1.626993   -0.000000    0.562238
    C    0.807021   -0.000000   -0.158399
    C   -0.532151   -0.654204    0.001932
    C   -0.532151    0.654204    0.001932

FREQUENCIES 6
536.9787
888.8310
927.9621
1029.8798
1640.7757
3033.2506

SYMMETRY CS
ELECTRONIC_STATE 4-A"
