4
Energy =   -114.320961967     
    C   -1.387550    0.000149    0.000015
    C   -0.117676   -0.000276    0.000010
    C    1.136358    0.000099   -0.000072
    H    2.213206    0.000166    0.000281

FREQUENCIES 7
279.7480
330.8500
409.3415
893.7821
1313.6027
1920.2058
3314.3072

SYMMETRY C*V
ELECTRONIC_STATE 3-PI
