4
Energy =   -114.668292698     
    H   -0.000033   -2.203284    0.000000
    C   -0.000996   -1.141521    0.000000
    C    0.000000    0.111922    0.000000
    C    0.001001    1.396813    0.000000

FREQUENCIES 7
267.6799
267.6799
435.6946
435.6946
1287.8528
1724.9064
3442.0664

SYMMETRY C*V
ELECTRONIC_STATE 4-SG
