4
Energy =   -112.526699876     
    H    0.001069   -2.012225    0.000000
    C    0.000000   -0.783717    0.000000
    C    0.655718    0.560270    0.000000
    C   -0.655896    0.558818    0.000000

FREQUENCIES 6
578.1339
758.3739
787.2037
905.2364
1584.5796
1858.9907

SYMMETRY CS
ELECTRONIC_STATE 1-A'
