5
Energy =   -152.425058343     
    H    0.000000    0.000000   -2.152779
    C    0.000000    0.000000   -1.067102
    C    0.000000    0.788381    0.054573
    C    0.000000    0.000000    1.316752
    C    0.000000   -0.788381    0.054573

FREQUENCIES 9
242.6262
526.4223
830.4842
884.7167
1049.9572
1172.9725
1211.0608
1515.1338
3211.2213

SYMMETRY C2V
ELECTRONIC_STATE 1-A1
