5
Energy =   -152.425400478     
    H    2.872565    0.000000    0.000000
    C    1.795981    0.000000    0.000000
    C    0.551402    0.000000    0.000000
    C   -0.742785    0.000000    0.000000
    C   -2.083358    0.000000    0.000000

FREQUENCIES 10
53.1683
188.2138
303.7340
474.0405
520.9634
919.7675
922.6383
1654.2771
2130.4796
3321.0971

SYMMETRY C*V
ELECTRONIC_STATE 1-PI
