5
Energy =   -152.728702522     
    C   -1.987460    0.187444   -0.000159
    C   -0.690988   -0.041298    0.000296
    C    0.539868   -0.434292   -0.000108
    C    1.784558    0.098946   -0.000027
    H    2.124137    1.135198   -0.000012

FREQUENCIES 9
155.7085
217.2102
421.4121
715.5559
965.4883
999.4683
1388.5830
1904.0208
3070.8692

SYMMETRY C1
ELECTRONIC_STATE 4-A
