5
Energy =   -152.384823602     
    H   -0.000000   -2.584183    0.000000
    C   -0.000000   -1.504496    0.000000
    C    0.000000   -0.199792    0.000000
    C    0.646931    1.074235   -0.000000
    C   -0.646931    1.074235    0.000000

FREQUENCIES 9
97.0316
338.9248
404.3310
582.6861
897.5589
944.2503
1578.7580
1666.2223
3270.0586

SYMMETRY C2V
ELECTRONIC_STATE 3-A2
