5
Energy =   -151.760344910     
H  0.001561750 -2.627050167  0.000000000
C  0.000903379 -1.523383058  0.000000000
C  0.000120975 -0.211791928  0.000000000
C  0.655110012  1.086899683 -0.000000000
C -0.656417012  1.086117317  0.000000000

FREQUENCIES 9
297.6604
394.5010
498.8701
627.7861
830.0742
882.8724
1509.8658
1686.3928
3045.5932

SYMMETRY C2V
ELECTRONIC_STATE 4-A2
