5
Energy =   -151.756147802     
    H   -1.521038    1.489604   -0.000424
    C   -0.999402    0.517485    0.000045
    C    0.312602   -0.076266    0.000361
    C   -0.824613   -0.824677   -0.000161
    C    1.764920    0.135191   -0.000174

FREQUENCIES 9
256.8778
288.2021
724.1662
886.7542
920.8760
989.6975
1341.7195
1616.2504
3042.2971

SYMMETRY C1
ELECTRONIC_STATE 2-A
