5
Energy =   -150.813783285     
H  0.006597146  2.739497317 -0.000000000
C  0.003864910  1.568539644 -0.000000000
C  0.000624995  0.180005496 -0.000000000
C -0.685165143 -1.100898305  0.000000000
C  0.680430143 -1.104084695  0.000000000

FREQUENCIES 9
308.6867
334.8585
525.8785
735.1055
820.1357
869.3678
1356.1435
1418.6754
2439.5855

SYMMETRY C2V
ELECTRONIC_STATE 3-B2
