5
Energy =   -152.393418489     
    C    0.183221    0.880687    0.000000
    H    0.040354    1.956905    0.000000
    C   -0.556390   -0.857025    0.000000
    C    0.183221   -0.174907    0.948446
    C    0.183221   -0.174907   -0.948446

FREQUENCIES 9
476.1408
531.0456
846.6425
908.8511
1048.7858
1222.4195
1296.0560
1430.3321
3193.9655

SYMMETRY CS
ELECTRONIC_STATE 3-A"
