6
Energy =   -190.541087035     
    H    0.000000    0.000000    3.236160
    C    0.000000    0.000000    2.165228
    C    0.000000    0.000000    0.955063
    C    0.000000    0.000000   -0.394107
    C    0.000000    0.674765   -1.632772
    C    0.000000   -0.674765   -1.632772

FREQUENCIES 12
196.5180
203.8047
505.4766
567.3077
728.1029
756.9355
818.2679
1027.7673
1344.7135
1651.9807
2156.4925
3384.7135

SYMMETRY C2V
ELECTRONIC_STATE 3-B2
