6
Energy =   -189.853612005     
    C    0.821307   -0.756928   -0.042371
    C   -0.474084   -0.922021    0.044004
    C   -1.296667    0.243106   -0.021729
    C   -0.011143    0.811709    0.011145
    C    1.352230    0.533605    0.013140
    H   -2.349855    0.543169   -0.025130

FREQUENCIES 12
97.8789
302.6557
398.0545
544.1464
702.9109
823.6130
1069.0671
1128.8060
1208.9853
1420.3200
1629.5841
3110.2642

SYMMETRY C1
ELECTRONIC_STATE 4-A
