6
Energy =   -190.899555231     
    H   -0.000000   -3.229177   -0.000000
    C   -0.000000   -2.165765   -0.000000
    C   -0.000000   -0.960743   -0.000000
    C    0.000000    0.413835    0.000000
    C   -0.675865    1.625925    0.000000
    C    0.675865    1.625925   -0.000000

FREQUENCIES 12
183.0476
217.2097
510.0583
572.2612
580.2146
649.1902
742.1479
744.0277
1302.8287
1656.0027
2159.2833
3448.9315

SYMMETRY C2V
ELECTRONIC_STATE 2-B2
