6
Energy =   -190.817223467     
    H    2.238110   -0.780296   -0.062375
    C    1.275235   -0.338490    0.105971
    C    0.658689    0.876235   -0.131083
    C   -0.713842    0.667735    0.132645
    C   -1.525197   -0.376853   -0.042931
    C   -0.067903   -0.698578   -0.054206

FREQUENCIES 12
250.2244
478.7435
533.4185
583.0810
656.0136
737.7941
867.6651
1099.8660
1124.7655
1385.9960
1516.7587
3293.7774

SYMMETRY C1
ELECTRONIC_STATE 2-A
