6
Energy =   -190.708240327     
    C   -0.303932   -1.002834   -0.191618
    C   -1.084348    0.167288    0.094785
    C    0.003448    1.023913   -0.290777
    C    0.791463   -0.153651   -0.670750
    C    0.449616   -0.026496    0.764923
    H    0.845898   -0.039816    1.760463

FREQUENCIES 12
182.4900
194.4877
569.7679
847.1698
857.8669
869.7356
1002.2335
1104.6342
1177.1893
1247.1345
1358.7963
3303.3951

SYMMETRY C1
ELECTRONIC_STATE 4-A
