6
Energy =   -188.954424935     
    C    1.327394    0.000125   -0.000226
    C   -1.087341   -0.660052   -0.218989
    C   -1.087665    0.660382    0.218786
    C    0.218874    0.912904   -0.158044
    C    0.218808   -0.913559    0.158444
    H    2.459587    0.001195    0.000176

FREQUENCIES 12
180.3018
424.1866
540.0102
601.6907
743.9625
832.6940
972.3460
1013.5033
1060.1487
1116.8571
1359.8764
2759.6633

SYMMETRY C1
ELECTRONIC_STATE 3-A
