6
Energy =   -188.979077480     
C  1.916541001 -0.000047589 -0.000044784
C  0.526790996 -0.000031037 -0.000021979
C -0.611672775  0.858500020 -0.000003799
C -1.731765998 -0.000004139  0.000015083
C -0.611693225 -0.858534977 -0.000002794
H  3.070743005 -0.000061335 -0.000063724

FREQUENCIES 12
241.1460
252.5904
432.7418
529.0382
536.0651
566.9415
902.5405
933.4554
1170.9181
1337.1794
1495.8900
2575.1276

SYMMETRY C2V
ELECTRONIC_STATE 3-B2
