6
Energy =   -190.774540274     
    C    1.837545   -0.103133    0.089193
    C    0.543487   -0.051847   -0.034532
    C   -0.591109    0.882970   -0.192506
    C   -1.576484    0.054187    0.280183
    C   -0.661152   -0.874161   -0.168828
    H    2.686273    0.551901    0.158943

FREQUENCIES 12
261.7877
336.3101
551.3583
576.7848
602.7374
724.8156
782.6581
961.5786
1087.8125
1323.8671
1705.9266
3283.2638

SYMMETRY C1
ELECTRONIC_STATE 4-A
