6
Energy =   -190.453028702     
    H    0.000000    0.000000    2.173966
    C    0.000000    0.000000    1.089458
    C    0.000000    0.762915   -0.038930
    C    0.000000    1.932384   -0.686962
    C    0.000000   -0.762915   -0.038930
    C    0.000000   -1.932384   -0.686962

FREQUENCIES 12
115.1150
222.1525
231.1022
328.1377
623.3379
877.9946
916.6615
1088.8056
1152.1178
1550.2152
1850.6538
3212.4084

SYMMETRY C2V
ELECTRONIC_STATE 1-A1
