6
Energy =   -189.988516160     
    H    0.000000    0.000000   -3.509295
    C    0.000000    0.000000   -2.417072
    C    0.000000    0.000000   -1.171569
    C    0.000000    0.000000    0.114563
    C    0.000000    0.000000    1.406242
    C    0.000000    0.000000    2.652719

FREQUENCIES 13
146.1634
146.1634
302.7469
302.7469
652.1137
652.1137
799.0448
823.8662
823.8662
1565.3995
2060.4074
2243.9443
3182.7534

SYMMETRY C*V
ELECTRONIC_STATE 2-SG
