6
Energy =   -189.857685767     
    C    0.010106    1.924792    0.000000
    C    0.000000    0.563698    0.000000
    C   -0.793218   -0.639984    0.000000
    C    0.042364   -1.724570    0.000000
    C    0.830188   -0.603342    0.000000
    H   -0.536642    2.876435    0.000000

FREQUENCIES 12
247.9501
350.7179
524.6456
574.7317
617.2890
725.7452
772.0996
957.2815
1175.2958
1502.5705
1586.9774
3088.8295

SYMMETRY CS
ELECTRONIC_STATE 4-A"
