6
Energy =   -189.857391378     
C -1.095604428  0.631126395  0.252661580
C  0.231051095  0.830207888 -0.192084322
C  1.325443552  0.000406304 -0.001959468
C -1.095884872 -0.631559730 -0.250757837
C  0.231938648 -0.829958225  0.190796207
H  2.421928056  0.000688430 -0.003277927

FREQUENCIES 12
181.4704
358.9245
531.2109
600.0605
633.6519
753.1126
771.9178
1043.2891
1096.3581
1175.6941
1465.2484
3092.0588

SYMMETRY C2
ELECTRONIC_STATE 2-A
