6
Energy =   -190.797913309     
    C    0.857362    0.791189    0.000000
    C    1.329153   -0.485666    0.000000
    C   -1.229473   -0.289137    0.000000
    C   -0.638650    0.942097    0.000000
    C    0.051755   -0.843926    0.000000
    H   -2.222483   -0.690799    0.000000

FREQUENCIES 12
294.0390
380.2338
560.3697
615.6449
658.5486
912.2291
1022.4067
1047.6517
1156.4444
1387.7954
1623.2129
3305.1470

SYMMETRY CS
ELECTRONIC_STATE 4-A"
