6
Energy =   -190.819165138     
    H   -1.392841   -1.451439    0.000000
    C   -1.068829   -0.406267    0.000000
    C    0.326093   -0.081321   -0.000000
    C    1.640724   -0.534395    0.000000
    C    1.370790    0.794215   -0.000000
    C   -2.036637    0.469674    0.000000

FREQUENCIES 12
87.8983
112.4314
345.3814
410.9763
657.9614
700.0255
794.3861
1007.4570
1319.8693
1667.5199
1721.1979
3060.9677

SYMMETRY CS
ELECTRONIC_STATE 2-A'
