6
Energy =   -189.014507042     
    C   -2.353426   -0.497862    0.000059
    C   -1.320494    0.310017   -0.000003
    C    0.052955    0.105798   -0.000019
    C    1.319952   -0.024356   -0.000036
    C    2.598535   -0.124474   -0.000055
    H   -1.785636    1.385648   -0.000050

FREQUENCIES 12
172.1286
197.7658
314.8184
420.4089
524.1117
595.7253
781.8799
936.2337
1424.5416
1616.5578
2133.2248
2362.0874

SYMMETRY CS
ELECTRONIC_STATE 3-A'
