3
Energy =   -138.093916943     
    C    0.000000    0.000000    0.000000
    F    0.000000    0.000000    1.199622
    H    0.919344    0.000000   -0.632841

FREQUENCIES 3
1112.9797
1653.3703
2879.3163

SYMMETRY CS
ELECTRONIC_STATE 2-A'
