5
Energy =   -337.869926296     
C -0.103255631  0.079235296  0.065417548
F -1.252141117 -0.350609902 -0.294311057
F  0.049475360  1.347381241  0.116295163
F  0.527087456 -0.614207453  0.934850795
H  0.614742287 -0.205085362 -1.034867689

FREQUENCIES 9
511.5424
511.5534
736.5163
736.5266
746.2790
848.4007
1298.8222
1398.4848
1398.4894

SYMMETRY C3V
ELECTRONIC_STATE 2-A1
