1
Energy =   -54.5002887751     
  N            0.00000000          0.00000000          0.00000000

FREQUENCIES 0

SYMMETRY R3
ELECTRONIC_STATE 2-D
