1
Energy =   -54.6007233624     
  N            0.00000000          0.00000000          0.00000000

FREQUENCIES 0

SYMMETRY R3
ELECTRONIC_STATE 4-S
