 Entering Gaussian System, Link 0=/home/proyectos/fulerenos/M3C-v1.9/M3C-deps_CCC/g09-AM64L-G09RevC.01/g09
 Initial command:
 /home/proyectos/fulerenos/M3C-v1.9/M3C-deps_CCC/g09-AM64L-G09RevC.01/l1.exe "/scratch/naguirre/gaussian/Gau-3124.inp" -scrdir="/scratch/naguirre/gaussian/"
 Entering Link 1 = /home/proyectos/fulerenos/M3C-v1.9/M3C-deps_CCC/g09-AM64L-G09RevC.01/l1.exe PID=      3134.
  
 Copyright (c) 1988,1990,1992,1993,1995,1998,2003,2009,2015,
            Gaussian, Inc.  All Rights Reserved.
  
 This is part of the Gaussian(R) 09 program.  It is based on
 the Gaussian(R) 03 system (copyright 2003, Gaussian, Inc.),
 the Gaussian(R) 98 system (copyright 1998, Gaussian, Inc.),
 the Gaussian(R) 94 system (copyright 1995, Gaussian, Inc.),
 the Gaussian 92(TM) system (copyright 1992, Gaussian, Inc.),
 the Gaussian 90(TM) system (copyright 1990, Gaussian, Inc.),
 the Gaussian 88(TM) system (copyright 1988, Gaussian, Inc.),
 the Gaussian 86(TM) system (copyright 1986, Carnegie Mellon
 University), and the Gaussian 82(TM) system (copyright 1983,
 Carnegie Mellon University). Gaussian is a federally registered
 trademark of Gaussian, Inc.
  
 This software contains proprietary and confidential information,
 including trade secrets, belonging to Gaussian, Inc.
  
 This software is provided under written license and may be
 used, copied, transmitted, or stored only in accord with that
 written license.
  
 The following legend is applicable only to US Government
 contracts under FAR:
  
                    RESTRICTED RIGHTS LEGEND
  
 Use, reproduction and disclosure by the US Government is
 subject to restrictions as set forth in subparagraphs (a)
 and (c) of the Commercial Computer Software - Restricted
 Rights clause in FAR 52.227-19.
  
 Gaussian, Inc.
 340 Quinnipiac St., Bldg. 40, Wallingford CT 06492
  
  
 ---------------------------------------------------------------
 Warning -- This program may not be used in any manner that
 competes with the business of Gaussian, Inc. or will provide
 assistance to any competitor of Gaussian, Inc.  The licensee
 of this program is prohibited from giving any competitor of
 Gaussian, Inc. access to this program.  By using this program,
 the user acknowledges that Gaussian, Inc. is engaged in the
 business of creating and licensing software in the field of
 computational chemistry and represents and warrants to the
 licensee that it is not a competitor of Gaussian, Inc. and that
 it will not use this program in any manner prohibited above.
 ---------------------------------------------------------------
  

 Cite this work as:
 Gaussian 09, Revision E.01,
 M. J. Frisch, G. W. Trucks, H. B. Schlegel, G. E. Scuseria, 
 M. A. Robb, J. R. Cheeseman, G. Scalmani, V. Barone, B. Mennucci, 
 G. A. Petersson, H. Nakatsuji, M. Caricato, X. Li, H. P. Hratchian, 
 A. F. Izmaylov, J. Bloino, G. Zheng, J. L. Sonnenberg, M. Hada, 
 M. Ehara, K. Toyota, R. Fukuda, J. Hasegawa, M. Ishida, T. Nakajima, 
 Y. Honda, O. Kitao, H. Nakai, T. Vreven, J. A. Montgomery, Jr., 
 J. E. Peralta, F. Ogliaro, M. Bearpark, J. J. Heyd, E. Brothers, 
 K. N. Kudin, V. N. Staroverov, T. Keith, R. Kobayashi, J. Normand, 
 K. Raghavachari, A. Rendell, J. C. Burant, S. S. Iyengar, J. Tomasi, 
 M. Cossi, N. Rega, J. M. Millam, M. Klene, J. E. Knox, J. B. Cross, 
 V. Bakken, C. Adamo, J. Jaramillo, R. Gomperts, R. E. Stratmann, 
 O. Yazyev, A. J. Austin, R. Cammi, C. Pomelli, J. W. Ochterski, 
 R. L. Martin, K. Morokuma, V. G. Zakrzewski, G. A. Voth, 
 P. Salvador, J. J. Dannenberg, S. Dapprich, A. D. Daniels, 
 O. Farkas, J. B. Foresman, J. V. Ortiz, J. Cioslowski, 
 and D. J. Fox, Gaussian, Inc., Wallingford CT, 2013.
 
 ******************************************
 Gaussian 09:  EM64L-G09RevE.01 30-Nov-2015
                20-Jun-2016 
 ******************************************
 %NProcShared=4
 Will use up to    4 processors via shared memory.
 ---------------------------------------------
 #p b3lyp/6-311++G(3df,2p) freq symmetry=Loose
 ---------------------------------------------
 1/10=4,30=1,38=1/1,3;
 2/12=2,17=4,18=3,40=1/2;
 3/5=4,6=6,7=1216,11=2,16=1,25=1,30=1,71=2,74=-5,140=1/1,2,3;
 4//1;
 5/5=2,38=5,98=1/2;
 8/6=4,10=90,11=11/1;
 11/6=1,8=1,9=11,15=111,16=1/1,2,10;
 10/6=1/2;
 6/7=2,8=2,9=2,10=2,18=1,28=1/1;
 7/8=1,10=1,25=1/1,2,3,16;
 1/10=4,30=1/3;
 99//99;
 Leave Link    1 at Mon Jun 20 10:33:54 2016, MaxMem=           0 cpu:         0.7
 (Enter /home/proyectos/fulerenos/M3C-v1.9/M3C-deps_CCC/g09-AM64L-G09RevC.01/l101.exe)
 ---------
 b3lyp opt
 ---------
 Symbolic Z-matrix:
 Charge =  3 Multiplicity = 4
 C                     0.81613  -0.00016  -0.00001 
 C                    -0.33601   0.78138   0.00028 
 C                    -1.65348   0.00035   0.00038 
 C                    -0.33488  -0.78294  -0.00029 
 C                     2.23327   0.00094  -0.00014 
 H                    -2.23183  -0.00065   0.96052 
 H                    -2.23233   0.00021  -0.95946 
 
 NAtoms=      7 NQM=        7 NQMF=       0 NMMI=      0 NMMIF=      0
                NMic=       0 NMicF=      0.
                    Isotopes and Nuclear Properties:
 (Nuclear quadrupole moments (NQMom) in fm**2, nuclear magnetic moments (NMagM)
  in nuclear magnetons)

  Atom         1           2           3           4           5           6           7
 IAtWgt=          12          12          12          12          12           1           1
 AtmWgt=  12.0000000  12.0000000  12.0000000  12.0000000  12.0000000   1.0078250   1.0078250
 NucSpn=           0           0           0           0           0           1           1
 AtZEff=   0.0000000   0.0000000   0.0000000   0.0000000   0.0000000   0.0000000   0.0000000
 NQMom=    0.0000000   0.0000000   0.0000000   0.0000000   0.0000000   0.0000000   0.0000000
 NMagM=    0.0000000   0.0000000   0.0000000   0.0000000   0.0000000   2.7928460   2.7928460
 AtZNuc=   6.0000000   6.0000000   6.0000000   6.0000000   6.0000000   1.0000000   1.0000000
 Leave Link  101 at Mon Jun 20 10:33:55 2016, MaxMem=    33554432 cpu:         0.7
 (Enter /home/proyectos/fulerenos/M3C-v1.9/M3C-deps_CCC/g09-AM64L-G09RevC.01/l103.exe)

 GradGradGradGradGradGradGradGradGradGradGradGradGradGradGradGradGradGrad
 Berny optimization.
 Initialization pass.
 Trust Radius=3.00D-01 FncErr=1.00D-07 GrdErr=1.00D-07
 Number of steps in this run=      2 maximum allowed number of steps=      2.
 GradGradGradGradGradGradGradGradGradGradGradGradGradGradGradGradGradGrad

 Leave Link  103 at Mon Jun 20 10:33:56 2016, MaxMem=    33554432 cpu:         0.3
 (Enter /home/proyectos/fulerenos/M3C-v1.9/M3C-deps_CCC/g09-AM64L-G09RevC.01/l202.exe)
                          Input orientation:                          
 ---------------------------------------------------------------------
 Center     Atomic      Atomic             Coordinates (Angstroms)
 Number     Number       Type             X           Y           Z
 ---------------------------------------------------------------------
      1          6           0        0.816127   -0.000161   -0.000009
      2          6           0       -0.336005    0.781375    0.000279
      3          6           0       -1.653477    0.000353    0.000375
      4          6           0       -0.334882   -0.782939   -0.000285
      5          6           0        2.233265    0.000939   -0.000138
      6          1           0       -2.231828   -0.000649    0.960520
      7          1           0       -2.232331    0.000205   -0.959463
 ---------------------------------------------------------------------
                    Distance matrix (angstroms):
                    1          2          3          4          5
     1  C    0.000000
     2  C    1.392195   0.000000
     3  C    2.469604   1.531577   0.000000
     4  C    1.391964   1.564315   1.533701   0.000000
     5  C    1.417138   2.685187   3.886742   2.685115   0.000000
     6  H    3.195723   2.264458   1.120879   2.265729   4.567266
     7  H    3.195880   2.264373   1.120875   2.265756   4.567478
                    6          7
     6  H    0.000000
     7  H    1.919983   0.000000
 Stoichiometry    C5H2(3+,4)
 Framework group  C1[X(C5H2)]
 Deg. of freedom    15
 Full point group                 C1      NOp   1
 Largest Abelian subgroup         C1      NOp   1
 Largest concise Abelian subgroup C1      NOp   1
                         Standard orientation:                         
 ---------------------------------------------------------------------
 Center     Atomic      Atomic             Coordinates (Angstroms)
 Number     Number       Type             X           Y           Z
 ---------------------------------------------------------------------
      1          6           0       -0.819689    0.000174    0.000019
      2          6           0        0.332340   -0.781514   -0.000097
      3          6           0        1.649915   -0.000665    0.000094
      4          6           0        0.331423    0.782800   -0.000141
      5          6           0       -2.236827   -0.000740    0.000067
      6          1           0        2.228386   -0.000059    0.960167
      7          1           0        2.228649   -0.000274   -0.959816
 ---------------------------------------------------------------------
 Rotational constants (GHZ):     30.5547961      4.3958951      3.9547301
 Leave Link  202 at Mon Jun 20 10:33:56 2016, MaxMem=    33554432 cpu:         0.2
 (Enter /home/proyectos/fulerenos/M3C-v1.9/M3C-deps_CCC/g09-AM64L-G09RevC.01/l301.exe)
 Standard basis: 6-311++G(3df,2p) (5D, 7F)
 Ernie: Thresh=  0.10000D-02 Tol=  0.10000D-05 Strict=F.
 There are   245 symmetry adapted cartesian basis functions of A   symmetry.
 There are   215 symmetry adapted basis functions of A   symmetry.
   215 basis functions,   314 primitive gaussians,   245 cartesian basis functions
    16 alpha electrons       13 beta electrons
       nuclear repulsion energy       119.5802199400 Hartrees.
 IExCor=  402 DFT=T Ex+Corr=B3LYP ExCW=0 ScaHFX=  0.200000
 ScaDFX=  0.800000  0.720000  1.000000  0.810000 ScalE2=  1.000000  1.000000
 IRadAn=      0 IRanWt=     -1 IRanGd=            0 ICorTp=0 IEmpDi=  4
 NAtoms=    7 NActive=    7 NUniq=    7 SFac= 1.00D+00 NAtFMM=   60 NAOKFM=F Big=F
 Integral buffers will be    131072 words long.
 Raffenetti 2 integral format.
 Two-electron integral symmetry is turned on.
 Leave Link  301 at Mon Jun 20 10:33:58 2016, MaxMem=    33554432 cpu:         1.6
 (Enter /home/proyectos/fulerenos/M3C-v1.9/M3C-deps_CCC/g09-AM64L-G09RevC.01/l302.exe)
 NPDir=0 NMtPBC=     1 NCelOv=     1 NCel=       1 NClECP=     1 NCelD=      1
         NCelK=      1 NCelE2=     1 NClLst=     1 CellRange=     0.0.
 One-electron integrals computed using PRISM.
 NBasis=   215 RedAO= T EigKep=  2.38D-06  NBF=   215
 NBsUse=   215 1.00D-06 EigRej= -1.00D+00 NBFU=   215
 Precomputing XC quadrature grid using
 IXCGrd= 4 IRadAn=           0 IRanWt=          -1 IRanGd=           0 AccXCQ= 0.00D+00.
 Generated NRdTot=       0 NPtTot=           0 NUsed=           0 NTot=          32
 NSgBfM=   245   245   245   245   245 MxSgAt=     7 MxSgA2=     7.
 Leave Link  302 at Mon Jun 20 10:34:01 2016, MaxMem=    33554432 cpu:         6.0
 (Enter /home/proyectos/fulerenos/M3C-v1.9/M3C-deps_CCC/g09-AM64L-G09RevC.01/l303.exe)
 DipDrv:  MaxL=1.
 Leave Link  303 at Mon Jun 20 10:34:02 2016, MaxMem=    33554432 cpu:         0.7
 (Enter /home/proyectos/fulerenos/M3C-v1.9/M3C-deps_CCC/g09-AM64L-G09RevC.01/l401.exe)
 ExpMin= 3.60D-02 ExpMax= 4.56D+03 ExpMxC= 6.82D+02 IAcc=3 IRadAn=         5 AccDes= 0.00D+00
 Harris functional with IExCor=  402 and IRadAn=       5 diagonalized for initial guess.
 HarFok:  IExCor=  402 AccDes= 0.00D+00 IRadAn=         5 IDoV= 1 UseB2=F ITyADJ=14
 ICtDFT=  3500011 ScaDFX=  1.000000  1.000000  1.000000  1.000000
 FoFCou: FMM=F IPFlag=           0 FMFlag=      100000 FMFlg1=           0
         NFxFlg=           0 DoJE=T BraDBF=F KetDBF=T FulRan=T
         wScrn=  0.000000 ICntrl=     500 IOpCl=  0 I1Cent=   200000004 NGrid=           0
         NMat0=    1 NMatS0=      1 NMatT0=    0 NMatD0=    1 NMtDS0=    0 NMtDT0=    0
 Petite list used in FoFCou.
 Harris En= -190.476359953861    
 JPrj=0 DoOrth=F DoCkMO=F.
 Initial guess <Sx>= 0.0000 <Sy>= 0.0000 <Sz>= 1.5000 <S**2>= 3.7500 S= 1.5000
 Leave Link  401 at Mon Jun 20 10:34:06 2016, MaxMem=    33554432 cpu:         8.8
 (Enter /home/proyectos/fulerenos/M3C-v1.9/M3C-deps_CCC/g09-AM64L-G09RevC.01/l502.exe)
 UHF open shell SCF:
 Using DIIS extrapolation, IDIIS=  1040.
 Integral symmetry usage will be decided dynamically.
 IVT=      201851 IEndB=      201851 NGot=    33554432 MDV=    33429492
 LenX=    33429492 LenY=    33369026
 Requested convergence on RMS density matrix=1.00D-08 within 128 cycles.
 Requested convergence on MAX density matrix=1.00D-06.
 Requested convergence on             energy=1.00D-06.
 No special actions if energy rises.
 Fock matrices will be formed incrementally for  20 cycles.

 Cycle   1  Pass 1  IDiag  1:
 FoFJK:  IHMeth= 1 ICntrl=       0 DoSepK=F KAlg= 0 I1Cent=   0 FoldK=F
 IRaf= 990000000 NMat=   1 IRICut=       1 DoRegI=T DoRafI=F ISym2E= 0.
 FoFCou: FMM=F IPFlag=           0 FMFlag=      100000 FMFlg1=           0
         NFxFlg=           0 DoJE=F BraDBF=F KetDBF=F FulRan=T
         wScrn=  0.000000 ICntrl=       0 IOpCl=  1 I1Cent=           0 NGrid=           0
         NMat0=    1 NMatS0=      1 NMatT0=    0 NMatD0=    1 NMtDS0=    0 NMtDT0=    0
 Symmetry not used in FoFCou.
 E= -189.414951242292    
 DIIS: error= 3.01D-02 at cycle   1 NSaved=   1.
 NSaved= 1 IEnMin= 1 EnMin= -189.414951242292     IErMin= 1 ErrMin= 3.01D-02
 ErrMax= 3.01D-02  0.00D+00 EMaxC= 1.00D-01 BMatC= 4.49D-01 BMatP= 4.49D-01
 IDIUse=3 WtCom= 6.99D-01 WtEn= 3.01D-01
 Coeff-Com:  0.100D+01
 Coeff-En:   0.100D+01
 Coeff:      0.100D+01
 Gap=     0.076 Goal=   None    Shift=    0.000
 Gap=     0.046 Goal=   None    Shift=    0.000
 GapD=    0.046 DampG=0.250 DampE=0.500 DampFc=0.2500 IDamp=-1.
 Damping current iteration by 2.50D-01
 RMSDP=1.70D-02 MaxDP=9.76D-01              OVMax= 9.68D-01

 Cycle   2  Pass 1  IDiag  1:
 RMSU=  4.02D-03    CP:  1.07D+00
 E= -189.396847975838     Delta-E=        0.018103266454 Rises=F Damp=T
 DIIS: error= 2.52D-02 at cycle   2 NSaved=   2.
 NSaved= 2 IEnMin= 1 EnMin= -189.414951242292     IErMin= 2 ErrMin= 2.52D-02
 ErrMax= 2.52D-02  0.00D+00 EMaxC= 1.00D-01 BMatC= 1.36D-01 BMatP= 4.49D-01
 IDIUse=3 WtCom= 7.48D-01 WtEn= 2.52D-01
 Coeff-Com:  0.351D-01 0.965D+00
 Coeff-En:   0.569D+00 0.431D+00
 Coeff:      0.170D+00 0.830D+00
 Gap=    -0.171 Goal=   None    Shift=    0.000
 Gap=     0.086 Goal=   None    Shift=    0.000
 RMSDP=9.81D-03 MaxDP=6.01D-01 DE= 1.81D-02 OVMax= 8.80D-01

 Cycle   3  Pass 1  IDiag  1:
 RMSU=  8.05D-03    CP:  1.35D+00  1.45D+00
 E= -189.499883657748     Delta-E=       -0.103035681910 Rises=F Damp=F
 DIIS: error= 2.95D-02 at cycle   3 NSaved=   3.
 NSaved= 3 IEnMin= 3 EnMin= -189.499883657748     IErMin= 2 ErrMin= 2.52D-02
 ErrMax= 2.95D-02  0.00D+00 EMaxC= 1.00D-01 BMatC= 2.59D-01 BMatP= 1.36D-01
 IDIUse=2 WtCom= 0.00D+00 WtEn= 1.00D+00
 Coeff-En:   0.000D+00 0.184D+00 0.816D+00
 Coeff:      0.000D+00 0.184D+00 0.816D+00
 Gap=     0.095 Goal=   None    Shift=    0.000
 Gap=     0.132 Goal=   None    Shift=    0.000
 RMSDP=9.01D-03 MaxDP=4.22D-01 DE=-1.03D-01 OVMax= 9.28D-01

 Cycle   4  Pass 1  IDiag  1:
 RMSU=  6.97D-03    CP:  1.38D+00  2.77D+00  7.49D-01
 E= -188.930966317380     Delta-E=        0.568917340368 Rises=F Damp=F
 DIIS: error= 1.06D-01 at cycle   4 NSaved=   4.
 NSaved= 4 IEnMin= 3 EnMin= -189.499883657748     IErMin= 2 ErrMin= 2.52D-02
 ErrMax= 1.06D-01  0.00D+00 EMaxC= 1.00D-01 BMatC= 1.86D+00 BMatP= 1.36D-01
 IDIUse=2 WtCom= 0.00D+00 WtEn= 1.00D+00
 Coeff-En:   0.000D+00 0.000D+00 0.819D+00 0.181D+00
 Coeff:      0.000D+00 0.000D+00 0.819D+00 0.181D+00
 Gap=    -0.040 Goal=   None    Shift=    0.000
 Gap=     0.103 Goal=   None    Shift=    0.000
 RMSDP=7.49D-03 MaxDP=2.95D-01 DE= 5.69D-01 OVMax= 9.33D-01

 Cycle   5  Pass 1  IDiag  1:
 RMSU=  2.66D-03    CP:  1.40D+00  1.85D+00  1.15D+00  2.86D-01
 E= -189.563399680774     Delta-E=       -0.632433363394 Rises=F Damp=F
 DIIS: error= 2.21D-02 at cycle   5 NSaved=   5.
 NSaved= 5 IEnMin= 5 EnMin= -189.563399680774     IErMin= 5 ErrMin= 2.21D-02
 ErrMax= 2.21D-02  0.00D+00 EMaxC= 1.00D-01 BMatC= 1.10D-01 BMatP= 1.36D-01
 IDIUse=3 WtCom= 7.79D-01 WtEn= 2.21D-01
 Coeff-Com: -0.166D+00 0.241D+00 0.419D+00-0.186D-01 0.524D+00
 Coeff-En:   0.000D+00 0.000D+00 0.262D+00 0.000D+00 0.738D+00
 Coeff:     -0.129D+00 0.188D+00 0.384D+00-0.145D-01 0.572D+00
 Gap=     0.089 Goal=   None    Shift=    0.000
 Gap=     0.134 Goal=   None    Shift=    0.000
 RMSDP=1.66D-03 MaxDP=7.35D-02 DE=-6.32D-01 OVMax= 9.46D-02

 Cycle   6  Pass 1  IDiag  1:
 RMSU=  7.25D-04    CP:  1.41D+00  1.74D+00  1.13D+00  1.65D-01  5.89D-01
 E= -189.590141294469     Delta-E=       -0.026741613695 Rises=F Damp=F
 DIIS: error= 5.44D-03 at cycle   6 NSaved=   6.
 NSaved= 6 IEnMin= 6 EnMin= -189.590141294469     IErMin= 6 ErrMin= 5.44D-03
 ErrMax= 5.44D-03  0.00D+00 EMaxC= 1.00D-01 BMatC= 8.71D-03 BMatP= 1.10D-01
 IDIUse=3 WtCom= 9.46D-01 WtEn= 5.44D-02
 Coeff-Com: -0.900D-01 0.107D+00 0.111D+00-0.104D-01 0.268D+00 0.613D+00
 Coeff-En:   0.000D+00 0.000D+00 0.000D+00 0.000D+00 0.470D-01 0.953D+00
 Coeff:     -0.851D-01 0.102D+00 0.105D+00-0.988D-02 0.256D+00 0.632D+00
 Gap=     0.087 Goal=   None    Shift=    0.000
 Gap=     0.122 Goal=   None    Shift=    0.000
 RMSDP=3.08D-04 MaxDP=1.22D-02 DE=-2.67D-02 OVMax= 3.05D-02

 Cycle   7  Pass 1  IDiag  1:
 RMSU=  2.47D-04    CP:  1.40D+00  1.75D+00  1.12D+00  1.68D-01  6.18D-01
                    CP:  8.50D-01
 E= -189.592703406227     Delta-E=       -0.002562111758 Rises=F Damp=F
 DIIS: error= 1.60D-03 at cycle   7 NSaved=   7.
 NSaved= 7 IEnMin= 7 EnMin= -189.592703406227     IErMin= 7 ErrMin= 1.60D-03
 ErrMax= 1.60D-03  0.00D+00 EMaxC= 1.00D-01 BMatC= 1.19D-03 BMatP= 8.71D-03
 IDIUse=3 WtCom= 9.84D-01 WtEn= 1.60D-02
 Coeff-Com: -0.274D-01 0.295D-01-0.553D-01 0.176D-03-0.110D-01 0.359D+00
 Coeff-Com:  0.705D+00
 Coeff-En:   0.000D+00 0.000D+00 0.000D+00 0.000D+00 0.000D+00 0.000D+00
 Coeff-En:   0.100D+01
 Coeff:     -0.270D-01 0.291D-01-0.545D-01 0.173D-03-0.108D-01 0.353D+00
 Coeff:      0.710D+00
 Gap=     0.089 Goal=   None    Shift=    0.000
 Gap=     0.124 Goal=   None    Shift=    0.000
 RMSDP=1.95D-04 MaxDP=1.15D-02 DE=-2.56D-03 OVMax= 1.26D-02

 Cycle   8  Pass 1  IDiag  1:
 RMSU=  9.27D-05    CP:  1.41D+00  1.76D+00  1.13D+00  1.71D-01  6.28D-01
                    CP:  1.02D+00  7.54D-01
 E= -189.593095792439     Delta-E=       -0.000392386212 Rises=F Damp=F
 DIIS: error= 7.81D-04 at cycle   8 NSaved=   8.
 NSaved= 8 IEnMin= 8 EnMin= -189.593095792439     IErMin= 8 ErrMin= 7.81D-04
 ErrMax= 7.81D-04  0.00D+00 EMaxC= 1.00D-01 BMatC= 1.17D-04 BMatP= 1.19D-03
 IDIUse=3 WtCom= 9.92D-01 WtEn= 7.81D-03
 Coeff-Com: -0.816D-02 0.130D-01-0.109D-01-0.426D-03-0.238D-01-0.796D-01
 Coeff-Com: -0.160D-01 0.113D+01
 Coeff-En:   0.000D+00 0.000D+00 0.000D+00 0.000D+00 0.000D+00 0.000D+00
 Coeff-En:   0.000D+00 0.100D+01
 Coeff:     -0.810D-02 0.129D-01-0.108D-01-0.422D-03-0.236D-01-0.790D-01
 Coeff:     -0.159D-01 0.112D+01
 Gap=     0.090 Goal=   None    Shift=    0.000
 Gap=     0.124 Goal=   None    Shift=    0.000
 RMSDP=5.70D-05 MaxDP=2.38D-03 DE=-3.92D-04 OVMax= 5.11D-03

 Cycle   9  Pass 1  IDiag  1:
 RMSU=  3.04D-05    CP:  1.41D+00  1.76D+00  1.13D+00  1.69D-01  6.25D-01
                    CP:  1.06D+00  8.39D-01  1.21D+00
 E= -189.593145656546     Delta-E=       -0.000049864107 Rises=F Damp=F
 DIIS: error= 3.83D-04 at cycle   9 NSaved=   9.
 NSaved= 9 IEnMin= 9 EnMin= -189.593145656546     IErMin= 9 ErrMin= 3.83D-04
 ErrMax= 3.83D-04  0.00D+00 EMaxC= 1.00D-01 BMatC= 1.89D-05 BMatP= 1.17D-04
 IDIUse=3 WtCom= 9.96D-01 WtEn= 3.83D-03
 Coeff-Com: -0.182D-02 0.273D-02 0.131D-02 0.149D-03-0.347D-02-0.639D-01
 Coeff-Com: -0.973D-01 0.351D+00 0.811D+00
 Coeff-En:   0.000D+00 0.000D+00 0.000D+00 0.000D+00 0.000D+00 0.000D+00
 Coeff-En:   0.000D+00 0.000D+00 0.100D+01
 Coeff:     -0.181D-02 0.272D-02 0.131D-02 0.149D-03-0.346D-02-0.636D-01
 Coeff:     -0.969D-01 0.349D+00 0.812D+00
 Gap=     0.090 Goal=   None    Shift=    0.000
 Gap=     0.124 Goal=   None    Shift=    0.000
 RMSDP=2.46D-05 MaxDP=2.28D-03 DE=-4.99D-05 OVMax= 2.86D-03

 Cycle  10  Pass 1  IDiag  1:
 RMSU=  1.44D-05    CP:  1.41D+00  1.76D+00  1.13D+00  1.69D-01  6.28D-01
                    CP:  1.06D+00  8.56D-01  1.34D+00  9.93D-01
 E= -189.593155058750     Delta-E=       -0.000009402205 Rises=F Damp=F
 DIIS: error= 5.94D-05 at cycle  10 NSaved=  10.
 NSaved=10 IEnMin=10 EnMin= -189.593155058750     IErMin=10 ErrMin= 5.94D-05
 ErrMax= 5.94D-05  0.00D+00 EMaxC= 1.00D-01 BMatC= 1.61D-06 BMatP= 1.89D-05
 IDIUse=1 WtCom= 1.00D+00 WtEn= 0.00D+00
 Coeff-Com: -0.543D-03 0.780D-03 0.164D-02 0.740D-04 0.109D-02-0.144D-01
 Coeff-Com: -0.381D-01 0.400D-02 0.320D+00 0.725D+00
 Coeff:     -0.543D-03 0.780D-03 0.164D-02 0.740D-04 0.109D-02-0.144D-01
 Coeff:     -0.381D-01 0.400D-02 0.320D+00 0.725D+00
 Gap=     0.090 Goal=   None    Shift=    0.000
 Gap=     0.124 Goal=   None    Shift=    0.000
 RMSDP=1.13D-05 MaxDP=5.11D-04 DE=-9.40D-06 OVMax= 6.26D-04

 Cycle  11  Pass 1  IDiag  1:
 RMSU=  9.57D-06    CP:  1.41D+00  1.76D+00  1.13D+00  1.69D-01  6.28D-01
                    CP:  1.07D+00  8.56D-01  1.37D+00  1.10D+00  7.20D-01
 E= -189.593155343575     Delta-E=       -0.000000284824 Rises=F Damp=F
 DIIS: error= 6.46D-05 at cycle  11 NSaved=  11.
 NSaved=11 IEnMin=11 EnMin= -189.593155343575     IErMin=10 ErrMin= 5.94D-05
 ErrMax= 6.46D-05  0.00D+00 EMaxC= 1.00D-01 BMatC= 1.39D-06 BMatP= 1.61D-06
 IDIUse=1 WtCom= 1.00D+00 WtEn= 0.00D+00
 Coeff-Com: -0.192D-03 0.292D-03 0.969D-03 0.299D-04 0.139D-02 0.160D-02
 Coeff-Com: -0.106D-01-0.656D-01 0.877D-01 0.567D+00 0.417D+00
 Coeff:     -0.192D-03 0.292D-03 0.969D-03 0.299D-04 0.139D-02 0.160D-02
 Coeff:     -0.106D-01-0.656D-01 0.877D-01 0.567D+00 0.417D+00
 Gap=     0.090 Goal=   None    Shift=    0.000
 Gap=     0.124 Goal=   None    Shift=    0.000
 RMSDP=6.85D-06 MaxDP=3.21D-04 DE=-2.85D-07 OVMax= 3.24D-04

 Cycle  12  Pass 1  IDiag  1:
 RMSU=  2.87D-06    CP:  1.41D+00  1.76D+00  1.13D+00  1.69D-01  6.28D-01
                    CP:  1.07D+00  8.55D-01  1.38D+00  1.10D+00  9.58D-01
                    CP:  4.65D-01
 E= -189.593155748952     Delta-E=       -0.000000405377 Rises=F Damp=F
 DIIS: error= 1.65D-05 at cycle  12 NSaved=  12.
 NSaved=12 IEnMin=12 EnMin= -189.593155748952     IErMin=12 ErrMin= 1.65D-05
 ErrMax= 1.65D-05  0.00D+00 EMaxC= 1.00D-01 BMatC= 4.77D-08 BMatP= 1.39D-06
 IDIUse=1 WtCom= 1.00D+00 WtEn= 0.00D+00
 Coeff-Com:  0.824D-04-0.100D-03-0.266D-03 0.148D-04-0.566D-05 0.509D-02
 Coeff-Com:  0.857D-02-0.219D-01-0.735D-01-0.737D-01 0.103D+00 0.105D+01
 Coeff:      0.824D-04-0.100D-03-0.266D-03 0.148D-04-0.566D-05 0.509D-02
 Coeff:      0.857D-02-0.219D-01-0.735D-01-0.737D-01 0.103D+00 0.105D+01
 Gap=     0.090 Goal=   None    Shift=    0.000
 Gap=     0.124 Goal=   None    Shift=    0.000
 RMSDP=2.48D-06 MaxDP=1.27D-04 DE=-4.05D-07 OVMax= 2.58D-04

 Cycle  13  Pass 1  IDiag  1:
 RMSU=  8.39D-07    CP:  1.41D+00  1.76D+00  1.13D+00  1.69D-01  6.28D-01
                    CP:  1.07D+00  8.54D-01  1.38D+00  1.11D+00  1.01D+00
                    CP:  6.04D-01  1.14D+00
 E= -189.593155784811     Delta-E=       -0.000000035859 Rises=F Damp=F
 DIIS: error= 1.81D-06 at cycle  13 NSaved=  13.
 NSaved=13 IEnMin=13 EnMin= -189.593155784811     IErMin=13 ErrMin= 1.81D-06
 ErrMax= 1.81D-06  0.00D+00 EMaxC= 1.00D-01 BMatC= 1.10D-09 BMatP= 4.77D-08
 IDIUse=1 WtCom= 1.00D+00 WtEn= 0.00D+00
 Coeff-Com:  0.350D-04-0.503D-04-0.571D-04 0.500D-05-0.102D-03-0.302D-03
 Coeff-Com:  0.573D-03 0.393D-02-0.291D-02-0.374D-01-0.315D-01-0.984D-02
 Coeff-Com:  0.108D+01
 Coeff:      0.350D-04-0.503D-04-0.571D-04 0.500D-05-0.102D-03-0.302D-03
 Coeff:      0.573D-03 0.393D-02-0.291D-02-0.374D-01-0.315D-01-0.984D-02
 Coeff:      0.108D+01
 Gap=     0.090 Goal=   None    Shift=    0.000
 Gap=     0.124 Goal=   None    Shift=    0.000
 RMSDP=3.82D-07 MaxDP=1.88D-05 DE=-3.59D-08 OVMax= 4.84D-05

 Cycle  14  Pass 1  IDiag  1:
 RMSU=  2.48D-07    CP:  1.41D+00  1.76D+00  1.13D+00  1.69D-01  6.28D-01
                    CP:  1.07D+00  8.54D-01  1.38D+00  1.11D+00  1.02D+00
                    CP:  6.11D-01  1.20D+00  1.16D+00
 E= -189.593155786053     Delta-E=       -0.000000001242 Rises=F Damp=F
 DIIS: error= 8.65D-07 at cycle  14 NSaved=  14.
 NSaved=14 IEnMin=14 EnMin= -189.593155786053     IErMin=14 ErrMin= 8.65D-07
 ErrMax= 8.65D-07  0.00D+00 EMaxC= 1.00D-01 BMatC= 2.03D-10 BMatP= 1.10D-09
 IDIUse=1 WtCom= 1.00D+00 WtEn= 0.00D+00
 Coeff-Com:  0.121D-04-0.140D-04 0.110D-04 0.610D-06-0.630D-05-0.251D-03
 Coeff-Com: -0.478D-03 0.157D-02 0.342D-02 0.370D-02-0.571D-02-0.546D-01
 Coeff-Com:  0.143D-01 0.104D+01
 Coeff:      0.121D-04-0.140D-04 0.110D-04 0.610D-06-0.630D-05-0.251D-03
 Coeff:     -0.478D-03 0.157D-02 0.342D-02 0.370D-02-0.571D-02-0.546D-01
 Coeff:      0.143D-01 0.104D+01
 Gap=     0.090 Goal=   None    Shift=    0.000
 Gap=     0.124 Goal=   None    Shift=    0.000
 RMSDP=1.78D-07 MaxDP=7.39D-06 DE=-1.24D-09 OVMax= 2.88D-05

 Cycle  15  Pass 1  IDiag  1:
 RMSU=  1.06D-07    CP:  1.41D+00  1.76D+00  1.13D+00  1.69D-01  6.28D-01
                    CP:  1.07D+00  8.54D-01  1.38D+00  1.11D+00  1.02D+00
                    CP:  6.11D-01  1.21D+00  1.24D+00  1.29D+00
 E= -189.593155786302     Delta-E=       -0.000000000249 Rises=F Damp=F
 DIIS: error= 4.02D-07 at cycle  15 NSaved=  15.
 NSaved=15 IEnMin=15 EnMin= -189.593155786302     IErMin=15 ErrMin= 4.02D-07
 ErrMax= 4.02D-07  0.00D+00 EMaxC= 1.00D-01 BMatC= 5.13D-11 BMatP= 2.03D-10
 IDIUse=1 WtCom= 1.00D+00 WtEn= 0.00D+00
 Coeff-Com:  0.375D-05-0.517D-05 0.102D-05 0.104D-06-0.401D-06 0.219D-04
 Coeff-Com:  0.183D-04-0.245D-03 0.134D-03 0.101D-02 0.112D-02 0.427D-02
 Coeff-Com: -0.420D-01-0.784D-01 0.111D+01
 Coeff:      0.375D-05-0.517D-05 0.102D-05 0.104D-06-0.401D-06 0.219D-04
 Coeff:      0.183D-04-0.245D-03 0.134D-03 0.101D-02 0.112D-02 0.427D-02
 Coeff:     -0.420D-01-0.784D-01 0.111D+01
 Gap=     0.090 Goal=   None    Shift=    0.000
 Gap=     0.124 Goal=   None    Shift=    0.000
 RMSDP=1.42D-07 MaxDP=7.47D-06 DE=-2.49D-10 OVMax= 3.06D-05

 Cycle  16  Pass 1  IDiag  1:
 RMSU=  3.87D-08    CP:  1.41D+00  1.76D+00  1.13D+00  1.69D-01  6.28D-01
                    CP:  1.07D+00  8.54D-01  1.38D+00  1.11D+00  1.02D+00
                    CP:  6.11D-01  1.21D+00  1.26D+00  1.57D+00  2.08D+00
 E= -189.593155786502     Delta-E=       -0.000000000200 Rises=F Damp=F
 DIIS: error= 4.14D-07 at cycle  16 NSaved=  16.
 NSaved=16 IEnMin=16 EnMin= -189.593155786502     IErMin=15 ErrMin= 4.02D-07
 ErrMax= 4.14D-07  0.00D+00 EMaxC= 1.00D-01 BMatC= 3.72D-11 BMatP= 5.13D-11
 IDIUse=1 WtCom= 1.00D+00 WtEn= 0.00D+00
 Coeff-Com:  0.281D-05-0.382D-05 0.464D-06 0.728D-07-0.700D-06 0.149D-04
 Coeff-Com:  0.178D-04-0.146D-03 0.536D-04 0.452D-03 0.575D-03 0.301D-02
 Coeff-Com: -0.224D-01-0.583D-01 0.614D+00 0.463D+00
 Coeff:      0.281D-05-0.382D-05 0.464D-06 0.728D-07-0.700D-06 0.149D-04
 Coeff:      0.178D-04-0.146D-03 0.536D-04 0.452D-03 0.575D-03 0.301D-02
 Coeff:     -0.224D-01-0.583D-01 0.614D+00 0.463D+00
 Gap=     0.090 Goal=   None    Shift=    0.000
 Gap=     0.124 Goal=   None    Shift=    0.000
 RMSDP=5.97D-08 MaxDP=3.19D-06 DE=-2.00D-10 OVMax= 1.30D-05

 Cycle  17  Pass 1  IDiag  1:
 RMSU=  3.89D-09    CP:  1.41D+00  1.76D+00  1.13D+00  1.69D-01  6.28D-01
                    CP:  1.07D+00  8.54D-01  1.38D+00  1.11D+00  1.02D+00
                    CP:  6.11D-01  1.21D+00  1.27D+00  1.68D+00  2.55D+00
                    CP:  1.45D+00
 E= -189.593155786586     Delta-E=       -0.000000000083 Rises=F Damp=F
 DIIS: error= 4.20D-07 at cycle  17 NSaved=  17.
 NSaved=17 IEnMin=17 EnMin= -189.593155786586     IErMin=15 ErrMin= 4.02D-07
 ErrMax= 4.20D-07  0.00D+00 EMaxC= 1.00D-01 BMatC= 3.66D-11 BMatP= 3.72D-11
 IDIUse=1 WtCom= 1.00D+00 WtEn= 0.00D+00
 Large coefficients: NSaved= 17 BigCof=   11.03 CofMax=   10.00 Det=-2.83D-14
 Inversion failed.  Reducing to 16 matrices.
 Large coefficients: NSaved= 16 BigCof=   11.03 CofMax=   10.00 Det=-2.84D-14
 Inversion failed.  Reducing to 15 matrices.
 Coeff-Com:  0.111D-05-0.444D-07-0.121D-05 0.728D-04 0.140D-03-0.395D-03
 Coeff-Com: -0.603D-03-0.527D-03 0.156D-02 0.157D-01-0.233D-01-0.330D+00
 Coeff-Com:  0.359D+00 0.953D+01-0.856D+01
 Coeff:      0.111D-05-0.444D-07-0.121D-05 0.728D-04 0.140D-03-0.395D-03
 Coeff:     -0.603D-03-0.527D-03 0.156D-02 0.157D-01-0.233D-01-0.330D+00
 Coeff:      0.359D+00 0.953D+01-0.856D+01
 Gap=     0.090 Goal=   None    Shift=    0.000
 Gap=     0.124 Goal=   None    Shift=    0.000
 RMSDP=4.18D-07 MaxDP=2.23D-05 DE=-8.34D-11 OVMax= 9.13D-05

 Cycle  18  Pass 1  IDiag  1:
 RMSU=  2.13D-08    CP:  1.41D+00  1.76D+00  1.13D+00  1.69D-01  6.28D-01
                    CP:  1.07D+00  8.54D-01  1.38D+00  1.11D+00  1.02D+00
                    CP:  6.10D-01  1.20D+00  1.21D+00  9.47D-01 -7.43D-01
                    CP: -1.86D+00 -3.00D+00
 E= -189.593155786023     Delta-E=        0.000000000563 Rises=F Damp=F
 DIIS: error= 3.83D-07 at cycle  18 NSaved=  16.
 NSaved=16 IEnMin=15 EnMin= -189.593155786586     IErMin=16 ErrMin= 3.83D-07
 ErrMax= 3.83D-07  0.00D+00 EMaxC= 1.00D-01 BMatC= 3.02D-11 BMatP= 3.66D-11
 IDIUse=1 WtCom= 1.00D+00 WtEn= 0.00D+00
 Large coefficients: NSaved= 16 BigCof=   19.12 CofMax=   10.00 Det=-2.76D-14
 Inversion failed.  Reducing to 15 matrices.
 Large coefficients: NSaved= 15 BigCof=   19.20 CofMax=   10.00 Det=-2.77D-14
 Inversion failed.  Reducing to 14 matrices.
 Large coefficients: NSaved= 14 BigCof=   19.06 CofMax=   10.00 Det=-2.80D-14
 Inversion failed.  Reducing to 13 matrices.
 Large coefficients: NSaved= 13 BigCof=   19.03 CofMax=   10.00 Det=-2.81D-14
 Inversion failed.  Reducing to 12 matrices.
 Large coefficients: NSaved= 12 BigCof=   18.30 CofMax=   10.00 Det=-3.20D-14
 Inversion failed.  Reducing to 11 matrices.
 Large coefficients: NSaved= 11 BigCof=   17.72 CofMax=   10.00 Det=-3.34D-14
 Inversion failed.  Reducing to 10 matrices.
 Large coefficients: NSaved= 10 BigCof=   17.19 CofMax=   10.00 Det=-3.37D-14
 Inversion failed.  Reducing to  9 matrices.
 Large coefficients: NSaved=  9 BigCof=   17.47 CofMax=   10.00 Det=-3.38D-14
 Inversion failed.  Reducing to  8 matrices.
 Large coefficients: NSaved=  8 BigCof=   15.31 CofMax=   10.00 Det=-3.67D-14
 Inversion failed.  Reducing to  7 matrices.
 Large coefficients: NSaved=  7 BigCof=   14.11 CofMax=   10.00 Det=-3.78D-14
 Inversion failed.  Reducing to  6 matrices.
 Large coefficients: NSaved=  6 BigCof=   14.10 CofMax=   10.00 Det=-3.81D-14
 Inversion failed.  Reducing to  5 matrices.
 Large coefficients: NSaved=  5 BigCof=   14.15 CofMax=   10.00 Det=-3.88D-14
 Inversion failed.  Reducing to  4 matrices.
 Large coefficients: NSaved=  4 BigCof=   14.51 CofMax=   10.00 Det=-4.07D-14
 Inversion failed.  Reducing to  3 matrices.
 Large coefficients: NSaved=  3 BigCof=   12.50 CofMax=   10.00 Det=-5.89D-14
 Inversion failed.  Reducing to  2 matrices.
 Coeff-Com: -0.377D+00 0.138D+01
 Coeff:     -0.377D+00 0.138D+01
 Gap=     0.090 Goal=   None    Shift=    0.000
 Gap=     0.124 Goal=   None    Shift=    0.000
 RMSDP=4.79D-08 MaxDP=2.48D-06 DE= 5.63D-10 OVMax= 1.01D-05

 Cycle  19  Pass 1  IDiag  1:
 RMSU=  8.26D-09    CP:  1.41D+00  1.76D+00  1.13D+00  1.69D-01  6.28D-01
                    CP:  1.07D+00  8.54D-01  1.38D+00  1.11D+00  1.02D+00
                    CP:  6.10D-01  1.20D+00  1.20D+00  8.61D-01 -1.10D+00
                    CP: -2.23D+00 -3.00D+00  1.14D+00
 E= -189.593155785963     Delta-E=        0.000000000060 Rises=F Damp=F
 DIIS: error= 3.79D-07 at cycle  19 NSaved=   3.
 NSaved= 3 IEnMin= 1 EnMin= -189.593155786586     IErMin= 3 ErrMin= 3.79D-07
 ErrMax= 3.79D-07  0.00D+00 EMaxC= 1.00D-01 BMatC= 3.27D-11 BMatP= 3.02D-11
 IDIUse=1 WtCom= 1.00D+00 WtEn= 0.00D+00
 Coeff-Com: -0.392D+01 0.215D+01 0.277D+01
 Coeff:     -0.392D+01 0.215D+01 0.277D+01
 Gap=     0.090 Goal=   None    Shift=    0.000
 Gap=     0.124 Goal=   None    Shift=    0.000
 RMSDP=1.65D-06 MaxDP=8.82D-05 DE= 5.97D-11 OVMax= 3.61D-04

 Cycle  20  Pass 1  IDiag  1:
 RMSU=  1.27D-06    CP:  1.41D+00  1.76D+00  1.13D+00  1.69D-01  6.28D-01
                    CP:  1.07D+00  8.54D-01  1.38D+00  1.11D+00  1.02D+00
                    CP:  6.10D-01  1.18D+00  9.65D-01 -2.05D+00 -3.00D+00
                    CP: -3.00D+00 -3.00D+00  3.00D+00  3.00D+00
 E= -189.593155784251     Delta-E=        0.000000001712 Rises=F Damp=F
 DIIS: error= 2.34D-07 at cycle  20 NSaved=   4.
 NSaved= 4 IEnMin= 1 EnMin= -189.593155786586     IErMin= 4 ErrMin= 2.34D-07
 ErrMax= 2.34D-07  0.00D+00 EMaxC= 1.00D-01 BMatC= 2.60D-11 BMatP= 3.02D-11
 IDIUse=1 WtCom= 1.00D+00 WtEn= 0.00D+00
 Coeff-Com: -0.451D+01 0.183D+01 0.295D+01 0.737D+00
 Coeff:     -0.451D+01 0.183D+01 0.295D+01 0.737D+00
 Gap=     0.090 Goal=   None    Shift=    0.000
 Gap=     0.124 Goal=   None    Shift=    0.000
 RMSDP=1.55D-06 MaxDP=8.27D-05 DE= 1.71D-09 OVMax= 3.38D-04

 Cycle  21  Pass 1  IDiag  1:
 Restarting incremental Fock formation.
 E= -189.593155783389     Delta-E=        0.000000000862 Rises=F Damp=F
 DIIS: error= 1.53D-07 at cycle  21 NSaved=   5.
 NSaved= 5 IEnMin= 1 EnMin= -189.593155786586     IErMin= 5 ErrMin= 1.53D-07
 ErrMax= 1.53D-07  0.00D+00 EMaxC= 1.00D-01 BMatC= 8.26D-12 BMatP= 2.60D-11
 IDIUse=1 WtCom= 1.00D+00 WtEn= 0.00D+00
 Coeff-Com: -0.185D+01 0.590D+00 0.975D+00 0.569D+00 0.713D+00
 Coeff:     -0.185D+01 0.590D+00 0.975D+00 0.569D+00 0.713D+00
 Gap=     0.090 Goal=   None    Shift=    0.000
 Gap=     0.124 Goal=   None    Shift=    0.000
 RMSDP=8.45D-07 MaxDP=4.52D-05 DE= 8.62D-10 OVMax= 1.85D-04

 Cycle  22  Pass 1  IDiag  1:
 RMSU=  8.45D-07    CP:  1.00D+00
 E= -189.593155783216     Delta-E=        0.000000000173 Rises=F Damp=F
 DIIS: error= 6.95D-08 at cycle  22 NSaved=   6.
 NSaved= 6 IEnMin= 1 EnMin= -189.593155786586     IErMin= 6 ErrMin= 6.95D-08
 ErrMax= 6.95D-08  0.00D+00 EMaxC= 1.00D-01 BMatC= 1.78D-12 BMatP= 8.26D-12
 IDIUse=1 WtCom= 1.00D+00 WtEn= 0.00D+00
 Coeff-Com:  0.352D+00-0.253D+00-0.299D+00 0.365D-01 0.387D+00 0.776D+00
 Coeff:      0.352D+00-0.253D+00-0.299D+00 0.365D-01 0.387D+00 0.776D+00
 Gap=     0.090 Goal=   None    Shift=    0.000
 Gap=     0.124 Goal=   None    Shift=    0.000
 RMSDP=2.38D-07 MaxDP=1.27D-05 DE= 1.73D-10 OVMax= 5.20D-05

 Cycle  23  Pass 1  IDiag  1:
 RMSU=  1.34D-08    CP:  1.00D+00  1.28D+00
 E= -189.593155783203     Delta-E=        0.000000000013 Rises=F Damp=F
 DIIS: error= 4.19D-08 at cycle  23 NSaved=   7.
 NSaved= 7 IEnMin= 1 EnMin= -189.593155786586     IErMin= 7 ErrMin= 4.19D-08
 ErrMax= 4.19D-08  0.00D+00 EMaxC= 1.00D-01 BMatC= 3.56D-13 BMatP= 1.78D-12
 IDIUse=1 WtCom= 1.00D+00 WtEn= 0.00D+00
 Coeff-Com:  0.598D+00-0.302D+00-0.317D+00-0.125D+00 0.268D-01 0.356D+00
 Coeff-Com:  0.763D+00
 Coeff:      0.598D+00-0.302D+00-0.317D+00-0.125D+00 0.268D-01 0.356D+00
 Coeff:      0.763D+00
 Gap=     0.090 Goal=   None    Shift=    0.000
 Gap=     0.124 Goal=   None    Shift=    0.000
 RMSDP=4.07D-08 MaxDP=2.15D-06 DE= 1.31D-11 OVMax= 8.80D-06

 Cycle  24  Pass 1  IDiag  1:
 RMSU=  5.02D-09    CP:  1.00D+00  1.33D+00  1.11D+00
 E= -189.593155783207     Delta-E=       -0.000000000004 Rises=F Damp=F
 DIIS: error= 1.17D-08 at cycle  24 NSaved=   8.
 NSaved= 8 IEnMin= 1 EnMin= -189.593155786586     IErMin= 8 ErrMin= 1.17D-08
 ErrMax= 1.17D-08  0.00D+00 EMaxC= 1.00D-01 BMatC= 4.75D-14 BMatP= 3.56D-13
 IDIUse=1 WtCom= 1.00D+00 WtEn= 0.00D+00
 Coeff-Com:  0.120D+00-0.547D-01-0.405D-01-0.419D-01-0.419D-01-0.618D-01
 Coeff-Com:  0.217D+00 0.904D+00
 Coeff:      0.120D+00-0.547D-01-0.405D-01-0.419D-01-0.419D-01-0.618D-01
 Coeff:      0.217D+00 0.904D+00
 Gap=     0.090 Goal=   None    Shift=    0.000
 Gap=     0.124 Goal=   None    Shift=    0.000
 RMSDP=7.98D-09 MaxDP=4.01D-07 DE=-4.15D-12 OVMax= 1.65D-06

 SCF Done:  E(UB3LYP) =  -189.593155783     A.U. after   24 cycles
            NFock= 24  Conv=0.80D-08     -V/T= 2.0040
 <Sx>= 0.0000 <Sy>= 0.0000 <Sz>= 1.5000 <S**2>= 3.7927 S= 1.5106
 <L.S>= 0.000000000000E+00
 KE= 1.888389361589D+02 PE=-6.556918059189D+02 EE= 1.576794940369D+02
 Annihilation of the first spin contaminant:
 S**2 before annihilation     3.7927,   after     3.7506
 Leave Link  502 at Mon Jun 20 10:36:57 2016, MaxMem=    33554432 cpu:       659.2
 (Enter /home/proyectos/fulerenos/M3C-v1.9/M3C-deps_CCC/g09-AM64L-G09RevC.01/l801.exe)
 DoSCS=F DFT=T ScalE2(SS,OS)=  1.000000  1.000000
 Range of M.O.s used for correlation:     1   215
 NBasis=   215 NAE=    16 NBE=    13 NFC=     0 NFV=     0
 NROrb=    215 NOA=    16 NOB=    13 NVA=   199 NVB=   202

 **** Warning!!: The largest alpha MO coefficient is  0.16794470D+03


 **** Warning!!: The smallest alpha delta epsilon is  0.90139752D-01


 **** Warning!!: The largest beta MO coefficient is  0.15341771D+03

 Leave Link  801 at Mon Jun 20 10:36:57 2016, MaxMem=    33554432 cpu:         0.1
 (Enter /home/proyectos/fulerenos/M3C-v1.9/M3C-deps_CCC/g09-AM64L-G09RevC.01/l1101.exe)
 Using compressed storage, NAtomX=     7.
 Will process      8 centers per pass.
 Leave Link 1101 at Mon Jun 20 10:36:57 2016, MaxMem=    33554432 cpu:         0.8
 (Enter /home/proyectos/fulerenos/M3C-v1.9/M3C-deps_CCC/g09-AM64L-G09RevC.01/l1102.exe)
 Symmetrizing basis deriv contribution to polar:
 IMax=3 JMax=2 DiffMx= 0.00D+00
 Leave Link 1102 at Mon Jun 20 10:36:57 2016, MaxMem=    33554432 cpu:         0.1
 (Enter /home/proyectos/fulerenos/M3C-v1.9/M3C-deps_CCC/g09-AM64L-G09RevC.01/l1110.exe)
 Forming Gx(P) for the SCF density, NAtomX=     7.
 Integral derivatives from FoFJK, PRISM(SPDF).
 Do as many integral derivatives as possible in FoFJK.
 G2DrvN: MDV=      33554272.
 G2DrvN: will do     8 centers at a time, making    1 passes.
 Calling FoFCou, ICntrl=  3107 FMM=F I1Cent=   0 AccDes= 0.00D+00.
 FoFJK:  IHMeth= 1 ICntrl=    3107 DoSepK=F KAlg= 0 I1Cent=   0 FoldK=F
 IRaf=         0 NMat=   1 IRICut=       1 DoRegI=T DoRafI=F ISym2E= 0.
 FoFCou: FMM=F IPFlag=           0 FMFlag=      100000 FMFlg1=           0
         NFxFlg=           0 DoJE=F BraDBF=F KetDBF=F FulRan=T
         wScrn=  0.000000 ICntrl=    3107 IOpCl=  1 I1Cent=           0 NGrid=           0
         NMat0=    1 NMatS0=      1 NMatT0=    0 NMatD0=    1 NMtDS0=    0 NMtDT0=    0
 Symmetry not used in FoFCou.
 End of G2Drv F.D. properties file   721 does not exist.
 End of G2Drv F.D. properties file   722 does not exist.
 End of G2Drv F.D. properties file   788 does not exist.
 Leave Link 1110 at Mon Jun 20 10:37:44 2016, MaxMem=    33554432 cpu:       187.6
 (Enter /home/proyectos/fulerenos/M3C-v1.9/M3C-deps_CCC/g09-AM64L-G09RevC.01/l1002.exe)
 Minotr:  UHF open shell wavefunction.
          IDoAtm=1111111
          Direct CPHF calculation.
          Differentiating once with respect to electric field.
                with respect to dipole field.
          Differentiating once with respect to nuclear coordinates.
          Requested convergence is 1.0D-08 RMS, and 1.0D-07 maximum.
          Secondary convergence is 1.0D-12 RMS, and 1.0D-12 maximum.
          NewPWx=T KeepS1=F KeepF1=F KeepIn=T MapXYZ=F SortEE=F KeepMc=T.
          MDV=      33553928 using IRadAn=       2.
 Generate precomputed XC quadrature information.
          Solving linear equations simultaneously, MaxMat=       0.
 FoFJK:  IHMeth= 1 ICntrl=       0 DoSepK=F KAlg= 0 I1Cent=   0 FoldK=F
 IRaf= 990000000 NMat=  24 IRICut=      60 DoRegI=T DoRafI=T ISym2E= 2.
 FoFCou: FMM=F IPFlag=           0 FMFlag=      100000 FMFlg1=           0
         NFxFlg=           0 DoJE=F BraDBF=F KetDBF=F FulRan=T
         wScrn=  0.000000 ICntrl=       0 IOpCl=  1 I1Cent=           0 NGrid=           0
         NMat0=   24 NMatS0=     24 NMatT0=    0 NMatD0=   24 NMtDS0=    0 NMtDT0=    0
 Integrals replicated using symmetry in FoFCou.
          There are    24 degrees of freedom in the 1st order CPHF.  IDoFFX=6 NUNeed=     3.
     21 vectors produced by pass  0 Test12= 2.42D-14 4.17D-09 XBig12= 1.96D+02 8.62D+00.
 AX will form    21 AO Fock derivatives at one time.
     21 vectors produced by pass  1 Test12= 2.42D-14 4.17D-09 XBig12= 4.30D+01 2.42D+00.
     21 vectors produced by pass  2 Test12= 2.42D-14 4.17D-09 XBig12= 3.05D+00 4.86D-01.
     21 vectors produced by pass  3 Test12= 2.42D-14 4.17D-09 XBig12= 4.47D-02 5.31D-02.
     21 vectors produced by pass  4 Test12= 2.42D-14 4.17D-09 XBig12= 7.00D-04 7.79D-03.
     21 vectors produced by pass  5 Test12= 2.42D-14 4.17D-09 XBig12= 8.48D-06 7.84D-04.
     20 vectors produced by pass  6 Test12= 2.42D-14 4.17D-09 XBig12= 3.59D-08 2.98D-05.
     15 vectors produced by pass  7 Test12= 2.42D-14 4.17D-09 XBig12= 1.04D-10 2.57D-06.
      5 vectors produced by pass  8 Test12= 2.42D-14 4.17D-09 XBig12= 2.37D-13 9.79D-08.
      5 vectors produced by pass  9 Test12= 2.42D-14 4.17D-09 XBig12= 1.09D-13 1.00D-07.
      1 vectors produced by pass 10 Test12= 2.42D-14 4.17D-09 XBig12= 9.80D-16 4.28D-09.
 InvSVY:  IOpt=1 It=  1 EMax= 1.07D-14
 Solved reduced A of dimension   172 with    24 vectors.
 FullF1:  Do perturbations    1 to     3.
 Isotropic polarizability for W=    0.000000       37.33 Bohr**3.
 End of Minotr F.D. properties file   721 does not exist.
 End of Minotr F.D. properties file   722 does not exist.
 End of Minotr F.D. properties file   788 does not exist.
 Leave Link 1002 at Mon Jun 20 10:40:44 2016, MaxMem=    33554432 cpu:       720.1
 (Enter /home/proyectos/fulerenos/M3C-v1.9/M3C-deps_CCC/g09-AM64L-G09RevC.01/l601.exe)
 Copying SCF densities to generalized density rwf, IOpCl= 1 IROHF=0.

 **********************************************************************

            Population analysis using the SCF density.

 **********************************************************************

 Orbital symmetries:
 Alpha Orbitals:
       Occupied  (A) (A) (A) (A) (A) (A) (A) (A) (A) (A) (A) (A)
                 (A) (A) (A) (A)
       Virtual   (A) (A) (A) (A) (A) (A) (A) (A) (A) (A) (A) (A)
                 (A) (A) (A) (A) (A) (A) (A) (A) (A) (A) (A) (A)
                 (A) (A) (A) (A) (A) (A) (A) (A) (A) (A) (A) (A)
                 (A) (A) (A) (A) (A) (A) (A) (A) (A) (A) (A) (A)
                 (A) (A) (A) (A) (A) (A) (A) (A) (A) (A) (A) (A)
                 (A) (A) (A) (A) (A) (A) (A) (A) (A) (A) (A) (A)
                 (A) (A) (A) (A) (A) (A) (A) (A) (A) (A) (A) (A)
                 (A) (A) (A) (A) (A) (A) (A) (A) (A) (A) (A) (A)
                 (A) (A) (A) (A) (A) (A) (A) (A) (A) (A) (A) (A)
                 (A) (A) (A) (A) (A) (A) (A) (A) (A) (A) (A) (A)
                 (A) (A) (A) (A) (A) (A) (A) (A) (A) (A) (A) (A)
                 (A) (A) (A) (A) (A) (A) (A) (A) (A) (A) (A) (A)
                 (A) (A) (A) (A) (A) (A) (A) (A) (A) (A) (A) (A)
                 (A) (A) (A) (A) (A) (A) (A) (A) (A) (A) (A) (A)
                 (A) (A) (A) (A) (A) (A) (A) (A) (A) (A) (A) (A)
                 (A) (A) (A) (A) (A) (A) (A) (A) (A) (A) (A) (A)
                 (A) (A) (A) (A) (A) (A) (A)
 Beta  Orbitals:
       Occupied  (A) (A) (A) (A) (A) (A) (A) (A) (A) (A) (A) (A)
                 (A)
       Virtual   (A) (A) (A) (A) (A) (A) (A) (A) (A) (A) (A) (A)
                 (A) (A) (A) (A) (A) (A) (A) (A) (A) (A) (A) (A)
                 (A) (A) (A) (A) (A) (A) (A) (A) (A) (A) (A) (A)
                 (A) (A) (A) (A) (A) (A) (A) (A) (A) (A) (A) (A)
                 (A) (A) (A) (A) (A) (A) (A) (A) (A) (A) (A) (A)
                 (A) (A) (A) (A) (A) (A) (A) (A) (A) (A) (A) (A)
                 (A) (A) (A) (A) (A) (A) (A) (A) (A) (A) (A) (A)
                 (A) (A) (A) (A) (A) (A) (A) (A) (A) (A) (A) (A)
                 (A) (A) (A) (A) (A) (A) (A) (A) (A) (A) (A) (A)
                 (A) (A) (A) (A) (A) (A) (A) (A) (A) (A) (A) (A)
                 (A) (A) (A) (A) (A) (A) (A) (A) (A) (A) (A) (A)
                 (A) (A) (A) (A) (A) (A) (A) (A) (A) (A) (A) (A)
                 (A) (A) (A) (A) (A) (A) (A) (A) (A) (A) (A) (A)
                 (A) (A) (A) (A) (A) (A) (A) (A) (A) (A) (A) (A)
                 (A) (A) (A) (A) (A) (A) (A) (A) (A) (A) (A) (A)
                 (A) (A) (A) (A) (A) (A) (A) (A) (A) (A) (A) (A)
                 (A) (A) (A) (A) (A) (A) (A) (A) (A) (A)
 The electronic state is 4-A.
 Alpha  occ. eigenvalues --  -11.19156 -11.13245 -11.13223 -11.07421 -10.98787
 Alpha  occ. eigenvalues --   -1.78489  -1.57226  -1.45999  -1.36208  -1.23027
 Alpha  occ. eigenvalues --   -1.22950  -1.18623  -1.18568  -1.12743  -1.12732
 Alpha  occ. eigenvalues --   -1.03836
 Alpha virt. eigenvalues --   -0.94822  -0.86701  -0.79782  -0.74945  -0.60720
 Alpha virt. eigenvalues --   -0.55205  -0.53501  -0.48673  -0.46372  -0.46290
 Alpha virt. eigenvalues --   -0.45928  -0.41806  -0.41465  -0.40749  -0.39113
 Alpha virt. eigenvalues --   -0.37372  -0.37319  -0.36215  -0.34829  -0.34537
 Alpha virt. eigenvalues --   -0.33309  -0.29951  -0.29741  -0.28052  -0.26878
 Alpha virt. eigenvalues --   -0.26694  -0.25581  -0.25056  -0.23443  -0.23272
 Alpha virt. eigenvalues --   -0.21786  -0.20346  -0.19324  -0.18325  -0.17773
 Alpha virt. eigenvalues --   -0.16413  -0.16389  -0.13552  -0.11683  -0.10776
 Alpha virt. eigenvalues --   -0.10759  -0.09880  -0.09022  -0.05869  -0.05765
 Alpha virt. eigenvalues --   -0.05416  -0.04367  -0.03908  -0.03896  -0.02789
 Alpha virt. eigenvalues --   -0.02105  -0.01577   0.00277   0.00780   0.00802
 Alpha virt. eigenvalues --    0.02694   0.04744   0.07166   0.07253   0.08430
 Alpha virt. eigenvalues --    0.10620   0.14358   0.15902   0.16439   0.17130
 Alpha virt. eigenvalues --    0.20259   0.20729   0.23445   0.25287   0.29892
 Alpha virt. eigenvalues --    0.30641   0.41685   0.42222   0.47161   0.47258
 Alpha virt. eigenvalues --    0.53440   0.54526   0.56020   0.59917   0.60279
 Alpha virt. eigenvalues --    0.61949   0.64116   0.65245   0.66271   0.67842
 Alpha virt. eigenvalues --    0.69317   0.73694   0.81666   0.82514   0.83916
 Alpha virt. eigenvalues --    0.84471   0.87102   0.88432   0.92612   0.93042
 Alpha virt. eigenvalues --    0.95231   0.99828   1.07801   1.12070   1.12817
 Alpha virt. eigenvalues --    1.18953   1.22548   1.29158   1.31660   1.32328
 Alpha virt. eigenvalues --    1.36991   1.41256   1.43005   1.53622   1.60240
 Alpha virt. eigenvalues --    1.70969   1.80373   1.82030   1.89236   1.90212
 Alpha virt. eigenvalues --    1.96426   1.97858   1.98653   1.99182   2.01768
 Alpha virt. eigenvalues --    2.02286   2.04356   2.08281   2.12015   2.12261
 Alpha virt. eigenvalues --    2.19909   2.21581   2.21671   2.23390   2.24657
 Alpha virt. eigenvalues --    2.25058   2.38124   2.42380   2.43056   2.47355
 Alpha virt. eigenvalues --    2.48321   2.50876   2.51182   2.51278   2.53041
 Alpha virt. eigenvalues --    2.54956   2.73981   2.75644   2.75665   2.79560
 Alpha virt. eigenvalues --    3.02155   3.05785   3.13675   3.14897   3.15052
 Alpha virt. eigenvalues --    3.20694   3.24838   3.28949   3.33160   3.43122
 Alpha virt. eigenvalues --    3.53881   3.63679   3.66865   3.79840   3.82830
 Alpha virt. eigenvalues --    3.97902   4.07892   4.09265   4.24236   4.29424
 Alpha virt. eigenvalues --    4.64811   4.74718   4.89433   5.01853   6.03241
 Alpha virt. eigenvalues --    6.05272   6.15645   6.18361   6.21906   6.26214
 Alpha virt. eigenvalues --    6.28677   6.39080   6.40159   6.43245   6.44904
 Alpha virt. eigenvalues --    6.52706   6.57655   6.65097   6.66495   6.82646
 Alpha virt. eigenvalues --    6.83431   6.89377   6.92936   7.19479   7.35012
 Alpha virt. eigenvalues --    7.36205   7.40862   7.61003   8.00510  23.10792
 Alpha virt. eigenvalues --   23.60504  23.70756  24.16419  24.55307
  Beta  occ. eigenvalues --  -11.15285 -11.11757 -11.11744 -11.07391 -10.98894
  Beta  occ. eigenvalues --   -1.76860  -1.54042  -1.43476  -1.31607  -1.21125
  Beta  occ. eigenvalues --   -1.20319  -1.17089  -1.09567
  Beta virt. eigenvalues --   -0.97134  -0.93886  -0.89123  -0.88111  -0.82258
  Beta virt. eigenvalues --   -0.73750  -0.69100  -0.58344  -0.53980  -0.53073
  Beta virt. eigenvalues --   -0.46405  -0.46020  -0.45048  -0.43775  -0.41198
  Beta virt. eigenvalues --   -0.40554  -0.39525  -0.37742  -0.36704  -0.36640
  Beta virt. eigenvalues --   -0.33794  -0.33498  -0.32971  -0.32960  -0.28989
  Beta virt. eigenvalues --   -0.28922  -0.27127  -0.26636  -0.25915  -0.24975
  Beta virt. eigenvalues --   -0.24653  -0.23232  -0.23136  -0.21183  -0.19354
  Beta virt. eigenvalues --   -0.18789  -0.17186  -0.16745  -0.16184  -0.15931
  Beta virt. eigenvalues --   -0.12408  -0.10327  -0.10264  -0.09203  -0.08838
  Beta virt. eigenvalues --   -0.07367  -0.05393  -0.05173  -0.03858  -0.02682
  Beta virt. eigenvalues --   -0.02678  -0.01701  -0.01639  -0.00707  -0.00669
  Beta virt. eigenvalues --    0.00871   0.01171   0.01381   0.03212   0.05404
  Beta virt. eigenvalues --    0.08272   0.08711   0.08774   0.11411   0.14908
  Beta virt. eigenvalues --    0.16295   0.17269   0.18098   0.20927   0.22152
  Beta virt. eigenvalues --    0.24706   0.26338   0.30485   0.30861   0.42941
  Beta virt. eigenvalues --    0.43622   0.47795   0.48433   0.55301   0.56168
  Beta virt. eigenvalues --    0.56897   0.60799   0.60875   0.63144   0.66198
  Beta virt. eigenvalues --    0.66444   0.68667   0.70278   0.71688   0.76089
  Beta virt. eigenvalues --    0.83266   0.87367   0.87593   0.89464   0.91267
  Beta virt. eigenvalues --    0.92292   0.94146   0.94191   0.98617   1.02519
  Beta virt. eigenvalues --    1.09853   1.16544   1.18060   1.26304   1.27499
  Beta virt. eigenvalues --    1.30853   1.33749   1.33854   1.42101   1.42835
  Beta virt. eigenvalues --    1.45477   1.54936   1.63807   1.74771   1.84912
  Beta virt. eigenvalues --    1.85487   1.91707   1.93650   1.99291   2.00647
  Beta virt. eigenvalues --    2.02090   2.05300   2.06780   2.08346   2.09376
  Beta virt. eigenvalues --    2.11492   2.12061   2.14130   2.22149   2.22945
  Beta virt. eigenvalues --    2.23688   2.24980   2.27671   2.28043   2.42058
  Beta virt. eigenvalues --    2.44185   2.45809   2.49735   2.52245   2.52774
  Beta virt. eigenvalues --    2.53826   2.55539   2.55675   2.58226   2.76323
  Beta virt. eigenvalues --    2.77435   2.79765   2.81017   3.04682   3.08847
  Beta virt. eigenvalues --    3.14691   3.17545   3.17565   3.23847   3.27390
  Beta virt. eigenvalues --    3.31815   3.34830   3.46036   3.54946   3.64779
  Beta virt. eigenvalues --    3.68537   3.81361   3.83847   4.01327   4.09784
  Beta virt. eigenvalues --    4.12011   4.25700   4.31465   4.66054   4.75505
  Beta virt. eigenvalues --    4.90968   5.04417   6.11798   6.12054   6.20013
  Beta virt. eigenvalues --    6.20974   6.26992   6.30297   6.37901   6.38902
  Beta virt. eigenvalues --    6.43995   6.44336   6.50725   6.58324   6.61286
  Beta virt. eigenvalues --    6.67679   6.70674   6.84248   6.84409   6.89684
  Beta virt. eigenvalues --    6.96959   7.20839   7.36811   7.37921   7.42976
  Beta virt. eigenvalues --    7.62719   8.03859  23.12943  23.60554  23.74289
  Beta virt. eigenvalues --   24.18168  24.55893
          Condensed to atoms (all electrons):
               1          2          3          4          5          6
     1  C    7.561399  -1.469671   0.909305  -1.472161   0.197196  -0.003586
     2  C   -1.469671   8.458292  -1.316340   0.552307  -1.380417  -0.031600
     3  C    0.909305  -1.316340   7.011221  -1.309284   0.597199   0.411199
     4  C   -1.472161   0.552307  -1.309284   8.457268  -1.382782  -0.031242
     5  C    0.197196  -1.380417   0.597199  -1.382782   7.693585   0.000360
     6  H   -0.003586  -0.031600   0.411199  -0.031242   0.000360   0.308898
     7  H   -0.003185  -0.032034   0.411579  -0.031681   0.000457  -0.015382
               7
     1  C   -0.003185
     2  C   -0.032034
     3  C    0.411579
     4  C   -0.031681
     5  C    0.000457
     6  H   -0.015382
     7  H    0.308863
          Atomic-Atomic Spin Densities.
               1          2          3          4          5          6
     1  C    1.162535  -0.344612   0.317925  -0.342976  -0.530248  -0.022856
     2  C   -0.344612   0.855727  -0.341117   0.492793  -0.244890   0.018709
     3  C    0.317925  -0.341117   0.180075  -0.340437   0.234251  -0.001527
     4  C   -0.342976   0.492793  -0.340437   0.856567  -0.244959   0.018666
     5  C   -0.530248  -0.244890   0.234251  -0.244959   2.536717  -0.003473
     6  H   -0.022856   0.018709  -0.001527   0.018666  -0.003473   0.028629
     7  H   -0.022948   0.018801  -0.001597   0.018740  -0.003497   0.000809
               7
     1  C   -0.022948
     2  C    0.018801
     3  C   -0.001597
     4  C    0.018740
     5  C   -0.003497
     6  H    0.000809
     7  H    0.028634
 Mulliken charges and spin densities:
               1          2
     1  C    0.280703   0.216821
     2  C    1.219464   0.455412
     3  C   -0.714880   0.047573
     4  C    1.217575   0.458395
     5  C    0.274404   1.743902
     6  H    0.361352   0.038957
     7  H    0.361383   0.038941
 Sum of Mulliken charges =   3.00000   3.00000
 Mulliken charges and spin densities with hydrogens summed into heavy atoms:
               1          2
     1  C    0.280703   0.216821
     2  C    1.219464   0.455412
     3  C    0.007855   0.125471
     4  C    1.217575   0.458395
     5  C    0.274404   1.743902
 APT charges:
               1
     1  C   -0.017653
     2  C    0.530166
     3  C    0.058740
     4  C    0.527435
     5  C    1.115153
     6  H    0.393065
     7  H    0.393094
 Sum of APT charges =   3.00000
 APT charges with hydrogens summed into heavy atoms:
               1
     1  C   -0.017653
     2  C    0.530166
     3  C    0.844899
     4  C    0.527435
     5  C    1.115153
 Electronic spatial extent (au):  <R**2>=            261.3836
 Charge=              3.0000 electrons
 Dipole moment (field-independent basis, Debye):
    X=             -2.2886    Y=             -0.0009    Z=              0.0001  Tot=              2.2886
 Quadrupole moment (field-independent basis, Debye-Ang):
   XX=             22.7756   YY=            -15.3111   ZZ=            -18.8534
   XY=              0.0042   XZ=             -0.0001   YZ=              0.0009
 Traceless Quadrupole moment (field-independent basis, Debye-Ang):
   XX=             26.5719   YY=            -11.5148   ZZ=            -15.0571
   XY=              0.0042   XZ=             -0.0001   YZ=              0.0009
 Octapole moment (field-independent basis, Debye-Ang**2):
  XXX=            -23.5197  YYY=              0.0078  ZZZ=              0.0018  XYY=             -0.7385
  XXY=             -0.0265  XXZ=              0.0036  XZZ=              7.5055  YZZ=             -0.0002
  YYZ=             -0.0008  XYZ=             -0.0003
 Hexadecapole moment (field-independent basis, Debye-Ang**3):
 XXXX=            -13.3691 YYYY=            -38.2429 ZZZZ=            -20.0413 XXXY=              0.0246
 XXXZ=             -0.0043 YYYX=              0.0060 YYYZ=              0.0004 ZZZX=              0.0038
 ZZZY=              0.0010 XXYY=            -43.8130 XXZZ=            -29.0295 YYZZ=            -10.9281
 XXYZ=              0.0051 YYXZ=             -0.0004 ZZXY=              0.0002
 N-N= 1.195802199400D+02 E-N=-6.556918055131D+02  KE= 1.888389361589D+02
  Exact polarizability:  60.968   0.006  28.907   0.000   0.001  22.122
 Approx polarizability: 113.022   0.036  67.491  -0.001   0.001  32.465
                          Isotropic Fermi Contact Couplings
        Atom                 a.u.       MegaHertz       Gauss      10(-4) cm-1
     1  C(13)              0.16889      63.28814      22.58278      21.11065
     2  C(13)              0.56296     210.95898      75.27541      70.36834
     3  C(13)              0.01208       4.52650       1.61517       1.50988
     4  C(13)              0.56772     212.74058      75.91113      70.96262
     5  C(13)              1.59177     596.48532     212.84079     198.96609
     6  H(1)               0.02250      33.52225      11.96157      11.18182
     7  H(1)               0.02249      33.51493      11.95896      11.17938
 --------------------------------------------------------
       Center         ----  Spin Dipole Couplings  ----
                      3XX-RR        3YY-RR        3ZZ-RR
 --------------------------------------------------------
     1   Atom        0.389650     -0.087796     -0.301854
     2   Atom       -0.407748      0.562690     -0.154941
     3   Atom        0.069635     -0.162974      0.093339
     4   Atom       -0.408976      0.563012     -0.154036
     5   Atom        0.139265     -1.143637      1.004373
     6   Atom        0.015056     -0.011447     -0.003609
     7   Atom        0.015067     -0.011447     -0.003620
 --------------------------------------------------------
                        XY            XZ            YZ
 --------------------------------------------------------
     1   Atom        0.000735     -0.000030      0.000027
     2   Atom       -0.059637     -0.000134     -0.000058
     3   Atom       -0.000053      0.000019     -0.000039
     4   Atom        0.061916      0.000096     -0.000026
     5   Atom        0.000730      0.000043     -0.001173
     6   Atom       -0.000022      0.014633     -0.000002
     7   Atom       -0.000031     -0.014630      0.000014
 --------------------------------------------------------


 ---------------------------------------------------------------------------------
              Anisotropic Spin Dipole Couplings in Principal Axis System
 ---------------------------------------------------------------------------------

       Atom             a.u.   MegaHertz   Gauss  10(-4) cm-1        Axes

              Baa    -0.3019   -40.506   -14.454   -13.511  0.0000 -0.0001  1.0000
     1 C(13)  Bbb    -0.0878   -11.782    -4.204    -3.930 -0.0015  1.0000  0.0001
              Bcc     0.3897    52.288    18.657    17.441  1.0000  0.0015 -0.0000
 
              Baa    -0.4114   -55.206   -19.699   -18.415  0.9981  0.0611  0.0005
     2 C(13)  Bbb    -0.1549   -20.792    -7.419    -6.935 -0.0005  0.0000  1.0000
              Bcc     0.5663    75.998    27.118    25.350 -0.0611  0.9981 -0.0001
 
              Baa    -0.1630   -21.870    -7.804    -7.295  0.0002  1.0000  0.0002
     3 C(13)  Bbb     0.0696     9.344     3.334     3.117  1.0000 -0.0002 -0.0008
              Bcc     0.0933    12.525     4.469     4.178  0.0008 -0.0002  1.0000
 
              Baa    -0.4129   -55.408   -19.771   -18.482  0.9980 -0.0633 -0.0004
     4 C(13)  Bbb    -0.1540   -20.670    -7.376    -6.895  0.0004  0.0000  1.0000
              Bcc     0.5669    76.078    27.147    25.377  0.0633  0.9980 -0.0000
 
              Baa    -1.1436  -153.465   -54.760   -51.191 -0.0006  1.0000  0.0005
     5 C(13)  Bbb     0.1393    18.688     6.668     6.234  1.0000  0.0006 -0.0000
              Bcc     1.0044   134.777    48.092    44.957  0.0000 -0.0005  1.0000
 
              Baa    -0.0116    -6.206    -2.215    -2.070 -0.4802 -0.0483  0.8758
     6 H(1)   Bbb    -0.0114    -6.107    -2.179    -2.037 -0.0227  0.9988  0.0426
              Bcc     0.0231    12.314     4.394     4.107  0.8768 -0.0006  0.4808
 
              Baa    -0.0116    -6.208    -2.215    -2.071  0.4805  0.0150  0.8769
     7 H(1)   Bbb    -0.0114    -6.108    -2.179    -2.037 -0.0063  0.9999 -0.0136
              Bcc     0.0231    12.316     4.395     4.108  0.8770 -0.0010 -0.4805
 

 ---------------------------------------------------------------------------------

 No NMR shielding tensors so no spin-rotation constants.
 Leave Link  601 at Mon Jun 20 10:40:44 2016, MaxMem=    33554432 cpu:         1.4
 (Enter /home/proyectos/fulerenos/M3C-v1.9/M3C-deps_CCC/g09-AM64L-G09RevC.01/l701.exe)
 Compute integral second derivatives.
 ... and contract with generalized density number  0.
 Leave Link  701 at Mon Jun 20 10:40:45 2016, MaxMem=    33554432 cpu:         1.0
 (Enter /home/proyectos/fulerenos/M3C-v1.9/M3C-deps_CCC/g09-AM64L-G09RevC.01/l702.exe)
 L702 exits ... SP integral derivatives will be done elsewhere.
 Leave Link  702 at Mon Jun 20 10:40:45 2016, MaxMem=    33554432 cpu:         0.1
 (Enter /home/proyectos/fulerenos/M3C-v1.9/M3C-deps_CCC/g09-AM64L-G09RevC.01/l703.exe)
 Compute integral second derivatives, UseDBF=F ICtDFT=           0.
 Integral derivatives from FoFJK, PRISM(SPDF).
 Calling FoFJK, ICntrl=    100127 FMM=F ISym2X=0 I1Cent= 0 IOpClX= 1 NMat=1 NMatS=1 NMatT=0.
 FoFJK:  IHMeth= 1 ICntrl=  100127 DoSepK=F KAlg= 0 I1Cent=   0 FoldK=F
 IRaf=         0 NMat=   1 IRICut=       1 DoRegI=T DoRafI=F ISym2E= 0.
 FoFCou: FMM=F IPFlag=           0 FMFlag=      100000 FMFlg1=         800
         NFxFlg=           0 DoJE=F BraDBF=F KetDBF=F FulRan=T
         wScrn=  0.000000 ICntrl=  100127 IOpCl=  1 I1Cent=           0 NGrid=           0
         NMat0=    1 NMatS0=      1 NMatT0=    0 NMatD0=    1 NMtDS0=    0 NMtDT0=    0
 Symmetry not used in FoFCou.
 Leave Link  703 at Mon Jun 20 10:42:08 2016, MaxMem=    33554432 cpu:       334.2
 (Enter /home/proyectos/fulerenos/M3C-v1.9/M3C-deps_CCC/g09-AM64L-G09RevC.01/l716.exe)
 Dipole        =-9.00386973D-01-3.60260706D-04 5.89679435D-05
 Polarizability= 6.09683056D+01 5.89359961D-03 2.89068842D+01
                 1.26729970D-04 6.57478665D-04 2.21220816D+01
 Full mass-weighted force constant matrix:
 Low frequencies --- -297.1625  -12.0837   -9.2755   -8.8258    0.0002    0.0007
 Low frequencies ---    0.0007  272.2701  370.7116
 ******    1 imaginary frequencies (negative Signs) ****** 
 Diagonal vibrational polarizability:
        8.7940591       3.4080072       8.2067135
 Harmonic frequencies (cm**-1), IR intensities (KM/Mole), Raman scattering
 activities (A**4/AMU), depolarization ratios for plane and unpolarized
 incident light, reduced masses (AMU), force constants (mDyne/A),
 and normal coordinates:
                      1                      2                      3
                      A                      A                      A
 Frequencies --   -297.1624               272.2681               370.7113
 Red. masses --     10.7751                 3.6724                 9.0260
 Frc consts  --      0.5606                 0.1604                 0.7308
 IR Inten    --      0.2956                17.2258                 8.1179
  Atom  AN      X      Y      Z        X      Y      Z        X      Y      Z
     1   6     0.00  -0.10   0.00    -0.00  -0.00  -0.20    -0.00  -0.48  -0.00
     2   6    -0.31  -0.37  -0.00     0.00   0.00  -0.19     0.35  -0.06   0.00
     3   6    -0.00   0.61   0.00    -0.00  -0.00   0.22     0.00   0.03  -0.00
     4   6     0.31  -0.37   0.00    -0.00  -0.00  -0.19    -0.36  -0.06   0.00
     5   6     0.00   0.20  -0.00     0.00   0.00   0.29    -0.00   0.49   0.00
     6   1    -0.00   0.24  -0.00    -0.40  -0.00   0.47     0.00   0.37  -0.00
     7   1    -0.00   0.24   0.00     0.40   0.00   0.47     0.00   0.37  -0.00
                      4                      5                      6
                      A                      A                      A
 Frequencies --    455.6881               707.2599               891.4997
 Red. masses --      7.4400                 9.0930                 5.5095
 Frc consts  --      0.9103                 2.6799                 2.5799
 IR Inten    --      6.0242                11.8928                 0.0782
  Atom  AN      X      Y      Z        X      Y      Z        X      Y      Z
     1   6    -0.00  -0.00   0.62    -0.19   0.00  -0.00     0.00   0.44   0.00
     2   6     0.00   0.00  -0.29     0.07   0.18   0.00     0.22  -0.25   0.00
     3   6     0.00  -0.00   0.08     0.56   0.00   0.00    -0.00  -0.03  -0.00
     4   6    -0.00   0.00  -0.29     0.07  -0.18  -0.00    -0.22  -0.24  -0.00
     5   6     0.00   0.00  -0.18    -0.56  -0.00   0.00     0.00  -0.01  -0.00
     6   1    -0.35  -0.00   0.30     0.34   0.00   0.12     0.00   0.54  -0.00
     7   1     0.35   0.00   0.30     0.34   0.00  -0.12     0.00   0.54   0.00
                      7                      8                      9
                      A                      A                      A
 Frequencies --    955.8325               972.1899               983.6603
 Red. masses --     11.3102                 1.3704                10.2842
 Frc consts  --      6.0881                 0.7631                 5.8629
 IR Inten    --     57.3851                 1.5264                31.2166
  Atom  AN      X      Y      Z        X      Y      Z        X      Y      Z
     1   6    -0.33   0.00  -0.00     0.00   0.00   0.00    -0.06  -0.00   0.00
     2   6    -0.21   0.44  -0.00     0.00  -0.00  -0.07    -0.33  -0.41  -0.00
     3   6     0.20  -0.00   0.00    -0.00  -0.00   0.16     0.49   0.00   0.00
     4   6    -0.21  -0.44  -0.00     0.00   0.00  -0.07    -0.33   0.41  -0.00
     5   6     0.56   0.00   0.00    -0.00  -0.00   0.01     0.19   0.00  -0.00
     6   1    -0.03   0.00   0.17     0.66  -0.00  -0.22     0.27  -0.01   0.08
     7   1    -0.03   0.01  -0.18    -0.66   0.00  -0.22     0.27  -0.00  -0.08
                     10                     11                     12
                      A                      A                      A
 Frequencies --   1101.0326              1305.6590              1331.5102
 Red. masses --      1.3302                 1.1137                 1.1234
 Frc consts  --      0.9501                 1.1187                 1.1735
 IR Inten    --     77.7811               148.7219                 0.0006
  Atom  AN      X      Y      Z        X      Y      Z        X      Y      Z
     1   6     0.00  -0.05   0.00    -0.08  -0.00   0.00     0.00   0.00   0.00
     2   6    -0.08   0.02   0.00     0.01  -0.01  -0.00    -0.00   0.00  -0.07
     3   6     0.00  -0.11  -0.00    -0.06  -0.00  -0.00     0.00  -0.00   0.00
     4   6     0.08   0.02   0.00     0.01   0.01   0.00    -0.00  -0.00   0.07
     5   6    -0.00  -0.00  -0.00     0.02   0.00   0.00     0.00  -0.00  -0.00
     6   1    -0.00   0.70  -0.00     0.60   0.00  -0.36    -0.00   0.70   0.00
     7   1    -0.00   0.70   0.00     0.60  -0.00   0.36    -0.00  -0.70  -0.00
                     13                     14                     15
                      A                      A                      A
 Frequencies --   1528.7804              2752.7765              2842.7294
 Red. masses --      7.3290                 1.0435                 1.1284
 Frc consts  --     10.0922                 4.6588                 5.3727
 IR Inten    --     54.0791               738.9383               339.0477
  Atom  AN      X      Y      Z        X      Y      Z        X      Y      Z
     1   6     0.59   0.00  -0.00     0.01  -0.00  -0.00    -0.00  -0.00   0.00
     2   6    -0.28   0.17  -0.00    -0.00  -0.00   0.00     0.00   0.00   0.00
     3   6     0.01   0.00   0.00    -0.06  -0.00  -0.00     0.00  -0.00  -0.10
     4   6    -0.28  -0.17   0.00    -0.00   0.00  -0.00     0.00   0.00   0.00
     5   6    -0.12  -0.00  -0.00    -0.00  -0.00   0.00    -0.00   0.00  -0.00
     6   1     0.38   0.00  -0.27     0.35   0.00   0.62     0.36   0.00   0.61
     7   1     0.38  -0.00   0.27     0.35   0.00  -0.61    -0.36  -0.00   0.61

 -------------------
 - Thermochemistry -
 -------------------
 Temperature   298.150 Kelvin.  Pressure   1.00000 Atm.
 Atom     1 has atomic number  6 and mass  12.00000
 Atom     2 has atomic number  6 and mass  12.00000
 Atom     3 has atomic number  6 and mass  12.00000
 Atom     4 has atomic number  6 and mass  12.00000
 Atom     5 has atomic number  6 and mass  12.00000
 Atom     6 has atomic number  1 and mass   1.00783
 Atom     7 has atomic number  1 and mass   1.00783
 Molecular mass:    62.01565 amu.
 Principal axes and moments of inertia in atomic units:
                           1         2         3
     Eigenvalues --    59.06573 410.55147 456.35004
           X            1.00000  -0.00001   0.00000
           Y            0.00001   1.00000   0.00002
           Z           -0.00000  -0.00002   1.00000
 This molecule is an asymmetric top.
 Rotational symmetry number  1.
 Rotational temperatures (Kelvin)      1.46640     0.21097     0.18980
 Rotational constants (GHZ):          30.55480     4.39590     3.95473
    1 imaginary frequencies ignored.
 Zero-point vibrational energy      98522.0 (Joules/Mol)
                                   23.54733 (Kcal/Mol)
 Warning -- explicit consideration of   3 degrees of freedom as
           vibrations may cause significant error
 Vibrational temperatures:    391.73   533.37   655.63  1017.59  1282.67
          (Kelvin)           1375.23  1398.76  1415.27  1584.14  1878.55
                             1915.74  2199.57  3960.63  4090.05
 
 Zero-point correction=                           0.037525 (Hartree/Particle)
 Thermal correction to Energy=                    0.041751
 Thermal correction to Enthalpy=                  0.042695
 Thermal correction to Gibbs Free Energy=         0.009775
 Sum of electronic and zero-point Energies=           -189.555631
 Sum of electronic and thermal Energies=              -189.551405
 Sum of electronic and thermal Enthalpies=            -189.550461
 Sum of electronic and thermal Free Energies=         -189.583381
 
                     E (Thermal)             CV                S
                      KCal/Mol        Cal/Mol-Kelvin    Cal/Mol-Kelvin
 Total                   26.199             13.753             69.286
 Electronic               0.000              0.000              2.755
 Translational            0.889              2.981             38.294
 Rotational               0.889              2.981             23.919
 Vibrational             24.422              7.791              4.319
 Vibration     1          0.675              1.724              1.582
 Vibration     2          0.743              1.532              1.077
 Vibration     3          0.814              1.348              0.779
                       Q            Log10(Q)             Ln(Q)
 Total Bot       0.318979D-04         -4.496238        -10.352971
 Total V=0       0.580838D+13         12.764055         29.390323
 Vib (Bot)       0.110318D-16        -16.957352        -39.045747
 Vib (Bot)    1  0.708997D+00         -0.149355         -0.343903
 Vib (Bot)    2  0.490869D+00         -0.309034         -0.711578
 Vib (Bot)    3  0.374584D+00         -0.426451         -0.981940
 Vib (V=0)       0.200882D+01          0.302941          0.697547
 Vib (V=0)    1  0.136757D+01          0.135949          0.313035
 Vib (V=0)    2  0.120068D+01          0.079427          0.182888
 Vib (V=0)    3  0.112475D+01          0.051056          0.117561
 Electronic      0.400000D+01          0.602060          1.386294
 Translational   0.191958D+08          7.283207         16.770204
 Rotational      0.376571D+05          4.575847         10.536277
 
                                                              b3lyp opt
                                                             IR Spectrum
 
     2    2                                                     1        11        1                                                 
     8    7                                                     5        33        1    999  8       7          4   3   2            
     4    5                                                     2        30        0    875  9       0          5   7   7            
     3    3                                                     9        26        1    426  1       7          6   1   2            
 
     X    X                                                     X         X        X    XXX  X       X          X   X   X            
     X    X                                                               X        X      X                                          
     X    X                                                               X                                                          
     X    X                                                               X                                                          
     X    X                                                                                                                          
     X    X                                                                                                                          
     X    X                                                                                                                          
     X    X                                                                                                                          
     X    X                                                                                                                          
          X                                                                                                                          
          X                                                                                                                          
          X                                                                                                                          
          X                                                                                                                          
          X                                                                                                                          
          X                                                                                                                          
          X                                                                                                                          
          X                                                                                                                          
          X                                                                                                                          
          X                                                                                                                          
          X                                                                                                                          
 
 ***** Axes restored to original set *****
 -------------------------------------------------------------------
 Center     Atomic                   Forces (Hartrees/Bohr)
 Number     Number              X              Y              Z
 -------------------------------------------------------------------
      1        6           0.000062086   -0.000008455   -0.000012249
      2        6           0.000147043    0.000238554    0.000027903
      3        6          -0.000361363    0.000069259   -0.000020505
      4        6           0.000255623   -0.000302319    0.000004836
      5        6          -0.000101785    0.000004793   -0.000002242
      6        1           0.000000720    0.000008399   -0.000085250
      7        1          -0.000002323   -0.000010230    0.000087508
 -------------------------------------------------------------------
 Cartesian Forces:  Max     0.000361363 RMS     0.000138262
 Z-matrix is all fixed cartesians, so copy forces.
 Force constants in Cartesian coordinates: 
                1             2             3             4             5 
      1  0.719665D+00
      2  0.331949D-03  0.181278D+00
      3 -0.595707D-04  0.355747D-04  0.625328D-01
      4 -0.252841D+00  0.792676D-01  0.229388D-04  0.289041D+00
      5  0.118454D+00 -0.884798D-01 -0.191522D-04 -0.106819D+00  0.279058D+00
      6  0.551906D-04  0.983172D-05 -0.232578D-01 -0.507299D-04  0.122417D-03
      7 -0.441740D-01  0.131222D-03  0.122473D-04 -0.937165D-01 -0.224228D-01
      8  0.717674D-05  0.166925D-01  0.184746D-04  0.498122D-01  0.423683D-02
      9 -0.220971D-04 -0.132351D-04  0.197801D-02  0.333871D-04  0.378245D-04
     10 -0.252586D+00 -0.796591D-01  0.137765D-05  0.132869D+00  0.841730D-02
     11 -0.118681D+00 -0.889213D-01 -0.282487D-04 -0.767418D-02 -0.193144D+00
     12  0.118114D-04 -0.375933D-04 -0.229039D-01 -0.113590D-04 -0.130781D-03
     13 -0.185401D+00 -0.156923D-04  0.213695D-04 -0.378896D-01  0.136235D-02
     14 -0.128750D-03 -0.227631D-01 -0.295230D-05  0.153622D-01  0.324238D-02
     15  0.179761D-04  0.000000D+00 -0.228334D-01  0.970125D-05  0.000000D+00
     16  0.766951D-02 -0.280151D-04  0.120722D-02 -0.187282D-01  0.503357D-03
     17 -0.418649D-05  0.111461D-02 -0.145463D-03 -0.149765D-01 -0.243359D-02
     18 -0.100201D-01  0.222694D-04  0.224263D-02  0.140348D-02  0.868595D-02
     19  0.766667D-02 -0.279549D-04 -0.120558D-02 -0.187346D-01  0.505421D-03
     20  0.210434D-04  0.107938D-02  0.141767D-03 -0.149719D-01 -0.247907D-02
     21  0.100168D-01 -0.160944D-04  0.224168D-02 -0.140742D-02 -0.869725D-02
                6             7             8             9            10 
      6  0.781377D-01
      7  0.852114D-04  0.386288D+00
      8 -0.166769D-04  0.802836D-03  0.468345D-01
      9 -0.540652D-01  0.495863D-04 -0.195177D-03  0.525846D+00
     10 -0.948776D-04 -0.926341D-01 -0.505619D-01  0.110206D-04  0.287473D+00
     11 -0.112699D-03  0.216936D-01  0.382052D-02  0.153593D-04  0.107260D+00
     12 -0.125306D-01 -0.814446D-04  0.482260D-04 -0.536354D-01  0.717582D-04
     13  0.198515D-04  0.335275D-03 -0.216267D-04  0.248460D-05 -0.380243D-01
     14 -0.692858D-05  0.122005D-05 -0.325986D-02 -0.175643D-05 -0.154135D-01
     15 -0.862074D-03  0.675002D-05 -0.105472D-04  0.154375D-01 -0.122979D-04
     16  0.945336D-02 -0.779978D-01 -0.570765D-04  0.911068D-01 -0.185479D-01
     17  0.369251D-01 -0.711598D-04 -0.341738D-01  0.121006D-03  0.149250D-01
     18  0.631587D-02  0.952580D-01  0.176369D-03 -0.217828D+00  0.135146D-02
     19 -0.946801D-02 -0.781006D-01  0.183771D-04 -0.911812D-01 -0.185504D-01
     20 -0.369210D-01 -0.134836D-03 -0.341507D-01  0.359792D-04  0.150321D-01
     21  0.626215D-02 -0.953304D-01 -0.206677D-04 -0.217733D+00 -0.132844D-02
               11            12            13            14            15 
     11  0.279730D+00
     12  0.131234D-03  0.774658D-01
     13 -0.152969D-02 -0.292700D-04  0.274213D+00
     14  0.321101D-02  0.694448D-05  0.187795D-03  0.186348D-01
     15  0.302030D-05 -0.919468D-03 -0.207259D-04  0.415309D-05  0.140363D-01
     16 -0.539093D-03  0.945860D-02 -0.661680D-02 -0.460572D-05 -0.589103D-03
     17 -0.237465D-02 -0.367492D-01  0.265584D-04  0.464011D-03  0.388093D-04
     18 -0.870130D-02  0.622973D-02  0.306212D-02  0.288255D-05 -0.242932D-02
     19 -0.529665D-03 -0.942010D-02 -0.661654D-02 -0.433132D-05  0.587699D-03
     20 -0.232098D-02  0.367312D-01 -0.969169D-05  0.470724D-03 -0.356788D-04
     21  0.869264D-02  0.629386D-02 -0.305583D-02 -0.234281D-05 -0.242959D-02
               16            17            18            19            20 
     16  0.103836D+00
     17  0.102013D-03  0.487159D-01
     18 -0.100840D+00 -0.179462D-03  0.217135D+00
     19  0.103848D-01 -0.173011D-05  0.978485D-02  0.103951D+00
     20  0.234205D-04 -0.113124D-01 -0.670288D-05  0.398833D-04  0.487130D-01
     21 -0.979699D-02 -0.107354D-04 -0.116665D-01  0.100902D+00  0.544556D-04
               21 
     21  0.217032D+00
 Leave Link  716 at Mon Jun 20 10:42:08 2016, MaxMem=    33554432 cpu:         0.1
 (Enter /home/proyectos/fulerenos/M3C-v1.9/M3C-deps_CCC/g09-AM64L-G09RevC.01/l103.exe)

 GradGradGradGradGradGradGradGradGradGradGradGradGradGradGradGradGradGrad
 Berny optimization.
 Search for a local minimum.
 Step number   1 out of a maximum of    2
 All quantities printed in internal units (Hartrees-Bohrs-Radians)
 Second derivative matrix not updated -- analytic derivatives used.
 ITU=  0
     Eigenvalues ---   -0.03840   0.01267   0.04645   0.07172   0.07355
     Eigenvalues ---    0.11350   0.11773   0.12514   0.16447   0.34311
     Eigenvalues ---    0.38805   0.42394   0.55092   0.69566   1.04588
 Eigenvalue     1 is  -3.84D-02 should be greater than     0.000000 Eigenvector:
                          Y3        Y2        Y4        X4        X2
   1                    0.59478  -0.40247  -0.40119   0.34905  -0.34656
                          Y5        Y6        Y7        Y1        X3
   1                    0.20870   0.11924   0.11898  -0.09706  -0.00280
 Angle between quadratic step and forces=  55.77 degrees.
 Linear search not attempted -- first point.
 B after Tr=     0.000104   -0.000001    0.000017
         Rot=    1.000000   -0.000009   -0.000010   -0.000000 Ang=  -0.00 deg.
 Variable       Old X    -DE/DX   Delta X   Delta X   Delta X     New X
                                 (Linear)    (Quad)   (Total)
    X1        1.54226   0.00006   0.00000   0.00019   0.00029   1.54255
    Y1       -0.00030  -0.00001   0.00000  -0.00001  -0.00001  -0.00031
    Z1       -0.00002  -0.00001   0.00000  -0.00005  -0.00007  -0.00008
    X2       -0.63496   0.00015   0.00000  -0.00067  -0.00057  -0.63553
    Y2        1.47658   0.00024   0.00000  -0.00040  -0.00040   1.47619
    Z2        0.00053   0.00003   0.00000   0.00031   0.00037   0.00089
    X3       -3.12462  -0.00036   0.00000  -0.00064  -0.00054  -3.12516
    Y3        0.00067   0.00007   0.00000   0.00182   0.00182   0.00249
    Z3        0.00071  -0.00002   0.00000  -0.00008  -0.00001   0.00070
    X4       -0.63284   0.00026   0.00000   0.00175   0.00185  -0.63098
    Y4       -1.47954  -0.00030   0.00000  -0.00164  -0.00164  -1.48118
    Z4       -0.00054   0.00000   0.00000   0.00021   0.00021  -0.00033
    X5        4.22026  -0.00010   0.00000  -0.00012  -0.00002   4.22024
    Y5        0.00177   0.00000   0.00000   0.00021   0.00021   0.00199
    Z5       -0.00026  -0.00000   0.00000  -0.00021  -0.00027  -0.00054
    X6       -4.21754   0.00000   0.00000  -0.00082  -0.00068  -4.21823
    Y6       -0.00123   0.00001   0.00000   0.00011   0.00007  -0.00116
    Z6        1.81512  -0.00009   0.00000  -0.00061  -0.00051   1.81460
    X7       -4.21849  -0.00000   0.00000  -0.00041  -0.00034  -4.21883
    Y7        0.00039  -0.00001   0.00000  -0.00008  -0.00005   0.00033
    Z7       -1.81312   0.00009   0.00000   0.00019   0.00028  -1.81284
         Item               Value     Threshold  Converged?
 Maximum Force            0.000361     0.000450     YES
 RMS     Force            0.000138     0.000300     YES
 Maximum Displacement     0.001851     0.001800     NO 
 RMS     Displacement     0.000741     0.001200     YES
 Predicted change in Energy=-9.074022D-07
 GradGradGradGradGradGradGradGradGradGradGradGradGradGradGradGradGradGrad

 Leave Link  103 at Mon Jun 20 10:42:08 2016, MaxMem=    33554432 cpu:         0.1
 (Enter /home/proyectos/fulerenos/M3C-v1.9/M3C-deps_CCC/g09-AM64L-G09RevC.01/l9999.exe)
 1\1\GINC-BELVIS4\Freq\UB3LYP\6-311++G(3df,2p)\C5H2(3+,4)\ROOT\20-Jun-2
 016\0\\#p b3lyp/6-311++G(3df,2p) freq symmetry=Loose\\b3lyp opt\\3,4\C
 ,0.816127,-0.000161,-0.000009\C,-0.336005,0.781375,0.000279\C,-1.65347
 7,0.000353,0.000375\C,-0.334882,-0.782939,-0.000285\C,2.233265,0.00093
 9,-0.000138\H,-2.231828,-0.000649,0.96052\H,-2.232331,0.000205,-0.9594
 63\\Version=EM64L-G09RevE.01\State=4-A\HF=-189.5931558\S2=3.792666\S2-
 1=0.\S2A=3.750574\RMSD=7.983e-09\RMSF=1.383e-04\ZeroPoint=0.0375251\Th
 ermal=0.041751\Dipole=0.9003869,0.0004788,-0.0000534\DipoleDeriv=-0.53
 71663,0.000359,0.0001605,0.000385,0.2619008,-0.0000393,0.0000602,-0.00
 00081,0.2223076,0.441157,-0.1631354,-0.0000058,-0.206348,0.6004536,0.0
 000296,0.0009106,-0.0000061,0.5488865,-0.0099716,0.0002263,-0.0001187,
 -0.0042237,0.2607793,0.0001149,0.0000862,0.0002151,-0.0745882,0.434827
 5,0.1619941,0.0000841,0.2084962,0.5993098,0.0000683,-0.0009478,0.00002
 71,0.5481668,1.594334,0.0001941,-0.0000877,0.0005746,0.8247926,-0.0000
 148,-0.0000175,-0.0000177,0.9263324,0.5382525,0.0002608,-0.1616101,0.0
 015658,0.2263571,0.0001101,-0.4282794,-0.000086,0.4145865,0.5385669,0.
 0001011,0.1615776,-0.00045,0.2264068,-0.0002688,0.4281877,-0.0001243,0
 .4143083\Polar=60.9683029,0.0101152,28.906886,-0.0049785,0.001597,22.1
 220826\PG=C01 [X(C5H2)]\NImag=1\\0.71966525,0.00033195,0.18127767,-0.0
 0005957,0.00003557,0.06253276,-0.25284084,0.07926762,0.00002294,0.2890
 4062,0.11845381,-0.08847980,-0.00001915,-0.10681940,0.27905766,0.00005
 519,0.00000983,-0.02325782,-0.00005073,0.00012242,0.07813772,-0.044174
 03,0.00013122,0.00001225,-0.09371645,-0.02242284,0.00008521,0.38628777
 ,0.00000718,0.01669249,0.00001847,0.04981220,0.00423683,-0.00001668,0.
 00080284,0.04683452,-0.00002210,-0.00001324,0.00197801,0.00003339,0.00
 003782,-0.05406523,0.00004959,-0.00019518,0.52584612,-0.25258559,-0.07
 965912,0.00000138,0.13286905,0.00841730,-0.00009488,-0.09263411,-0.050
 56189,0.00001102,0.28747321,-0.11868104,-0.08892131,-0.00002825,-0.007
 67418,-0.19314440,-0.00011270,0.02169356,0.00382052,0.00001536,0.10726
 012,0.27972981,0.00001181,-0.00003759,-0.02290389,-0.00001136,-0.00013
 078,-0.01253062,-0.00008144,0.00004823,-0.05363539,0.00007176,0.000131
 23,0.07746578,-0.18540098,-0.00001569,0.00002137,-0.03788956,0.0013623
 5,0.00001985,0.00033528,-0.00002163,0.00000248,-0.03802431,-0.00152969
 ,-0.00002927,0.27421292,-0.00012875,-0.02276305,-0.00000295,0.01536220
 ,0.00324238,-0.00000693,0.00000122,-0.00325986,-0.00000176,-0.01541353
 ,0.00321101,0.00000694,0.00018780,0.01863478,0.00001798,-0.00000075,-0
 .02283337,0.00000970,0.00000100,-0.00086207,0.00000675,-0.00001055,0.0
 1543748,-0.00001230,0.00000302,-0.00091947,-0.00002073,0.00000415,0.01
 403634,0.00766951,-0.00002802,0.00120722,-0.01872822,0.00050336,0.0094
 5336,-0.07799784,-0.00005708,0.09110677,-0.01854785,-0.00053909,0.0094
 5860,-0.00661680,-0.00000461,-0.00058910,0.10383638,-0.00000419,0.0011
 1461,-0.00014546,-0.01497654,-0.00243359,0.03692508,-0.00007116,-0.034
 17384,0.00012101,0.01492505,-0.00237465,-0.03674924,0.00002656,0.00046
 401,0.00003881,0.00010201,0.04871586,-0.01002008,0.00002227,0.00224263
 ,0.00140348,0.00868595,0.00631587,0.09525802,0.00017637,-0.21782755,0.
 00135146,-0.00870130,0.00622973,0.00306212,0.00000288,-0.00242932,-0.1
 0083986,-0.00017946,0.21713510,0.00766667,-0.00002795,-0.00120558,-0.0
 1873459,0.00050542,-0.00946801,-0.07810062,0.00001838,-0.09118115,-0.0
 1855040,-0.00052967,-0.00942010,-0.00661654,-0.00000433,0.00058770,0.0
 1038481,-0.00000173,0.00978485,0.10395067,0.00002104,0.00107938,0.0001
 4177,-0.01497189,-0.00247907,-0.03692103,-0.00013484,-0.03415066,0.000
 03598,0.01503207,-0.00232098,0.03673121,-0.00000969,0.00047072,-0.0000
 3568,0.00002342,-0.01131241,-0.00000670,0.00003988,0.04871301,0.010016
 77,-0.00001609,0.00224168,-0.00140742,-0.00869725,0.00626215,-0.095330
 37,-0.00002067,-0.21773345,-0.00132844,0.00869264,0.00629386,-0.003055
 83,-0.00000234,-0.00242959,-0.00979699,-0.00001074,-0.01166646,0.10090
 229,0.00005446,0.21703181\\-0.00006209,0.00000846,0.00001225,-0.000147
 04,-0.00023855,-0.00002790,0.00036136,-0.00006926,0.00002051,-0.000255
 62,0.00030232,-0.00000484,0.00010179,-0.00000479,0.00000224,-0.0000007
 2,-0.00000840,0.00008525,0.00000232,0.00001023,-0.00008751\\\@


 EXPERIENCE IS A WONDERFUL THING.  IT ENABLES
 YOU TO RECOGNIZE A MISTAKE WHEN YOU MAKE IT AGAIN.
           - BACK OF A SUGAR PACKET
 Job cpu time:       0 days  0 hours 32 minutes  4.4 seconds.
 File lengths (MBytes):  RWF=     56 Int=      0 D2E=      0 Chk=      5 Scr=      1
 Normal termination of Gaussian 09 at Mon Jun 20 10:42:08 2016.
