2
Energy =   -435.837516550     
    S    0.608877    0.000000    0.000000
    C    2.095075    0.000000    0.000000

FREQUENCIES 1
1419.5027

SYMMETRY C*V
ELECTRONIC_STATE 2-SG
