2
Energy =   -435.837516550     
    S    0.519848    0.000000    0.000000
    C    2.006046    0.000000    0.000000

FREQUENCIES 1
1419.5027

SYMMETRY C*V
ELECTRONIC_STATE 2-SG
