2
Energy =   -435.053038032     
    S    0.555315    0.000000    0.000000
    C    2.148637    0.000000    0.000000

FREQUENCIES 1
1088.0843

SYMMETRY C*V
ELECTRONIC_STATE ??
