6
Energy =   -873.390651210     
    S    1.166556   -0.729820   -0.830321
    S   -0.203259   -1.429967    1.129331
    C    2.088214    0.425428   -0.333907
    C    2.931563    1.405108   -0.082911
    H    0.014399   -2.752924    0.956406
    H   -1.372711   -1.452369    0.451554

FREQUENCIES 12
36.6610
100.8793
177.5054
201.3408
314.2657
541.0226
577.4395
859.1381
1193.6115
1724.9363
2625.4910
2638.4961

SYMMETRY C1
ELECTRONIC_STATE 2-A
