6
Energy =   -873.366863477     
    S   -1.308511   -0.475187    0.173260
    S    0.496654   -0.966031    1.105484
    C    1.747208   -0.664266    0.019853
    C    2.702799   -0.357512   -0.645102
    H   -1.525812    0.526186    1.051008
    H    0.421496   -2.312017    0.956887

FREQUENCIES 12
123.5299
170.6087
223.5603
317.5798
459.3337
706.0652
744.4290
933.3323
1019.7460
2181.0322
2573.6636
2644.6580

SYMMETRY C1
ELECTRONIC_STATE 2-A
