4
Energy =   -474.516954281     
S  1.060058971 -0.039977565  0.105344168
C -0.538547752  0.238898856  0.005981893
C -1.765423000  0.310039000 -0.088655000
H  1.447890967  1.250606812  0.304161912

FREQUENCIES 6
227.8308
360.4544
806.8450
972.2476
2002.4441
2551.4843

SYMMETRY CS
ELECTRONIC_STATE 3-A"
