5
Energy =   -872.145569795     
    S   -1.118983   -0.199076    1.096598
    S    0.895941    0.414827   -1.350129
    C   -0.076882   -0.073657   -0.208059
    C   -2.532209   -0.692989    0.448343
    H    1.553361   -0.786277   -1.571724

FREQUENCIES 9
155.1057
171.2640
350.5165
423.7972
536.9293
883.7198
898.2346
1288.6962
2353.2618

SYMMETRY C1
ELECTRONIC_STATE 4-A
