5
Energy =   -872.204730610     
    S   -1.438609    0.408544    0.013110
    S    1.129434   -0.239800   -0.276528
    C    0.129701    0.899205    0.565102
    C   -0.438052   -0.727938   -0.826664
    H   -0.718723   -1.532015   -1.514749

FREQUENCIES 9
242.4494
528.5389
599.8790
674.0830
687.3145
908.7580
923.5618
1108.7159
3082.8404

SYMMETRY C1
ELECTRONIC_STATE 4-A
