5
Energy =   -872.204730613     
S -1.438595876  0.408600172  0.013124758
S  1.129419499 -0.239822965 -0.276580987
C  0.129721148  0.898855443  0.565502118
C -0.438069490 -0.727706149 -0.826927704
H -0.718710815 -1.531665160 -1.515162633

FREQUENCIES 9
242.4494
528.5389
599.8792
674.0831
687.3147
908.7582
923.5620
1108.7159
3082.8405

SYMMETRY C2V
ELECTRONIC_STATE 4-B2
