4
Energy =   -474.516952859     
    S    1.060060   -0.039976    0.105332
    C   -0.538547    0.238900    0.005973
    C   -1.765423    0.310039   -0.088655
    H    1.447849    1.250543    0.304658

FREQUENCIES 6
227.0392
360.4174
806.8269
970.4887
2002.4664
2548.8382

SYMMETRY C1
ELECTRONIC_STATE 3-A
