5
Energy =   -872.213901619     
    S   -2.196686   -0.222390   -0.362009
    S    0.684309   -0.783938    0.244230
    C    1.636483    0.412409    0.887571
    C   -0.793926    0.312163    0.193955
    H   -0.686457    1.345289    0.556868

FREQUENCIES 9
95.6831
139.2375
257.1623
528.1790
744.8461
929.4512
1018.3564
1186.9166
3002.6867

SYMMETRY C1
ELECTRONIC_STATE 2-A
