3
Energy =   -435.727986933     
    S   -0.325291    0.023305    0.000000
    C    1.215113   -0.192433    0.000000
    H    0.324309    1.372407    0.000000

FREQUENCIES 3
243.5235
1179.8104
1779.3535

SYMMETRY CS
ELECTRONIC_STATE 2-A'
