 Entering Gaussian System, Link 0=/home/proyectos/fulerenos/M3C-v2.0/M3C-deps_CCC/g09-AM64L-G09RevC.01/g09
 Initial command:
 /home/proyectos/fulerenos/M3C-v2.0/M3C-deps_CCC/g09-AM64L-G09RevC.01/l1.exe "/scratch/naguirre/gaussian/Gau-21454.inp" -scrdir="/scratch/naguirre/gaussian/"
 Entering Link 1 = /home/proyectos/fulerenos/M3C-v2.0/M3C-deps_CCC/g09-AM64L-G09RevC.01/l1.exe PID=     21465.
  
 Copyright (c) 1988,1990,1992,1993,1995,1998,2003,2009,2015,
            Gaussian, Inc.  All Rights Reserved.
  
 This is part of the Gaussian(R) 09 program.  It is based on
 the Gaussian(R) 03 system (copyright 2003, Gaussian, Inc.),
 the Gaussian(R) 98 system (copyright 1998, Gaussian, Inc.),
 the Gaussian(R) 94 system (copyright 1995, Gaussian, Inc.),
 the Gaussian 92(TM) system (copyright 1992, Gaussian, Inc.),
 the Gaussian 90(TM) system (copyright 1990, Gaussian, Inc.),
 the Gaussian 88(TM) system (copyright 1988, Gaussian, Inc.),
 the Gaussian 86(TM) system (copyright 1986, Carnegie Mellon
 University), and the Gaussian 82(TM) system (copyright 1983,
 Carnegie Mellon University). Gaussian is a federally registered
 trademark of Gaussian, Inc.
  
 This software contains proprietary and confidential information,
 including trade secrets, belonging to Gaussian, Inc.
  
 This software is provided under written license and may be
 used, copied, transmitted, or stored only in accord with that
 written license.
  
 The following legend is applicable only to US Government
 contracts under FAR:
  
                    RESTRICTED RIGHTS LEGEND
  
 Use, reproduction and disclosure by the US Government is
 subject to restrictions as set forth in subparagraphs (a)
 and (c) of the Commercial Computer Software - Restricted
 Rights clause in FAR 52.227-19.
  
 Gaussian, Inc.
 340 Quinnipiac St., Bldg. 40, Wallingford CT 06492
  
  
 ---------------------------------------------------------------
 Warning -- This program may not be used in any manner that
 competes with the business of Gaussian, Inc. or will provide
 assistance to any competitor of Gaussian, Inc.  The licensee
 of this program is prohibited from giving any competitor of
 Gaussian, Inc. access to this program.  By using this program,
 the user acknowledges that Gaussian, Inc. is engaged in the
 business of creating and licensing software in the field of
 computational chemistry and represents and warrants to the
 licensee that it is not a competitor of Gaussian, Inc. and that
 it will not use this program in any manner prohibited above.
 ---------------------------------------------------------------
  

 Cite this work as:
 Gaussian 09, Revision E.01,
 M. J. Frisch, G. W. Trucks, H. B. Schlegel, G. E. Scuseria, 
 M. A. Robb, J. R. Cheeseman, G. Scalmani, V. Barone, B. Mennucci, 
 G. A. Petersson, H. Nakatsuji, M. Caricato, X. Li, H. P. Hratchian, 
 A. F. Izmaylov, J. Bloino, G. Zheng, J. L. Sonnenberg, M. Hada, 
 M. Ehara, K. Toyota, R. Fukuda, J. Hasegawa, M. Ishida, T. Nakajima, 
 Y. Honda, O. Kitao, H. Nakai, T. Vreven, J. A. Montgomery, Jr., 
 J. E. Peralta, F. Ogliaro, M. Bearpark, J. J. Heyd, E. Brothers, 
 K. N. Kudin, V. N. Staroverov, T. Keith, R. Kobayashi, J. Normand, 
 K. Raghavachari, A. Rendell, J. C. Burant, S. S. Iyengar, J. Tomasi, 
 M. Cossi, N. Rega, J. M. Millam, M. Klene, J. E. Knox, J. B. Cross, 
 V. Bakken, C. Adamo, J. Jaramillo, R. Gomperts, R. E. Stratmann, 
 O. Yazyev, A. J. Austin, R. Cammi, C. Pomelli, J. W. Ochterski, 
 R. L. Martin, K. Morokuma, V. G. Zakrzewski, G. A. Voth, 
 P. Salvador, J. J. Dannenberg, S. Dapprich, A. D. Daniels, 
 O. Farkas, J. B. Foresman, J. V. Ortiz, J. Cioslowski, 
 and D. J. Fox, Gaussian, Inc., Wallingford CT, 2013.
 
 ******************************************
 Gaussian 09:  EM64L-G09RevE.01 30-Nov-2015
                24-Oct-2016 
 ******************************************
 %NProcShared=4
 Will use up to    4 processors via shared memory.
 ---------------------------------------------------------
 #p ccsd(t)/6-311++G(3df,2p) scf(MaxCyc=300) guess(Huckel)
 ---------------------------------------------------------
 1/38=1/1;
 2/12=2,17=6,18=5,40=1/2;
 3/5=4,6=6,7=1216,11=9,16=1,25=1,30=1/1,2,3;
 4/11=4/1;
 5/5=2,7=300,38=5/2;
 8/6=4,9=120000,10=2/1,4;
 9/5=7,14=2/13;
 6/7=2,8=2,9=2,10=2/1;
 99/5=1,9=1/99;
 Leave Link    1 at Mon Oct 24 08:40:07 2016, MaxMem=           0 cpu:         0.3
 (Enter /home/proyectos/fulerenos/M3C-v2.0/M3C-deps_CCC/g09-AM64L-G09RevC.01/l101.exe)
 -------------
 ccsd(t) iener
 -------------
 Symbolic Z-matrix:
 Charge =  1 Multiplicity = 2
 S                     0.91135   0.        0. 
 S                    -0.91135   0.        0. 
 
 NAtoms=      2 NQM=        2 NQMF=       0 NMMI=      0 NMMIF=      0
                NMic=       0 NMicF=      0.
                    Isotopes and Nuclear Properties:
 (Nuclear quadrupole moments (NQMom) in fm**2, nuclear magnetic moments (NMagM)
  in nuclear magnetons)

  Atom         1           2
 IAtWgt=          32          32
 AtmWgt=  31.9720718  31.9720718
 NucSpn=           0           0
 AtZEff=   0.0000000   0.0000000
 NQMom=    0.0000000   0.0000000
 NMagM=    0.0000000   0.0000000
 AtZNuc=  16.0000000  16.0000000
 Leave Link  101 at Mon Oct 24 08:40:07 2016, MaxMem=    33554432 cpu:         0.2
 (Enter /home/proyectos/fulerenos/M3C-v2.0/M3C-deps_CCC/g09-AM64L-G09RevC.01/l202.exe)
                          Input orientation:                          
 ---------------------------------------------------------------------
 Center     Atomic      Atomic             Coordinates (Angstroms)
 Number     Number       Type             X           Y           Z
 ---------------------------------------------------------------------
      1         16           0        0.911345    0.000000    0.000000
      2         16           0       -0.911345    0.000000    0.000000
 ---------------------------------------------------------------------
 Stoichiometry    S2(1+,2)
 Framework group  D*H[C*(S.S)]
 Deg. of freedom     1
 Full point group                 D*H     NOp   8
 Largest Abelian subgroup         D2H     NOp   8
 Largest concise Abelian subgroup C2      NOp   2
                         Standard orientation:                         
 ---------------------------------------------------------------------
 Center     Atomic      Atomic             Coordinates (Angstroms)
 Number     Number       Type             X           Y           Z
 ---------------------------------------------------------------------
      1         16           0        0.000000    0.000000    0.911345
      2         16           0        0.000000    0.000000   -0.911345
 ---------------------------------------------------------------------
 Rotational constants (GHZ):      0.0000000      9.5159202      9.5159202
 Leave Link  202 at Mon Oct 24 08:40:07 2016, MaxMem=    33554432 cpu:         0.0
 (Enter /home/proyectos/fulerenos/M3C-v2.0/M3C-deps_CCC/g09-AM64L-G09RevC.01/l301.exe)
 Standard basis: 6-311++G(3df,2p) (5D, 7F)
 Ernie: Thresh=  0.10000D-02 Tol=  0.10000D-05 Strict=F.
 There are    25 symmetry adapted cartesian basis functions of AG  symmetry.
 There are     4 symmetry adapted cartesian basis functions of B1G symmetry.
 There are    12 symmetry adapted cartesian basis functions of B2G symmetry.
 There are    12 symmetry adapted cartesian basis functions of B3G symmetry.
 There are     4 symmetry adapted cartesian basis functions of AU  symmetry.
 There are    25 symmetry adapted cartesian basis functions of B1U symmetry.
 There are    12 symmetry adapted cartesian basis functions of B2U symmetry.
 There are    12 symmetry adapted cartesian basis functions of B3U symmetry.
 There are    21 symmetry adapted basis functions of AG  symmetry.
 There are     4 symmetry adapted basis functions of B1G symmetry.
 There are    11 symmetry adapted basis functions of B2G symmetry.
 There are    11 symmetry adapted basis functions of B3G symmetry.
 There are     4 symmetry adapted basis functions of AU  symmetry.
 There are    21 symmetry adapted basis functions of B1U symmetry.
 There are    11 symmetry adapted basis functions of B2U symmetry.
 There are    11 symmetry adapted basis functions of B3U symmetry.
    94 basis functions,   144 primitive gaussians,   106 cartesian basis functions
    16 alpha electrons       15 beta electrons
       nuclear repulsion energy        74.3238649463 Hartrees.
 IExCor=    0 DFT=F Ex=HF Corr=None ExCW=0 ScaHFX=  1.000000
 ScaDFX=  1.000000  1.000000  1.000000  1.000000 ScalE2=  1.000000  1.000000
 IRadAn=      0 IRanWt=     -1 IRanGd=            0 ICorTp=0 IEmpDi=  4
 NAtoms=    2 NActive=    2 NUniq=    1 SFac= 4.00D+00 NAtFMM=   60 NAOKFM=F Big=F
 Integral buffers will be    131072 words long.
 Raffenetti 2 integral format.
 Two-electron integral symmetry is turned on.
 Leave Link  301 at Mon Oct 24 08:40:07 2016, MaxMem=    33554432 cpu:         0.2
 (Enter /home/proyectos/fulerenos/M3C-v2.0/M3C-deps_CCC/g09-AM64L-G09RevC.01/l302.exe)
 NPDir=0 NMtPBC=     1 NCelOv=     1 NCel=       1 NClECP=     1 NCelD=      1
         NCelK=      1 NCelE2=     1 NClLst=     1 CellRange=     0.0.
 One-electron integrals computed using PRISM.
 One-electron integral symmetry used in STVInt
 NBasis=    94 RedAO= T EigKep=  1.19D-03  NBF=    21     4    11    11     4    21    11    11
 NBsUse=    94 1.00D-06 EigRej= -1.00D+00 NBFU=    21     4    11    11     4    21    11    11
 Leave Link  302 at Mon Oct 24 08:40:08 2016, MaxMem=    33554432 cpu:         0.7
 (Enter /home/proyectos/fulerenos/M3C-v2.0/M3C-deps_CCC/g09-AM64L-G09RevC.01/l303.exe)
 DipDrv:  MaxL=1.
 Leave Link  303 at Mon Oct 24 08:40:08 2016, MaxMem=    33554432 cpu:         0.1
 (Enter /home/proyectos/fulerenos/M3C-v2.0/M3C-deps_CCC/g09-AM64L-G09RevC.01/l401.exe)
 Projected New-EHT guess.
 Enter ItEHT:  IZDO=4 IZDPar=0 Conv= 1.00D-06 N=    8
 It=   1                  EEH= -62.0073539916     EQH= 0.000000000000E+00 EH= -62.0073539916    
 JPrj=0 DoOrth=T DoCkMO=T.
 Initial guess orbital symmetries:
 Alpha Orbitals:
       Occupied  (SGG) (SGG) (PIU) (PIU) (SGG) (SGU) (SGU) (PIG)
                 (PIG) (SGU) (SGG) (SGU) (PIU) (PIU) (SGG) (PIG)
       Virtual   (PIG) (SGU) (SGG) (SGG) (SGG) (DLTG) (SGG) (SGG)
                 (SGG) (DLTG) (SGG) (DLTG) (SGG) (SGG) (SGG) (DLTG)
                 (SGG) (SGG) (DLTG) (DLTG) (DLTG) (DLTG) (PIG)
                 (PIG) (PIG) (PHIG) (PIG) (PIG) (PIG) (PIG) (PIG)
                 (PIG) (PIG) (PIG) (PHIG) (PIG) (PIG) (PIG) (PIG)
                 (PIG) (DLTU) (DLTU) (DLTU) (DLTU) (SGU) (SGU)
                 (SGU) (SGU) (DLTU) (SGU) (SGU) (SGU) (DLTU) (SGU)
                 (DLTU) (SGU) (DLTU) (SGU) (SGU) (SGU) (PIU) (PIU)
                 (PIU) (PIU) (PIU) (PHIU) (PIU) (PIU) (PIU) (PIU)
                 (PIU) (PIU) (PIU) (PIU) (PHIU) (PIU) (PIU) (PIU)
 Beta  Orbitals:
       Occupied  (SGG) (SGG) (PIU) (PIU) (SGG) (SGU) (SGU) (PIG)
                 (PIG) (SGU) (SGG) (SGU) (PIU) (PIU) (SGG)
       Virtual   (PIG) (PIG) (SGU) (SGG) (SGG) (SGG) (DLTG) (SGG)
                 (SGG) (SGG) (DLTG) (SGG) (DLTG) (SGG) (SGG) (SGG)
                 (DLTG) (SGG) (SGG) (DLTG) (DLTG) (DLTG) (DLTG)
                 (PIG) (PIG) (PIG) (PHIG) (PIG) (PIG) (PIG) (PIG)
                 (PIG) (PIG) (PIG) (PIG) (PHIG) (PIG) (PIG) (PIG)
                 (PIG) (PIG) (DLTU) (DLTU) (DLTU) (DLTU) (SGU)
                 (SGU) (SGU) (SGU) (DLTU) (SGU) (SGU) (SGU) (DLTU)
                 (SGU) (DLTU) (SGU) (DLTU) (SGU) (SGU) (SGU) (PIU)
                 (PIU) (PIU) (PIU) (PIU) (PHIU) (PIU) (PIU) (PIU)
                 (PIU) (PIU) (PIU) (PIU) (PIU) (PHIU) (PIU) (PIU)
                 (PIU)
 Initial guess <Sx>= 0.0000 <Sy>= 0.0000 <Sz>= 0.5000 <S**2>= 0.7500 S= 0.5000
 Leave Link  401 at Mon Oct 24 08:40:08 2016, MaxMem=    33554432 cpu:         0.3
 (Enter /home/proyectos/fulerenos/M3C-v2.0/M3C-deps_CCC/g09-AM64L-G09RevC.01/l502.exe)
 UHF open shell SCF:
 Using DIIS extrapolation, IDIIS=  1040.
 Integral symmetry usage will be decided dynamically.
 Keep R1 and R2 ints in memory in symmetry-blocked form, NReq=12085215.
 IVT=      128482 IEndB=      128482 NGot=    33554432 MDV=    30816069
 LenX=    30816069 LenY=    30804392
 Requested convergence on RMS density matrix=1.00D-08 within 300 cycles.
 Requested convergence on MAX density matrix=1.00D-06.
 Requested convergence on             energy=1.00D-06.
 No special actions if energy rises.
 FoFCou: FMM=F IPFlag=           0 FMFlag=           0 FMFlg1=           0
         NFxFlg=           0 DoJE=F BraDBF=F KetDBF=F FulRan=T
         wScrn=  0.000000 ICntrl=     600 IOpCl=  0 I1Cent=           0 NGrid=           0
         NMat0=    1 NMatS0=   4465 NMatT0=    0 NMatD0=    1 NMtDS0=    0 NMtDT0=    0
 Petite list used in FoFCou.

 Cycle   1  Pass 1  IDiag  1:
 E= -792.536040706905    
 DIIS: error= 1.01D+00 at cycle   1 NSaved=   1.
 NSaved= 1 IEnMin= 1 EnMin= -792.536040706905     IErMin= 1 ErrMin= 1.01D+00
 ErrMax= 1.01D+00  0.00D+00 EMaxC= 1.00D-01 BMatC= 1.44D+02 BMatP= 1.44D+02
 IDIUse=3 WtCom= 0.00D+00 WtEn= 1.00D+00
 Coeff-Com:  0.100D+01
 Coeff-En:   0.100D+01
 Coeff:      0.100D+01
 Gap=     0.357 Goal=   None    Shift=    0.000
 Gap=     0.418 Goal=   None    Shift=    0.000
 GapD=    0.357 DampG=1.000 DampE=0.250 DampFc=0.2500 IDamp=-1.
 Damping current iteration by 2.50D-01
 RMSDP=9.61D-03 MaxDP=1.40D-01              OVMax= 2.63D-01

 Cycle   2  Pass 1  IDiag  1:
 E= -793.063749668383     Delta-E=       -0.527708961478 Rises=F Damp=T
 DIIS: error= 7.55D-01 at cycle   2 NSaved=   2.
 NSaved= 2 IEnMin= 2 EnMin= -793.063749668383     IErMin= 2 ErrMin= 7.55D-01
 ErrMax= 7.55D-01  0.00D+00 EMaxC= 1.00D-01 BMatC= 8.21D+01 BMatP= 1.44D+02
 IDIUse=3 WtCom= 0.00D+00 WtEn= 1.00D+00
 Coeff-Com: -0.308D+01 0.408D+01
 Coeff-En:   0.000D+00 0.100D+01
 Coeff:      0.000D+00 0.100D+01
 Gap=     0.325 Goal=   None    Shift=    0.000
 Gap=     0.433 Goal=   None    Shift=    0.000
 RMSDP=7.36D-03 MaxDP=1.16D-01 DE=-5.28D-01 OVMax= 1.90D-02

 Cycle   3  Pass 1  IDiag  1:
 E= -794.725411017072     Delta-E=       -1.661661348689 Rises=F Damp=F
 DIIS: error= 2.11D-02 at cycle   3 NSaved=   3.
 NSaved= 3 IEnMin= 3 EnMin= -794.725411017072     IErMin= 3 ErrMin= 2.11D-02
 ErrMax= 2.11D-02  0.00D+00 EMaxC= 1.00D-01 BMatC= 1.89D-01 BMatP= 8.21D+01
 IDIUse=3 WtCom= 7.89D-01 WtEn= 2.11D-01
 Coeff-Com:  0.480D+01-0.640D+01 0.261D+01
 Coeff-En:   0.000D+00 0.000D+00 0.100D+01
 Coeff:      0.378D+01-0.505D+01 0.227D+01
 Gap=     0.337 Goal=   None    Shift=    0.000
 Gap=     0.411 Goal=   None    Shift=    0.000
 RMSDP=1.97D-03 MaxDP=5.73D-02 DE=-1.66D+00 OVMax= 5.88D-02

 Cycle   4  Pass 1  IDiag  1:
 E= -794.745554974650     Delta-E=       -0.020143957579 Rises=F Damp=F
 DIIS: error= 2.98D-03 at cycle   4 NSaved=   4.
 NSaved= 4 IEnMin= 4 EnMin= -794.745554974650     IErMin= 4 ErrMin= 2.98D-03
 ErrMax= 2.98D-03  0.00D+00 EMaxC= 1.00D-01 BMatC= 1.98D-03 BMatP= 1.89D-01
 IDIUse=3 WtCom= 9.70D-01 WtEn= 2.98D-02
 Coeff-Com:  0.841D-01-0.113D+00 0.542D-01 0.975D+00
 Coeff-En:   0.000D+00 0.000D+00 0.000D+00 0.100D+01
 Coeff:      0.816D-01-0.110D+00 0.525D-01 0.976D+00
 Gap=     0.342 Goal=   None    Shift=    0.000
 Gap=     0.415 Goal=   None    Shift=    0.000
 RMSDP=3.38D-04 MaxDP=1.27D-02 DE=-2.01D-02 OVMax= 9.36D-03

 Cycle   5  Pass 1  IDiag  1:
 E= -794.746253878739     Delta-E=       -0.000698904089 Rises=F Damp=F
 DIIS: error= 2.11D-03 at cycle   5 NSaved=   5.
 NSaved= 5 IEnMin= 5 EnMin= -794.746253878739     IErMin= 5 ErrMin= 2.11D-03
 ErrMax= 2.11D-03  0.00D+00 EMaxC= 1.00D-01 BMatC= 2.70D-04 BMatP= 1.98D-03
 IDIUse=3 WtCom= 9.79D-01 WtEn= 2.11D-02
 Coeff-Com:  0.142D-01-0.183D-01-0.202D-01-0.296D-01 0.105D+01
 Coeff-En:   0.000D+00 0.000D+00 0.000D+00 0.000D+00 0.100D+01
 Coeff:      0.139D-01-0.179D-01-0.198D-01-0.290D-01 0.105D+01
 Gap=     0.343 Goal=   None    Shift=    0.000
 Gap=     0.415 Goal=   None    Shift=    0.000
 RMSDP=1.18D-04 MaxDP=3.26D-03 DE=-6.99D-04 OVMax= 6.77D-03

 Cycle   6  Pass 1  IDiag  1:
 E= -794.746391413320     Delta-E=       -0.000137534580 Rises=F Damp=F
 DIIS: error= 7.24D-04 at cycle   6 NSaved=   6.
 NSaved= 6 IEnMin= 6 EnMin= -794.746391413320     IErMin= 6 ErrMin= 7.24D-04
 ErrMax= 7.24D-04  0.00D+00 EMaxC= 1.00D-01 BMatC= 3.45D-05 BMatP= 2.70D-04
 IDIUse=3 WtCom= 9.93D-01 WtEn= 7.24D-03
 Coeff-Com: -0.739D-02 0.970D-02 0.627D-02-0.840D-01-0.390D+00 0.147D+01
 Coeff-En:   0.000D+00 0.000D+00 0.000D+00 0.000D+00 0.000D+00 0.100D+01
 Coeff:     -0.734D-02 0.963D-02 0.622D-02-0.834D-01-0.387D+00 0.146D+01
 Gap=     0.344 Goal=   None    Shift=    0.000
 Gap=     0.415 Goal=   None    Shift=    0.000
 RMSDP=6.24D-05 MaxDP=1.46D-03 DE=-1.38D-04 OVMax= 4.04D-03

 Cycle   7  Pass 1  IDiag  1:
 E= -794.746420184005     Delta-E=       -0.000028770686 Rises=F Damp=F
 DIIS: error= 1.68D-04 at cycle   7 NSaved=   7.
 NSaved= 7 IEnMin= 7 EnMin= -794.746420184005     IErMin= 7 ErrMin= 1.68D-04
 ErrMax= 1.68D-04  0.00D+00 EMaxC= 1.00D-01 BMatC= 1.75D-06 BMatP= 3.45D-05
 IDIUse=3 WtCom= 9.98D-01 WtEn= 1.68D-03
 Coeff-Com: -0.181D-02 0.241D-02-0.168D-02 0.253D-01 0.416D-01-0.402D+00
 Coeff-Com:  0.134D+01
 Coeff-En:   0.000D+00 0.000D+00 0.000D+00 0.000D+00 0.000D+00 0.000D+00
 Coeff-En:   0.100D+01
 Coeff:     -0.180D-02 0.241D-02-0.168D-02 0.253D-01 0.415D-01-0.401D+00
 Coeff:      0.134D+01
 Gap=     0.344 Goal=   None    Shift=    0.000
 Gap=     0.415 Goal=   None    Shift=    0.000
 RMSDP=1.30D-05 MaxDP=3.52D-04 DE=-2.88D-05 OVMax= 8.69D-04

 Cycle   8  Pass 1  IDiag  1:
 E= -794.746421592452     Delta-E=       -0.000001408447 Rises=F Damp=F
 DIIS: error= 3.97D-05 at cycle   8 NSaved=   8.
 NSaved= 8 IEnMin= 8 EnMin= -794.746421592452     IErMin= 8 ErrMin= 3.97D-05
 ErrMax= 3.97D-05  0.00D+00 EMaxC= 1.00D-01 BMatC= 7.66D-08 BMatP= 1.75D-06
 IDIUse=1 WtCom= 1.00D+00 WtEn= 0.00D+00
 Coeff-Com: -0.117D-02 0.157D-02-0.130D-02 0.594D-02 0.292D-01-0.110D+00
 Coeff-Com:  0.129D-01 0.106D+01
 Coeff:     -0.117D-02 0.157D-02-0.130D-02 0.594D-02 0.292D-01-0.110D+00
 Coeff:      0.129D-01 0.106D+01
 Gap=     0.344 Goal=   None    Shift=    0.000
 Gap=     0.415 Goal=   None    Shift=    0.000
 RMSDP=2.40D-06 MaxDP=7.00D-05 DE=-1.41D-06 OVMax= 1.87D-04

 Cycle   9  Pass 1  IDiag  1:
 E= -794.746421639364     Delta-E=       -0.000000046911 Rises=F Damp=F
 DIIS: error= 8.11D-06 at cycle   9 NSaved=   9.
 NSaved= 9 IEnMin= 9 EnMin= -794.746421639364     IErMin= 9 ErrMin= 8.11D-06
 ErrMax= 8.11D-06  0.00D+00 EMaxC= 1.00D-01 BMatC= 2.74D-09 BMatP= 7.66D-08
 IDIUse=1 WtCom= 1.00D+00 WtEn= 0.00D+00
 Coeff-Com:  0.128D-03-0.175D-03 0.324D-03-0.261D-02-0.935D-02 0.442D-01
 Coeff-Com: -0.435D-01-0.320D+00 0.133D+01
 Coeff:      0.128D-03-0.175D-03 0.324D-03-0.261D-02-0.935D-02 0.442D-01
 Coeff:     -0.435D-01-0.320D+00 0.133D+01
 Gap=     0.344 Goal=   None    Shift=    0.000
 Gap=     0.415 Goal=   None    Shift=    0.000
 RMSDP=5.40D-07 MaxDP=1.31D-05 DE=-4.69D-08 OVMax= 3.67D-05

 Cycle  10  Pass 1  IDiag  1:
 E= -794.746421641222     Delta-E=       -0.000000001859 Rises=F Damp=F
 DIIS: error= 1.04D-06 at cycle  10 NSaved=  10.
 NSaved=10 IEnMin=10 EnMin= -794.746421641222     IErMin=10 ErrMin= 1.04D-06
 ErrMax= 1.04D-06  0.00D+00 EMaxC= 1.00D-01 BMatC= 1.07D-10 BMatP= 2.74D-09
 IDIUse=1 WtCom= 1.00D+00 WtEn= 0.00D+00
 Coeff-Com:  0.214D-04-0.280D-04-0.316D-04 0.467D-03 0.120D-02-0.693D-02
 Coeff-Com:  0.933D-02 0.460D-01-0.344D+00 0.129D+01
 Coeff:      0.214D-04-0.280D-04-0.316D-04 0.467D-03 0.120D-02-0.693D-02
 Coeff:      0.933D-02 0.460D-01-0.344D+00 0.129D+01
 Gap=     0.344 Goal=   None    Shift=    0.000
 Gap=     0.415 Goal=   None    Shift=    0.000
 RMSDP=1.12D-07 MaxDP=3.27D-06 DE=-1.86D-09 OVMax= 5.30D-06

 Cycle  11  Pass 1  IDiag  1:
 E= -794.746421641299     Delta-E=       -0.000000000077 Rises=F Damp=F
 DIIS: error= 2.44D-07 at cycle  11 NSaved=  11.
 NSaved=11 IEnMin=11 EnMin= -794.746421641299     IErMin=11 ErrMin= 2.44D-07
 ErrMax= 2.44D-07  0.00D+00 EMaxC= 1.00D-01 BMatC= 8.51D-12 BMatP= 1.07D-10
 IDIUse=1 WtCom= 1.00D+00 WtEn= 0.00D+00
 Coeff-Com: -0.661D-06 0.879D-06 0.121D-05-0.418D-04 0.100D-03 0.238D-04
 Coeff-Com: -0.375D-03-0.143D-02 0.495D-01-0.427D+00 0.138D+01
 Coeff:     -0.661D-06 0.879D-06 0.121D-05-0.418D-04 0.100D-03 0.238D-04
 Coeff:     -0.375D-03-0.143D-02 0.495D-01-0.427D+00 0.138D+01
 Gap=     0.344 Goal=   None    Shift=    0.000
 Gap=     0.415 Goal=   None    Shift=    0.000
 RMSDP=3.59D-08 MaxDP=6.73D-07 DE=-7.66D-11 OVMax= 1.70D-06

 Cycle  12  Pass 1  IDiag  1:
 E= -794.746421641305     Delta-E=       -0.000000000006 Rises=F Damp=F
 DIIS: error= 9.68D-08 at cycle  12 NSaved=  12.
 NSaved=12 IEnMin=12 EnMin= -794.746421641305     IErMin=12 ErrMin= 9.68D-08
 ErrMax= 9.68D-08  0.00D+00 EMaxC= 1.00D-01 BMatC= 8.74D-13 BMatP= 8.51D-12
 IDIUse=1 WtCom= 1.00D+00 WtEn= 0.00D+00
 Coeff-Com: -0.265D-06 0.318D-06 0.195D-05-0.751D-05-0.161D-03 0.538D-03
 Coeff-Com: -0.640D-03-0.199D-02-0.535D-02 0.162D+00-0.852D+00 0.170D+01
 Coeff:     -0.265D-06 0.318D-06 0.195D-05-0.751D-05-0.161D-03 0.538D-03
 Coeff:     -0.640D-03-0.199D-02-0.535D-02 0.162D+00-0.852D+00 0.170D+01
 Gap=     0.344 Goal=   None    Shift=    0.000
 Gap=     0.415 Goal=   None    Shift=    0.000
 RMSDP=1.28D-08 MaxDP=2.48D-07 DE=-5.68D-12 OVMax= 6.87D-07

 Cycle  13  Pass 1  IDiag  1:
 E= -794.746421641306     Delta-E=       -0.000000000001 Rises=F Damp=F
 DIIS: error= 1.90D-08 at cycle  13 NSaved=  13.
 NSaved=13 IEnMin=13 EnMin= -794.746421641306     IErMin=13 ErrMin= 1.90D-08
 ErrMax= 1.90D-08  0.00D+00 EMaxC= 1.00D-01 BMatC= 2.85D-14 BMatP= 8.74D-13
 IDIUse=1 WtCom= 1.00D+00 WtEn= 0.00D+00
 Coeff-Com: -0.426D-06 0.581D-06-0.108D-05 0.721D-05 0.455D-04-0.191D-03
 Coeff-Com:  0.297D-03 0.599D-03-0.177D-02-0.206D-01 0.164D+00-0.496D+00
 Coeff-Com:  0.135D+01
 Coeff:     -0.426D-06 0.581D-06-0.108D-05 0.721D-05 0.455D-04-0.191D-03
 Coeff:      0.297D-03 0.599D-03-0.177D-02-0.206D-01 0.164D+00-0.496D+00
 Coeff:      0.135D+01
 Gap=     0.344 Goal=   None    Shift=    0.000
 Gap=     0.415 Goal=   None    Shift=    0.000
 RMSDP=2.12D-09 MaxDP=3.74D-08 DE=-1.02D-12 OVMax= 1.39D-07

 SCF Done:  E(UHF) =  -794.746421641     A.U. after   13 cycles
            NFock= 13  Conv=0.21D-08     -V/T= 2.0002
 <Sx>= 0.0000 <Sy>= 0.0000 <Sz>= 0.5000 <S**2>= 0.7797 S= 0.5147
 <L.S>= 0.000000000000E+00
 KE= 7.945933675329D+02 PE=-2.031537182907D+03 EE= 3.678735287866D+02
 Annihilation of the first spin contaminant:
 S**2 before annihilation     0.7797,   after     0.7505
 Leave Link  502 at Mon Oct 24 08:40:09 2016, MaxMem=    33554432 cpu:         4.5
 (Enter /home/proyectos/fulerenos/M3C-v2.0/M3C-deps_CCC/g09-AM64L-G09RevC.01/l801.exe)
 Windowed orbitals will be sorted by symmetry type.
 ExpMin= 4.05D-02 ExpMax= 9.34D+04 ExpMxC= 3.17D+03 IAcc=3 IRadAn=         5 AccDes= 0.00D+00
 HarFok:  IExCor=  205 AccDes= 0.00D+00 IRadAn=         5 IDoV=-2 UseB2=F ITyADJ=14
 ICtDFT= 12500011 ScaDFX=  1.000000  1.000000  1.000000  1.000000
 Largest valence mixing into a core orbital is  4.48D-04
 Largest core mixing into a valence orbital is  2.02D-04
 Largest valence mixing into a core orbital is  4.60D-04
 Largest core mixing into a valence orbital is  2.21D-04
 Range of M.O.s used for correlation:    11    94
 NBasis=    94 NAE=    16 NBE=    15 NFC=    10 NFV=     0
 NROrb=     84 NOA=     6 NOB=     5 NVA=    78 NVB=    79

 **** Warning!!: The largest alpha MO coefficient is  0.18717134D+02


 **** Warning!!: The largest beta MO coefficient is  0.18729928D+02

 Leave Link  801 at Mon Oct 24 08:40:11 2016, MaxMem=    33554432 cpu:         2.8
 (Enter /home/proyectos/fulerenos/M3C-v2.0/M3C-deps_CCC/g09-AM64L-G09RevC.01/l804.exe)
 Open-shell transformation, MDV=    33554432 ITran=4 ISComp=2.
 Semi-Direct transformation.
 ModeAB=           4 MOrb=             6 LenV=      33170776
 LASXX=       216272 LTotXX=      216272 LenRXX=      443446
 LTotAB=      227174 MaxLAS=     1542744 LenRXY=           0
 NonZer=      659718 LenScr=     1571840 LnRSAI=     1542744
 LnScr1=     3084288 LExtra=           0 Total=      6642318
 MaxDsk=          -1 SrtSym=           T ITran=            4
 DoSDTr:  NPSUse=  4
 JobTyp=1 Pass  1:  I=   1 to   6.
 (rs|ai) integrals will be sorted in core.
 Complete sort for first half transformation.
 First half transformation complete.
 Complete sort for second half transformation.
 Second half transformation complete.
 ModeAB=           4 MOrb=             5 LenV=      33170776
 LASXX=       182764 LTotXX=      182764 LenRXX=      347936
 LTotAB=      165172 MaxLAS=     1285620 LenRXY=           0
 NonZer=      530700 LenScr=     1571840 LnRSAI=     1285620
 LnScr1=     2570240 LExtra=           0 Total=      5775636
 MaxDsk=          -1 SrtSym=           T ITran=            4
 DoSDTr:  NPSUse=  4
 JobTyp=2 Pass  1:  I=   1 to   5.
 (rs|ai) integrals will be sorted in core.
 Complete sort for first half transformation.
 First half transformation complete.
 Complete sort for second half transformation.
 Second half transformation complete.
 Spin components of T(2) and E(2):
     alpha-alpha T2 =       0.1848698639D-01 E2=     -0.3947322110D-01
     alpha-beta  T2 =       0.1117791112D+00 E2=     -0.2327513091D+00
     beta-beta   T2 =       0.2202285188D-01 E2=     -0.3812745532D-01
 ANorm=    0.1073447227D+01
 E2 =    -0.3103519855D+00 EUMP2 =    -0.79505677362682D+03
 (S**2,0)=  0.77967D+00           (S**2,1)=  0.75765D+00
 E(PUHF)=      -0.79475233083D+03        E(PMP2)=      -0.79506051203D+03
 Leave Link  804 at Mon Oct 24 08:40:15 2016, MaxMem=    33554432 cpu:        11.8
 (Enter /home/proyectos/fulerenos/M3C-v2.0/M3C-deps_CCC/g09-AM64L-G09RevC.01/l913.exe)
 CIDS:  MDV=    33554432.
 Frozen-core window:  NFC=  10 NFV=   0.
 IFCWin=0 IBDFC=1 NFBD=     0     0 NFCmp=     0     0 NFFFC=     0     0
 Using original routines for 1st iteration, S=T.
 Using DD4UQ or CC4UQ for 2nd and later iterations.
 Keep R2 and R3 ints in memory in symmetry-blocked form, NReq=11926067.
 FoFCou: FMM=F IPFlag=           0 FMFlag=           0 FMFlg1=           0
         NFxFlg=           0 DoJE=F BraDBF=F KetDBF=F FulRan=T
         wScrn=  0.000000 ICntrl=     600 IOpCl=  0 I1Cent=           0 NGrid=           0
         NMat0=    1 NMatS0=   4465 NMatT0=    0 NMatD0=    1 NMtDS0=    0 NMtDT0=    0
 Petite list used in FoFCou.
 CCSD(T)
 =======
 Iterations=  50 Convergence= 0.100D-06
 Iteration Nr.   1
 **********************
 DD1Dir will call FoFMem   1 times, MxPair=        86
 NAB=    30 NAA=    15 NBB=    10.
 E(PMP3)=      -0.79508104437D+03
 MP4(R+Q)=  0.13964688D-01
 Maximum subspace dimension=  5
 Norm of the A-vectors is  4.5676445D-01 conv= 1.00D-05.
 RLE energy=       -0.3191551944
 E3=       -0.22550178D-01        EUMP3=      -0.79507932380D+03
 E4(DQ)=    0.25946522D-02        UMP4(DQ)=   -0.79507672915D+03
 E4(SDQ)=  -0.18008344D-02        UMP4(SDQ)=  -0.79508112464D+03
 VARIATIONAL ENERGIES WITH THE FIRST-ORDER WAVEFUNCTION:
 DE(Corr)= -0.31891238     E(Corr)=     -795.06533402    
 NORM(A)=   0.10787155D+01
 Iteration Nr.   2
 **********************
 DD1Dir will call FoFMem   1 times, MxPair=        86
 NAB=    30 NAA=    15 NBB=    10.
 Norm of the A-vectors is  1.6184925D-01 conv= 1.00D-05.
 RLE energy=       -0.3337887942
 DE(Corr)= -0.33172509     E(CORR)=     -795.07814673     Delta=-1.28D-02
 NORM(A)=   0.10887745D+01
 Iteration Nr.   3
 **********************
 DD1Dir will call FoFMem   1 times, MxPair=        86
 NAB=    30 NAA=    15 NBB=    10.
 Norm of the A-vectors is  4.5445321D-02 conv= 1.00D-05.
 RLE energy=       -0.3340670887
 DE(Corr)= -0.33304865     E(CORR)=     -795.07947029     Delta=-1.32D-03
 NORM(A)=   0.10905603D+01
 Iteration Nr.   4
 **********************
 DD1Dir will call FoFMem   1 times, MxPair=        86
 NAB=    30 NAA=    15 NBB=    10.
 Norm of the A-vectors is  1.4503848D-02 conv= 1.00D-05.
 RLE energy=       -0.3343410199
 DE(Corr)= -0.33424256     E(CORR)=     -795.08066420     Delta=-1.19D-03
 NORM(A)=   0.10912452D+01
 Iteration Nr.   5
 **********************
 DD1Dir will call FoFMem   1 times, MxPair=        86
 NAB=    30 NAA=    15 NBB=    10.
 Norm of the A-vectors is  4.0095415D-03 conv= 1.00D-05.
 RLE energy=       -0.3343824283
 DE(Corr)= -0.33435257     E(CORR)=     -795.08077421     Delta=-1.10D-04
 NORM(A)=   0.10913628D+01
 Iteration Nr.   6
 **********************
 DD1Dir will call FoFMem   1 times, MxPair=        86
 NAB=    30 NAA=    15 NBB=    10.
 Norm of the A-vectors is  1.2914484D-03 conv= 1.00D-05.
 RLE energy=       -0.3343515393
 DE(Corr)= -0.33436296     E(CORR)=     -795.08078460     Delta=-1.04D-05
 NORM(A)=   0.10913546D+01
 Iteration Nr.   7
 **********************
 DD1Dir will call FoFMem   1 times, MxPair=        86
 NAB=    30 NAA=    15 NBB=    10.
 Norm of the A-vectors is  4.2044480D-04 conv= 1.00D-05.
 RLE energy=       -0.3343651394
 DE(Corr)= -0.33436383     E(CORR)=     -795.08078547     Delta=-8.65D-07
 NORM(A)=   0.10913628D+01
 Iteration Nr.   8
 **********************
 DD1Dir will call FoFMem   1 times, MxPair=        86
 NAB=    30 NAA=    15 NBB=    10.
 Norm of the A-vectors is  1.3247531D-04 conv= 1.00D-05.
 RLE energy=       -0.3343621627
 DE(Corr)= -0.33436275     E(CORR)=     -795.08078439     Delta= 1.08D-06
 NORM(A)=   0.10913613D+01
 Iteration Nr.   9
 **********************
 DD1Dir will call FoFMem   1 times, MxPair=        86
 NAB=    30 NAA=    15 NBB=    10.
 Norm of the A-vectors is  4.8600081D-05 conv= 1.00D-05.
 RLE energy=       -0.3343640557
 DE(Corr)= -0.33436373     E(CORR)=     -795.08078537     Delta=-9.86D-07
 NORM(A)=   0.10913625D+01
 Iteration Nr.  10
 **********************
 DD1Dir will call FoFMem   1 times, MxPair=        86
 NAB=    30 NAA=    15 NBB=    10.
 Norm of the A-vectors is  1.8636309D-05 conv= 1.00D-05.
 RLE energy=       -0.3343635792
 DE(Corr)= -0.33436355     E(CORR)=     -795.08078519     Delta= 1.86D-07
 NORM(A)=   0.10913623D+01
 Iteration Nr.  11
 **********************
 DD1Dir will call FoFMem   1 times, MxPair=        86
 NAB=    30 NAA=    15 NBB=    10.
 Norm of the A-vectors is  7.2373872D-06 conv= 1.00D-05.
 RLE energy=       -0.3343636923
 DE(Corr)= -0.33436370     E(CORR)=     -795.08078534     Delta=-1.55D-07
 NORM(A)=   0.10913625D+01
 Iteration Nr.  12
 **********************
 DD1Dir will call FoFMem   1 times, MxPair=        86
 NAB=    30 NAA=    15 NBB=    10.
 Norm of the A-vectors is  2.6144132D-06 conv= 1.00D-05.
 RLE energy=       -0.3343637074
 DE(Corr)= -0.33436369     E(CORR)=     -795.08078533     Delta= 9.04D-09
 NORM(A)=   0.10913625D+01
 CI/CC converged in   12 iterations to DelEn= 9.04D-09 Conv= 1.00D-07 ErrA1= 2.61D-06 Conv= 1.00D-05
 Dominant configurations:
 ***********************
 Spin Case        I    J    A    B          Value
   ABAB          15   14   17   16      -0.141244D+00
 Largest amplitude= 1.41D-01
 Time for triples=      217.31 seconds.
 T4(CCSD)= -0.21898591D-01
 T5(CCSD)=  0.63905149D-03
 CCSD(T)= -0.79510204487D+03

 S**2, projected HF & approx projected MPn energies after annihilation of
 unwanted spin states (see manual for definitions):

 spins       (S**2,0) (S**2,1)    PUHF        PMP2        PMP3        PMP4
 annihilated
 s+1         0.74969  0.75015 -794.752331 -795.060512 -795.081044
 s+1,s+2     0.75000  0.75000 -794.752282 -795.060468 -795.081007
 s+1 to s+3  0.75000  0.75000 -794.752282 -795.060468 -795.081006
 s+1 to s+4  0.75000  0.75000 -794.752282 -795.060468 -795.081006
 s+1 to s+5  0.75000  0.75000 -794.752282

 Discarding MO integrals.
 Leave Link  913 at Mon Oct 24 08:43:38 2016, MaxMem=    33554432 cpu:       622.3
 (Enter /home/proyectos/fulerenos/M3C-v2.0/M3C-deps_CCC/g09-AM64L-G09RevC.01/l601.exe)
 Copying SCF densities to generalized density rwf, IOpCl= 1 IROHF=0.

 **********************************************************************

            Population analysis using the SCF density.

 **********************************************************************

 Orbital symmetries:
 Alpha Orbitals:
       Occupied  (SGG) (SGU) (SGG) (SGU) (PIU) (PIG) (SGG) (PIU)
                 (PIG) (SGU) (SGG) (?A) (?B) (SGG) (?B) (?C)
       Virtual   (?C) (SGU) (?D) (PIU) (PIU) (SGG) (SGU) (?C) (?C)
                 (?D) (?D) (SGU) (?B) (?B) (SGG) (?A) (?A) (?A)
                 (?B) (?B) (?C) (?C) (SGG) (PIG) (PIG) (SGU) (SGG)
                 (SGU) (PIU) (PIU) (SGG) (DLTG) (DLTG) (DLTU) (DLTU)
                 (PIG) (PIG) (SGU) (DLTG) (DLTG) (?E) (?E) (SGG)
                 (?E) (?E) (?F) (?F) (?F) (?E) (?E) (?F) (?G) (?G)
                 (?G) (PIG) (SGU) (PIG) (SGG) (PIU) (PIU) (?H)
                 (?H) (?H) (DLTU) (DLTU) (PIG) (PIG) (SGU) (SGG)
                 (SGU) (PIU) (PIU) (PIG) (PIG) (SGG) (SGU) (SGG)
                 (SGU)
 Beta  Orbitals:
       Occupied  (SGG) (SGU) (SGG) (SGU) (SGG) (PIU) (PIG) (SGU)
                 (PIU) (PIG) (SGG) (SGU) (SGG) (PIU) (PIU)
       Virtual   (PIG) (PIG) (SGU) (SGG) (PIU) (PIU) (?A) (SGU)
                 (PIG) (PIG) (SGU) (?A) (?A) (PIU) (PIU) (?A) (?B)
                 (PIU) (?B) (?B) (PIU) (PIG) (PIG) (SGG) (PIG)
                 (PIG) (SGU) (?A) (?C) (PIU) (?A) (PIU) (?A) (?A)
                 (?C) (?C) (PIG) (PIG) (?C) (?D) (?D) (?E) (?E)
                 (?D) (?E) (?E) (?E) (?F) (?F) (?F) (?E) (?F) (?G)
                 (?G) (?G) (PIG) (SGU) (PIG) (SGG) (PIU) (PIU)
                 (?H) (?H) (?H) (DLTU) (DLTU) (PIG) (PIG) (SGU)
                 (SGG) (SGU) (PIU) (PIU) (PIG) (PIG) (SGG) (SGU)
                 (SGG) (SGU)
 Unable to determine electronic state:  an orbital has unidentified symmetry.
 Alpha  occ. eigenvalues --  -92.34542 -92.34542  -9.34127  -9.34073  -7.02964
 Alpha  occ. eigenvalues --   -7.02954  -7.01929  -7.01891  -7.01876  -7.01776
 Alpha  occ. eigenvalues --   -1.41603  -1.11205  -0.83237  -0.82334  -0.75270
 Alpha  occ. eigenvalues --   -0.65510
 Alpha virt. eigenvalues --   -0.31085  -0.11189  -0.09689  -0.06414  -0.06082
 Alpha virt. eigenvalues --   -0.04529  -0.03360  -0.01857  -0.01688   0.04203
 Alpha virt. eigenvalues --    0.04223   0.04330   0.07076   0.09031   0.13228
 Alpha virt. eigenvalues --    0.17767   0.20044   0.20121   0.21494   0.22282
 Alpha virt. eigenvalues --    0.24477   0.25447   0.30965   0.42253   0.42846
 Alpha virt. eigenvalues --    0.49957   0.60094   0.81497   0.84922   0.85112
 Alpha virt. eigenvalues --    0.86217   0.91387   0.91402   0.96970   0.96982
 Alpha virt. eigenvalues --    1.07703   1.08027   1.23346   1.39348   1.39350
 Alpha virt. eigenvalues --    1.51790   1.51791   1.55086   1.61519   1.62324
 Alpha virt. eigenvalues --    1.64337   1.64361   1.65448   1.65863   1.65919
 Alpha virt. eigenvalues --    1.66359   1.92366   1.92403   1.96644   2.34905
 Alpha virt. eigenvalues --    2.35302   2.35485   2.38983   4.66055   4.67190
 Alpha virt. eigenvalues --    4.69650   4.69841   4.71698   4.75206   4.75214
 Alpha virt. eigenvalues --    5.04196   5.05314   5.72794   7.93407   8.48137
 Alpha virt. eigenvalues --   17.99775  18.00564  18.04898  18.05671  18.27495
 Alpha virt. eigenvalues --   18.35701 191.77274 192.21830
  Beta  occ. eigenvalues --  -92.33883 -92.33882  -9.33484  -9.33423  -7.01652
  Beta  occ. eigenvalues --   -7.01559  -7.01544  -7.01495  -7.00201  -7.00185
  Beta  occ. eigenvalues --   -1.38610  -1.03789  -0.80101  -0.74641  -0.71393
  Beta virt. eigenvalues --   -0.29846  -0.25603  -0.10192  -0.09709  -0.06403
  Beta virt. eigenvalues --   -0.05889  -0.04428  -0.02811  -0.01622  -0.01142
  Beta virt. eigenvalues --    0.04582   0.05933   0.05947   0.09079   0.11120
  Beta virt. eigenvalues --    0.13909   0.18061   0.22427   0.23397   0.23468
  Beta virt. eigenvalues --    0.24092   0.25717   0.27211   0.31508   0.42933
  Beta virt. eigenvalues --    0.44727   0.50989   0.61090   0.82194   0.85062
  Beta virt. eigenvalues --    0.86930   0.87072   0.94220   0.94527   1.00085
  Beta virt. eigenvalues --    1.00096   1.08181   1.10502   1.24727   1.40719
  Beta virt. eigenvalues --    1.40767   1.54185   1.54197   1.55504   1.62743
  Beta virt. eigenvalues --    1.65554   1.66098   1.66494   1.67098   1.67509
  Beta virt. eigenvalues --    1.68675   1.69809   1.93672   1.94121   1.97874
  Beta virt. eigenvalues --    2.35091   2.35612   2.37601   2.39751   4.66083
  Beta virt. eigenvalues --    4.67798   4.70033   4.70600   4.72345   4.76012
  Beta virt. eigenvalues --    4.76027   5.04295   5.06113   5.73483   7.94402
  Beta virt. eigenvalues --    8.48949  18.00843  18.02294  18.05954  18.07419
  Beta virt. eigenvalues --   18.27750  18.35921 191.77648 192.22202
          Condensed to atoms (all electrons):
               1          2
     1  S   14.831129   0.668871
     2  S    0.668871  14.831129
          Atomic-Atomic Spin Densities.
               1          2
     1  S    0.644366  -0.144366
     2  S   -0.144366   0.644366
 Mulliken charges and spin densities:
               1          2
     1  S    0.500000   0.500000
     2  S    0.500000   0.500000
 Sum of Mulliken charges =   1.00000   1.00000
 Mulliken charges and spin densities with hydrogens summed into heavy atoms:
               1          2
     1  S    0.500000   0.500000
     2  S    0.500000   0.500000
 Electronic spatial extent (au):  <R**2>=            138.1197
 Charge=              1.0000 electrons
 Dipole moment (field-independent basis, Debye):
    X=              0.0000    Y=             -0.0000    Z=              0.0000  Tot=              0.0000
 Quadrupole moment (field-independent basis, Debye-Ang):
   XX=            -22.8804   YY=            -20.7072   ZZ=            -14.5304
   XY=              0.0000   XZ=             -0.0000   YZ=              0.0000
 Traceless Quadrupole moment (field-independent basis, Debye-Ang):
   XX=             -3.5077   YY=             -1.3345   ZZ=              4.8423
   XY=              0.0000   XZ=             -0.0000   YZ=              0.0000
 Octapole moment (field-independent basis, Debye-Ang**2):
  XXX=             -0.0000  YYY=              0.0000  ZZZ=              0.0000  XYY=             -0.0000
  XXY=              0.0000  XXZ=             -0.0000  XZZ=             -0.0000  YZZ=              0.0000
  YYZ=             -0.0000  XYZ=              0.0000
 Hexadecapole moment (field-independent basis, Debye-Ang**3):
 XXXX=            -27.0458 YYYY=            -23.2109 ZZZZ=           -115.8716 XXXY=              0.0000
 XXXZ=              0.0000 YYYX=             -0.0000 YYYZ=              0.0000 ZZZX=              0.0000
 ZZZY=             -0.0000 XXYY=             -8.3702 XXZZ=            -26.4410 YYZZ=            -22.5284
 XXYZ=              0.0000 YYXZ=              0.0000 ZZXY=              0.0000
 N-N= 7.432386494634D+01 E-N=-2.031537182887D+03  KE= 7.945933675329D+02
 Symmetry AG   KE= 3.243051122172D+02
 Symmetry B1G  KE= 3.484846670095D-34
 Symmetry B2G  KE= 3.742878445358D+01
 Symmetry B3G  KE= 3.515039666394D+01
 Symmetry AU   KE= 1.445091230999D-33
 Symmetry B1U  KE= 3.204880779217D+02
 Symmetry B2U  KE= 3.849367075825D+01
 Symmetry B3U  KE= 3.872732551821D+01
 Leave Link  601 at Mon Oct 24 08:43:38 2016, MaxMem=    33554432 cpu:         0.1
 (Enter /home/proyectos/fulerenos/M3C-v2.0/M3C-deps_CCC/g09-AM64L-G09RevC.01/l9999.exe)
 1\1\GINC-BELVIS6\SP\UCCSD(T)-FC\6-311++G(3df,2p)\S2(1+,2)\ROOT\24-Oct-
 2016\0\\#p ccsd(t)/6-311++G(3df,2p) scf(MaxCyc=300) guess(Huckel)\\ccs
 d(t) iener\\1,2\S,0,0.911345,0.,0.\S,0,-0.911345,0.,0.\\Version=EM64L-
 G09RevE.01\HF=-794.7464216\MP2=-795.0567736\MP3=-795.0793238\MP4D=-795
 .0906938\MP4DQ=-795.0767292\PUHF=-794.7523308\PMP2-0=-795.060512\PMP3-
 0=-795.0810444\MP4SDQ=-795.0811246\CCSD=-795.0807853\CCSD(T)=-795.1020
 449\S2=0.779665\S2-1=0.757645\S2A=0.750512\RMSD=2.118e-09\PG=D*H [C*(S
 1.S1)]\\@


 ALL OUR THINKING ABOUT NATURE MUST NECESSARILY MOVE IN CIRCLES OR SPIRALS;
 FOR WE CAN ONLY UNDERSTAND NATURE IF WE THINK ABOUT HER, AND WE CAN ONLY
 THINK BECAUSE OUR BRAIN IS BUILT IN ACCORDANCE WITH NATURE'S LAWS.

                                             -- TIMOTHY FERRIS, "GALAXIES"
 Job cpu time:       0 days  0 hours 10 minutes 43.9 seconds.
 File lengths (MBytes):  RWF=     59 Int=      0 D2E=      0 Chk=      2 Scr=      1
 Normal termination of Gaussian 09 at Mon Oct 24 08:44:09 2016.
