 Entering Gaussian System, Link 0=/home/proyectos/fulerenos/M3C-v2.0/M3C-deps_CCC/g09-AM64L-G09RevC.01/g09
 Initial command:
 /home/proyectos/fulerenos/M3C-v2.0/M3C-deps_CCC/g09-AM64L-G09RevC.01/l1.exe "/scratch/naguirre/gaussian/Gau-22639.inp" -scrdir="/scratch/naguirre/gaussian/"
 Entering Link 1 = /home/proyectos/fulerenos/M3C-v2.0/M3C-deps_CCC/g09-AM64L-G09RevC.01/l1.exe PID=     22647.
  
 Copyright (c) 1988,1990,1992,1993,1995,1998,2003,2009,2015,
            Gaussian, Inc.  All Rights Reserved.
  
 This is part of the Gaussian(R) 09 program.  It is based on
 the Gaussian(R) 03 system (copyright 2003, Gaussian, Inc.),
 the Gaussian(R) 98 system (copyright 1998, Gaussian, Inc.),
 the Gaussian(R) 94 system (copyright 1995, Gaussian, Inc.),
 the Gaussian 92(TM) system (copyright 1992, Gaussian, Inc.),
 the Gaussian 90(TM) system (copyright 1990, Gaussian, Inc.),
 the Gaussian 88(TM) system (copyright 1988, Gaussian, Inc.),
 the Gaussian 86(TM) system (copyright 1986, Carnegie Mellon
 University), and the Gaussian 82(TM) system (copyright 1983,
 Carnegie Mellon University). Gaussian is a federally registered
 trademark of Gaussian, Inc.
  
 This software contains proprietary and confidential information,
 including trade secrets, belonging to Gaussian, Inc.
  
 This software is provided under written license and may be
 used, copied, transmitted, or stored only in accord with that
 written license.
  
 The following legend is applicable only to US Government
 contracts under FAR:
  
                    RESTRICTED RIGHTS LEGEND
  
 Use, reproduction and disclosure by the US Government is
 subject to restrictions as set forth in subparagraphs (a)
 and (c) of the Commercial Computer Software - Restricted
 Rights clause in FAR 52.227-19.
  
 Gaussian, Inc.
 340 Quinnipiac St., Bldg. 40, Wallingford CT 06492
  
  
 ---------------------------------------------------------------
 Warning -- This program may not be used in any manner that
 competes with the business of Gaussian, Inc. or will provide
 assistance to any competitor of Gaussian, Inc.  The licensee
 of this program is prohibited from giving any competitor of
 Gaussian, Inc. access to this program.  By using this program,
 the user acknowledges that Gaussian, Inc. is engaged in the
 business of creating and licensing software in the field of
 computational chemistry and represents and warrants to the
 licensee that it is not a competitor of Gaussian, Inc. and that
 it will not use this program in any manner prohibited above.
 ---------------------------------------------------------------
  

 Cite this work as:
 Gaussian 09, Revision E.01,
 M. J. Frisch, G. W. Trucks, H. B. Schlegel, G. E. Scuseria, 
 M. A. Robb, J. R. Cheeseman, G. Scalmani, V. Barone, B. Mennucci, 
 G. A. Petersson, H. Nakatsuji, M. Caricato, X. Li, H. P. Hratchian, 
 A. F. Izmaylov, J. Bloino, G. Zheng, J. L. Sonnenberg, M. Hada, 
 M. Ehara, K. Toyota, R. Fukuda, J. Hasegawa, M. Ishida, T. Nakajima, 
 Y. Honda, O. Kitao, H. Nakai, T. Vreven, J. A. Montgomery, Jr., 
 J. E. Peralta, F. Ogliaro, M. Bearpark, J. J. Heyd, E. Brothers, 
 K. N. Kudin, V. N. Staroverov, T. Keith, R. Kobayashi, J. Normand, 
 K. Raghavachari, A. Rendell, J. C. Burant, S. S. Iyengar, J. Tomasi, 
 M. Cossi, N. Rega, J. M. Millam, M. Klene, J. E. Knox, J. B. Cross, 
 V. Bakken, C. Adamo, J. Jaramillo, R. Gomperts, R. E. Stratmann, 
 O. Yazyev, A. J. Austin, R. Cammi, C. Pomelli, J. W. Ochterski, 
 R. L. Martin, K. Morokuma, V. G. Zakrzewski, G. A. Voth, 
 P. Salvador, J. J. Dannenberg, S. Dapprich, A. D. Daniels, 
 O. Farkas, J. B. Foresman, J. V. Ortiz, J. Cioslowski, 
 and D. J. Fox, Gaussian, Inc., Wallingford CT, 2013.
 
 ******************************************
 Gaussian 09:  EM64L-G09RevE.01 30-Nov-2015
                24-Oct-2016 
 ******************************************
 %NProcShared=4
 Will use up to    4 processors via shared memory.
 ---------------------------------------------------------
 #p ccsd(t)/6-311++G(3df,2p) scf(MaxCyc=300) guess(Huckel)
 ---------------------------------------------------------
 1/38=1/1;
 2/12=2,17=6,18=5,40=1/2;
 3/5=4,6=6,7=1216,11=9,16=1,25=1,30=1/1,2,3;
 4/11=4/1;
 5/5=2,7=300,38=5/2;
 8/6=4,9=120000,10=2/1,4;
 9/5=7,14=2/13;
 6/7=2,8=2,9=2,10=2/1;
 99/5=1,9=1/99;
 Leave Link    1 at Mon Oct 24 10:01:34 2016, MaxMem=           0 cpu:         0.3
 (Enter /home/proyectos/fulerenos/M3C-v2.0/M3C-deps_CCC/g09-AM64L-G09RevC.01/l101.exe)
 -------------
 ccsd(t) iener
 -------------
 Symbolic Z-matrix:
 Charge =  0 Multiplicity = 3
 S                    -0.09999  -0.36153   2.45727 
 S                     0.22226   0.68549   0.85858 
 S                    -0.22223  -0.6854   -0.85845 
 S                     0.09996   0.36144  -2.45739 
 
 NAtoms=      4 NQM=        4 NQMF=       0 NMMI=      0 NMMIF=      0
                NMic=       0 NMicF=      0.
                    Isotopes and Nuclear Properties:
 (Nuclear quadrupole moments (NQMom) in fm**2, nuclear magnetic moments (NMagM)
  in nuclear magnetons)

  Atom         1           2           3           4
 IAtWgt=          32          32          32          32
 AtmWgt=  31.9720718  31.9720718  31.9720718  31.9720718
 NucSpn=           0           0           0           0
 AtZEff=   0.0000000   0.0000000   0.0000000   0.0000000
 NQMom=    0.0000000   0.0000000   0.0000000   0.0000000
 NMagM=    0.0000000   0.0000000   0.0000000   0.0000000
 AtZNuc=  16.0000000  16.0000000  16.0000000  16.0000000
 Leave Link  101 at Mon Oct 24 10:01:34 2016, MaxMem=    33554432 cpu:         0.2
 (Enter /home/proyectos/fulerenos/M3C-v2.0/M3C-deps_CCC/g09-AM64L-G09RevC.01/l202.exe)
                          Input orientation:                          
 ---------------------------------------------------------------------
 Center     Atomic      Atomic             Coordinates (Angstroms)
 Number     Number       Type             X           Y           Z
 ---------------------------------------------------------------------
      1         16           0       -0.099986   -0.361529    2.457266
      2         16           0        0.222258    0.685488    0.858576
      3         16           0       -0.222228   -0.685395   -0.858451
      4         16           0        0.099955    0.361437   -2.457392
 ---------------------------------------------------------------------
                    Distance matrix (angstroms):
                    1          2          3          4
     1  S    0.000000
     2  S    1.938014   0.000000
     3  S    3.333739   2.241667   0.000000
     4  S    4.971571   3.334008   1.938110   0.000000
 Stoichiometry    S4(3)
 Framework group  CS[SG(S4)]
 Deg. of freedom     5
 Full point group                 CS      NOp   2
 Largest Abelian subgroup         CS      NOp   2
 Largest concise Abelian subgroup C1      NOp   1
                         Standard orientation:                         
 ---------------------------------------------------------------------
 Center     Atomic      Atomic             Coordinates (Angstroms)
 Number     Number       Type             X           Y           Z
 ---------------------------------------------------------------------
      1         16           0       -1.866862   -1.641245   -0.000000
      2         16           0       -0.000006   -1.120913   -0.000000
      3         16           0        0.000000    1.120754    0.000000
      4         16           0        1.866868    1.641404    0.000000
 ---------------------------------------------------------------------
 Rotational constants (GHZ):     12.2580490      1.1638730      1.0629485
 Leave Link  202 at Mon Oct 24 10:01:34 2016, MaxMem=    33554432 cpu:         0.0
 (Enter /home/proyectos/fulerenos/M3C-v2.0/M3C-deps_CCC/g09-AM64L-G09RevC.01/l301.exe)
 Standard basis: 6-311++G(3df,2p) (5D, 7F)
 Ernie: Thresh=  0.10000D-02 Tol=  0.10000D-05 Strict=F.
 There are   148 symmetry adapted cartesian basis functions of A'  symmetry.
 There are    64 symmetry adapted cartesian basis functions of A"  symmetry.
 There are   128 symmetry adapted basis functions of A'  symmetry.
 There are    60 symmetry adapted basis functions of A"  symmetry.
   188 basis functions,   288 primitive gaussians,   212 cartesian basis functions
    33 alpha electrons       31 beta electrons
       nuclear repulsion energy       308.7484831771 Hartrees.
 IExCor=    0 DFT=F Ex=HF Corr=None ExCW=0 ScaHFX=  1.000000
 ScaDFX=  1.000000  1.000000  1.000000  1.000000 ScalE2=  1.000000  1.000000
 IRadAn=      0 IRanWt=     -1 IRanGd=            0 ICorTp=0 IEmpDi=  4
 NAtoms=    4 NActive=    4 NUniq=    4 SFac= 1.00D+00 NAtFMM=   60 NAOKFM=F Big=F
 Integral buffers will be    131072 words long.
 Raffenetti 2 integral format.
 Two-electron integral symmetry is turned on.
 Leave Link  301 at Mon Oct 24 10:01:34 2016, MaxMem=    33554432 cpu:         0.2
 (Enter /home/proyectos/fulerenos/M3C-v2.0/M3C-deps_CCC/g09-AM64L-G09RevC.01/l302.exe)
 NPDir=0 NMtPBC=     1 NCelOv=     1 NCel=       1 NClECP=     1 NCelD=      1
         NCelK=      1 NCelE2=     1 NClLst=     1 CellRange=     0.0.
 One-electron integrals computed using PRISM.
 NBasis=   188 RedAO= T EigKep=  3.04D-04  NBF=   128    60
 NBsUse=   188 1.00D-06 EigRej= -1.00D+00 NBFU=   128    60
 Leave Link  302 at Mon Oct 24 10:01:34 2016, MaxMem=    33554432 cpu:         0.9
 (Enter /home/proyectos/fulerenos/M3C-v2.0/M3C-deps_CCC/g09-AM64L-G09RevC.01/l303.exe)
 DipDrv:  MaxL=1.
 Leave Link  303 at Mon Oct 24 10:01:34 2016, MaxMem=    33554432 cpu:         0.1
 (Enter /home/proyectos/fulerenos/M3C-v2.0/M3C-deps_CCC/g09-AM64L-G09RevC.01/l401.exe)
 Projected New-EHT guess.
 Enter ItEHT:  IZDO=4 IZDPar=0 Conv= 1.00D-06 N=   16
 It=   1                  EEH= -17.7349735044     EQH= 0.000000000000E+00 EH= -17.7349735044    
 JPrj=0 DoOrth=T DoCkMO=T.
 Initial guess orbital symmetries:
 Alpha Orbitals:
       Occupied  (A') (A') (A') (A') (A") (A') (A') (A') (A') (A")
                 (A') (A') (A') (A') (A") (A') (A') (A') (A') (A")
                 (A') (A') (A') (A') (A') (A") (A') (A") (A') (A')
                 (A') (A") (A")
       Virtual   (A') (A') (A') (A') (A') (A') (A') (A') (A') (A')
                 (A') (A') (A') (A') (A') (A') (A') (A') (A') (A')
                 (A') (A') (A') (A') (A') (A') (A') (A') (A') (A')
                 (A') (A') (A') (A') (A') (A') (A') (A') (A') (A')
                 (A') (A') (A') (A') (A') (A') (A') (A') (A') (A')
                 (A') (A') (A') (A') (A') (A') (A') (A') (A') (A')
                 (A') (A') (A') (A') (A') (A') (A') (A') (A') (A')
                 (A') (A') (A') (A') (A') (A') (A') (A') (A') (A')
                 (A') (A') (A') (A') (A') (A') (A') (A') (A') (A')
                 (A') (A') (A') (A') (A') (A') (A') (A') (A') (A')
                 (A') (A') (A') (A") (A") (A") (A") (A") (A") (A")
                 (A") (A") (A") (A") (A") (A") (A") (A") (A") (A")
                 (A") (A") (A") (A") (A") (A") (A") (A") (A") (A")
                 (A") (A") (A") (A") (A") (A") (A") (A") (A") (A")
                 (A") (A") (A") (A") (A") (A") (A") (A") (A") (A")
                 (A") (A") (A") (A") (A")
 Beta  Orbitals:
       Occupied  (A') (A') (A') (A') (A") (A') (A') (A') (A') (A")
                 (A') (A') (A') (A') (A") (A') (A') (A') (A') (A")
                 (A') (A') (A') (A') (A') (A") (A') (A") (A') (A')
                 (A')
       Virtual   (A") (A") (A') (A') (A') (A') (A') (A') (A') (A')
                 (A') (A') (A') (A') (A') (A') (A') (A') (A') (A')
                 (A') (A') (A') (A') (A') (A') (A') (A') (A') (A')
                 (A') (A') (A') (A') (A') (A') (A') (A') (A') (A')
                 (A') (A') (A') (A') (A') (A') (A') (A') (A') (A')
                 (A') (A') (A') (A') (A') (A') (A') (A') (A') (A')
                 (A') (A') (A') (A') (A') (A') (A') (A') (A') (A')
                 (A') (A') (A') (A') (A') (A') (A') (A') (A') (A')
                 (A') (A') (A') (A') (A') (A') (A') (A') (A') (A')
                 (A') (A') (A') (A') (A') (A') (A') (A') (A') (A')
                 (A') (A') (A') (A') (A') (A") (A") (A") (A") (A")
                 (A") (A") (A") (A") (A") (A") (A") (A") (A") (A")
                 (A") (A") (A") (A") (A") (A") (A") (A") (A") (A")
                 (A") (A") (A") (A") (A") (A") (A") (A") (A") (A")
                 (A") (A") (A") (A") (A") (A") (A") (A") (A") (A")
                 (A") (A") (A") (A") (A") (A") (A")
 The electronic state of the initial guess is 3-A'.
 Initial guess <Sx>= 0.0000 <Sy>= 0.0000 <Sz>= 1.0000 <S**2>= 2.0000 S= 1.0000
 Leave Link  401 at Mon Oct 24 10:01:35 2016, MaxMem=    33554432 cpu:         0.7
 (Enter /home/proyectos/fulerenos/M3C-v2.0/M3C-deps_CCC/g09-AM64L-G09RevC.01/l502.exe)
 UHF open shell SCF:
 Using DIIS extrapolation, IDIIS=  1040.
 Integral symmetry usage will be decided dynamically.
 IVT=      230730 IEndB=      230730 NGot=    33554432 MDV=    33459459
 LenX=    33459459 LenY=    33414074
 Requested convergence on RMS density matrix=1.00D-08 within 300 cycles.
 Requested convergence on MAX density matrix=1.00D-06.
 Requested convergence on             energy=1.00D-06.
 No special actions if energy rises.
 Fock matrices will be formed incrementally for  20 cycles.

 Cycle   1  Pass 0  IDiag  1:
 FoFJK:  IHMeth= 1 ICntrl=       0 DoSepK=F KAlg= 0 I1Cent=   0 FoldK=F
 IRaf= 880000000 NMat=   1 IRICut=       1 DoRegI=T DoRafI=F ISym2E= 1.
 FoFCou: FMM=F IPFlag=           0 FMFlag=      100000 FMFlg1=           0
         NFxFlg=           0 DoJE=F BraDBF=F KetDBF=F FulRan=T
         wScrn=  0.000000 ICntrl=       0 IOpCl=  1 I1Cent=           0 NGrid=           0
         NMat0=    1 NMatS0=      1 NMatT0=    0 NMatD0=    1 NMtDS0=    0 NMtDT0=    0
 Petite list used in FoFCou.
 E= -1585.76644591160    
 DIIS: error= 7.71D-01 at cycle   1 NSaved=   1.
 NSaved= 1 IEnMin= 1 EnMin= -1585.76644591160     IErMin= 1 ErrMin= 7.71D-01
 ErrMax= 7.71D-01  0.00D+00 EMaxC= 1.00D-01 BMatC= 2.83D+02 BMatP= 2.83D+02
 IDIUse=3 WtCom= 0.00D+00 WtEn= 1.00D+00
 Coeff-Com:  0.100D+01
 Coeff-En:   0.100D+01
 Coeff:      0.100D+01
 Gap=     0.293 Goal=   None    Shift=    0.000
 Gap=     0.277 Goal=   None    Shift=    0.000
 GapD=    0.277 DampG=1.000 DampE=0.250 DampFc=0.2500 IDamp=-1.
 Damping current iteration by 2.50D-01
 RMSDP=8.57D-03 MaxDP=1.91D-01              OVMax= 3.82D-01

 Cycle   2  Pass 0  IDiag  1:
 RMSU=  1.99D-03    CP:  9.68D-01
 E= -1586.81905327447     Delta-E=       -1.052607362871 Rises=F Damp=T
 DIIS: error= 5.81D-01 at cycle   2 NSaved=   2.
 NSaved= 2 IEnMin= 2 EnMin= -1586.81905327447     IErMin= 2 ErrMin= 5.81D-01
 ErrMax= 5.81D-01  0.00D+00 EMaxC= 1.00D-01 BMatC= 1.61D+02 BMatP= 2.83D+02
 IDIUse=3 WtCom= 0.00D+00 WtEn= 1.00D+00
 Coeff-Com: -0.307D+01 0.407D+01
 Coeff-En:   0.000D+00 0.100D+01
 Coeff:      0.000D+00 0.100D+01
 Gap=     0.310 Goal=   None    Shift=    0.000
 Gap=     0.277 Goal=   None    Shift=    0.000
 RMSDP=6.37D-03 MaxDP=1.43D-01 DE=-1.05D+00 OVMax= 6.26D-02

 Cycle   3  Pass 0  IDiag  1:
 RMSU=  2.05D-03    CP:  8.66D-01  3.00D+00
 E= -1590.07757205870     Delta-E=       -3.258518784227 Rises=F Damp=F
 DIIS: error= 1.76D-02 at cycle   3 NSaved=   3.
 NSaved= 3 IEnMin= 3 EnMin= -1590.07757205870     IErMin= 3 ErrMin= 1.76D-02
 ErrMax= 1.76D-02  0.00D+00 EMaxC= 1.00D-01 BMatC= 4.20D-01 BMatP= 1.61D+02
 IDIUse=3 WtCom= 8.24D-01 WtEn= 1.76D-01
 Coeff-Com:  0.248D+01-0.332D+01 0.184D+01
 Coeff-En:   0.000D+00 0.000D+00 0.100D+01
 Coeff:      0.204D+01-0.273D+01 0.169D+01
 Gap=     0.414 Goal=   None    Shift=    0.000
 Gap=     0.331 Goal=   None    Shift=    0.000
 RMSDP=2.21D-03 MaxDP=1.22D-01 DE=-3.26D+00 OVMax= 8.69D-02

 Cycle   4  Pass 0  IDiag  1:
 RMSU=  1.99D-03    CP:  8.46D-01  3.00D+00  1.41D+00
 E= -1590.14759629080     Delta-E=       -0.070024232098 Rises=F Damp=F
 DIIS: error= 7.13D-03 at cycle   4 NSaved=   4.
 NSaved= 4 IEnMin= 4 EnMin= -1590.14759629080     IErMin= 4 ErrMin= 7.13D-03
 ErrMax= 7.13D-03  0.00D+00 EMaxC= 1.00D-01 BMatC= 1.75D-02 BMatP= 4.20D-01
 IDIUse=3 WtCom= 9.29D-01 WtEn= 7.13D-02
 Coeff-Com: -0.727D-01 0.938D-01 0.753D-01 0.904D+00
 Coeff-En:   0.000D+00 0.000D+00 0.000D+00 0.100D+01
 Coeff:     -0.675D-01 0.871D-01 0.699D-01 0.910D+00
 Gap=     0.388 Goal=   None    Shift=    0.000
 Gap=     0.327 Goal=   None    Shift=    0.000
 RMSDP=4.84D-04 MaxDP=2.76D-02 DE=-7.00D-02 OVMax= 4.97D-02

 Cycle   5  Pass 0  IDiag  1:
 RMSU=  4.70D-04    CP:  8.45D-01  3.00D+00  1.44D+00  9.61D-01
 E= -1590.15343305689     Delta-E=       -0.005836766090 Rises=F Damp=F
 DIIS: error= 3.01D-03 at cycle   5 NSaved=   5.
 NSaved= 5 IEnMin= 5 EnMin= -1590.15343305689     IErMin= 5 ErrMin= 3.01D-03
 ErrMax= 3.01D-03  0.00D+00 EMaxC= 1.00D-01 BMatC= 3.53D-03 BMatP= 1.75D-02
 IDIUse=3 WtCom= 9.70D-01 WtEn= 3.01D-02
 Coeff-Com: -0.196D-01 0.270D-01-0.554D-01 0.170D+00 0.878D+00
 Coeff-En:   0.000D+00 0.000D+00 0.000D+00 0.000D+00 0.100D+01
 Coeff:     -0.190D-01 0.262D-01-0.538D-01 0.165D+00 0.882D+00
 Gap=     0.391 Goal=   None    Shift=    0.000
 Gap=     0.328 Goal=   None    Shift=    0.000
 RMSDP=2.03D-04 MaxDP=8.07D-03 DE=-5.84D-03 OVMax= 1.45D-02

 Cycle   6  Pass 0  IDiag  1:
 RMSU=  1.27D-04    CP:  8.44D-01  3.00D+00  1.47D+00  1.04D+00  1.05D+00
 E= -1590.15505434082     Delta-E=       -0.001621283928 Rises=F Damp=F
 DIIS: error= 2.26D-03 at cycle   6 NSaved=   6.
 NSaved= 6 IEnMin= 6 EnMin= -1590.15505434082     IErMin= 6 ErrMin= 2.26D-03
 ErrMax= 2.26D-03  0.00D+00 EMaxC= 1.00D-01 BMatC= 4.37D-04 BMatP= 3.53D-03
 IDIUse=3 WtCom= 9.77D-01 WtEn= 2.26D-02
 Coeff-Com: -0.323D-01 0.431D-01-0.128D-01-0.995D-01-0.268D+00 0.137D+01
 Coeff-En:   0.000D+00 0.000D+00 0.000D+00 0.000D+00 0.000D+00 0.100D+01
 Coeff:     -0.315D-01 0.421D-01-0.126D-01-0.973D-01-0.262D+00 0.136D+01
 Gap=     0.391 Goal=   None    Shift=    0.000
 Gap=     0.332 Goal=   None    Shift=    0.000
 RMSDP=1.46D-04 MaxDP=8.38D-03 DE=-1.62D-03 OVMax= 2.53D-02

 Cycle   7  Pass 0  IDiag  1:
 RMSU=  5.03D-05    CP:  8.44D-01  3.00D+00  1.47D+00  1.05D+00  1.20D+00
                    CP:  1.87D+00
 E= -1590.15576882227     Delta-E=       -0.000714481450 Rises=F Damp=F
 DIIS: error= 1.54D-03 at cycle   7 NSaved=   7.
 NSaved= 7 IEnMin= 7 EnMin= -1590.15576882227     IErMin= 7 ErrMin= 1.54D-03
 ErrMax= 1.54D-03  0.00D+00 EMaxC= 1.00D-01 BMatC= 1.73D-04 BMatP= 4.37D-04
 IDIUse=3 WtCom= 9.85D-01 WtEn= 1.54D-02
 Coeff-Com: -0.172D-01 0.227D-01 0.147D-02-0.277D-03-0.152D+00-0.208D+00
 Coeff-Com:  0.135D+01
 Coeff-En:   0.000D+00 0.000D+00 0.000D+00 0.000D+00 0.000D+00 0.000D+00
 Coeff-En:   0.100D+01
 Coeff:     -0.169D-01 0.223D-01 0.145D-02-0.273D-03-0.150D+00-0.205D+00
 Coeff:      0.135D+01
 Gap=     0.392 Goal=   None    Shift=    0.000
 Gap=     0.334 Goal=   None    Shift=    0.000
 RMSDP=1.11D-04 MaxDP=7.53D-03 DE=-7.14D-04 OVMax= 2.05D-02

 Cycle   8  Pass 0  IDiag  1:
 RMSU=  2.23D-05    CP:  8.44D-01  3.00D+00  1.48D+00  1.06D+00  1.25D+00
                    CP:  2.57D+00  2.16D+00
 E= -1590.15612973717     Delta-E=       -0.000360914905 Rises=F Damp=F
 DIIS: error= 9.97D-04 at cycle   8 NSaved=   8.
 NSaved= 8 IEnMin= 8 EnMin= -1590.15612973717     IErMin= 8 ErrMin= 9.97D-04
 ErrMax= 9.97D-04  0.00D+00 EMaxC= 1.00D-01 BMatC= 7.32D-05 BMatP= 1.73D-04
 IDIUse=3 WtCom= 9.90D-01 WtEn= 9.97D-03
 Coeff-Com: -0.439D-02 0.594D-02-0.927D-02 0.522D-01 0.181D+00-0.318D+00
 Coeff-Com: -0.113D+01 0.222D+01
 Coeff-En:   0.000D+00 0.000D+00 0.000D+00 0.000D+00 0.000D+00 0.000D+00
 Coeff-En:   0.000D+00 0.100D+01
 Coeff:     -0.435D-02 0.588D-02-0.918D-02 0.517D-01 0.179D+00-0.315D+00
 Coeff:     -0.112D+01 0.221D+01
 Gap=     0.391 Goal=   None    Shift=    0.000
 Gap=     0.337 Goal=   None    Shift=    0.000
 RMSDP=1.36D-04 MaxDP=9.56D-03 DE=-3.61D-04 OVMax= 2.50D-02

 Cycle   9  Pass 0  IDiag  1:
 RMSU=  6.26D-05    CP:  8.44D-01  3.00D+00  1.48D+00  1.07D+00  1.27D+00
                    CP:  3.00D+00  3.00D+00  2.65D+00
 E= -1590.15637287665     Delta-E=       -0.000243139480 Rises=F Damp=F
 DIIS: error= 3.49D-04 at cycle   9 NSaved=   9.
 NSaved= 9 IEnMin= 9 EnMin= -1590.15637287665     IErMin= 9 ErrMin= 3.49D-04
 ErrMax= 3.49D-04  0.00D+00 EMaxC= 1.00D-01 BMatC= 1.45D-05 BMatP= 7.32D-05
 IDIUse=3 WtCom= 9.97D-01 WtEn= 3.49D-03
 Coeff-Com:  0.275D-03-0.333D-03-0.123D-02-0.849D-02-0.488D-02 0.160D+00
 Coeff-Com: -0.200D+00-0.388D+00 0.144D+01
 Coeff-En:   0.000D+00 0.000D+00 0.000D+00 0.000D+00 0.000D+00 0.000D+00
 Coeff-En:   0.000D+00 0.000D+00 0.100D+01
 Coeff:      0.274D-03-0.332D-03-0.123D-02-0.846D-02-0.487D-02 0.160D+00
 Coeff:     -0.200D+00-0.387D+00 0.144D+01
 Gap=     0.391 Goal=   None    Shift=    0.000
 Gap=     0.338 Goal=   None    Shift=    0.000
 RMSDP=5.57D-05 MaxDP=3.77D-03 DE=-2.43D-04 OVMax= 1.00D-02

 Cycle  10  Pass 0  IDiag  1:
 RMSU=  1.60D-05    CP:  8.44D-01  3.00D+00  1.48D+00  1.07D+00  1.28D+00
                    CP:  3.00D+00  3.00D+00  3.00D+00  1.79D+00
 E= -1590.15641124409     Delta-E=       -0.000038367435 Rises=F Damp=F
 DIIS: error= 1.07D-04 at cycle  10 NSaved=  10.
 NSaved=10 IEnMin=10 EnMin= -1590.15641124409     IErMin=10 ErrMin= 1.07D-04
 ErrMax= 1.07D-04  0.00D+00 EMaxC= 1.00D-01 BMatC= 2.33D-06 BMatP= 1.45D-05
 IDIUse=3 WtCom= 9.99D-01 WtEn= 1.07D-03
 Coeff-Com:  0.612D-03-0.841D-03 0.237D-02-0.113D-01-0.453D-01 0.596D-01
 Coeff-Com:  0.319D+00-0.510D+00-0.253D+00 0.144D+01
 Coeff-En:   0.000D+00 0.000D+00 0.000D+00 0.000D+00 0.000D+00 0.000D+00
 Coeff-En:   0.000D+00 0.000D+00 0.000D+00 0.100D+01
 Coeff:      0.612D-03-0.840D-03 0.236D-02-0.112D-01-0.453D-01 0.596D-01
 Coeff:      0.319D+00-0.509D+00-0.253D+00 0.144D+01
 Gap=     0.391 Goal=   None    Shift=    0.000
 Gap=     0.338 Goal=   None    Shift=    0.000
 RMSDP=2.10D-05 MaxDP=1.33D-03 DE=-3.84D-05 OVMax= 3.66D-03

 Cycle  11  Pass 0  IDiag  1:
 RMSU=  4.95D-06    CP:  8.44D-01  3.00D+00  1.49D+00  1.07D+00  1.28D+00
                    CP:  3.00D+00  3.00D+00  3.00D+00  2.06D+00  1.62D+00
 E= -1590.15641601802     Delta-E=       -0.000004773937 Rises=F Damp=F
 DIIS: error= 2.20D-05 at cycle  11 NSaved=  11.
 NSaved=11 IEnMin=11 EnMin= -1590.15641601802     IErMin=11 ErrMin= 2.20D-05
 ErrMax= 2.20D-05  0.00D+00 EMaxC= 1.00D-01 BMatC= 1.52D-07 BMatP= 2.33D-06
 IDIUse=1 WtCom= 1.00D+00 WtEn= 0.00D+00
 Coeff-Com: -0.146D-03 0.198D-03-0.550D-03 0.394D-02 0.115D-01-0.260D-01
 Coeff-Com: -0.742D-01 0.163D+00-0.229D-01-0.416D+00 0.136D+01
 Coeff:     -0.146D-03 0.198D-03-0.550D-03 0.394D-02 0.115D-01-0.260D-01
 Coeff:     -0.742D-01 0.163D+00-0.229D-01-0.416D+00 0.136D+01
 Gap=     0.391 Goal=   None    Shift=    0.000
 Gap=     0.338 Goal=   None    Shift=    0.000
 RMSDP=3.43D-06 MaxDP=1.56D-04 DE=-4.77D-06 OVMax= 4.69D-04

 Initial convergence to 1.0D-05 achieved.  Increase integral accuracy.
 Cycle  12  Pass 1  IDiag  1:
 E= -1590.15641621727     Delta-E=       -0.000000199248 Rises=F Damp=F
 DIIS: error= 6.43D-06 at cycle   1 NSaved=   1.
 NSaved= 1 IEnMin= 1 EnMin= -1590.15641621727     IErMin= 1 ErrMin= 6.43D-06
 ErrMax= 6.43D-06  0.00D+00 EMaxC= 1.00D-01 BMatC= 2.40D-08 BMatP= 2.40D-08
 IDIUse=1 WtCom= 1.00D+00 WtEn= 0.00D+00
 Coeff-Com:  0.100D+01
 Coeff:      0.100D+01
 Gap=     0.391 Goal=   None    Shift=    0.000
 Gap=     0.338 Goal=   None    Shift=    0.000
 RMSDP=3.43D-06 MaxDP=1.56D-04 DE=-1.99D-07 OVMax= 6.39D-05

 Cycle  13  Pass 1  IDiag  1:
 RMSU=  6.41D-07    CP:  1.00D+00
 E= -1590.15641623723     Delta-E=       -0.000000019957 Rises=F Damp=F
 DIIS: error= 4.16D-06 at cycle   2 NSaved=   2.
 NSaved= 2 IEnMin= 2 EnMin= -1590.15641623723     IErMin= 2 ErrMin= 4.16D-06
 ErrMax= 4.16D-06  0.00D+00 EMaxC= 1.00D-01 BMatC= 9.93D-09 BMatP= 2.40D-08
 IDIUse=1 WtCom= 1.00D+00 WtEn= 0.00D+00
 Coeff-Com: -0.124D+01 0.224D+01
 Coeff:     -0.124D+01 0.224D+01
 Gap=     0.391 Goal=   None    Shift=    0.000
 Gap=     0.338 Goal=   None    Shift=    0.000
 RMSDP=9.17D-07 MaxDP=2.63D-05 DE=-2.00D-08 OVMax= 9.15D-05

 Cycle  14  Pass 1  IDiag  1:
 RMSU=  2.02D-07    CP:  1.00D+00  2.39D+00
 E= -1590.15641625138     Delta-E=       -0.000000014156 Rises=F Damp=F
 DIIS: error= 1.82D-06 at cycle   3 NSaved=   3.
 NSaved= 3 IEnMin= 3 EnMin= -1590.15641625138     IErMin= 3 ErrMin= 1.82D-06
 ErrMax= 1.82D-06  0.00D+00 EMaxC= 1.00D-01 BMatC= 1.22D-09 BMatP= 9.93D-09
 IDIUse=1 WtCom= 1.00D+00 WtEn= 0.00D+00
 Coeff-Com: -0.473D+00 0.579D+00 0.894D+00
 Coeff:     -0.473D+00 0.579D+00 0.894D+00
 Gap=     0.391 Goal=   None    Shift=    0.000
 Gap=     0.338 Goal=   None    Shift=    0.000
 RMSDP=2.42D-07 MaxDP=6.89D-06 DE=-1.42D-08 OVMax= 2.03D-05

 Cycle  15  Pass 1  IDiag  1:
 RMSU=  9.39D-08    CP:  1.00D+00  2.73D+00  1.28D+00
 E= -1590.15641625256     Delta-E=       -0.000000001178 Rises=F Damp=F
 DIIS: error= 7.66D-07 at cycle   4 NSaved=   4.
 NSaved= 4 IEnMin= 4 EnMin= -1590.15641625256     IErMin= 4 ErrMin= 7.66D-07
 ErrMax= 7.66D-07  0.00D+00 EMaxC= 1.00D-01 BMatC= 2.25D-10 BMatP= 1.22D-09
 IDIUse=1 WtCom= 1.00D+00 WtEn= 0.00D+00
 Coeff-Com:  0.220D+00-0.368D+00-0.117D+00 0.126D+01
 Coeff:      0.220D+00-0.368D+00-0.117D+00 0.126D+01
 Gap=     0.391 Goal=   None    Shift=    0.000
 Gap=     0.338 Goal=   None    Shift=    0.000
 RMSDP=1.11D-07 MaxDP=2.68D-06 DE=-1.18D-09 OVMax= 7.78D-06

 Cycle  16  Pass 1  IDiag  1:
 RMSU=  4.26D-08    CP:  1.00D+00  2.81D+00  1.66D+00  1.46D+00
 E= -1590.15641625284     Delta-E=       -0.000000000281 Rises=F Damp=F
 DIIS: error= 7.13D-07 at cycle   5 NSaved=   5.
 NSaved= 5 IEnMin= 5 EnMin= -1590.15641625284     IErMin= 5 ErrMin= 7.13D-07
 ErrMax= 7.13D-07  0.00D+00 EMaxC= 1.00D-01 BMatC= 6.51D-11 BMatP= 2.25D-10
 IDIUse=1 WtCom= 1.00D+00 WtEn= 0.00D+00
 Coeff-Com:  0.179D+00-0.239D+00-0.264D+00 0.192D+00 0.113D+01
 Coeff:      0.179D+00-0.239D+00-0.264D+00 0.192D+00 0.113D+01
 Gap=     0.391 Goal=   None    Shift=    0.000
 Gap=     0.338 Goal=   None    Shift=    0.000
 RMSDP=6.80D-08 MaxDP=3.02D-06 DE=-2.81D-10 OVMax= 7.35D-06

 Cycle  17  Pass 1  IDiag  1:
 RMSU=  2.47D-08    CP:  1.00D+00  2.85D+00  1.85D+00  1.86D+00  1.59D+00
 E= -1590.15641625294     Delta-E=       -0.000000000100 Rises=F Damp=F
 DIIS: error= 3.50D-07 at cycle   6 NSaved=   6.
 NSaved= 6 IEnMin= 6 EnMin= -1590.15641625294     IErMin= 6 ErrMin= 3.50D-07
 ErrMax= 3.50D-07  0.00D+00 EMaxC= 1.00D-01 BMatC= 1.78D-11 BMatP= 6.51D-11
 IDIUse=1 WtCom= 1.00D+00 WtEn= 0.00D+00
 Coeff-Com: -0.148D+00 0.213D+00 0.188D+00-0.459D+00-0.523D+00 0.173D+01
 Coeff:     -0.148D+00 0.213D+00 0.188D+00-0.459D+00-0.523D+00 0.173D+01
 Gap=     0.391 Goal=   None    Shift=    0.000
 Gap=     0.338 Goal=   None    Shift=    0.000
 RMSDP=4.98D-08 MaxDP=2.62D-06 DE=-1.00D-10 OVMax= 6.52D-06

 Cycle  18  Pass 1  IDiag  1:
 RMSU=  8.60D-09    CP:  1.00D+00  2.86D+00  1.94D+00  2.00D+00  2.35D+00
                    CP:  2.10D+00
 E= -1590.15641625299     Delta-E=       -0.000000000048 Rises=F Damp=F
 DIIS: error= 2.08D-07 at cycle   7 NSaved=   7.
 NSaved= 7 IEnMin= 7 EnMin= -1590.15641625299     IErMin= 7 ErrMin= 2.08D-07
 ErrMax= 2.08D-07  0.00D+00 EMaxC= 1.00D-01 BMatC= 3.92D-12 BMatP= 1.78D-11
 IDIUse=1 WtCom= 1.00D+00 WtEn= 0.00D+00
 Coeff-Com: -0.295D-03-0.712D-03-0.596D-02 0.640D-01 0.228D-01-0.777D+00
 Coeff-Com:  0.170D+01
 Coeff:     -0.295D-03-0.712D-03-0.596D-02 0.640D-01 0.228D-01-0.777D+00
 Coeff:      0.170D+01
 Gap=     0.391 Goal=   None    Shift=    0.000
 Gap=     0.338 Goal=   None    Shift=    0.000
 RMSDP=2.93D-08 MaxDP=1.72D-06 DE=-4.82D-11 OVMax= 4.54D-06

 Cycle  19  Pass 1  IDiag  1:
 RMSU=  3.01D-09    CP:  1.00D+00  2.87D+00  1.98D+00  2.07D+00  2.78D+00
                    CP:  2.74D+00  2.33D+00
 E= -1590.15641625299     Delta-E=        0.000000000000 Rises=F Damp=F
 DIIS: error= 8.58D-08 at cycle   8 NSaved=   8.
 NSaved= 8 IEnMin= 7 EnMin= -1590.15641625299     IErMin= 8 ErrMin= 8.58D-08
 ErrMax= 8.58D-08  0.00D+00 EMaxC= 1.00D-01 BMatC= 6.78D-13 BMatP= 3.92D-12
 IDIUse=1 WtCom= 1.00D+00 WtEn= 0.00D+00
 Coeff-Com:  0.210D-01-0.298D-01-0.202D-01 0.164D-01 0.836D-01 0.154D+00
 Coeff-Com: -0.951D+00 0.173D+01
 Coeff:      0.210D-01-0.298D-01-0.202D-01 0.164D-01 0.836D-01 0.154D+00
 Coeff:     -0.951D+00 0.173D+01
 Gap=     0.391 Goal=   None    Shift=    0.000
 Gap=     0.338 Goal=   None    Shift=    0.000
 RMSDP=1.11D-08 MaxDP=6.88D-07 DE= 4.55D-13 OVMax= 1.93D-06

 Cycle  20  Pass 1  IDiag  1:
 RMSU=  2.35D-09    CP:  1.00D+00  2.87D+00  2.00D+00  2.10D+00  2.90D+00
                    CP:  2.91D+00  3.00D+00  2.18D+00
 E= -1590.15641625299     Delta-E=       -0.000000000002 Rises=F Damp=F
 DIIS: error= 2.68D-08 at cycle   9 NSaved=   9.
 NSaved= 9 IEnMin= 9 EnMin= -1590.15641625299     IErMin= 9 ErrMin= 2.68D-08
 ErrMax= 2.68D-08  0.00D+00 EMaxC= 1.00D-01 BMatC= 1.50D-13 BMatP= 6.78D-13
 IDIUse=1 WtCom= 1.00D+00 WtEn= 0.00D+00
 Coeff-Com: -0.178D-02 0.260D-02 0.369D-02-0.168D-01-0.533D-03 0.108D+00
 Coeff-Com: -0.207D+00-0.135D+00 0.125D+01
 Coeff:     -0.178D-02 0.260D-02 0.369D-02-0.168D-01-0.533D-03 0.108D+00
 Coeff:     -0.207D+00-0.135D+00 0.125D+01
 Gap=     0.391 Goal=   None    Shift=    0.000
 Gap=     0.338 Goal=   None    Shift=    0.000
 RMSDP=3.73D-09 MaxDP=2.09D-07 DE=-1.59D-12 OVMax= 5.87D-07

 SCF Done:  E(UHF) =  -1590.15641625     A.U. after   20 cycles
            NFock= 20  Conv=0.37D-08     -V/T= 2.0001
 <Sx>= 0.0000 <Sy>= 0.0000 <Sz>= 1.0000 <S**2>= 2.0506 S= 1.0168
 <L.S>= 0.000000000000E+00
 KE= 1.590011695490D+03 PE=-4.403467474458D+03 EE= 9.145508795383D+02
 Annihilation of the first spin contaminant:
 S**2 before annihilation     2.0506,   after     2.0015
 Leave Link  502 at Mon Oct 24 10:04:42 2016, MaxMem=    33554432 cpu:       626.7
 (Enter /home/proyectos/fulerenos/M3C-v2.0/M3C-deps_CCC/g09-AM64L-G09RevC.01/l801.exe)
 Windowed orbitals will be sorted by symmetry type.
 ExpMin= 4.05D-02 ExpMax= 9.34D+04 ExpMxC= 3.17D+03 IAcc=3 IRadAn=         5 AccDes= 0.00D+00
 HarFok:  IExCor=  205 AccDes= 0.00D+00 IRadAn=         5 IDoV=-2 UseB2=F ITyADJ=14
 ICtDFT= 12500011 ScaDFX=  1.000000  1.000000  1.000000  1.000000
 Largest valence mixing into a core orbital is  4.96D-04
 Largest core mixing into a valence orbital is  2.33D-04
 Largest valence mixing into a core orbital is  5.02D-04
 Largest core mixing into a valence orbital is  2.44D-04
 Range of M.O.s used for correlation:    21   188
 NBasis=   188 NAE=    33 NBE=    31 NFC=    20 NFV=     0
 NROrb=    168 NOA=    13 NOB=    11 NVA=   155 NVB=   157

 **** Warning!!: The largest alpha MO coefficient is  0.27985895D+02


 **** Warning!!: The largest beta MO coefficient is  0.27920469D+02

 Leave Link  801 at Mon Oct 24 10:04:42 2016, MaxMem=    33554432 cpu:         0.6
 (Enter /home/proyectos/fulerenos/M3C-v2.0/M3C-deps_CCC/g09-AM64L-G09RevC.01/l804.exe)
 Open-shell transformation, MDV=    33554432 ITran=4 ISComp=2.
 Semi-Direct transformation.
 ModeAB=           4 MOrb=            13 LenV=      32565885
 LASXX=     14793123 LTotXX=    14793123 LenRXX=    29967835
 LTotAB=    15174712 MaxLAS=    46827144 LenRXY=           0
 NonZer=    44760958 LenScr=    67899392 LnRSAI=    46827144
 LnScr1=    71786496 LExtra=           0 Total=    216480867
 MaxDsk=          -1 SrtSym=           T ITran=            4
 DoSDTr:  NPSUse=  4
 JobTyp=1 Pass  1:  I=   1 to  13.
 Complete sort for first half transformation.
 First half transformation complete.
 Begin second half transformation for I=  10.
 Complete sort for second half transformation.
 Second half transformation complete.
 ModeAB=           4 MOrb=            11 LenV=      32565885
 LASXX=     12715982 LTotXX=    12715982 LenRXX=    23811664
 LTotAB=    11095682 MaxLAS=    39622968 LenRXY=           0
 NonZer=    36527646 LenScr=    55554048 LnRSAI=    39622968
 LnScr1=    60982272 LExtra=           0 Total=    179970952
 MaxDsk=          -1 SrtSym=           T ITran=            4
 DoSDTr:  NPSUse=  4
 JobTyp=2 Pass  1:  I=   1 to  11.
 Complete sort for first half transformation.
 First half transformation complete.
 Begin second half transformation for I=  10.
 Complete sort for second half transformation.
 Second half transformation complete.
 Spin components of T(2) and E(2):
     alpha-alpha T2 =       0.4154523630D-01 E2=     -0.8942161066D-01
     alpha-beta  T2 =       0.2100134931D+00 E2=     -0.4751837629D+00
     beta-beta   T2 =       0.4002544082D-01 E2=     -0.7639367971D-01
 ANorm=    0.1136478847D+01
 E2 =    -0.6409990532D+00 EUMP2 =    -0.15907974153062D+04
 (S**2,0)=  0.20506D+01           (S**2,1)=  0.20135D+01
 E(PUHF)=      -0.15901638994D+04        E(PMP2)=      -0.15908022115D+04
 Leave Link  804 at Mon Oct 24 10:07:44 2016, MaxMem=    33554432 cpu:       592.3
 (Enter /home/proyectos/fulerenos/M3C-v2.0/M3C-deps_CCC/g09-AM64L-G09RevC.01/l913.exe)
 CIDS:  MDV=    33554432.
 Frozen-core window:  NFC=  20 NFV=   0.
 IFCWin=0 IBDFC=1 NFBD=     0     0 NFCmp=     0     0 NFFFC=     0     0
 Using original routines for 1st iteration, S=T.
 Using DD4UQ or CC4UQ for 2nd and later iterations.
 Would need an additional       207577240 words for in-memory AO integral storage.
 CCSD(T)
 =======
 Iterations=  50 Convergence= 0.100D-06
 Iteration Nr.   1
 **********************
 DD1Dir will call FoFJK   6 times, MxPair=        70
 NAB=   143 NAA=    78 NBB=    55 NumPrc=  4.
 DD1Dir:  Pass   1 NRAB=    35 NRAA=     0 NRBB=     0 NR=    70.
 FoFJK:  IHMeth= 1 ICntrl=     200 DoSepK=F KAlg= 0 I1Cent=   0 FoldK=F
 IRaf= 990000000 NMat=  70 IRICut=      87 DoRegI=T DoRafI=T ISym2E=-1.
 FoFCou: FMM=F IPFlag=           0 FMFlag=      100000 FMFlg1=           0
         NFxFlg=           0 DoJE=F BraDBF=F KetDBF=F FulRan=T
         wScrn=  0.000000 ICntrl=     200 IOpCl=  0 I1Cent=           0 NGrid=           0
         NMat0=   70 NMatS0=      0 NMatT0=   35 NMatD0=   70 NMtDS0=    0 NMtDT0=    0
 Petite list used in FoFCou.
 DD1Dir:  Pass   2 NRAB=    35 NRAA=     0 NRBB=     0 NR=    70.
 DD1Dir:  Pass   3 NRAB=    35 NRAA=     0 NRBB=     0 NR=    70.
 DD1Dir:  Pass   4 NRAB=    35 NRAA=     0 NRBB=     0 NR=    70.
 DD1Dir:  Pass   5 NRAB=     3 NRAA=    64 NRBB=     0 NR=    70.
 DD1Dir:  Pass   6 NRAB=     0 NRAA=    14 NRBB=    55 NR=    69.
 E(PMP3)=      -0.15908498599D+04
 MP4(R+Q)=  0.24828966D-01
 Maximum subspace dimension=  5
 Norm of the A-vectors is  1.3011062D+00 conv= 1.00D-05.
 RLE energy=       -0.6672404014
 E3=       -0.49919287D-01        EUMP3=      -0.15908473346D+04
 E4(DQ)=    0.44643651D-02        UMP4(DQ)=   -0.15908428702D+04
 E4(SDQ)=  -0.40801801D-02        UMP4(SDQ)=  -0.15908514148D+04
 VARIATIONAL ENERGIES WITH THE FIRST-ORDER WAVEFUNCTION:
 DE(Corr)= -0.66620840     E(Corr)=     -1590.8226247    
 NORM(A)=   0.11517020D+01
 Iteration Nr.   2
 **********************
 DD1Dir will call FoFJK   6 times, MxPair=        70
 NAB=   143 NAA=    78 NBB=    55 NumPrc=  4.
 DD1Dir:  Pass   1 NRAB=    35 NRAA=     0 NRBB=     0 NR=    70.
 DD1Dir:  Pass   2 NRAB=    35 NRAA=     0 NRBB=     0 NR=    70.
 DD1Dir:  Pass   3 NRAB=    35 NRAA=     0 NRBB=     0 NR=    70.
 DD1Dir:  Pass   4 NRAB=    35 NRAA=     0 NRBB=     0 NR=    70.
 DD1Dir:  Pass   5 NRAB=     3 NRAA=    64 NRBB=     0 NR=    70.
 DD1Dir:  Pass   6 NRAB=     0 NRAA=    14 NRBB=    55 NR=    69.
 Norm of the A-vectors is  5.4291529D-01 conv= 1.00D-05.
 RLE energy=       -0.6927589353
 DE(Corr)= -0.68937082     E(CORR)=     -1590.8457871     Delta=-2.32D-02
 NORM(A)=   0.11680088D+01
 Iteration Nr.   3
 **********************
 DD1Dir will call FoFJK   6 times, MxPair=        70
 NAB=   143 NAA=    78 NBB=    55 NumPrc=  4.
 DD1Dir:  Pass   1 NRAB=    35 NRAA=     0 NRBB=     0 NR=    70.
 DD1Dir:  Pass   2 NRAB=    35 NRAA=     0 NRBB=     0 NR=    70.
 DD1Dir:  Pass   3 NRAB=    35 NRAA=     0 NRBB=     0 NR=    70.
 DD1Dir:  Pass   4 NRAB=    35 NRAA=     0 NRBB=     0 NR=    70.
 DD1Dir:  Pass   5 NRAB=     3 NRAA=    64 NRBB=     0 NR=    70.
 DD1Dir:  Pass   6 NRAB=     0 NRAA=    14 NRBB=    55 NR=    69.
 Norm of the A-vectors is  1.4857013D-01 conv= 1.00D-05.
 RLE energy=       -0.6944168093
 DE(Corr)= -0.69163011     E(CORR)=     -1590.8480464     Delta=-2.26D-03
 NORM(A)=   0.11748473D+01
 Iteration Nr.   4
 **********************
 DD1Dir will call FoFJK   6 times, MxPair=        70
 NAB=   143 NAA=    78 NBB=    55 NumPrc=  4.
 DD1Dir:  Pass   1 NRAB=    35 NRAA=     0 NRBB=     0 NR=    70.
 DD1Dir:  Pass   2 NRAB=    35 NRAA=     0 NRBB=     0 NR=    70.
 DD1Dir:  Pass   3 NRAB=    35 NRAA=     0 NRBB=     0 NR=    70.
 DD1Dir:  Pass   4 NRAB=    35 NRAA=     0 NRBB=     0 NR=    70.
 DD1Dir:  Pass   5 NRAB=     3 NRAA=    64 NRBB=     0 NR=    70.
 DD1Dir:  Pass   6 NRAB=     0 NRAA=    14 NRBB=    55 NR=    69.
 Norm of the A-vectors is  1.0913738D-01 conv= 1.00D-05.
 RLE energy=       -0.6953498441
 DE(Corr)= -0.69462841     E(CORR)=     -1590.8510447     Delta=-3.00D-03
 NORM(A)=   0.11804171D+01
 Iteration Nr.   5
 **********************
 DD1Dir will call FoFJK   6 times, MxPair=        70
 NAB=   143 NAA=    78 NBB=    55 NumPrc=  4.
 DD1Dir:  Pass   1 NRAB=    35 NRAA=     0 NRBB=     0 NR=    70.
 DD1Dir:  Pass   2 NRAB=    35 NRAA=     0 NRBB=     0 NR=    70.
 DD1Dir:  Pass   3 NRAB=    35 NRAA=     0 NRBB=     0 NR=    70.
 DD1Dir:  Pass   4 NRAB=    35 NRAA=     0 NRBB=     0 NR=    70.
 DD1Dir:  Pass   5 NRAB=     3 NRAA=    64 NRBB=     0 NR=    70.
 DD1Dir:  Pass   6 NRAB=     0 NRAA=    14 NRBB=    55 NR=    69.
 Norm of the A-vectors is  4.8427599D-02 conv= 1.00D-05.
 RLE energy=       -0.6959512004
 DE(Corr)= -0.69550598     E(CORR)=     -1590.8519222     Delta=-8.78D-04
 NORM(A)=   0.11839278D+01
 Iteration Nr.   6
 **********************
 DD1Dir will call FoFJK   6 times, MxPair=        70
 NAB=   143 NAA=    78 NBB=    55 NumPrc=  4.
 DD1Dir:  Pass   1 NRAB=    35 NRAA=     0 NRBB=     0 NR=    70.
 DD1Dir:  Pass   2 NRAB=    35 NRAA=     0 NRBB=     0 NR=    70.
 DD1Dir:  Pass   3 NRAB=    35 NRAA=     0 NRBB=     0 NR=    70.
 DD1Dir:  Pass   4 NRAB=    35 NRAA=     0 NRBB=     0 NR=    70.
 DD1Dir:  Pass   5 NRAB=     3 NRAA=    64 NRBB=     0 NR=    70.
 DD1Dir:  Pass   6 NRAB=     0 NRAA=    14 NRBB=    55 NR=    69.
 Norm of the A-vectors is  2.5476309D-02 conv= 1.00D-05.
 RLE energy=       -0.6957686084
 DE(Corr)= -0.69581141     E(CORR)=     -1590.8522277     Delta=-3.05D-04
 NORM(A)=   0.11847718D+01
 Iteration Nr.   7
 **********************
 DD1Dir will call FoFJK   6 times, MxPair=        70
 NAB=   143 NAA=    78 NBB=    55 NumPrc=  4.
 DD1Dir:  Pass   1 NRAB=    35 NRAA=     0 NRBB=     0 NR=    70.
 DD1Dir:  Pass   2 NRAB=    35 NRAA=     0 NRBB=     0 NR=    70.
 DD1Dir:  Pass   3 NRAB=    35 NRAA=     0 NRBB=     0 NR=    70.
 DD1Dir:  Pass   4 NRAB=    35 NRAA=     0 NRBB=     0 NR=    70.
 DD1Dir:  Pass   5 NRAB=     3 NRAA=    64 NRBB=     0 NR=    70.
 DD1Dir:  Pass   6 NRAB=     0 NRAA=    14 NRBB=    55 NR=    69.
 Norm of the A-vectors is  9.8622477D-03 conv= 1.00D-05.
 RLE energy=       -0.6958423315
 DE(Corr)= -0.69587199     E(CORR)=     -1590.8522882     Delta=-6.06D-05
 NORM(A)=   0.11849125D+01
 Iteration Nr.   8
 **********************
 DD1Dir will call FoFJK   6 times, MxPair=        70
 NAB=   143 NAA=    78 NBB=    55 NumPrc=  4.
 DD1Dir:  Pass   1 NRAB=    35 NRAA=     0 NRBB=     0 NR=    70.
 DD1Dir:  Pass   2 NRAB=    35 NRAA=     0 NRBB=     0 NR=    70.
 DD1Dir:  Pass   3 NRAB=    35 NRAA=     0 NRBB=     0 NR=    70.
 DD1Dir:  Pass   4 NRAB=    35 NRAA=     0 NRBB=     0 NR=    70.
 DD1Dir:  Pass   5 NRAB=     3 NRAA=    64 NRBB=     0 NR=    70.
 DD1Dir:  Pass   6 NRAB=     0 NRAA=    14 NRBB=    55 NR=    69.
 Norm of the A-vectors is  4.3645224D-03 conv= 1.00D-05.
 RLE energy=       -0.6958556223
 DE(Corr)= -0.69585905     E(CORR)=     -1590.8522753     Delta= 1.29D-05
 NORM(A)=   0.11849523D+01
 Iteration Nr.   9
 **********************
 DD1Dir will call FoFJK   6 times, MxPair=        70
 NAB=   143 NAA=    78 NBB=    55 NumPrc=  4.
 DD1Dir:  Pass   1 NRAB=    35 NRAA=     0 NRBB=     0 NR=    70.
 DD1Dir:  Pass   2 NRAB=    35 NRAA=     0 NRBB=     0 NR=    70.
 DD1Dir:  Pass   3 NRAB=    35 NRAA=     0 NRBB=     0 NR=    70.
 DD1Dir:  Pass   4 NRAB=    35 NRAA=     0 NRBB=     0 NR=    70.
 DD1Dir:  Pass   5 NRAB=     3 NRAA=    64 NRBB=     0 NR=    70.
 DD1Dir:  Pass   6 NRAB=     0 NRAA=    14 NRBB=    55 NR=    69.
 Norm of the A-vectors is  1.8565074D-03 conv= 1.00D-05.
 RLE energy=       -0.6958732972
 DE(Corr)= -0.69587389     E(CORR)=     -1590.8522901     Delta=-1.48D-05
 NORM(A)=   0.11849485D+01
 Iteration Nr.  10
 **********************
 DD1Dir will call FoFJK   6 times, MxPair=        70
 NAB=   143 NAA=    78 NBB=    55 NumPrc=  4.
 DD1Dir:  Pass   1 NRAB=    35 NRAA=     0 NRBB=     0 NR=    70.
 DD1Dir:  Pass   2 NRAB=    35 NRAA=     0 NRBB=     0 NR=    70.
 DD1Dir:  Pass   3 NRAB=    35 NRAA=     0 NRBB=     0 NR=    70.
 DD1Dir:  Pass   4 NRAB=    35 NRAA=     0 NRBB=     0 NR=    70.
 DD1Dir:  Pass   5 NRAB=     3 NRAA=    64 NRBB=     0 NR=    70.
 DD1Dir:  Pass   6 NRAB=     0 NRAA=    14 NRBB=    55 NR=    69.
 Norm of the A-vectors is  1.0398061D-03 conv= 1.00D-05.
 RLE energy=       -0.6958744373
 DE(Corr)= -0.69587194     E(CORR)=     -1590.8522882     Delta= 1.95D-06
 NORM(A)=   0.11849543D+01
 Iteration Nr.  11
 **********************
 DD1Dir will call FoFJK   6 times, MxPair=        70
 NAB=   143 NAA=    78 NBB=    55 NumPrc=  4.
 DD1Dir:  Pass   1 NRAB=    35 NRAA=     0 NRBB=     0 NR=    70.
 DD1Dir:  Pass   2 NRAB=    35 NRAA=     0 NRBB=     0 NR=    70.
 DD1Dir:  Pass   3 NRAB=    35 NRAA=     0 NRBB=     0 NR=    70.
 DD1Dir:  Pass   4 NRAB=    35 NRAA=     0 NRBB=     0 NR=    70.
 DD1Dir:  Pass   5 NRAB=     3 NRAA=    64 NRBB=     0 NR=    70.
 DD1Dir:  Pass   6 NRAB=     0 NRAA=    14 NRBB=    55 NR=    69.
 Norm of the A-vectors is  4.0860126D-04 conv= 1.00D-05.
 RLE energy=       -0.6958767547
 DE(Corr)= -0.69587587     E(CORR)=     -1590.8522921     Delta=-3.93D-06
 NORM(A)=   0.11849584D+01
 Iteration Nr.  12
 **********************
 DD1Dir will call FoFJK   6 times, MxPair=        70
 NAB=   143 NAA=    78 NBB=    55 NumPrc=  4.
 DD1Dir:  Pass   1 NRAB=    35 NRAA=     0 NRBB=     0 NR=    70.
 DD1Dir:  Pass   2 NRAB=    35 NRAA=     0 NRBB=     0 NR=    70.
 DD1Dir:  Pass   3 NRAB=    35 NRAA=     0 NRBB=     0 NR=    70.
 DD1Dir:  Pass   4 NRAB=    35 NRAA=     0 NRBB=     0 NR=    70.
 DD1Dir:  Pass   5 NRAB=     3 NRAA=    64 NRBB=     0 NR=    70.
 DD1Dir:  Pass   6 NRAB=     0 NRAA=    14 NRBB=    55 NR=    69.
 Norm of the A-vectors is  2.4049341D-04 conv= 1.00D-05.
 RLE energy=       -0.6958774654
 DE(Corr)= -0.69587657     E(CORR)=     -1590.8522928     Delta=-6.96D-07
 NORM(A)=   0.11849643D+01
 Iteration Nr.  13
 **********************
 DD1Dir will call FoFJK   6 times, MxPair=        70
 NAB=   143 NAA=    78 NBB=    55 NumPrc=  4.
 DD1Dir:  Pass   1 NRAB=    35 NRAA=     0 NRBB=     0 NR=    70.
 DD1Dir:  Pass   2 NRAB=    35 NRAA=     0 NRBB=     0 NR=    70.
 DD1Dir:  Pass   3 NRAB=    35 NRAA=     0 NRBB=     0 NR=    70.
 DD1Dir:  Pass   4 NRAB=    35 NRAA=     0 NRBB=     0 NR=    70.
 DD1Dir:  Pass   5 NRAB=     3 NRAA=    64 NRBB=     0 NR=    70.
 DD1Dir:  Pass   6 NRAB=     0 NRAA=    14 NRBB=    55 NR=    69.
 Norm of the A-vectors is  1.4300093D-04 conv= 1.00D-05.
 RLE energy=       -0.6958782017
 DE(Corr)= -0.69587764     E(CORR)=     -1590.8522939     Delta=-1.08D-06
 NORM(A)=   0.11849697D+01
 Iteration Nr.  14
 **********************
 DD1Dir will call FoFJK   6 times, MxPair=        70
 NAB=   143 NAA=    78 NBB=    55 NumPrc=  4.
 DD1Dir:  Pass   1 NRAB=    35 NRAA=     0 NRBB=     0 NR=    70.
 DD1Dir:  Pass   2 NRAB=    35 NRAA=     0 NRBB=     0 NR=    70.
 DD1Dir:  Pass   3 NRAB=    35 NRAA=     0 NRBB=     0 NR=    70.
 DD1Dir:  Pass   4 NRAB=    35 NRAA=     0 NRBB=     0 NR=    70.
 DD1Dir:  Pass   5 NRAB=     3 NRAA=    64 NRBB=     0 NR=    70.
 DD1Dir:  Pass   6 NRAB=     0 NRAA=    14 NRBB=    55 NR=    69.
 Norm of the A-vectors is  8.0179428D-05 conv= 1.00D-05.
 RLE energy=       -0.6958786104
 DE(Corr)= -0.69587823     E(CORR)=     -1590.8522945     Delta=-5.87D-07
 NORM(A)=   0.11849739D+01
 Iteration Nr.  15
 **********************
 DD1Dir will call FoFJK   6 times, MxPair=        70
 NAB=   143 NAA=    78 NBB=    55 NumPrc=  4.
 DD1Dir:  Pass   1 NRAB=    35 NRAA=     0 NRBB=     0 NR=    70.
 DD1Dir:  Pass   2 NRAB=    35 NRAA=     0 NRBB=     0 NR=    70.
 DD1Dir:  Pass   3 NRAB=    35 NRAA=     0 NRBB=     0 NR=    70.
 DD1Dir:  Pass   4 NRAB=    35 NRAA=     0 NRBB=     0 NR=    70.
 DD1Dir:  Pass   5 NRAB=     3 NRAA=    64 NRBB=     0 NR=    70.
 DD1Dir:  Pass   6 NRAB=     0 NRAA=    14 NRBB=    55 NR=    69.
 Norm of the A-vectors is  5.2060813D-05 conv= 1.00D-05.
 RLE energy=       -0.6958789408
 DE(Corr)= -0.69587870     E(CORR)=     -1590.8522950     Delta=-4.74D-07
 NORM(A)=   0.11849767D+01
 Iteration Nr.  16
 **********************
 DD1Dir will call FoFJK   6 times, MxPair=        70
 NAB=   143 NAA=    78 NBB=    55 NumPrc=  4.
 DD1Dir:  Pass   1 NRAB=    35 NRAA=     0 NRBB=     0 NR=    70.
 DD1Dir:  Pass   2 NRAB=    35 NRAA=     0 NRBB=     0 NR=    70.
 DD1Dir:  Pass   3 NRAB=    35 NRAA=     0 NRBB=     0 NR=    70.
 DD1Dir:  Pass   4 NRAB=    35 NRAA=     0 NRBB=     0 NR=    70.
 DD1Dir:  Pass   5 NRAB=     3 NRAA=    64 NRBB=     0 NR=    70.
 DD1Dir:  Pass   6 NRAB=     0 NRAA=    14 NRBB=    55 NR=    69.
 Norm of the A-vectors is  3.4069419D-05 conv= 1.00D-05.
 RLE energy=       -0.6958790845
 DE(Corr)= -0.69587899     E(CORR)=     -1590.8522952     Delta=-2.85D-07
 NORM(A)=   0.11849776D+01
 Iteration Nr.  17
 **********************
 DD1Dir will call FoFJK   6 times, MxPair=        70
 NAB=   143 NAA=    78 NBB=    55 NumPrc=  4.
 DD1Dir:  Pass   1 NRAB=    35 NRAA=     0 NRBB=     0 NR=    70.
 DD1Dir:  Pass   2 NRAB=    35 NRAA=     0 NRBB=     0 NR=    70.
 DD1Dir:  Pass   3 NRAB=    35 NRAA=     0 NRBB=     0 NR=    70.
 DD1Dir:  Pass   4 NRAB=    35 NRAA=     0 NRBB=     0 NR=    70.
 DD1Dir:  Pass   5 NRAB=     3 NRAA=    64 NRBB=     0 NR=    70.
 DD1Dir:  Pass   6 NRAB=     0 NRAA=    14 NRBB=    55 NR=    69.
 Norm of the A-vectors is  1.6647909D-05 conv= 1.00D-05.
 RLE energy=       -0.6958790782
 DE(Corr)= -0.69587906     E(CORR)=     -1590.8522953     Delta=-7.28D-08
 NORM(A)=   0.11849779D+01
 Iteration Nr.  18
 **********************
 DD1Dir will call FoFJK   6 times, MxPair=        70
 NAB=   143 NAA=    78 NBB=    55 NumPrc=  4.
 DD1Dir:  Pass   1 NRAB=    35 NRAA=     0 NRBB=     0 NR=    70.
 DD1Dir:  Pass   2 NRAB=    35 NRAA=     0 NRBB=     0 NR=    70.
 DD1Dir:  Pass   3 NRAB=    35 NRAA=     0 NRBB=     0 NR=    70.
 DD1Dir:  Pass   4 NRAB=    35 NRAA=     0 NRBB=     0 NR=    70.
 DD1Dir:  Pass   5 NRAB=     3 NRAA=    64 NRBB=     0 NR=    70.
 DD1Dir:  Pass   6 NRAB=     0 NRAA=    14 NRBB=    55 NR=    69.
 Norm of the A-vectors is  7.8345409D-06 conv= 1.00D-05.
 RLE energy=       -0.6958791200
 DE(Corr)= -0.69587912     E(CORR)=     -1590.8522954     Delta=-5.43D-08
 NORM(A)=   0.11849780D+01
 CI/CC converged in   18 iterations to DelEn=-5.43D-08 Conv= 1.00D-07 ErrA1= 7.83D-06 Conv= 1.00D-05
 Dominant configurations:
 ***********************
 Spin Case        I    J    A    B          Value
    BB           30        33           -0.122668D+00
 Largest amplitude= 1.23D-01
 Time for triples=     5120.19 seconds.
 T4(CCSD)= -0.44544460D-01
 T5(CCSD)=  0.17543291D-02
 CCSD(T)= -0.15908950855D+04

 S**2, projected HF & approx projected MPn energies after annihilation of
 unwanted spin states (see manual for definitions):

 spins       (S**2,0) (S**2,1)    PUHF        PMP2        PMP3        PMP4
 annihilated
 s+1         1.99899  2.00048-1590.163899-1590.802211-1590.849860
 s+1,s+2     2.00001  1.99999-1590.163778-1590.802103-1590.849765
 s+1 to s+3  2.00000  2.00000-1590.163779-1590.802103-1590.849764
 s+1 to s+4  2.00000  2.00000-1590.163779-1590.802103-1590.849764
 s+1 to s+5  2.00000  2.00000-1590.163779
 s+1 to s+6  2.00000  2.00000-1590.163779

 Discarding MO integrals.
 Leave Link  913 at Mon Oct 24 14:05:08 2016, MaxMem=    33554432 cpu:     44184.5
 (Enter /home/proyectos/fulerenos/M3C-v2.0/M3C-deps_CCC/g09-AM64L-G09RevC.01/l601.exe)
 Copying SCF densities to generalized density rwf, IOpCl= 1 IROHF=0.

 **********************************************************************

            Population analysis using the SCF density.

 **********************************************************************

 Orbital symmetries:
 Alpha Orbitals:
       Occupied  (A') (A') (A') (A') (A') (A') (A') (A') (A") (A")
                 (A') (A') (A') (A') (A") (A") (A') (A') (A') (A')
                 (A') (A') (A') (A') (A') (A") (A') (A") (A') (A')
                 (A") (A') (A")
       Virtual   (A') (A') (A') (A') (A') (A") (A") (A') (A") (A')
                 (A') (A') (A") (A') (A') (A') (A') (A') (A') (A")
                 (A") (A') (A') (A') (A") (A') (A") (A') (A') (A')
                 (A') (A') (A") (A') (A") (A") (A") (A') (A") (A')
                 (A') (A') (A") (A') (A") (A") (A') (A') (A') (A')
                 (A') (A') (A') (A') (A') (A") (A') (A") (A') (A')
                 (A") (A') (A") (A') (A") (A') (A") (A") (A') (A')
                 (A") (A') (A') (A') (A') (A') (A") (A") (A") (A')
                 (A') (A") (A") (A') (A") (A') (A') (A") (A') (A")
                 (A") (A") (A') (A") (A') (A') (A') (A') (A") (A')
                 (A') (A') (A') (A") (A") (A') (A') (A') (A") (A")
                 (A') (A') (A') (A') (A') (A') (A") (A') (A") (A")
                 (A') (A') (A") (A') (A') (A") (A") (A') (A") (A')
                 (A') (A") (A') (A') (A') (A') (A') (A') (A') (A")
                 (A") (A") (A') (A") (A') (A') (A') (A') (A') (A')
                 (A') (A') (A') (A') (A')
 Beta  Orbitals:
       Occupied  (A') (A') (A') (A') (A') (A') (A') (A') (A') (A')
                 (A') (A') (A") (A") (A') (A') (A') (A') (A") (A")
                 (A') (A') (A') (A') (A') (A') (A') (A") (A') (A")
                 (A')
       Virtual   (A") (A") (A') (A') (A') (A') (A') (A") (A') (A")
                 (A") (A') (A') (A') (A") (A') (A') (A') (A') (A')
                 (A') (A") (A') (A") (A') (A') (A') (A") (A') (A")
                 (A') (A') (A') (A') (A') (A") (A") (A") (A') (A")
                 (A") (A') (A') (A') (A") (A') (A") (A') (A") (A')
                 (A') (A') (A') (A') (A') (A') (A') (A") (A') (A')
                 (A") (A') (A') (A") (A') (A") (A") (A") (A') (A')
                 (A") (A') (A') (A") (A') (A') (A') (A') (A") (A")
                 (A") (A') (A') (A') (A") (A") (A') (A') (A") (A')
                 (A") (A') (A") (A") (A") (A') (A') (A") (A') (A')
                 (A') (A') (A") (A') (A') (A") (A") (A') (A') (A')
                 (A") (A") (A') (A') (A') (A') (A') (A') (A") (A')
                 (A") (A') (A") (A') (A") (A') (A") (A') (A") (A')
                 (A') (A") (A') (A") (A') (A') (A') (A') (A') (A')
                 (A') (A") (A") (A') (A') (A") (A") (A') (A') (A')
                 (A') (A') (A') (A') (A') (A') (A')
 The electronic state is 3-A'.
 Alpha  occ. eigenvalues --  -92.04368 -92.04367 -92.00997 -92.00996  -9.04073
 Alpha  occ. eigenvalues --   -9.04064  -9.01028  -9.01027  -6.72534  -6.72533
 Alpha  occ. eigenvalues --   -6.72079  -6.72067  -6.71941  -6.71935  -6.70377
 Alpha  occ. eigenvalues --   -6.70377  -6.68899  -6.68898  -6.68725  -6.68724
 Alpha  occ. eigenvalues --   -1.13190  -1.07967  -0.90002  -0.81595  -0.57277
 Alpha  occ. eigenvalues --   -0.56327  -0.54910  -0.52256  -0.49210  -0.43318
 Alpha  occ. eigenvalues --   -0.41052  -0.36385  -0.35750
 Alpha virt. eigenvalues --    0.03312   0.05592   0.07186   0.07879   0.08359
 Alpha virt. eigenvalues --    0.08569   0.10716   0.10726   0.11893   0.13124
 Alpha virt. eigenvalues --    0.13308   0.13590   0.14064   0.14346   0.14866
 Alpha virt. eigenvalues --    0.18784   0.18821   0.21488   0.22991   0.25990
 Alpha virt. eigenvalues --    0.27990   0.29014   0.32540   0.34012   0.34256
 Alpha virt. eigenvalues --    0.34296   0.36008   0.37044   0.39359   0.39926
 Alpha virt. eigenvalues --    0.41072   0.41321   0.41390   0.41536   0.42165
 Alpha virt. eigenvalues --    0.42600   0.45107   0.46303   0.46836   0.53137
 Alpha virt. eigenvalues --    0.55093   0.55124   0.59995   0.62934   0.63089
 Alpha virt. eigenvalues --    0.64606   0.65534   0.69219   0.69860   0.72855
 Alpha virt. eigenvalues --    0.80246   0.83192   1.01290   1.09335   1.11911
 Alpha virt. eigenvalues --    1.12701   1.16551   1.17653   1.17989   1.21992
 Alpha virt. eigenvalues --    1.22778   1.22793   1.24085   1.25777   1.27295
 Alpha virt. eigenvalues --    1.28035   1.29310   1.31783   1.32214   1.34415
 Alpha virt. eigenvalues --    1.35865   1.36031   1.40728   1.42097   1.50447
 Alpha virt. eigenvalues --    1.64802   1.64957   1.66705   1.78585   1.79414
 Alpha virt. eigenvalues --    1.83894   1.84031   1.84250   1.84963   1.87414
 Alpha virt. eigenvalues --    1.88164   1.88289   1.88374   1.89614   1.90744
 Alpha virt. eigenvalues --    1.91371   1.92792   1.93403   1.94686   1.95840
 Alpha virt. eigenvalues --    1.96229   2.00571   2.00795   2.09052   2.09457
 Alpha virt. eigenvalues --    2.10402   2.15598   2.16200   2.21472   2.36835
 Alpha virt. eigenvalues --    2.38779   2.52234   2.53064   2.56164   2.58977
 Alpha virt. eigenvalues --    2.61583   2.65636   2.74811   2.77609   2.87569
 Alpha virt. eigenvalues --    4.96791   4.97972   4.98886   5.00445   5.02379
 Alpha virt. eigenvalues --    5.02550   5.04414   5.05233   5.06133   5.07579
 Alpha virt. eigenvalues --    5.07778   5.08777   5.12436   5.22825   5.23151
 Alpha virt. eigenvalues --    5.24692   5.24697   5.37389   5.94205   5.96058
 Alpha virt. eigenvalues --    8.27036   8.47104   8.60871   8.61238  18.29902
 Alpha virt. eigenvalues --   18.32508  18.36880  18.37347  18.37642  18.37849
 Alpha virt. eigenvalues --   18.43030  18.55394  18.58844  18.64354  18.75614
 Alpha virt. eigenvalues --   18.79791 192.11001 192.34225 192.43684 192.44913
  Beta  occ. eigenvalues --  -92.04046 -92.04045 -92.00140 -92.00139  -9.03751
  Beta  occ. eigenvalues --   -9.03742  -9.00178  -9.00177  -6.71932  -6.71924
  Beta  occ. eigenvalues --   -6.71864  -6.71854  -6.71133  -6.71132  -6.68477
  Beta  occ. eigenvalues --   -6.68477  -6.68237  -6.68236  -6.66813  -6.66812
  Beta  occ. eigenvalues --   -1.10344  -1.04145  -0.82870  -0.75233  -0.55986
  Beta  occ. eigenvalues --   -0.53188  -0.47976  -0.47175  -0.41574  -0.39678
  Beta  occ. eigenvalues --   -0.34877
  Beta virt. eigenvalues --   -0.01099   0.00681   0.03984   0.05991   0.07301
  Beta virt. eigenvalues --    0.08130   0.08362   0.09066   0.10786   0.11601
  Beta virt. eigenvalues --    0.12690   0.13242   0.13464   0.14360   0.14712
  Beta virt. eigenvalues --    0.15014   0.15269   0.18994   0.19080   0.21976
  Beta virt. eigenvalues --    0.23162   0.27932   0.28987   0.31418   0.34262
  Beta virt. eigenvalues --    0.34382   0.34779   0.36747   0.37946   0.39875
  Beta virt. eigenvalues --    0.39881   0.41051   0.41292   0.43614   0.44578
  Beta virt. eigenvalues --    0.44999   0.46284   0.46604   0.46702   0.47063
  Beta virt. eigenvalues --    0.50584   0.53789   0.55745   0.56364   0.61243
  Beta virt. eigenvalues --    0.63651   0.65532   0.66530   0.67316   0.69609
  Beta virt. eigenvalues --    0.70594   0.73255   0.81019   0.83923   1.02827
  Beta virt. eigenvalues --    1.10416   1.12359   1.15082   1.18071   1.18677
  Beta virt. eigenvalues --    1.20139   1.22587   1.25035   1.25181   1.27729
  Beta virt. eigenvalues --    1.28371   1.30365   1.30901   1.31500   1.33830
  Beta virt. eigenvalues --    1.34389   1.34711   1.36936   1.38372   1.41439
  Beta virt. eigenvalues --    1.43623   1.51286   1.65510   1.66463   1.67951
  Beta virt. eigenvalues --    1.80405   1.80740   1.85002   1.86183   1.86811
  Beta virt. eigenvalues --    1.87106   1.89756   1.90882   1.90902   1.91443
  Beta virt. eigenvalues --    1.91866   1.93803   1.94848   1.95211   1.96305
  Beta virt. eigenvalues --    1.96502   1.96730   1.98754   2.01613   2.02209
  Beta virt. eigenvalues --    2.10296   2.10704   2.10964   2.17799   2.18262
  Beta virt. eigenvalues --    2.22977   2.38031   2.38892   2.52974   2.53739
  Beta virt. eigenvalues --    2.58255   2.61079   2.61788   2.65993   2.75073
  Beta virt. eigenvalues --    2.78030   2.87859   4.97050   4.98585   4.99147
  Beta virt. eigenvalues --    5.01108   5.02654   5.02897   5.05052   5.06258
  Beta virt. eigenvalues --    5.06534   5.08656   5.08677   5.09235   5.12863
  Beta virt. eigenvalues --    5.23245   5.23582   5.24909   5.25459   5.37617
  Beta virt. eigenvalues --    5.94705   5.96585   8.27965   8.48070   8.61654
  Beta virt. eigenvalues --    8.61948  18.31585  18.35001  18.37754  18.38169
  Beta virt. eigenvalues --   18.39631  18.39674  18.43212  18.55535  18.59092
  Beta virt. eigenvalues --   18.64631  18.75830  18.79936 192.11348 192.34635
  Beta virt. eigenvalues --  192.44007 192.45171
          Condensed to atoms (all electrons):
               1          2          3          4
     1  S   15.672055   0.382557  -0.008083   0.004686
     2  S    0.382557  15.421774   0.152504  -0.008056
     3  S   -0.008083   0.152504  15.421848   0.382518
     4  S    0.004686  -0.008056   0.382518  15.672073
          Atomic-Atomic Spin Densities.
               1          2          3          4
     1  S    0.913142  -0.129784   0.006626  -0.000160
     2  S   -0.129784   0.342021  -0.008671   0.006619
     3  S    0.006626  -0.008671   0.341889  -0.129750
     4  S   -0.000160   0.006619  -0.129750   0.913190
 Mulliken charges and spin densities:
               1          2
     1  S   -0.051214   0.789824
     2  S    0.051222   0.210185
     3  S    0.051213   0.210093
     4  S   -0.051220   0.789898
 Sum of Mulliken charges =  -0.00000   2.00000
 Mulliken charges and spin densities with hydrogens summed into heavy atoms:
               1          2
     1  S   -0.051214   0.789824
     2  S    0.051222   0.210185
     3  S    0.051213   0.210093
     4  S   -0.051220   0.789898
 Electronic spatial extent (au):  <R**2>=            965.8029
 Charge=             -0.0000 electrons
 Dipole moment (field-independent basis, Debye):
    X=              0.0002    Y=             -0.0002    Z=             -0.0000  Tot=              0.0002
 Quadrupole moment (field-independent basis, Debye-Ang):
   XX=            -51.0931   YY=            -53.0799   ZZ=            -52.0254
   XY=              0.7652   XZ=              0.0000   YZ=              0.0000
 Traceless Quadrupole moment (field-independent basis, Debye-Ang):
   XX=              0.9730   YY=             -1.0138   ZZ=              0.0408
   XY=              0.7652   XZ=              0.0000   YZ=              0.0000
 Octapole moment (field-independent basis, Debye-Ang**2):
  XXX=             -0.0009  YYY=             -0.0009  ZZZ=              0.0000  XYY=              0.0017
  XXY=              0.0011  XXZ=             -0.0000  XZZ=              0.0003  YZZ=             -0.0001
  YYZ=              0.0000  XYZ=             -0.0000
 Hexadecapole moment (field-independent basis, Debye-Ang**3):
 XXXX=           -584.1249 YYYY=           -707.2118 ZZZZ=            -69.7072 XXXY=           -212.1088
 XXXZ=              0.0000 YYYX=           -247.6298 YYYZ=             -0.0000 ZZZX=             -0.0000
 ZZZY=             -0.0000 XXYY=           -206.1436 XXZZ=           -110.7439 YYZZ=           -125.8062
 XXYZ=              0.0000 YYXZ=              0.0000 ZZXY=            -76.2835
 N-N= 3.087484831771D+02 E-N=-4.403467474953D+03  KE= 1.590011695490D+03
 Symmetry A'   KE= 1.438640487664D+03
 Symmetry A"   KE= 1.513712078255D+02
 Leave Link  601 at Mon Oct 24 14:05:08 2016, MaxMem=    33554432 cpu:         0.3
 (Enter /home/proyectos/fulerenos/M3C-v2.0/M3C-deps_CCC/g09-AM64L-G09RevC.01/l9999.exe)
 1\1\GINC-BELVIS6\SP\UCCSD(T)-FC\6-311++G(3df,2p)\S4(3)\ROOT\24-Oct-201
 6\0\\#p ccsd(t)/6-311++G(3df,2p) scf(MaxCyc=300) guess(Huckel)\\ccsd(t
 ) iener\\0,3\S,0,-0.099985539,-0.361529293,2.457266452\S,0,0.222258,0.
 685488,0.858576\S,0,-0.222227926,-0.685395413,-0.858450905\S,0,0.09995
 5465,0.361436706,-2.457391548\\Version=EM64L-G09RevE.01\State=3-A'\HF=
 -1590.1564163\MP2=-1590.7974153\MP3=-1590.8473346\MP4D=-1590.8676992\M
 P4DQ=-1590.8428702\PUHF=-1590.1638994\PMP2-0=-1590.8022115\PMP3-0=-159
 0.8498599\MP4SDQ=-1590.8514148\CCSD=-1590.8522954\CCSD(T)=-1590.895085
 5\S2=2.050638\S2-1=2.013546\S2A=2.001541\RMSD=3.732e-09\PG=CS [SG(S4)]
 \\@


 THE PROMISED LAND ALWAYS LIES ON THE OTHER SIDE OF A WILDERNESS.

                         -- HAVELOCK ELLIS
 Job cpu time:       0 days 12 hours 36 minutes 47.0 seconds.
 File lengths (MBytes):  RWF=   1692 Int=      0 D2E=      0 Chk=      4 Scr=      1
 Normal termination of Gaussian 09 at Mon Oct 24 14:05:09 2016.
