 Entering Gaussian System, Link 0=/home/proyectos/fulerenos/M3C-v2.0/M3C-deps_CCC/g09-AM64L-G09RevC.01/g09
 Initial command:
 /home/proyectos/fulerenos/M3C-v2.0/M3C-deps_CCC/g09-AM64L-G09RevC.01/l1.exe "/scratch/naguirre/gaussian/Gau-22005.inp" -scrdir="/scratch/naguirre/gaussian/"
 Entering Link 1 = /home/proyectos/fulerenos/M3C-v2.0/M3C-deps_CCC/g09-AM64L-G09RevC.01/l1.exe PID=     22012.
  
 Copyright (c) 1988,1990,1992,1993,1995,1998,2003,2009,2015,
            Gaussian, Inc.  All Rights Reserved.
  
 This is part of the Gaussian(R) 09 program.  It is based on
 the Gaussian(R) 03 system (copyright 2003, Gaussian, Inc.),
 the Gaussian(R) 98 system (copyright 1998, Gaussian, Inc.),
 the Gaussian(R) 94 system (copyright 1995, Gaussian, Inc.),
 the Gaussian 92(TM) system (copyright 1992, Gaussian, Inc.),
 the Gaussian 90(TM) system (copyright 1990, Gaussian, Inc.),
 the Gaussian 88(TM) system (copyright 1988, Gaussian, Inc.),
 the Gaussian 86(TM) system (copyright 1986, Carnegie Mellon
 University), and the Gaussian 82(TM) system (copyright 1983,
 Carnegie Mellon University). Gaussian is a federally registered
 trademark of Gaussian, Inc.
  
 This software contains proprietary and confidential information,
 including trade secrets, belonging to Gaussian, Inc.
  
 This software is provided under written license and may be
 used, copied, transmitted, or stored only in accord with that
 written license.
  
 The following legend is applicable only to US Government
 contracts under FAR:
  
                    RESTRICTED RIGHTS LEGEND
  
 Use, reproduction and disclosure by the US Government is
 subject to restrictions as set forth in subparagraphs (a)
 and (c) of the Commercial Computer Software - Restricted
 Rights clause in FAR 52.227-19.
  
 Gaussian, Inc.
 340 Quinnipiac St., Bldg. 40, Wallingford CT 06492
  
  
 ---------------------------------------------------------------
 Warning -- This program may not be used in any manner that
 competes with the business of Gaussian, Inc. or will provide
 assistance to any competitor of Gaussian, Inc.  The licensee
 of this program is prohibited from giving any competitor of
 Gaussian, Inc. access to this program.  By using this program,
 the user acknowledges that Gaussian, Inc. is engaged in the
 business of creating and licensing software in the field of
 computational chemistry and represents and warrants to the
 licensee that it is not a competitor of Gaussian, Inc. and that
 it will not use this program in any manner prohibited above.
 ---------------------------------------------------------------
  

 Cite this work as:
 Gaussian 09, Revision E.01,
 M. J. Frisch, G. W. Trucks, H. B. Schlegel, G. E. Scuseria, 
 M. A. Robb, J. R. Cheeseman, G. Scalmani, V. Barone, B. Mennucci, 
 G. A. Petersson, H. Nakatsuji, M. Caricato, X. Li, H. P. Hratchian, 
 A. F. Izmaylov, J. Bloino, G. Zheng, J. L. Sonnenberg, M. Hada, 
 M. Ehara, K. Toyota, R. Fukuda, J. Hasegawa, M. Ishida, T. Nakajima, 
 Y. Honda, O. Kitao, H. Nakai, T. Vreven, J. A. Montgomery, Jr., 
 J. E. Peralta, F. Ogliaro, M. Bearpark, J. J. Heyd, E. Brothers, 
 K. N. Kudin, V. N. Staroverov, T. Keith, R. Kobayashi, J. Normand, 
 K. Raghavachari, A. Rendell, J. C. Burant, S. S. Iyengar, J. Tomasi, 
 M. Cossi, N. Rega, J. M. Millam, M. Klene, J. E. Knox, J. B. Cross, 
 V. Bakken, C. Adamo, J. Jaramillo, R. Gomperts, R. E. Stratmann, 
 O. Yazyev, A. J. Austin, R. Cammi, C. Pomelli, J. W. Ochterski, 
 R. L. Martin, K. Morokuma, V. G. Zakrzewski, G. A. Voth, 
 P. Salvador, J. J. Dannenberg, S. Dapprich, A. D. Daniels, 
 O. Farkas, J. B. Foresman, J. V. Ortiz, J. Cioslowski, 
 and D. J. Fox, Gaussian, Inc., Wallingford CT, 2013.
 
 ******************************************
 Gaussian 09:  EM64L-G09RevE.01 30-Nov-2015
                24-Oct-2016 
 ******************************************
 %NProcShared=4
 Will use up to    4 processors via shared memory.
 ---------------------------------------------------------
 #p ccsd(t)/6-311++G(3df,2p) scf(MaxCyc=300) guess(Huckel)
 ---------------------------------------------------------
 1/38=1/1;
 2/12=2,17=6,18=5,40=1/2;
 3/5=4,6=6,7=1216,11=9,16=1,25=1,30=1/1,2,3;
 4/11=4/1;
 5/5=2,7=300,38=5/2;
 8/6=4,9=120000,10=2/1,4;
 9/5=7,14=2/13;
 6/7=2,8=2,9=2,10=2/1;
 99/5=1,9=1/99;
 Leave Link    1 at Mon Oct 24 08:55:33 2016, MaxMem=           0 cpu:         0.3
 (Enter /home/proyectos/fulerenos/M3C-v2.0/M3C-deps_CCC/g09-AM64L-G09RevC.01/l101.exe)
 -------------
 ccsd(t) iener
 -------------
 Symbolic Z-matrix:
 Charge =  0 Multiplicity = 1
 S                    -0.09472  -0.34534   2.47206 
 S                     0.1962    0.60483   0.81886 
 S                    -0.1962   -0.60483  -0.81886 
 S                     0.09472   0.34534  -2.47206 
 
 NAtoms=      4 NQM=        4 NQMF=       0 NMMI=      0 NMMIF=      0
                NMic=       0 NMicF=      0.
                    Isotopes and Nuclear Properties:
 (Nuclear quadrupole moments (NQMom) in fm**2, nuclear magnetic moments (NMagM)
  in nuclear magnetons)

  Atom         1           2           3           4
 IAtWgt=          32          32          32          32
 AtmWgt=  31.9720718  31.9720718  31.9720718  31.9720718
 NucSpn=           0           0           0           0
 AtZEff=   0.0000000   0.0000000   0.0000000   0.0000000
 NQMom=    0.0000000   0.0000000   0.0000000   0.0000000
 NMagM=    0.0000000   0.0000000   0.0000000   0.0000000
 AtZNuc=  16.0000000  16.0000000  16.0000000  16.0000000
 Leave Link  101 at Mon Oct 24 08:55:33 2016, MaxMem=    33554432 cpu:         0.2
 (Enter /home/proyectos/fulerenos/M3C-v2.0/M3C-deps_CCC/g09-AM64L-G09RevC.01/l202.exe)
                          Input orientation:                          
 ---------------------------------------------------------------------
 Center     Atomic      Atomic             Coordinates (Angstroms)
 Number     Number       Type             X           Y           Z
 ---------------------------------------------------------------------
      1         16           0       -0.094721   -0.345338    2.472064
      2         16           0        0.196195    0.604828    0.818860
      3         16           0       -0.196195   -0.604828   -0.818860
      4         16           0        0.094721    0.345338   -2.472065
 ---------------------------------------------------------------------
                    Distance matrix (angstroms):
                    1          2          3          4
     1  S    0.000000
     2  S    1.928868   0.000000
     3  S    3.302698   2.073490   0.000000
     4  S    4.995731   3.302698   1.928868   0.000000
 Stoichiometry    S4
 Framework group  C2H[SGH(S4)]
 Deg. of freedom     3
 Full point group                 C2H     NOp   4
 Largest Abelian subgroup         C2H     NOp   4
 Largest concise Abelian subgroup C2      NOp   2
                         Standard orientation:                         
 ---------------------------------------------------------------------
 Center     Atomic      Atomic             Coordinates (Angstroms)
 Number     Number       Type             X           Y           Z
 ---------------------------------------------------------------------
      1         16           0        0.966818    2.303171   -0.000000
      2         16           0        0.966818    0.374303   -0.000000
      3         16           0       -0.966818   -0.374303   -0.000000
      4         16           0       -0.966818   -2.303171   -0.000000
 ---------------------------------------------------------------------
 Rotational constants (GHZ):     15.4603769      1.1617644      1.0805657
 Leave Link  202 at Mon Oct 24 08:55:33 2016, MaxMem=    33554432 cpu:         0.0
 (Enter /home/proyectos/fulerenos/M3C-v2.0/M3C-deps_CCC/g09-AM64L-G09RevC.01/l301.exe)
 Standard basis: 6-311++G(3df,2p) (5D, 7F)
 Ernie: Thresh=  0.10000D-02 Tol=  0.10000D-05 Strict=F.
 There are    74 symmetry adapted cartesian basis functions of AG  symmetry.
 There are    32 symmetry adapted cartesian basis functions of BG  symmetry.
 There are    32 symmetry adapted cartesian basis functions of AU  symmetry.
 There are    74 symmetry adapted cartesian basis functions of BU  symmetry.
 There are    64 symmetry adapted basis functions of AG  symmetry.
 There are    30 symmetry adapted basis functions of BG  symmetry.
 There are    30 symmetry adapted basis functions of AU  symmetry.
 There are    64 symmetry adapted basis functions of BU  symmetry.
   188 basis functions,   288 primitive gaussians,   212 cartesian basis functions
    32 alpha electrons       32 beta electrons
       nuclear repulsion energy       314.9517358295 Hartrees.
 IExCor=    0 DFT=F Ex=HF Corr=None ExCW=0 ScaHFX=  1.000000
 ScaDFX=  1.000000  1.000000  1.000000  1.000000 ScalE2=  1.000000  1.000000
 IRadAn=      0 IRanWt=     -1 IRanGd=            0 ICorTp=0 IEmpDi=  4
 NAtoms=    4 NActive=    4 NUniq=    2 SFac= 4.00D+00 NAtFMM=   60 NAOKFM=F Big=F
 Integral buffers will be    131072 words long.
 Raffenetti 1 integral format.
 Two-electron integral symmetry is turned on.
 Leave Link  301 at Mon Oct 24 08:55:33 2016, MaxMem=    33554432 cpu:         0.2
 (Enter /home/proyectos/fulerenos/M3C-v2.0/M3C-deps_CCC/g09-AM64L-G09RevC.01/l302.exe)
 NPDir=0 NMtPBC=     1 NCelOv=     1 NCel=       1 NClECP=     1 NCelD=      1
         NCelK=      1 NCelE2=     1 NClLst=     1 CellRange=     0.0.
 One-electron integrals computed using PRISM.
 One-electron integral symmetry used in STVInt
 NBasis=   188 RedAO= T EigKep=  1.72D-04  NBF=    64    30    30    64
 NBsUse=   188 1.00D-06 EigRej= -1.00D+00 NBFU=    64    30    30    64
 Leave Link  302 at Mon Oct 24 08:55:34 2016, MaxMem=    33554432 cpu:         0.9
 (Enter /home/proyectos/fulerenos/M3C-v2.0/M3C-deps_CCC/g09-AM64L-G09RevC.01/l303.exe)
 DipDrv:  MaxL=1.
 Leave Link  303 at Mon Oct 24 08:55:34 2016, MaxMem=    33554432 cpu:         0.1
 (Enter /home/proyectos/fulerenos/M3C-v2.0/M3C-deps_CCC/g09-AM64L-G09RevC.01/l401.exe)
 Projected New-EHT guess.
 Enter ItEHT:  IZDO=4 IZDPar=0 Conv= 1.00D-06 N=   16
 It=   1                  EEH= -24.4335553543     EQH= 0.000000000000E+00 EH= -24.4335553543    
 JPrj=0 DoOrth=T DoCkMO=T.
 Initial guess orbital symmetries:
       Occupied  (BU) (BU) (AG) (AG) (BG) (BU) (BU) (AG) (BU) (AU)
                 (AG) (AG) (BU) (AG) (BG) (AG) (AG) (BU) (BU) (AU)
                 (AG) (BU) (AG) (BU) (AU) (AG) (BU) (BG) (AG) (BU)
                 (AU) (AG)
       Virtual   (BG) (BU) (BU) (AG) (AG) (AG) (AG) (AG) (AG) (AG)
                 (AG) (AG) (AG) (AG) (AG) (AG) (AG) (AG) (AG) (AG)
                 (AG) (AG) (AG) (AG) (AG) (AG) (AG) (AG) (AG) (AG)
                 (AG) (AG) (AG) (AG) (AG) (AG) (AG) (AG) (AG) (AG)
                 (AG) (AG) (AG) (AG) (AG) (AG) (AG) (AG) (AG) (AG)
                 (AG) (AG) (AG) (AG) (BG) (BG) (BG) (BG) (BG) (BG)
                 (BG) (BG) (BG) (BG) (BG) (BG) (BG) (BG) (BG) (BG)
                 (BG) (BG) (BG) (BG) (BG) (BG) (BG) (BG) (BG) (BG)
                 (AU) (AU) (AU) (AU) (AU) (AU) (AU) (AU) (AU) (AU)
                 (AU) (AU) (AU) (AU) (AU) (AU) (AU) (AU) (AU) (AU)
                 (AU) (AU) (AU) (AU) (AU) (AU) (BU) (BU) (BU) (BU)
                 (BU) (BU) (BU) (BU) (BU) (BU) (BU) (BU) (BU) (BU)
                 (BU) (BU) (BU) (BU) (BU) (BU) (BU) (BU) (BU) (BU)
                 (BU) (BU) (BU) (BU) (BU) (BU) (BU) (BU) (BU) (BU)
                 (BU) (BU) (BU) (BU) (BU) (BU) (BU) (BU) (BU) (BU)
                 (BU) (BU) (BU) (BU) (BU) (BU)
 The electronic state of the initial guess is 1-AG.
 Leave Link  401 at Mon Oct 24 08:55:34 2016, MaxMem=    33554432 cpu:         0.5
 (Enter /home/proyectos/fulerenos/M3C-v2.0/M3C-deps_CCC/g09-AM64L-G09RevC.01/l502.exe)
 Closed shell SCF:
 Using DIIS extrapolation, IDIIS=  1040.
 Integral symmetry usage will be decided dynamically.
 IVT=      231054 IEndB=      231054 NGot=    33554432 MDV=    33459135
 LenX=    33459135 LenY=    33413750
 Requested convergence on RMS density matrix=1.00D-08 within 300 cycles.
 Requested convergence on MAX density matrix=1.00D-06.
 Requested convergence on             energy=1.00D-06.
 No special actions if energy rises.
 Fock matrices will be formed incrementally for  20 cycles.

 Cycle   1  Pass 0  IDiag  1:
 FoFJK:  IHMeth= 1 ICntrl=       0 DoSepK=F KAlg= 0 I1Cent=   0 FoldK=F
 IRaf= 880000000 NMat=   1 IRICut=       1 DoRegI=T DoRafI=F ISym2E= 1.
 FoFCou: FMM=F IPFlag=           0 FMFlag=      100000 FMFlg1=           0
         NFxFlg=           0 DoJE=F BraDBF=F KetDBF=F FulRan=T
         wScrn=  0.000000 ICntrl=       0 IOpCl=  0 I1Cent=           0 NGrid=           0
         NMat0=    1 NMatS0=      1 NMatT0=    0 NMatD0=    1 NMtDS0=    0 NMtDT0=    0
 Petite list used in FoFCou.
 E= -1585.55692606425    
 DIIS: error= 7.96D-01 at cycle   1 NSaved=   1.
 NSaved= 1 IEnMin= 1 EnMin= -1585.55692606425     IErMin= 1 ErrMin= 7.96D-01
 ErrMax= 7.96D-01  0.00D+00 EMaxC= 1.00D-01 BMatC= 7.09D+01 BMatP= 7.09D+01
 IDIUse=3 WtCom= 0.00D+00 WtEn= 1.00D+00
 Coeff-Com:  0.100D+01
 Coeff-En:   0.100D+01
 Coeff:      0.100D+01
 Gap=     0.111 Goal=   None    Shift=    0.000
 GapD=    0.111 DampG=1.000 DampE=0.250 DampFc=0.2500 IDamp=-1.
 Damping current iteration by 2.50D-01
 RMSDP=9.32D-03 MaxDP=1.89D-01              OVMax= 4.21D-01

 Cycle   2  Pass 0  IDiag  1:
 RMSU=  2.17D-03    CP:  9.66D-01
 E= -1586.66494588333     Delta-E=       -1.108019819078 Rises=F Damp=T
 DIIS: error= 6.01D-01 at cycle   2 NSaved=   2.
 NSaved= 2 IEnMin= 2 EnMin= -1586.66494588333     IErMin= 2 ErrMin= 6.01D-01
 ErrMax= 6.01D-01  0.00D+00 EMaxC= 1.00D-01 BMatC= 4.04D+01 BMatP= 7.09D+01
 IDIUse=3 WtCom= 0.00D+00 WtEn= 1.00D+00
 Coeff-Com: -0.306D+01 0.406D+01
 Coeff-En:   0.000D+00 0.100D+01
 Coeff:      0.000D+00 0.100D+01
 Gap=     0.165 Goal=   None    Shift=    0.000
 RMSDP=6.56D-03 MaxDP=1.21D-01 DE=-1.11D+00 OVMax= 1.12D-01

 Cycle   3  Pass 0  IDiag  1:
 RMSU=  2.14D-03    CP:  8.59D-01  3.00D+00
 E= -1589.98572898930     Delta-E=       -3.320783105973 Rises=F Damp=F
 DIIS: error= 2.20D-02 at cycle   3 NSaved=   3.
 NSaved= 3 IEnMin= 3 EnMin= -1589.98572898930     IErMin= 3 ErrMin= 2.20D-02
 ErrMax= 2.20D-02  0.00D+00 EMaxC= 1.00D-01 BMatC= 1.31D-01 BMatP= 4.04D+01
 IDIUse=3 WtCom= 7.80D-01 WtEn= 2.20D-01
 Coeff-Com:  0.202D+01-0.271D+01 0.169D+01
 Coeff-En:   0.000D+00 0.000D+00 0.100D+01
 Coeff:      0.158D+01-0.211D+01 0.154D+01
 Gap=     0.227 Goal=   None    Shift=    0.000
 RMSDP=2.64D-03 MaxDP=1.34D-01 DE=-3.32D+00 OVMax= 1.71D-01

 Cycle   4  Pass 0  IDiag  1:
 RMSU=  2.38D-03    CP:  8.40D-01  3.00D+00  1.48D+00
 E= -1590.08114930564     Delta-E=       -0.095420316338 Rises=F Damp=F
 DIIS: error= 8.59D-03 at cycle   4 NSaved=   4.
 NSaved= 4 IEnMin= 4 EnMin= -1590.08114930564     IErMin= 4 ErrMin= 8.59D-03
 ErrMax= 8.59D-03  0.00D+00 EMaxC= 1.00D-01 BMatC= 1.13D-02 BMatP= 1.31D-01
 IDIUse=3 WtCom= 9.14D-01 WtEn= 8.59D-02
 Coeff-Com: -0.580D-01 0.724D-01 0.172D+00 0.814D+00
 Coeff-En:   0.000D+00 0.000D+00 0.000D+00 0.100D+01
 Coeff:     -0.530D-01 0.662D-01 0.157D+00 0.830D+00
 Gap=     0.213 Goal=   None    Shift=    0.000
 RMSDP=6.82D-04 MaxDP=3.49D-02 DE=-9.54D-02 OVMax= 3.88D-02

 Cycle   5  Pass 0  IDiag  1:
 RMSU=  5.86D-04    CP:  8.39D-01  3.00D+00  1.48D+00  8.55D-01
 E= -1590.09296732180     Delta-E=       -0.011818016165 Rises=F Damp=F
 DIIS: error= 3.07D-03 at cycle   5 NSaved=   5.
 NSaved= 5 IEnMin= 5 EnMin= -1590.09296732180     IErMin= 5 ErrMin= 3.07D-03
 ErrMax= 3.07D-03  0.00D+00 EMaxC= 1.00D-01 BMatC= 8.80D-04 BMatP= 1.13D-02
 IDIUse=3 WtCom= 9.69D-01 WtEn= 3.07D-02
 Coeff-Com:  0.275D-01-0.360D-01-0.291D-01 0.111D+00 0.926D+00
 Coeff-En:   0.000D+00 0.000D+00 0.000D+00 0.000D+00 0.100D+01
 Coeff:      0.267D-01-0.349D-01-0.282D-01 0.108D+00 0.929D+00
 Gap=     0.216 Goal=   None    Shift=    0.000
 RMSDP=2.04D-04 MaxDP=8.33D-03 DE=-1.18D-02 OVMax= 2.07D-02

 Cycle   6  Pass 0  IDiag  1:
 RMSU=  9.18D-05    CP:  8.38D-01  3.00D+00  1.50D+00  9.25D-01  1.07D+00
 E= -1590.09426814729     Delta-E=       -0.001300825493 Rises=F Damp=F
 DIIS: error= 5.87D-04 at cycle   6 NSaved=   6.
 NSaved= 6 IEnMin= 6 EnMin= -1590.09426814729     IErMin= 6 ErrMin= 5.87D-04
 ErrMax= 5.87D-04  0.00D+00 EMaxC= 1.00D-01 BMatC= 3.16D-05 BMatP= 8.80D-04
 IDIUse=3 WtCom= 9.94D-01 WtEn= 5.87D-03
 Coeff-Com:  0.619D-02-0.818D-02 0.236D-02-0.684D-01-0.170D+00 0.124D+01
 Coeff-En:   0.000D+00 0.000D+00 0.000D+00 0.000D+00 0.000D+00 0.100D+01
 Coeff:      0.616D-02-0.813D-02 0.235D-02-0.680D-01-0.169D+00 0.124D+01
 Gap=     0.217 Goal=   None    Shift=    0.000
 RMSDP=8.30D-05 MaxDP=3.83D-03 DE=-1.30D-03 OVMax= 7.39D-03

 Cycle   7  Pass 0  IDiag  1:
 RMSU=  2.03D-05    CP:  8.37D-01  3.00D+00  1.50D+00  9.33D-01  1.17D+00
                    CP:  1.57D+00
 E= -1590.09439216190     Delta-E=       -0.000124014609 Rises=F Damp=F
 DIIS: error= 2.82D-04 at cycle   7 NSaved=   7.
 NSaved= 7 IEnMin= 7 EnMin= -1590.09439216190     IErMin= 7 ErrMin= 2.82D-04
 ErrMax= 2.82D-04  0.00D+00 EMaxC= 1.00D-01 BMatC= 3.71D-06 BMatP= 3.16D-05
 IDIUse=3 WtCom= 9.97D-01 WtEn= 2.82D-03
 Coeff-Com:  0.259D-02-0.351D-02 0.477D-02-0.737D-02-0.417D-01-0.126D+00
 Coeff-Com:  0.117D+01
 Coeff-En:   0.000D+00 0.000D+00 0.000D+00 0.000D+00 0.000D+00 0.000D+00
 Coeff-En:   0.100D+01
 Coeff:      0.258D-02-0.350D-02 0.476D-02-0.735D-02-0.416D-01-0.126D+00
 Coeff:      0.117D+01
 Gap=     0.218 Goal=   None    Shift=    0.000
 RMSDP=2.95D-05 MaxDP=8.44D-04 DE=-1.24D-04 OVMax= 3.70D-03

 Cycle   8  Pass 0  IDiag  1:
 RMSU=  6.24D-06    CP:  8.37D-01  3.00D+00  1.50D+00  9.32D-01  1.19D+00
                    CP:  1.79D+00  1.79D+00
 E= -1590.09441276212     Delta-E=       -0.000020600216 Rises=F Damp=F
 DIIS: error= 1.49D-04 at cycle   8 NSaved=   8.
 NSaved= 8 IEnMin= 8 EnMin= -1590.09441276212     IErMin= 8 ErrMin= 1.49D-04
 ErrMax= 1.49D-04  0.00D+00 EMaxC= 1.00D-01 BMatC= 7.89D-07 BMatP= 3.71D-06
 IDIUse=3 WtCom= 9.99D-01 WtEn= 1.49D-03
 Coeff-Com: -0.163D-04 0.472D-04-0.231D-02 0.112D-01 0.581D-01-0.973D-01
 Coeff-Com: -0.748D+00 0.178D+01
 Coeff-En:   0.000D+00 0.000D+00 0.000D+00 0.000D+00 0.000D+00 0.000D+00
 Coeff-En:   0.000D+00 0.100D+01
 Coeff:     -0.162D-04 0.471D-04-0.231D-02 0.112D-01 0.580D-01-0.972D-01
 Coeff:     -0.747D+00 0.178D+01
 Gap=     0.218 Goal=   None    Shift=    0.000
 RMSDP=2.04D-05 MaxDP=6.64D-04 DE=-2.06D-05 OVMax= 2.91D-03

 Cycle   9  Pass 0  IDiag  1:
 RMSU=  3.01D-06    CP:  8.37D-01  3.00D+00  1.50D+00  9.32D-01  1.20D+00
                    CP:  1.90D+00  2.52D+00  2.28D+00
 E= -1590.09441899258     Delta-E=       -0.000006230464 Rises=F Damp=F
 DIIS: error= 3.25D-05 at cycle   9 NSaved=   9.
 NSaved= 9 IEnMin= 9 EnMin= -1590.09441899258     IErMin= 9 ErrMin= 3.25D-05
 ErrMax= 3.25D-05  0.00D+00 EMaxC= 1.00D-01 BMatC= 5.65D-08 BMatP= 7.89D-07
 IDIUse=1 WtCom= 1.00D+00 WtEn= 0.00D+00
 Coeff-Com:  0.153D-03-0.198D-03-0.175D-03-0.285D-03 0.151D-02 0.178D-01
 Coeff-Com: -0.720D-01-0.119D+00 0.117D+01
 Coeff:      0.153D-03-0.198D-03-0.175D-03-0.285D-03 0.151D-02 0.178D-01
 Coeff:     -0.720D-01-0.119D+00 0.117D+01
 Gap=     0.218 Goal=   None    Shift=    0.000
 RMSDP=4.53D-06 MaxDP=1.58D-04 DE=-6.23D-06 OVMax= 6.57D-04

 Initial convergence to 1.0D-05 achieved.  Increase integral accuracy.
 Cycle  10  Pass 1  IDiag  1:
 E= -1590.09441934002     Delta-E=       -0.000000347436 Rises=F Damp=F
 DIIS: error= 7.60D-06 at cycle   1 NSaved=   1.
 NSaved= 1 IEnMin= 1 EnMin= -1590.09441934002     IErMin= 1 ErrMin= 7.60D-06
 ErrMax= 7.60D-06  0.00D+00 EMaxC= 1.00D-01 BMatC= 5.26D-09 BMatP= 5.26D-09
 IDIUse=1 WtCom= 1.00D+00 WtEn= 0.00D+00
 Coeff-Com:  0.100D+01
 Coeff:      0.100D+01
 Gap=     0.218 Goal=   None    Shift=    0.000
 RMSDP=4.53D-06 MaxDP=1.58D-04 DE=-3.47D-07 OVMax= 5.92D-05

 Cycle  11  Pass 1  IDiag  1:
 RMSU=  6.95D-07    CP:  1.00D+00
 E= -1590.09441935832     Delta-E=       -0.000000018303 Rises=F Damp=F
 DIIS: error= 5.24D-06 at cycle   2 NSaved=   2.
 NSaved= 2 IEnMin= 2 EnMin= -1590.09441935832     IErMin= 2 ErrMin= 5.24D-06
 ErrMax= 5.24D-06  0.00D+00 EMaxC= 1.00D-01 BMatC= 1.53D-09 BMatP= 5.26D-09
 IDIUse=1 WtCom= 1.00D+00 WtEn= 0.00D+00
 Coeff-Com: -0.260D-01 0.103D+01
 Coeff:     -0.260D-01 0.103D+01
 Gap=     0.218 Goal=   None    Shift=    0.000
 RMSDP=3.77D-07 MaxDP=1.25D-05 DE=-1.83D-08 OVMax= 4.80D-05

 Cycle  12  Pass 1  IDiag  1:
 RMSU=  2.00D-07    CP:  1.00D+00  1.46D+00
 E= -1590.09441936431     Delta-E=       -0.000000005986 Rises=F Damp=F
 DIIS: error= 2.77D-06 at cycle   3 NSaved=   3.
 NSaved= 3 IEnMin= 3 EnMin= -1590.09441936431     IErMin= 3 ErrMin= 2.77D-06
 ErrMax= 2.77D-06  0.00D+00 EMaxC= 1.00D-01 BMatC= 5.11D-10 BMatP= 1.53D-09
 IDIUse=1 WtCom= 1.00D+00 WtEn= 0.00D+00
 Coeff-Com: -0.313D+00-0.178D-01 0.133D+01
 Coeff:     -0.313D+00-0.178D-01 0.133D+01
 Gap=     0.218 Goal=   None    Shift=    0.000
 RMSDP=4.02D-07 MaxDP=1.11D-05 DE=-5.99D-09 OVMax= 4.46D-05

 Cycle  13  Pass 1  IDiag  1:
 RMSU=  1.45D-07    CP:  1.00D+00  1.98D+00  1.53D+00
 E= -1590.09441936736     Delta-E=       -0.000000003050 Rises=F Damp=F
 DIIS: error= 1.62D-06 at cycle   4 NSaved=   4.
 NSaved= 4 IEnMin= 4 EnMin= -1590.09441936736     IErMin= 4 ErrMin= 1.62D-06
 ErrMax= 1.62D-06  0.00D+00 EMaxC= 1.00D-01 BMatC= 7.19D-11 BMatP= 5.11D-10
 IDIUse=1 WtCom= 1.00D+00 WtEn= 0.00D+00
 Coeff-Com: -0.792D-01-0.104D+00 0.341D+00 0.842D+00
 Coeff:     -0.792D-01-0.104D+00 0.341D+00 0.842D+00
 Gap=     0.218 Goal=   None    Shift=    0.000
 RMSDP=1.01D-07 MaxDP=3.95D-06 DE=-3.05D-09 OVMax= 1.69D-05

 Cycle  14  Pass 1  IDiag  1:
 RMSU=  5.01D-08    CP:  1.00D+00  2.06D+00  1.83D+00  1.16D+00
 E= -1590.09441936764     Delta-E=       -0.000000000285 Rises=F Damp=F
 DIIS: error= 3.85D-07 at cycle   5 NSaved=   5.
 NSaved= 5 IEnMin= 5 EnMin= -1590.09441936764     IErMin= 5 ErrMin= 3.85D-07
 ErrMax= 3.85D-07  0.00D+00 EMaxC= 1.00D-01 BMatC= 2.21D-11 BMatP= 7.19D-11
 IDIUse=1 WtCom= 1.00D+00 WtEn= 0.00D+00
 Coeff-Com:  0.126D+00 0.299D-01-0.579D+00-0.605D-03 0.142D+01
 Coeff:      0.126D+00 0.299D-01-0.579D+00-0.605D-03 0.142D+01
 Gap=     0.218 Goal=   None    Shift=    0.000
 RMSDP=9.36D-08 MaxDP=2.70D-06 DE=-2.85D-10 OVMax= 1.18D-05

 Cycle  15  Pass 1  IDiag  1:
 RMSU=  1.94D-08    CP:  1.00D+00  2.12D+00  2.03D+00  1.62D+00  1.42D+00
 E= -1590.09441936775     Delta-E=       -0.000000000110 Rises=F Damp=F
 DIIS: error= 6.73D-08 at cycle   6 NSaved=   6.
 NSaved= 6 IEnMin= 6 EnMin= -1590.09441936775     IErMin= 6 ErrMin= 6.73D-08
 ErrMax= 6.73D-08  0.00D+00 EMaxC= 1.00D-01 BMatC= 3.32D-13 BMatP= 2.21D-11
 IDIUse=1 WtCom= 1.00D+00 WtEn= 0.00D+00
 Coeff-Com: -0.209D-01 0.205D-02 0.930D-01-0.333D-01-0.259D+00 0.122D+01
 Coeff:     -0.209D-01 0.205D-02 0.930D-01-0.333D-01-0.259D+00 0.122D+01
 Gap=     0.218 Goal=   None    Shift=    0.000
 RMSDP=9.22D-09 MaxDP=2.92D-07 DE=-1.10D-10 OVMax= 1.05D-06

 SCF Done:  E(RHF) =  -1590.09441937     A.U. after   15 cycles
            NFock= 15  Conv=0.92D-08     -V/T= 2.0002
 KE= 1.589773585163D+03 PE=-4.414611793874D+03 EE= 9.197920535134D+02
 Leave Link  502 at Mon Oct 24 08:57:04 2016, MaxMem=    33554432 cpu:       291.6
 (Enter /home/proyectos/fulerenos/M3C-v2.0/M3C-deps_CCC/g09-AM64L-G09RevC.01/l801.exe)
 Windowed orbitals will be sorted by symmetry type.
 ExpMin= 4.05D-02 ExpMax= 9.34D+04 ExpMxC= 3.17D+03 IAcc=3 IRadAn=         5 AccDes= 0.00D+00
 HarFok:  IExCor=  205 AccDes= 0.00D+00 IRadAn=         5 IDoV=-2 UseB2=F ITyADJ=14
 ICtDFT= 12500011 ScaDFX=  1.000000  1.000000  1.000000  1.000000
 Largest valence mixing into a core orbital is  5.12D-04
 Largest core mixing into a valence orbital is  2.42D-04
 Range of M.O.s used for correlation:    21   188
 NBasis=   188 NAE=    32 NBE=    32 NFC=    20 NFV=     0
 NROrb=    168 NOA=    12 NOB=    12 NVA=   156 NVB=   156

 **** Warning!!: The largest alpha MO coefficient is  0.29478425D+02

 Leave Link  801 at Mon Oct 24 08:57:04 2016, MaxMem=    33554432 cpu:         0.6
 (Enter /home/proyectos/fulerenos/M3C-v2.0/M3C-deps_CCC/g09-AM64L-G09RevC.01/l804.exe)
 Closed-shell transformation, MDV=    33554432 ITran=4 ISComp=2.
 Semi-Direct transformation.
 ModeAB=           4 MOrb=            12 LenV=      32705200
 LASXX=      6880284 LTotXX=     6880284 LenRXX=    13896560
 LTotAB=     7016276 MaxLAS=    22151808 LenRXY=           0
 NonZer=    20776844 LenScr=    31928832 LnRSAI=    22151808
 LnScr1=    33994752 LExtra=           0 Total=    101971952
 MaxDsk=          -1 SrtSym=           T ITran=            4
 DoSDTr:  NPSUse=  4
 JobTyp=0 Pass  1:  I=   1 to  12.
 Complete sort for first half transformation.
 First half transformation complete.
 Begin second half transformation for I=  10.
 Complete sort for second half transformation.
 Second half transformation complete.
 Spin components of T(2) and E(2):
     alpha-alpha T2 =       0.5406617413D-01 E2=     -0.9711954896D-01
     alpha-beta  T2 =       0.2847475131D+00 E2=     -0.5368530666D+00
     beta-beta   T2 =       0.5406617413D-01 E2=     -0.9711954896D-01
 ANorm=    0.1180203314D+01
 E2 =    -0.7310921645D+00 EUMP2 =    -0.15908255115322D+04
 Leave Link  804 at Mon Oct 24 08:57:28 2016, MaxMem=    33554432 cpu:        80.5
 (Enter /home/proyectos/fulerenos/M3C-v2.0/M3C-deps_CCC/g09-AM64L-G09RevC.01/l913.exe)
 CIDS:  MDV=    33554432.
 Frozen-core window:  NFC=  20 NFV=   0.
 IFCWin=0 IBDFC=1 NFBD=     0     0 NFCmp=     0     0 NFFFC=     0     0
 Using DD3R+UMP44R for 1st iteration, S=T.
 Using DD4RQ for 2nd and later iterations.
 Would need an additional       164499955 words for in-memory AO integral storage.
 CCSD(T)
 =======
 Iterations=  50 Convergence= 0.100D-06
 Iteration Nr.   1
 **********************
 DD1Dir will call FoFJK   2 times, MxPair=        78
 NAB=    78 NAA=     0 NBB=     0 NumPrc=  4.
 DD1Dir:  Pass   1 NRAB=    39 NRAA=     0 NRBB=     0 NR=    78.
 FoFJK:  IHMeth= 1 ICntrl=     200 DoSepK=F KAlg= 0 I1Cent=   0 FoldK=F
 IRaf= 990000000 NMat=  78 IRICut=      97 DoRegI=T DoRafI=T ISym2E=-1.
 FoFCou: FMM=F IPFlag=           0 FMFlag=      100000 FMFlg1=           0
         NFxFlg=           0 DoJE=F BraDBF=F KetDBF=F FulRan=T
         wScrn=  0.000000 ICntrl=     200 IOpCl=  0 I1Cent=           0 NGrid=           0
         NMat0=   78 NMatS0=      0 NMatT0=   39 NMatD0=   78 NMtDS0=    0 NMtDT0=    0
 Petite list used in FoFCou.
 DD1Dir:  Pass   2 NRAB=    39 NRAA=     0 NRBB=     0 NR=    78.
 MP4(R+Q)=  0.43940228D-01
 Maximum subspace dimension=  5
 Norm of the A-vectors is  1.9984373D+00 conv= 1.00D-05.
 RLE energy=       -0.7092899467
 E3=       -0.22032865D-01        EUMP3=      -0.15908475444D+04
 E4(DQ)=    0.15172631D-01        UMP4(DQ)=   -0.15908323718D+04
 E4(SDQ)=   0.31356283D-02        UMP4(SDQ)=  -0.15908444088D+04
 VARIATIONAL ENERGIES WITH THE FIRST-ORDER WAVEFUNCTION:
 DE(Corr)= -0.70862021     E(Corr)=     -1590.8030396    
 NORM(A)=   0.11664692D+01
 Iteration Nr.   2
 **********************
 DD1Dir will call FoFJK   2 times, MxPair=        78
 NAB=    78 NAA=     0 NBB=     0 NumPrc=  4.
 DD1Dir:  Pass   1 NRAB=    39 NRAA=     0 NRBB=     0 NR=    78.
 DD1Dir:  Pass   2 NRAB=    39 NRAA=     0 NRBB=     0 NR=    78.
 Norm of the A-vectors is  9.0521167D-01 conv= 1.00D-05.
 RLE energy=       -0.7451594596
 DE(Corr)= -0.74970667     E(CORR)=     -1590.8441260     Delta=-4.11D-02
 NORM(A)=   0.11876166D+01
 Iteration Nr.   3
 **********************
 DD1Dir will call FoFJK   2 times, MxPair=        78
 NAB=    78 NAA=     0 NBB=     0 NumPrc=  4.
 DD1Dir:  Pass   1 NRAB=    39 NRAA=     0 NRBB=     0 NR=    78.
 DD1Dir:  Pass   2 NRAB=    39 NRAA=     0 NRBB=     0 NR=    78.
 Norm of the A-vectors is  2.7225771D-01 conv= 1.00D-05.
 RLE energy=       -0.7470748147
 DE(Corr)= -0.74236197     E(CORR)=     -1590.8367813     Delta= 7.34D-03
 NORM(A)=   0.11926476D+01
 Iteration Nr.   4
 **********************
 DD1Dir will call FoFJK   2 times, MxPair=        78
 NAB=    78 NAA=     0 NBB=     0 NumPrc=  4.
 DD1Dir:  Pass   1 NRAB=    39 NRAA=     0 NRBB=     0 NR=    78.
 DD1Dir:  Pass   2 NRAB=    39 NRAA=     0 NRBB=     0 NR=    78.
 Norm of the A-vectors is  1.2809547D-01 conv= 1.00D-05.
 RLE energy=       -0.7468233013
 DE(Corr)= -0.74655845     E(CORR)=     -1590.8409778     Delta=-4.20D-03
 NORM(A)=   0.11953018D+01
 Iteration Nr.   5
 **********************
 DD1Dir will call FoFJK   2 times, MxPair=        78
 NAB=    78 NAA=     0 NBB=     0 NumPrc=  4.
 DD1Dir:  Pass   1 NRAB=    39 NRAA=     0 NRBB=     0 NR=    78.
 DD1Dir:  Pass   2 NRAB=    39 NRAA=     0 NRBB=     0 NR=    78.
 Norm of the A-vectors is  3.8815928D-02 conv= 1.00D-05.
 RLE energy=       -0.7473697578
 DE(Corr)= -0.74721975     E(CORR)=     -1590.8416391     Delta=-6.61D-04
 NORM(A)=   0.11977806D+01
 Iteration Nr.   6
 **********************
 DD1Dir will call FoFJK   2 times, MxPair=        78
 NAB=    78 NAA=     0 NBB=     0 NumPrc=  4.
 DD1Dir:  Pass   1 NRAB=    39 NRAA=     0 NRBB=     0 NR=    78.
 DD1Dir:  Pass   2 NRAB=    39 NRAA=     0 NRBB=     0 NR=    78.
 Norm of the A-vectors is  1.9904398D-02 conv= 1.00D-05.
 RLE energy=       -0.7474010073
 DE(Corr)= -0.74731583     E(CORR)=     -1590.8417352     Delta=-9.61D-05
 NORM(A)=   0.11983061D+01
 Iteration Nr.   7
 **********************
 DD1Dir will call FoFJK   2 times, MxPair=        78
 NAB=    78 NAA=     0 NBB=     0 NumPrc=  4.
 DD1Dir:  Pass   1 NRAB=    39 NRAA=     0 NRBB=     0 NR=    78.
 DD1Dir:  Pass   2 NRAB=    39 NRAA=     0 NRBB=     0 NR=    78.
 Norm of the A-vectors is  7.4288503D-03 conv= 1.00D-05.
 RLE energy=       -0.7472808986
 DE(Corr)= -0.74733367     E(CORR)=     -1590.8417530     Delta=-1.78D-05
 NORM(A)=   0.11982911D+01
 Iteration Nr.   8
 **********************
 DD1Dir will call FoFJK   2 times, MxPair=        78
 NAB=    78 NAA=     0 NBB=     0 NumPrc=  4.
 DD1Dir:  Pass   1 NRAB=    39 NRAA=     0 NRBB=     0 NR=    78.
 DD1Dir:  Pass   2 NRAB=    39 NRAA=     0 NRBB=     0 NR=    78.
 Norm of the A-vectors is  4.1530709D-03 conv= 1.00D-05.
 RLE energy=       -0.7473435218
 DE(Corr)= -0.74734676     E(CORR)=     -1590.8417661     Delta=-1.31D-05
 NORM(A)=   0.11983532D+01
 Iteration Nr.   9
 **********************
 DD1Dir will call FoFJK   2 times, MxPair=        78
 NAB=    78 NAA=     0 NBB=     0 NumPrc=  4.
 DD1Dir:  Pass   1 NRAB=    39 NRAA=     0 NRBB=     0 NR=    78.
 DD1Dir:  Pass   2 NRAB=    39 NRAA=     0 NRBB=     0 NR=    78.
 Norm of the A-vectors is  1.7708572D-03 conv= 1.00D-05.
 RLE energy=       -0.7473263395
 DE(Corr)= -0.74732805     E(CORR)=     -1590.8417474     Delta= 1.87D-05
 NORM(A)=   0.11983384D+01
 Iteration Nr.  10
 **********************
 DD1Dir will call FoFJK   2 times, MxPair=        78
 NAB=    78 NAA=     0 NBB=     0 NumPrc=  4.
 DD1Dir:  Pass   1 NRAB=    39 NRAA=     0 NRBB=     0 NR=    78.
 DD1Dir:  Pass   2 NRAB=    39 NRAA=     0 NRBB=     0 NR=    78.
 Norm of the A-vectors is  8.0088588D-04 conv= 1.00D-05.
 RLE energy=       -0.7473379663
 DE(Corr)= -0.74733942     E(CORR)=     -1590.8417588     Delta=-1.14D-05
 NORM(A)=   0.11983428D+01
 Iteration Nr.  11
 **********************
 DD1Dir will call FoFJK   2 times, MxPair=        78
 NAB=    78 NAA=     0 NBB=     0 NumPrc=  4.
 DD1Dir:  Pass   1 NRAB=    39 NRAA=     0 NRBB=     0 NR=    78.
 DD1Dir:  Pass   2 NRAB=    39 NRAA=     0 NRBB=     0 NR=    78.
 Norm of the A-vectors is  4.4466617D-04 conv= 1.00D-05.
 RLE energy=       -0.7473350706
 DE(Corr)= -0.74733374     E(CORR)=     -1590.8417531     Delta= 5.68D-06
 NORM(A)=   0.11983456D+01
 Iteration Nr.  12
 **********************
 DD1Dir will call FoFJK   2 times, MxPair=        78
 NAB=    78 NAA=     0 NBB=     0 NumPrc=  4.
 DD1Dir:  Pass   1 NRAB=    39 NRAA=     0 NRBB=     0 NR=    78.
 DD1Dir:  Pass   2 NRAB=    39 NRAA=     0 NRBB=     0 NR=    78.
 Norm of the A-vectors is  2.5776372D-04 conv= 1.00D-05.
 RLE energy=       -0.7473372368
 DE(Corr)= -0.74733761     E(CORR)=     -1590.8417570     Delta=-3.87D-06
 NORM(A)=   0.11983486D+01
 Iteration Nr.  13
 **********************
 DD1Dir will call FoFJK   2 times, MxPair=        78
 NAB=    78 NAA=     0 NBB=     0 NumPrc=  4.
 DD1Dir:  Pass   1 NRAB=    39 NRAA=     0 NRBB=     0 NR=    78.
 DD1Dir:  Pass   2 NRAB=    39 NRAA=     0 NRBB=     0 NR=    78.
 Norm of the A-vectors is  1.1805907D-04 conv= 1.00D-05.
 RLE energy=       -0.7473371250
 DE(Corr)= -0.74733654     E(CORR)=     -1590.8417559     Delta= 1.07D-06
 NORM(A)=   0.11983517D+01
 Iteration Nr.  14
 **********************
 DD1Dir will call FoFJK   2 times, MxPair=        78
 NAB=    78 NAA=     0 NBB=     0 NumPrc=  4.
 DD1Dir:  Pass   1 NRAB=    39 NRAA=     0 NRBB=     0 NR=    78.
 DD1Dir:  Pass   2 NRAB=    39 NRAA=     0 NRBB=     0 NR=    78.
 Norm of the A-vectors is  6.4574979D-05 conv= 1.00D-05.
 RLE energy=       -0.7473374556
 DE(Corr)= -0.74733734     E(CORR)=     -1590.8417567     Delta=-8.03D-07
 NORM(A)=   0.11983534D+01
 Iteration Nr.  15
 **********************
 DD1Dir will call FoFJK   2 times, MxPair=        78
 NAB=    78 NAA=     0 NBB=     0 NumPrc=  4.
 DD1Dir:  Pass   1 NRAB=    39 NRAA=     0 NRBB=     0 NR=    78.
 DD1Dir:  Pass   2 NRAB=    39 NRAA=     0 NRBB=     0 NR=    78.
 Norm of the A-vectors is  2.7300522D-05 conv= 1.00D-05.
 RLE energy=       -0.7473374067
 DE(Corr)= -0.74733734     E(CORR)=     -1590.8417567     Delta= 2.98D-09
 NORM(A)=   0.11983541D+01
 Iteration Nr.  16
 **********************
 DD1Dir will call FoFJK   2 times, MxPair=        78
 NAB=    78 NAA=     0 NBB=     0 NumPrc=  4.
 DD1Dir:  Pass   1 NRAB=    39 NRAA=     0 NRBB=     0 NR=    78.
 DD1Dir:  Pass   2 NRAB=    39 NRAA=     0 NRBB=     0 NR=    78.
 Norm of the A-vectors is  1.8884459D-05 conv= 1.00D-05.
 RLE energy=       -0.7473375013
 DE(Corr)= -0.74733746     E(CORR)=     -1590.8417568     Delta=-1.16D-07
 NORM(A)=   0.11983546D+01
 Iteration Nr.  17
 **********************
 DD1Dir will call FoFJK   2 times, MxPair=        78
 NAB=    78 NAA=     0 NBB=     0 NumPrc=  4.
 DD1Dir:  Pass   1 NRAB=    39 NRAA=     0 NRBB=     0 NR=    78.
 DD1Dir:  Pass   2 NRAB=    39 NRAA=     0 NRBB=     0 NR=    78.
 Norm of the A-vectors is  9.5898409D-06 conv= 1.00D-05.
 RLE energy=       -0.7473374767
 DE(Corr)= -0.74733746     E(CORR)=     -1590.8417568     Delta=-5.09D-09
 NORM(A)=   0.11983547D+01
 CI/CC converged in   17 iterations to DelEn=-5.09D-09 Conv= 1.00D-07 ErrA1= 9.59D-06 Conv= 1.00D-05
 Dominant configurations:
 ***********************
 Spin Case        I    J    A    B          Value
   ABAB          32   32   33   33      -0.186590D+00
 Largest amplitude= 1.87D-01
 IPart=  1 IA=    9   10.02% done.
 IPart=  2 IA=   18   20.67% done.
 IPart=  4 IA=   27   30.65% done.
 IPart=  1 IA=   37   40.94% done.
 IPart=  2 IA=   47   50.41% done.
 IPart=  2 IA=   59   60.69% done.
 IPart=  3 IA=   72   70.47% done.
 IPart=  2 IA=   87   80.02% done.
 IPart=  1 IA=  108   90.27% done.
 Time for triples=      628.19 seconds.
 T4(CCSD)= -0.62159146D-01
 T5(CCSD)=  0.24138106D-02
 CCSD(T)= -0.15909015022D+04
 Discarding MO integrals.
 Leave Link  913 at Mon Oct 24 09:59:35 2016, MaxMem=    33554432 cpu:     11397.3
 (Enter /home/proyectos/fulerenos/M3C-v2.0/M3C-deps_CCC/g09-AM64L-G09RevC.01/l601.exe)
 Copying SCF densities to generalized density rwf, IOpCl= 0 IROHF=0.

 **********************************************************************

            Population analysis using the SCF density.

 **********************************************************************

 Orbital symmetries:
       Occupied  (AG) (BU) (BU) (AG) (AG) (BU) (BU) (AG) (AG) (BU)
                 (AU) (BG) (AG) (BU) (AG) (BU) (AU) (BG) (AG) (BU)
                 (AG) (BU) (AG) (BU) (AG) (BU) (AU) (AG) (BG) (BU)
                 (AG) (AU)
       Virtual   (BG) (BU) (BU) (AG) (AG) (BU) (AU) (AG) (BG) (BG)
                 (AG) (BU) (BU) (AU) (BU) (AG) (BU) (AG) (AG) (BU)
                 (AU) (BG) (BU) (AG) (AG) (BU) (AU) (BU) (BG) (AG)
                 (BU) (AG) (AU) (AG) (BU) (BG) (AU) (BG) (BU) (AU)
                 (AG) (AG) (BU) (BG) (BU) (AU) (BG) (AG) (AG) (BU)
                 (AG) (BU) (AG) (BU) (AG) (BU) (BG) (AG) (AU) (AG)
                 (BU) (AU) (BU) (AG) (BG) (BG) (AU) (BU) (BU) (AU)
                 (AG) (AG) (BG) (BU) (AG) (BU) (BG) (AU) (BU) (AG)
                 (AU) (BU) (AG) (BG) (AU) (AU) (AG) (BU) (BG) (BU)
                 (AG) (BG) (AU) (BG) (AG) (AU) (BU) (BU) (AG) (BG)
                 (BU) (AG) (BU) (AU) (AG) (AG) (BG) (BU) (AG) (AU)
                 (BG) (BU) (AG) (BU) (AG) (BU) (AG) (BG) (AU) (AG)
                 (BU) (BU) (AU) (BG) (AG) (AU) (BG) (BU) (AG) (AG)
                 (AU) (BG) (BU) (BU) (AG) (BU) (AG) (BU) (AG) (BU)
                 (AU) (BG) (BG) (AG) (BU) (AU) (AG) (BU) (AG) (BU)
                 (BU) (AG) (AG) (BU) (AG) (BU)
 The electronic state is 1-AG.
 Alpha  occ. eigenvalues --  -92.10191 -92.10191 -91.98515 -91.98515  -9.09522
 Alpha  occ. eigenvalues --   -9.09503  -8.98594  -8.98593  -6.77578  -6.77543
 Alpha  occ. eigenvalues --   -6.77511  -6.77509  -6.77464  -6.77459  -6.66744
 Alpha  occ. eigenvalues --   -6.66744  -6.66550  -6.66550  -6.66491  -6.66491
 Alpha  occ. eigenvalues --   -1.16170  -1.06965  -0.89394  -0.78381  -0.59712
 Alpha  occ. eigenvalues --   -0.56314  -0.54552  -0.49496  -0.45628  -0.41262
 Alpha  occ. eigenvalues --   -0.36010  -0.30564
 Alpha virt. eigenvalues --   -0.08718   0.04766   0.05782   0.06966   0.07954
 Alpha virt. eigenvalues --    0.08029   0.08438   0.10872   0.11195   0.11642
 Alpha virt. eigenvalues --    0.12220   0.12719   0.13361   0.14086   0.14648
 Alpha virt. eigenvalues --    0.15098   0.18623   0.18756   0.21638   0.24085
 Alpha virt. eigenvalues --    0.25919   0.27977   0.28583   0.32537   0.33365
 Alpha virt. eigenvalues --    0.33847   0.35272   0.37375   0.38470   0.38803
 Alpha virt. eigenvalues --    0.40102   0.40615   0.41526   0.41964   0.43552
 Alpha virt. eigenvalues --    0.44663   0.44690   0.45032   0.46988   0.48327
 Alpha virt. eigenvalues --    0.52444   0.54944   0.56043   0.61098   0.62708
 Alpha virt. eigenvalues --    0.64515   0.64990   0.66159   0.70664   0.71423
 Alpha virt. eigenvalues --    0.73923   0.80470   0.81230   1.02980   1.09768
 Alpha virt. eigenvalues --    1.10491   1.12502   1.15802   1.16738   1.17893
 Alpha virt. eigenvalues --    1.18304   1.19294   1.22527   1.26838   1.27790
 Alpha virt. eigenvalues --    1.28112   1.28703   1.30797   1.31932   1.32034
 Alpha virt. eigenvalues --    1.34483   1.36183   1.36246   1.39603   1.42256
 Alpha virt. eigenvalues --    1.47528   1.64672   1.66959   1.68181   1.76916
 Alpha virt. eigenvalues --    1.79951   1.84235   1.84409   1.84522   1.86792
 Alpha virt. eigenvalues --    1.87750   1.88720   1.89354   1.89447   1.90673
 Alpha virt. eigenvalues --    1.91965   1.92304   1.93481   1.95358   1.95878
 Alpha virt. eigenvalues --    1.97376   1.97676   2.02970   2.03014   2.08478
 Alpha virt. eigenvalues --    2.14645   2.16275   2.17891   2.23363   2.27743
 Alpha virt. eigenvalues --    2.34574   2.45459   2.51667   2.54493   2.57068
 Alpha virt. eigenvalues --    2.59217   2.64285   2.69852   2.74838   2.79363
 Alpha virt. eigenvalues --    2.82319   4.94070   4.95670   4.95719   4.96887
 Alpha virt. eigenvalues --    4.97771   4.98457   4.99255   5.07666   5.07831
 Alpha virt. eigenvalues --    5.09082   5.09318   5.10087   5.12404   5.22715
 Alpha virt. eigenvalues --    5.22723   5.25234   5.25769   5.60350   5.96771
 Alpha virt. eigenvalues --    5.96910   8.25941   8.47790   8.61427   8.62683
 Alpha virt. eigenvalues --   18.26526  18.31189  18.38431  18.38908  18.39733
 Alpha virt. eigenvalues --   18.39798  18.45930  18.50535  18.59056  18.65769
 Alpha virt. eigenvalues --   18.75442  18.75455 192.09529 192.34479 192.43414
 Alpha virt. eigenvalues --  192.44709
          Condensed to atoms (all electrons):
               1          2          3          4
     1  S   15.779669   0.449836  -0.032812   0.006032
     2  S    0.449836  15.025360   0.354890  -0.032812
     3  S   -0.032812   0.354890  15.025360   0.449836
     4  S    0.006032  -0.032812   0.449836  15.779669
 Mulliken charges:
               1
     1  S   -0.202726
     2  S    0.202726
     3  S    0.202726
     4  S   -0.202726
 Sum of Mulliken charges =  -0.00000
 Mulliken charges with hydrogens summed into heavy atoms:
               1
     1  S   -0.202726
     2  S    0.202726
     3  S    0.202726
     4  S   -0.202726
 Electronic spatial extent (au):  <R**2>=            956.3597
 Charge=             -0.0000 electrons
 Dipole moment (field-independent basis, Debye):
    X=             -0.0000    Y=             -0.0000    Z=              0.0000  Tot=              0.0000
 Quadrupole moment (field-independent basis, Debye-Ang):
   XX=            -52.8618   YY=            -56.7000   ZZ=            -52.5677
   XY=             -1.9869   XZ=              0.0000   YZ=              0.0000
 Traceless Quadrupole moment (field-independent basis, Debye-Ang):
   XX=              1.1814   YY=             -2.6568   ZZ=              1.4754
   XY=             -1.9869   XZ=              0.0000   YZ=              0.0000
 Octapole moment (field-independent basis, Debye-Ang**2):
  XXX=              0.0000  YYY=             -0.0000  ZZZ=              0.0000  XYY=              0.0000
  XXY=              0.0000  XXZ=              0.0000  XZZ=              0.0000  YZZ=              0.0000
  YYZ=              0.0000  XYZ=              0.0000
 Hexadecapole moment (field-independent basis, Debye-Ang**3):
 XXXX=           -368.9433 YYYY=           -885.7111 ZZZZ=            -72.6018 XXXY=           -219.6585
 XXXZ=              0.0000 YYYX=           -195.9549 YYYZ=              0.0000 ZZZX=              0.0000
 ZZZY=             -0.0000 XXYY=           -230.9043 XXZZ=            -72.8379 YYZZ=           -175.0170
 XXYZ=              0.0000 YYXZ=              0.0000 ZZXY=            -71.1902
 N-N= 3.149517358295D+02 E-N=-4.414611792560D+03  KE= 1.589773585163D+03
 Symmetry AG   KE= 7.213186941000D+02
 Symmetry BG   KE= 7.367208227212D+01
 Symmetry AU   KE= 7.700843752367D+01
 Symmetry BU   KE= 7.177743712672D+02
 Leave Link  601 at Mon Oct 24 09:59:35 2016, MaxMem=    33554432 cpu:         0.2
 (Enter /home/proyectos/fulerenos/M3C-v2.0/M3C-deps_CCC/g09-AM64L-G09RevC.01/l9999.exe)
 1\1\GINC-BELVIS6\SP\RCCSD(T)-FC\6-311++G(3df,2p)\S4\ROOT\24-Oct-2016\0
 \\#p ccsd(t)/6-311++G(3df,2p) scf(MaxCyc=300) guess(Huckel)\\ccsd(t) i
 ener\\0,1\S,0,-0.094721,-0.3453375,2.47206425\S,0,0.196195,0.6048275,0
 .81885975\S,0,-0.196195,-0.6048275,-0.81886025\S,0,0.094721,0.3453375,
 -2.47206475\\Version=EM64L-G09RevE.01\State=1-AG\HF=-1590.0944194\MP2=
 -1590.8255115\MP3=-1590.8475444\MP4D=-1590.876312\MP4DQ=-1590.8323718\
 MP4SDQ=-1590.8444088\CCSD=-1590.8417568\CCSD(T)=-1590.9015022\RMSD=9.2
 24e-09\PG=C02H [SGH(S4)]\\@


 I WANT TO KNOW HOW GOD CREATED THE WORLD.  I AM NOT INTERESTED IN
 THIS OR THAT PHENOMENON, IN THE SPECTRUM OF THIS OR THAT ELEMENT.
 I WANT TO KNOW HIS THOUGHTS, THE REST ARE DETAILS.
     -- ALBERT EINSTEIN
 Job cpu time:       0 days  3 hours 16 minutes 12.7 seconds.
 File lengths (MBytes):  RWF=    803 Int=      0 D2E=      0 Chk=      3 Scr=      1
 Normal termination of Gaussian 09 at Mon Oct 24 09:59:35 2016.
