 Entering Gaussian System, Link 0=/home/proyectos/fulerenos/M3C-v2.0/M3C-deps_CCC/g09-AM64L-G09RevC.01/g09
 Initial command:
 /home/proyectos/fulerenos/M3C-v2.0/M3C-deps_CCC/g09-AM64L-G09RevC.01/l1.exe "/scratch/naguirre/gaussian/Gau-25470.inp" -scrdir="/scratch/naguirre/gaussian/"
 Entering Link 1 = /home/proyectos/fulerenos/M3C-v2.0/M3C-deps_CCC/g09-AM64L-G09RevC.01/l1.exe PID=     25472.
  
 Copyright (c) 1988,1990,1992,1993,1995,1998,2003,2009,2015,
            Gaussian, Inc.  All Rights Reserved.
  
 This is part of the Gaussian(R) 09 program.  It is based on
 the Gaussian(R) 03 system (copyright 2003, Gaussian, Inc.),
 the Gaussian(R) 98 system (copyright 1998, Gaussian, Inc.),
 the Gaussian(R) 94 system (copyright 1995, Gaussian, Inc.),
 the Gaussian 92(TM) system (copyright 1992, Gaussian, Inc.),
 the Gaussian 90(TM) system (copyright 1990, Gaussian, Inc.),
 the Gaussian 88(TM) system (copyright 1988, Gaussian, Inc.),
 the Gaussian 86(TM) system (copyright 1986, Carnegie Mellon
 University), and the Gaussian 82(TM) system (copyright 1983,
 Carnegie Mellon University). Gaussian is a federally registered
 trademark of Gaussian, Inc.
  
 This software contains proprietary and confidential information,
 including trade secrets, belonging to Gaussian, Inc.
  
 This software is provided under written license and may be
 used, copied, transmitted, or stored only in accord with that
 written license.
  
 The following legend is applicable only to US Government
 contracts under FAR:
  
                    RESTRICTED RIGHTS LEGEND
  
 Use, reproduction and disclosure by the US Government is
 subject to restrictions as set forth in subparagraphs (a)
 and (c) of the Commercial Computer Software - Restricted
 Rights clause in FAR 52.227-19.
  
 Gaussian, Inc.
 340 Quinnipiac St., Bldg. 40, Wallingford CT 06492
  
  
 ---------------------------------------------------------------
 Warning -- This program may not be used in any manner that
 competes with the business of Gaussian, Inc. or will provide
 assistance to any competitor of Gaussian, Inc.  The licensee
 of this program is prohibited from giving any competitor of
 Gaussian, Inc. access to this program.  By using this program,
 the user acknowledges that Gaussian, Inc. is engaged in the
 business of creating and licensing software in the field of
 computational chemistry and represents and warrants to the
 licensee that it is not a competitor of Gaussian, Inc. and that
 it will not use this program in any manner prohibited above.
 ---------------------------------------------------------------
  

 Cite this work as:
 Gaussian 09, Revision E.01,
 M. J. Frisch, G. W. Trucks, H. B. Schlegel, G. E. Scuseria, 
 M. A. Robb, J. R. Cheeseman, G. Scalmani, V. Barone, B. Mennucci, 
 G. A. Petersson, H. Nakatsuji, M. Caricato, X. Li, H. P. Hratchian, 
 A. F. Izmaylov, J. Bloino, G. Zheng, J. L. Sonnenberg, M. Hada, 
 M. Ehara, K. Toyota, R. Fukuda, J. Hasegawa, M. Ishida, T. Nakajima, 
 Y. Honda, O. Kitao, H. Nakai, T. Vreven, J. A. Montgomery, Jr., 
 J. E. Peralta, F. Ogliaro, M. Bearpark, J. J. Heyd, E. Brothers, 
 K. N. Kudin, V. N. Staroverov, T. Keith, R. Kobayashi, J. Normand, 
 K. Raghavachari, A. Rendell, J. C. Burant, S. S. Iyengar, J. Tomasi, 
 M. Cossi, N. Rega, J. M. Millam, M. Klene, J. E. Knox, J. B. Cross, 
 V. Bakken, C. Adamo, J. Jaramillo, R. Gomperts, R. E. Stratmann, 
 O. Yazyev, A. J. Austin, R. Cammi, C. Pomelli, J. W. Ochterski, 
 R. L. Martin, K. Morokuma, V. G. Zakrzewski, G. A. Voth, 
 P. Salvador, J. J. Dannenberg, S. Dapprich, A. D. Daniels, 
 O. Farkas, J. B. Foresman, J. V. Ortiz, J. Cioslowski, 
 and D. J. Fox, Gaussian, Inc., Wallingford CT, 2013.
 
 ******************************************
 Gaussian 09:  EM64L-G09RevE.01 30-Nov-2015
                 3-Nov-2016 
 ******************************************
 %NProcShared=8
 Will use up to    8 processors via shared memory.
 ------------------------------------------
 #p ccsd(t)/6-311+G(3df) scf(QC,MaxCyc=300)
 ------------------------------------------
 1/38=1/1;
 2/12=2,17=6,18=5,40=1/2;
 3/5=4,6=6,7=16,11=9,16=1,25=1,30=1/1,2,3;
 4//1;
 5/5=2,7=300,8=3,38=5/8;
 8/6=4,9=120000,10=2/1,4;
 9/5=7,14=2/13;
 6/7=2,8=2,9=2,10=2/1;
 99/5=1,9=1/99;
 Leave Link    1 at Thu Nov  3 01:38:50 2016, MaxMem=           0 cpu:         0.4
 (Enter /home/proyectos/fulerenos/M3C-v2.0/M3C-deps_CCC/g09-AM64L-G09RevC.01/l101.exe)
 -------------
 ccsd(t) iener
 -------------
 Symbolic Z-matrix:
 Charge =  0 Multiplicity = 3
 S                     0.05231   0.93665  -0.68404 
 S                     1.35713   0.02656   0.72737 
 S                    -0.69314   0.33412   3.38631 
 S                    -0.66273  -0.36247  -1.94442 
 S                     0.0786   -0.93488   2.12867 
 
 NAtoms=      5 NQM=        5 NQMF=       0 NMMI=      0 NMMIF=      0
                NMic=       0 NMicF=      0.
                    Isotopes and Nuclear Properties:
 (Nuclear quadrupole moments (NQMom) in fm**2, nuclear magnetic moments (NMagM)
  in nuclear magnetons)

  Atom         1           2           3           4           5
 IAtWgt=          32          32          32          32          32
 AtmWgt=  31.9720718  31.9720718  31.9720718  31.9720718  31.9720718
 NucSpn=           0           0           0           0           0
 AtZEff=   0.0000000   0.0000000   0.0000000   0.0000000   0.0000000
 NQMom=    0.0000000   0.0000000   0.0000000   0.0000000   0.0000000
 NMagM=    0.0000000   0.0000000   0.0000000   0.0000000   0.0000000
 AtZNuc=  16.0000000  16.0000000  16.0000000  16.0000000  16.0000000
 Leave Link  101 at Thu Nov  3 01:38:50 2016, MaxMem=    33554432 cpu:         0.4
 (Enter /home/proyectos/fulerenos/M3C-v2.0/M3C-deps_CCC/g09-AM64L-G09RevC.01/l202.exe)
                          Input orientation:                          
 ---------------------------------------------------------------------
 Center     Atomic      Atomic             Coordinates (Angstroms)
 Number     Number       Type             X           Y           Z
 ---------------------------------------------------------------------
      1         16           0        0.052311    0.936646   -0.684042
      2         16           0        1.357128    0.026559    0.727367
      3         16           0       -0.693135    0.334122    3.386308
      4         16           0       -0.662728   -0.362473   -1.944423
      5         16           0        0.078604   -0.934875    2.128667
 ---------------------------------------------------------------------
                    Distance matrix (angstroms):
                    1          2          3          4          5
     1  S    0.000000
     2  S    2.126707   0.000000
     3  S    4.181683   3.371667   0.000000
     4  S    1.946163   3.371888   5.376138   0.000000
     5  S    3.378552   2.126645   1.946175   4.179387   0.000000
 Stoichiometry    S5(3)
 Framework group  C1[X(S5)]
 Deg. of freedom     9
 Full point group                 C1      NOp   1
 Largest Abelian subgroup         C1      NOp   1
 Largest concise Abelian subgroup C1      NOp   1
                         Standard orientation:                         
 ---------------------------------------------------------------------
 Center     Atomic      Atomic             Coordinates (Angstroms)
 Number     Number       Type             X           Y           Z
 ---------------------------------------------------------------------
      1         16           0       -1.450021    0.042270    0.867624
      2         16           0        0.000184    1.330960   -0.003619
      3         16           0        2.646213   -0.702638    0.477166
      4         16           0       -2.645204   -0.706382   -0.473498
      5         16           0        1.448827    0.035789   -0.867672
 ---------------------------------------------------------------------
 Rotational constants (GHZ):      3.3455682      0.7841212      0.7538433
 Leave Link  202 at Thu Nov  3 01:38:51 2016, MaxMem=    33554432 cpu:         0.1
 (Enter /home/proyectos/fulerenos/M3C-v2.0/M3C-deps_CCC/g09-AM64L-G09RevC.01/l301.exe)
 Standard basis: 6-311+G(3df) (5D, 7F)
 Ernie: Thresh=  0.10000D-02 Tol=  0.10000D-05 Strict=F.
 There are   265 symmetry adapted cartesian basis functions of A   symmetry.
 There are   235 symmetry adapted basis functions of A   symmetry.
   235 basis functions,   360 primitive gaussians,   265 cartesian basis functions
    41 alpha electrons       39 beta electrons
       nuclear repulsion energy       477.0761400696 Hartrees.
 IExCor=    0 DFT=F Ex=HF Corr=None ExCW=0 ScaHFX=  1.000000
 ScaDFX=  1.000000  1.000000  1.000000  1.000000 ScalE2=  1.000000  1.000000
 IRadAn=      0 IRanWt=     -1 IRanGd=            0 ICorTp=0 IEmpDi=  4
 NAtoms=    5 NActive=    5 NUniq=    5 SFac= 1.00D+00 NAtFMM=   60 NAOKFM=F Big=F
 Integral buffers will be    131072 words long.
 Raffenetti 2 integral format.
 Two-electron integral symmetry is turned on.
 Leave Link  301 at Thu Nov  3 01:38:51 2016, MaxMem=    33554432 cpu:         0.5
 (Enter /home/proyectos/fulerenos/M3C-v2.0/M3C-deps_CCC/g09-AM64L-G09RevC.01/l302.exe)
 NPDir=0 NMtPBC=     1 NCelOv=     1 NCel=       1 NClECP=     1 NCelD=      1
         NCelK=      1 NCelE2=     1 NClLst=     1 CellRange=     0.0.
 One-electron integrals computed using PRISM.
 PrsmSu:  requested number of processors reduced to:   4 ShMem   1 Linda.
 NBasis=   235 RedAO= T EigKep=  4.01D-04  NBF=   235
 NBsUse=   235 1.00D-06 EigRej= -1.00D+00 NBFU=   235
 Leave Link  302 at Thu Nov  3 01:38:51 2016, MaxMem=    33554432 cpu:         2.3
 (Enter /home/proyectos/fulerenos/M3C-v2.0/M3C-deps_CCC/g09-AM64L-G09RevC.01/l303.exe)
 DipDrv:  MaxL=1.
 Leave Link  303 at Thu Nov  3 01:38:51 2016, MaxMem=    33554432 cpu:         0.2
 (Enter /home/proyectos/fulerenos/M3C-v2.0/M3C-deps_CCC/g09-AM64L-G09RevC.01/l401.exe)
 ExpMin= 4.05D-02 ExpMax= 9.34D+04 ExpMxC= 3.17D+03 IAcc=2 IRadAn=         4 AccDes= 0.00D+00
 Harris functional with IExCor=  205 and IRadAn=       4 diagonalized for initial guess.
 HarFok:  IExCor=  205 AccDes= 0.00D+00 IRadAn=         4 IDoV= 1 UseB2=F ITyADJ=14
 ICtDFT=  3500011 ScaDFX=  1.000000  1.000000  1.000000  1.000000
 FoFCou: FMM=F IPFlag=           0 FMFlag=      100000 FMFlg1=           0
         NFxFlg=           0 DoJE=T BraDBF=F KetDBF=T FulRan=T
         wScrn=  0.000000 ICntrl=     500 IOpCl=  0 I1Cent=   200000004 NGrid=           0
         NMat0=    1 NMatS0=      1 NMatT0=    0 NMatD0=    1 NMtDS0=    0 NMtDT0=    0
 Petite list used in FoFCou.
 Harris En= -1985.79148033126    
 JPrj=0 DoOrth=F DoCkMO=F.
 Initial guess <Sx>= 0.0000 <Sy>= 0.0000 <Sz>= 1.0000 <S**2>= 2.0000 S= 1.0000
 Leave Link  401 at Thu Nov  3 01:38:52 2016, MaxMem=    33554432 cpu:         3.8
 (Enter /home/proyectos/fulerenos/M3C-v2.0/M3C-deps_CCC/g09-AM64L-G09RevC.01/l508.exe)
 Direct SCF.
 Tight linear equation convergence will be used.
 UHF wavefunction.
 Quadratic Convergence SCF Method.
 Line search only if initial step raises energy.
 Integral symmetry usage will be decided dynamically.
 ReadGW:  IGet=1 IStart=         402 Next=         402 LGW=           0.
 Fock matrices will be formed incrementally for  20 cycles.
 FoFJK:  IHMeth= 1 ICntrl=       0 DoSepK=F KAlg= 0 I1Cent=   0 FoldK=F
 IRaf= 870000000 NMat=   1 IRICut=       1 DoRegI=T DoRafI=F ISym2E= 1.
 FoFCou: FMM=F IPFlag=           0 FMFlag=      100000 FMFlg1=           0
         NFxFlg=           0 DoJE=F BraDBF=F KetDBF=F FulRan=T
         wScrn=  0.000000 ICntrl=       0 IOpCl=  1 I1Cent=           0 NGrid=           0
         NMat0=    1 NMatS0=      1 NMatT0=    0 NMatD0=    1 NMtDS0=    0 NMtDT0=    0
 Petite list used in FoFCou.
 Iteration   1 EE= -1987.51796106255                                    Grad=2.024D+00 Max rot=   23.7113 deg.
 Gradient too large for Newton-Raphson -- use scaled steepest descent instead.
 Alpha Gap=     0.369 HL deriv= 4.17D-05
  Beta Gap=     0.280 HL deriv= 7.09D-05
     ILin= 1 X=0.000D+00 Y=-1.987517961063D+03 DE= 0.00D+00 F= -3.19D-01
 RMSU=  4.88D-04    CP:  1.00D+00
     ILin= 2 X=3.000D-01 Y=-1.987597860915D+03 DE=-7.99D-02 F= -2.14D-01
 RMSU=  1.75D-05    CP:  1.00D+00  1.67D+00
     ILin= 3 X=5.000D-01 Y=-1.987633574609D+03 DE=-1.16D-01 F= -1.44D-01
 RMSU=  7.20D-07    CP:  1.00D+00  2.33D+00  2.80D+00
     ILin= 4 X=7.000D-01 Y=-1.987655323818D+03 DE=-1.37D-01 F= -7.40D-02
 RMSU=  1.73D-04    CP:  1.00D+00  3.00D+00  3.00D+00  3.00D+00
     ILin= 5 X=1.000D+00 Y=-1.987662002405D+03 DE=-1.44D-01 F=  2.92D-02
     Accept linear search using points  4 and  5.
     An  expanding polynomial of degree  5 produced  0.8463
 RMSU=  2.58D-05    CP:  1.00D+00  2.82D+00  3.00D+00  2.86D+00  6.54D-02
 Iteration   2 EE= -1987.66244957254     Delta-E=       -0.144488509993 Grad=3.855D-01 Max rot=    3.8674 deg.
 Gradient too large for Newton-Raphson -- use scaled steepest descent instead.
 Alpha Gap=     0.417 HL deriv= 3.12D-05
  Beta Gap=     0.329 HL deriv= 1.32D-04
     ILin= 1 X=0.000D+00 Y=-1.987662449573D+03 DE= 0.00D+00 F= -5.99D-02
 RMSU=  4.59D-04    CP:  1.00D+00  2.87D+00  3.00D+00 -3.00D+00  6.45D-02
                    CP:  1.04D+00
     ILin= 2 X=5.000D-01 Y=-1.987682699615D+03 DE=-2.03D-02 F= -2.13D-02
 RMSU=  2.07D-05    CP:  1.00D+00  2.92D+00  3.00D+00 -3.00D+00  7.35D-02
                    CP:  1.22D+00  1.80D+00
     ILin= 3 X=9.000D-01 Y=-1.987685196823D+03 DE=-2.27D-02 F=  8.63D-03
     Accept linear search using points  2 and  3.
     An  expanding polynomial of degree  3 produced  0.7084
 RMSU=  3.75D-07    CP:  1.00D+00  2.90D+00  3.00D+00 -3.00D+00  6.81D-02
                    CP:  1.12D+00  1.42D+00  4.13D-01
 Iteration   3 EE= -1987.68549336119     Delta-E=       -0.023043788656 Grad=1.375D-01 Max rot=    1.2599 deg.
 Gradient too large for Newton-Raphson -- use scaled steepest descent instead.
 Alpha Gap=     0.411 HL deriv= 2.76D-05
  Beta Gap=     0.342 HL deriv= 7.62D-05
     ILin= 1 X=0.000D+00 Y=-1.987685493361D+03 DE= 0.00D+00 F= -1.53D-02
 RMSU=  2.37D-04    CP:  1.00D+00  3.00D+00  3.00D+00 -3.00D+00  1.35D+00
                    CP:  7.41D-01  1.52D+00  2.04D+00  3.00D+00
     ILin= 2 X=8.000D-01 Y=-1.987693710202D+03 DE=-8.22D-03 F= -5.21D-03
     Reject lnstep minimum 1.732D+00 FVal=-1.987698482585D+03 Lims=  0.00D+00  8.00D-01
 RMSU=  1.27D-05    CP:  1.00D+00  3.00D+00  3.00D+00 -3.00D+00  2.52D+00
                    CP:  4.51D-01  1.59D+00  3.00D+00  3.00D+00  1.75D+00
     ILin= 3 X=1.400D+00 Y=-1.987694555699D+03 DE=-9.06D-03 F=  2.39D-03
     Accept linear search using points  2 and  3.
     An  expanding polynomial of degree  3 produced  1.1469
 RMSU=  2.43D-06    CP:  1.00D+00  3.00D+00  3.00D+00 -3.00D+00  2.03D+00
                    CP:  5.14D-01  1.56D+00  2.76D+00  3.00D+00  1.43D+00
                    CP:  3.73D-01
 Iteration   4 EE= -1987.69475460185     Delta-E=       -0.009261240654 Grad=6.808D-02 Max rot=    0.5559 deg.
 Gradient too large for Newton-Raphson -- use scaled steepest descent instead.
 Alpha Gap=     0.430 HL deriv= 7.54D-07
  Beta Gap=     0.358 HL deriv= 3.87D-05
     ILin= 1 X=0.000D+00 Y=-1.987694754602D+03 DE= 0.00D+00 F= -9.00D-03
 RMSU=  1.13D-04    CP:  1.00D+00  3.00D+00  3.00D+00 -3.00D+00  1.68D+00
                    CP:  1.83D+00  2.18D+00  3.00D+00  3.00D+00  1.65D+00
                    CP:  1.40D+00 -3.00D+00
     ILin= 2 X=9.000D-01 Y=-1.987698377146D+03 DE=-3.62D-03 F=  9.21D-04
     Accept linear search using points  1 and  2.
     An  expanding polynomial of degree  2 produced  0.7935
 RMSU=  2.17D-06    CP:  1.00D+00  3.00D+00  3.00D+00 -3.00D+00  1.72D+00
                    CP:  1.66D+00  2.11D+00  3.00D+00  3.00D+00  1.62D+00
                    CP:  1.24D+00 -3.00D+00  8.79D-01
 Iteration   5 EE= -1987.69841327126     Delta-E=       -0.003658669411 Grad=3.539D-02 Max rot=    0.8429 deg.
 Gradient too large for Newton-Raphson -- use scaled steepest descent instead.
 Alpha Gap=     0.424 HL deriv= 5.34D-06
  Beta Gap=     0.364 HL deriv= 1.97D-05
     ILin= 1 X=0.000D+00 Y=-1.987698413271D+03 DE= 0.00D+00 F= -3.31D-03
 RMSU=  5.18D-05    CP:  1.00D+00  3.00D+00  3.00D+00 -3.00D+00  2.31D+00
                    CP:  2.30D+00  2.05D+00  3.00D+00  3.00D+00  2.25D+00
                    CP:  2.82D+00 -3.00D+00  1.43D+00 -3.46D-01
     ILin= 2 X=1.000D+00 Y=-1.987700428858D+03 DE=-2.02D-03 F= -7.24D-04
     Reject lnstep minimum 1.281D+00 FVal=-1.987700530436D+03 Lims=  0.00D+00  1.00D+00
 RMSU=  1.95D-05    CP:  1.00D+00  3.00D+00  3.00D+00 -3.00D+00  2.78D+00
                    CP:  3.00D+00  2.00D+00  3.00D+00  3.00D+00  2.74D+00
                    CP:  3.00D+00 -3.00D+00  1.87D+00 -2.16D-01  1.80D+00
     ILin= 3 X=1.800D+00 Y=-1.987700184682D+03 DE=-1.77D-03 F=  1.33D-03
     An  expanding polynomial of degree  3 produced  1.2816
 RMSU=  1.54D-07    CP:  1.00D+00  3.00D+00  3.00D+00 -3.00D+00  2.47D+00
                    CP:  2.53D+00  2.03D+00  3.00D+00  3.00D+00  2.42D+00
                    CP:  3.00D+00 -3.00D+00  1.59D+00 -4.22D-01  1.28D+00
                    CP:  2.48D-01
 Iteration   6 EE= -1987.70053051056     Delta-E=       -0.002117239299 Grad=4.064D-02 Max rot=    0.2734 deg.
 Gradient too large for Newton-Raphson -- use scaled steepest descent instead.
 Alpha Gap=     0.433 HL deriv= 4.82D-06
  Beta Gap=     0.370 HL deriv= 8.54D-06
     ILin= 1 X=0.000D+00 Y=-1.987700530511D+03 DE= 0.00D+00 F= -3.10D-03
 RMSU=  3.00D-05    CP:  9.99D-01  3.00D+00  3.00D+00 -3.00D+00  2.12D+00
                    CP:  3.00D+00  2.38D+00  3.00D+00  3.00D+00  2.41D+00
                    CP:  3.00D+00 -3.00D+00  2.49D+00 -1.01D+00  1.73D+00
                    CP:  6.62D-01 -3.00D+00
     ILin= 2 X=1.000D+00 Y=-1.987701711520D+03 DE=-1.18D-03 F=  7.31D-04
     Accept linear search using points  1 and  2.
     An  expanding polynomial of degree  2 produced  0.8085
 RMSU=  2.28D-06    CP:  9.99D-01  3.00D+00  3.00D+00 -3.00D+00  2.19D+00
                    CP:  3.00D+00  2.31D+00  3.00D+00  3.00D+00  2.41D+00
                    CP:  3.00D+00 -3.00D+00  2.32D+00 -7.79D-01  1.65D+00
                    CP:  5.73D-01 -3.00D+00  7.67D-01
 Iteration   7 EE= -1987.70178154609     Delta-E=       -0.001251035526 Grad=2.109D-02 Max rot=    0.5482 deg.
 Gradient too large for Newton-Raphson -- use scaled steepest descent instead.
 Alpha Gap=     0.428 HL deriv= 1.42D-06
  Beta Gap=     0.373 HL deriv= 7.22D-07
     ILin= 1 X=0.000D+00 Y=-1.987701781546D+03 DE= 0.00D+00 F= -1.19D-03
 RMSU=  7.43D-06    CP:  1.00D+00  3.00D+00  3.00D+00 -3.00D+00  2.47D+00
                    CP:  3.00D+00  2.24D+00  3.00D+00  3.00D+00  2.69D+00
                    CP:  3.00D+00 -3.00D+00  2.71D+00  1.70D+00  2.67D+00
                    CP:  1.30D+00 -3.00D+00  1.43D+00 -1.18D+00
     ILin= 2 X=1.000D+00 Y=-1.987702522938D+03 DE=-7.41D-04 F= -2.91D-04
     Reject lnstep minimum 1.323D+00 FVal=-1.987702569859D+03 Lims=  0.00D+00  1.00D+00
 Restarting incremental Fock formation.
     ILin= 3 X=2.000D+00 Y=-1.987702364488D+03 DE=-5.83D-04 F=  6.06D-04
     An  expanding polynomial of degree  3 produced  1.3239
 RMSU=  7.76D-05    CP:  1.00D+00
 Iteration   8 EE= -1987.70256987204     Delta-E=       -0.000788325957 Grad=2.588D-02 Max rot=    0.1815 deg.
 Gradient too large for Newton-Raphson -- use scaled steepest descent instead.
 Alpha Gap=     0.433 HL deriv= 4.06D-06
  Beta Gap=     0.375 HL deriv= 2.00D-06
     ILin= 1 X=0.000D+00 Y=-1.987702569872D+03 DE= 0.00D+00 F= -1.23D-03
 RMSU=  1.27D-04    CP:  9.99D-01  1.14D+00
     ILin= 2 X=1.000D+00 Y=-1.987703042853D+03 DE=-4.73D-04 F=  2.83D-04
     Accept linear search using points  1 and  2.
     An  expanding polynomial of degree  2 produced  0.8129
 RMSU=  1.47D-07    CP:  9.99D-01  1.12D+00  8.13D-01
 Iteration   9 EE= -1987.70306929594     Delta-E=       -0.000499423902 Grad=1.340D-02 Max rot=    0.3454 deg.
 Gradient too large for Newton-Raphson -- use scaled steepest descent instead.
 Alpha Gap=     0.430 HL deriv= 1.07D-06
  Beta Gap=     0.377 HL deriv= 6.85D-06
     ILin= 1 X=0.000D+00 Y=-1.987703069296D+03 DE= 0.00D+00 F= -4.72D-04
 RMSU=  1.16D-05    CP:  1.00D+00  2.15D-01  8.14D-01  3.00D+00
     ILin= 2 X=1.000D+00 Y=-1.987703363988D+03 DE=-2.95D-04 F= -1.17D-04
     Reject lnstep minimum 1.332D+00 FVal=-1.987703383473D+03 Lims=  0.00D+00  1.00D+00
 RMSU=  1.80D-06    CP:  1.00D+00 -7.79D-01  8.15D-01  3.00D+00  2.10D+00
     ILin= 3 X=2.100D+00 Y=-1.987703279290D+03 DE=-2.10D-04 F=  2.71D-04
     An  expanding polynomial of degree  3 produced  1.3325
 RMSU=  3.54D-08    CP:  1.00D+00 -8.55D-02  8.14D-01  3.00D+00  1.33D+00
                    CP:  1.90D-01
 Iteration  10 EE= -1987.70338347491     Delta-E=       -0.000314178962 Grad=1.632D-02 Max rot=    0.1156 deg.
 Gradient too large for Newton-Raphson -- use scaled steepest descent instead.
 Alpha Gap=     0.433 HL deriv= 2.92D-06
  Beta Gap=     0.378 HL deriv= 5.49D-06
     ILin= 1 X=0.000D+00 Y=-1.987703383475D+03 DE= 0.00D+00 F= -4.85D-04
 RMSU=  4.38D-06    CP:  1.00D+00  1.47D-02  1.44D+00  1.15D+00  1.69D+00
                    CP:  5.24D-01 -3.00D+00
     ILin= 2 X=1.000D+00 Y=-1.987703569820D+03 DE=-1.86D-04 F=  1.12D-04
     Accept linear search using points  1 and  2.
     An  expanding polynomial of degree  2 produced  0.8120
 RMSU=  2.09D-08    CP:  1.00D+00 -4.07D-03  1.32D+00  2.21D+00  1.62D+00
                    CP:  4.64D-01 -3.00D+00  8.12D-01
 Iteration  11 EE= -1987.70358036884     Delta-E=       -0.000196893932 Grad=8.401D-03 Max rot=    0.2128 deg.
 QCNR:  CnvC1=1.25D-08 CnvC2=1.25D-07
 LinEq1:  Iter=  0 NonCon=     1 RMS=1.09D-04 Max=7.68D-03 NDo=     1
 AX will form     1 AO Fock derivatives at one time.
 LinEq1:  Iter=  1 NonCon=     1 RMS=6.09D-05 Max=1.21D-03 NDo=     1
 LinEq1:  Iter=  2 NonCon=     1 RMS=6.03D-06 Max=2.25D-04 NDo=     1
 LinEq1:  Iter=  3 NonCon=     1 RMS=1.76D-06 Max=5.93D-05 NDo=     1
 LinEq1:  Iter=  4 NonCon=     1 RMS=1.12D-06 Max=3.73D-05 NDo=     1
 LinEq1:  Iter=  5 NonCon=     1 RMS=2.67D-07 Max=1.04D-05 NDo=     1
 LinEq1:  Iter=  6 NonCon=     1 RMS=9.97D-08 Max=2.86D-06 NDo=     1
 LinEq1:  Iter=  7 NonCon=     1 RMS=3.78D-08 Max=1.34D-06 NDo=     1
 LinEq1:  Iter=  8 NonCon=     1 RMS=1.17D-08 Max=5.77D-07 NDo=     1
 LinEq1:  Iter=  9 NonCon=     1 RMS=4.50D-09 Max=1.28D-07 NDo=     1
 LinEq1:  Iter= 10 NonCon=     0 RMS=1.58D-09 Max=3.74D-08 NDo=     1
 Linear equations converged to 1.249D-08 1.249D-07 after    10 iterations.
 Angle between quadratic step and gradient=  46.89 degrees.
     ILin= 1 X=0.000D+00 Y=-1.987703580369D+03 DE= 0.00D+00 F= -6.48D-04
 RMSU=  4.43D-05    CP:  1.00D+00 -1.79D+00  2.15D+00 -3.00D+00  3.00D+00
                    CP:  3.00D+00 -3.00D+00  3.00D+00  3.00D+00
     ILin= 2 X=1.000D+00 Y=-1.987703896863D+03 DE=-3.16D-04 F=  2.27D-05
     Accept linear search using points  1 and  2.
     An  expanding polynomial of degree  2 produced  0.9672
     Minimum is close to point  2 DX= -3.28D-02 DF= -3.72D-07 DXR=  3.39D-02 DFR=  1.18D-03 which will be used.
 Iteration  12 EE= -1987.70389686253     Delta-E=       -0.000316493697 Grad=4.322D-04 Max rot=    0.0044 deg.
 QCNR:  CnvC1=4.32D-09 CnvC2=4.32D-08
 LinEq1:  Iter=  0 NonCon=     1 RMS=4.46D-06 Max=1.86D-04 NDo=     1
 LinEq1:  Iter=  1 NonCon=     1 RMS=2.52D-06 Max=1.40D-04 NDo=     1
 LinEq1:  Iter=  2 NonCon=     1 RMS=6.31D-07 Max=1.28D-05 NDo=     1
 LinEq1:  Iter=  3 NonCon=     1 RMS=2.10D-07 Max=4.37D-06 NDo=     1
 LinEq1:  Iter=  4 NonCon=     1 RMS=7.10D-08 Max=1.72D-06 NDo=     1
 LinEq1:  Iter=  5 NonCon=     1 RMS=2.68D-08 Max=1.03D-06 NDo=     1
 LinEq1:  Iter=  6 NonCon=     1 RMS=1.34D-08 Max=4.79D-07 NDo=     1
 LinEq1:  Iter=  7 NonCon=     1 RMS=4.72D-09 Max=8.18D-08 NDo=     1
 LinEq1:  Iter=  8 NonCon=     0 RMS=1.93D-09 Max=4.01D-08 NDo=     1
 Linear equations converged to 4.322D-09 4.322D-08 after     8 iterations.
 Angle between quadratic step and gradient=  51.32 degrees.
     ILin= 1 X=0.000D+00 Y=-1.987703896863D+03 DE= 0.00D+00 F= -1.10D-06
 RMSU=  1.64D-06    CP:  1.00D+00 -1.73D+00  2.11D+00 -3.00D+00  3.00D+00
                    CP:  3.00D+00 -3.00D+00  3.00D+00  3.00D+00  9.84D-01
     ILin= 2 X=1.000D+00 Y=-1.987703897414D+03 DE=-5.52D-07 F= -3.18D-09
     Reject lnstep minimum 1.003D+00 FVal=-1.987703897414D+03 Lims=  0.00D+00  1.00D+00
 RMSU=  7.23D-08    CP:  1.00D+00 -1.67D+00  2.07D+00 -3.00D+00  3.00D+00
                    CP:  3.00D+00 -3.00D+00  3.00D+00 -2.50D-01  9.68D-01
                    CP:  1.99D+00
     ILin= 3 X=2.000D+00 Y=-1.987703896870D+03 DE=-7.88D-09 F=  1.09D-06
     An  expanding polynomial of degree  3 produced  1.0036
     Minimum is close to point  2 DX=  3.60D-03 DF= -7.05D-12 DXR=  3.58D-03 DFR=  1.28D-05 which will be used.
 Iteration  13 EE= -1987.70389741419     Delta-E=       -0.000000551656 Grad=1.080D-05 Max rot=    0.0001 deg.
 QCNR:  CnvC1=1.08D-10 CnvC2=1.08D-09
 LinEq1:  Iter=  0 NonCon=     1 RMS=4.54D-08 Max=1.14D-06 NDo=     1
 LinEq1:  Iter=  1 NonCon=     1 RMS=2.43D-08 Max=9.87D-07 NDo=     1
 LinEq1:  Iter=  2 NonCon=     1 RMS=9.17D-09 Max=2.91D-07 NDo=     1
 LinEq1:  Iter=  3 NonCon=     1 RMS=4.32D-09 Max=1.19D-07 NDo=     1
 LinEq1:  Iter=  4 NonCon=     1 RMS=1.89D-09 Max=5.73D-08 NDo=     1
 LinEq1:  Iter=  5 NonCon=     1 RMS=6.87D-10 Max=2.39D-08 NDo=     1
 LinEq1:  Iter=  6 NonCon=     1 RMS=2.62D-10 Max=1.25D-08 NDo=     1
 LinEq1:  Iter=  7 NonCon=     1 RMS=9.68D-11 Max=2.61D-09 NDo=     1
 LinEq1:  Iter=  8 NonCon=     1 RMS=4.96D-11 Max=1.33D-09 NDo=     1
 LinEq1:  Iter=  9 NonCon=     0 RMS=1.68D-11 Max=3.62D-10 NDo=     1
 Linear equations converged to 1.080D-10 1.080D-09 after     9 iterations.
 Angle between quadratic step and gradient=  74.83 degrees.
     ILin= 1 X=0.000D+00 Y=-1.987703897414D+03 DE= 0.00D+00 F= -1.16D-10
 RMSU=  8.31D-08    CP:  1.00D+00 -1.73D+00  2.11D+00 -3.00D+00  3.00D+00
                    CP:  3.00D+00 -3.00D+00  3.00D+00  3.00D+00  9.83D-01
                    CP:  1.01D+00  7.55D-02
     ILin= 2 X=1.000D+00 Y=-1.987703897414D+03 DE=-4.96D-11
 Iteration  14 EE= -1987.70389741424     Delta-E=       -0.000000000050 Grad=5.979D-07 Max rot=    0.0000 deg.
 Rotation gradient small -- convergence achieved.
 SCF Done:  E(UHF) =  -1987.70389741     a.u. after   14 cycles
            Convg  =    0.5979D-06                    60 Fock formations.
              S**2 =  2.0493                  -V/T =  2.0001
 <Sx>= 0.0000 <Sy>= 0.0000 <Sz>= 1.0000 <S**2>= 2.0493 S= 1.0163
 <L.S>= 0.000000000000E+00
 Annihilation of the first spin contaminant:
 S**2 before annihilation     2.0493,   after     2.0015
 Leave Link  508 at Thu Nov  3 01:42:26 2016, MaxMem=    33554432 cpu:      1679.1
 (Enter /home/proyectos/fulerenos/M3C-v2.0/M3C-deps_CCC/g09-AM64L-G09RevC.01/l801.exe)
 Windowed orbitals will be sorted by symmetry type.
 ExpMin= 4.05D-02 ExpMax= 9.34D+04 ExpMxC= 3.17D+03 IAcc=3 IRadAn=         5 AccDes= 0.00D+00
 HarFok:  IExCor=  205 AccDes= 0.00D+00 IRadAn=         5 IDoV=-2 UseB2=F ITyADJ=14
 ICtDFT= 12500011 ScaDFX=  1.000000  1.000000  1.000000  1.000000
 Largest valence mixing into a core orbital is  4.89D-04
 Largest core mixing into a valence orbital is  2.38D-04
 Largest valence mixing into a core orbital is  4.93D-04
 Largest core mixing into a valence orbital is  2.47D-04
 Range of M.O.s used for correlation:    26   235
 NBasis=   235 NAE=    41 NBE=    39 NFC=    25 NFV=     0
 NROrb=    210 NOA=    16 NOB=    14 NVA=   194 NVB=   196

 **** Warning!!: The largest alpha MO coefficient is  0.15782462D+02


 **** Warning!!: The largest beta MO coefficient is  0.15953805D+02

 Leave Link  801 at Thu Nov  3 01:42:26 2016, MaxMem=    33554432 cpu:         0.9
 (Enter /home/proyectos/fulerenos/M3C-v2.0/M3C-deps_CCC/g09-AM64L-G09RevC.01/l804.exe)
 Open-shell transformation, MDV=    33554432 ITran=4 ISComp=1.
 Semi-Direct transformation.
 ModeAB=           4 MOrb=            16 LenV=      32120257
 LASXX=     70371060 LTotXX=    70371060 LenRXX=   142153260
 LTotAB=    71782200 MaxLAS=   110742240 LenRXY=           0
 NonZer=   212524320 LenScr=   322681856 LnRSAI=   110742240
 LnScr1=   169211392 LExtra=           0 Total=    744788748
 MaxDsk=          -1 SrtSym=           T ITran=            4
 GetIJB would need an additional    21661360 words of memory to use all   8 processors.
 DoSDTr:  NPSUse=  1
 JobTyp=1 Pass  1:  I=   1 to  16.
 Complete sort for first half transformation.
 First half transformation complete.
 Begin second half transformation for I=  10.
 Complete sort for second half transformation.
 Second half transformation complete.
 ModeAB=           4 MOrb=            14 LenV=      32120257
 LASXX=     61960276 LTotXX=    61960276 LenRXX=   115849111
 LTotAB=    53888835 MaxLAS=    96899460 LenRXY=           0
 NonZer=   177809387 LenScr=   269828096 LnRSAI=    96899460
 LnScr1=   148449280 LExtra=           0 Total=    631025947
 MaxDsk=          -1 SrtSym=           T ITran=            4
 GetIJB would need an additional    20813360 words of memory to use all   8 processors.
 DoSDTr:  NPSUse=  1
 JobTyp=2 Pass  1:  I=   1 to  14.
 Complete sort for first half transformation.
 First half transformation complete.
 Begin second half transformation for I=  10.
 Complete sort for second half transformation.
 Second half transformation complete.
 Spin components of T(2) and E(2):
     alpha-alpha T2 =       0.5257006818D-01 E2=     -0.1121265718D+00
     alpha-beta  T2 =       0.2620742353D+00 E2=     -0.5985354825D+00
     beta-beta   T2 =       0.4947452627D-01 E2=     -0.9708277723D-01
 ANorm=    0.1167954978D+01
 E2 =    -0.8077448315D+00 EUMP2 =    -0.19885116422458D+04
 (S**2,0)=  0.20493D+01           (S**2,1)=  0.20142D+01
 E(PUHF)=      -0.19877110443D+04        E(PMP2)=      -0.19885162949D+04
 Leave Link  804 at Thu Nov  3 01:47:26 2016, MaxMem=    33554432 cpu:       263.0
 (Enter /home/proyectos/fulerenos/M3C-v2.0/M3C-deps_CCC/g09-AM64L-G09RevC.01/l913.exe)
 CIDS:  MDV=    33554432.
 Frozen-core window:  NFC=  25 NFV=   0.
 IFCWin=0 IBDFC=1 NFBD=     0     0 NFCmp=     0     0 NFFFC=     0     0
 Using original routines for 1st iteration, S=T.
 Using DD4UQ or CC4UQ for 2nd and later iterations.
 Would need an additional       744838918 words for in-memory AO integral storage.
 CCSD(T)
 =======
 Iterations=  50 Convergence= 0.100D-06
 Iteration Nr.   1
 **********************
 DD1Dir will call FoFJK  20 times, MxPair=        34
 NAB=   224 NAA=   120 NBB=    91 NumPrc=  5.
 DD1Dir:  Pass   1 NRAB=    17 NRAA=     0 NRBB=     0 NR=    34.
 FoFJK:  IHMeth= 1 ICntrl=     200 DoSepK=F KAlg= 0 I1Cent=   0 FoldK=F
 IRaf= 990000000 NMat=  34 IRICut=      42 DoRegI=T DoRafI=T ISym2E=-1.
 FoFCou: FMM=F IPFlag=           0 FMFlag=      100000 FMFlg1=           0
         NFxFlg=           0 DoJE=F BraDBF=F KetDBF=F FulRan=T
         wScrn=  0.000000 ICntrl=     200 IOpCl=  0 I1Cent=           0 NGrid=           0
         NMat0=   34 NMatS0=      0 NMatT0=   17 NMatD0=   34 NMtDS0=    0 NMtDT0=    0
 Petite list used in FoFCou.
 PrRfSu:  requested number of processors reduced to:   6 ShMem   1 Linda.
 DD1Dir:  Pass   2 NRAB=    17 NRAA=     0 NRBB=     0 NR=    34.
 PrRfSu:  requested number of processors reduced to:   6 ShMem   1 Linda.
 DD1Dir:  Pass   3 NRAB=    17 NRAA=     0 NRBB=     0 NR=    34.
 PrRfSu:  requested number of processors reduced to:   6 ShMem   1 Linda.
 DD1Dir:  Pass   4 NRAB=    17 NRAA=     0 NRBB=     0 NR=    34.
 PrRfSu:  requested number of processors reduced to:   6 ShMem   1 Linda.
 DD1Dir:  Pass   5 NRAB=    17 NRAA=     0 NRBB=     0 NR=    34.
 PrRfSu:  requested number of processors reduced to:   6 ShMem   1 Linda.
 DD1Dir:  Pass   6 NRAB=    17 NRAA=     0 NRBB=     0 NR=    34.
 PrRfSu:  requested number of processors reduced to:   6 ShMem   1 Linda.
 DD1Dir:  Pass   7 NRAB=    17 NRAA=     0 NRBB=     0 NR=    34.
 PrRfSu:  requested number of processors reduced to:   6 ShMem   1 Linda.
 DD1Dir:  Pass   8 NRAB=    17 NRAA=     0 NRBB=     0 NR=    34.
 PrRfSu:  requested number of processors reduced to:   6 ShMem   1 Linda.
 DD1Dir:  Pass   9 NRAB=    17 NRAA=     0 NRBB=     0 NR=    34.
 PrRfSu:  requested number of processors reduced to:   6 ShMem   1 Linda.
 DD1Dir:  Pass  10 NRAB=    17 NRAA=     0 NRBB=     0 NR=    34.
 PrRfSu:  requested number of processors reduced to:   6 ShMem   1 Linda.
 DD1Dir:  Pass  11 NRAB=    17 NRAA=     0 NRBB=     0 NR=    34.
 PrRfSu:  requested number of processors reduced to:   6 ShMem   1 Linda.
 DD1Dir:  Pass  12 NRAB=    17 NRAA=     0 NRBB=     0 NR=    34.
 PrRfSu:  requested number of processors reduced to:   6 ShMem   1 Linda.
 DD1Dir:  Pass  13 NRAB=    17 NRAA=     0 NRBB=     0 NR=    34.
 PrRfSu:  requested number of processors reduced to:   6 ShMem   1 Linda.
 DD1Dir:  Pass  14 NRAB=     3 NRAA=    28 NRBB=     0 NR=    34.
 PrRfSu:  requested number of processors reduced to:   6 ShMem   1 Linda.
 DD1Dir:  Pass  15 NRAB=     0 NRAA=    34 NRBB=     0 NR=    34.
 PrRfSu:  requested number of processors reduced to:   6 ShMem   1 Linda.
 DD1Dir:  Pass  16 NRAB=     0 NRAA=    34 NRBB=     0 NR=    34.
 PrRfSu:  requested number of processors reduced to:   6 ShMem   1 Linda.
 DD1Dir:  Pass  17 NRAB=     0 NRAA=    24 NRBB=    10 NR=    34.
 PrRfSu:  requested number of processors reduced to:   6 ShMem   1 Linda.
 DD1Dir:  Pass  18 NRAB=     0 NRAA=     0 NRBB=    34 NR=    34.
 PrRfSu:  requested number of processors reduced to:   6 ShMem   1 Linda.
 DD1Dir:  Pass  19 NRAB=     0 NRAA=     0 NRBB=    34 NR=    34.
 PrRfSu:  requested number of processors reduced to:   6 ShMem   1 Linda.
 DD1Dir:  Pass  20 NRAB=     0 NRAA=     0 NRBB=    13 NR=    13.
 PrRfSu:  requested number of processors reduced to:   7 ShMem   1 Linda.
 E(PMP3)=      -0.19885753346D+04
 MP4(R+Q)=  0.30843474D-01
 Maximum subspace dimension=  5
 Norm of the A-vectors is  1.8326233D+00 conv= 1.00D-05.
 RLE energy=       -0.8392748585
 E3=       -0.61062567D-01        EUMP3=      -0.19885727048D+04
 E4(DQ)=    0.55259726D-02        UMP4(DQ)=   -0.19885671788D+04
 E4(SDQ)=  -0.49626725D-02        UMP4(SDQ)=  -0.19885776675D+04
 VARIATIONAL ENERGIES WITH THE FIRST-ORDER WAVEFUNCTION:
 DE(Corr)= -0.83809035     E(Corr)=     -1988.5419878    
 NORM(A)=   0.11856430D+01
 Iteration Nr.   2
 **********************
 DD1Dir will call FoFJK  20 times, MxPair=        34
 NAB=   224 NAA=   120 NBB=    91 NumPrc=  5.
 DD1Dir:  Pass   1 NRAB=    17 NRAA=     0 NRBB=     0 NR=    34.
 PrRfSu:  requested number of processors reduced to:   6 ShMem   1 Linda.
 DD1Dir:  Pass   2 NRAB=    17 NRAA=     0 NRBB=     0 NR=    34.
 PrRfSu:  requested number of processors reduced to:   6 ShMem   1 Linda.
 DD1Dir:  Pass   3 NRAB=    17 NRAA=     0 NRBB=     0 NR=    34.
 PrRfSu:  requested number of processors reduced to:   6 ShMem   1 Linda.
 DD1Dir:  Pass   4 NRAB=    17 NRAA=     0 NRBB=     0 NR=    34.
 PrRfSu:  requested number of processors reduced to:   6 ShMem   1 Linda.
 DD1Dir:  Pass   5 NRAB=    17 NRAA=     0 NRBB=     0 NR=    34.
 PrRfSu:  requested number of processors reduced to:   6 ShMem   1 Linda.
 DD1Dir:  Pass   6 NRAB=    17 NRAA=     0 NRBB=     0 NR=    34.
 PrRfSu:  requested number of processors reduced to:   6 ShMem   1 Linda.
 DD1Dir:  Pass   7 NRAB=    17 NRAA=     0 NRBB=     0 NR=    34.
 PrRfSu:  requested number of processors reduced to:   6 ShMem   1 Linda.
 DD1Dir:  Pass   8 NRAB=    17 NRAA=     0 NRBB=     0 NR=    34.
 PrRfSu:  requested number of processors reduced to:   6 ShMem   1 Linda.
 DD1Dir:  Pass   9 NRAB=    17 NRAA=     0 NRBB=     0 NR=    34.
 PrRfSu:  requested number of processors reduced to:   6 ShMem   1 Linda.
 DD1Dir:  Pass  10 NRAB=    17 NRAA=     0 NRBB=     0 NR=    34.
 PrRfSu:  requested number of processors reduced to:   6 ShMem   1 Linda.
 DD1Dir:  Pass  11 NRAB=    17 NRAA=     0 NRBB=     0 NR=    34.
 PrRfSu:  requested number of processors reduced to:   6 ShMem   1 Linda.
 DD1Dir:  Pass  12 NRAB=    17 NRAA=     0 NRBB=     0 NR=    34.
 PrRfSu:  requested number of processors reduced to:   6 ShMem   1 Linda.
 DD1Dir:  Pass  13 NRAB=    17 NRAA=     0 NRBB=     0 NR=    34.
 PrRfSu:  requested number of processors reduced to:   6 ShMem   1 Linda.
 DD1Dir:  Pass  14 NRAB=     3 NRAA=    28 NRBB=     0 NR=    34.
 PrRfSu:  requested number of processors reduced to:   6 ShMem   1 Linda.
 DD1Dir:  Pass  15 NRAB=     0 NRAA=    34 NRBB=     0 NR=    34.
 PrRfSu:  requested number of processors reduced to:   6 ShMem   1 Linda.
 DD1Dir:  Pass  16 NRAB=     0 NRAA=    34 NRBB=     0 NR=    34.
 PrRfSu:  requested number of processors reduced to:   6 ShMem   1 Linda.
 DD1Dir:  Pass  17 NRAB=     0 NRAA=    24 NRBB=    10 NR=    34.
 PrRfSu:  requested number of processors reduced to:   6 ShMem   1 Linda.
 DD1Dir:  Pass  18 NRAB=     0 NRAA=     0 NRBB=    34 NR=    34.
 PrRfSu:  requested number of processors reduced to:   6 ShMem   1 Linda.
 DD1Dir:  Pass  19 NRAB=     0 NRAA=     0 NRBB=    34 NR=    34.
 PrRfSu:  requested number of processors reduced to:   6 ShMem   1 Linda.
 DD1Dir:  Pass  20 NRAB=     0 NRAA=     0 NRBB=    13 NR=    13.
 PrRfSu:  requested number of processors reduced to:   7 ShMem   1 Linda.
 Norm of the A-vectors is  7.8256416D-01 conv= 1.00D-05.
 RLE energy=       -0.8707293726
 DE(Corr)= -0.86684025     E(CORR)=     -1988.5707377     Delta=-2.87D-02
 NORM(A)=   0.12045637D+01
 Iteration Nr.   3
 **********************
 DD1Dir will call FoFJK  20 times, MxPair=        34
 NAB=   224 NAA=   120 NBB=    91 NumPrc=  5.
 DD1Dir:  Pass   1 NRAB=    17 NRAA=     0 NRBB=     0 NR=    34.
 PrRfSu:  requested number of processors reduced to:   6 ShMem   1 Linda.
 DD1Dir:  Pass   2 NRAB=    17 NRAA=     0 NRBB=     0 NR=    34.
 PrRfSu:  requested number of processors reduced to:   6 ShMem   1 Linda.
 DD1Dir:  Pass   3 NRAB=    17 NRAA=     0 NRBB=     0 NR=    34.
 PrRfSu:  requested number of processors reduced to:   6 ShMem   1 Linda.
 DD1Dir:  Pass   4 NRAB=    17 NRAA=     0 NRBB=     0 NR=    34.
 PrRfSu:  requested number of processors reduced to:   6 ShMem   1 Linda.
 DD1Dir:  Pass   5 NRAB=    17 NRAA=     0 NRBB=     0 NR=    34.
 PrRfSu:  requested number of processors reduced to:   6 ShMem   1 Linda.
 DD1Dir:  Pass   6 NRAB=    17 NRAA=     0 NRBB=     0 NR=    34.
 PrRfSu:  requested number of processors reduced to:   6 ShMem   1 Linda.
 DD1Dir:  Pass   7 NRAB=    17 NRAA=     0 NRBB=     0 NR=    34.
 PrRfSu:  requested number of processors reduced to:   6 ShMem   1 Linda.
 DD1Dir:  Pass   8 NRAB=    17 NRAA=     0 NRBB=     0 NR=    34.
 PrRfSu:  requested number of processors reduced to:   6 ShMem   1 Linda.
 DD1Dir:  Pass   9 NRAB=    17 NRAA=     0 NRBB=     0 NR=    34.
 PrRfSu:  requested number of processors reduced to:   6 ShMem   1 Linda.
 DD1Dir:  Pass  10 NRAB=    17 NRAA=     0 NRBB=     0 NR=    34.
 PrRfSu:  requested number of processors reduced to:   6 ShMem   1 Linda.
 DD1Dir:  Pass  11 NRAB=    17 NRAA=     0 NRBB=     0 NR=    34.
 PrRfSu:  requested number of processors reduced to:   6 ShMem   1 Linda.
 DD1Dir:  Pass  12 NRAB=    17 NRAA=     0 NRBB=     0 NR=    34.
 PrRfSu:  requested number of processors reduced to:   6 ShMem   1 Linda.
 DD1Dir:  Pass  13 NRAB=    17 NRAA=     0 NRBB=     0 NR=    34.
 PrRfSu:  requested number of processors reduced to:   6 ShMem   1 Linda.
 DD1Dir:  Pass  14 NRAB=     3 NRAA=    28 NRBB=     0 NR=    34.
 PrRfSu:  requested number of processors reduced to:   6 ShMem   1 Linda.
 DD1Dir:  Pass  15 NRAB=     0 NRAA=    34 NRBB=     0 NR=    34.
 PrRfSu:  requested number of processors reduced to:   6 ShMem   1 Linda.
 DD1Dir:  Pass  16 NRAB=     0 NRAA=    34 NRBB=     0 NR=    34.
 PrRfSu:  requested number of processors reduced to:   6 ShMem   1 Linda.
 DD1Dir:  Pass  17 NRAB=     0 NRAA=    24 NRBB=    10 NR=    34.
 PrRfSu:  requested number of processors reduced to:   6 ShMem   1 Linda.
 DD1Dir:  Pass  18 NRAB=     0 NRAA=     0 NRBB=    34 NR=    34.
 PrRfSu:  requested number of processors reduced to:   6 ShMem   1 Linda.
 DD1Dir:  Pass  19 NRAB=     0 NRAA=     0 NRBB=    34 NR=    34.
 PrRfSu:  requested number of processors reduced to:   6 ShMem   1 Linda.
 DD1Dir:  Pass  20 NRAB=     0 NRAA=     0 NRBB=    13 NR=    13.
 PrRfSu:  requested number of processors reduced to:   7 ShMem   1 Linda.
 Norm of the A-vectors is  2.0824068D-01 conv= 1.00D-05.
 RLE energy=       -0.8727706318
 DE(Corr)= -0.86935739     E(CORR)=     -1988.5732548     Delta=-2.52D-03
 NORM(A)=   0.12125659D+01
 Iteration Nr.   4
 **********************
 DD1Dir will call FoFJK  20 times, MxPair=        34
 NAB=   224 NAA=   120 NBB=    91 NumPrc=  5.
 DD1Dir:  Pass   1 NRAB=    17 NRAA=     0 NRBB=     0 NR=    34.
 PrRfSu:  requested number of processors reduced to:   6 ShMem   1 Linda.
 DD1Dir:  Pass   2 NRAB=    17 NRAA=     0 NRBB=     0 NR=    34.
 PrRfSu:  requested number of processors reduced to:   6 ShMem   1 Linda.
 DD1Dir:  Pass   3 NRAB=    17 NRAA=     0 NRBB=     0 NR=    34.
 PrRfSu:  requested number of processors reduced to:   6 ShMem   1 Linda.
 DD1Dir:  Pass   4 NRAB=    17 NRAA=     0 NRBB=     0 NR=    34.
 PrRfSu:  requested number of processors reduced to:   6 ShMem   1 Linda.
 DD1Dir:  Pass   5 NRAB=    17 NRAA=     0 NRBB=     0 NR=    34.
 PrRfSu:  requested number of processors reduced to:   6 ShMem   1 Linda.
 DD1Dir:  Pass   6 NRAB=    17 NRAA=     0 NRBB=     0 NR=    34.
 PrRfSu:  requested number of processors reduced to:   6 ShMem   1 Linda.
 DD1Dir:  Pass   7 NRAB=    17 NRAA=     0 NRBB=     0 NR=    34.
 PrRfSu:  requested number of processors reduced to:   6 ShMem   1 Linda.
 DD1Dir:  Pass   8 NRAB=    17 NRAA=     0 NRBB=     0 NR=    34.
 PrRfSu:  requested number of processors reduced to:   6 ShMem   1 Linda.
 DD1Dir:  Pass   9 NRAB=    17 NRAA=     0 NRBB=     0 NR=    34.
 PrRfSu:  requested number of processors reduced to:   6 ShMem   1 Linda.
 DD1Dir:  Pass  10 NRAB=    17 NRAA=     0 NRBB=     0 NR=    34.
 PrRfSu:  requested number of processors reduced to:   6 ShMem   1 Linda.
 DD1Dir:  Pass  11 NRAB=    17 NRAA=     0 NRBB=     0 NR=    34.
 PrRfSu:  requested number of processors reduced to:   6 ShMem   1 Linda.
 DD1Dir:  Pass  12 NRAB=    17 NRAA=     0 NRBB=     0 NR=    34.
 PrRfSu:  requested number of processors reduced to:   6 ShMem   1 Linda.
 DD1Dir:  Pass  13 NRAB=    17 NRAA=     0 NRBB=     0 NR=    34.
 PrRfSu:  requested number of processors reduced to:   6 ShMem   1 Linda.
 DD1Dir:  Pass  14 NRAB=     3 NRAA=    28 NRBB=     0 NR=    34.
 PrRfSu:  requested number of processors reduced to:   6 ShMem   1 Linda.
 DD1Dir:  Pass  15 NRAB=     0 NRAA=    34 NRBB=     0 NR=    34.
 PrRfSu:  requested number of processors reduced to:   6 ShMem   1 Linda.
 DD1Dir:  Pass  16 NRAB=     0 NRAA=    34 NRBB=     0 NR=    34.
 PrRfSu:  requested number of processors reduced to:   6 ShMem   1 Linda.
 DD1Dir:  Pass  17 NRAB=     0 NRAA=    24 NRBB=    10 NR=    34.
 PrRfSu:  requested number of processors reduced to:   6 ShMem   1 Linda.
 DD1Dir:  Pass  18 NRAB=     0 NRAA=     0 NRBB=    34 NR=    34.
 PrRfSu:  requested number of processors reduced to:   6 ShMem   1 Linda.
 DD1Dir:  Pass  19 NRAB=     0 NRAA=     0 NRBB=    34 NR=    34.
 PrRfSu:  requested number of processors reduced to:   6 ShMem   1 Linda.
 DD1Dir:  Pass  20 NRAB=     0 NRAA=     0 NRBB=    13 NR=    13.
 PrRfSu:  requested number of processors reduced to:   7 ShMem   1 Linda.
 Norm of the A-vectors is  1.6513618D-01 conv= 1.00D-05.
 RLE energy=       -0.8738970132
 DE(Corr)= -0.87300154     E(CORR)=     -1988.5768990     Delta=-3.64D-03
 NORM(A)=   0.12192799D+01
 Iteration Nr.   5
 **********************
 DD1Dir will call FoFJK  20 times, MxPair=        34
 NAB=   224 NAA=   120 NBB=    91 NumPrc=  5.
 DD1Dir:  Pass   1 NRAB=    17 NRAA=     0 NRBB=     0 NR=    34.
 PrRfSu:  requested number of processors reduced to:   6 ShMem   1 Linda.
 DD1Dir:  Pass   2 NRAB=    17 NRAA=     0 NRBB=     0 NR=    34.
 PrRfSu:  requested number of processors reduced to:   6 ShMem   1 Linda.
 DD1Dir:  Pass   3 NRAB=    17 NRAA=     0 NRBB=     0 NR=    34.
 PrRfSu:  requested number of processors reduced to:   6 ShMem   1 Linda.
 DD1Dir:  Pass   4 NRAB=    17 NRAA=     0 NRBB=     0 NR=    34.
 PrRfSu:  requested number of processors reduced to:   6 ShMem   1 Linda.
 DD1Dir:  Pass   5 NRAB=    17 NRAA=     0 NRBB=     0 NR=    34.
 PrRfSu:  requested number of processors reduced to:   6 ShMem   1 Linda.
 DD1Dir:  Pass   6 NRAB=    17 NRAA=     0 NRBB=     0 NR=    34.
 PrRfSu:  requested number of processors reduced to:   6 ShMem   1 Linda.
 DD1Dir:  Pass   7 NRAB=    17 NRAA=     0 NRBB=     0 NR=    34.
 PrRfSu:  requested number of processors reduced to:   6 ShMem   1 Linda.
 DD1Dir:  Pass   8 NRAB=    17 NRAA=     0 NRBB=     0 NR=    34.
 PrRfSu:  requested number of processors reduced to:   6 ShMem   1 Linda.
 DD1Dir:  Pass   9 NRAB=    17 NRAA=     0 NRBB=     0 NR=    34.
 PrRfSu:  requested number of processors reduced to:   6 ShMem   1 Linda.
 DD1Dir:  Pass  10 NRAB=    17 NRAA=     0 NRBB=     0 NR=    34.
 PrRfSu:  requested number of processors reduced to:   6 ShMem   1 Linda.
 DD1Dir:  Pass  11 NRAB=    17 NRAA=     0 NRBB=     0 NR=    34.
 PrRfSu:  requested number of processors reduced to:   6 ShMem   1 Linda.
 DD1Dir:  Pass  12 NRAB=    17 NRAA=     0 NRBB=     0 NR=    34.
 PrRfSu:  requested number of processors reduced to:   6 ShMem   1 Linda.
 DD1Dir:  Pass  13 NRAB=    17 NRAA=     0 NRBB=     0 NR=    34.
 PrRfSu:  requested number of processors reduced to:   6 ShMem   1 Linda.
 DD1Dir:  Pass  14 NRAB=     3 NRAA=    28 NRBB=     0 NR=    34.
 PrRfSu:  requested number of processors reduced to:   6 ShMem   1 Linda.
 DD1Dir:  Pass  15 NRAB=     0 NRAA=    34 NRBB=     0 NR=    34.
 PrRfSu:  requested number of processors reduced to:   6 ShMem   1 Linda.
 DD1Dir:  Pass  16 NRAB=     0 NRAA=    34 NRBB=     0 NR=    34.
 PrRfSu:  requested number of processors reduced to:   6 ShMem   1 Linda.
 DD1Dir:  Pass  17 NRAB=     0 NRAA=    24 NRBB=    10 NR=    34.
 PrRfSu:  requested number of processors reduced to:   6 ShMem   1 Linda.
 DD1Dir:  Pass  18 NRAB=     0 NRAA=     0 NRBB=    34 NR=    34.
 PrRfSu:  requested number of processors reduced to:   6 ShMem   1 Linda.
 DD1Dir:  Pass  19 NRAB=     0 NRAA=     0 NRBB=    34 NR=    34.
 PrRfSu:  requested number of processors reduced to:   6 ShMem   1 Linda.
 DD1Dir:  Pass  20 NRAB=     0 NRAA=     0 NRBB=    13 NR=    13.
 PrRfSu:  requested number of processors reduced to:   7 ShMem   1 Linda.
 Norm of the A-vectors is  7.0397637D-02 conv= 1.00D-05.
 RLE energy=       -0.8747062781
 DE(Corr)= -0.87410084     E(CORR)=     -1988.5779983     Delta=-1.10D-03
 NORM(A)=   0.12240998D+01
 Iteration Nr.   6
 **********************
 DD1Dir will call FoFJK  20 times, MxPair=        34
 NAB=   224 NAA=   120 NBB=    91 NumPrc=  5.
 DD1Dir:  Pass   1 NRAB=    17 NRAA=     0 NRBB=     0 NR=    34.
 PrRfSu:  requested number of processors reduced to:   6 ShMem   1 Linda.
 DD1Dir:  Pass   2 NRAB=    17 NRAA=     0 NRBB=     0 NR=    34.
 PrRfSu:  requested number of processors reduced to:   6 ShMem   1 Linda.
 DD1Dir:  Pass   3 NRAB=    17 NRAA=     0 NRBB=     0 NR=    34.
 PrRfSu:  requested number of processors reduced to:   6 ShMem   1 Linda.
 DD1Dir:  Pass   4 NRAB=    17 NRAA=     0 NRBB=     0 NR=    34.
 PrRfSu:  requested number of processors reduced to:   6 ShMem   1 Linda.
 DD1Dir:  Pass   5 NRAB=    17 NRAA=     0 NRBB=     0 NR=    34.
 PrRfSu:  requested number of processors reduced to:   6 ShMem   1 Linda.
 DD1Dir:  Pass   6 NRAB=    17 NRAA=     0 NRBB=     0 NR=    34.
 PrRfSu:  requested number of processors reduced to:   6 ShMem   1 Linda.
 DD1Dir:  Pass   7 NRAB=    17 NRAA=     0 NRBB=     0 NR=    34.
 PrRfSu:  requested number of processors reduced to:   6 ShMem   1 Linda.
 DD1Dir:  Pass   8 NRAB=    17 NRAA=     0 NRBB=     0 NR=    34.
 PrRfSu:  requested number of processors reduced to:   6 ShMem   1 Linda.
 DD1Dir:  Pass   9 NRAB=    17 NRAA=     0 NRBB=     0 NR=    34.
 PrRfSu:  requested number of processors reduced to:   6 ShMem   1 Linda.
 DD1Dir:  Pass  10 NRAB=    17 NRAA=     0 NRBB=     0 NR=    34.
 PrRfSu:  requested number of processors reduced to:   6 ShMem   1 Linda.
 DD1Dir:  Pass  11 NRAB=    17 NRAA=     0 NRBB=     0 NR=    34.
 PrRfSu:  requested number of processors reduced to:   6 ShMem   1 Linda.
 DD1Dir:  Pass  12 NRAB=    17 NRAA=     0 NRBB=     0 NR=    34.
 PrRfSu:  requested number of processors reduced to:   6 ShMem   1 Linda.
 DD1Dir:  Pass  13 NRAB=    17 NRAA=     0 NRBB=     0 NR=    34.
 PrRfSu:  requested number of processors reduced to:   6 ShMem   1 Linda.
 DD1Dir:  Pass  14 NRAB=     3 NRAA=    28 NRBB=     0 NR=    34.
 PrRfSu:  requested number of processors reduced to:   6 ShMem   1 Linda.
 DD1Dir:  Pass  15 NRAB=     0 NRAA=    34 NRBB=     0 NR=    34.
 PrRfSu:  requested number of processors reduced to:   6 ShMem   1 Linda.
 DD1Dir:  Pass  16 NRAB=     0 NRAA=    34 NRBB=     0 NR=    34.
 PrRfSu:  requested number of processors reduced to:   6 ShMem   1 Linda.
 DD1Dir:  Pass  17 NRAB=     0 NRAA=    24 NRBB=    10 NR=    34.
 PrRfSu:  requested number of processors reduced to:   6 ShMem   1 Linda.
 DD1Dir:  Pass  18 NRAB=     0 NRAA=     0 NRBB=    34 NR=    34.
 PrRfSu:  requested number of processors reduced to:   6 ShMem   1 Linda.
 DD1Dir:  Pass  19 NRAB=     0 NRAA=     0 NRBB=    34 NR=    34.
 PrRfSu:  requested number of processors reduced to:   6 ShMem   1 Linda.
 DD1Dir:  Pass  20 NRAB=     0 NRAA=     0 NRBB=    13 NR=    13.
 PrRfSu:  requested number of processors reduced to:   7 ShMem   1 Linda.
 Norm of the A-vectors is  4.6982890D-02 conv= 1.00D-05.
 RLE energy=       -0.8744802594
 DE(Corr)= -0.87452340     E(CORR)=     -1988.5784208     Delta=-4.23D-04
 NORM(A)=   0.12253275D+01
 Iteration Nr.   7
 **********************
 DD1Dir will call FoFJK  20 times, MxPair=        34
 NAB=   224 NAA=   120 NBB=    91 NumPrc=  5.
 DD1Dir:  Pass   1 NRAB=    17 NRAA=     0 NRBB=     0 NR=    34.
 PrRfSu:  requested number of processors reduced to:   6 ShMem   1 Linda.
 DD1Dir:  Pass   2 NRAB=    17 NRAA=     0 NRBB=     0 NR=    34.
 PrRfSu:  requested number of processors reduced to:   6 ShMem   1 Linda.
 DD1Dir:  Pass   3 NRAB=    17 NRAA=     0 NRBB=     0 NR=    34.
 PrRfSu:  requested number of processors reduced to:   6 ShMem   1 Linda.
 DD1Dir:  Pass   4 NRAB=    17 NRAA=     0 NRBB=     0 NR=    34.
 PrRfSu:  requested number of processors reduced to:   6 ShMem   1 Linda.
 DD1Dir:  Pass   5 NRAB=    17 NRAA=     0 NRBB=     0 NR=    34.
 PrRfSu:  requested number of processors reduced to:   6 ShMem   1 Linda.
 DD1Dir:  Pass   6 NRAB=    17 NRAA=     0 NRBB=     0 NR=    34.
 PrRfSu:  requested number of processors reduced to:   6 ShMem   1 Linda.
 DD1Dir:  Pass   7 NRAB=    17 NRAA=     0 NRBB=     0 NR=    34.
 PrRfSu:  requested number of processors reduced to:   6 ShMem   1 Linda.
 DD1Dir:  Pass   8 NRAB=    17 NRAA=     0 NRBB=     0 NR=    34.
 PrRfSu:  requested number of processors reduced to:   6 ShMem   1 Linda.
 DD1Dir:  Pass   9 NRAB=    17 NRAA=     0 NRBB=     0 NR=    34.
 PrRfSu:  requested number of processors reduced to:   6 ShMem   1 Linda.
 DD1Dir:  Pass  10 NRAB=    17 NRAA=     0 NRBB=     0 NR=    34.
 PrRfSu:  requested number of processors reduced to:   6 ShMem   1 Linda.
 DD1Dir:  Pass  11 NRAB=    17 NRAA=     0 NRBB=     0 NR=    34.
 PrRfSu:  requested number of processors reduced to:   6 ShMem   1 Linda.
 DD1Dir:  Pass  12 NRAB=    17 NRAA=     0 NRBB=     0 NR=    34.
 PrRfSu:  requested number of processors reduced to:   6 ShMem   1 Linda.
 DD1Dir:  Pass  13 NRAB=    17 NRAA=     0 NRBB=     0 NR=    34.
 PrRfSu:  requested number of processors reduced to:   6 ShMem   1 Linda.
 DD1Dir:  Pass  14 NRAB=     3 NRAA=    28 NRBB=     0 NR=    34.
 PrRfSu:  requested number of processors reduced to:   6 ShMem   1 Linda.
 DD1Dir:  Pass  15 NRAB=     0 NRAA=    34 NRBB=     0 NR=    34.
 PrRfSu:  requested number of processors reduced to:   6 ShMem   1 Linda.
 DD1Dir:  Pass  16 NRAB=     0 NRAA=    34 NRBB=     0 NR=    34.
 PrRfSu:  requested number of processors reduced to:   6 ShMem   1 Linda.
 DD1Dir:  Pass  17 NRAB=     0 NRAA=    24 NRBB=    10 NR=    34.
 PrRfSu:  requested number of processors reduced to:   6 ShMem   1 Linda.
 DD1Dir:  Pass  18 NRAB=     0 NRAA=     0 NRBB=    34 NR=    34.
 PrRfSu:  requested number of processors reduced to:   6 ShMem   1 Linda.
 DD1Dir:  Pass  19 NRAB=     0 NRAA=     0 NRBB=    34 NR=    34.
 PrRfSu:  requested number of processors reduced to:   6 ShMem   1 Linda.
 DD1Dir:  Pass  20 NRAB=     0 NRAA=     0 NRBB=    13 NR=    13.
 PrRfSu:  requested number of processors reduced to:   7 ShMem   1 Linda.
 Norm of the A-vectors is  1.6808989D-02 conv= 1.00D-05.
 RLE energy=       -0.8745578980
 DE(Corr)= -0.87461775     E(CORR)=     -1988.5785152     Delta=-9.44D-05
 NORM(A)=   0.12256551D+01
 Iteration Nr.   8
 **********************
 DD1Dir will call FoFJK  20 times, MxPair=        34
 NAB=   224 NAA=   120 NBB=    91 NumPrc=  5.
 DD1Dir:  Pass   1 NRAB=    17 NRAA=     0 NRBB=     0 NR=    34.
 PrRfSu:  requested number of processors reduced to:   6 ShMem   1 Linda.
 DD1Dir:  Pass   2 NRAB=    17 NRAA=     0 NRBB=     0 NR=    34.
 PrRfSu:  requested number of processors reduced to:   6 ShMem   1 Linda.
 DD1Dir:  Pass   3 NRAB=    17 NRAA=     0 NRBB=     0 NR=    34.
 PrRfSu:  requested number of processors reduced to:   6 ShMem   1 Linda.
 DD1Dir:  Pass   4 NRAB=    17 NRAA=     0 NRBB=     0 NR=    34.
 PrRfSu:  requested number of processors reduced to:   6 ShMem   1 Linda.
 DD1Dir:  Pass   5 NRAB=    17 NRAA=     0 NRBB=     0 NR=    34.
 PrRfSu:  requested number of processors reduced to:   6 ShMem   1 Linda.
 DD1Dir:  Pass   6 NRAB=    17 NRAA=     0 NRBB=     0 NR=    34.
 PrRfSu:  requested number of processors reduced to:   6 ShMem   1 Linda.
 DD1Dir:  Pass   7 NRAB=    17 NRAA=     0 NRBB=     0 NR=    34.
 PrRfSu:  requested number of processors reduced to:   6 ShMem   1 Linda.
 DD1Dir:  Pass   8 NRAB=    17 NRAA=     0 NRBB=     0 NR=    34.
 PrRfSu:  requested number of processors reduced to:   6 ShMem   1 Linda.
 DD1Dir:  Pass   9 NRAB=    17 NRAA=     0 NRBB=     0 NR=    34.
 PrRfSu:  requested number of processors reduced to:   6 ShMem   1 Linda.
 DD1Dir:  Pass  10 NRAB=    17 NRAA=     0 NRBB=     0 NR=    34.
 PrRfSu:  requested number of processors reduced to:   6 ShMem   1 Linda.
 DD1Dir:  Pass  11 NRAB=    17 NRAA=     0 NRBB=     0 NR=    34.
 PrRfSu:  requested number of processors reduced to:   6 ShMem   1 Linda.
 DD1Dir:  Pass  12 NRAB=    17 NRAA=     0 NRBB=     0 NR=    34.
 PrRfSu:  requested number of processors reduced to:   6 ShMem   1 Linda.
 DD1Dir:  Pass  13 NRAB=    17 NRAA=     0 NRBB=     0 NR=    34.
 PrRfSu:  requested number of processors reduced to:   6 ShMem   1 Linda.
 DD1Dir:  Pass  14 NRAB=     3 NRAA=    28 NRBB=     0 NR=    34.
 PrRfSu:  requested number of processors reduced to:   6 ShMem   1 Linda.
 DD1Dir:  Pass  15 NRAB=     0 NRAA=    34 NRBB=     0 NR=    34.
 PrRfSu:  requested number of processors reduced to:   6 ShMem   1 Linda.
 DD1Dir:  Pass  16 NRAB=     0 NRAA=    34 NRBB=     0 NR=    34.
 PrRfSu:  requested number of processors reduced to:   6 ShMem   1 Linda.
 DD1Dir:  Pass  17 NRAB=     0 NRAA=    24 NRBB=    10 NR=    34.
 PrRfSu:  requested number of processors reduced to:   6 ShMem   1 Linda.
 DD1Dir:  Pass  18 NRAB=     0 NRAA=     0 NRBB=    34 NR=    34.
 PrRfSu:  requested number of processors reduced to:   6 ShMem   1 Linda.
 DD1Dir:  Pass  19 NRAB=     0 NRAA=     0 NRBB=    34 NR=    34.
 PrRfSu:  requested number of processors reduced to:   6 ShMem   1 Linda.
 DD1Dir:  Pass  20 NRAB=     0 NRAA=     0 NRBB=    13 NR=    13.
 PrRfSu:  requested number of processors reduced to:   7 ShMem   1 Linda.
 Norm of the A-vectors is  1.1692513D-02 conv= 1.00D-05.
 RLE energy=       -0.8745986384
 DE(Corr)= -0.87460500     E(CORR)=     -1988.5785024     Delta= 1.28D-05
 NORM(A)=   0.12257289D+01
 Iteration Nr.   9
 **********************
 DD1Dir will call FoFJK  20 times, MxPair=        34
 NAB=   224 NAA=   120 NBB=    91 NumPrc=  5.
 DD1Dir:  Pass   1 NRAB=    17 NRAA=     0 NRBB=     0 NR=    34.
 PrRfSu:  requested number of processors reduced to:   6 ShMem   1 Linda.
 DD1Dir:  Pass   2 NRAB=    17 NRAA=     0 NRBB=     0 NR=    34.
 PrRfSu:  requested number of processors reduced to:   6 ShMem   1 Linda.
 DD1Dir:  Pass   3 NRAB=    17 NRAA=     0 NRBB=     0 NR=    34.
 PrRfSu:  requested number of processors reduced to:   6 ShMem   1 Linda.
 DD1Dir:  Pass   4 NRAB=    17 NRAA=     0 NRBB=     0 NR=    34.
 PrRfSu:  requested number of processors reduced to:   6 ShMem   1 Linda.
 DD1Dir:  Pass   5 NRAB=    17 NRAA=     0 NRBB=     0 NR=    34.
 PrRfSu:  requested number of processors reduced to:   6 ShMem   1 Linda.
 DD1Dir:  Pass   6 NRAB=    17 NRAA=     0 NRBB=     0 NR=    34.
 PrRfSu:  requested number of processors reduced to:   6 ShMem   1 Linda.
 DD1Dir:  Pass   7 NRAB=    17 NRAA=     0 NRBB=     0 NR=    34.
 PrRfSu:  requested number of processors reduced to:   6 ShMem   1 Linda.
 DD1Dir:  Pass   8 NRAB=    17 NRAA=     0 NRBB=     0 NR=    34.
 PrRfSu:  requested number of processors reduced to:   6 ShMem   1 Linda.
 DD1Dir:  Pass   9 NRAB=    17 NRAA=     0 NRBB=     0 NR=    34.
 PrRfSu:  requested number of processors reduced to:   6 ShMem   1 Linda.
 DD1Dir:  Pass  10 NRAB=    17 NRAA=     0 NRBB=     0 NR=    34.
 PrRfSu:  requested number of processors reduced to:   6 ShMem   1 Linda.
 DD1Dir:  Pass  11 NRAB=    17 NRAA=     0 NRBB=     0 NR=    34.
 PrRfSu:  requested number of processors reduced to:   6 ShMem   1 Linda.
 DD1Dir:  Pass  12 NRAB=    17 NRAA=     0 NRBB=     0 NR=    34.
 PrRfSu:  requested number of processors reduced to:   6 ShMem   1 Linda.
 DD1Dir:  Pass  13 NRAB=    17 NRAA=     0 NRBB=     0 NR=    34.
 PrRfSu:  requested number of processors reduced to:   6 ShMem   1 Linda.
 DD1Dir:  Pass  14 NRAB=     3 NRAA=    28 NRBB=     0 NR=    34.
 PrRfSu:  requested number of processors reduced to:   6 ShMem   1 Linda.
 DD1Dir:  Pass  15 NRAB=     0 NRAA=    34 NRBB=     0 NR=    34.
 PrRfSu:  requested number of processors reduced to:   6 ShMem   1 Linda.
 DD1Dir:  Pass  16 NRAB=     0 NRAA=    34 NRBB=     0 NR=    34.
 PrRfSu:  requested number of processors reduced to:   6 ShMem   1 Linda.
 DD1Dir:  Pass  17 NRAB=     0 NRAA=    24 NRBB=    10 NR=    34.
 PrRfSu:  requested number of processors reduced to:   6 ShMem   1 Linda.
 DD1Dir:  Pass  18 NRAB=     0 NRAA=     0 NRBB=    34 NR=    34.
 PrRfSu:  requested number of processors reduced to:   6 ShMem   1 Linda.
 DD1Dir:  Pass  19 NRAB=     0 NRAA=     0 NRBB=    34 NR=    34.
 PrRfSu:  requested number of processors reduced to:   6 ShMem   1 Linda.
 DD1Dir:  Pass  20 NRAB=     0 NRAA=     0 NRBB=    13 NR=    13.
 PrRfSu:  requested number of processors reduced to:   7 ShMem   1 Linda.
 Norm of the A-vectors is  4.5917903D-03 conv= 1.00D-05.
 RLE energy=       -0.8746183747
 DE(Corr)= -0.87462377     E(CORR)=     -1988.5785212     Delta=-1.88D-05
 NORM(A)=   0.12257322D+01
 Iteration Nr.  10
 **********************
 DD1Dir will call FoFJK  20 times, MxPair=        34
 NAB=   224 NAA=   120 NBB=    91 NumPrc=  5.
 DD1Dir:  Pass   1 NRAB=    17 NRAA=     0 NRBB=     0 NR=    34.
 PrRfSu:  requested number of processors reduced to:   6 ShMem   1 Linda.
 DD1Dir:  Pass   2 NRAB=    17 NRAA=     0 NRBB=     0 NR=    34.
 PrRfSu:  requested number of processors reduced to:   6 ShMem   1 Linda.
 DD1Dir:  Pass   3 NRAB=    17 NRAA=     0 NRBB=     0 NR=    34.
 PrRfSu:  requested number of processors reduced to:   6 ShMem   1 Linda.
 DD1Dir:  Pass   4 NRAB=    17 NRAA=     0 NRBB=     0 NR=    34.
 PrRfSu:  requested number of processors reduced to:   6 ShMem   1 Linda.
 DD1Dir:  Pass   5 NRAB=    17 NRAA=     0 NRBB=     0 NR=    34.
 PrRfSu:  requested number of processors reduced to:   6 ShMem   1 Linda.
 DD1Dir:  Pass   6 NRAB=    17 NRAA=     0 NRBB=     0 NR=    34.
 PrRfSu:  requested number of processors reduced to:   6 ShMem   1 Linda.
 DD1Dir:  Pass   7 NRAB=    17 NRAA=     0 NRBB=     0 NR=    34.
 PrRfSu:  requested number of processors reduced to:   6 ShMem   1 Linda.
 DD1Dir:  Pass   8 NRAB=    17 NRAA=     0 NRBB=     0 NR=    34.
 PrRfSu:  requested number of processors reduced to:   6 ShMem   1 Linda.
 DD1Dir:  Pass   9 NRAB=    17 NRAA=     0 NRBB=     0 NR=    34.
 PrRfSu:  requested number of processors reduced to:   6 ShMem   1 Linda.
 DD1Dir:  Pass  10 NRAB=    17 NRAA=     0 NRBB=     0 NR=    34.
 PrRfSu:  requested number of processors reduced to:   6 ShMem   1 Linda.
 DD1Dir:  Pass  11 NRAB=    17 NRAA=     0 NRBB=     0 NR=    34.
 PrRfSu:  requested number of processors reduced to:   6 ShMem   1 Linda.
 DD1Dir:  Pass  12 NRAB=    17 NRAA=     0 NRBB=     0 NR=    34.
 PrRfSu:  requested number of processors reduced to:   6 ShMem   1 Linda.
 DD1Dir:  Pass  13 NRAB=    17 NRAA=     0 NRBB=     0 NR=    34.
 PrRfSu:  requested number of processors reduced to:   6 ShMem   1 Linda.
 DD1Dir:  Pass  14 NRAB=     3 NRAA=    28 NRBB=     0 NR=    34.
 PrRfSu:  requested number of processors reduced to:   6 ShMem   1 Linda.
 DD1Dir:  Pass  15 NRAB=     0 NRAA=    34 NRBB=     0 NR=    34.
 PrRfSu:  requested number of processors reduced to:   6 ShMem   1 Linda.
 DD1Dir:  Pass  16 NRAB=     0 NRAA=    34 NRBB=     0 NR=    34.
 PrRfSu:  requested number of processors reduced to:   6 ShMem   1 Linda.
 DD1Dir:  Pass  17 NRAB=     0 NRAA=    24 NRBB=    10 NR=    34.
 PrRfSu:  requested number of processors reduced to:   6 ShMem   1 Linda.
 DD1Dir:  Pass  18 NRAB=     0 NRAA=     0 NRBB=    34 NR=    34.
 PrRfSu:  requested number of processors reduced to:   6 ShMem   1 Linda.
 DD1Dir:  Pass  19 NRAB=     0 NRAA=     0 NRBB=    34 NR=    34.
 PrRfSu:  requested number of processors reduced to:   6 ShMem   1 Linda.
 DD1Dir:  Pass  20 NRAB=     0 NRAA=     0 NRBB=    13 NR=    13.
 PrRfSu:  requested number of processors reduced to:   7 ShMem   1 Linda.
 Norm of the A-vectors is  3.1668988D-03 conv= 1.00D-05.
 RLE energy=       -0.8746264020
 DE(Corr)= -0.87462304     E(CORR)=     -1988.5785205     Delta= 7.28D-07
 NORM(A)=   0.12257424D+01
 Iteration Nr.  11
 **********************
 DD1Dir will call FoFJK  20 times, MxPair=        34
 NAB=   224 NAA=   120 NBB=    91 NumPrc=  5.
 DD1Dir:  Pass   1 NRAB=    17 NRAA=     0 NRBB=     0 NR=    34.
 PrRfSu:  requested number of processors reduced to:   6 ShMem   1 Linda.
 DD1Dir:  Pass   2 NRAB=    17 NRAA=     0 NRBB=     0 NR=    34.
 PrRfSu:  requested number of processors reduced to:   6 ShMem   1 Linda.
 DD1Dir:  Pass   3 NRAB=    17 NRAA=     0 NRBB=     0 NR=    34.
 PrRfSu:  requested number of processors reduced to:   6 ShMem   1 Linda.
 DD1Dir:  Pass   4 NRAB=    17 NRAA=     0 NRBB=     0 NR=    34.
 PrRfSu:  requested number of processors reduced to:   6 ShMem   1 Linda.
 DD1Dir:  Pass   5 NRAB=    17 NRAA=     0 NRBB=     0 NR=    34.
 PrRfSu:  requested number of processors reduced to:   6 ShMem   1 Linda.
 DD1Dir:  Pass   6 NRAB=    17 NRAA=     0 NRBB=     0 NR=    34.
 PrRfSu:  requested number of processors reduced to:   6 ShMem   1 Linda.
 DD1Dir:  Pass   7 NRAB=    17 NRAA=     0 NRBB=     0 NR=    34.
 PrRfSu:  requested number of processors reduced to:   6 ShMem   1 Linda.
 DD1Dir:  Pass   8 NRAB=    17 NRAA=     0 NRBB=     0 NR=    34.
 PrRfSu:  requested number of processors reduced to:   6 ShMem   1 Linda.
 DD1Dir:  Pass   9 NRAB=    17 NRAA=     0 NRBB=     0 NR=    34.
 PrRfSu:  requested number of processors reduced to:   6 ShMem   1 Linda.
 DD1Dir:  Pass  10 NRAB=    17 NRAA=     0 NRBB=     0 NR=    34.
 PrRfSu:  requested number of processors reduced to:   6 ShMem   1 Linda.
 DD1Dir:  Pass  11 NRAB=    17 NRAA=     0 NRBB=     0 NR=    34.
 PrRfSu:  requested number of processors reduced to:   6 ShMem   1 Linda.
 DD1Dir:  Pass  12 NRAB=    17 NRAA=     0 NRBB=     0 NR=    34.
 PrRfSu:  requested number of processors reduced to:   6 ShMem   1 Linda.
 DD1Dir:  Pass  13 NRAB=    17 NRAA=     0 NRBB=     0 NR=    34.
 PrRfSu:  requested number of processors reduced to:   6 ShMem   1 Linda.
 DD1Dir:  Pass  14 NRAB=     3 NRAA=    28 NRBB=     0 NR=    34.
 PrRfSu:  requested number of processors reduced to:   6 ShMem   1 Linda.
 DD1Dir:  Pass  15 NRAB=     0 NRAA=    34 NRBB=     0 NR=    34.
 PrRfSu:  requested number of processors reduced to:   6 ShMem   1 Linda.
 DD1Dir:  Pass  16 NRAB=     0 NRAA=    34 NRBB=     0 NR=    34.
 PrRfSu:  requested number of processors reduced to:   6 ShMem   1 Linda.
 DD1Dir:  Pass  17 NRAB=     0 NRAA=    24 NRBB=    10 NR=    34.
 PrRfSu:  requested number of processors reduced to:   6 ShMem   1 Linda.
 DD1Dir:  Pass  18 NRAB=     0 NRAA=     0 NRBB=    34 NR=    34.
 PrRfSu:  requested number of processors reduced to:   6 ShMem   1 Linda.
 DD1Dir:  Pass  19 NRAB=     0 NRAA=     0 NRBB=    34 NR=    34.
 PrRfSu:  requested number of processors reduced to:   6 ShMem   1 Linda.
 DD1Dir:  Pass  20 NRAB=     0 NRAA=     0 NRBB=    13 NR=    13.
 PrRfSu:  requested number of processors reduced to:   7 ShMem   1 Linda.
 Norm of the A-vectors is  1.5940181D-03 conv= 1.00D-05.
 RLE energy=       -0.8746321181
 DE(Corr)= -0.87462969     E(CORR)=     -1988.5785271     Delta=-6.64D-06
 NORM(A)=   0.12257546D+01
 Iteration Nr.  12
 **********************
 DD1Dir will call FoFJK  20 times, MxPair=        34
 NAB=   224 NAA=   120 NBB=    91 NumPrc=  5.
 DD1Dir:  Pass   1 NRAB=    17 NRAA=     0 NRBB=     0 NR=    34.
 PrRfSu:  requested number of processors reduced to:   6 ShMem   1 Linda.
 DD1Dir:  Pass   2 NRAB=    17 NRAA=     0 NRBB=     0 NR=    34.
 PrRfSu:  requested number of processors reduced to:   6 ShMem   1 Linda.
 DD1Dir:  Pass   3 NRAB=    17 NRAA=     0 NRBB=     0 NR=    34.
 PrRfSu:  requested number of processors reduced to:   6 ShMem   1 Linda.
 DD1Dir:  Pass   4 NRAB=    17 NRAA=     0 NRBB=     0 NR=    34.
 PrRfSu:  requested number of processors reduced to:   6 ShMem   1 Linda.
 DD1Dir:  Pass   5 NRAB=    17 NRAA=     0 NRBB=     0 NR=    34.
 PrRfSu:  requested number of processors reduced to:   6 ShMem   1 Linda.
 DD1Dir:  Pass   6 NRAB=    17 NRAA=     0 NRBB=     0 NR=    34.
 PrRfSu:  requested number of processors reduced to:   6 ShMem   1 Linda.
 DD1Dir:  Pass   7 NRAB=    17 NRAA=     0 NRBB=     0 NR=    34.
 PrRfSu:  requested number of processors reduced to:   6 ShMem   1 Linda.
 DD1Dir:  Pass   8 NRAB=    17 NRAA=     0 NRBB=     0 NR=    34.
 PrRfSu:  requested number of processors reduced to:   6 ShMem   1 Linda.
 DD1Dir:  Pass   9 NRAB=    17 NRAA=     0 NRBB=     0 NR=    34.
 PrRfSu:  requested number of processors reduced to:   6 ShMem   1 Linda.
 DD1Dir:  Pass  10 NRAB=    17 NRAA=     0 NRBB=     0 NR=    34.
 PrRfSu:  requested number of processors reduced to:   6 ShMem   1 Linda.
 DD1Dir:  Pass  11 NRAB=    17 NRAA=     0 NRBB=     0 NR=    34.
 PrRfSu:  requested number of processors reduced to:   6 ShMem   1 Linda.
 DD1Dir:  Pass  12 NRAB=    17 NRAA=     0 NRBB=     0 NR=    34.
 PrRfSu:  requested number of processors reduced to:   6 ShMem   1 Linda.
 DD1Dir:  Pass  13 NRAB=    17 NRAA=     0 NRBB=     0 NR=    34.
 PrRfSu:  requested number of processors reduced to:   6 ShMem   1 Linda.
 DD1Dir:  Pass  14 NRAB=     3 NRAA=    28 NRBB=     0 NR=    34.
 PrRfSu:  requested number of processors reduced to:   6 ShMem   1 Linda.
 DD1Dir:  Pass  15 NRAB=     0 NRAA=    34 NRBB=     0 NR=    34.
 PrRfSu:  requested number of processors reduced to:   6 ShMem   1 Linda.
 DD1Dir:  Pass  16 NRAB=     0 NRAA=    34 NRBB=     0 NR=    34.
 PrRfSu:  requested number of processors reduced to:   6 ShMem   1 Linda.
 DD1Dir:  Pass  17 NRAB=     0 NRAA=    24 NRBB=    10 NR=    34.
 PrRfSu:  requested number of processors reduced to:   6 ShMem   1 Linda.
 DD1Dir:  Pass  18 NRAB=     0 NRAA=     0 NRBB=    34 NR=    34.
 PrRfSu:  requested number of processors reduced to:   6 ShMem   1 Linda.
 DD1Dir:  Pass  19 NRAB=     0 NRAA=     0 NRBB=    34 NR=    34.
 PrRfSu:  requested number of processors reduced to:   6 ShMem   1 Linda.
 DD1Dir:  Pass  20 NRAB=     0 NRAA=     0 NRBB=    13 NR=    13.
 PrRfSu:  requested number of processors reduced to:   7 ShMem   1 Linda.
 Norm of the A-vectors is  8.8555198D-04 conv= 1.00D-05.
 RLE energy=       -0.8746337178
 DE(Corr)= -0.87463167     E(CORR)=     -1988.5785291     Delta=-1.99D-06
 NORM(A)=   0.12257736D+01
 Iteration Nr.  13
 **********************
 DD1Dir will call FoFJK  20 times, MxPair=        34
 NAB=   224 NAA=   120 NBB=    91 NumPrc=  5.
 DD1Dir:  Pass   1 NRAB=    17 NRAA=     0 NRBB=     0 NR=    34.
 PrRfSu:  requested number of processors reduced to:   6 ShMem   1 Linda.
 DD1Dir:  Pass   2 NRAB=    17 NRAA=     0 NRBB=     0 NR=    34.
 PrRfSu:  requested number of processors reduced to:   6 ShMem   1 Linda.
 DD1Dir:  Pass   3 NRAB=    17 NRAA=     0 NRBB=     0 NR=    34.
 PrRfSu:  requested number of processors reduced to:   6 ShMem   1 Linda.
 DD1Dir:  Pass   4 NRAB=    17 NRAA=     0 NRBB=     0 NR=    34.
 PrRfSu:  requested number of processors reduced to:   6 ShMem   1 Linda.
 DD1Dir:  Pass   5 NRAB=    17 NRAA=     0 NRBB=     0 NR=    34.
 PrRfSu:  requested number of processors reduced to:   6 ShMem   1 Linda.
 DD1Dir:  Pass   6 NRAB=    17 NRAA=     0 NRBB=     0 NR=    34.
 PrRfSu:  requested number of processors reduced to:   6 ShMem   1 Linda.
 DD1Dir:  Pass   7 NRAB=    17 NRAA=     0 NRBB=     0 NR=    34.
 PrRfSu:  requested number of processors reduced to:   6 ShMem   1 Linda.
 DD1Dir:  Pass   8 NRAB=    17 NRAA=     0 NRBB=     0 NR=    34.
 PrRfSu:  requested number of processors reduced to:   6 ShMem   1 Linda.
 DD1Dir:  Pass   9 NRAB=    17 NRAA=     0 NRBB=     0 NR=    34.
 PrRfSu:  requested number of processors reduced to:   6 ShMem   1 Linda.
 DD1Dir:  Pass  10 NRAB=    17 NRAA=     0 NRBB=     0 NR=    34.
 PrRfSu:  requested number of processors reduced to:   6 ShMem   1 Linda.
 DD1Dir:  Pass  11 NRAB=    17 NRAA=     0 NRBB=     0 NR=    34.
 PrRfSu:  requested number of processors reduced to:   6 ShMem   1 Linda.
 DD1Dir:  Pass  12 NRAB=    17 NRAA=     0 NRBB=     0 NR=    34.
 PrRfSu:  requested number of processors reduced to:   6 ShMem   1 Linda.
 DD1Dir:  Pass  13 NRAB=    17 NRAA=     0 NRBB=     0 NR=    34.
 PrRfSu:  requested number of processors reduced to:   6 ShMem   1 Linda.
 DD1Dir:  Pass  14 NRAB=     3 NRAA=    28 NRBB=     0 NR=    34.
 PrRfSu:  requested number of processors reduced to:   6 ShMem   1 Linda.
 DD1Dir:  Pass  15 NRAB=     0 NRAA=    34 NRBB=     0 NR=    34.
 PrRfSu:  requested number of processors reduced to:   6 ShMem   1 Linda.
 DD1Dir:  Pass  16 NRAB=     0 NRAA=    34 NRBB=     0 NR=    34.
 PrRfSu:  requested number of processors reduced to:   6 ShMem   1 Linda.
 DD1Dir:  Pass  17 NRAB=     0 NRAA=    24 NRBB=    10 NR=    34.
 PrRfSu:  requested number of processors reduced to:   6 ShMem   1 Linda.
 DD1Dir:  Pass  18 NRAB=     0 NRAA=     0 NRBB=    34 NR=    34.
 PrRfSu:  requested number of processors reduced to:   6 ShMem   1 Linda.
 DD1Dir:  Pass  19 NRAB=     0 NRAA=     0 NRBB=    34 NR=    34.
 PrRfSu:  requested number of processors reduced to:   6 ShMem   1 Linda.
 DD1Dir:  Pass  20 NRAB=     0 NRAA=     0 NRBB=    13 NR=    13.
 PrRfSu:  requested number of processors reduced to:   7 ShMem   1 Linda.
 Norm of the A-vectors is  6.8156082D-04 conv= 1.00D-05.
 RLE energy=       -0.8746367329
 DE(Corr)= -0.87463496     E(CORR)=     -1988.5785324     Delta=-3.29D-06
 NORM(A)=   0.12257910D+01
 Iteration Nr.  14
 **********************
 DD1Dir will call FoFJK  20 times, MxPair=        34
 NAB=   224 NAA=   120 NBB=    91 NumPrc=  5.
 DD1Dir:  Pass   1 NRAB=    17 NRAA=     0 NRBB=     0 NR=    34.
 PrRfSu:  requested number of processors reduced to:   6 ShMem   1 Linda.
 DD1Dir:  Pass   2 NRAB=    17 NRAA=     0 NRBB=     0 NR=    34.
 PrRfSu:  requested number of processors reduced to:   6 ShMem   1 Linda.
 DD1Dir:  Pass   3 NRAB=    17 NRAA=     0 NRBB=     0 NR=    34.
 PrRfSu:  requested number of processors reduced to:   6 ShMem   1 Linda.
 DD1Dir:  Pass   4 NRAB=    17 NRAA=     0 NRBB=     0 NR=    34.
 PrRfSu:  requested number of processors reduced to:   6 ShMem   1 Linda.
 DD1Dir:  Pass   5 NRAB=    17 NRAA=     0 NRBB=     0 NR=    34.
 PrRfSu:  requested number of processors reduced to:   6 ShMem   1 Linda.
 DD1Dir:  Pass   6 NRAB=    17 NRAA=     0 NRBB=     0 NR=    34.
 PrRfSu:  requested number of processors reduced to:   6 ShMem   1 Linda.
 DD1Dir:  Pass   7 NRAB=    17 NRAA=     0 NRBB=     0 NR=    34.
 PrRfSu:  requested number of processors reduced to:   6 ShMem   1 Linda.
 DD1Dir:  Pass   8 NRAB=    17 NRAA=     0 NRBB=     0 NR=    34.
 PrRfSu:  requested number of processors reduced to:   6 ShMem   1 Linda.
 DD1Dir:  Pass   9 NRAB=    17 NRAA=     0 NRBB=     0 NR=    34.
 PrRfSu:  requested number of processors reduced to:   6 ShMem   1 Linda.
 DD1Dir:  Pass  10 NRAB=    17 NRAA=     0 NRBB=     0 NR=    34.
 PrRfSu:  requested number of processors reduced to:   6 ShMem   1 Linda.
 DD1Dir:  Pass  11 NRAB=    17 NRAA=     0 NRBB=     0 NR=    34.
 PrRfSu:  requested number of processors reduced to:   6 ShMem   1 Linda.
 DD1Dir:  Pass  12 NRAB=    17 NRAA=     0 NRBB=     0 NR=    34.
 PrRfSu:  requested number of processors reduced to:   6 ShMem   1 Linda.
 DD1Dir:  Pass  13 NRAB=    17 NRAA=     0 NRBB=     0 NR=    34.
 PrRfSu:  requested number of processors reduced to:   6 ShMem   1 Linda.
 DD1Dir:  Pass  14 NRAB=     3 NRAA=    28 NRBB=     0 NR=    34.
 PrRfSu:  requested number of processors reduced to:   6 ShMem   1 Linda.
 DD1Dir:  Pass  15 NRAB=     0 NRAA=    34 NRBB=     0 NR=    34.
 PrRfSu:  requested number of processors reduced to:   6 ShMem   1 Linda.
 DD1Dir:  Pass  16 NRAB=     0 NRAA=    34 NRBB=     0 NR=    34.
 PrRfSu:  requested number of processors reduced to:   6 ShMem   1 Linda.
 DD1Dir:  Pass  17 NRAB=     0 NRAA=    24 NRBB=    10 NR=    34.
 PrRfSu:  requested number of processors reduced to:   6 ShMem   1 Linda.
 DD1Dir:  Pass  18 NRAB=     0 NRAA=     0 NRBB=    34 NR=    34.
 PrRfSu:  requested number of processors reduced to:   6 ShMem   1 Linda.
 DD1Dir:  Pass  19 NRAB=     0 NRAA=     0 NRBB=    34 NR=    34.
 PrRfSu:  requested number of processors reduced to:   6 ShMem   1 Linda.
 DD1Dir:  Pass  20 NRAB=     0 NRAA=     0 NRBB=    13 NR=    13.
 PrRfSu:  requested number of processors reduced to:   7 ShMem   1 Linda.
 Norm of the A-vectors is  3.7502294D-04 conv= 1.00D-05.
 RLE energy=       -0.8746378350
 DE(Corr)= -0.87463658     E(CORR)=     -1988.5785340     Delta=-1.62D-06
 NORM(A)=   0.12258055D+01
 Iteration Nr.  15
 **********************
 DD1Dir will call FoFJK  20 times, MxPair=        34
 NAB=   224 NAA=   120 NBB=    91 NumPrc=  5.
 DD1Dir:  Pass   1 NRAB=    17 NRAA=     0 NRBB=     0 NR=    34.
 PrRfSu:  requested number of processors reduced to:   6 ShMem   1 Linda.
 DD1Dir:  Pass   2 NRAB=    17 NRAA=     0 NRBB=     0 NR=    34.
 PrRfSu:  requested number of processors reduced to:   6 ShMem   1 Linda.
 DD1Dir:  Pass   3 NRAB=    17 NRAA=     0 NRBB=     0 NR=    34.
 PrRfSu:  requested number of processors reduced to:   6 ShMem   1 Linda.
 DD1Dir:  Pass   4 NRAB=    17 NRAA=     0 NRBB=     0 NR=    34.
 PrRfSu:  requested number of processors reduced to:   6 ShMem   1 Linda.
 DD1Dir:  Pass   5 NRAB=    17 NRAA=     0 NRBB=     0 NR=    34.
 PrRfSu:  requested number of processors reduced to:   6 ShMem   1 Linda.
 DD1Dir:  Pass   6 NRAB=    17 NRAA=     0 NRBB=     0 NR=    34.
 PrRfSu:  requested number of processors reduced to:   6 ShMem   1 Linda.
 DD1Dir:  Pass   7 NRAB=    17 NRAA=     0 NRBB=     0 NR=    34.
 PrRfSu:  requested number of processors reduced to:   6 ShMem   1 Linda.
 DD1Dir:  Pass   8 NRAB=    17 NRAA=     0 NRBB=     0 NR=    34.
 PrRfSu:  requested number of processors reduced to:   6 ShMem   1 Linda.
 DD1Dir:  Pass   9 NRAB=    17 NRAA=     0 NRBB=     0 NR=    34.
 PrRfSu:  requested number of processors reduced to:   6 ShMem   1 Linda.
 DD1Dir:  Pass  10 NRAB=    17 NRAA=     0 NRBB=     0 NR=    34.
 PrRfSu:  requested number of processors reduced to:   6 ShMem   1 Linda.
 DD1Dir:  Pass  11 NRAB=    17 NRAA=     0 NRBB=     0 NR=    34.
 PrRfSu:  requested number of processors reduced to:   6 ShMem   1 Linda.
 DD1Dir:  Pass  12 NRAB=    17 NRAA=     0 NRBB=     0 NR=    34.
 PrRfSu:  requested number of processors reduced to:   6 ShMem   1 Linda.
 DD1Dir:  Pass  13 NRAB=    17 NRAA=     0 NRBB=     0 NR=    34.
 PrRfSu:  requested number of processors reduced to:   6 ShMem   1 Linda.
 DD1Dir:  Pass  14 NRAB=     3 NRAA=    28 NRBB=     0 NR=    34.
 PrRfSu:  requested number of processors reduced to:   6 ShMem   1 Linda.
 DD1Dir:  Pass  15 NRAB=     0 NRAA=    34 NRBB=     0 NR=    34.
 PrRfSu:  requested number of processors reduced to:   6 ShMem   1 Linda.
 DD1Dir:  Pass  16 NRAB=     0 NRAA=    34 NRBB=     0 NR=    34.
 PrRfSu:  requested number of processors reduced to:   6 ShMem   1 Linda.
 DD1Dir:  Pass  17 NRAB=     0 NRAA=    24 NRBB=    10 NR=    34.
 PrRfSu:  requested number of processors reduced to:   6 ShMem   1 Linda.
 DD1Dir:  Pass  18 NRAB=     0 NRAA=     0 NRBB=    34 NR=    34.
 PrRfSu:  requested number of processors reduced to:   6 ShMem   1 Linda.
 DD1Dir:  Pass  19 NRAB=     0 NRAA=     0 NRBB=    34 NR=    34.
 PrRfSu:  requested number of processors reduced to:   6 ShMem   1 Linda.
 DD1Dir:  Pass  20 NRAB=     0 NRAA=     0 NRBB=    13 NR=    13.
 PrRfSu:  requested number of processors reduced to:   7 ShMem   1 Linda.
 Norm of the A-vectors is  2.7419629D-04 conv= 1.00D-05.
 RLE energy=       -0.8746385588
 DE(Corr)= -0.87463798     E(CORR)=     -1988.5785354     Delta=-1.40D-06
 NORM(A)=   0.12258145D+01
 Iteration Nr.  16
 **********************
 DD1Dir will call FoFJK  20 times, MxPair=        34
 NAB=   224 NAA=   120 NBB=    91 NumPrc=  5.
 DD1Dir:  Pass   1 NRAB=    17 NRAA=     0 NRBB=     0 NR=    34.
 PrRfSu:  requested number of processors reduced to:   6 ShMem   1 Linda.
 DD1Dir:  Pass   2 NRAB=    17 NRAA=     0 NRBB=     0 NR=    34.
 PrRfSu:  requested number of processors reduced to:   6 ShMem   1 Linda.
 DD1Dir:  Pass   3 NRAB=    17 NRAA=     0 NRBB=     0 NR=    34.
 PrRfSu:  requested number of processors reduced to:   6 ShMem   1 Linda.
 DD1Dir:  Pass   4 NRAB=    17 NRAA=     0 NRBB=     0 NR=    34.
 PrRfSu:  requested number of processors reduced to:   6 ShMem   1 Linda.
 DD1Dir:  Pass   5 NRAB=    17 NRAA=     0 NRBB=     0 NR=    34.
 PrRfSu:  requested number of processors reduced to:   6 ShMem   1 Linda.
 DD1Dir:  Pass   6 NRAB=    17 NRAA=     0 NRBB=     0 NR=    34.
 PrRfSu:  requested number of processors reduced to:   6 ShMem   1 Linda.
 DD1Dir:  Pass   7 NRAB=    17 NRAA=     0 NRBB=     0 NR=    34.
 PrRfSu:  requested number of processors reduced to:   6 ShMem   1 Linda.
 DD1Dir:  Pass   8 NRAB=    17 NRAA=     0 NRBB=     0 NR=    34.
 PrRfSu:  requested number of processors reduced to:   6 ShMem   1 Linda.
 DD1Dir:  Pass   9 NRAB=    17 NRAA=     0 NRBB=     0 NR=    34.
 PrRfSu:  requested number of processors reduced to:   6 ShMem   1 Linda.
 DD1Dir:  Pass  10 NRAB=    17 NRAA=     0 NRBB=     0 NR=    34.
 PrRfSu:  requested number of processors reduced to:   6 ShMem   1 Linda.
 DD1Dir:  Pass  11 NRAB=    17 NRAA=     0 NRBB=     0 NR=    34.
 PrRfSu:  requested number of processors reduced to:   6 ShMem   1 Linda.
 DD1Dir:  Pass  12 NRAB=    17 NRAA=     0 NRBB=     0 NR=    34.
[...]
 DD1Dir:  Pass  15 NRAB=     0 NRAA=    34 NRBB=     0 NR=    34.
 PrRfSu:  requested number of processors reduced to:   6 ShMem   1 Linda.
 DD1Dir:  Pass  16 NRAB=     0 NRAA=    34 NRBB=     0 NR=    34.
 PrRfSu:  requested number of processors reduced to:   6 ShMem   1 Linda.
 DD1Dir:  Pass  17 NRAB=     0 NRAA=    24 NRBB=    10 NR=    34.
 PrRfSu:  requested number of processors reduced to:   6 ShMem   1 Linda.
 DD1Dir:  Pass  18 NRAB=     0 NRAA=     0 NRBB=    34 NR=    34.
 PrRfSu:  requested number of processors reduced to:   6 ShMem   1 Linda.
 DD1Dir:  Pass  19 NRAB=     0 NRAA=     0 NRBB=    34 NR=    34.
 PrRfSu:  requested number of processors reduced to:   6 ShMem   1 Linda.
 DD1Dir:  Pass  20 NRAB=     0 NRAA=     0 NRBB=    13 NR=    13.
 PrRfSu:  requested number of processors reduced to:   7 ShMem   1 Linda.
 Norm of the A-vectors is  1.5033773D-05 conv= 1.00D-05.
 RLE energy=       -0.8746394718
 DE(Corr)= -0.87463946     E(CORR)=     -1988.5785369     Delta=-5.20D-09
 NORM(A)=   0.12258221D+01
 Iteration Nr.  24
 **********************
 DD1Dir will call FoFJK  20 times, MxPair=        34
 NAB=   224 NAA=   120 NBB=    91 NumPrc=  5.
 DD1Dir:  Pass   1 NRAB=    17 NRAA=     0 NRBB=     0 NR=    34.
 PrRfSu:  requested number of processors reduced to:   6 ShMem   1 Linda.
 DD1Dir:  Pass   2 NRAB=    17 NRAA=     0 NRBB=     0 NR=    34.
 PrRfSu:  requested number of processors reduced to:   6 ShMem   1 Linda.
 DD1Dir:  Pass   3 NRAB=    17 NRAA=     0 NRBB=     0 NR=    34.
 PrRfSu:  requested number of processors reduced to:   6 ShMem   1 Linda.
 DD1Dir:  Pass   4 NRAB=    17 NRAA=     0 NRBB=     0 NR=    34.
 PrRfSu:  requested number of processors reduced to:   6 ShMem   1 Linda.
 DD1Dir:  Pass   5 NRAB=    17 NRAA=     0 NRBB=     0 NR=    34.
 PrRfSu:  requested number of processors reduced to:   6 ShMem   1 Linda.
 DD1Dir:  Pass   6 NRAB=    17 NRAA=     0 NRBB=     0 NR=    34.
 PrRfSu:  requested number of processors reduced to:   6 ShMem   1 Linda.
 DD1Dir:  Pass   7 NRAB=    17 NRAA=     0 NRBB=     0 NR=    34.
 PrRfSu:  requested number of processors reduced to:   6 ShMem   1 Linda.
 DD1Dir:  Pass   8 NRAB=    17 NRAA=     0 NRBB=     0 NR=    34.
 PrRfSu:  requested number of processors reduced to:   6 ShMem   1 Linda.
 DD1Dir:  Pass   9 NRAB=    17 NRAA=     0 NRBB=     0 NR=    34.
 PrRfSu:  requested number of processors reduced to:   6 ShMem   1 Linda.
 DD1Dir:  Pass  10 NRAB=    17 NRAA=     0 NRBB=     0 NR=    34.
 PrRfSu:  requested number of processors reduced to:   6 ShMem   1 Linda.
 DD1Dir:  Pass  11 NRAB=    17 NRAA=     0 NRBB=     0 NR=    34.
 PrRfSu:  requested number of processors reduced to:   6 ShMem   1 Linda.
 DD1Dir:  Pass  12 NRAB=    17 NRAA=     0 NRBB=     0 NR=    34.
 PrRfSu:  requested number of processors reduced to:   6 ShMem   1 Linda.
 DD1Dir:  Pass  13 NRAB=    17 NRAA=     0 NRBB=     0 NR=    34.
 PrRfSu:  requested number of processors reduced to:   6 ShMem   1 Linda.
 DD1Dir:  Pass  14 NRAB=     3 NRAA=    28 NRBB=     0 NR=    34.
 PrRfSu:  requested number of processors reduced to:   6 ShMem   1 Linda.
 DD1Dir:  Pass  15 NRAB=     0 NRAA=    34 NRBB=     0 NR=    34.
 PrRfSu:  requested number of processors reduced to:   6 ShMem   1 Linda.
 DD1Dir:  Pass  16 NRAB=     0 NRAA=    34 NRBB=     0 NR=    34.
 PrRfSu:  requested number of processors reduced to:   6 ShMem   1 Linda.
 DD1Dir:  Pass  17 NRAB=     0 NRAA=    24 NRBB=    10 NR=    34.
 PrRfSu:  requested number of processors reduced to:   6 ShMem   1 Linda.
 DD1Dir:  Pass  18 NRAB=     0 NRAA=     0 NRBB=    34 NR=    34.
 PrRfSu:  requested number of processors reduced to:   6 ShMem   1 Linda.
 DD1Dir:  Pass  19 NRAB=     0 NRAA=     0 NRBB=    34 NR=    34.
 PrRfSu:  requested number of processors reduced to:   6 ShMem   1 Linda.
 DD1Dir:  Pass  20 NRAB=     0 NRAA=     0 NRBB=    13 NR=    13.
 PrRfSu:  requested number of processors reduced to:   7 ShMem   1 Linda.
 Norm of the A-vectors is  9.1341331D-06 conv= 1.00D-05.
 RLE energy=       -0.8746394502
 DE(Corr)= -0.87463945     E(CORR)=     -1988.5785369     Delta= 1.39D-08
 NORM(A)=   0.12258223D+01
 CI/CC converged in   24 iterations to DelEn= 1.39D-08 Conv= 1.00D-07 ErrA1= 9.13D-06 Conv= 1.00D-05
 Largest amplitude= 9.08D-02
 Time for triples=    18708.97 seconds.
 T4(CCSD)= -0.55813190D-01
 T5(CCSD)=  0.22729463D-02
 CCSD(T)= -0.19886320771D+04

 S**2, projected HF & approx projected MPn energies after annihilation of
 unwanted spin states (see manual for definitions):

 spins       (S**2,0) (S**2,1)    PUHF        PMP2        PMP3        PMP4
 annihilated
 s+1         1.99899  2.00042-1987.711044-1988.516295-1988.575335
 s+1,s+2     2.00001  1.99999-1987.710928-1988.516189-1988.575241
 s+1 to s+3  2.00000  2.00000-1987.710929-1988.516190-1988.575240
 s+1 to s+4  2.00000  2.00000-1987.710929-1988.516189-1988.575240
 s+1 to s+5  2.00000  2.00000-1987.710929
 s+1 to s+6  2.00000  2.00000-1987.710929

 Discarding MO integrals.
 Leave Link  913 at Thu Nov  3 07:41:00 2016, MaxMem=    33554432 cpu:    148677.9
 (Enter /home/proyectos/fulerenos/M3C-v2.0/M3C-deps_CCC/g09-AM64L-G09RevC.01/l601.exe)
 Copying SCF densities to generalized density rwf, IOpCl= 1 IROHF=0.

 **********************************************************************

            Population analysis using the SCF density.

 **********************************************************************

 Orbital symmetries:
 Alpha Orbitals:
       Occupied  (A) (A) (A) (A) (A) (A) (A) (A) (A) (A) (A) (A)
                 (A) (A) (A) (A) (A) (A) (A) (A) (A) (A) (A) (A)
                 (A) (A) (A) (A) (A) (A) (A) (A) (A) (A) (A) (A)
                 (A) (A) (A) (A) (A)
       Virtual   (A) (A) (A) (A) (A) (A) (A) (A) (A) (A) (A) (A)
                 (A) (A) (A) (A) (A) (A) (A) (A) (A) (A) (A) (A)
                 (A) (A) (A) (A) (A) (A) (A) (A) (A) (A) (A) (A)
                 (A) (A) (A) (A) (A) (A) (A) (A) (A) (A) (A) (A)
                 (A) (A) (A) (A) (A) (A) (A) (A) (A) (A) (A) (A)
                 (A) (A) (A) (A) (A) (A) (A) (A) (A) (A) (A) (A)
                 (A) (A) (A) (A) (A) (A) (A) (A) (A) (A) (A) (A)
                 (A) (A) (A) (A) (A) (A) (A) (A) (A) (A) (A) (A)
                 (A) (A) (A) (A) (A) (A) (A) (A) (A) (A) (A) (A)
                 (A) (A) (A) (A) (A) (A) (A) (A) (A) (A) (A) (A)
                 (A) (A) (A) (A) (A) (A) (A) (A) (A) (A) (A) (A)
                 (A) (A) (A) (A) (A) (A) (A) (A) (A) (A) (A) (A)
                 (A) (A) (A) (A) (A) (A) (A) (A) (A) (A) (A) (A)
                 (A) (A) (A) (A) (A) (A) (A) (A) (A) (A) (A) (A)
                 (A) (A) (A) (A) (A) (A) (A) (A) (A) (A) (A) (A)
                 (A) (A) (A) (A) (A) (A) (A) (A) (A) (A) (A) (A)
                 (A) (A)
 Beta  Orbitals:
       Occupied  (A) (A) (A) (A) (A) (A) (A) (A) (A) (A) (A) (A)
                 (A) (A) (A) (A) (A) (A) (A) (A) (A) (A) (A) (A)
                 (A) (A) (A) (A) (A) (A) (A) (A) (A) (A) (A) (A)
                 (A) (A) (A)
       Virtual   (A) (A) (A) (A) (A) (A) (A) (A) (A) (A) (A) (A)
                 (A) (A) (A) (A) (A) (A) (A) (A) (A) (A) (A) (A)
                 (A) (A) (A) (A) (A) (A) (A) (A) (A) (A) (A) (A)
                 (A) (A) (A) (A) (A) (A) (A) (A) (A) (A) (A) (A)
                 (A) (A) (A) (A) (A) (A) (A) (A) (A) (A) (A) (A)
                 (A) (A) (A) (A) (A) (A) (A) (A) (A) (A) (A) (A)
                 (A) (A) (A) (A) (A) (A) (A) (A) (A) (A) (A) (A)
                 (A) (A) (A) (A) (A) (A) (A) (A) (A) (A) (A) (A)
                 (A) (A) (A) (A) (A) (A) (A) (A) (A) (A) (A) (A)
                 (A) (A) (A) (A) (A) (A) (A) (A) (A) (A) (A) (A)
                 (A) (A) (A) (A) (A) (A) (A) (A) (A) (A) (A) (A)
                 (A) (A) (A) (A) (A) (A) (A) (A) (A) (A) (A) (A)
                 (A) (A) (A) (A) (A) (A) (A) (A) (A) (A) (A) (A)
                 (A) (A) (A) (A) (A) (A) (A) (A) (A) (A) (A) (A)
                 (A) (A) (A) (A) (A) (A) (A) (A) (A) (A) (A) (A)
                 (A) (A) (A) (A) (A) (A) (A) (A) (A) (A) (A) (A)
                 (A) (A) (A) (A)
 The electronic state is 3-A.
 Alpha  occ. eigenvalues --  -92.04381 -92.04380 -92.02304 -92.00898 -92.00898
 Alpha  occ. eigenvalues --   -9.04083  -9.04082  -9.02132  -9.00962  -9.00962
 Alpha  occ. eigenvalues --   -6.72436  -6.72436  -6.72184  -6.72184  -6.71991
 Alpha  occ. eigenvalues --   -6.71991  -6.70360  -6.70360  -6.70176  -6.70068
 Alpha  occ. eigenvalues --   -6.70034  -6.68824  -6.68824  -6.68652  -6.68652
 Alpha  occ. eigenvalues --   -1.13613  -1.10233  -0.99041  -0.87876  -0.79319
 Alpha  occ. eigenvalues --   -0.58849  -0.56686  -0.54820  -0.52475  -0.52359
 Alpha  occ. eigenvalues --   -0.50553  -0.41174  -0.40318  -0.39658  -0.37114
 Alpha  occ. eigenvalues --   -0.36735
 Alpha virt. eigenvalues --    0.04223   0.05411   0.06175   0.06534   0.06825
 Alpha virt. eigenvalues --    0.08738   0.09027   0.10335   0.10797   0.11153
 Alpha virt. eigenvalues --    0.11666   0.13005   0.13022   0.13263   0.13557
 Alpha virt. eigenvalues --    0.13987   0.15072   0.15272   0.17452   0.17987
 Alpha virt. eigenvalues --    0.18982   0.19799   0.22516   0.23663   0.26538
 Alpha virt. eigenvalues --    0.27708   0.30060   0.32058   0.32935   0.33057
 Alpha virt. eigenvalues --    0.34404   0.35467   0.35735   0.36240   0.37391
 Alpha virt. eigenvalues --    0.37589   0.38959   0.39121   0.40506   0.41669
 Alpha virt. eigenvalues --    0.41900   0.42981   0.43602   0.44051   0.44191
 Alpha virt. eigenvalues --    0.45235   0.46100   0.48639   0.53469   0.55764
 Alpha virt. eigenvalues --    0.57311   0.58383   0.60987   0.62136   0.62320
 Alpha virt. eigenvalues --    0.64666   0.64767   0.66590   0.69868   0.70504
 Alpha virt. eigenvalues --    0.74074   0.76433   0.76542   0.77996   0.90896
 Alpha virt. eigenvalues --    1.01111   1.06706   1.09880   1.14684   1.14695
 Alpha virt. eigenvalues --    1.16335   1.16990   1.18285   1.20063   1.21746
 Alpha virt. eigenvalues --    1.22286   1.24559   1.25875   1.26499   1.27185
 Alpha virt. eigenvalues --    1.27290   1.30848   1.31771   1.32233   1.32820
 Alpha virt. eigenvalues --    1.33573   1.34196   1.35257   1.37158   1.38864
 Alpha virt. eigenvalues --    1.39931   1.42087   1.44692   1.45656   1.63762
 Alpha virt. eigenvalues --    1.69214   1.70881   1.72179   1.73020   1.75814
 Alpha virt. eigenvalues --    1.81423   1.83750   1.84489   1.85421   1.86501
 Alpha virt. eigenvalues --    1.86911   1.87495   1.88577   1.88974   1.89344
 Alpha virt. eigenvalues --    1.91106   1.91924   1.91967   1.92811   1.93545
 Alpha virt. eigenvalues --    1.94064   1.96343   1.97723   1.98986   1.99833
 Alpha virt. eigenvalues --    2.00074   2.05242   2.08553   2.09324   2.13618
 Alpha virt. eigenvalues --    2.14826   2.15011   2.23240   2.23855   2.29000
 Alpha virt. eigenvalues --    2.41510   2.43905   2.48979   2.52408   2.52678
 Alpha virt. eigenvalues --    2.53258   2.56693   2.57787   2.64442   2.64664
 Alpha virt. eigenvalues --    2.74026   2.76930   2.84629   2.91275   4.97126
 Alpha virt. eigenvalues --    4.97710   4.98615   4.99450   5.01627   5.01661
 Alpha virt. eigenvalues --    5.01954   5.03051   5.06241   5.06557   5.06947
 Alpha virt. eigenvalues --    5.07463   5.09612   5.13770   5.14467   5.15275
 Alpha virt. eigenvalues --    5.15862   5.23099   5.23470   5.23597   5.24265
 Alpha virt. eigenvalues --    5.50548   5.64093   5.93832   5.95340   8.38348
 Alpha virt. eigenvalues --    8.43742   8.51474   8.58932   8.61784  18.32976
 Alpha virt. eigenvalues --   18.33426  18.35964  18.36975  18.39590  18.40379
 Alpha virt. eigenvalues --   18.41244  18.46196  18.48345  18.55772  18.57912
 Alpha virt. eigenvalues --   18.70893  18.71110  18.77970  18.79044 192.24198
 Alpha virt. eigenvalues --  192.30474 192.38107 192.43059 192.45369
  Beta  occ. eigenvalues --  -92.04092 -92.04091 -92.02393 -91.99998 -91.99998
  Beta  occ. eigenvalues --   -9.03793  -9.03792  -9.02213  -9.00070  -9.00069
  Beta  occ. eigenvalues --   -6.71982  -6.71982  -6.71825  -6.71825  -6.71338
  Beta  occ. eigenvalues --   -6.71338  -6.70372  -6.70281  -6.70103  -6.68360
  Beta  occ. eigenvalues --   -6.68360  -6.68109  -6.68109  -6.66658  -6.66658
  Beta  occ. eigenvalues --   -1.11516  -1.06811  -0.95904  -0.81084  -0.74562
  Beta  occ. eigenvalues --   -0.57173  -0.53373  -0.53307  -0.50506  -0.44282
  Beta  occ. eigenvalues --   -0.42760  -0.39312  -0.37500  -0.36847
  Beta virt. eigenvalues --   -0.00818  -0.00612   0.04949   0.05895   0.06287
  Beta virt. eigenvalues --    0.06719   0.07133   0.08831   0.09998   0.10546
  Beta virt. eigenvalues --    0.11105   0.11805   0.11949   0.13233   0.13579
  Beta virt. eigenvalues --    0.13752   0.13886   0.14185   0.15401   0.15766
  Beta virt. eigenvalues --    0.18066   0.18638   0.19211   0.20309   0.22920
  Beta virt. eigenvalues --    0.23835   0.27667   0.28797   0.30983   0.32826
  Beta virt. eigenvalues --    0.33533   0.34950   0.36220   0.36325   0.37013
  Beta virt. eigenvalues --    0.38090   0.38695   0.39259   0.40162   0.40387
  Beta virt. eigenvalues --    0.41893   0.43875   0.44789   0.44866   0.45254
  Beta virt. eigenvalues --    0.45461   0.46348   0.47390   0.49070   0.51232
  Beta virt. eigenvalues --    0.54766   0.56649   0.57788   0.59175   0.62139
  Beta virt. eigenvalues --    0.62889   0.63993   0.65792   0.65868   0.67975
  Beta virt. eigenvalues --    0.70407   0.71377   0.74602   0.76873   0.77144
  Beta virt. eigenvalues --    0.78557   0.91668   1.01806   1.07538   1.10567
  Beta virt. eigenvalues --    1.15019   1.16662   1.17125   1.18745   1.20286
  Beta virt. eigenvalues --    1.21227   1.23789   1.24612   1.26789   1.27455
  Beta virt. eigenvalues --    1.28247   1.29106   1.30034   1.31475   1.33488
  Beta virt. eigenvalues --    1.33493   1.34137   1.35653   1.36445   1.36678
  Beta virt. eigenvalues --    1.37945   1.39461   1.40507   1.42277   1.45704
  Beta virt. eigenvalues --    1.46913   1.64522   1.70157   1.71818   1.72648
  Beta virt. eigenvalues --    1.74435   1.76238   1.83879   1.85974   1.86219
  Beta virt. eigenvalues --    1.86635   1.88367   1.88748   1.90108   1.90364
  Beta virt. eigenvalues --    1.91506   1.91705   1.92757   1.94028   1.94481
  Beta virt. eigenvalues --    1.95005   1.96665   1.97489   1.98359   1.98630
  Beta virt. eigenvalues --    1.99380   2.00976   2.01281   2.06009   2.09138
  Beta virt. eigenvalues --    2.09519   2.15613   2.16734   2.16949   2.24193
  Beta virt. eigenvalues --    2.24300   2.29243   2.41891   2.44049   2.49248
  Beta virt. eigenvalues --    2.52823   2.53538   2.54014   2.58730   2.59841
  Beta virt. eigenvalues --    2.64644   2.64847   2.74421   2.77300   2.84736
  Beta virt. eigenvalues --    2.91367   4.97338   4.98050   4.99123   4.99763
  Beta virt. eigenvalues --    5.01806   5.01978   5.02528   5.03263   5.06570
  Beta virt. eigenvalues --    5.07508   5.07995   5.08432   5.10363   5.14021
  Beta virt. eigenvalues --    5.14540   5.15354   5.16053   5.23602   5.23761
  Beta virt. eigenvalues --    5.24207   5.24638   5.50702   5.64195   5.94343
  Beta virt. eigenvalues --    5.95827   8.39101   8.44735   8.51630   8.59619
  Beta virt. eigenvalues --    8.62498  18.34633  18.36049  18.36526  18.39239
  Beta virt. eigenvalues --   18.40075  18.41461  18.42028  18.46227  18.48487
  Beta virt. eigenvalues --   18.55923  18.58111  18.71118  18.71377  18.78074
  Beta virt. eigenvalues --   18.79052 192.24485 192.30863 192.38257 192.43248
  Beta virt. eigenvalues --  192.45650
          Condensed to atoms (all electrons):
               1          2          3          4          5
     1  S   15.384281   0.226574   0.022536   0.308336  -0.078123
     2  S    0.226574  15.541867  -0.038637  -0.038668   0.226526
     3  S    0.022536  -0.038637  15.867358   0.018913   0.307980
     4  S    0.308336  -0.038668   0.018913  15.866894   0.022395
     5  S   -0.078123   0.226526   0.307980   0.022395  15.383937
          Atomic-Atomic Spin Densities.
               1          2          3          4          5
     1  S    0.315551  -0.000099   0.003119  -0.137767  -0.003867
     2  S   -0.000099  -0.083857   0.006805   0.006808  -0.000092
     3  S    0.003119   0.006805   0.985757   0.000555  -0.137812
     4  S   -0.137767   0.006808   0.000555   0.985596   0.003099
     5  S   -0.003867  -0.000092  -0.137812   0.003099   0.315454
 Mulliken charges and spin densities:
               1          2
     1  S    0.136397   0.176938
     2  S    0.082338  -0.070434
     3  S   -0.178149   0.858423
     4  S   -0.177870   0.858290
     5  S    0.137284   0.176783
 Sum of Mulliken charges =   0.00000   2.00000
 Mulliken charges and spin densities with hydrogens summed into heavy atoms:
               1          2
     1  S    0.136397   0.176938
     2  S    0.082338  -0.070434
     3  S   -0.178149   0.858423
     4  S   -0.177870   0.858290
     5  S    0.137284   0.176783
 Electronic spatial extent (au):  <R**2>=           1454.8412
 Charge=              0.0000 electrons
 Dipole moment (field-independent basis, Debye):
    X=              0.0001    Y=              0.0715    Z=             -0.0002  Tot=              0.0715
 Quadrupole moment (field-independent basis, Debye-Ang):
   XX=            -64.4516   YY=            -64.6592   ZZ=            -65.8136
   XY=              0.0020   XZ=              0.5891   YZ=             -0.0029
 Traceless Quadrupole moment (field-independent basis, Debye-Ang):
   XX=              0.5232   YY=              0.3156   ZZ=             -0.8388
   XY=              0.0020   XZ=              0.5891   YZ=             -0.0029
 Octapole moment (field-independent basis, Debye-Ang**2):
  XXX=              0.0140  YYY=              0.0485  ZZZ=              0.0173  XYY=             -0.0264
  XXY=              1.9966  XXZ=             -0.0099  XZZ=              0.0187  YZZ=             -1.8910
  YYZ=             -0.0101  XYZ=             -4.1067
 Hexadecapole moment (field-independent basis, Debye-Ang**3):
 XXXX=          -1482.1279 YYYY=           -298.0447 ZZZZ=           -241.1422 XXXY=              0.1029
 XXXZ=             31.5840 YYYX=              0.0529 YYYZ=              0.0000 ZZZX=             -2.7802
 ZZZY=             -0.0026 XXYY=           -300.8911 XXZZ=           -285.9529 YYZZ=            -90.0340
 XXYZ=              0.0059 YYXZ=              4.4331 ZZXY=             -0.0408
 N-N= 4.770761400696D+02 E-N=-5.686637117911D+03  KE= 1.987555235887D+03
 Leave Link  601 at Thu Nov  3 07:41:00 2016, MaxMem=    33554432 cpu:         0.6
 (Enter /home/proyectos/fulerenos/M3C-v2.0/M3C-deps_CCC/g09-AM64L-G09RevC.01/l9999.exe)
 1\1\GINC-BELVIS3\SP\UCCSD(T)-FC\6-311+G(3df)\S5(3)\NAGUIRRE\03-Nov-201
 6\0\\#p ccsd(t)/6-311+G(3df) scf(QC,MaxCyc=300)\\ccsd(t) iener\\0,3\S,
 0,0.052311,0.936646,-0.684042\S,0,1.357128,0.026559,0.727367\S,0,-0.69
 3135,0.334122,3.386308\S,0,-0.662728,-0.362473,-1.944423\S,0,0.078604,
 -0.934875,2.128667\\Version=EM64L-G09RevE.01\State=3-A\HF=-1987.703897
 4\MP2=-1988.5116422\MP3=-1988.5727048\MP4D=-1988.5980223\MP4DQ=-1988.5
 671788\PUHF=-1987.7110443\PMP2-0=-1988.5162949\PMP3-0=-1988.5753346\MP
 4SDQ=-1988.5776675\CCSD=-1988.5785369\CCSD(T)=-1988.6320771\S2=2.04930
 8\S2-1=2.014186\S2A=2.001539\RMSD=0.000e+00\PG=C01 [X(S5)]\\@


 ... I FELL INTO A REVERIE ... THE ATOMS WERE GAMBOLING BEFORE MY EYES
 ... I SAW HOW TWO SMALL ONES UNITED TO FORM A PAIR;
 HOW THE LARGER ONES SEIZED TWO OF THE SMALLER ONES;
 HOW STILL LARGER ONES KEPT HOLD OF THREE OR FOUR
 SMALLER ONES ... I SAW HOW THE LARGER ONES FORMED A CHAIN ...
 THIS WAS THE ORIGIN OF THE STRUCTURE THEORY.

                                   -- C.F.KEKULE VON STRADONITZ
 Job cpu time:       1 days 17 hours 50 minutes 30.5 seconds.
 File lengths (MBytes):  RWF=   7246 Int=      0 D2E=      0 Chk=      5 Scr=      1
 Normal termination of Gaussian 09 at Thu Nov  3 07:41:01 2016.
