3
Energy = -150.5637816800
C -0.164720000  0.112766000 -0.980263000
C  0.472551000 -0.073359000  1.583415000
O  0.096914000  0.014112000  0.160634000

FREQUENCIES 3
80.6151
204.4547
1708.7528

SYMMETRY C1
ELECTRONIC_STATE 2-A
