3
Energy = -150.9876858700
    C   -0.155666   -0.079194    0.000000
    C   -1.518255    0.124331   -0.000000
    O    1.004833   -0.251824    0.000000

FREQUENCIES 4
380.7056
516.4562
1042.8135
1959.5109

SYMMETRY C*V
ELECTRONIC_STATE 1-SG
