4
Energy = -188.5279943000
    C    0.967440   -0.726367    0.323525
    C   -0.086175    0.399390    0.130301
    C   -0.398484    1.647130   -0.206824
    O   -0.170024   -0.938284   -0.205197

FREQUENCIES 6
222.2583
290.6073
615.2596
792.7767
1059.2694
1582.3212

SYMMETRY C1
ELECTRONIC_STATE 2-A
