4
Energy = -188.6865715000
    C    1.890118   -0.476637   -0.061444
    C    0.733350   -0.121345   -0.033167
    C   -0.543668    0.270540   -0.001957
    O   -1.614870    0.599635    0.023671

FREQUENCIES 7
186.8096
186.8097
566.7839
566.7839
951.6801
2179.4964
2405.8490

SYMMETRY C*V
ELECTRONIC_STATE 2-SG
