4
Energy = -188.5461705100
    C    0.810258    0.018963   -0.311076
    C    2.052955    0.268977    0.160201
    C   -0.494211   -0.079582    0.172816
    O   -1.616132   -0.250024    0.075817

FREQUENCIES 6
212.5924
257.4223
392.4044
733.2326
1309.4593
2071.7185

SYMMETRY CS
ELECTRONIC_STATE 4-A"
