4
Energy = -188.9720787000
    C    0.736903   -0.099521    0.130641
    C    1.866181   -0.626775    0.207339
    C   -0.590640   -0.095398   -0.246797
    O   -1.564775    0.560026   -0.219397

FREQUENCIES 6
207.6341
235.1860
429.2225
843.4688
1654.1660
1964.4038

SYMMETRY CS
ELECTRONIC_STATE 3-A'
