4
Energy = -188.9330231500
    C   -0.221786    1.150295    0.031260
    C    1.340770   -1.082167    0.022712
    C    0.447849   -0.160812    0.013405
    O   -0.993681    0.151190   -0.048673

FREQUENCIES 6
208.5196
290.3155
646.1828
798.2859
1348.1107
1874.8829

SYMMETRY CS
ELECTRONIC_STATE 1-A'
