9
Energy = -229.5559031100
    O    2.046804   -0.945037    1.054034
    C    0.343121   -0.111613   -0.390422
    C   -1.167591   -0.161363   -0.544290
    C   -0.674465    1.015016   -0.448477
    C    0.947080   -0.471792    0.914138
    H    0.984421   -0.310722   -1.245827
    H   -1.996932   -0.829027   -0.684269
    H   -0.775922    2.084085   -0.447074
    H    0.293895   -0.268804    1.792248

FREQUENCIES 21
134.1765
323.2627
345.8159
519.9682
638.4800
745.6741
860.4451
929.6470
1010.1435
1034.5515
1071.0099
1105.3912
1113.1518
1318.1407
1413.0021
1741.8886
1798.9788
2844.7309
3092.9807
3256.6075
3305.7357

SYMMETRY C1
ELECTRONIC_STATE 1-A
