9
Energy = -229.5787145600
C  2.262587134 -0.451901228 -0.528852905
C -1.161644557  0.308656309  0.206718412
O -0.775728120  1.440816192  0.247572238
C -0.306245289 -0.916670362 -0.082237872
C  1.101193047 -0.663263368 -0.327059456
H  3.291187651 -0.258096230 -0.706901663
H -2.227852701  0.058290699  0.386249625
H -0.440372963 -1.601338186  0.764036522
H -0.767140078 -1.428618578 -0.935716419

FREQUENCIES 21
142.6925
148.6492
327.4221
376.0837
685.9172
690.2460
711.4869
736.3134
828.3178
1016.1309
1047.3232
1235.0797
1322.9528
1414.8372
1437.2483
1827.9513
2230.3818
2873.8761
2998.0661
3018.3985
3463.3923

SYMMETRY CS
ELECTRONIC_STATE 1-A'
