9
Energy = -229.2547820200
    C    0.180515   -0.513258    0.843105
    C    0.392411    2.021364   -1.589014
    O   -0.034848   -1.620841    1.462481
    C    0.160194    0.941448   -1.070712
    C   -0.107537   -0.276244   -0.506079
    H    0.620039    0.252809    1.472934
    H   -0.429762   -2.328303    0.922720
    H    0.594755    2.967089   -2.044400
    H   -0.547487   -1.060352   -1.116619

FREQUENCIES 21
154.3562
165.8793
412.9345
433.9653
548.8242
655.7868
703.1332
715.9978
858.0334
1025.4084
1087.1592
1165.1180
1295.4825
1369.9344
1408.9972
1596.1732
2100.1143
3136.7653
3186.2883
3393.0537
3687.2828

SYMMETRY C1
ELECTRONIC_STATE 2-A
