9
Energy = -229.2097562900
    O   -2.562967    1.063890    0.320134
    C    1.788524    0.015429   -0.000994
    C    0.367595   -0.051885   -0.015591
    C   -0.852488   -0.176703   -0.048064
    C   -2.254908   -0.072981   -0.013191
    H    2.149487    0.212547    1.013219
    H    2.137301    0.804109   -0.675555
    H    2.212655   -0.938473   -0.340224
    H   -2.985298   -0.855935   -0.239735

FREQUENCIES 21
18.7721
122.1056
183.5601
342.1302
406.8996
538.6219
741.2417
957.8226
972.6710
998.0926
1188.7647
1279.1321
1368.8872
1391.1481
1406.2926
1564.5941
2212.7184
2982.9641
3044.5757
3066.6029
3075.2351

SYMMETRY C1
ELECTRONIC_STATE 2-A
