9
Energy = -229.2439545500
    C    1.158067    0.301098    0.152537
    C   -1.854008   -0.739266   -0.425125
    O    2.055493   -0.275597    0.478571
    C   -1.240497    0.133617    0.315602
    C   -0.055854    0.959845   -0.231987
    H   -0.021459    1.980175    0.166921
    H   -2.689271   -1.418911   -0.436688
    H   -1.515317    0.348643    1.346782
    H   -0.051635    1.014047   -1.326610

FREQUENCIES 21
70.8888
201.2175
382.7069
410.7589
544.0315
669.9486
687.7084
848.0107
862.9231
901.5038
963.1810
1192.0380
1238.0457
1262.5504
1393.4497
1642.9770
2334.6495
3014.9917
3060.7906
3094.3021
3272.9213

SYMMETRY C1
ELECTRONIC_STATE 2-A
