9
Energy = -229.5716705900
    C    0.177258   -0.514169    0.833972
    C    0.388360    2.033350   -1.618298
    O   -0.049510   -1.678626    1.480138
    C    0.175861    0.985021   -1.067178
    C   -0.089106   -0.262090   -0.454351
    H    0.614315    0.224583    1.491131
    H   -0.438849   -2.325959    0.881242
    H    0.578970    2.960404   -2.098388
    H   -0.529022   -1.038803   -1.073853

FREQUENCIES 21
174.1876
186.2978
437.3451
457.1666
503.7094
548.1500
596.8815
697.2590
833.8556
968.9705
1038.5117
1142.9599
1251.7123
1335.3872
1388.3588
1683.6726
2195.9178
3118.3234
3201.7484
3465.1036
3802.9511

SYMMETRY CS
ELECTRONIC_STATE 1-A'
