9
Energy = -229.5768411800
    C    0.348654   -1.242620    0.621352
    C   -0.001770    0.625886   -0.857823
    O   -0.486237   -0.810893    1.582347
    C   -0.544260    1.676525   -1.089529
    C    0.607566   -0.608753   -0.533688
    H    0.809440   -2.185800    0.877817
    H   -0.875746    0.033473    1.312450
    H   -1.010970    2.602628   -1.316691
    H    1.300521   -1.057413   -1.231102

FREQUENCIES 21
139.2979
284.3333
408.7337
517.4905
594.8361
619.1817
703.2950
743.0308
746.4120
961.8921
963.2666
1104.8549
1236.2843
1362.8349
1424.1494
1664.5967
2182.6398
3183.2354
3209.1875
3460.2636
3731.3482

SYMMETRY C1
ELECTRONIC_STATE 1-A
