9
Energy = -229.5755120600
    O    1.849063    0.643696    0.002058
    C   -0.616259   -0.032506   -0.000632
    C    0.813537    0.029623    0.000457
    C    0.073974   -1.185914   -0.001798
    C   -1.951972    0.597043   -0.000665
    H   -0.017117   -2.263891   -0.003403
    H   -2.058702    1.237898    0.876135
    H   -2.751044   -0.143649   -0.002281
    H   -2.057478    1.240404   -0.875776

FREQUENCIES 21
103.4002
233.4199
274.8816
556.7146
619.7768
744.3062
847.6466
858.1233
972.2139
1048.6296
1081.4653
1220.9486
1401.7643
1474.5811
1476.1880
1664.9580
1917.2540
3028.1903
3086.6238
3103.9551
3183.3608

SYMMETRY CS
ELECTRONIC_STATE 1-A'
