9
Energy = -229.1942090800
    O    0.074741   -0.346233    0.000409
    C    1.095230    0.558637   -0.000192
    C    2.347235    0.060867   -0.000012
    C   -1.152183   -0.014322    0.000322
    C   -2.344309    0.201070    0.000299
    H    0.804574    1.600449   -0.000763
    H    3.188275    0.739463   -0.000469
    H    2.528476   -1.005699    0.000583
    H   -3.392835    0.407069    0.000267

FREQUENCIES 21
140.4163
173.3050
425.7275
426.4500
557.7888
644.4070
662.6058
676.8139
866.3124
922.1880
1007.9491
1080.1387
1157.5189
1315.1097
1407.2855
1545.9631
2128.0171
3157.3640
3208.9489
3264.7480
3398.9801

SYMMETRY CS
ELECTRONIC_STATE 2-A"
