9
Energy = -229.5843207500
    C    2.148159   -0.403399   -0.000000
    C   -1.415829    0.241899    0.000000
    O   -1.596345   -0.950200    0.000000
    C   -0.096054    0.916784    0.000000
    C    1.039769    0.263842   -0.000000
    H    2.627155   -0.696059   -0.926683
    H   -2.274284    0.942084   -0.000000
    H   -0.099474    2.001847   -0.000000
    H    2.627155   -0.696060    0.926683

FREQUENCIES 21
144.5316
148.0657
361.8789
415.4103
508.6080
780.6806
877.5858
893.3821
901.9042
993.1518
1024.6830
1127.7965
1355.5721
1424.2267
1459.2227
1767.1195
2023.4649
2891.7576
3122.7245
3138.0894
3195.7757

SYMMETRY CS
ELECTRONIC_STATE 1-A'
