9
Energy = -229.5356836300
    C   -0.866734   -0.691819   -0.000000
    C    1.171660    0.197134    0.000000
    O    0.354342   -1.124058    0.000000
    C    0.241555    1.305394    0.000000
    C   -1.014782    0.691607   -0.000000
    H   -1.633843   -1.458028    0.000000
    H    1.793552    0.126997    0.892314
    H    1.793552    0.126997   -0.892314
    H   -1.976474    1.183059    0.000000

FREQUENCIES 21
343.6805
431.2609
499.3045
785.3713
805.1110
879.4386
897.5541
1014.1672
1015.5255
1103.1051
1148.1865
1150.8821
1249.6937
1297.4626
1392.6681
1415.0982
1508.5521
3074.4122
3126.4326
3174.4505
3200.6351

SYMMETRY CS
ELECTRONIC_STATE 1-A'
