5
Energy = -226.6549439800
    C    0.001418    0.100403    0.068962
    C    0.373616   -0.642599    1.308929
    C   -0.209520    0.616205    1.268363
    C    0.002503    0.029588   -1.303509
    O    0.013970   -0.050941   -2.420354

FREQUENCIES 9
183.3705
223.8018
486.3201
601.6779
625.5600
763.7237
1155.4673
1716.6238
2318.0790

SYMMETRY CS
ELECTRONIC_STATE 2-A'
