5
Energy = -227.0114024400
C -1.951319029 -1.833776500  0.056753199
C -0.999061717 -0.946696446  0.027916700
C  0.983142596  0.677484291 -0.058331068
C -0.065908000 -0.064114000  0.001227000
O  1.892829612  1.400922741 -0.100500124

FREQUENCIES 9
22.9984
250.1438
347.5476
379.4121
447.6123
773.9865
1475.3381
1997.7889
2289.0622

SYMMETRY C1
ELECTRONIC_STATE 1-A
