5
Energy = -226.8503747500
    C    0.098195   -0.162204   -0.836067
    C    0.263697    0.159322    0.787796
    C    1.376966   -0.124628   -0.121649
    C   -0.600960    1.025929   -0.147829
    O   -0.831906   -0.619440    0.201449

FREQUENCIES 9
285.8341
474.8895
530.6722
589.2059
706.0835
874.1995
904.4071
1159.3054
1216.4247

SYMMETRY CS
ELECTRONIC_STATE 1-A'
