5
Energy = -226.8553366500
    C    0.655916   -0.278031    0.062635
    C   -0.700189    0.144644   -0.090464
    C   -1.970476   -0.108656   -0.289817
    C    1.572931   -1.213097    0.110154
    O    0.316006    1.070861    0.131403

FREQUENCIES 9
164.3521
293.7796
294.5742
413.7046
706.0858
822.7606
965.1523
1576.2838
1903.4142

SYMMETRY C2V
ELECTRONIC_STATE 1-A1
