5
Energy = -227.0167323600
    C   -0.927587    0.319725    0.136501
    C   -0.750835    1.588660   -0.471637
    C    0.291062   -0.488153    0.197009
    C    0.444530    0.826882   -0.426357
    O    0.795641   -1.493911    0.520756

FREQUENCIES 9
267.6721
460.9785
678.9129
690.5242
777.7831
960.5728
979.2577
1406.2354
1986.3774

SYMMETRY C2V
ELECTRONIC_STATE 1-A1
