5
Energy = -227.0249320400
    C   -0.132715   -0.007341    0.013247
    C   -1.071971    0.853602   -0.120201
    C    0.807992   -0.869090    0.147010
    C   -2.027286    1.730428   -0.255772
    O    1.659612   -1.650340    0.268104

FREQUENCIES 10
132.8188
132.8188
376.5184
376.5184
518.5884
518.5884
773.9134
1470.2879
1984.8482
2292.1410

SYMMETRY C*V
ELECTRONIC_STATE 3-SG
