2
Energy = -113.1565357900
    C   -0.774245    0.000000    0.000000
    O    0.350211    0.000000    0.000000

FREQUENCIES 1
2216.8130

SYMMETRY C*V
ELECTRONIC_STATE 1-SG
