2
Energy = -112.9350316900
    C   -0.765397    0.000000    0.000000
    O    0.434774    0.000000    0.000000

FREQUENCIES 1
1792.0090

SYMMETRY C*V
ELECTRONIC_STATE 3-PI
