5
Energy = -152.2246725100
    C    1.543299    0.383170    0.336126
    C    0.539083   -0.154672   -0.308259
    H    0.979143   -1.016681   -0.834114
    H   -1.084103    0.801688   -0.006132
    O   -0.787769    0.030000   -0.500770

FREQUENCIES 9
213.0887
346.8860
693.8089
962.5903
1092.1789
1346.1505
1746.1236
3007.7771
3819.5529

SYMMETRY CS
ELECTRONIC_STATE 1-A'
