5
Energy = -152.2716930000
    C    1.246162   -0.583278    0.572717
    C    0.065844    0.227823    0.541769
    H    2.123130   -0.243789    1.101422
    H    1.266031   -1.544063    0.064824
    O   -0.977907    0.004288    0.009189

FREQUENCIES 9
392.3835
465.1113
801.0427
993.3455
1063.3275
1438.9070
1784.8246
3090.5512
3245.6095

SYMMETRY CS
ELECTRONIC_STATE 3-A"
