5
Energy = -151.8400839200
    C    1.440272    0.089032    0.322150
    C    0.145406    0.343902   -0.184023
    H    1.838375   -0.683614    0.980919
    H   -1.036900   -1.045772    0.529384
    O   -0.938545   -0.238208   -0.031298

FREQUENCIES 9
455.8969
547.7763
754.8233
907.0006
992.6050
1223.3539
1642.3323
3121.3955
3452.4046

SYMMETRY CS
ELECTRONIC_STATE 4-A"
