5
Energy = -152.0088066100
    C   -1.418121   -0.216401    0.000472
    O   -0.448923   -0.782672    0.001839
    C   -2.606510    0.477800   -0.001131
    H   -3.058405    0.739468   -0.954494
    H   -3.058337    0.744019    0.951002

FREQUENCIES 9
416.7713
471.1054
761.0652
1013.6016
1050.3487
1376.8970
2282.0430
3095.5773
3214.8697

SYMMETRY C2V
ELECTRONIC_STATE 2-B1
