5
Energy = -151.9371515600
    C    1.095631    0.273613   -0.714193
    C   -0.044983    0.288562   -0.236285
    H    2.084047    0.293667   -1.133314
    H   -1.694756    1.002223    0.364761
    O   -1.174762    0.173487    0.255226

FREQUENCIES 9
387.4932
452.1265
606.0296
626.7798
1165.2525
1213.3173
2199.2768
3346.4093
3542.6858

SYMMETRY CS
ELECTRONIC_STATE 2-A"
