5
Energy = -151.8288362600
    C    1.368292   -0.417334    0.327286
    C    0.165312    0.255467    0.029221
    H    2.419062   -0.164718    0.389181
    H   -1.146432   -1.175577    0.215818
    O   -0.977731   -0.219751    0.009382

FREQUENCIES 9
432.9116
560.8255
586.9009
806.8352
975.6249
1233.8456
1635.8040
3214.4595
3379.5952

SYMMETRY CS
ELECTRONIC_STATE 4-A"
