5
Energy = -151.8142907900
    C    0.802092   -0.524117    0.422936
    C    0.069601    0.538027   -0.050509
    H    1.856008   -0.383637    0.688660
    H    0.370623   -1.526298    0.549383
    O   -1.179641    0.373429   -0.365917

FREQUENCIES 9
381.8488
577.1728
800.7580
882.7692
1236.9006
1306.1942
1469.5704
2971.4548
3069.9574

SYMMETRY CS
ELECTRONIC_STATE 4-A"
