6
Energy = -190.2633516200
    C   -0.638800    0.270084   -0.272457
    C   -1.891994    0.197895   -0.119788
    C    0.681215    0.382878   -0.452131
    H    1.136674   -1.258465    0.350371
    H    1.150345    1.235332   -0.933720
    O    1.581187   -0.508948   -0.075928

FREQUENCIES 12
171.5518
187.5992
598.2153
714.5872
997.4528
1039.3081
1254.3831
1344.3559
1494.7487
2072.4922
3153.8731
3723.8849

SYMMETRY CS
ELECTRONIC_STATE 1-A'
