6
Energy = -189.6843787800
    C   -1.873195    0.888826    0.216543
    C   -0.873777    0.359984   -0.163433
    C    1.532845    0.215066    0.171069
    H    0.266727   -1.182057   -0.721980
    H    2.174091    0.886351   -0.401593
    O    0.308450   -0.245390   -0.419816

FREQUENCIES 12
141.9132
156.0005
270.6036
352.7586
475.6284
882.5208
996.9315
1092.6199
1388.8428
2246.7638
3112.9029
3508.1210

SYMMETRY C1
ELECTRONIC_STATE 4-A
