7
Energy = -227.8971270300
    C    1.297982    1.119763    0.216225
    C   -0.782856   -0.222103   -0.584527
    C   -1.843769   -0.731426   -1.004714
    C    0.336051    0.214732   -0.134347
    H   -2.756433   -1.157990   -1.366966
    H    1.179176    2.218366    0.088948
    O    2.408927    0.818846    0.714349

FREQUENCIES 15
95.4385
159.6450
384.0226
434.5472
442.4905
467.6661
668.9149
834.0302
868.0502
1155.3003
1401.2158
1615.9599
1926.8250
2848.5098
3364.1914

SYMMETRY CS
ELECTRONIC_STATE 4-A"
