7
Energy = -228.2405561600
    C    0.906972   -0.780038    0.212773
    C   -2.797329    0.339377   -0.081681
    C   -0.345698   -0.403503    0.113653
    C   -1.574706   -0.046167    0.018259
    H    1.749070    0.931468   -0.044614
    H    1.149924   -1.819667    0.391469
    O    2.003253    0.015039    0.114300

FREQUENCIES 15
124.1135
193.8223
286.5652
404.5024
455.9572
635.1971
791.5331
889.4311
1161.2154
1274.8435
1388.1716
1721.8064
2129.6448
3179.9253
3807.5962

SYMMETRY CS
ELECTRONIC_STATE 1-A'
