7
Energy = -227.9446720300
    C    1.193463    0.914486   -0.330548
    C   -1.139495   -0.562000    0.172335
    C   -1.551227    0.452631   -0.600710
    C   -0.250174    0.442463   -0.224065
    H   -1.257793   -1.483938    0.727235
    H    1.602321    1.483867    0.514607
    O    1.750001    0.619496   -1.337137

FREQUENCIES 15
58.5980
187.7779
295.1604
528.1035
779.0458
932.8185
936.0012
987.9402
1170.2202
1334.7399
1362.9965
1689.4474
1820.7500
3030.9970
3231.1710

SYMMETRY C1
ELECTRONIC_STATE 2-A
