7
Energy = -228.2869965200
    C    1.092207   -0.622531   -0.035532
    C   -1.554516    0.037475   -0.574564
    C   -1.227335    0.566291    0.674458
    C   -0.267664   -0.098506    0.039958
    H   -1.515901    1.119539    1.553280
    H    1.194562   -1.674787    0.292098
    O    2.028046    0.025382   -0.430063

FREQUENCIES 15
119.7426
214.9585
265.2436
586.2427
801.0978
924.1837
947.7600
989.6491
1103.4495
1273.2778
1405.7438
1728.2049
1766.9481
2909.5943
3242.4224

SYMMETRY C1
ELECTRONIC_STATE 1-A
