4
Energy = -113.7416968300
    C    0.263833    0.628765   -0.324925
    H    0.829574    0.315283   -1.231153
    H   -0.196863    1.640287   -0.389413
    O   -0.766182   -0.336384   -0.061532

FREQUENCIES 6
679.7693
790.6914
944.4886
1178.2487
2811.4213
2875.2725

SYMMETRY CS
ELECTRONIC_STATE 4-A"
