4
Energy = -114.2500747100
    C    0.488827   -0.286326   -0.265819
    H    0.380634   -1.391697   -0.202194
    H   -0.767820    1.084551   -0.371881
    O   -0.753071    0.118744   -0.314014

FREQUENCIES 6
1089.8228
1215.9048
1327.0689
1502.7011
2850.8981
3721.5356

SYMMETRY CS
ELECTRONIC_STATE 1-A'
