4
Energy = -113.7308409200
    C    0.819166    0.128001    0.070790
    H    1.015109    1.005943    0.701173
    H   -0.850250   -0.954911    0.719821
    O   -0.626888   -0.243323    0.049581

FREQUENCIES 6
497.5196
721.0247
1002.1385
1037.5468
3011.9917
3352.1337

SYMMETRY C1
ELECTRONIC_STATE 4-A
