3
Energy = -76.3318475260
    H    0.653499    0.803982    0.000000
    H    1.196676   -0.622393    0.000000
    O    0.379433   -0.116999    0.000000

FREQUENCIES 3
1627.6404
3821.8484
3925.0852

SYMMETRY C2V
ELECTRONIC_STATE 1-A1
