6
Energy = -152.6127199800
    C    1.166022   -0.921374    0.231452
    C    0.122855   -0.459581   -0.327805
    H    1.276645   -0.867713    1.313548
    H    1.943668   -1.394449   -0.366515
    H   -1.629541   -0.446655   -1.028072
    O   -0.819412    0.093400   -0.875703

FREQUENCIES 12
385.2976
393.8195
813.8125
839.4177
896.5737
1126.6873
1185.6963
1344.8749
2120.5885
3087.4267
3167.9734
3519.1704

SYMMETRY CS
ELECTRONIC_STATE 1-A'
