6
Energy = -152.5089647800
    C   -1.162392    0.948515   -0.327051
    C    0.549375   -0.717494    0.375479
    H    1.133147   -0.474996    1.255066
    H   -0.871244    1.712889   -1.067388
    O   -0.225052    0.181064   -0.061053
    H    0.576144   -1.649947   -0.175063

FREQUENCIES 12
229.1439
402.5067
917.7129
932.1317
1041.2644
1131.7868
1203.2930
1490.3133
1671.2300
3000.1009
3115.6510
3276.9930

SYMMETRY C1
ELECTRONIC_STATE 1-A
