6
Energy = -152.5939851200
    C    0.076701    0.067061   -0.529155
    C    0.609564   -1.230675   -0.265104
    H   -0.891554    0.159204   -1.006368
    H    0.681562    0.943076   -0.327976
    H    1.170823   -2.125722   -0.532461
    O    0.006418   -0.903646    0.754741

FREQUENCIES 12
521.9583
783.0356
1006.1320
1011.1356
1094.9787
1136.0813
1342.6607
1451.0168
1688.5799
3118.6323
3165.7021
3247.3843

SYMMETRY CS
ELECTRONIC_STATE 1-A'
