6
Energy = -152.7487415200
    C    1.284345   -0.395387    0.135771
    C    0.077622    0.540103    0.012131
    H    0.101978    0.986010   -0.984051
    H    0.207506    1.320252    0.771557
    H   -1.252546   -0.446796    1.027841
    O   -1.155365   -0.108446    0.131395

FREQUENCIES 12
371.2121
501.0981
839.7646
943.3619
1039.9164
1167.9682
1310.5840
1372.2019
1467.3534
2971.7188
3054.6737
3814.4975

SYMMETRY C1
ELECTRONIC_STATE 4-A
