6
Energy = -152.7757355300
    C    0.443968    0.277648   -0.414559
    C    0.974842   -1.056852   -0.075841
    H    0.933196   -1.414708    0.950353
    H    1.066596   -1.810213   -0.853544
    H   -1.338443    0.782604    0.135540
    O   -0.865049    0.462981   -0.649324

FREQUENCIES 12
377.0971
426.0633
476.3267
646.9680
960.8001
1017.0759
1136.9526
1285.5010
1426.9966
3057.0718
3148.6935
3636.3479

SYMMETRY C1
ELECTRONIC_STATE 4-A
