6
Energy = -152.8839984700
    C    0.072057   -0.039353   -0.076941
    C    0.867662   -1.060051   -0.301505
    H    0.710766   -1.715368   -1.154772
    H    1.707354   -1.256709    0.347118
    H   -1.142085    1.263198   -0.733680
    O   -1.087817    0.306616   -0.629936

FREQUENCIES 12
337.5468
448.0612
624.6697
828.8584
963.1787
1126.3673
1222.8376
1410.3381
1711.7786
3090.3114
3219.5027
3806.9071

SYMMETRY C1
ELECTRONIC_STATE 2-A
