7
Energy = -190.6364923300
    C   -0.157876    1.900366    0.000000
    C    0.103654    0.721644    0.000000
    C    0.486678   -0.605052    0.000000
    H   -0.401163    2.943475   -0.000000
    H   -1.259167   -1.366320   -0.000000
    H    1.538954   -0.884057   -0.000000
    O   -0.309404   -1.597648   -0.000000

FREQUENCIES 15
204.7935
244.6650
609.9956
739.0396
799.6267
846.3378
1023.8757
1062.3327
1248.6739
1421.4235
1569.5363
2194.3189
3150.8430
3386.2745
3639.9974

SYMMETRY CS
ELECTRONIC_STATE 1-A'
