7
Energy = -190.6364918100
    C    2.074514   -0.609279    0.217960
    C    1.005381   -0.079845    0.403353
    C   -0.194186    0.538017    0.696710
    H    3.020111   -1.080508    0.041695
    H   -0.973094    0.399534   -1.035692
    H   -0.401149    0.912297    1.697797
    O   -1.141586    0.728974   -0.130907

FREQUENCIES 15
204.1708
243.9797
610.0790
739.2906
798.4952
846.0802
1023.4907
1061.7687
1248.2492
1421.3684
1569.6175
2194.5011
3150.8160
3386.0999
3639.8958

SYMMETRY CS
ELECTRONIC_STATE 1-A'
