8
Energy = -228.6680730200
C -1.409382037  0.608272663 -0.135376443
C  0.912513636 -0.127256664  0.465605655
O  1.980665061 -0.180343164  0.132937382
C -0.431643282 -0.060787818  0.854660843
C -1.467899991 -0.659123674 -0.121021003
H -1.713897803  1.605978708 -0.399089764
H -0.569580568 -0.042197306  1.933676139
H -1.863319523 -1.630233878 -0.362434100

FREQUENCIES 18
191.5961
207.3911
622.0219
631.0170
701.7461
739.3153
833.2358
910.0429
922.6394
960.9032
1009.5396
1033.1424
1323.4748
1779.9600
2316.1318
3107.0200
3258.9666
3318.2735

SYMMETRY CS
ELECTRONIC_STATE 1-A'
