8
Energy = -228.5867581700
    C    0.228592    1.028533   -0.027147
    C   -0.790028   -0.884190    0.083991
    O   -1.025286    0.422343   -0.009426
    C    0.554403   -0.958749   -0.172046
    C    1.303243    0.150207    0.075119
    H    0.242284    2.044448   -0.399516
    H   -1.577493   -1.584972    0.308265
    H    2.336409    0.398434   -0.108869

FREQUENCIES 18
416.2747
527.9534
638.2051
704.3251
798.7788
844.7668
890.9967
980.3737
1076.6546
1099.8115
1229.4706
1249.2095
1308.3792
1435.6185
1525.1040
3213.4209
3246.4286
3266.0653

SYMMETRY C1
ELECTRONIC_STATE 1-A
