8
Energy = -228.6486671800
    C   -1.585819   -0.675995    0.069385
    C    1.033865    0.017947   -0.560243
    O    1.742628   -0.011399    0.394754
    C   -0.453700    0.009676   -0.274077
    C   -1.584107    0.672685    0.116245
    H   -2.092374   -1.620054    0.209700
    H    1.351382    0.049624   -1.611718
    H   -2.088145    1.606051    0.321931

FREQUENCIES 18
19.5609
184.0009
295.1823
539.6512
750.5061
912.6787
958.7855
973.8968
1010.5479
1037.4511
1271.1474
1357.1355
1381.9183
1719.4202
1818.9244
3018.4283
3231.1807
3264.5101

SYMMETRY C1
ELECTRONIC_STATE 1-A
