8
Energy = -228.9321263900
    C    0.725814    0.969777   -0.000298
    H   -2.063334   -0.847537    0.000341
    C    1.090244   -0.339331   -0.000102
    C   -1.111227   -0.352993    0.000190
    C   -0.691877    0.924060   -0.000249
    H    1.375853    1.826096   -0.000509
    H    2.045266   -0.833502   -0.000099
    O    0.002121   -1.157514    0.000060

FREQUENCIES 18
546.4146
618.1643
706.8081
767.8566
860.0751
866.5996
873.9552
1015.5456
1047.0268
1138.6079
1175.1309
1247.4845
1377.8412
1490.0979
1545.6493
3253.1973
3272.9838
3293.8394

SYMMETRY CS
ELECTRONIC_STATE 2-A'
