5
Energy = -114.4893814400
    C   -1.036522    0.184354   -0.219134
    H   -1.422164   -0.800004   -0.541546
    H    0.848655    0.652050    0.369234
    H    0.764108   -0.967346   -0.019635
    O    0.298062   -0.098449    0.058240

FREQUENCIES 9
593.0339
921.0330
938.2368
993.9052
1433.4043
1664.2119
2996.1629
3426.6725
3604.5835

SYMMETRY CS
ELECTRONIC_STATE 1-A'
