5
Energy = -114.8861086700
    C   -0.443798   -0.308230   -0.740442
    H    0.972789    0.827007   -0.117554
    H   -1.026507    0.530566   -1.094382
    H   -0.885412   -1.277807   -0.579939
    O    0.666374   -0.074060    0.014429

FREQUENCIES 9
409.7816
526.6167
1053.5438
1203.7318
1355.7363
1483.7012
3129.7921
3271.7755
3850.3227

SYMMETRY C1
ELECTRONIC_STATE 2-A
