7
Energy = -153.5018895200
    C    0.427776   -0.468921    0.017057
    C   -1.031039   -0.612909   -0.243658
    H   -1.438478   -1.274734    0.526095
    H    1.643579    0.910241    0.316568
    H   -1.144473   -1.167306   -1.179720
    H   -1.597914    0.322839   -0.282289
    O    0.698430    0.812479    0.145419

FREQUENCIES 15
99.8523
510.5268
732.5594
916.3196
972.3798
1054.4447
1287.8726
1342.1685
1371.5768
1443.9756
1467.6084
2985.8338
3064.0607
3071.8787
3764.8544

SYMMETRY C1
ELECTRONIC_STATE 1-A
