7
Energy = -153.5662170900
    C   -0.097458    0.223055    0.488878
    C   -1.184350    0.222819   -0.273283
    H   -2.015471    0.864620   -0.026561
    H    0.929723   -1.076799   -0.471589
    H   -0.000083    0.848989    1.365922
    H   -1.276549   -0.405746   -1.150321
    O    1.025091   -0.523348    0.311182

FREQUENCIES 15
455.8523
492.0452
713.5861
840.6490
961.0185
996.8853
1119.0676
1322.6401
1351.5248
1449.8420
1695.8198
3140.2961
3185.9168
3238.2021
3810.3222

SYMMETRY CS
ELECTRONIC_STATE 1-A'
