7
Energy = -153.5642618600
    C   -0.176654    0.076376    0.259931
    C   -1.108724   -0.397307   -0.553894
    H   -1.939336   -0.953871   -0.149776
    H    1.458549    1.044166    0.540626
    H   -1.060659   -0.240729   -1.622117
    H   -0.216479   -0.075816    1.333063
    O    0.897434    0.788061   -0.194143

FREQUENCIES 15
278.7165
485.2407
714.9925
866.3048
957.8057
976.7803
1139.2107
1281.0289
1349.8532
1440.2031
1722.2535
3142.6742
3161.4815
3251.3994
3872.4718

SYMMETRY CS
ELECTRONIC_STATE 1-A'
