7
Energy = -153.4960221200
C  0.564930687  0.672695386 -0.132548817
C -0.761960604  0.445838934  0.502614890
H -1.385170025  1.324211131  0.316157822
H -1.290922170 -0.463936928  0.166627654
H -0.621208293  0.411074639  1.585977326
H  0.201741644 -0.962756539 -1.090108770
O  0.880988615 -0.252582197 -0.988072681

FREQUENCIES 15
146.7206
535.1338
744.9288
909.3820
980.4522
1060.4548
1325.9588
1353.1632
1369.7810
1429.9791
1471.5255
2895.9334
3057.2253
3077.2802
3335.6476

SYMMETRY CS
ELECTRONIC_STATE 1-A'
