8
Energy = -191.5234861900
    C   -0.247317    0.998615   -0.176702
    C    0.636410   -0.171210   -0.063013
    C   -0.498448   -0.461886   -0.598650
    H    2.005742   -1.440631    0.231358
    H   -0.054995    1.752244   -0.940390
    H   -0.742456    1.393514    0.710454
    H   -1.205545   -1.136392   -1.039611
    O    1.854645   -0.498087    0.372761

FREQUENCIES 18
336.5970
419.8004
464.9903
670.1923
691.6058
954.1140
1005.9732
1024.2934
1071.6231
1112.7510
1160.6139
1377.5551
1526.6429
1869.6030
3016.8387
3074.8854
3295.7003
3786.2936

SYMMETRY CS
ELECTRONIC_STATE 1-A'
