8
Energy = -191.0653905200
    C   -0.981231   -1.251206    0.491445
    C    0.677829    0.608564    0.748182
    C   -0.699625    0.070389    0.430971
    H    0.760310    1.698574    0.898313
    H    1.221704    0.135022    1.586683
    H   -0.548424   -2.176102    0.849374
    H   -1.406910    0.758475   -0.026900
    O    1.246506    0.234507   -0.427107

FREQUENCIES 18
119.4135
318.7407
398.9783
727.5026
761.7390
826.7338
887.3214
939.1689
1023.2288
1090.5449
1258.6432
1267.3126
1322.0945
1467.4345
2902.0387
2937.8750
3132.9964
3221.7434

SYMMETRY C1
ELECTRONIC_STATE 4-A
