8
Energy = -191.1064228800
    C   -1.968957   -0.830509    0.219547
    C    0.378961    0.063615   -0.278645
    C   -0.582112   -0.562535    0.550675
    H    1.844269   -0.036686    0.985437
    H   -0.263633   -0.882259    1.543473
    H    0.157676    0.415333   -1.277748
    H   -2.617358   -0.668914   -0.629477
    O    1.614703    0.270328    0.090601

FREQUENCIES 18
176.2491
291.4884
303.3936
522.1276
524.5258
819.4463
841.1045
898.7970
1089.8375
1158.0855
1270.7289
1308.2785
1392.7936
1553.1573
3109.5454
3204.7288
3228.3874
3691.3683

SYMMETRY C1
ELECTRONIC_STATE 4-A
