8
Energy = -191.0411439600
    C   -1.661385    0.433111    0.594627
    C    0.379754    0.539212   -0.864147
    C   -0.963035   -0.011622   -0.502595
    H    1.218930   -1.216073   -0.325947
    H    0.681077    0.358789   -1.892485
    H    0.569896    1.556093   -0.541859
    H   -1.333111   -0.893910   -1.028333
    O    0.984466   -0.364170    0.083988

FREQUENCIES 18
182.9774
313.6655
449.9139
551.3447
825.6129
916.6050
989.3457
1046.8772
1130.9336
1262.0235
1314.0881
1326.2295
1380.4050
1499.5471
3084.4143
3103.6358
3192.4438
3692.1065

SYMMETRY C1
ELECTRONIC_STATE 4-A
