8
Energy = -191.4721626100
    C   -0.756409    0.188635    0.484527
    C    0.630686   -0.399076    0.459057
    C   -1.489263    0.993790   -0.206255
    H    1.587183    1.115787   -0.314946
    H    1.064077   -0.324968    1.462338
    H    0.566402   -1.458984    0.210430
    H   -1.436502   -0.070066    1.316309
    O    1.469658    0.181926   -0.513059

FREQUENCIES 18
140.7792
153.8306
327.9551
455.7500
541.6198
861.4753
897.1459
985.9695
1095.5596
1217.4599
1372.9087
1405.3522
1497.1232
1790.9256
2981.2258
2997.5901
3069.8383
3831.0948

SYMMETRY C1
ELECTRONIC_STATE 1-A
