8
Energy = -191.2262737600
    C   -0.252497    0.643262   -0.296443
    C    0.753355    0.174390    0.509782
    C   -1.211041    1.104393   -1.007641
    H    1.697115   -0.796163   -0.850363
    H   -1.132690    2.066476   -1.516152
    H    0.796781    0.410950    1.568511
    H   -2.142709    0.551626   -1.137051
    O    1.725913   -0.577163    0.099765

FREQUENCIES 18
208.1924
208.4956
287.3390
599.8602
673.4722
853.0108
940.9595
966.6460
984.1693
1231.9207
1344.9461
1379.8085
1488.6169
1961.2728
3056.5151
3126.1939
3170.4550
3667.4112

SYMMETRY CS
ELECTRONIC_STATE 2-A"
