8
Energy = -191.1151361300
    C   -0.712347    1.793145   -0.538821
    C    0.413216    0.036548    0.200856
    C   -0.679851    0.346794   -0.738391
    H    1.819896   -0.188158   -1.083675
    H   -0.601639    0.000896   -1.776841
    H    0.247763    0.064655    1.273029
    H   -1.663666    0.040890   -0.327039
    O    1.635323   -0.121897   -0.128717

FREQUENCIES 18
153.8474
327.1706
426.8438
511.5196
682.0629
856.4458
962.9914
1017.1828
1045.4278
1137.9211
1272.4451
1311.4557
1418.2604
1552.8710
2914.6966
3019.6024
3182.6665
3668.8067

SYMMETRY C1
ELECTRONIC_STATE 2-A
