9
Energy = -229.2458239800
    O    1.698837    0.705601    0.002149
    C   -0.728407   -0.169990   -0.000868
    C    0.765248   -0.016298    0.000538
    C    0.043799   -1.230579   -0.001482
    C   -1.946577    0.631256   -0.000925
    H    0.204612   -2.302694   -0.002612
    H   -1.972146    1.270057    0.884361
    H   -2.810678   -0.036800   -0.002429
    H   -1.970685    1.272151   -0.884737

FREQUENCIES 21
88.7603
211.6396
332.3548
431.1600
539.3336
549.5712
766.1114
834.6351
928.8841
1024.9598
1033.0188
1038.1878
1388.7978
1421.3720
1441.0397
1654.6021
1875.5274
3019.7262
3097.8950
3101.9392
3193.2339

SYMMETRY CS
ELECTRONIC_STATE 2-A'
