9
Energy = -229.5889622200
    C   -2.405785   -0.228601    0.000000
    C    1.174297   -0.378170   -0.000000
    O    2.339652   -0.063792    0.000000
    C    0.066101    0.594594   -0.000000
    C   -1.182743    0.200034    0.000000
    H   -2.937519   -0.410204   -0.926307
    H    0.863875   -1.440215    0.000000
    H    0.330960    1.646111   -0.000000
    H   -2.937519   -0.410204    0.926307

FREQUENCIES 21
130.0822
165.4858
388.0225
477.0192
544.0556
559.9674
884.9015
911.8047
999.3884
1022.9021
1075.1242
1123.4728
1303.9685
1415.8250
1464.3663
1765.2492
2021.8951
2908.6100
3122.6608
3152.3606
3195.9959

SYMMETRY CS
ELECTRONIC_STATE 1-A'
