9
Energy = -229.5559045000
    C   -0.352897    0.985595   -0.000000
    C   -0.082398   -1.507247   -0.639583
    O    0.088346    2.107347    0.000000
    C   -0.082398   -1.507247    0.639583
    C    0.472127   -0.245464   -0.000000
    H   -1.450479    0.800858    0.000000
    H   -0.260271   -1.986914    1.583766
    H   -0.260271   -1.986914   -1.583766
    H    1.543844   -0.060949   -0.000000

FREQUENCIES 21
134.3724
323.5642
345.8705
519.9627
639.0472
745.5039
860.8871
929.6233
1010.2087
1034.3774
1071.0746
1105.4872
1113.0250
1318.2598
1413.7189
1741.8126
1798.8197
2845.3604
3093.1318
3257.1527
3306.2575

SYMMETRY CS
ELECTRONIC_STATE 1-A'
