9
Energy = -229.5889654000
    O    2.729096    0.857591   -0.000000
    C    0.753204   -0.445656   -0.000000
    C    1.522878    0.812158   -0.000000
    C   -0.556495   -0.439384    0.000000
    C   -1.851663   -0.393015   -0.000000
    H    1.318080   -1.371301    0.000000
    H    0.911372    1.734320    0.000000
    H   -2.413286   -0.377357    0.926377
    H   -2.413285   -0.377357   -0.926377

FREQUENCIES 21
130.5489
165.6021
388.1846
477.0948
544.3041
559.9504
885.0054
911.9140
999.5031
1022.9236
1075.0911
1123.4138
1303.9609
1415.7732
1464.3460
1764.9053
2021.7718
2908.5548
3122.3381
3152.0991
3195.7073

SYMMETRY CS
ELECTRONIC_STATE 1-A'
