9
Energy = -229.5687641800
    O    0.910233    1.431042    0.000000
    C    0.337361    0.188570   -0.000000
    C    1.016243   -0.962764   -0.000000
    C   -1.088079    0.249542   -0.000000
    C   -2.286945    0.298606   -0.000000
    H    2.098049   -0.981400    0.000000
    H    0.492133   -1.904100    0.000000
    H    1.868880    1.338622    0.000000
    H   -3.347871    0.341983    0.000000

FREQUENCIES 21
193.1513
271.9340
386.2939
449.6184
584.0205
648.4265
660.7895
704.6906
705.1759
815.2651
840.7716
978.2008
1180.9544
1362.3050
1445.4990
1670.4685
2217.3735
3151.1194
3254.1437
3462.8840
3819.2569

SYMMETRY CS
ELECTRONIC_STATE 1-A'
