9
Energy = -229.2577419000
O -2.553349186 -1.562575393  0.023334237
C  1.026936605 -0.247435480  0.056261085
C  0.246605059  1.026073413 -0.067644326
C -0.452310099 -0.277041833  0.004217570
C -1.585119549 -0.970158193  0.014524633
H  1.465040753 -0.516078227  1.012750626
H  1.532089742 -0.652843876 -0.815197895
H  0.194154132  1.530680431 -1.027642800
H  0.127105142  1.667446079  0.800305722

FREQUENCIES 21
122.9077
167.0899
453.0166
585.9096
609.4617
718.9582
859.9303
903.1159
1012.2939
1018.2331
1081.7037
1113.7412
1182.5313
1427.9812
1436.8321
1486.7546
2233.8705
3086.6487
3093.8309
3170.2185
3185.1975

SYMMETRY C2V
ELECTRONIC_STATE 2-B1
