9
Energy = -229.2230562000
    C   -1.234335    0.167031    0.341283
    C    2.321178   -0.435897   -0.226285
    O   -1.322135   -0.829143    0.979712
    C    1.235806    0.223532    0.075396
    C    0.133898    0.878275    0.305304
    H   -2.067620    0.655151   -0.183060
    H    3.113640   -0.567921    0.507672
    H    2.470108   -0.859591   -1.216974
    H    0.092875    1.942972    0.528251

FREQUENCIES 21
111.6039
160.9892
304.1056
353.7178
475.0996
612.1673
729.1862
846.3926
921.0829
961.0869
990.6722
1094.5372
1192.3020
1295.2632
1409.3629
1650.5191
1855.3157
3017.0513
3088.1072
3120.5162
3173.3920

SYMMETRY C1
ELECTRONIC_STATE 2-A
