9
Energy = -229.2624258800
    O   -3.406207   -0.736977    0.000000
    C    1.172329    0.750612    0.000000
    C    0.343269   -0.479346    0.000000
    C   -0.968928   -0.538970   -0.000000
    C   -2.268356   -0.650248   -0.000000
    H    1.832821    0.713602    0.873347
    H    1.832821    0.713602   -0.873347
    H    0.590323    1.665666   -0.000000
    H    0.872127   -1.438042   -0.000000

FREQUENCIES 21
90.7756
133.5350
205.4115
411.9679
465.7735
578.6574
773.5012
776.4525
1008.2268
1033.9765
1100.4758
1286.6140
1363.6245
1444.8447
1467.7814
1775.7546
2238.9487
3006.9934
3049.7241
3050.5509
3165.0723

SYMMETRY CS
ELECTRONIC_STATE 2-A'
