9
Energy = -229.5772937600
    O    0.000000    0.000000    2.301466
    C   -0.000000   -0.753215   -1.423403
    C    0.000000    0.753215   -1.423403
    C   -0.000000   -0.000000   -0.148116
    C   -0.000000   -0.000000    1.133216
    H    0.913353   -1.263742   -1.704936
    H   -0.913353   -1.263742   -1.704936
    H   -0.913353    1.263742   -1.704936
    H    0.913353    1.263742   -1.704936

FREQUENCIES 21
45.2714
170.1674
508.9972
646.5885
655.2518
807.4635
936.1072
936.9247
1030.4775
1064.6666
1069.7825
1105.8117
1171.3634
1474.6437
1478.3395
1570.6010
2247.0161
3094.5400
3095.4569
3167.7946
3180.8676

SYMMETRY C2V
ELECTRONIC_STATE 1-A1
