4
Energy = -151.5012836700
    C   -1.084744    0.792402   -0.474249
    C    0.204724    0.478863    0.096425
    H    1.325756   -0.868928    0.791993
    O    0.435581   -0.768258    0.419591

FREQUENCIES 6
496.2198
504.6998
999.7164
1171.2511
1313.5265
3720.6056

SYMMETRY CS
ELECTRONIC_STATE 4-A"
