4
Energy = -151.2062368300
    C   -0.924901   -0.018192    0.522507
    C    1.426870    0.134677   -0.334072
    H   -1.392014    0.548312    1.328605
    O    0.348774    0.145489    0.144674

FREQUENCIES 6
258.4294
314.9501
828.5941
1036.3009
1670.0766
3128.0648

SYMMETRY CS
ELECTRONIC_STATE 3-A"
