4
Energy = -151.5977074000
    C   -0.353708   -0.251902    0.454478
    C   -0.530257    0.872259   -0.264868
    H   -0.692145   -1.011918    1.142155
    O    0.801226   -0.123606   -0.144153

FREQUENCIES 6
309.8681
814.4538
1035.5776
1295.0913
1558.8187
3229.6333

SYMMETRY CS
ELECTRONIC_STATE 2-A"
