4
Energy = -151.5919261500
    C   -0.594907    0.280383   -0.288746
    C    0.698210    0.551991    0.238158
    H    1.422804   -0.063169    0.769460
    O   -1.161659   -0.771203   -0.232771

FREQUENCIES 6
480.7733
708.3692
929.2567
1133.1176
1743.9767
3100.6113

SYMMETRY CS
ELECTRONIC_STATE 4-A"
