4
Energy = -151.2047649800
    C   -1.153935    0.880707   -0.461469
    C   -0.159611    0.089976    0.043518
    H    1.539463   -0.453902    0.680945
    O    0.604571   -0.741491    0.494113

FREQUENCIES 6
110.4563
297.2806
1044.4663
1177.9896
1966.5542
3380.3855

SYMMETRY CS
ELECTRONIC_STATE 1-A'
