4
Energy = -151.2877402100
    C    0.155602   -0.297545    0.010873
    C   -0.730405    0.751420    0.236382
    H   -1.040675    1.033882    1.247989
    O    0.837884   -1.080977   -0.430065

FREQUENCIES 6
372.9928
485.0409
653.5839
1058.6849
2203.1545
3115.9244

SYMMETRY CS
ELECTRONIC_STATE 1-A'
