4
Energy = -151.1889684300
    C   -0.129315    0.006491    0.311952
    C    0.217200    1.360021   -0.205444
    H   -0.723215    0.159652    1.253281
    O    0.156593   -1.047161   -0.162847

FREQUENCIES 6
193.8101
716.2383
782.3718
1049.0490
1615.1607
2758.1419

SYMMETRY CS
ELECTRONIC_STATE 3-A"
