4
Energy = -151.6810215900
    C   -0.067793   -0.313655    0.019415
    C   -0.236016    0.961751    0.079370
    H   -0.944381    1.635322    0.516266
    O    0.239072   -1.431955   -0.137391

FREQUENCIES 6
484.0819
505.0674
569.0102
1263.8430
2084.8332
3336.2229

SYMMETRY CS
ELECTRONIC_STATE 2-A"
