5
Energy = -189.2897244700
    C   -0.747047    0.697494   -0.573082
    C    0.096661    0.010285    0.028081
    C   -1.653350    1.431080   -1.177232
    H    1.025640   -0.835021    1.488828
    O    0.969742   -0.686106    0.516869

FREQUENCIES 9
111.0391
111.3461
491.8866
547.0355
930.3537
1000.4590
1721.0759
2318.6359
3541.4822

SYMMETRY CS
ELECTRONIC_STATE 1-A'
