5
Energy = -189.5460290900
    C   -0.627377    0.083653   -0.178748
    C   -1.808154   -0.416513    0.147644
    C    0.597215   -0.546115    0.326205
    H   -0.550243    0.966410   -0.824400
    O    1.719490   -0.228388    0.130572

FREQUENCIES 9
130.7934
355.0063
566.4086
605.6382
1016.1291
1209.4194
1541.7628
1894.4878
2980.6701

SYMMETRY CS
ELECTRONIC_STATE 4-A'
