5
Energy = -189.4213058300
    C   -0.234139   -0.005693   -0.362603
    C    0.718241    0.508571    0.416601
    C   -1.096494   -0.470697   -1.069233
    H   -1.864872   -0.885766   -1.696002
    O    1.519823    0.941944    1.071273

FREQUENCIES 10
192.0008
192.0008
586.5929
586.5929
815.5926
815.5926
942.0106
2159.5944
2405.7561
3354.8868

SYMMETRY C*V
ELECTRONIC_STATE 1-SG
