6
Energy = -227.1982260900
    C   -0.673781    0.021232    0.652211
    C    0.242227    0.348669   -0.942412
    C    1.741348   -1.169524    0.526880
    C    0.760420   -0.360083    0.141858
    H    0.646492    1.068034   -1.653921
    O   -1.064686    0.284928   -0.655629

FREQUENCIES 12
193.0136
221.0209
418.4243
467.5895
784.2016
786.0586
1013.9222
1046.1967
1195.8097
1357.3736
1757.4501
3150.5015

SYMMETRY C1
ELECTRONIC_STATE 1-A
