6
Energy = -227.1444897000
    C   -0.132525    0.695270   -0.189346
    C    0.345469   -0.938161    1.022028
    C    0.987321    0.145616    0.537412
    C   -0.765662    1.753415   -0.716786
    H    0.349227   -1.830075    1.631191
    O   -0.487163   -0.711351   -0.083326

FREQUENCIES 12
198.8605
237.3164
333.3452
590.0340
659.8081
728.8733
857.6582
1019.3863
1150.5464
1435.4913
1695.1976
3260.9203

SYMMETRY C1
ELECTRONIC_STATE 1-A
