6
Energy = -227.2094718100
    C   -1.769713   -0.514735   -0.050121
    C    0.864881   -0.015855    0.802276
    C    1.849126    0.462318    0.029077
    C   -0.366307   -0.193400    0.196608
    H    1.022202   -0.255262    1.858238
    O   -0.891035   -0.019966   -0.990970

FREQUENCIES 12
147.8256
159.1261
372.2686
480.0064
722.4066
752.7178
995.3470
1040.5512
1189.1187
1551.1955
1694.2754
3067.8936

SYMMETRY CS
ELECTRONIC_STATE 1-A'
