3
Energy = -113.6847897000
    C   -0.793073   -0.237458    0.000000
    H   -1.170842   -1.295207    0.000000
    O    0.338885    0.063061    0.000000

FREQUENCIES 3
1103.7350
1939.4721
2650.0850

SYMMETRY CS
ELECTRONIC_STATE 2-A'
