3
Energy = -113.6181508000
    C    1.071235    0.037656    0.000000
    H   -0.162312    1.492105    0.000000
    O   -0.105456    0.507756    0.000000

FREQUENCIES 3
1125.8495
1389.2910
3287.3611

SYMMETRY CS
ELECTRONIC_STATE 2-A'
