3
Energy = -113.1734900100
    C    1.015995   -0.195461    0.000000
    H   -0.421662    1.051996    0.000000
    O   -0.174276    0.082257    0.000000

FREQUENCIES 3
1183.8562
1668.2768
3277.3601

SYMMETRY CS
ELECTRONIC_STATE 3-A'
