3
Energy = -113.4991072600
    C   -0.522632   -0.756999    0.000000
    H   -0.019608   -1.721829    0.000000
    O    0.272062    0.381236    0.000000

FREQUENCIES 3
947.6658
1220.6977
3108.0125

SYMMETRY CS
ELECTRONIC_STATE 4-A"
