1
Energy = -74.4795334430
  O            0.00000000          0.00000000          0.00000000

FREQUENCIES 0

SYMMETRY SO3
ELECTRONIC_STATE ??
