6
Energy =   -2389.34988349     
S -0.330465630  0.403515529 -0.787526750
S -0.608988090  0.002095448  2.524604584
S -0.322587135 -1.408997509  1.296390940
S  2.037820997 -0.225428801  0.486689090
S  1.751659613  1.185417948  1.715241372
S -0.616389755  1.814664385  0.440733766

FREQUENCIES 12
83.6547
83.6547
130.4965
189.5433
189.5433
244.6819
264.1252
294.4423
294.4423
679.6736
679.6736
727.7784

SYMMETRY D3
ELECTRONIC_STATE 1-A1
