6
Energy =   -2389.31133388     
S -1.318964730  0.730159113  0.611180770
S  3.437445268 -0.730186897  1.183273765
S  0.729811000  0.531713000  0.105751000
S  1.388928630 -0.531554423  1.688270386
S -1.708685880 -0.145807277  2.302787113
S  3.827713711  0.145614485 -0.508272035

FREQUENCIES 12
34.3830
71.8978
94.2527
115.0542
116.5830
210.0695
296.3162
389.7564
405.9912
532.7294
600.6823
614.5924

SYMMETRY CS
ELECTRONIC_STATE 1-A'
