17
Energy =   -272.421480226     
    C    2.400298    1.731982    1.038737
    C    2.187331    3.210352    1.470218
    C    1.122455    1.059111    1.740866
    C    3.502586    1.325507    1.922028
    C    2.183026    2.917308    2.997034
    C    0.975598    1.860844    3.065784
    C    3.368310    2.058861    3.133258
    H    2.495211    1.483424   -0.017494
    H    3.003305    3.868816    1.162198
    H    1.233683    3.614127    1.120012
    H    0.280853    1.205794    1.058783
    H    1.242826   -0.015080    1.896614
    H    4.239959    0.549403    1.733887
    H    2.081921    3.737509    3.706587
    H    0.053494    2.446407    3.109227
    H    1.014452    1.232349    3.958039
    H    3.986592    1.932287    4.018221

FREQUENCIES 45
180.0183
283.2149
283.4924
440.3045
477.2978
713.1499
769.9283
788.3014
791.1613
819.7180
840.2732
892.4583
895.1444
926.4935
955.3562
959.7878
1008.1222
1015.5345
1036.9096
1106.1269
1124.2583
1124.5847
1158.5814
1172.2634
1215.5176
1240.0562
1294.0523
1310.6860
1313.2875
1344.5994
1426.6405
1466.6937
1517.4706
1519.2525
1538.1111
3101.5170
3103.8492
3108.1560
3150.0013
3162.8653
3165.0775
3178.6568
3179.5446
3227.9580
3241.8752

SYMMETRY C1
ELECTRONIC_STATE 2-A
