17
Energy =   -272.470437600     
    C    0.615546    3.067860    1.357431
    C    1.965760    2.573611    1.728499
    C    3.964040    1.051250    1.198282
    C    2.802752    1.917479    0.677728
    C    4.485675    1.463717    2.523722
    C    2.485099    2.762398    3.013399
    C    3.757268    2.272924    3.381234
    H   -0.057699    2.205607    1.223847
    H    0.636322    3.579278    0.386173
    H    0.181371    3.727884    2.111302
    H    4.779874    1.002937    0.467071
    H    3.636385    0.000087    1.306947
    H    2.168724    1.355465   -0.017392
    H    3.210376    2.746984    0.071008
    H    5.444731    1.067126    2.848828
    H    1.897681    3.310201    3.745245
    H    4.151696    2.510492    4.364976

FREQUENCIES 45
106.2182
125.7752
174.0072
343.4176
361.3109
461.4425
501.3945
541.2816
686.7793
749.7201
765.7976
872.7483
885.1239
945.6768
985.1237
1003.4552
1018.8110
1040.7625
1059.0938
1141.3703
1180.4710
1210.5233
1215.6367
1263.6403
1349.9505
1372.7372
1407.0210
1424.6955
1451.0422
1459.1639
1471.1990
1485.3999
1506.0774
1569.0002
1600.2014
2971.8961
2984.5030
3023.4457
3083.4901
3087.7789
3096.6163
3163.2430
3209.2232
3215.1288
3228.4624

SYMMETRY C1
ELECTRONIC_STATE 2-A
