17
Energy =   -272.455508835     
    C    3.280671    1.830340    2.329109
    C    1.948057    1.461168    3.017153
    C    3.111726    2.726488    1.157836
    C    4.158168    0.595863    2.021559
    C    0.819271    2.389367    2.776970
    C    0.823175    3.318544    1.746790
    C    1.950157    3.443698    0.901204
    H    3.862703    2.453045    3.041124
    H    1.605627    0.472482    2.650223
    H    2.084394    1.302876    4.094726
    H    3.970598    2.866324    0.503549
    H    4.327472    0.023499    2.937901
    H    3.671511   -0.057751    1.290852
    H    5.133256    0.894598    1.625922
    H   -0.066389    2.292203    3.401437
    H   -0.049238    3.942055    1.574594
    H    1.911440    4.123003    0.054451

FREQUENCIES 45
82.4364
209.3361
253.6081
315.8300
378.4025
463.2891
483.9278
574.5138
708.4056
747.9292
774.3606
894.2451
914.8080
950.1267
986.9449
997.2440
1021.8581
1046.9039
1069.2303
1090.0954
1156.2048
1186.2221
1212.4087
1235.9295
1249.8354
1335.1247
1374.7882
1423.2076
1435.8498
1452.9349
1505.0408
1525.4480
1525.9335
1570.0269
1586.2862
2913.7020
2949.2063
3071.3061
3076.5157
3148.6743
3153.6043
3198.4179
3206.9094
3222.7861
3232.1928

SYMMETRY C1
ELECTRONIC_STATE 2-A
