17
Energy =   -272.393751471     
    C   -0.663545   -1.100280   -0.198771
    C    0.666292   -0.942682    0.392589
    C    1.781524   -0.336984   -0.476758
    C    1.058261    0.493076    0.579605
    C    0.002728    1.455801    0.007752
    C   -1.151619    0.654354   -0.500366
    C   -1.807747   -0.322688    0.387567
    H   -0.852844   -1.793754   -1.015496
    H    0.992359   -1.724440    1.081533
    H    1.578152   -0.129638   -1.523769
    H    2.792976   -0.666593   -0.263205
    H    1.621664    0.807907    1.452261
    H    0.414049    2.116912   -0.760287
    H   -0.362086    2.099320    0.827569
    H   -1.541287    0.802161   -1.504261
    H   -1.705555   -0.129307    1.456962
    H   -2.791355   -0.666126    0.072359

FREQUENCIES 45
134.7394
223.8607
371.4119
396.5833
405.2812
555.9989
593.2917
661.2752
740.2020
800.4715
810.0845
840.0163
870.4824
890.6345
917.4392
967.2363
1002.0804
1036.8382
1043.3494
1077.5593
1090.1203
1127.6823
1134.2811
1139.0376
1172.5608
1187.7368
1208.2719
1308.4703
1321.3792
1372.4814
1394.8620
1427.4757
1474.4068
1504.4056
1510.6037
2992.8711
3117.3105
3122.7197
3137.7110
3168.7177
3204.7042
3211.9497
3214.7447
3223.7972
3263.6401

SYMMETRY C1
ELECTRONIC_STATE 2-A
