17
Energy =   -272.424014078     
    C    2.374809    1.139905    0.998039
    C    2.269309    2.648505    0.644623
    C    3.254220    1.122302    2.206624
    C    1.354466    0.958523    2.075089
    C    2.125400    3.149933    2.098164
    C    3.361416    2.496513    2.773268
    C    0.937929    2.287669    2.605135
    H    2.494234    0.342725    0.266703
    H    3.171864    3.005531    0.140788
    H    1.396667    2.852538    0.017923
    H    0.972367   -0.009062    2.387912
    H    2.022994    4.225004    2.238377
    H    4.307385    2.945508    2.425883
    H    3.376161    2.523285    3.868172
    H    0.768790    2.298678    3.687250
    H   -0.014004    2.572904    2.125925
    H    3.749093    0.230338    2.580224

FREQUENCIES 45
345.0311
394.6223
405.6803
439.0936
549.8677
715.7985
753.1291
766.6699
804.7910
807.0956
879.0767
893.9709
898.7694
917.6573
930.3648
954.0278
973.4275
1001.0753
1017.6955
1055.8017
1063.7946
1136.6844
1152.9076
1153.0245
1215.6620
1269.7685
1271.7786
1294.7528
1301.9292
1355.1910
1361.9014
1396.4938
1454.3637
1466.4350
1521.9613
3013.9118
3018.2562
3101.4698
3109.8288
3113.1270
3157.2410
3184.5368
3190.3354
3234.8399
3241.5224

SYMMETRY C1
ELECTRONIC_STATE 2-A
