19
Energy =   -311.119062887     
    C   -0.675494    0.342798    0.263629
    H   -0.628490    1.416753    0.437788
    C   -1.868295   -0.256773    0.050795
    H   -1.903218   -1.336584   -0.099641
    C   -3.129608    0.447026   -0.013824
    H   -3.109745    1.524533    0.139860
    C   -4.299523   -0.175107   -0.252612
    H   -4.353559   -1.249089   -0.413509
    H   -5.236069    0.371659   -0.290297
    C    3.096950   -0.428547   -0.116446
    H    3.089563   -1.505136   -0.271134
    C    4.263573    0.275255   -0.229189
    H    5.199380   -0.213752   -0.484746
    H    4.295186    1.352258   -0.081183
    C    1.889237    0.239355    0.147540
    H    1.932011    1.319153    0.302073
    C    0.602176   -0.421999    0.333065
    H    0.751386   -0.670302    1.425005
    H    0.559048   -1.407345   -0.147165

FREQUENCIES 51
49.1353
90.1632
113.3632
160.6771
205.8472
218.4874
259.6450
333.3059
391.6874
483.7749
554.4381
565.3534
613.9937
646.0171
819.1942
954.0862
965.2197
971.1363
987.5098
995.9511
1016.1463
1040.9432
1047.7453
1073.2834
1107.9446
1175.6041
1224.6889
1248.6279
1297.9254
1326.6234
1331.0917
1339.5940
1351.6698
1354.4702
1429.3188
1481.5727
1546.9224
1634.0270
1660.0429
1693.3178
2776.4939
3091.1752
3156.5853
3169.7585
3176.1771
3177.6483
3181.9201
3183.4301
3203.8601
3269.3475
3279.9765

SYMMETRY C1
ELECTRONIC_STATE 1-A
