18
Energy =   -273.026277010     
    C    2.892072   -2.205632   -0.405052
    H    3.187551   -1.847515   -1.409101
    C    1.391684   -2.537116   -0.323027
    H    1.161844   -3.132548   -1.216720
    H    0.801343   -1.617198   -0.410700
    C    0.992628   -3.310800    0.908594
    H    1.580020   -4.204247    1.125397
    C   -0.045258   -3.004328    1.691312
    H   -0.317112   -3.623028    2.541251
    H   -0.681471   -2.143014    1.494424
    C    3.482896   -1.273172    0.554831
    H    4.519958   -0.987064    0.363406
    H    3.508663   -3.126864   -0.319112
    C    3.593841    0.161323    2.459952
    H    4.631039    0.401606    2.233313
    H    3.161385    0.636908    3.337094
    C    2.868830   -0.701059    1.680662
    H    1.844272   -0.957927    1.929200

FREQUENCIES 48
82.6396
96.6052
117.5176
170.8528
191.4919
281.9724
371.2962
439.2799
511.0649
594.6970
624.8532
733.1258
852.4515
924.3355
937.0618
974.2059
981.6844
1012.4391
1029.2212
1040.8431
1109.2391
1117.2715
1133.6088
1221.7135
1260.2313
1296.4123
1333.7787
1337.2662
1354.9928
1374.7853
1400.4122
1416.5553
1478.1226
1508.9275
1545.6981
1641.8191
1715.9521
2932.2782
2988.4478
3051.7123
3094.1824
3152.3639
3159.1513
3162.3481
3175.7069
3235.1021
3251.8783
3274.4895

SYMMETRY C1
ELECTRONIC_STATE 1-A
