19
Energy =   -311.195894187     
    C    2.441613   -1.041632   -0.383463
    H    2.221868   -1.038253   -1.453090
    H    3.396877   -0.540768   -0.211064
    C    1.304369   -0.299888    0.408378
    H   -3.202616   -0.711846    0.728880
    C    0.012923   -1.011764    0.354307
    H    0.029396   -2.077686    0.572187
    C   -2.496474   -1.126287    0.000580
    H   -2.955784   -1.035717   -0.990070
    H   -2.368854   -2.189033    0.219475
    C   -1.180336   -0.392447    0.051937
    H    2.518468   -2.074095   -0.035542
    C   -1.122997    0.998764   -0.223528
    H   -2.052450    1.508757   -0.471962
    C    1.248782    1.141453    0.109657
    H    2.178774    1.703930    0.140455
    C    0.062949    1.761239   -0.191681
    H    0.023486    2.823540   -0.409590
    H    1.632812   -0.365465    1.470875

FREQUENCIES 51
79.6904
97.0814
165.8316
247.8858
273.5834
348.3201
394.9308
439.1140
502.6695
526.6941
625.5213
725.3554
801.1150
878.2844
891.7778
955.3241
976.0460
987.3084
1020.6469
1035.3374
1054.5118
1070.5348
1088.5725
1112.5595
1150.8482
1168.7700
1205.1189
1238.5451
1351.7464
1383.4068
1426.3937
1448.5225
1457.7878
1498.8868
1506.6287
1519.5279
1521.1838
1526.9743
1603.8509
1648.1486
2908.0884
3064.9918
3087.4923
3125.7557
3157.6334
3173.8246
3178.0392
3197.4985
3202.4642
3213.6257
3234.7249

SYMMETRY C1
ELECTRONIC_STATE 1-A
