26
Energy =   -390.306063443     
    C    4.221194    0.386510    0.592535
    H    5.047641    1.073165    0.436642
    H    4.407531   -0.453181    1.258924
    C    3.047297    0.561405   -0.014584
    H    2.907418    1.407944   -0.685908
    C   -1.846515   -0.213773    0.090010
    H   -2.037858    0.855081    0.142535
    C   -3.021171   -1.079203   -0.028896
    H   -4.013091   -0.638291    0.006081
    H   -2.966569   -2.107639    0.318323
    C   -2.639745    0.017683   -2.346971
    H   -2.336575   -0.117881   -3.379989
    H   -3.300781    0.850842   -2.125175
    C   -2.180150   -0.842373   -1.328253
    H   -1.552076   -1.679791   -1.617533
    C    0.567589    1.583656    1.212765
    H   -0.329911    1.799559    1.798330
    H    1.465936    1.817945    1.800571
    C    1.876541   -0.372544    0.137321
    H    2.161406   -1.251458    0.744398
    H    1.603699   -0.817111   -0.839754
    C   -0.566122   -0.684299    0.816726
    H   -0.861330   -0.683033    1.880973
    H   -0.337425   -1.719725    0.544464
    C    0.622856    0.187952    0.722620
    H    0.599274    2.288083    0.363669

FREQUENCIES 72
22.7527
41.4287
56.2702
95.3710
115.7721
162.1397
199.8417
237.1908
275.9373
310.8518
334.7410
370.9547
393.1530
415.0412
453.0900
515.6875
611.7136
636.5975
713.1130
791.2547
801.2565
837.7784
853.6913
900.4765
912.3227
952.0517
964.7832
985.6762
990.0588
999.7444
1026.2037
1034.2081
1096.7359
1106.5265
1114.6009
1122.6906
1181.7802
1224.4646
1232.2668
1243.3057
1263.5447
1288.7529
1337.8919
1351.1896
1371.0503
1394.9504
1407.7279
1423.5194
1438.0942
1472.5603
1481.6176
1485.1018
1501.8242
1512.4873
1531.8075
1729.0478
2954.1252
2985.1829
2997.2552
3002.6576
3063.4583
3106.9087
3145.4012
3162.1399
3165.1925
3170.9105
3181.0978
3187.8954
3198.8633
3251.7151
3256.0951
3283.9338

SYMMETRY C1
ELECTRONIC_STATE 2-A
