26
Energy =   -390.344523716     
    C    2.203533    1.214498   -1.878245
    H    3.208520    1.394426   -1.474152
    H    2.253344    1.024110   -2.953435
    C    1.506395    0.154904   -1.123687
    H    1.656671    2.162191   -1.726541
    C   -2.127007    0.646680    1.499591
    H   -2.765758   -0.176097    1.178603
    C   -2.533752    1.426832    2.502690
    H   -3.479358    1.256710    3.008636
    H   -1.942136    2.270496    2.852242
    C    0.738110   -0.882007   -1.826160
    H    1.541069   -1.527676   -2.258944
    H    0.272780   -0.483621   -2.743390
    C   -0.164702   -1.757582   -1.051905
    H   -0.687621   -2.541256   -1.591416
    C   -0.261064   -1.666066    0.428025
    H   -1.285357   -1.896367    0.747606
    H    0.345137   -2.477849    0.871030
    C    1.566764    0.088609    0.349840
    H    1.974870    1.011759    0.774346
    H    2.297286   -0.707923    0.590652
    C   -0.828859    0.831389    0.762076
    H   -1.024248    0.914544   -0.322629
    H   -0.373774    1.780831    1.070713
    C    0.199773   -0.305606    0.989382
    H    0.364099   -0.411136    2.066193

FREQUENCIES 72
52.4368
70.3741
75.8811
131.6635
147.5118
187.6289
233.8322
311.4413
324.7537
344.9228
381.0237
442.7361
484.6927
537.1469
566.9978
619.7692
642.8638
714.0839
777.8663
804.9178
822.8702
866.6827
901.1319
928.8963
964.5202
980.7226
983.8346
988.4248
1012.7284
1024.2751
1033.5583
1075.1341
1116.5999
1140.2027
1171.6674
1199.7875
1214.1219
1242.6523
1289.1086
1296.8727
1324.9668
1333.9892
1348.0783
1374.7813
1382.1031
1391.7020
1409.8695
1422.9342
1424.6467
1461.3941
1470.1422
1472.5003
1476.2077
1505.5578
1510.1596
1723.7537
2894.9227
2966.4815
2967.6922
2974.3574
3002.0604
3029.6841
3073.2660
3075.9128
3076.3014
3098.9990
3109.1466
3153.8124
3156.4994
3168.1149
3223.6308
3253.1961

SYMMETRY C1
ELECTRONIC_STATE 2-A
