26
Energy =   -390.372286444     
    C    0.727320    1.499431   -1.802091
    H   -0.166577    1.864640   -2.320681
    H    1.230378    2.362881   -1.352933
    C    0.369243    0.449897   -0.745527
    H    1.404639    1.079704   -2.553535
    C   -0.640152    0.978607    0.330738
    H   -1.310318    1.761718   -0.038612
    C   -1.535938   -0.294816    0.711437
    H   -2.590374   -0.010706    0.586395
    H   -1.454121   -0.638046    1.755966
    C   -0.350186   -0.793512   -1.355361
    H    0.316916   -1.526616   -1.822626
    H   -1.046611   -0.457689   -2.145185
    C   -1.136973   -1.349486   -0.227844
    H   -0.311062   -3.206014    0.351037
    C   -1.287181   -2.791279    0.038752
    H   -1.543948   -3.331045   -0.882400
    H   -2.017491   -3.013455    0.820309
    C    1.607992    0.043954    0.112561
    H    2.538263    0.113264   -0.457282
    H    1.526626   -0.994601    0.455390
    C    0.176267    1.411710    1.468550
    H    2.205889    1.890472    1.160387
    H   -0.202117    2.017561    2.287618
    C    1.590857    0.989328    1.339210
    H    2.001341    0.552651    2.260327

FREQUENCIES 72
69.0856
94.4191
125.7006
165.6682
234.8222
256.2628
265.9699
318.2575
341.0817
369.4043
413.3788
515.6668
570.6791
604.1730
626.3261
663.3978
730.7045
748.2317
781.3609
830.7071
848.0478
890.6621
911.4941
925.8911
947.1110
968.9109
979.4523
989.7514
1004.7032
1052.6044
1065.1583
1105.9038
1147.7526
1156.3909
1194.0256
1211.9580
1227.7531
1248.1460
1273.2562
1302.7821
1310.9726
1320.5665
1335.6285
1371.2354
1380.9048
1398.4589
1408.6449
1436.1622
1447.3159
1463.1072
1470.4007
1472.8814
1505.0176
1521.5591
1524.1184
1537.1279
2976.6817
2982.6270
2988.3262
3019.4995
3054.0305
3054.9127
3061.1379
3067.1814
3075.6469
3090.6810
3102.0749
3123.0494
3128.4867
3132.0227
3157.6978
3220.3643

SYMMETRY C1
ELECTRONIC_STATE 2-A
