26
Energy =   -389.974508343     
    C    1.617629   -0.392517   -4.836197
    H    1.012457    0.456262   -5.151452
    H    2.295395   -0.814202   -5.576384
    C    1.533837   -0.910286   -3.561804
    H    2.152627   -1.756203   -3.271927
    C   -1.802976    0.674246    2.997249
    H   -2.492383   -0.166623    2.976750
    C   -1.981350    1.696189    3.900739
    H   -2.810121    1.692063    4.606219
    H   -1.305661    2.549057    3.942514
    C    0.642983   -0.342857   -2.648631
    H    0.046445    0.508443   -2.985351
    H   -0.493575   -1.486002   -1.397594
    C    0.405147   -0.841551   -1.280127
    H    1.213618   -1.510246   -0.968324
    C    0.087792    0.258376   -0.234886
    H    0.980409    0.875609   -0.077976
    H   -0.694902    0.913261   -0.636049
    C    0.744954   -1.141435    1.864761
    H    1.649676   -0.541846    1.999636
    H    0.982787   -2.018297    1.254962
    C   -0.736482    0.730278    2.093551
    H   -0.070647    1.595224    2.152152
    H   -1.242574   -0.993631    0.979617
    C   -0.386571   -0.323828    1.125398
    H    0.408366   -1.505227    2.838396

FREQUENCIES 72
42.2257
47.7464
65.4547
104.9248
110.8111
135.7118
171.7194
206.5793
242.1372
251.7018
286.9633
302.3373
371.3419
459.8662
502.7846
551.9747
567.9547
593.7076
715.9955
810.3084
858.3616
907.4193
948.9816
978.2247
981.1854
1003.7729
1020.9787
1024.2271
1037.6922
1051.6990
1088.1413
1135.3305
1140.6389
1164.4133
1195.1865
1230.0505
1260.9536
1283.0317
1291.8166
1310.5514
1315.5988
1329.8313
1331.2905
1358.8552
1387.8747
1421.0332
1425.4065
1436.5527
1447.7231
1501.1828
1512.1155
1525.6996
1547.3652
1548.8148
1629.4768
1635.3312
2928.0663
3060.6759
3073.8123
3075.4527
3105.5079
3119.7325
3155.5631
3158.4948
3164.9230
3168.6005
3173.0277
3174.1288
3210.2917
3213.0145
3272.8363
3273.4398

SYMMETRY C1
ELECTRONIC_STATE 1-A
