26
Energy =   -390.350988914     
    C   -0.517593    1.474694   -2.164618
    H   -1.048309    1.887654   -3.033651
    H    0.171180    2.294028   -1.868682
    C    0.277836    0.197521   -2.491918
    H   -0.360698   -0.478042   -3.074231
    C   -1.460106    1.317742   -1.044207
    H   -2.262345    2.048847   -0.939358
    C   -1.324003    0.322065   -0.021967
    H   -2.285921    0.078878    0.448204
    H   -0.804947    0.910322    0.851193
    C    0.755143   -0.506039   -1.215175
    H    1.450551    0.151277   -0.675344
    H    1.319142   -1.407869   -1.478849
    C   -0.419260   -0.895369   -0.298335
    H   -1.033530   -1.640245   -0.820592
    C    0.042126   -1.554060    1.036762
    H   -0.833891   -1.962609    1.554884
    H    0.697059   -2.398694    0.802631
    C    2.123856   -0.516545    2.042108
    H    2.620137    0.238784    2.644725
    H    1.127772    0.453520   -3.131051
    C   -0.034459    0.414770    2.581285
    H    0.427948    1.255159    3.092909
    H   -1.085215    0.240758    2.794591
    C    0.748015   -0.553847    1.928121
    H    2.753719   -1.265888    1.572439

FREQUENCIES 72
58.5733
94.8618
109.5906
162.8839
255.3107
270.6550
292.6555
403.0833
419.0643
430.7953
464.1393
479.3480
561.4554
589.0565
642.5404
681.8277
739.0103
755.8123
801.4265
854.8125
876.1539
878.3666
884.0735
926.3431
941.1498
959.7845
961.2371
1007.0392
1042.0037
1045.6910
1054.1277
1069.2759
1093.8191
1111.8351
1166.6733
1189.2802
1229.0278
1251.4014
1269.7144
1299.7522
1346.2946
1355.4027
1359.5972
1380.4950
1381.6867
1392.8119
1408.4307
1422.4496
1428.2732
1437.6145
1484.3532
1516.4695
1522.3277
1528.6174
1540.7095
1563.9751
2216.4959
2933.7954
3041.8030
3057.1670
3061.5041
3068.2260
3070.8686
3074.1765
3100.4098
3121.5816
3123.5576
3171.9902
3179.3679
3180.1672
3265.2042
3274.2128

SYMMETRY C1
ELECTRONIC_STATE 2-A
