26
Energy =   -389.967865881     
    C    0.101274    1.139481   -0.992946
    H   -0.495527    0.990091   -1.897449
    H    0.634347    2.084450   -1.123755
    C    1.079785   -0.027477   -0.724789
    H    1.964099   -0.072405   -1.363998
    C   -0.735192    1.109383    0.305959
    H   -1.312690    2.016868    0.495333
    C   -1.684743   -0.112270    0.244917
    H   -2.516220    0.096845   -0.461346
    H   -2.228474   -0.317825    1.182667
    C    0.278654   -1.367432   -0.850386
    H    0.826916   -2.265335   -0.522194
    H    0.121783   -1.565688   -1.930616
    C   -1.082435   -1.367647   -0.255765
    H   -2.916272   -2.482288   -0.149594
    C   -1.830284   -2.621411   -0.178668
    H   -1.559615   -3.064685    0.805626
    H   -1.527959   -3.361831   -0.927216
    C    1.368687    0.105973    0.750172
    H    1.084785    2.867175    1.089786
    H    2.172728   -0.410815    1.273316
    C    0.339168    0.838060    1.379556
    H    1.997226    1.961206    2.401845
    H    0.069732    0.692628    2.423934
    C    1.607725    1.952686    1.385267
    H    2.455043    1.859915    0.685620

FREQUENCIES 72
92.2818
142.8554
159.3895
195.5456
243.9452
269.8068
342.1210
351.2849
397.8198
407.3709
420.1562
525.2825
581.1257
607.0753
625.4749
725.4698
766.9463
777.9887
825.0473
855.5623
865.2139
883.8055
912.5228
936.0309
943.2969
988.6632
989.6598
1010.1692
1032.5079
1051.6629
1084.7640
1117.0635
1148.0279
1174.7733
1187.8726
1212.2350
1228.7830
1251.9092
1255.4121
1317.3343
1323.0044
1328.3277
1346.5179
1350.9105
1358.4335
1360.9991
1376.4227
1387.3685
1407.1621
1442.8639
1448.1211
1459.5866
1478.1657
1494.4149
1511.0881
1538.9895
2937.1219
2952.8214
2968.7849
3028.0430
3028.7915
3042.5876
3089.7121
3109.4714
3120.8589
3142.6828
3145.8819
3152.6672
3159.5717
3195.1681
3212.9423
3231.5416

SYMMETRY C1
ELECTRONIC_STATE 1-A
