26
Energy =   -390.385084744     
    C   -0.267182    1.408443   -1.268309
    H   -0.229532    2.372230   -1.769522
    H    1.394797    0.225440   -0.960422
    C    0.560015    0.281015   -1.714652
    H    1.039964    0.451317   -2.681965
    C   -1.010682    1.232797   -0.015355
    H   -1.642324    2.095068    0.210054
    C   -1.824916   -0.088210   -0.024699
    H   -2.593376   -0.031852   -0.802573
    H   -2.348070   -0.204140    0.932698
    C   -0.165780   -1.086467   -1.640262
    H    0.556193   -1.891823   -1.814685
    H   -0.902166   -1.141376   -2.449683
    C   -0.879412   -1.268759   -0.289353
    H   -1.450520   -2.202651   -0.313566
    C    0.139304   -1.391316    0.889421
    H   -0.442091   -1.649202    1.792589
    H    0.845994   -2.211574    0.728915
    C    2.281824   -0.113791    1.576740
    H    2.853424   -0.923398    1.112721
    H    2.322524   -0.296777    2.666461
    C    0.061275    1.121846    1.193177
    H    0.684753    2.016959    1.267440
    H   -0.593279    1.097679    2.078219
    C    0.853092   -0.116319    1.171570
    H    2.772003    0.849106    1.405871

FREQUENCIES 72
119.7911
141.6059
184.8938
196.6930
303.5862
335.4672
363.1568
372.1568
395.4592
444.5900
466.4216
516.2790
631.5822
672.5761
715.1715
745.4568
777.6405
798.4093
817.9213
862.2387
867.3972
888.2994
906.9130
964.0589
978.4448
1012.2302
1014.7394
1040.2976
1063.7667
1091.2168
1092.7256
1132.2738
1163.9642
1171.4088
1175.4521
1187.6526
1223.0867
1283.3744
1300.1638
1321.1157
1323.7762
1348.5770
1362.9520
1377.7161
1388.2591
1408.9695
1412.6926
1425.2335
1434.9108
1451.6470
1465.8180
1484.1038
1492.0640
1507.2406
1515.6590
1530.1392
2743.9903
2986.1849
2991.0170
3033.0424
3062.7369
3071.9065
3093.3699
3095.9286
3110.0443
3112.4227
3115.2098
3124.3797
3128.9188
3130.4267
3154.6202
3211.4264

SYMMETRY C1
ELECTRONIC_STATE 2-A
