26
Energy =   -390.353600995     
    C    0.794216    1.740902   -0.639976
    H    0.742017    2.370981   -1.559268
    H    1.367462    2.449233   -0.003825
    C    1.458377   -0.795652   -0.852277
    H    2.174306   -1.338758   -1.475442
    C   -0.574006    1.671320   -0.111404
    H   -3.156772   -0.012173    1.392043
    C   -1.451746    0.507613    0.143972
    H   -1.016708    2.652773    0.053811
    H   -2.103167    0.472651   -0.757005
    C   -0.006798   -1.240880   -1.071749
    H    0.003180   -2.327225   -1.210522
    H   -0.457815   -0.811178   -1.973105
    C   -0.756987   -0.872716    0.227035
    H   -1.557562   -1.597444    0.402060
    C    0.315930   -0.957868    1.359382
    H    0.338089   -0.036393    1.952486
    H    0.093028   -1.767559    2.059553
    C    1.694845    0.639316   -0.983645
    H    2.510840   -0.683964    1.146778
    H    2.675157    0.966823   -1.327708
    C   -2.404463    0.779166    1.334334
    H   -2.926916    1.733904    1.218664
    H   -1.857944    0.801302    2.282079
    C    1.674593   -1.205564    0.674193
    H    1.928003   -2.270450    0.652227

FREQUENCIES 72
73.3095
92.9830
117.6294
201.6223
227.2974
230.5688
292.3796
321.3498
373.0348
452.5098
508.7580
570.8814
614.4886
674.1362
732.8642
762.4839
766.1767
788.5343
807.6269
837.5043
847.9357
880.9881
903.8405
950.4226
986.4660
1000.0873
1015.9099
1024.6150
1043.7241
1080.7813
1092.2910
1125.5906
1137.3348
1175.5446
1188.1787
1201.1661
1231.5106
1252.0035
1254.9947
1269.2486
1294.4092
1322.8381
1329.1860
1347.7202
1358.2344
1378.1225
1388.5136
1422.8508
1431.3718
1453.3408
1486.8888
1513.0208
1520.7535
1523.4041
1529.2061
1539.1115
2891.6502
2914.8247
2951.2707
3068.0065
3070.0081
3073.3772
3083.7604
3094.3690
3109.0839
3116.4922
3122.4672
3140.2091
3142.2266
3151.0894
3181.2388
3187.3352

SYMMETRY C1
ELECTRONIC_STATE 2-A
