26
Energy =   -390.337764777     
    C   -0.344669    1.397623   -0.650094
    H   -0.045422    2.262215   -1.253123
    H   -0.350042    1.731077    0.397242
    C    0.686290    0.273381   -0.825517
    H    0.808597    0.056110   -1.893197
    C   -1.749932    0.943279   -1.055924
    H   -1.772257    0.689021   -2.122793
    C   -2.201590   -0.286476   -0.239056
    H   -3.156993   -0.694302   -0.588595
    H   -2.387268    0.026294    0.807893
    C    0.228865   -1.018533   -0.098709
    H    0.460173   -0.780402    0.993331
    H    0.867229   -1.883262   -0.314898
    C   -1.181098   -1.361396   -0.151086
    H   -0.845322   -3.443234    0.311136
    C   -1.618659   -2.771313   -0.069752
    H   -1.869736   -3.102220   -1.094240
    H   -2.544322   -2.877827    0.508200
    C    2.073286    0.633669   -0.234814
    H    2.390568    1.623981   -0.601250
    H    2.829553   -0.086827   -0.574046
    C    2.327502    1.092437    2.414152
    H   -2.473769    1.750514   -0.910416
    H    2.965437    1.974367    2.548754
    C    2.034985    0.654222    1.226204
    H    1.976308    0.618885    3.331078

FREQUENCIES 72
50.8515
76.1209
98.6868
131.3919
177.7124
213.7243
237.4552
265.5972
306.1234
368.2563
388.9024
402.4768
446.4262
451.9978
575.8966
621.2624
730.8967
780.8760
811.6204
848.8833
857.0950
887.8748
896.6551
903.9293
928.2130
931.7656
969.5605
1004.3326
1032.8239
1044.4522
1074.2730
1096.3217
1119.8557
1178.2328
1193.6921
1209.5812
1245.1205
1268.5137
1304.5111
1323.2635
1345.8406
1359.5587
1369.5740
1390.9078
1401.7556
1404.3183
1412.3742
1424.8498
1447.0583
1464.4648
1472.2745
1478.3824
1511.8199
1517.4157
1528.6814
1819.5624
2579.5556
2955.8207
2996.0466
3009.9191
3041.9322
3066.5316
3069.6153
3076.8306
3077.0914
3088.3615
3091.0335
3094.6929
3103.1270
3122.7362
3157.2507
3175.4094

SYMMETRY C1
ELECTRONIC_STATE 2-A
