26
Energy =   -390.381438888     
    C    0.075409    1.449104   -0.692992
    H   -0.457889    1.975651   -1.494022
    H    0.749932    2.180247   -0.236340
    C    0.870262    0.287358   -1.323305
    H    1.659644    0.676981   -1.971504
    C   -0.916342    0.903448    0.364768
    H   -1.905531    1.372770    0.224109
    C   -1.126212   -0.584482    0.169447
    H   -2.167448   -0.910437   -1.589566
    H   -1.775748   -1.062799    0.905915
    C   -0.057639   -0.634731   -2.121929
    H    0.500698   -1.463901   -2.569198
    H   -0.483165   -0.067898   -2.958844
    C   -1.165217   -1.180918   -1.197102
    H   -1.184810   -2.275555   -1.146677
    C    0.421801   -0.179355    2.171617
    H   -0.052312   -0.778432    2.953278
    H    1.421438    0.087734    2.538815
    C    1.533380   -0.541615   -0.161215
    H    2.285567    0.110156    0.301610
    H    2.033064   -1.408285   -0.606651
    C   -0.440433    1.075234    1.830803
    H    0.112476    2.009881    1.950441
    H   -1.297875    1.122416    2.507902
    C    0.572490   -0.999459    0.905710
    H    0.457951   -2.081154    1.004697

FREQUENCIES 72
44.0210
183.8975
257.5606
270.3746
303.9121
354.1864
396.5590
417.3541
471.4175
558.1494
616.4708
673.3223
728.5604
752.6701
767.0312
798.7171
843.1479
863.5565
878.5164
895.3764
908.5852
926.0069
935.0669
964.4242
976.4719
1005.4981
1023.0186
1042.5492
1063.2638
1088.7033
1089.7455
1116.5922
1129.2704
1172.7086
1191.3810
1197.0234
1213.7176
1228.0690
1251.4620
1256.6909
1295.0704
1316.0201
1338.8532
1344.2928
1360.0537
1361.5479
1377.9638
1383.5849
1403.4100
1420.1997
1435.9072
1492.6070
1502.6060
1511.8172
1519.2649
1537.1462
2930.8137
2986.8242
3044.5870
3058.8746
3059.7743
3066.7390
3086.2028
3097.4745
3106.1002
3110.5731
3111.1327
3118.6487
3122.6820
3136.7177
3144.8689
3148.5106

SYMMETRY C1
ELECTRONIC_STATE 2-A
