26
Energy =   -390.351043258     
    C   -1.509856    2.622021    1.472280
    H   -1.284511    3.593519    1.917718
    H   -1.133441    1.848207    2.150155
    C    1.992620   -2.994847   -0.260928
    H    2.282817   -4.041543   -0.205589
    C   -0.891367    2.502279    0.095986
    H   -2.599700    2.520457    1.426559
    C   -0.196147    3.552488   -0.465790
    H    0.239674    3.478635   -1.458326
    H   -0.064653    4.494693    0.057681
    C    0.896713   -2.600582    0.520448
    H    0.966432   -0.457117    0.320977
    H    0.429303   -3.371894    1.130463
    C    0.261665   -1.262544    0.562681
    H   -0.128734   -1.076455    1.570838
    C   -0.920926   -1.211701   -0.447742
    H   -0.531768   -1.313712   -1.467007
    H   -1.605081   -2.050213   -0.280560
    C    2.730302   -2.164018   -1.070332
    H    3.570154   -2.544257   -1.642541
    H    2.518167   -1.103411   -1.165744
    C   -1.017265    1.331983   -0.676428
    H   -2.200771    0.171537    0.676946
    H   -0.551404    1.340337   -1.662661
    C   -1.747879    0.104961   -0.316002
    H   -2.569969   -0.006723   -1.044917

FREQUENCIES 72
30.3791
42.2291
46.3554
81.7905
144.9119
154.2574
170.2185
226.3897
276.4900
299.8945
334.8172
414.6877
447.3638
485.2711
517.2369
525.5267
576.3785
596.1426
771.0059
785.2999
828.8736
871.5619
899.1436
912.8472
959.7103
969.1693
978.2530
988.2437
1013.3970
1029.0141
1040.3750
1048.8114
1075.3781
1083.7252
1148.3235
1168.6986
1213.4569
1244.3755
1296.3885
1306.9836
1313.0820
1337.1560
1364.5064
1365.9717
1423.8919
1455.9908
1459.7104
1465.1819
1498.3120
1508.4800
1515.4650
1521.4394
1534.1968
1538.2022
1580.5568
1585.4207
2994.5255
3046.2866
3065.6794
3074.0218
3091.5228
3118.7039
3124.8196
3130.7133
3157.1812
3163.3909
3180.1739
3183.8310
3188.0476
3199.8516
3274.4678
3280.6097

SYMMETRY C1
ELECTRONIC_STATE 2-A
