26
Energy =   -390.385084639     
    C   -0.312902    1.423522   -1.286610
    H   -1.080844    1.660686   -2.031223
    H    0.390610    2.263342   -1.279656
    C    0.428177    0.134384   -1.724064
    H    1.291004    0.020004   -1.009284
    C   -0.975937    1.248204    0.090748
    H   -1.560186    2.145597    0.319366
    C   -1.894225    0.017696    0.085323
    H   -2.691431    0.138574   -0.655370
    H   -2.381358   -0.119895    1.058731
    C   -0.365780   -1.087202   -1.544339
    H   -0.335229   -1.894822   -2.271205
    H    0.871975    0.220630   -2.719348
    C   -1.062184   -1.245322   -0.262387
    H   -1.672743   -2.150791   -0.237240
    C    0.054225   -1.413323    0.898244
    H   -0.565662   -1.624470    1.783438
    H    0.692201   -2.284401    0.726065
    C    2.270891   -0.261173    1.500953
    H    2.812815    0.651420    1.234510
    H    2.767194   -1.139726    1.078499
    C    0.085928    1.097508    1.227414
    H    0.774401    1.948004    1.252575
    H   -0.463651    1.109302    2.185602
    C    0.827632   -0.190799    1.158640
    H    2.351611   -0.354361    2.599818

FREQUENCIES 72
119.6977
141.7233
184.8229
196.5856
303.4879
335.4715
363.0822
372.1339
395.4420
444.6631
466.4416
516.1216
631.5773
672.5012
715.2503
745.4605
777.6397
798.4760
817.9719
862.2023
867.3868
888.3083
906.9375
964.0828
978.4812
1012.2309
1014.6074
1040.2865
1063.7878
1091.2056
1092.7326
1132.2154
1163.9524
1171.4169
1175.4949
1187.7068
1223.1074
1283.3815
1300.1344
1321.1367
1323.7834
1348.5281
1362.9510
1377.6947
1388.2788
1408.9725
1412.7278
1425.2602
1434.9538
1451.5665
1465.8334
1484.1119
1492.0764
1507.2306
1515.6476
1530.1422
2745.4900
2985.9146
2990.7393
3032.7014
3062.7019
3071.9039
3093.2700
3095.8910
3110.1303
3112.4838
3115.2321
3124.3922
3129.0181
3130.6779
3154.6540
3211.4209

SYMMETRY C1
ELECTRONIC_STATE 2-A
