26
Energy =   -389.976650475     
    C   -1.690893    3.852602   -0.403894
    H   -2.770377    3.958110   -0.503612
    H   -1.099429    4.761733   -0.496052
    C    1.878249   -1.113771   -1.237144
    H    3.227857   -2.523310   -0.256888
    C   -1.102604    2.629558   -0.171632
    H   -0.023583    2.556271   -0.074479
    C   -1.920052    1.501917   -0.047322
    H   -2.182348   -0.548142   -0.341670
    H   -2.995403    1.665274   -0.147215
    C    2.250294   -2.037682   -0.187718
    H    2.151189   -1.555072   -2.214594
    H    2.673408   -0.332103   -1.158245
    C    1.452342   -2.286344    0.989298
    H    1.494730   -3.365025    1.234463
    C    0.036496   -1.691182    1.022255
    H   -0.656443   -2.422557    0.587762
    H    2.110815   -1.892964    1.804857
    C    0.453142   -0.535058   -1.191912
    H   -0.211769   -1.216594   -1.736734
    H    0.445330    0.408736   -1.746590
    C   -1.542291    0.114270    0.266195
    H    0.546874    0.392216    0.771962
    H   -1.980534   -0.025674    1.279948
    C   -0.071513   -0.353407    0.251158
    H   -0.263130   -1.563240    2.067133

FREQUENCIES 72
52.4143
85.2498
112.5277
143.2611
155.5909
179.8135
207.3631
270.2076
316.4374
382.4356
408.4274
456.6205
521.0084
529.5098
628.1261
642.9909
714.7111
768.3219
847.1476
850.8710
901.4741
920.8960
931.5335
962.1675
976.3576
1032.3376
1036.2382
1050.1491
1058.5344
1066.4555
1109.1212
1119.0589
1141.7156
1165.3236
1214.4149
1236.4774
1262.5878
1293.1057
1299.2488
1314.2781
1327.2228
1340.4706
1341.6107
1349.2656
1374.9461
1384.7808
1391.3358
1401.5533
1417.4751
1435.5718
1442.4167
1496.8007
1518.9669
1527.1263
1546.8449
1630.7495
2870.4006
2889.6569
2921.4532
2991.6089
2998.5804
3015.0499
3034.1989
3067.4998
3072.5517
3115.8198
3120.8426
3168.0999
3168.4972
3173.3502
3225.3621
3272.8896

SYMMETRY C1
ELECTRONIC_STATE 1-A
