26
Energy =   -389.948771363     
    C   -0.803224    0.969697   -0.421264
    H   -1.710662    1.491959   -0.741495
    H   -0.007843    1.709663   -0.539191
    C   -0.514444   -0.202924   -1.423352
    H    0.138557   -0.951142   -0.936835
    C   -1.008496    0.590037    1.055458
    H   -1.482672    1.452468    1.574375
    C   -1.518542   -0.974349   -4.261404
    H   -0.610679   -0.376268   -4.282187
    H   -1.905598   -1.296851   -5.226613
    C   -1.732013   -0.945226   -1.819782
    H   -2.377719   -1.267530   -0.999898
    H    0.037391    0.173378   -2.287778
    C   -2.173663   -1.314935   -3.096931
    H   -3.088012   -1.899225   -3.163667
    C    2.117282   -0.268489    3.361726
    H    1.831943   -1.304366    3.573836
    H    3.205525   -0.228164    3.281906
    C    2.196497    0.744827    1.052053
    H    1.759848    1.113700    0.132391
    H    3.279152    0.821715    1.131150
    C    0.040413    0.201595    2.028887
    H   -0.419824   -0.148088    2.957369
    H   -1.802663   -0.167308    1.167354
    C    1.453780    0.228195    2.091751
    H    1.819023    0.343489    4.220322

FREQUENCIES 72
15.6749
42.4323
46.7748
64.0751
68.1516
142.6218
172.3597
228.4401
239.4622
286.7887
343.3307
376.4637
396.0942
419.8470
459.3373
510.3694
556.2200
616.4233
689.2719
763.9892
819.4527
860.1058
900.3734
936.1206
997.3958
1001.2818
1040.9128
1044.5606
1051.3483
1066.0811
1084.4671
1091.1797
1105.9926
1140.9776
1155.6063
1186.3346
1207.5300
1252.4647
1294.2630
1329.5141
1342.8817
1349.0598
1381.6710
1389.4635
1439.2057
1450.4851
1456.9747
1460.0495
1487.8394
1502.9399
1509.5151
1530.3036
1552.8783
1554.7970
1617.9745
1623.4908
2928.9268
2987.2952
3014.5407
3070.7982
3094.5856
3132.3831
3135.6483
3138.6227
3149.0321
3168.9895
3169.4657
3182.7353
3196.8549
3215.0046
3278.7445
3304.7664

SYMMETRY C1
ELECTRONIC_STATE 1-A
