26
Energy =   -390.339285267     
    C    0.225261    1.395282   -0.541544
    H   -0.832981    1.342633   -0.251853
    H    0.844630    2.429996    1.267797
    C    0.916714    0.048842   -0.237125
    H    1.959066    0.124611   -0.571014
    C    0.894554    2.607923    0.185738
    H    1.952305    2.649825   -0.100204
    C   -2.077928   -2.058685   -1.335084
    H   -2.651116   -1.121114   -1.473814
    H   -2.749477   -2.784403   -0.869025
    C    0.282510   -1.107971   -1.088096
    H    1.036014   -1.921370   -1.067223
    H    0.139504   -0.831791   -2.137072
    C   -0.908930   -1.724927   -0.505628
    H   -1.791281   -2.376398   -2.344412
    C   -0.916859   -2.013426    0.942797
    H   -1.939807   -1.887621    1.334458
    H   -0.757199   -3.109288    1.033954
    C    0.906734   -0.323321    1.226108
    H    0.256974    1.576506   -1.622288
    H    1.597208    0.209631    1.874790
    C    0.208501    3.876725   -0.148598
    H   -0.723795    4.148653    0.336972
    H    0.568500    4.524430   -0.941321
    C    0.106641   -1.253395    1.750896
    H    0.141466   -1.484526    2.811623

FREQUENCIES 72
56.6835
60.1848
79.8139
113.8326
121.5583
148.1816
178.2283
254.8344
324.0149
347.9708
359.6153
384.1662
480.5571
529.2508
558.6628
669.4976
701.1551
711.1582
753.6137
774.7112
806.4101
829.3226
887.7316
911.0968
932.1833
950.9945
963.6948
1007.4896
1013.1400
1038.3531
1064.3087
1089.4430
1105.3336
1157.2033
1193.7547
1205.0295
1217.9783
1259.6977
1282.4730
1306.9280
1313.7782
1335.6930
1354.5571
1372.6119
1386.3363
1396.0426
1419.6375
1424.6602
1432.6435
1466.6358
1468.4427
1489.6481
1512.1791
1513.4189
1524.0615
1737.1661
2929.0469
2957.9202
2977.5470
3018.8991
3037.1476
3045.3974
3061.9413
3085.9091
3088.5172
3104.1303
3118.5290
3159.6724
3178.2226
3195.4983
3216.0234
3282.6589

SYMMETRY C1
ELECTRONIC_STATE 2-A
