26
Energy =   -389.946231902     
    C    2.477434   -0.098233   -1.244638
    H    2.909929   -0.689004   -0.430273
    H    2.184679   -0.811132   -2.025232
    C    0.540425    0.561658   -1.613993
    H    0.791248    1.158282   -2.492816
    C   -1.821158    0.128473    1.805557
    H   -1.575484   -0.747355    2.401981
    C   -1.870707    0.035625    0.405865
    H   -2.495599    0.829722    2.294366
    H   -2.426187    0.806863   -0.134175
    C   -0.592020   -0.400109   -1.732062
    H   -0.331418   -1.213457   -2.426761
    H   -1.387598    0.140694   -2.272632
    C   -1.057519   -0.956183   -0.362127
    H   -1.707217   -1.834492   -0.522630
    C    0.170669   -1.317629    0.501467
    H   -0.100094   -1.879610    1.397333
    H    0.865080   -1.956859   -0.050562
    C    1.284223    0.753480   -0.422623
    H    1.731903    1.737806   -0.275418
    H    3.171433    0.629598   -1.661783
    C   -0.318013    0.935810    1.525416
    H   -0.477883    1.913443    1.064125
    H   -0.135558    1.117646    2.592270
    C    0.777749    0.060179    0.859904
    H    1.613513   -0.051192    1.557701

FREQUENCIES 72
92.2940
134.2026
150.1532
182.7198
228.5863
303.8556
331.2226
376.6917
443.2746
449.5951
490.5904
563.1312
590.3354
626.7313
648.4196
737.7619
773.0993
789.8379
828.0533
868.1892
884.4590
904.0235
927.3927
962.8112
971.9678
983.5641
1022.3350
1032.9179
1056.2472
1081.0251
1092.6105
1111.6615
1135.4322
1151.3940
1188.2660
1206.4715
1214.4399
1234.6456
1249.1965
1271.5784
1291.2295
1316.4919
1328.6446
1357.3123
1364.8691
1369.6521
1387.9571
1412.0614
1431.1174
1461.5512
1472.0735
1483.4814
1497.6109
1527.0446
1548.0894
1577.9070
3015.2411
3024.1051
3054.8694
3067.5028
3077.9659
3108.0342
3119.1078
3134.7366
3147.3104
3151.3536
3155.5239
3163.9536
3164.5073
3186.9960
3226.1160
3244.4277

SYMMETRY C1
ELECTRONIC_STATE 1-A
