26
Energy =   -389.971530176     
    C    0.255241    1.944303   -1.055506
    H   -0.222412    2.153996   -2.014432
    H    0.573649    2.876968   -0.572351
    C    2.086348    0.586408    0.035887
    H    2.873481   -0.141571   -0.169363
    C   -0.816026    1.305732   -0.001267
    H   -1.563855    2.097648    0.095981
    C   -1.522707    0.028277   -0.515937
    H   -1.674351    0.016279   -1.611341
    H   -2.570967    0.005040   -0.159748
    C   -1.667501   -2.508260   -0.442022
    H   -1.025893   -3.392656   -0.515983
    H   -2.343046   -2.416791   -1.299008
    C   -0.935808   -1.276526   -0.137228
    H   -2.324863   -2.691389    0.436460
    C    0.346213   -1.357437    0.597946
    H    0.158268   -2.018447    1.466185
    H    1.029825   -1.988083   -0.000437
    C    1.323291    0.972828   -1.129653
    H    2.494301    1.452921    0.572057
    H    1.426603    0.378392   -2.042803
    C   -0.091729    1.029314    1.315076
    H    0.335185    1.944008    1.736490
    H   -0.811628    0.656588    2.059359
    C    0.983345   -0.028274    1.071187
    H    1.576159   -0.230431    1.967584

FREQUENCIES 72
67.3151
105.6253
121.8920
162.1973
269.6955
306.9214
334.0337
367.8760
390.8888
409.4939
474.1754
542.5332
543.5429
572.3101
670.5413
708.5074
737.1098
785.5010
846.7541
860.9335
869.3163
926.1320
947.8457
971.4399
979.5941
982.6366
1028.1242
1056.6801
1058.2578
1083.9080
1099.4596
1132.3676
1158.9175
1193.6175
1215.7856
1219.4913
1239.2828
1253.0626
1276.3953
1288.5105
1293.7373
1334.1523
1355.2681
1357.6424
1367.2481
1378.0119
1383.3644
1386.5614
1404.4530
1454.4848
1456.0406
1472.0926
1496.3765
1511.7983
1536.8993
1540.3690
2941.1937
2980.3482
2989.5005
2999.1234
3002.2986
3043.9903
3064.2852
3073.2833
3092.0383
3120.3762
3121.5756
3130.0645
3149.8091
3161.0785
3166.2878
3170.7508

SYMMETRY C1
ELECTRONIC_STATE 1-A
