26
Energy =   -389.954813588     
    C    0.257857    1.701392   -0.905128
    H   -0.212297    1.907940   -1.908229
    H    0.632656    2.704011   -0.647419
    C    1.355858    0.882115   -1.383189
    H    2.172047    1.446910   -1.846523
    C   -0.840707    1.210551    0.068625
    H   -1.597807    2.000251    0.035567
    C   -1.523639   -0.116433   -0.316358
    H   -1.843896   -0.085924   -1.363520
    H   -2.448478   -0.201361    0.267636
    C    0.443368   -1.588311   -1.136013
    H    0.942215   -2.547084   -0.955806
    H   -0.060176   -1.703002   -2.103787
    C   -0.654554   -1.366755   -0.072940
    H   -1.307338   -2.240237   -0.173695
    C   -0.125937   -1.386762    1.378390
    H   -0.913241   -1.796724    2.072601
    H    0.681879   -2.108118    1.594313
    C    1.558963   -0.550022   -1.344687
    H    2.318817   -0.551527   -0.508772
    H    2.212423   -0.844797   -2.181587
    C   -0.328020    1.156818    1.531595
    H    0.391557    1.943302    1.819272
    H   -1.161089    1.398449    2.240218
    C    0.114147   -0.128721    2.039175
    H    0.578573   -0.149229    3.030087

FREQUENCIES 72
105.2564
130.2292
193.8399
216.8160
295.3460
319.7358
324.9406
371.6275
429.6924
475.1845
490.6351
547.0238
577.2316
639.9585
686.6512
734.9958
768.0791
800.3645
810.0918
857.9791
883.0275
911.4266
927.6186
959.3665
976.7256
1015.9177
1022.3684
1047.7381
1067.9659
1100.5279
1112.4698
1124.3110
1141.2458
1170.5202
1240.6217
1245.3436
1267.5077
1291.0107
1302.7333
1312.1260
1340.9908
1344.6160
1350.5019
1364.1917
1375.3292
1382.5961
1397.9213
1407.1195
1426.4979
1431.8593
1438.8112
1463.6993
1493.9699
1503.8136
1512.4788
1524.1045
2785.7034
2809.2632
2814.4167
2870.1971
3018.0258
3021.8032
3041.3988
3049.3935
3069.3147
3071.2438
3092.0947
3099.3610
3111.3770
3113.3983
3146.8650
3159.1933

SYMMETRY C1
ELECTRONIC_STATE 1-A
