26
Energy =   -389.948565553     
    C    1.213027   -0.355245   -1.358942
    H    1.854160    0.312539   -1.948452
    H    1.852323   -1.169189   -0.992178
    C    0.125449   -0.917722   -2.273615
    H   -0.441251   -0.120542   -2.765734
    C    0.613201    0.421953   -0.172810
    H    0.116891    1.326329   -0.543776
    C   -0.467919   -0.462365    0.570947
    H   -0.986203    0.119341    1.339197
    H    0.050114   -1.308583    1.043535
    C   -0.872859   -1.875345   -1.464832
    H   -0.255384   -2.673738   -1.036363
    H   -1.626325   -2.291212   -2.136113
    C   -1.419333   -0.992961   -0.444925
    H   -3.275691   -0.631798   -1.461805
    C   -2.812024   -0.556932   -0.472670
    H   -2.997490    0.407337    0.009255
    H   -3.341169   -1.315411    0.150051
    C    1.358403    2.800530    2.637025
    H    0.548563   -1.547975   -3.061639
    H    0.918515    2.619739    3.627099
    C    1.737006    0.860114    0.809876
    H    2.257957    0.015968    1.300771
    H    2.578083    1.324917    0.235574
    C    1.491750    1.867466    1.777798
    H    1.691250    3.826537    2.423984

FREQUENCIES 72
45.7262
77.3959
82.9920
139.9906
162.5641
184.2424
235.1823
270.5626
312.2066
335.3478
382.7173
431.9508
436.9265
484.7533
522.1081
574.7835
598.1481
759.5779
780.4483
821.1113
840.9630
869.3188
874.3748
901.9164
924.0283
948.3653
973.1213
1002.9335
1010.1587
1041.9098
1056.5410
1057.2313
1104.7115
1162.7420
1183.7517
1199.4499
1249.1241
1282.6918
1293.1580
1299.5735
1310.3177
1326.0098
1328.1593
1340.2716
1357.6744
1368.3881
1391.0790
1413.4278
1419.4771
1439.8704
1503.7942
1511.1380
1512.7067
1517.0691
1542.2493
1912.2205
2878.3369
2923.8099
2994.5092
3047.2697
3052.3184
3077.4590
3077.7930
3080.9471
3087.8011
3094.4283
3102.2560
3127.7971
3137.0141
3142.2800
3167.3291
3168.0638

SYMMETRY C1
ELECTRONIC_STATE 1-A
