26
Energy =   -389.948358285     
    C   -0.659881    1.272583   -2.512543
    H   -1.233274    1.386100   -3.453462
    H   -0.219119    2.306308   -2.466714
    C    0.406350    0.169551   -2.523518
    H    0.012709   -0.688721   -3.080161
    C   -1.558255    1.325138   -1.390997
    H   -2.366067    2.062478   -1.415448
    C   -1.413349    0.524616   -0.178536
    H   -2.420741    0.254246    0.184106
    H   -1.103048    1.294400    0.567707
    C    0.806523   -0.271780   -1.103212
    H    1.362673    0.540059   -0.608520
    H    1.488640   -1.124774   -1.187219
    C   -0.430540   -0.664870   -0.272830
    H   -0.960436   -1.448685   -0.829221
    C   -0.126923   -1.335261    1.100110
    H   -1.074393   -1.572640    1.596703
    H    0.346744   -2.300151    0.885188
    C    2.156654   -0.578258    1.985520
    H    2.774994   -0.028216    2.693673
    H    1.281362    0.518631   -3.078280
    C    0.298250   -0.062227    3.285197
    H    0.959870    0.453813    3.979611
    H   -0.736902   -0.183457    3.604600
    C    0.765717   -0.592022    2.085540
    H    2.686651   -1.150050    1.224578

FREQUENCIES 72
50.6531
74.9010
87.0365
149.5958
167.7758
230.3702
256.7604
271.3600
366.3525
384.5578
419.0419
426.7631
474.9074
528.4092
615.4789
646.4141
704.5851
732.4175
774.6153
847.4896
860.0881
870.7771
918.5291
955.1671
957.0829
1017.2785
1020.4123
1051.6078
1059.8467
1068.6769
1097.0176
1117.1630
1142.6033
1144.2419
1149.1664
1237.9711
1252.4103
1254.7396
1291.8302
1296.9064
1338.4614
1359.5962
1364.5101
1382.8357
1389.1845
1399.0016
1413.3310
1423.8964
1440.8468
1451.5137
1490.2598
1508.8183
1518.4352
1522.8594
1584.1933
1589.5004
2826.7547
2900.5574
2987.4538
3013.1788
3016.8786
3061.6701
3073.8530
3083.1947
3104.2815
3114.7240
3137.3167
3164.4032
3164.8479
3168.3475
3262.9666
3267.0574

SYMMETRY C1
ELECTRONIC_STATE 1-A
