26
Energy =   -390.399697375     
    C    1.090031    1.344088   -1.928877
    H    1.959100    1.025535   -2.535095
    H    0.264424    1.493711   -2.630701
    C    0.825232    0.264967   -0.945916
    H    1.374119    2.289658   -1.457989
    C   -1.114199    1.059314    0.350340
    H   -1.261876    2.011327   -0.155941
    C   -1.902737   -0.136452   -0.045768
    H   -2.456522    0.023159   -0.975214
    H   -2.636758   -0.360686    0.743781
    C    0.055147   -0.957082   -1.329548
    H    0.771249   -1.779667   -1.480904
    H   -0.486094   -0.816103   -2.269951
    C   -0.909131   -1.328971   -0.170783
    H   -1.452613   -2.245292   -0.419144
    C   -0.117968   -1.496148    1.141802
    H   -0.803252   -1.746511    1.960096
    H    0.580980   -2.336352    1.050671
    C    1.614813    0.161636    0.318758
    H    2.163535    1.084324    0.530219
    H    2.356579   -0.642568    0.194683
    C   -0.333430    0.989042    1.612871
    H    0.193316    1.923584    1.825456
    H   -1.021576    0.797683    2.450907
    C    0.655438   -0.206828    1.482758
    H    1.224174   -0.325550    2.409657

FREQUENCIES 72
132.1211
172.3561
200.9748
247.8199
348.0399
351.7220
377.2755
393.0293
401.7166
453.3574
484.9616
555.9080
629.1733
681.8567
761.9614
809.7911
816.2309
852.6287
862.0808
883.7407
896.4847
910.0614
925.2160
952.5591
963.8401
1006.9653
1018.1864
1043.0097
1065.3614
1090.8946
1106.2254
1109.0871
1153.6109
1160.7015
1164.4616
1207.1360
1220.3333
1263.9302
1297.3306
1309.5293
1325.3149
1334.0204
1355.6624
1376.5924
1386.2605
1387.1343
1406.1149
1426.6671
1434.0947
1474.4594
1482.7629
1494.6980
1501.7298
1503.6628
1510.0847
1524.1313
2983.0893
3023.6045
3025.3424
3033.2131
3036.1038
3064.5619
3099.2170
3104.0581
3109.3083
3109.6768
3115.5052
3116.9644
3123.3001
3123.6140
3157.1393
3197.7870

SYMMETRY C1
ELECTRONIC_STATE 2-A
