26
Energy =   -389.946403382     
    C    0.065597    1.289598   -0.575371
    H   -0.314516    1.919131   -1.383588
    H    0.760708    1.925837   -0.019152
    C    0.763401    0.033614   -1.169696
    H    1.259558    0.323993   -2.101172
    C   -1.096865    0.813977    0.328486
    H   -1.835504    1.640324    0.395816
    C   -1.861033   -0.231662   -0.391646
    H   -1.619045    0.480012   -2.426293
    H   -2.409225   -0.983065    0.182873
    C   -0.284468   -1.054656   -1.504987
    H   -0.319077   -1.870265   -0.770209
    H   -0.131802   -1.554419   -2.470667
    C   -1.785620   -0.393453   -1.796810
    H   -2.452067   -1.128977   -2.244413
    C    0.704646   -0.074687    2.102843
    H    0.714654   -0.647851    3.043299
    H    1.373626    0.784736    2.418167
    C    1.862267   -0.519026   -0.244470
    H    2.785243    0.107159   -0.312404
    H    2.282427   -1.483602   -0.590216
    C   -0.720002    0.436862    1.788626
    H   -0.874436    1.313194    2.424413
    H   -1.419495   -0.315840    2.171185
    C    1.685980   -0.625193    1.197485
    H    2.528540   -1.103782    1.707666

FREQUENCIES 72
60.4309
119.1335
207.1892
215.4987
290.4202
315.4811
340.2126
374.7403
405.7529
464.7774
511.7891
550.1638
624.9576
671.6354
705.5290
733.1646
748.0027
800.6429
826.3096
861.1788
881.3325
910.9208
938.0214
982.7218
994.2198
1016.4392
1040.5200
1056.9748
1088.5896
1100.0462
1108.5441
1141.3994
1146.8801
1204.8780
1208.9255
1227.1562
1245.6156
1270.6013
1277.0892
1290.6266
1300.2758
1312.4051
1319.1334
1346.1651
1352.9934
1374.7147
1388.2861
1410.9669
1424.4517
1455.3646
1464.1092
1488.7498
1507.4228
1519.0112
1538.9764
1563.1001
2755.8401
2893.7799
2947.0575
2986.3688
3048.6044
3056.2157
3078.7273
3089.5691
3101.8361
3107.2588
3127.0165
3141.0503
3148.4698
3150.1343
3166.2378
3228.6836

SYMMETRY C1
ELECTRONIC_STATE 1-A
