26
Energy =   -390.368764362     
    C   -0.003692    1.593350   -0.916449
    H   -1.087279    1.445851   -0.873745
    H    0.164829    2.330906   -1.705693
    C    0.701150    0.251280   -1.283471
    H    1.405194    0.450573   -2.097809
    C    0.419112    2.215383    0.436433
    H   -0.246360    3.037674    0.717620
    C   -1.484391   -1.208980   -0.945501
    H   -2.016118   -2.014958   -1.469293
    H   -2.186772   -0.375743   -0.841424
    C   -0.280564   -0.798964   -1.848031
    H    0.285853   -1.695938   -2.126194
    H   -0.715538   -0.411479   -2.776893
    C   -1.080282   -1.704213    0.397460
    H   -0.533976   -2.647171    0.438581
    C   -1.316733   -1.039328    1.571213
    H   -1.931638   -0.143166    1.587868
    H   -1.054197   -1.471283    2.532347
    C    1.567274   -0.322565   -0.119693
    H    2.557099    0.164042   -0.141829
    H    1.769454   -1.388085   -0.264965
    C    0.530123    1.213671    1.528641
    H    1.421122    2.675343    0.337211
    H    0.277962    1.485557    2.551619
    C    1.034108   -0.050355    1.248836
    H    1.275147   -0.727445    2.063710

FREQUENCIES 72
75.1452
104.0228
131.0102
185.2802
220.7738
248.7048
316.0352
346.9347
392.2978
425.2198
451.6925
477.0996
592.5355
685.8052
696.0285
729.7275
757.8893
837.0558
841.1556
865.9615
910.2919
932.9571
946.4680
957.9234
971.3276
986.7554
1000.7206
1006.7315
1028.5129
1043.3755
1066.9911
1103.2039
1142.5594
1175.8361
1202.3254
1208.2455
1247.9914
1260.0448
1277.3678
1311.0802
1326.1817
1339.6379
1367.0101
1372.9874
1375.7138
1392.6862
1418.2271
1447.4551
1461.9597
1470.0593
1488.1284
1503.6944
1516.2369
1534.0867
1549.2241
1631.0270
2962.9064
3001.8436
3049.1781
3058.1955
3078.4934
3085.2316
3096.7763
3107.5671
3109.9530
3110.4640
3128.2319
3169.7027
3174.7396
3196.7190
3215.7007
3268.8339

SYMMETRY C1
ELECTRONIC_STATE 2-A
