26
Energy =   -389.972156639     
    C    0.499618    1.616608   -0.946993
    H    0.326803    2.245081   -1.826440
    H    0.514244    3.203951    0.379304
    C    1.017622    0.257178   -1.145402
    H    1.644368    0.242577   -2.046232
    C    0.150509    2.153438    0.339391
    H   -0.937242    2.399187    0.220527
    C   -2.165582   -2.142439   -0.543986
    H   -1.768800   -3.179842   -0.533802
    H   -2.644543   -2.006321   -1.517627
    C   -0.320585   -0.715074   -1.503059
    H    0.057058   -1.587625   -2.069961
    H   -1.057704   -0.275284   -2.192429
    C   -1.013185   -1.259014   -0.315779
    H   -2.894115   -2.110371    0.274654
    C   -0.535365   -1.014328    1.051672
    H   -1.404955   -0.660808    1.638827
    H   -0.418771   -2.031618    1.483080
    C    1.713286   -0.297727    0.113020
    H    2.634640    0.261053    0.304482
    H    2.013692   -1.336527   -0.067094
    C    0.471035    1.321756    1.594084
    H    1.366727    1.747403    2.059616
    H   -0.329889    1.443183    2.330296
    C    0.744790   -0.172253    1.300000
    H    1.217553   -0.591867    2.193110

FREQUENCIES 72
96.5366
110.2193
168.0985
186.5664
241.8815
318.7469
337.6444
364.2817
380.4065
408.6558
438.5970
489.4000
597.0536
630.7154
653.3403
724.9468
782.0528
791.3179
807.6384
836.8273
872.9895
917.5226
936.6110
948.0469
964.9551
1005.1693
1011.0857
1020.8997
1056.6248
1069.7766
1119.1221
1122.0925
1157.6043
1182.2010
1206.6262
1235.6030
1253.2519
1275.8306
1283.7960
1293.0256
1314.5812
1354.0219
1363.9316
1368.1775
1369.0053
1390.5891
1391.5963
1403.6289
1407.3483
1434.4668
1442.7706
1454.4183
1490.3025
1510.8037
1517.0560
1528.6254
2620.0151
2881.5489
2943.7978
2972.9468
3051.8118
3073.7142
3075.7776
3082.4579
3084.2555
3090.1782
3095.4029
3117.0443
3124.5384
3126.4835
3160.1081
3160.2570

SYMMETRY C1
ELECTRONIC_STATE 1-A
