26
Energy =   -390.350002036     
    C    0.251741    1.141160   -0.442195
    H    0.755524    2.087512   -0.214183
    H   -0.606790    1.060587    0.232974
    C    1.210743   -0.057946   -0.206325
    H    0.661103   -0.997091   -0.330350
    C   -0.244556    1.241449   -1.933997
    H    0.639820    1.345701   -2.572981
    C   -1.069967    0.100106   -2.378575
    H   -0.566995   -0.759948   -2.820679
    H   -0.827293    2.168727   -1.993961
    C   -3.194388   -1.038568   -2.687520
    H   -4.276358   -1.060986   -2.606452
    H   -2.713814   -1.906637   -3.131492
    C   -2.462073    0.044815   -2.262017
    H   -2.983097    0.901023   -1.836092
    C    2.145947   -0.129726    3.620211
    H    2.019450    0.935955    3.841472
    H    1.783271   -0.697436    4.480175
    C    1.812579    0.084520    1.138846
    H    2.005728   -0.027108   -0.962751
    H    2.650533    0.779471    1.201314
    C    0.375941   -1.422518    2.384873
    H    0.068416   -1.886816    3.316736
    H   -0.166279   -1.724063    1.494855
    C    1.406270   -0.510814    2.352661
    H    3.219969   -0.319547    3.518782

FREQUENCIES 72
26.4185
35.8230
65.8833
73.1916
80.6359
115.5625
154.9424
225.7272
288.3963
300.6881
317.8472
384.2973
441.9567
459.2232
508.4043
541.2390
558.0924
580.2962
765.3929
809.1675
829.6804
880.2407
893.1541
921.4239
963.9996
972.4714
975.7784
981.7639
1005.3280
1028.3208
1031.8515
1081.2299
1081.4315
1104.3403
1150.3701
1184.6939
1231.3474
1265.6647
1299.7542
1302.6585
1316.0775
1318.0389
1337.5556
1361.7777
1391.6809
1424.5894
1449.4849
1487.5475
1504.5114
1512.2364
1517.8721
1524.0507
1536.7656
1543.4084
1585.4660
1594.5426
3048.9630
3055.2782
3065.1353
3072.1745
3100.3882
3108.3736
3125.4967
3126.9745
3156.2565
3170.7872
3171.4783
3181.5571
3183.4394
3190.3259
3279.3267
3279.5864

SYMMETRY C1
ELECTRONIC_STATE 2-A
