2
Energy =   -1.17548238768     
    H   -0.021397    0.000000   -0.000000
    H    0.721397    0.000000    0.000000

FREQUENCIES 1
4453.0068

SYMMETRY D*H
ELECTRONIC_STATE 1-SGG
