4
Energy =   -39.4803876999     
    C    1.847868    1.221498   -0.218809
    H    2.363846    0.309365    0.097181
    H    2.363866    1.951210   -0.850739
    H    0.815913    1.403947    0.097181

FREQUENCIES 6
1422.1156
1425.7829
1425.7837
3071.5248
3266.7112
3266.7114

SYMMETRY C3V
ELECTRONIC_STATE 1-A1
