4
Energy =   -39.8382921987     
    C    1.847874    1.221505   -0.218795
    H    2.358454    0.319387    0.094162
    H    2.358473    1.943584   -0.843569
    H    0.827159    1.402204    0.094162

FREQUENCIES 6
453.5368
1431.1588
1431.1605
3143.2894
3317.9043
3317.9052

SYMMETRY C3V
ELECTRONIC_STATE 2-A1
