5
Energy =   -40.5183830608     
    C   -0.001401    0.000052   -0.000046
    H   -0.557642    0.645974   -0.685239
    H    0.805523   -0.499244   -0.543277
    H   -0.677023   -0.749842    0.419960
    H    0.420543    0.603060    0.808602

FREQUENCIES 9
1372.7695
1373.4977
1374.0081
1593.1457
1593.3666
3052.3997
3160.5802
3162.5841
3163.2062

SYMMETRY C1
ELECTRONIC_STATE 1-A
