7
Energy =   -78.8601099292     
    C    0.262808   -1.642086    0.312610
    H    0.001912   -2.448614   -0.372941
    C    1.501149   -1.029617    0.246911
    H    2.239419   -1.339537   -0.493220
    H   -0.466848   -1.346406    1.066711
    H    1.769219   -0.238702    0.947874
    H    0.464995   -0.577213   -0.436364

FREQUENCIES 15
531.8515
846.4849
1084.5337
1141.8216
1152.3244
1261.4101
1305.7094
1372.4706
1492.8423
1592.5653
2168.6924
3155.6553
3157.2772
3254.0472
3270.5935

SYMMETRY C1
ELECTRONIC_STATE 1-A
