8
Energy =   -116.972218786     
    C   -4.059616    3.933577   -1.562543
    H   -3.358128    4.752162   -1.718775
    H   -3.726632    3.110167   -0.932635
    C   -5.318635    3.942373   -2.138461
    H   -6.008471    3.119091   -1.973709
    C   -5.682452    5.020036   -2.927768
    H   -6.661175    5.074579   -3.401828
    H   -5.000877    5.851756   -3.101907

FREQUENCIES 18
320.2213
443.1016
615.8213
961.6239
1041.6403
1058.7846
1152.5888
1157.3124
1309.3031
1320.4122
1461.9679
1570.5460
1632.1980
3171.4274
3172.2720
3225.3223
3273.4079
3274.9625

SYMMETRY C1
ELECTRONIC_STATE 1-A
