8
Energy =   -79.8304174256     
    C   -2.022583    1.852464    0.003850
    H   -1.675495    0.813035   -0.026715
    H   -1.673243    2.344124   -0.911600
    H   -3.118262    1.835621   -0.028082
    C   -1.512384    2.573975    1.253555
    H   -0.416704    2.591472    1.285110
    H   -1.860089    3.613186    1.284498
    H   -1.861107    2.081879    2.169006

FREQUENCIES 18
314.0951
832.3741
832.3743
1009.9199
1235.3024
1235.3056
1432.5463
1454.1553
1532.0640
1532.0647
1537.7183
1537.7200
3046.8764
3047.7198
3098.1575
3098.1576
3122.5468
3122.5487

SYMMETRY D3
ELECTRONIC_STATE 1-A1
