11
Energy =   -193.807206397     
    C   -1.074095    1.093442    0.000011
    H    0.027198    1.130144    0.000031
    H   -1.395393    2.147463   -0.000018
    C   -1.620652    0.329032   -1.163389
    H   -1.441173    0.579992   -2.204101
    C   -2.391154   -0.748297   -0.705298
    H   -2.904457   -1.466071   -1.335660
    C   -1.620697    0.329081    1.163421
    H   -1.441257    0.580084    2.204130
    C   -2.391180   -0.748268    0.705346
    H   -2.904507   -1.466016    1.335718

FREQUENCIES 27
278.9611
429.4547
638.1726
799.4031
802.1194
813.0148
898.2028
942.3946
956.3383
991.7263
1016.0627
1095.2999
1112.3577
1135.3960
1160.1814
1316.7729
1352.7149
1399.7861
1464.4237
1470.8602
1493.8523
3037.5283
3059.7617
3246.8042
3251.7390
3260.2534
3268.7698

SYMMETRY C1
ELECTRONIC_STATE 2-A
