12
Energy =   -231.904076304     
    C   -0.769561    0.045668    0.056541
    C    0.179625    1.146275   -0.052239
    H   -0.082338    2.196728   -0.118675
    C    1.488358    0.614157   -0.053862
    H    2.401538    1.193306   -0.123899
    C    0.047519   -1.159555    0.118031
    H   -0.332617   -2.171919    0.202394
    C    1.408129   -0.785580    0.048363
    H    2.248925   -1.468742    0.071711
    C   -2.120476    0.125948    0.094377
    H   -2.739835   -0.762949    0.178600
    H   -2.634011    1.082175    0.042005

FREQUENCIES 30
204.4195
337.7126
424.6332
517.8621
657.9288
680.7061
783.0141
787.2983
876.6529
941.5505
942.2493
964.9780
995.9399
1063.6518
1065.2023
1100.3559
1124.7337
1281.5015
1347.7605
1395.6386
1436.8196
1467.1002
1510.3254
1691.8466
3185.3965
3252.6138
3256.6570
3265.8546
3275.3383
3278.5816

SYMMETRY C1
ELECTRONIC_STATE 2-A
