10
Energy =   -118.478152814     
    C   -0.000011    0.534037    0.071302
    H   -0.000002    1.566748    0.413016
    C    1.301174   -0.195084    0.011492
    H    2.141637    0.481964   -0.179315
    H    1.527438   -0.725687    0.955237
    H    1.297879   -0.962834   -0.775371
    C   -1.301174   -0.195150    0.011812
    H   -1.527365   -0.725443    0.955749
    H   -2.141675    0.481808   -0.179159
    H   -1.297901   -0.963155   -0.774800

FREQUENCIES 24
107.9466
124.8150
360.9000
411.8521
889.8579
949.1973
955.2911
1048.7368
1158.3279
1192.6355
1387.9885
1436.4267
1443.3647
1499.9185
1510.0364
1510.8307
1521.8231
2953.2336
2958.7649
3041.5333
3043.5748
3102.4267
3103.1187
3180.1768

SYMMETRY C1
ELECTRONIC_STATE 2-A
