11
Energy =   -156.297633722     
    C   -0.001411   -0.593379    3.783090
    H   -0.186473   -1.597228    4.159997
    H   -0.876507    0.022872    3.580578
    C    1.575594    1.273080    3.065308
    H    2.541563    1.323544    2.557245
    H    1.600528    1.973105    3.908633
    C    2.290134   -1.052077    3.827938
    H    2.060089   -2.047172    4.203626
    H    3.341829   -0.821599    3.663471
    C    1.289321   -0.123121    3.561871
    H    0.801228    1.611797    2.371782

FREQUENCIES 27
37.3277
234.5490
394.7637
451.9109
478.5178
642.5924
855.3293
994.7014
1061.6041
1066.9133
1084.2224
1139.0206
1140.3774
1431.0662
1432.0705
1451.9530
1504.7663
1514.1387
1588.1048
1603.3211
3072.5349
3141.9329
3167.1042
3171.4065
3172.0609
3270.6782
3272.3544

SYMMETRY C1
ELECTRONIC_STATE 1-A
