12
Energy =   -194.399563537     
    C   -2.529572    1.435834   -0.218715
    C   -1.080498    1.391508   -0.132539
    C   -0.650632    2.827237    0.011694
    C   -1.724287    3.630870    0.011122
    C   -2.980574    2.813702   -0.133418
    H   -0.676034    0.845020   -1.012724
    H   -0.781923    0.704871    0.689869
    H    0.386963    3.124520    0.099954
    H   -1.731552    4.710231    0.098851
    H   -3.618375    3.047320   -1.014099
    H   -3.724019    2.907039    0.688500
    H   -3.178629    0.568616   -0.331138

FREQUENCIES 30
167.4995
196.1426
551.6850
650.1146
731.9241
780.2817
808.4272
936.4772
942.4554
945.2860
968.6366
990.0222
997.1913
1031.5704
1140.5435
1193.1627
1261.8392
1284.4110
1311.8930
1360.2747
1361.1039
1425.7500
1635.4544
2942.0379
2945.1288
2945.4667
2959.9629
3225.5473
3260.3154
3276.6396

SYMMETRY C1
ELECTRONIC_STATE 1-A
