13
Energy =   -232.556294487     
    C   -1.850468    0.714905    0.000052
    C   -0.478753    0.700781    0.000513
    C   -0.478521    3.212606   -0.001086
    C   -1.850238    3.198688   -0.001530
    C   -2.524288    1.956856   -0.000977
    H   -2.421340   -0.207706    0.000448
    H    0.070872   -0.237004    0.001278
    H    0.071251    4.150305   -0.001516
    H   -2.420972    4.121386   -0.002309
    H   -3.612173    1.956970   -0.001294
    C    0.292018    1.956618    0.000034
    H    1.000794    1.956000   -0.853093
    H    0.999815    1.957088    0.853997

FREQUENCIES 33
218.4706
331.3143
423.1177
588.5907
594.6436
661.0681
802.8339
855.0409
901.2976
998.5756
1001.0094
1010.6590
1021.1380
1047.7910
1071.7913
1159.8178
1160.7977
1213.6696
1220.8436
1322.1017
1372.5753
1432.6832
1488.1455
1502.9533
1586.1837
1655.0410
2971.7712
2975.5204
3212.2420
3220.5679
3221.6848
3238.3029
3240.4738

SYMMETRY C1
ELECTRONIC_STATE 1-A
