14
Energy =   -270.592194819     
    C   -4.548528    3.095307    0.078812
    C   -3.156883    3.104303    0.077072
    C   -2.345340    4.303293   -0.011950
    C   -3.293022    5.228249   -0.079014
    C   -4.590269    5.532921   -0.100677
    C   -5.275149    4.284907   -0.008221
    H   -5.071162    2.147292    0.148966
    H   -2.573081    2.187135    0.144028
    C   -0.840682    4.333780   -0.015803
    H   -0.474223    4.788870   -0.940918
    H   -0.472311    4.918238    0.832701
    H   -0.453971    3.316364    0.057998
    H   -6.361445    4.317387   -0.009669
    H   -5.072636    6.500883   -0.171491

FREQUENCIES 36
49.4546
167.5308
283.9563
375.7219
395.6694
451.2550
532.0261
592.8957
674.7046
756.8021
763.3000
888.5406
907.3682
976.3305
981.6163
1017.8826
1064.2201
1111.8800
1135.7515
1196.6362
1233.1226
1293.3896
1365.2454
1428.7446
1496.7833
1497.5216
1504.7879
1511.5375
1814.9157
3079.4705
3151.8654
3182.1903
3183.6407
3217.0262
3241.1683
3258.2929

SYMMETRY C1
ELECTRONIC_STATE 1-A
