14
Energy =   -270.579004360     
    C   -2.473513    1.565920    0.073768
    C   -1.084778    1.803443   -0.134053
    C   -0.187415    2.654379    0.579448
    C   -3.356444    2.112539    1.053624
    C   -0.664225    3.717299    1.349180
    C   -3.052774    3.308827    1.706609
    C   -2.008541    3.905208    0.973456
    H   -2.859104    0.707684   -0.472925
    H   -0.613602    1.091797   -0.809095
    H   -0.165269    4.080909    2.243765
    H   -3.365977    3.533779    2.722851
    H    0.847032    2.329183    0.672107
    H   -4.157171    1.473564    1.420994
    H   -2.172127    3.919203   -0.104148

FREQUENCIES 36
280.1030
304.2618
369.1262
392.9144
486.9421
621.9700
705.3412
708.7634
768.1012
890.7496
897.6317
925.6177
961.8004
971.4858
1021.2167
1030.9354
1059.7696
1121.1138
1166.9701
1191.1003
1265.7628
1280.1437
1378.2363
1412.1064
1449.5552
1468.0038
1513.3438
1537.2289
1553.4555
3150.6400
3189.2863
3196.4620
3201.7400
3207.4089
3223.6460
3226.6723

SYMMETRY C1
ELECTRONIC_STATE 1-A
