11
Energy =   -119.144248292     
    C   -2.820758    2.034635   -0.000003
    H   -2.483356    2.589194    0.884672
    H   -2.483362    2.589185   -0.884685
    H   -3.917054    2.041904    0.000001
    C   -2.266597    0.606192    0.000002
    H   -2.648149    0.066609   -0.877601
    H   -2.648144    0.066618    0.877612
    C   -0.735129    0.559835   -0.000002
    H   -0.362868   -0.471348    0.000004
    H   -0.324747    1.062774   -0.884685
    H   -0.324742    1.062786    0.884671

FREQUENCIES 27
222.7286
273.7270
366.3172
759.3042
880.2118
921.4986
941.0687
1067.2143
1189.9962
1229.6506
1332.3913
1387.7405
1433.9252
1449.9497
1520.2249
1520.7813
1528.5263
1537.7742
1544.7715
3033.8384
3037.2266
3041.3532
3058.7039
3098.3927
3107.5101
3109.3499
3109.9508

SYMMETRY C1
ELECTRONIC_STATE 1-A
