14
Energy =   -233.120654675     
    C   -2.148855    1.780293    0.000000
    H   -1.661653    0.808234    0.000000
    H   -3.234505    1.790820    0.000000
    C   -1.422385    2.946263    0.000000
    H   -1.943405    3.901544    0.000000
    C   -0.011120    2.942661   -0.000000
    H    0.504756    1.983168   -0.000000
    C    0.754502    4.113391   -0.000000
    H    0.238699    5.072919    0.000000
    C    2.165767    4.109631   -0.000000
    H    2.686659    3.154278   -0.000000
    C    2.892450    5.275483   -0.000000
    H    2.405447    6.247640   -0.000000
    H    3.978098    5.264713   -0.000000

FREQUENCIES 36
100.3657
148.3548
234.8494
250.2138
350.1728
447.3778
548.8849
566.0649
574.3098
917.0984
950.2692
971.3556
996.0409
1005.8908
1027.8808
1029.7954
1048.8944
1235.8873
1273.6111
1295.6665
1304.7301
1319.6598
1326.9581
1421.0533
1503.1652
1567.7397
1583.4002
1660.7989
3180.7179
3181.9344
3183.9594
3187.1179
3198.5026
3200.7646
3283.0395
3283.0886

SYMMETRY CS
ELECTRONIC_STATE 2-A"
