14
Energy =   -233.053436917     
    C   -1.477340    0.146274    0.266003
    H   -1.764474    0.225093    1.326320
    H   -2.413177    0.272565   -0.291099
    C   -0.802036   -1.192478   -0.135235
    H   -0.848599   -1.941326    0.664572
    C   -0.536273    1.250832   -0.097767
    H   -0.918099    2.245453   -0.325541
    C    0.799107    0.971561   -0.229184
    H    1.498673    1.613297   -0.762172
    C    0.653565   -0.862996   -0.426444
    H   -1.278920   -1.616891   -1.021154
    H    1.124437   -1.148319   -1.367379
    C    1.374212   -0.190143    0.568063
    H    1.387989   -0.250660    1.652062

FREQUENCIES 36
106.0426
186.0580
317.9553
372.4169
568.0194
686.2632
741.9338
756.8242
839.5058
868.4136
891.2200
930.0364
955.9252
979.1763
1025.2952
1050.9955
1084.3884
1167.6292
1181.8641
1223.1115
1234.4960
1302.9025
1328.2092
1366.1140
1447.6227
1457.2574
1509.4322
1545.3779
3037.8051
3083.3352
3097.8119
3149.8454
3181.7869
3188.7464
3205.7838
3229.8096

SYMMETRY C1
ELECTRONIC_STATE 2-A
