15
Energy =   -271.566650173     
    C    1.202879    1.201698    0.026783
    C   -0.192640    1.200776    0.017859
    C   -0.913827   -0.000244   -0.007953
    C   -0.195925   -1.203441   -0.031166
    C    1.199469   -1.208618   -0.022355
    C    1.905048   -0.004484    0.007120
    H   -0.731425    2.146059    0.029415
    C   -2.425661    0.001384    0.015211
    H   -2.835775   -0.874777   -0.498344
    H   -2.808323   -0.017156    1.044823
    H   -2.833774    0.897150   -0.465725
    H    2.991811   -0.006161    0.010725
    H    1.735582   -2.154130   -0.043230
    H   -0.737518   -2.146785   -0.058267
    H    1.741443    2.145880    0.044538

FREQUENCIES 39
42.3044
211.3259
342.3828
416.9636
477.6075
528.4394
637.3341
711.4651
747.7392
801.4391
860.0055
910.8241
964.2945
992.4626
1012.4060
1018.3263
1059.7582
1076.2904
1121.7595
1192.0286
1214.7990
1238.4701
1349.4666
1367.7105
1442.3102
1490.9216
1518.3217
1529.0236
1548.9689
1645.5796
1667.6159
3038.8894
3095.8519
3122.8878
3172.1545
3173.8580
3186.3483
3194.7954
3207.4963

SYMMETRY C1
ELECTRONIC_STATE 1-A
