16
Energy =   -271.841136951     
    C    1.137941   -1.112359   -0.237379
    C   -0.290698   -1.224275    0.121511
    C   -1.035348    0.091405    0.065015
    C   -0.242296    1.289679    0.538326
    C    1.183181    1.246300    0.153880
    C    1.834876    0.089120   -0.253488
    H    1.679439   -2.033440   -0.453371
    H   -0.288880   -1.655748    1.147919
    H   -0.685746    2.242731    0.219978
    H    1.760207    2.166794    0.243413
    H    2.889579    0.111147   -0.508011
    C   -2.276584    0.193465   -0.404703
    H   -2.830412   -0.674695   -0.752229
    H   -2.794982    1.147612   -0.449980
    H   -0.230698    1.366554    1.649145
    H   -0.767369   -2.006232   -0.484586

FREQUENCIES 42
113.8987
175.1283
323.5936
362.3954
378.5503
531.7304
539.7715
684.5624
704.5505
730.1649
755.2405
914.1670
917.8452
964.6962
980.9888
988.3931
1006.6375
1033.8531
1052.1309
1162.1406
1176.5845
1209.5588
1210.8474
1290.6765
1363.6729
1368.3362
1403.8985
1418.7040
1445.9188
1488.2229
1564.3314
1568.8774
1750.9040
2906.6137
2907.7353
3072.5650
3074.2524
3173.3604
3192.3983
3195.1369
3233.0632
3254.8013

SYMMETRY C1
ELECTRONIC_STATE 1-A
