16
Energy =   -271.835785417     
    C   -0.064736    1.604366   -0.030134
    C    1.165881    0.871318    0.417512
    C    1.465367   -0.402434    0.109611
    C   -1.376264    0.907841   -0.015126
    C    0.635999   -1.200817   -0.901563
    C   -1.561461   -0.446834    0.113575
    C   -0.554299   -1.407993   -0.058911
    H   -0.168417    2.556911    0.503778
    H    1.868586    1.445886    1.016817
    H    1.132526   -2.132956   -1.170899
    H   -2.540083   -0.803188    0.432156
    H    2.310168   -0.908009    0.567423
    H   -2.253059    1.551666    0.014653
    H   -0.675546   -2.372809    0.433506
    H    0.108115    1.925358   -1.082743
    H    0.431064   -0.615008   -1.801577

FREQUENCIES 42
145.4617
173.5178
300.3038
358.3030
399.4587
460.6628
648.3033
667.2131
726.1228
820.2040
852.5327
884.4404
925.2352
937.7609
951.0230
1011.9216
1025.5870
1054.1319
1070.1533
1137.3491
1190.6073
1201.0485
1251.2560
1257.9095
1270.0528
1369.4088
1395.5851
1414.9380
1433.4233
1515.0535
1535.4997
1595.5410
1660.3853
2918.7508
3088.1349
3102.4401
3175.4139
3180.5678
3195.7479
3200.2667
3206.6051
3227.4114

SYMMETRY C1
ELECTRONIC_STATE 1-A
