3
Energy =   -37.8753868484     
    C    0.000000    0.000000    0.233301
    H    0.000000    1.087259   -0.699902
    H    0.000000   -1.087259   -0.699902

FREQUENCIES 3
-165.1933
745.6863
1316.1882

SYMMETRY C2V
ELECTRONIC_STATE 3-B2
