3
Energy = -39.06590806000
C 0.000000 0.000000 0.000000
H 0.000000 0.000000 1.066313
H 0.000000 0.000000 -1.066313
