3
Energy =   -39.1605524482     
    C    0.000000    0.000000    0.000000
    H    0.000000    0.000000    1.066313
    H    0.000000    0.000000   -1.066313

FREQUENCIES 4
-919.2789
-919.2789
3196.6903
3538.6249

SYMMETRY D*H
ELECTRONIC_STATE 3-SGG
