4
Energy =   -76.7879644961     
    H    0.000000    0.000000    1.793476
    C    0.000000    0.000000    0.711846
    C    0.000000    0.000000   -0.711846
    H    0.000000    0.000000   -1.793476

FREQUENCIES 7
-1152.3195
-996.2715
520.5023
671.7111
1365.5624
3224.8162
3280.6200

SYMMETRY D*H
ELECTRONIC_STATE ??
