4
Energy = -76.60563130800
H 0.000000 0.000000 1.793476
C 0.000000 0.000000 0.711846
C 0.000000 0.000000 -0.711846
H 0.000000 0.000000 -1.793476
