4
Energy = -76.99705844500
H 0.000000 0.000000 1.726795
C 0.000000 0.000000 0.664183
C 0.000000 0.000000 -0.664183
H 0.000000 0.000000 -1.726795
