5
Energy =   -114.957807634     
    C    0.000000    0.000000   -1.305986
    H    0.000000    0.000000   -2.380358
    C    0.000000    0.000000    0.000095
    C    0.000000    0.000000    1.305889
    H    0.000000    0.000000    2.380377

FREQUENCIES 10
-241.5256
87.1976
123.0450
138.4088
403.9687
438.2607
1199.3803
1696.2357
3309.0992
3326.0781

SYMMETRY C*V
ELECTRONIC_STATE ??
