5
Energy =   -115.341679986     
    C    0.000000    0.000000   -1.263406
    H    0.000000    0.000000   -2.324735
    C    0.000000    0.000000    0.000022
    C    0.000000    0.000000    1.263403
    H    0.000000    0.000000    2.324621

FREQUENCIES 10
-709.0206
-700.5258
327.8747
518.3470
904.8275
907.7867
1305.7580
1887.5607
3449.9184
3457.7979

SYMMETRY C*V
ELECTRONIC_STATE ??
