6
Energy =   -153.058382467     
    C    0.000000    0.000000    1.488376
    C    0.000000    0.000000    0.122193
    C    0.000000    0.637493   -1.143748
    C    0.000000   -0.637493   -1.143748
    H    0.000000   -0.943150    2.030782
    H    0.000000    0.943150    2.030782

FREQUENCIES 12
-515.0119
-494.4999
408.4311
415.2915
826.7762
904.1749
934.7006
1372.4906
1564.9280
1758.7680
3083.4800
3190.9060

SYMMETRY C2V
ELECTRONIC_STATE 2-B1
