7
Energy =   -189.593155783     
    C    0.816127   -0.000161   -0.000009
    C   -0.336005    0.781375    0.000279
    C   -1.653477    0.000353    0.000375
    C   -0.334882   -0.782939   -0.000285
    C    2.233265    0.000939   -0.000138
    H   -2.231828   -0.000649    0.960520
    H   -2.232331    0.000205   -0.959463

FREQUENCIES 15
-297.1624
272.2681
370.7113
455.6881
707.2599
891.4997
955.8325
972.1899
983.6603
1101.0326
1305.6590
1331.5102
1528.7804
2752.7765
2842.7294

SYMMETRY C1
ELECTRONIC_STATE 4-A
