7
Energy = -189.28354615000
C -0.773600 -0.052920 -0.001106
C 0.502771 0.805492 -0.000255
C 1.614513 -0.213739 0.000529
C 0.398964 -0.772158 -0.000525
C -2.301369 -0.050725 0.001012
H 0.614683 1.942007 -0.000034
H 2.737646 -0.237704 0.002102
