7
Energy = -189.16795833000
C 0.816162 0.000192 0.000131
C -0.346370 0.812440 -0.000237
C -1.591987 0.000242 0.000152
C -0.345202 -0.812969 -0.000457
C 2.215224 0.000271 0.000156
H -2.243088 -0.001101 0.937073
H -2.243871 0.000048 -0.935540
