4
Energy = -38.52468682400
C 0.000000 0.000000 0.093501
H 0.000000 0.000000 1.232068
H 0.000000 0.828126 -0.896536
H 0.000000 -0.828126 -0.896536
