5
Energy =   -77.8021226964     
    C    0.052526   -0.686337    0.000000
    H    0.983656   -1.229501    0.000000
    H   -0.881312   -1.231374    0.000000
    C    0.052526    0.834115    0.000000
    H   -0.732654    1.574206    0.000000

FREQUENCIES 9
-601.7463
-248.6745
728.3682
1051.3883
1060.0506
1410.5441
3141.6748
3226.0327
3260.9215

SYMMETRY CS
ELECTRONIC_STATE 4-A'
