5
Energy =   -77.4660517599     
    C   -0.017648   -0.502796    0.000000
    C   -0.017648    0.920980    0.000000
    H   -1.018777   -0.945098    0.000000
    H    0.615278   -0.782003    0.872899
    H    0.615278   -0.782003   -0.872899

FREQUENCIES 9
-759.1017
907.6706
1062.9454
1179.4606
1253.1010
1343.7748
2852.9951
2861.9484
3056.8750

SYMMETRY CS
ELECTRONIC_STATE 3-A'
