6
Energy = -115.71224588000
C 0.000000 0.746517 0.000000
H 0.001466 1.825678 0.000000
C 0.749590 -0.377882 0.000000
H 1.693724 -0.879001 0.000000
C -0.750006 -0.379406 0.000000
H -1.692692 -0.882049 0.000000
