6
Energy =   -114.970007220     
    C    0.000156   -1.298701    0.000000
    H    0.954075   -1.878638   -0.000000
    H   -0.953490   -1.879057   -0.000000
    C   -0.000089    0.074025    0.000000
    C   -0.000222    1.428656   -0.000000
    H   -0.000363    2.533741    0.000000

FREQUENCIES 12
-388.0403
321.0811
374.2816
632.7207
729.0286
802.4603
976.7311
1204.8724
1776.1358
2799.5491
2870.8761
3023.3398

SYMMETRY CS
ELECTRONIC_STATE 4-A'
