7
Energy = -153.61468633000
C 0.000000 -0.924140 0.000000
H -0.189369 -1.993918 0.000000
C -0.914508 0.135696 0.000000
H -2.000665 0.105753 0.000000
C 1.284620 -0.374195 0.000000
C -0.181358 1.325652 0.000000
H 1.057507 0.910083 0.000000
