7
Energy =   -153.619759359     
    C    0.000000    0.938141    0.000000
    H   -0.097823    2.020395    0.000000
    C   -0.937202   -0.048245    0.000000
    H   -2.023262   -0.006559    0.000000
    C    1.282308    0.237706    0.000000
    C   -0.171646   -1.292207    0.000000
    H    1.080326   -1.026202    0.000000

FREQUENCIES 15
-830.8052
513.5223
605.8295
715.6008
869.0892
1015.6289
1054.9463
1084.9228
1142.6666
1178.8116
1367.5272
1586.0300
1945.7202
3148.3032
3165.9008

SYMMETRY CS
ELECTRONIC_STATE 1-A'
