7
Energy =   -153.967754010     
    C    0.000000   -0.924140    0.000000
    H   -0.189369   -1.993918    0.000000
    C   -0.914508    0.135696    0.000000
    H   -2.000665    0.105753    0.000000
    C    1.284620   -0.374195    0.000000
    C   -0.181358    1.325652    0.000000
    H    1.057507    0.910083    0.000000

FREQUENCIES 15
-1393.2056
558.7404
640.1052
644.7713
906.4982
908.5330
983.6225
1095.7743
1121.7214
1252.6094
1440.5426
1520.4982
1850.4883
3115.1168
3132.4949

SYMMETRY CS
ELECTRONIC_STATE 2-A"
