8
Energy = -191.53815304000
C -0.003676 0.232306 0.000000
C -1.205911 1.065688 0.000000
C 1.029008 1.199123 0.000000
H 1.168505 2.266485 0.000000
C -0.003676 -1.156924 0.644977
H -0.020457 -1.683048 1.584624
C -0.003676 -1.156924 -0.644977
H -0.020457 -1.683048 -1.584624
