8
Energy =   -190.320263920     
    C    1.829563    0.657219   -0.000345
    C    1.827317   -0.658549    0.000390
    C    0.618148    0.002421    0.000341
    C   -0.837758   -0.000569   -0.000230
    C   -2.131328   -0.009849   -0.002706
    H   -2.603021    1.086868    0.103193
    H   -2.616915   -0.434334   -0.997666
    H   -2.615714   -0.596570    0.909773

FREQUENCIES 18
-23.1472
156.3611
198.6225
265.2951
355.1632
597.8679
614.3022
646.2608
689.6352
751.3343
785.0560
1025.2553
1412.9878
1594.9803
1724.7006
2114.1809
2191.9804
2290.6315

SYMMETRY C1
ELECTRONIC_STATE 1-A
