8
Energy = -191.72350763000
C 0.224026 -1.233003 -0.000128
C 1.180925 -0.101207 -0.000171
H 2.255421 -0.168404 0.000211
C 0.398610 1.020958 0.000168
H 0.744333 2.044777 0.000635
C -0.982920 -0.811615 0.000398
C -1.009018 0.603095 -0.000428
H -1.869488 1.254254 0.000115
