8
Energy = -191.73668070000
C -0.657913 -1.524888 0.000000
H -1.575430 -2.086644 0.000000
C 0.000000 -0.241345 0.000000
C 0.654465 -1.526857 0.000000
H 1.570177 -2.091413 0.000000
C 0.001459 1.099932 0.000000
C 0.002374 2.325201 0.000000
H 0.002947 3.385802 0.000000
