8
Energy =   -191.731847988     
    C    0.008199    0.517379    0.000000
    C   -1.312141    0.142491    0.000000
    C    1.027360    1.425233    0.000000
    H    1.188376    2.492344    0.000000
    C    0.008199   -1.011916    0.642068
    H    0.186366   -1.429987    1.620763
    C    0.008199   -1.011916   -0.642068
    H    0.186366   -1.429987   -1.620763

FREQUENCIES 18
-460.7536
329.9099
335.6477
443.2102
504.8677
553.2210
608.6347
780.9871
791.5066
840.6448
895.0653
966.9650
1043.6970
1515.2692
1713.3335
3234.4503
3247.3360
3290.0822

SYMMETRY CS
ELECTRONIC_STATE 3-A"
