8
Energy =   -191.118641478     
    C   -0.049102    0.363116   -0.000083
    C   -1.143856    1.202825    0.000033
    C    1.012744    1.162714   -0.000102
    H    1.797189    1.923234    0.000073
    C   -0.049446   -1.280059    0.620598
    H   -0.058644   -1.461614    1.693016
    C   -0.049550   -1.279874   -0.620575
    H   -0.058580   -1.461653   -1.692960

FREQUENCIES 18
-348.0366
182.5085
264.2787
296.7357
334.1030
434.7537
448.2896
664.4063
734.0644
769.0121
905.6898
905.7939
1116.6644
1361.1669
1868.4457
3140.2206
3152.1717
3252.6483

SYMMETRY C1
ELECTRONIC_STATE 4-A
