8
Energy = -189.72069419000
C 0.000000 0.000000 0.141762
C 0.000000 0.000000 1.912232
C 0.000000 1.231516 -0.497889
H 0.000000 2.162515 -1.120653
C 1.066524 -0.615758 -0.497889
H 1.872793 -1.081257 -1.120653
C -1.066524 -0.615758 -0.497889
H -1.872793 -1.081257 -1.120653
