5
Energy =   -38.1635538971     
    C   -0.000000    0.000000    0.000425
    H    1.266085    0.853489   -0.000303
    H    1.266085   -0.853489    0.000090
    H   -1.266085   -0.853489   -0.000303
    H   -1.266085    0.853489    0.000090

FREQUENCIES 9
-1437.5510
-1133.7407
-425.8333
545.9057
552.8716
596.3404
785.0942
988.8507
1188.5189

SYMMETRY C2
ELECTRONIC_STATE 2-B
