5
Energy = -39.71862307900
C 0.000000 0.000000 0.000000
H 0.000000 0.437961 1.356036
H -0.437961 0.000000 -1.356036
H 0.437961 0.000000 -1.356036
H 0.000000 -0.437961 1.356036
