5
Energy =   -39.8231732573     
    C    0.000000    0.000000    0.000000
    H    0.000000    0.437961    1.356036
    H   -0.437961    0.000000   -1.356036
    H    0.437961    0.000000   -1.356036
    H    0.000000   -0.437961    1.356036

FREQUENCIES 9
-1103.4871
-356.3601
-356.3601
532.5815
946.6280
946.6280
1385.5158
2846.4901
2875.7983

SYMMETRY D2D
ELECTRONIC_STATE 4-A1
