6
Energy = -78.04890176400
C 0.000000 0.707288 0.000000
H 0.932218 1.262589 0.000000
H -0.931983 1.263382 0.000000
C 0.000000 -0.707288 0.000000
H -0.932218 -1.262589 0.000000
H 0.931983 -1.263382 0.000000
