6
Energy = -78.29836938500
C 0.000000 0.768097 0.000000
H 0.929758 1.314128 0.000000
H -0.929523 1.315247 0.000000
C 0.000000 -0.768097 0.000000
H -0.929758 -1.314128 0.000000
H 0.929523 -1.315247 0.000000
