6
Energy =   -76.3653145210     
    C    0.000000    0.739359    0.000000
    H    1.182251    1.354860    0.000000
    H   -1.183687    1.352933    0.000000
    C    0.000000   -0.739359    0.000000
    H   -1.182251   -1.354860    0.000000
    H    1.183687   -1.352933    0.000000

FREQUENCIES 12
-2161.7592
-963.8332
493.8965
586.0281
600.2200
622.9016
657.3741
704.0235
945.8052
1028.4138
1656.2358
1665.2513

SYMMETRY C2H
ELECTRONIC_STATE 4-AU
