6
Energy =   -78.0362712573     
    C    0.000000    0.950080    0.000000
    H    1.047678    1.220991    0.000000
    H   -1.048208    1.218535    0.000000
    C    0.000000   -0.950080    0.000000
    H   -1.047678   -1.220991    0.000000
    H    1.048208   -1.218535    0.000000

FREQUENCIES 12
-625.7120
-527.9731
-363.1923
386.5450
481.9113
660.3403
1065.0521
1209.8305
3051.9139
3075.1329
3308.8470
3349.8185

SYMMETRY C2H
ELECTRONIC_STATE 4-BU
