6
Energy =   -78.2388772532     
    C    0.000000    0.707288    0.000000
    H    0.932218    1.262589    0.000000
    H   -0.931983    1.263382    0.000000
    C    0.000000   -0.707288    0.000000
    H   -0.932218   -1.262589    0.000000
    H    0.931983   -1.263382    0.000000

FREQUENCIES 12
-501.5402
842.6141
981.7765
1122.8523
1236.2899
1270.4005
1475.7195
1554.6751
3122.1041
3126.6312
3228.4850
3245.4541

SYMMETRY C2H
ELECTRONIC_STATE 2-AU
