6
Energy =   -76.4579392830     
    C    0.000000    0.778987    0.000000
    H    0.982562    1.548167    0.000000
    H   -0.982432    1.549112    0.000000
    C    0.000000   -0.778987    0.000000
    H   -0.982562   -1.548167    0.000000
    H    0.982432   -1.549112    0.000000

FREQUENCIES 12
-820.4055
-336.4954
501.3961
564.4395
743.8606
937.7853
1001.1802
1114.3110
1308.4159
1499.7288
1619.4797
2110.3286

SYMMETRY C2H
ELECTRONIC_STATE 2-AG
