7
Energy =   -114.748096323     
    C    0.000043   -1.160685    0.000000
    H    0.000043   -2.433586    0.000000
    H    0.000068   -1.606494    1.126521
    H    0.000068   -1.606494   -1.126521
    C    0.000000    0.171541    0.000000
    C   -0.000056    1.491296    0.000000
    H   -0.000101    2.633668    0.000000

FREQUENCIES 15
-528.1854
297.0226
320.3468
480.0984
658.4273
826.6981
847.8355
941.2130
985.3366
1245.7414
1522.9064
1790.3435
2162.6938
2164.1118
2706.1363

SYMMETRY C2V
ELECTRONIC_STATE 2-B1
