8
Energy = -152.49211229000
C 0.000000 0.764555 0.555093
H 0.000000 1.314317 1.541954
C 0.000000 -0.764555 0.555093
H 0.000000 -1.314317 1.541954
C 0.000000 1.575674 -0.604833
C 0.000000 -1.575674 -0.604833
H 0.000000 -2.506258 -1.243514
H 0.000000 2.506258 -1.243514
