8
Energy = -154.31562658000
C 0.000000 0.745440 -0.645295
H -0.902401 1.244840 -0.979682
H 0.902401 1.244840 -0.979682
C 0.000000 -0.745440 -0.645295
H -0.902401 -1.244840 -0.979682
H 0.902401 -1.244840 -0.979682
C 0.000000 0.619385 0.971856
C 0.000000 -0.619385 0.971856
