8
Energy =   -154.226157799     
    C    0.000000    0.794236   -0.550484
    H   -0.881108    1.287490   -0.999289
    H    0.881108    1.287490   -0.999289
    C    0.000000   -0.794236   -0.550484
    H   -0.881108   -1.287490   -0.999289
    H    0.881108   -1.287490   -0.999289
    C    0.000000    0.907682    0.883581
    C    0.000000   -0.907682    0.883581

FREQUENCIES 18
-433.0916
-203.7508
-116.3984
564.0941
567.2095
861.1522
909.8059
1023.4177
1102.2449
1113.1331
1231.5528
1233.9753
1292.0828
1303.4570
2925.8343
2941.4731
2952.3898
2978.6297

SYMMETRY C2V
ELECTRONIC_STATE 2-A1
