8
Energy =   -154.720972541     
    C    0.000000    0.000000   -1.880711
    H    0.000000    1.018581   -2.281249
    H   -0.882117   -0.509290   -2.281249
    H    0.882117   -0.509290   -2.281249
    C    0.000000    0.000000   -0.434951
    C    0.000000    0.000000    0.831117
    C    0.000000    0.000000    2.098542
    H    0.000000    0.000000    3.159771

FREQUENCIES 18
-185.5048
-185.5048
93.9460
93.9680
402.6976
402.7018
786.8084
1017.2963
1017.2990
1405.0778
1462.3979
1462.3981
1487.5165
1822.2314
2983.6207
3032.3521
3032.3525
3444.4247

SYMMETRY C3V
ELECTRONIC_STATE 3-A1
