9
Energy =   -191.193167904     
    C   -1.752288    1.680486   -0.000000
    H   -1.049568    2.527538   -0.000000
    H   -2.841807    1.856359    0.000000
    C   -1.282671    0.251989    0.000000
    H   -2.052280   -0.561268   -0.000000
    C    0.000300   -0.201658   -0.000000
    C    1.165065   -0.743040   -0.000000
    C    2.309552   -1.320012    0.000000
    H    3.306704   -1.824921    0.000000

FREQUENCIES 21
-351.6898
148.6114
187.0320
294.4373
456.9274
576.3892
733.1048
778.5889
778.7605
852.8478
1008.1061
1043.6388
1174.9405
1257.5178
1424.8491
1444.8013
2013.9419
2812.3181
2938.1802
2971.9971
3101.4776

SYMMETRY CS
ELECTRONIC_STATE 2-A"
