9
Energy =   -192.420413284     
    C   -1.837139   -0.497211    0.000669
    H   -2.677950    0.194176    0.027328
    H   -1.898095   -1.124020   -0.894418
    H   -1.876453   -1.170719    0.861707
    C   -0.574327    0.219131    0.000241
    C    0.195195    1.330856    0.000061
    C    0.867586    0.147836   -0.000213
    C    2.035962   -0.580574    0.000145
    H    2.328835   -1.619659   -0.000034

FREQUENCIES 21
-17.8625
210.5571
333.6377
457.7005
470.7503
597.2518
722.3373
838.2871
906.6670
1009.2793
1035.0360
1172.8066
1381.9225
1438.0933
1440.9436
1523.2768
1741.5956
3015.9206
3070.0204
3122.1399
3237.1322

SYMMETRY C1
ELECTRONIC_STATE 4-A
