9
Energy =   -191.921485503     
    C    1.359409    0.276634    0.000000
    C    0.000000    0.697647    0.000000
    C    0.272554   -0.642547    0.000000
    C   -0.176379   -1.952420    0.000000
    H   -0.324046   -2.487034   -0.946634
    H   -0.324046   -2.487034    0.946634
    C   -0.924679    1.728545    0.000000
    H   -1.268671    2.163458   -0.946622
    H   -1.268671    2.163458    0.946622

FREQUENCIES 21
-266.4376
155.8877
305.0388
356.9506
455.4423
537.0462
778.9836
788.8281
958.9519
970.5074
994.3805
1115.6120
1128.9939
1188.3972
1407.3509
1409.3365
1804.6137
3010.2783
3016.7055
3120.2282
3121.1505

SYMMETRY CS
ELECTRONIC_STATE 1-A'
