9
Energy = -191.45910221000
C -0.900205 -1.823408 0.000000
H -1.979494 -1.669769 0.000000
H -0.500676 -2.840981 0.000000
C 0.000000 -0.739861 0.000000
C 0.277813 0.685826 0.000000
C 1.287124 -0.250791 0.000000
C -0.150279 2.028033 0.000000
H 0.601821 2.821173 0.000000
H -1.208371 2.290778 0.000000
