9
Energy = -191.47916324000
C 1.359409 0.276634 0.000000
C 0.000000 0.697647 0.000000
C 0.272554 -0.642547 0.000000
C -0.176379 -1.952420 0.000000
H -0.324046 -2.487034 -0.946634
H -0.324046 -2.487034 0.946634
C -0.924679 1.728545 0.000000
H -1.268671 2.163458 -0.946622
H -1.268671 2.163458 0.946622
