9
Energy =   -191.833157561     
    C   -0.674381    2.062800    0.000000
    H   -1.607157    2.637031    0.000000
    H    0.268424    2.622221    0.000000
    C   -0.737201    0.674137    0.000000
    C    0.000000   -0.537192    0.000000
    C   -0.373603   -1.873274    0.000000
    C    1.363937   -0.863786    0.000000
    H    1.698691   -1.917699    0.000000
    H    2.167532   -0.117668    0.000000

FREQUENCIES 21
-177.9379
180.6820
224.4583
269.7085
431.8091
479.6739
617.2820
748.6869
855.3201
995.6903
1053.4533
1082.4122
1234.4816
1357.7024
1430.9370
1434.8335
1595.0105
2948.9879
3013.1030
3082.0510
3118.3495

SYMMETRY CS
ELECTRONIC_STATE 3-A"
