9
Energy = -191.45058352000
C -0.003468 -1.490345 0.000000
C -1.076966 -2.350954 0.000000
C 0.855098 2.125234 0.000000
H 1.911440 1.868295 0.000000
H 0.568970 3.175378 0.000000
C -0.141846 1.150199 0.000000
H -1.217644 1.440811 0.000000
C 0.000000 -0.165108 0.000000
H 0.940329 -2.098635 0.000000
