9
Energy = -191.57822652000
C 0.061383 -0.350564 0.000000
H 1.469198 1.382262 0.000000
C 0.376956 1.067424 0.000000
C -0.168969 2.198347 0.000000
H -0.511644 3.234227 0.000000
C -0.168969 -1.502600 -0.684417
H -0.273074 -2.038260 -1.624659
C -0.168969 -1.502600 0.684417
H -0.273074 -2.038260 1.624659
