9
Energy =   -192.490408241     
    C    0.662166    0.781216    0.000749
    C   -0.497898   -0.008831    0.006942
    C    0.662183   -0.783560    0.001401
    C   -1.952509    0.000008    0.000284
    H   -2.335788   -0.996533    0.209299
    H   -2.325239    0.710294    0.741418
    H   -2.317822    0.325633   -0.979883
    C    1.808625    0.004522   -0.002819
    H    2.883030    0.003965   -0.004266

FREQUENCIES 21
-11.8994
214.5211
324.6386
450.7169
532.6842
623.8038
703.4654
773.7643
953.3392
993.0628
1035.8725
1068.8615
1392.6739
1411.1080
1436.8168
1447.1096
1588.9909
3009.3753
3071.6340
3134.5028
3309.0616

SYMMETRY C1
ELECTRONIC_STATE 2-A
