9
Energy =   -192.757136498     
    C    2.410348    0.211891    0.000773
    H    3.000499   -0.161310    0.843256
    H    2.382494    1.305177    0.034463
    H    2.961505   -0.105052   -0.890400
    C    1.095592   -0.426327    0.002703
    C   -0.158780   -0.106174    0.001987
    C   -1.431432    0.038581    0.000547
    C   -2.729205   -0.020437   -0.000934
    H   -3.462661    0.776931   -0.002084

FREQUENCIES 21
-53.2404
135.7319
197.6666
312.0235
382.7433
479.4246
642.8680
693.9126
767.8399
1003.8085
1041.6424
1157.4535
1373.5328
1453.7405
1458.8965
1607.7251
2127.5467
2982.7199
3043.8122
3049.9990
3161.7543

SYMMETRY C1
ELECTRONIC_STATE 3-A
