9
Energy = -192.03384448000
C 0.653696 1.101958 0.000633
C 1.187063 -0.174732 -0.000337
H 2.225658 -0.475409 -0.002046
C -1.184198 -0.169883 -0.000404
C -0.647607 1.114141 -0.000236
H -2.226332 -0.461356 -0.000269
C -0.004821 -1.119398 0.000357
H -0.011990 -1.786766 0.872455
H -0.012130 -1.788982 -0.870216
