9
Energy = -191.48987105000
C 1.757560 -1.595050 0.000000
H 1.063919 -2.429593 0.000000
H 2.828034 -1.778261 0.000000
C 1.306452 -0.237392 0.000000
H 2.049863 0.576827 0.000000
C 0.000000 0.223554 0.000000
C -1.162188 0.714418 0.000000
C -2.336350 1.223461 0.000000
H -3.334657 1.657082 0.000000
