9
Energy =   -191.977459079     
    C    0.000241   -1.476929    0.000000
    H    0.000556   -2.561330    0.000000
    C   -0.000202    0.642241   -0.000000
    C   -0.996072   -0.498883   -0.000000
    H   -2.087688   -0.469068   -0.000000
    C    0.996106   -0.498395   -0.000000
    H    2.087738   -0.468360   -0.000000
    C   -0.000619    1.914346   -0.000000
    H   -0.001028    3.004912    0.000000

FREQUENCIES 21
-200.2863
254.5942
362.0363
591.3666
698.8612
755.3211
849.8868
913.9944
1021.0812
1048.7775
1054.5337
1073.1999
1148.4987
1227.0863
1397.5438
1418.6471
1748.3321
3127.6562
3136.1136
3180.7870
3207.2752

SYMMETRY CS
ELECTRONIC_STATE 1-A'
