9
Energy =   -191.908394304     
    C   -0.900205   -1.823408    0.000000
    H   -1.979494   -1.669769    0.000000
    H   -0.500676   -2.840981    0.000000
    C    0.000000   -0.739861    0.000000
    C    0.277813    0.685826    0.000000
    C    1.287124   -0.250791    0.000000
    C   -0.150279    2.028033    0.000000
    H    0.601821    2.821173    0.000000
    H   -1.208371    2.290778    0.000000

FREQUENCIES 21
-384.0894
230.1435
283.3716
301.9702
448.6633
496.8940
724.8824
863.0507
1002.4111
1056.7745
1078.3448
1088.9665
1196.3905
1408.3127
1450.1238
1471.8378
1659.7094
3057.9607
3062.3167
3181.0695
3181.9779

SYMMETRY CS
ELECTRONIC_STATE 3-A"
