9
Energy = -190.63798830000
C 2.540080 0.753412 0.000000
C -1.652754 -1.668636 0.000000
H -0.935151 -2.502867 0.000000
H -2.738325 -1.862691 0.000000
C -1.204016 -0.251257 0.000000
H -2.003217 0.553610 0.000000
C 0.000000 0.337154 0.000000
C 1.097813 1.092229 0.000000
H 0.989959 2.234541 0.000000
