9
Energy = -192.20375655000
C 0.007897 0.380464 -0.581742
C -1.254189 0.214689 0.241747
C 1.252578 0.222717 0.273712
H 0.019096 -0.335461 -1.399317
H 0.003790 1.383562 -1.017392
H -1.434068 0.869437 1.098898
H 1.354874 0.906571 1.121176
C -2.204111 -0.642592 0.054206
C 2.207209 -0.645962 0.044849
