9
Energy =   -192.610268797     
    C    0.010053    0.375494   -0.582634
    C   -1.254995    0.222113    0.238575
    C    1.251487    0.219947    0.277969
    H    0.020264   -0.347189   -1.394133
    H    0.011046    1.374957   -1.026549
    H   -1.433732    0.884033    1.090208
    H    1.354098    0.910839    1.119558
    C   -2.208101   -0.632693    0.054002
    C    2.202955   -0.654076    0.059139

FREQUENCIES 21
-172.1674
-99.9581
195.3367
327.7141
337.8965
647.0836
703.9417
851.0613
896.9357
918.2294
1032.1116
1134.4010
1161.2848
1303.0646
1458.8874
1476.6499
1537.4358
3022.1454
3034.1085
3044.3866
3119.2286

SYMMETRY C1
ELECTRONIC_STATE 3-A
