9
Energy =   -192.705892827     
    C   -1.053024   -0.561288    0.000000
    H   -0.821067   -1.630913    0.000000
    C    2.431074    0.689553    0.000000
    C   -2.343647    0.014270    0.000000
    H   -3.107394   -0.780618    0.000000
    C    0.000000    0.313650    0.000000
    H   -0.229415    1.371871    0.000000
    C    1.384394   -0.090408    0.000000
    H    1.645092   -1.154999    0.000000

FREQUENCIES 21
-199.3584
144.7445
200.8536
322.9322
400.7799
505.5643
735.7063
900.9703
913.5979
1001.6639
1032.2412
1127.7522
1185.7143
1295.4713
1328.2238
1546.5785
1701.1506
2964.6744
3021.4134
3048.8703
3183.9446

SYMMETRY CS
ELECTRONIC_STATE 1-A'
