9
Energy =   -192.478591476     
    C   -0.161291   -1.996589    0.000000
    H   -1.215704   -2.242547    0.000000
    H    0.559506   -2.808072    0.000000
    C    0.278334   -0.732801    0.000000
    C    0.000000    0.783864    0.000000
    C    1.252904    0.229928    0.000000
    C   -0.859530    1.809265    0.000000
    H   -0.473699    2.823583    0.000000
    H   -1.932612    1.665026    0.000000

FREQUENCIES 21
-272.1542
218.9587
296.2720
320.9882
420.3844
622.9240
630.0643
952.2972
1010.0262
1013.3047
1014.4845
1051.7805
1153.9687
1431.1001
1457.8136
1581.2437
1741.8535
3124.3760
3125.1399
3228.2425
3228.5835

SYMMETRY CS
ELECTRONIC_STATE 2-A'
