9
Energy = -191.54215784000
C 0.000270 -1.476964 0.000000
H 0.000593 -2.561227 0.000000
C 0.000000 0.642177 0.000000
C -0.995869 -0.498851 0.000000
H -2.087692 -0.468729 0.000000
C 0.996188 -0.498490 0.000000
H 2.087666 -0.468821 0.000000
C -0.000395 1.914421 0.000000
H -0.001729 3.005018 0.000000
