9
Energy =   -192.780569306     
    C   -0.667492   -1.865821    0.000000
    H   -1.749207   -1.918395    0.000000
    H   -0.119533   -2.800690    0.000000
    C    0.000000   -0.701695    0.000000
    C    0.128243    0.689947    0.000000
    C    1.328715   -0.122423    0.000000
    C   -0.315498    1.956362    0.000000
    H    0.394328    2.775112    0.000000
    H   -1.369391    2.205755    0.000000

FREQUENCIES 21
-193.8523
231.9760
276.8943
333.1485
400.3395
726.8544
793.0743
817.9645
970.4039
972.7877
1007.1846
1108.6477
1229.1331
1428.4089
1479.7316
1603.4605
1800.1039
3118.3590
3119.6279
3207.3144
3207.5272

SYMMETRY CS
ELECTRONIC_STATE 1-A'
