9
Energy =   -192.760099113     
    C   -0.000327    2.304556    0.000000
    C   -1.235405   -1.045189    0.000000
    H   -1.278688   -2.125676    0.000000
    H   -2.159618   -0.489566    0.000000
    C   -0.000159    1.028995    0.000000
    C    0.000000   -0.372161    0.000000
    C    1.235710   -1.044729    0.000000
    H    2.159761   -0.488496    0.000000
    H    1.279630   -2.125096    0.000000

FREQUENCIES 21
-300.1170
173.9175
399.8237
405.7832
407.3402
521.2315
547.7233
786.1651
818.1067
829.9029
981.9579
1017.7905
1313.9864
1331.5595
1482.6168
1501.0667
1974.2494
3147.0776
3152.5956
3260.5101
3262.0361

SYMMETRY CS
ELECTRONIC_STATE 3-A'
