9
Energy =   -192.691763165     
    C   -0.194156    1.254392    0.000000
    H   -1.158740    1.741904    0.000000
    C    0.993815    1.796166    0.000000
    H    2.023400    1.482626    0.000000
    C    0.000000   -0.171656    0.000000
    C    0.501630   -1.358029    0.000000
    C   -0.945011   -1.494264    0.000000
    H   -1.501165   -1.692095   -0.916188
    H   -1.501165   -1.692095    0.916188

FREQUENCIES 21
-184.3075
239.6693
252.5693
314.4902
335.3314
437.2882
755.5513
776.5835
912.5794
928.9122
1061.0178
1078.9660
1127.0414
1281.1493
1514.9495
1574.6649
1774.7576
3029.3279
3100.7159
3165.9938
3267.1781

SYMMETRY CS
ELECTRONIC_STATE 1-A'
