3
Energy =   -76.4337434515     
    H    0.000000    0.000000    1.002287
    C    0.000000    0.744354   -0.083524
    C    0.000000   -0.744354   -0.083524

FREQUENCIES 3
-1977.6552
1070.8938
2175.5350

SYMMETRY C2V
ELECTRONIC_STATE 4-A2
