3
Energy = -75.20316914100
H 0.000000 0.000000 1.196138
C 0.000000 0.689502 -0.099678
C 0.000000 -0.689502 -0.099678
