3
Energy = -75.17571970600
H 0.000000 0.000000 1.206740
C 0.000000 0.643916 -0.100562
C 0.000000 -0.643916 -0.100562
