3
Energy = -76.29847854100
H 0.000000 0.000000 -1.692080
C 0.000000 0.000000 -0.615121
C 0.000000 0.000000 0.897135
