3
Energy =   -75.3392268846     
    H    0.000000    0.000000    1.206740
    C    0.000000    0.643916   -0.100562
    C    0.000000   -0.643916   -0.100562

FREQUENCIES 3
-1302.8832
1556.5705
1824.8582

SYMMETRY C2V
ELECTRONIC_STATE 4-A2
