3
Energy =   -76.1574068290     
    H    0.000000    0.000000    1.080380
    C    0.000000    0.671780   -0.090032
    C    0.000000   -0.671780   -0.090032

FREQUENCIES 3
-786.6749
1528.8301
2097.5288

SYMMETRY C2V
ELECTRONIC_STATE 3-B1
