4
Energy =   -113.563653204     
    H    0.000000    0.000000    1.508100
    C    0.000000    0.000000    0.355210
    C    0.000000    1.198609   -0.303280
    C    0.000000   -1.198609   -0.303280

FREQUENCIES 6
-2324.7741
345.6112
505.9046
800.4099
1157.5025
2518.7851

SYMMETRY C2V
ELECTRONIC_STATE 2-B2
