4
Energy = -114.45500181000
C 0.000000 0.000000 -1.423061
C 0.000000 0.000000 -0.092332
C 0.000000 0.000000 1.146893
H 0.000000 0.000000 2.210995
