6
Energy =   -190.388647833     
    C    1.169035    1.038137    0.000000
    C   -0.212612    0.986843    0.000000
    C   -0.212612   -0.364155    0.742658
    C   -0.358356   -1.579880    0.000000
    C   -0.212612   -0.364155   -0.742658
    H   -1.037047    1.699255    0.000000

FREQUENCIES 12
-412.8356
-321.5888
194.8090
347.5630
716.6204
960.2375
977.3233
989.8665
1073.6830
1302.7145
1408.7054
3126.5517

SYMMETRY CS
ELECTRONIC_STATE 1-A'
