6
Energy =   -190.553911502     
    H    0.000000    0.000000    3.241756
    C    0.000000    0.000000    2.168223
    C    0.000000    0.000000    0.955026
    C    0.000000    0.000000   -0.387318
    C    0.000000    0.641860   -1.638112
    C    0.000000   -0.641860   -1.638112

FREQUENCIES 12
-375.1707
198.8728
207.3938
559.9950
560.3053
779.7566
782.4930
810.7518
1552.0928
1738.3015
2198.4960
3364.2954

SYMMETRY C2V
ELECTRONIC_STATE 1-A1
