6
Energy =   -190.385023250     
    H   -0.000143    1.983029    0.000000
    C    0.000018    0.902269    0.000000
    C    1.077340   -0.143543    0.000000
    C    0.000018   -0.472623    0.896754
    C    0.000018   -0.472623   -0.896754
    C   -1.077370   -0.143985    0.000000

FREQUENCIES 12
-844.3358
383.2316
439.3077
748.3075
767.7993
868.7722
926.3932
957.7899
1066.6135
1357.3242
1370.8847
3232.1061

SYMMETRY CS
ELECTRONIC_STATE 3-A'
