6
Energy = -189.35460897000
H -1.841488 -1.121212 0.000000
C -0.899969 -0.547598 0.000000
C -0.402156 0.811762 0.000000
C 0.536347 0.326399 1.043417
C 0.536347 0.326399 -1.043417
C 0.536347 -0.730092 0.000000
