6
Energy =   -189.753409256     
    H   -1.841488   -1.121212    0.000000
    C   -0.899969   -0.547598    0.000000
    C   -0.402156    0.811762    0.000000
    C    0.536347    0.326399    1.043417
    C    0.536347    0.326399   -1.043417
    C    0.536347   -0.730092    0.000000

FREQUENCIES 12
-929.7916
363.8296
506.2927
509.1956
632.0907
671.5700
798.3013
933.4376
1028.4868
1122.3602
1327.5013
3034.2396

SYMMETRY CS
ELECTRONIC_STATE 2-A'
