6
Energy = -189.98493820000
C 1.169035 1.038137 0.000000
C -0.212612 0.986843 0.000000
C -0.212612 -0.364155 0.742658
C -0.358356 -1.579880 0.000000
C -0.212612 -0.364155 -0.742658
H -1.037047 1.699255 0.000000
