 Entering Gaussian System, Link 0=/home/proyectos/fulerenos/M3C-v2.0/M3C-deps_CCC/g09-AM64L-G09RevC.01/g09
 Initial command:
 /home/proyectos/fulerenos/M3C-v2.0/M3C-deps_CCC/g09-AM64L-G09RevC.01/l1.exe "/scratch/naguirre/gaussian/Gau-27562.inp" -scrdir="/scratch/naguirre/gaussian/"
 Entering Link 1 = /home/proyectos/fulerenos/M3C-v2.0/M3C-deps_CCC/g09-AM64L-G09RevC.01/l1.exe PID=     27567.
  
 Copyright (c) 1988,1990,1992,1993,1995,1998,2003,2009,2015,
            Gaussian, Inc.  All Rights Reserved.
  
 This is part of the Gaussian(R) 09 program.  It is based on
 the Gaussian(R) 03 system (copyright 2003, Gaussian, Inc.),
 the Gaussian(R) 98 system (copyright 1998, Gaussian, Inc.),
 the Gaussian(R) 94 system (copyright 1995, Gaussian, Inc.),
 the Gaussian 92(TM) system (copyright 1992, Gaussian, Inc.),
 the Gaussian 90(TM) system (copyright 1990, Gaussian, Inc.),
 the Gaussian 88(TM) system (copyright 1988, Gaussian, Inc.),
 the Gaussian 86(TM) system (copyright 1986, Carnegie Mellon
 University), and the Gaussian 82(TM) system (copyright 1983,
 Carnegie Mellon University). Gaussian is a federally registered
 trademark of Gaussian, Inc.
  
 This software contains proprietary and confidential information,
 including trade secrets, belonging to Gaussian, Inc.
  
 This software is provided under written license and may be
 used, copied, transmitted, or stored only in accord with that
 written license.
  
 The following legend is applicable only to US Government
 contracts under FAR:
  
                    RESTRICTED RIGHTS LEGEND
  
 Use, reproduction and disclosure by the US Government is
 subject to restrictions as set forth in subparagraphs (a)
 and (c) of the Commercial Computer Software - Restricted
 Rights clause in FAR 52.227-19.
  
 Gaussian, Inc.
 340 Quinnipiac St., Bldg. 40, Wallingford CT 06492
  
  
 ---------------------------------------------------------------
 Warning -- This program may not be used in any manner that
 competes with the business of Gaussian, Inc. or will provide
 assistance to any competitor of Gaussian, Inc.  The licensee
 of this program is prohibited from giving any competitor of
 Gaussian, Inc. access to this program.  By using this program,
 the user acknowledges that Gaussian, Inc. is engaged in the
 business of creating and licensing software in the field of
 computational chemistry and represents and warrants to the
 licensee that it is not a competitor of Gaussian, Inc. and that
 it will not use this program in any manner prohibited above.
 ---------------------------------------------------------------
  

 Cite this work as:
 Gaussian 09, Revision E.01,
 M. J. Frisch, G. W. Trucks, H. B. Schlegel, G. E. Scuseria, 
 M. A. Robb, J. R. Cheeseman, G. Scalmani, V. Barone, B. Mennucci, 
 G. A. Petersson, H. Nakatsuji, M. Caricato, X. Li, H. P. Hratchian, 
 A. F. Izmaylov, J. Bloino, G. Zheng, J. L. Sonnenberg, M. Hada, 
 M. Ehara, K. Toyota, R. Fukuda, J. Hasegawa, M. Ishida, T. Nakajima, 
 Y. Honda, O. Kitao, H. Nakai, T. Vreven, J. A. Montgomery, Jr., 
 J. E. Peralta, F. Ogliaro, M. Bearpark, J. J. Heyd, E. Brothers, 
 K. N. Kudin, V. N. Staroverov, T. Keith, R. Kobayashi, J. Normand, 
 K. Raghavachari, A. Rendell, J. C. Burant, S. S. Iyengar, J. Tomasi, 
 M. Cossi, N. Rega, J. M. Millam, M. Klene, J. E. Knox, J. B. Cross, 
 V. Bakken, C. Adamo, J. Jaramillo, R. Gomperts, R. E. Stratmann, 
 O. Yazyev, A. J. Austin, R. Cammi, C. Pomelli, J. W. Ochterski, 
 R. L. Martin, K. Morokuma, V. G. Zakrzewski, G. A. Voth, 
 P. Salvador, J. J. Dannenberg, S. Dapprich, A. D. Daniels, 
 O. Farkas, J. B. Foresman, J. V. Ortiz, J. Cioslowski, 
 and D. J. Fox, Gaussian, Inc., Wallingford CT, 2013.
 
 ******************************************
 Gaussian 09:  EM64L-G09RevE.01 30-Nov-2015
                 1-Nov-2016 
 ******************************************
 %NProcShared=4
 Will use up to    4 processors via shared memory.
 -----------------------------------------
 #p b3lyp/6-311+G(3df) freq symmetry=Loose
 -----------------------------------------
 1/10=4,30=1,38=1/1,3;
 2/12=2,17=4,18=3,40=1/2;
 3/5=4,6=6,7=16,11=2,16=1,25=1,30=1,71=2,74=-5,140=1/1,2,3;
 4//1;
 5/5=2,38=5,98=1/2;
 8/6=4,10=90,11=11/1;
 11/6=1,8=1,9=11,15=111,16=1/1,2,10;
 10/6=1/2;
 6/7=2,8=2,9=2,10=2,18=1,28=1/1;
 7/8=1,10=1,25=1/1,2,3,16;
 1/10=4,30=1/3;
 99//99;
 Leave Link    1 at Tue Nov  1 19:44:48 2016, MaxMem=           0 cpu:         0.2
 (Enter /home/proyectos/fulerenos/M3C-v2.0/M3C-deps_CCC/g09-AM64L-G09RevC.01/l101.exe)
 ---------
 b3lyp opt
 ---------
 Symbolic Z-matrix:
 Charge =  1 Multiplicity = 2
 C                     0.14698  -1.13367  -0.10483 
 C                     0.67393   0.91549  -0.11863 
 C                     0.04362   0.12089  -1.14341 
 C                    -0.7699   -0.40883   0.74233 
 C                     0.76787  -0.21829   0.82045 
 C                    -0.86251   0.72441  -0.19592 
 
 NAtoms=      6 NQM=        6 NQMF=       0 NMMI=      0 NMMIF=      0
                NMic=       0 NMicF=      0.
                    Isotopes and Nuclear Properties:
 (Nuclear quadrupole moments (NQMom) in fm**2, nuclear magnetic moments (NMagM)
  in nuclear magnetons)

  Atom         1           2           3           4           5           6
 IAtWgt=          12          12          12          12          12          12
 AtmWgt=  12.0000000  12.0000000  12.0000000  12.0000000  12.0000000  12.0000000
 NucSpn=           0           0           0           0           0           0
 AtZEff=   0.0000000   0.0000000   0.0000000   0.0000000   0.0000000   0.0000000
 NQMom=    0.0000000   0.0000000   0.0000000   0.0000000   0.0000000   0.0000000
 NMagM=    0.0000000   0.0000000   0.0000000   0.0000000   0.0000000   0.0000000
 AtZNuc=   6.0000000   6.0000000   6.0000000   6.0000000   6.0000000   6.0000000
 Leave Link  101 at Tue Nov  1 19:44:48 2016, MaxMem=    33554432 cpu:         0.2
 (Enter /home/proyectos/fulerenos/M3C-v2.0/M3C-deps_CCC/g09-AM64L-G09RevC.01/l103.exe)

 GradGradGradGradGradGradGradGradGradGradGradGradGradGradGradGradGradGrad
 Berny optimization.
 Initialization pass.
 Trust Radius=3.00D-01 FncErr=1.00D-07 GrdErr=1.00D-07
 Number of steps in this run=      2 maximum allowed number of steps=      2.
 GradGradGradGradGradGradGradGradGradGradGradGradGradGradGradGradGradGrad

 Leave Link  103 at Tue Nov  1 19:44:48 2016, MaxMem=    33554432 cpu:         0.1
 (Enter /home/proyectos/fulerenos/M3C-v2.0/M3C-deps_CCC/g09-AM64L-G09RevC.01/l202.exe)
                          Input orientation:                          
 ---------------------------------------------------------------------
 Center     Atomic      Atomic             Coordinates (Angstroms)
 Number     Number       Type             X           Y           Z
 ---------------------------------------------------------------------
      1          6           0        0.146984   -1.133670   -0.104828
      2          6           0        0.673932    0.915486   -0.118626
      3          6           0        0.043624    0.120889   -1.143410
      4          6           0       -0.769900   -0.408825    0.742331
      5          6           0        0.767871   -0.218288    0.820448
      6          6           0       -0.862509    0.724407   -0.195915
 ---------------------------------------------------------------------
                    Distance matrix (angstroms):
                    1          2          3          4          5
     1  C    0.000000
     2  C    2.115870   0.000000
     3  C    1.631948   1.441823   0.000000
     4  C    1.443522   2.140023   2.120952   0.000000
     5  C    1.442068   1.475170   2.120451   1.551498   0.000000
     6  C    2.116559   1.550205   1.443280   1.474143   2.140048
                    6
     6  C    0.000000
 Stoichiometry    C6(1+,2)
 Framework group  C1[X(C6)]
 Deg. of freedom    12
 Full point group                 C1      NOp   1
 Largest Abelian subgroup         C1      NOp   1
 Largest concise Abelian subgroup C1      NOp   1
                         Standard orientation:                         
 ---------------------------------------------------------------------
 Center     Atomic      Atomic             Coordinates (Angstroms)
 Number     Number       Type             X           Y           Z
 ---------------------------------------------------------------------
      1          6           0        0.811530   -0.004827    0.811909
      2          6           0       -0.735279   -0.772734   -0.410631
      3          6           0       -0.820409   -0.004850    0.806727
      4          6           0        0.739205    0.778218   -0.398614
      5          6           0        0.739885   -0.773261   -0.406261
      6          6           0       -0.734931    0.777453   -0.403130
 ---------------------------------------------------------------------
 Rotational constants (GHZ):      9.6367731      7.6973656      7.1243335
 Leave Link  202 at Tue Nov  1 19:44:48 2016, MaxMem=    33554432 cpu:         0.0
 (Enter /home/proyectos/fulerenos/M3C-v2.0/M3C-deps_CCC/g09-AM64L-G09RevC.01/l301.exe)
 Standard basis: 6-311+G(3df) (5D, 7F)
 Ernie: Thresh=  0.10000D-02 Tol=  0.10000D-05 Strict=F.
 There are   270 symmetry adapted cartesian basis functions of A   symmetry.
 There are   234 symmetry adapted basis functions of A   symmetry.
   234 basis functions,   348 primitive gaussians,   270 cartesian basis functions
    18 alpha electrons       17 beta electrons
       nuclear repulsion energy       168.6718699222 Hartrees.
 IExCor=  402 DFT=T Ex+Corr=B3LYP ExCW=0 ScaHFX=  0.200000
 ScaDFX=  0.800000  0.720000  1.000000  0.810000 ScalE2=  1.000000  1.000000
 IRadAn=      0 IRanWt=     -1 IRanGd=            0 ICorTp=0 IEmpDi=  4
 NAtoms=    6 NActive=    6 NUniq=    6 SFac= 1.00D+00 NAtFMM=   60 NAOKFM=F Big=F
 Integral buffers will be    131072 words long.
 Raffenetti 2 integral format.
 Two-electron integral symmetry is turned on.
 Leave Link  301 at Tue Nov  1 19:44:48 2016, MaxMem=    33554432 cpu:         0.2
 (Enter /home/proyectos/fulerenos/M3C-v2.0/M3C-deps_CCC/g09-AM64L-G09RevC.01/l302.exe)
 NPDir=0 NMtPBC=     1 NCelOv=     1 NCel=       1 NClECP=     1 NCelD=      1
         NCelK=      1 NCelE2=     1 NClLst=     1 CellRange=     0.0.
 One-electron integrals computed using PRISM.
 NBasis=   234 RedAO= T EigKep=  7.12D-06  NBF=   234
 NBsUse=   234 1.00D-06 EigRej= -1.00D+00 NBFU=   234
 Precomputing XC quadrature grid using
 IXCGrd= 4 IRadAn=           0 IRanWt=          -1 IRanGd=           0 AccXCQ= 0.00D+00.
 Generated NRdTot=       0 NPtTot=           0 NUsed=           0 NTot=          32
 NSgBfM=   270   270   270   270   270 MxSgAt=     6 MxSgA2=     6.
 Leave Link  302 at Tue Nov  1 19:44:48 2016, MaxMem=    33554432 cpu:         1.7
 (Enter /home/proyectos/fulerenos/M3C-v2.0/M3C-deps_CCC/g09-AM64L-G09RevC.01/l303.exe)
 DipDrv:  MaxL=1.
 Leave Link  303 at Tue Nov  1 19:44:48 2016, MaxMem=    33554432 cpu:         0.2
 (Enter /home/proyectos/fulerenos/M3C-v2.0/M3C-deps_CCC/g09-AM64L-G09RevC.01/l401.exe)
 ExpMin= 4.38D-02 ExpMax= 4.56D+03 ExpMxC= 6.82D+02 IAcc=2 IRadAn=         4 AccDes= 0.00D+00
 Harris functional with IExCor=  402 and IRadAn=       4 diagonalized for initial guess.
 HarFok:  IExCor=  402 AccDes= 0.00D+00 IRadAn=         4 IDoV= 1 UseB2=F ITyADJ=14
 ICtDFT=  3500011 ScaDFX=  1.000000  1.000000  1.000000  1.000000
 FoFCou: FMM=F IPFlag=           0 FMFlag=      100000 FMFlg1=           0
         NFxFlg=           0 DoJE=T BraDBF=F KetDBF=T FulRan=T
         wScrn=  0.000000 ICntrl=     500 IOpCl=  0 I1Cent=   200000004 NGrid=           0
         NMat0=    1 NMatS0=      1 NMatT0=    0 NMatD0=    1 NMtDS0=    0 NMtDT0=    0
 Petite list used in FoFCou.
 Harris En= -227.811855202418    
 JPrj=0 DoOrth=F DoCkMO=F.
 Initial guess <Sx>= 0.0000 <Sy>= 0.0000 <Sz>= 0.5000 <S**2>= 0.7500 S= 0.5000
 Leave Link  401 at Tue Nov  1 19:44:50 2016, MaxMem=    33554432 cpu:         4.0
 (Enter /home/proyectos/fulerenos/M3C-v2.0/M3C-deps_CCC/g09-AM64L-G09RevC.01/l502.exe)
 UHF open shell SCF:
 Using DIIS extrapolation, IDIIS=  1040.
 Integral symmetry usage will be decided dynamically.
 IVT=      240790 IEndB=      240790 NGot=    33554432 MDV=    33403453
 LenX=    33403453 LenY=    33330112
 Requested convergence on RMS density matrix=1.00D-08 within 128 cycles.
 Requested convergence on MAX density matrix=1.00D-06.
 Requested convergence on             energy=1.00D-06.
 No special actions if energy rises.
 Fock matrices will be formed incrementally for  20 cycles.

 Cycle   1  Pass 1  IDiag  1:
 FoFJK:  IHMeth= 1 ICntrl=       0 DoSepK=F KAlg= 0 I1Cent=   0 FoldK=F
 IRaf= 990000000 NMat=   1 IRICut=       1 DoRegI=T DoRafI=F ISym2E= 0.
 FoFCou: FMM=F IPFlag=           0 FMFlag=      100000 FMFlg1=           0
         NFxFlg=           0 DoJE=F BraDBF=F KetDBF=F FulRan=T
         wScrn=  0.000000 ICntrl=       0 IOpCl=  1 I1Cent=           0 NGrid=           0
         NMat0=    1 NMatS0=      1 NMatT0=    0 NMatD0=    1 NMtDS0=    0 NMtDT0=    0
 Symmetry not used in FoFCou.
 E= -227.752982105678    
 DIIS: error= 1.03D-02 at cycle   1 NSaved=   1.
 NSaved= 1 IEnMin= 1 EnMin= -227.752982105678     IErMin= 1 ErrMin= 1.03D-02
 ErrMax= 1.03D-02  0.00D+00 EMaxC= 1.00D-01 BMatC= 8.10D-02 BMatP= 8.10D-02
 IDIUse=3 WtCom= 8.97D-01 WtEn= 1.03D-01
 Coeff-Com:  0.100D+01
 Coeff-En:   0.100D+01
 Coeff:      0.100D+01
 Gap=     0.085 Goal=   None    Shift=    0.000
 Gap=     0.109 Goal=   None    Shift=    0.000
 GapD=    0.085 DampG=0.500 DampE=0.500 DampFc=0.2500 IDamp=-1.
 Damping current iteration by 2.50D-01
 RMSDP=4.26D-03 MaxDP=1.79D-01              OVMax= 8.88D-02

 Cycle   2  Pass 1  IDiag  1:
 RMSU=  9.99D-04    CP:  9.80D-01
 E= -227.757671987249     Delta-E=       -0.004689881571 Rises=F Damp=T
 DIIS: error= 7.66D-03 at cycle   2 NSaved=   2.
 NSaved= 2 IEnMin= 2 EnMin= -227.757671987249     IErMin= 2 ErrMin= 7.66D-03
 ErrMax= 7.66D-03  0.00D+00 EMaxC= 1.00D-01 BMatC= 3.90D-02 BMatP= 8.10D-02
 IDIUse=3 WtCom= 9.23D-01 WtEn= 7.66D-02
 Coeff-Com: -0.145D+01 0.245D+01
 Coeff-En:   0.000D+00 0.100D+01
 Coeff:     -0.134D+01 0.234D+01
 Gap=     0.114 Goal=   None    Shift=    0.000
 Gap=     0.101 Goal=   None    Shift=    0.000
 RMSDP=3.26D-03 MaxDP=1.32D-01 DE=-4.69D-03 OVMax= 9.05D-02

 Cycle   3  Pass 1  IDiag  1:
 RMSU=  1.41D-03    CP:  9.16D-01  3.00D+00
 E= -227.761516247443     Delta-E=       -0.003844260195 Rises=F Damp=F
 DIIS: error= 1.16D-02 at cycle   3 NSaved=   3.
 NSaved= 3 IEnMin= 3 EnMin= -227.761516247443     IErMin= 2 ErrMin= 7.66D-03
 ErrMax= 1.16D-02  0.00D+00 EMaxC= 1.00D-01 BMatC= 4.15D-02 BMatP= 3.90D-02
 IDIUse=3 WtCom= 8.84D-01 WtEn= 1.16D-01
 Coeff-Com: -0.132D+01 0.190D+01 0.423D+00
 Coeff-En:   0.000D+00 0.189D+00 0.811D+00
 Coeff:     -0.117D+01 0.170D+01 0.468D+00
 Gap=     0.106 Goal=   None    Shift=    0.000
 Gap=     0.113 Goal=   None    Shift=    0.000
 RMSDP=9.67D-04 MaxDP=4.41D-02 DE=-3.84D-03 OVMax= 7.26D-02

 Cycle   4  Pass 1  IDiag  1:
 RMSU=  8.24D-04    CP:  9.13D-01  3.00D+00  6.42D-01
 E= -227.769819012536     Delta-E=       -0.008302765093 Rises=F Damp=F
 DIIS: error= 7.16D-03 at cycle   4 NSaved=   4.
 NSaved= 4 IEnMin= 4 EnMin= -227.769819012536     IErMin= 4 ErrMin= 7.16D-03
 ErrMax= 7.16D-03  0.00D+00 EMaxC= 1.00D-01 BMatC= 1.23D-02 BMatP= 3.90D-02
 IDIUse=3 WtCom= 9.28D-01 WtEn= 7.16D-02
 Coeff-Com: -0.468D+00 0.605D+00 0.375D+00 0.489D+00
 Coeff-En:   0.000D+00 0.000D+00 0.269D+00 0.731D+00
 Coeff:     -0.435D+00 0.562D+00 0.367D+00 0.506D+00
 Gap=     0.107 Goal=   None    Shift=    0.000
 Gap=     0.111 Goal=   None    Shift=    0.000
 RMSDP=4.08D-04 MaxDP=2.06D-02 DE=-8.30D-03 OVMax= 3.62D-02

 Cycle   5  Pass 1  IDiag  1:
 RMSU=  2.44D-04    CP:  9.18D-01  3.00D+00  7.95D-01  7.17D-01
 E= -227.773314106070     Delta-E=       -0.003495093534 Rises=F Damp=F
 DIIS: error= 1.15D-03 at cycle   5 NSaved=   5.
 NSaved= 5 IEnMin= 5 EnMin= -227.773314106070     IErMin= 5 ErrMin= 1.15D-03
 ErrMax= 1.15D-03  0.00D+00 EMaxC= 1.00D-01 BMatC= 2.93D-04 BMatP= 1.23D-02
 IDIUse=3 WtCom= 9.89D-01 WtEn= 1.15D-02
 Coeff-Com:  0.174D+00-0.241D+00-0.184D-01 0.826D-01 0.100D+01
 Coeff-En:   0.000D+00 0.000D+00 0.000D+00 0.000D+00 0.100D+01
 Coeff:      0.172D+00-0.238D+00-0.182D-01 0.817D-01 0.100D+01
 Gap=     0.111 Goal=   None    Shift=    0.000
 Gap=     0.113 Goal=   None    Shift=    0.000
 RMSDP=2.39D-04 MaxDP=1.34D-02 DE=-3.50D-03 OVMax= 2.52D-02

 Cycle   6  Pass 1  IDiag  1:
 RMSU=  1.60D-04    CP:  9.15D-01  3.00D+00  8.36D-01  8.17D-01  1.55D+00
 E= -227.773781896408     Delta-E=       -0.000467790338 Rises=F Damp=F
 DIIS: error= 1.12D-03 at cycle   6 NSaved=   6.
 NSaved= 6 IEnMin= 6 EnMin= -227.773781896408     IErMin= 6 ErrMin= 1.12D-03
 ErrMax= 1.12D-03  0.00D+00 EMaxC= 1.00D-01 BMatC= 3.19D-04 BMatP= 2.93D-04
 IDIUse=3 WtCom= 9.89D-01 WtEn= 1.12D-02
 Coeff-Com:  0.252D+00-0.339D+00-0.112D+00-0.640D-01 0.807D+00 0.455D+00
 Coeff-En:   0.000D+00 0.000D+00 0.000D+00 0.000D+00 0.000D+00 0.100D+01
 Coeff:      0.250D+00-0.335D+00-0.110D+00-0.633D-01 0.798D+00 0.461D+00
 Gap=     0.111 Goal=   None    Shift=    0.000
 Gap=     0.115 Goal=   None    Shift=    0.000
 RMSDP=1.49D-04 MaxDP=8.45D-03 DE=-4.68D-04 OVMax= 1.36D-02

 Cycle   7  Pass 1  IDiag  1:
 RMSU=  1.02D-04    CP:  9.14D-01  3.00D+00  8.54D-01  8.49D-01  1.96D+00
                    CP:  1.14D+00
 E= -227.774027640389     Delta-E=       -0.000245743981 Rises=F Damp=F
 DIIS: error= 7.10D-04 at cycle   7 NSaved=   7.
 NSaved= 7 IEnMin= 7 EnMin= -227.774027640389     IErMin= 7 ErrMin= 7.10D-04
 ErrMax= 7.10D-04  0.00D+00 EMaxC= 1.00D-01 BMatC= 1.61D-04 BMatP= 2.93D-04
 IDIUse=3 WtCom= 9.93D-01 WtEn= 7.10D-03
 Coeff-Com:  0.881D-01-0.111D+00-0.126D+00-0.196D+00-0.178D+00 0.573D+00
 Coeff-Com:  0.950D+00
 Coeff-En:   0.000D+00 0.000D+00 0.000D+00 0.000D+00 0.000D+00 0.000D+00
 Coeff-En:   0.100D+01
 Coeff:      0.875D-01-0.110D+00-0.125D+00-0.195D+00-0.177D+00 0.569D+00
 Coeff:      0.950D+00
 Gap=     0.113 Goal=   None    Shift=    0.000
 Gap=     0.117 Goal=   None    Shift=    0.000
 RMSDP=2.63D-04 MaxDP=1.12D-02 DE=-2.46D-04 OVMax= 2.75D-02

 Cycle   8  Pass 1  IDiag  1:
 RMSU=  6.08D-05    CP:  9.14D-01  3.00D+00  8.76D-01  9.13D-01  2.75D+00
                    CP:  2.10D+00  1.32D+00
 E= -227.774327405940     Delta-E=       -0.000299765551 Rises=F Damp=F
 DIIS: error= 3.36D-04 at cycle   8 NSaved=   8.
 NSaved= 8 IEnMin= 8 EnMin= -227.774327405940     IErMin= 8 ErrMin= 3.36D-04
 ErrMax= 3.36D-04  0.00D+00 EMaxC= 1.00D-01 BMatC= 4.63D-05 BMatP= 1.61D-04
 IDIUse=3 WtCom= 9.97D-01 WtEn= 3.36D-03
 Coeff-Com: -0.278D-01 0.417D-01-0.515D-01-0.110D+00-0.317D+00 0.231D+00
 Coeff-Com:  0.595D+00 0.638D+00
 Coeff-En:   0.000D+00 0.000D+00 0.000D+00 0.000D+00 0.000D+00 0.000D+00
 Coeff-En:   0.000D+00 0.100D+01
 Coeff:     -0.277D-01 0.415D-01-0.513D-01-0.109D+00-0.315D+00 0.231D+00
 Coeff:      0.593D+00 0.639D+00
 Gap=     0.113 Goal=   None    Shift=    0.000
 Gap=     0.118 Goal=   None    Shift=    0.000
 RMSDP=1.07D-04 MaxDP=4.58D-03 DE=-3.00D-04 OVMax= 1.12D-02

 Cycle   9  Pass 1  IDiag  1:
 RMSU=  4.18D-05    CP:  9.14D-01  3.00D+00  8.82D-01  9.35D-01  3.00D+00
                    CP:  2.44D+00  1.67D+00  1.03D+00
 E= -227.774382754475     Delta-E=       -0.000055348535 Rises=F Damp=F
 DIIS: error= 1.78D-04 at cycle   9 NSaved=   9.
 NSaved= 9 IEnMin= 9 EnMin= -227.774382754475     IErMin= 9 ErrMin= 1.78D-04
 ErrMax= 1.78D-04  0.00D+00 EMaxC= 1.00D-01 BMatC= 2.24D-05 BMatP= 4.63D-05
 IDIUse=3 WtCom= 9.98D-01 WtEn= 1.78D-03
 Coeff-Com: -0.883D-01 0.118D+00 0.366D-01 0.350D-01-0.132D+00-0.185D+00
 Coeff-Com: -0.134D+00 0.552D+00 0.798D+00
 Coeff-En:   0.000D+00 0.000D+00 0.000D+00 0.000D+00 0.000D+00 0.000D+00
 Coeff-En:   0.000D+00 0.000D+00 0.100D+01
 Coeff:     -0.882D-01 0.117D+00 0.365D-01 0.350D-01-0.132D+00-0.185D+00
 Coeff:     -0.134D+00 0.551D+00 0.798D+00
 Gap=     0.113 Goal=   None    Shift=    0.000
 Gap=     0.119 Goal=   None    Shift=    0.000
 RMSDP=8.71D-05 MaxDP=4.29D-03 DE=-5.53D-05 OVMax= 8.98D-03

 Cycle  10  Pass 1  IDiag  1:
 RMSU=  5.77D-05    CP:  9.14D-01  3.00D+00  8.86D-01  9.53D-01  3.00D+00
                    CP:  2.74D+00  1.91D+00  1.50D+00  1.42D+00
 E= -227.774405561039     Delta-E=       -0.000022806564 Rises=F Damp=F
 DIIS: error= 1.13D-04 at cycle  10 NSaved=  10.
 NSaved=10 IEnMin=10 EnMin= -227.774405561039     IErMin=10 ErrMin= 1.13D-04
 ErrMax= 1.13D-04  0.00D+00 EMaxC= 1.00D-01 BMatC= 4.49D-06 BMatP= 2.24D-05
 IDIUse=3 WtCom= 9.99D-01 WtEn= 1.13D-03
 Coeff-Com: -0.478D-01 0.634D-01 0.280D-01 0.360D-01-0.398D-01-0.139D+00
 Coeff-Com: -0.152D+00 0.249D+00 0.479D+00 0.525D+00
 Coeff-En:   0.000D+00 0.000D+00 0.000D+00 0.000D+00 0.000D+00 0.000D+00
 Coeff-En:   0.000D+00 0.000D+00 0.000D+00 0.100D+01
 Coeff:     -0.478D-01 0.633D-01 0.280D-01 0.359D-01-0.398D-01-0.139D+00
 Coeff:     -0.152D+00 0.248D+00 0.478D+00 0.525D+00
 Gap=     0.113 Goal=   None    Shift=    0.000
 Gap=     0.119 Goal=   None    Shift=    0.000
 RMSDP=2.12D-05 MaxDP=1.12D-03 DE=-2.28D-05 OVMax= 1.78D-03

 Cycle  11  Pass 1  IDiag  1:
 RMSU=  1.64D-05    CP:  9.14D-01  3.00D+00  8.87D-01  9.57D-01  3.00D+00
                    CP:  2.79D+00  1.96D+00  1.58D+00  1.59D+00  1.06D+00
 E= -227.774406317384     Delta-E=       -0.000000756345 Rises=F Damp=F
 DIIS: error= 1.33D-04 at cycle  11 NSaved=  11.
 NSaved=11 IEnMin=11 EnMin= -227.774406317384     IErMin=10 ErrMin= 1.13D-04
 ErrMax= 1.33D-04  0.00D+00 EMaxC= 1.00D-01 BMatC= 5.57D-06 BMatP= 4.49D-06
 IDIUse=3 WtCom= 9.99D-01 WtEn= 1.13D-03
 Coeff-Com:  0.597D-03-0.107D-02 0.922D-02 0.200D-01 0.339D-01-0.442D-01
 Coeff-Com: -0.880D-01-0.540D-01 0.537D-01 0.593D+00 0.477D+00
 Coeff-En:   0.000D+00 0.000D+00 0.000D+00 0.000D+00 0.000D+00 0.000D+00
 Coeff-En:   0.000D+00 0.000D+00 0.000D+00 0.366D+00 0.634D+00
 Coeff:      0.597D-03-0.107D-02 0.921D-02 0.200D-01 0.338D-01-0.442D-01
 Coeff:     -0.879D-01-0.539D-01 0.536D-01 0.593D+00 0.477D+00
 Gap=     0.113 Goal=   None    Shift=    0.000
 Gap=     0.119 Goal=   None    Shift=    0.000
 RMSDP=1.39D-05 MaxDP=7.17D-04 DE=-7.56D-07 OVMax= 1.10D-03

 Cycle  12  Pass 1  IDiag  1:
 RMSU=  5.55D-06    CP:  9.14D-01  3.00D+00  8.87D-01  9.59D-01  3.00D+00
                    CP:  2.82D+00  1.99D+00  1.64D+00  1.68D+00  1.15D+00
                    CP:  5.56D-01
 E= -227.774408182501     Delta-E=       -0.000001865117 Rises=F Damp=F
 DIIS: error= 1.56D-05 at cycle  12 NSaved=  12.
 NSaved=12 IEnMin=12 EnMin= -227.774408182501     IErMin=12 ErrMin= 1.56D-05
 ErrMax= 1.56D-05  0.00D+00 EMaxC= 1.00D-01 BMatC= 6.03D-08 BMatP= 4.49D-06
 IDIUse=1 WtCom= 1.00D+00 WtEn= 0.00D+00
 Coeff-Com:  0.769D-02-0.103D-01-0.329D-02-0.271D-02 0.902D-02 0.158D-01
 Coeff-Com:  0.141D-01-0.413D-01-0.689D-01-0.459D-01 0.223D-01 0.110D+01
 Coeff:      0.769D-02-0.103D-01-0.329D-02-0.271D-02 0.902D-02 0.158D-01
 Coeff:      0.141D-01-0.413D-01-0.689D-01-0.459D-01 0.223D-01 0.110D+01
 Gap=     0.113 Goal=   None    Shift=    0.000
 Gap=     0.119 Goal=   None    Shift=    0.000
 RMSDP=4.57D-06 MaxDP=2.60D-04 DE=-1.87D-06 OVMax= 3.12D-04

 Cycle  13  Pass 1  IDiag  1:
 RMSU=  2.71D-06    CP:  9.14D-01  3.00D+00  8.87D-01  9.60D-01  3.00D+00
                    CP:  2.83D+00  2.00D+00  1.65D+00  1.72D+00  1.18D+00
                    CP:  6.12D-01  1.31D+00
 E= -227.774408266138     Delta-E=       -0.000000083637 Rises=F Damp=F
 DIIS: error= 3.79D-06 at cycle  13 NSaved=  13.
 NSaved=13 IEnMin=13 EnMin= -227.774408266138     IErMin=13 ErrMin= 3.79D-06
 ErrMax= 3.79D-06  0.00D+00 EMaxC= 1.00D-01 BMatC= 5.07D-09 BMatP= 6.03D-08
 IDIUse=1 WtCom= 1.00D+00 WtEn= 0.00D+00
 Coeff-Com:  0.671D-05 0.100D-04-0.839D-03-0.202D-02-0.288D-02 0.410D-02
 Coeff-Com:  0.772D-02 0.563D-02-0.465D-02-0.576D-01-0.514D-01-0.367D-01
 Coeff-Com:  0.114D+01
 Coeff:      0.671D-05 0.100D-04-0.839D-03-0.202D-02-0.288D-02 0.410D-02
 Coeff:      0.772D-02 0.563D-02-0.465D-02-0.576D-01-0.514D-01-0.367D-01
 Coeff:      0.114D+01
 Gap=     0.113 Goal=   None    Shift=    0.000
 Gap=     0.119 Goal=   None    Shift=    0.000
 RMSDP=1.60D-06 MaxDP=7.75D-05 DE=-8.36D-08 OVMax= 1.17D-04

 Cycle  14  Pass 1  IDiag  1:
 RMSU=  7.87D-07    CP:  9.14D-01  3.00D+00  8.87D-01  9.60D-01  3.00D+00
                    CP:  2.83D+00  2.00D+00  1.65D+00  1.72D+00  1.19D+00
                    CP:  6.26D-01  1.47D+00  1.32D+00
 E= -227.774408276609     Delta-E=       -0.000000010471 Rises=F Damp=F
 DIIS: error= 1.92D-06 at cycle  14 NSaved=  14.
 NSaved=14 IEnMin=14 EnMin= -227.774408276609     IErMin=14 ErrMin= 1.92D-06
 ErrMax= 1.92D-06  0.00D+00 EMaxC= 1.00D-01 BMatC= 1.34D-09 BMatP= 5.07D-09
 IDIUse=1 WtCom= 1.00D+00 WtEn= 0.00D+00
 Coeff-Com: -0.353D-03 0.486D-03-0.875D-04-0.401D-03-0.111D-02 0.416D-03
 Coeff-Com:  0.147D-02 0.346D-02 0.203D-02-0.111D-01-0.152D-01-0.665D-01
 Coeff-Com:  0.260D+00 0.827D+00
 Coeff:     -0.353D-03 0.486D-03-0.875D-04-0.401D-03-0.111D-02 0.416D-03
 Coeff:      0.147D-02 0.346D-02 0.203D-02-0.111D-01-0.152D-01-0.665D-01
 Coeff:      0.260D+00 0.827D+00
 Gap=     0.113 Goal=   None    Shift=    0.000
 Gap=     0.119 Goal=   None    Shift=    0.000
 RMSDP=6.50D-07 MaxDP=3.91D-05 DE=-1.05D-08 OVMax= 5.76D-05

 Cycle  15  Pass 1  IDiag  1:
 RMSU=  3.81D-07    CP:  9.14D-01  3.00D+00  8.87D-01  9.60D-01  3.00D+00
                    CP:  2.83D+00  2.00D+00  1.65D+00  1.72D+00  1.18D+00
                    CP:  6.29D-01  1.50D+00  1.42D+00  1.49D+00
 E= -227.774408279319     Delta-E=       -0.000000002710 Rises=F Damp=F
 DIIS: error= 1.72D-06 at cycle  15 NSaved=  15.
 NSaved=15 IEnMin=15 EnMin= -227.774408279319     IErMin=15 ErrMin= 1.72D-06
 ErrMax= 1.72D-06  0.00D+00 EMaxC= 1.00D-01 BMatC= 1.20D-09 BMatP= 1.34D-09
 IDIUse=1 WtCom= 1.00D+00 WtEn= 0.00D+00
 Coeff-Com: -0.239D-03 0.325D-03 0.161D-03 0.263D-03 0.383D-04-0.796D-03
 Coeff-Com: -0.107D-02 0.824D-03 0.256D-02 0.889D-02 0.299D-02-0.334D-01
 Coeff-Com: -0.150D+00 0.555D+00 0.614D+00
 Coeff:     -0.239D-03 0.325D-03 0.161D-03 0.263D-03 0.383D-04-0.796D-03
 Coeff:     -0.107D-02 0.824D-03 0.256D-02 0.889D-02 0.299D-02-0.334D-01
 Coeff:     -0.150D+00 0.555D+00 0.614D+00
 Gap=     0.113 Goal=   None    Shift=    0.000
 Gap=     0.119 Goal=   None    Shift=    0.000
 RMSDP=5.41D-07 MaxDP=3.20D-05 DE=-2.71D-09 OVMax= 4.95D-05

 Cycle  16  Pass 1  IDiag  1:
 RMSU=  2.06D-07    CP:  9.14D-01  3.00D+00  8.87D-01  9.60D-01  3.00D+00
                    CP:  2.83D+00  2.00D+00  1.65D+00  1.72D+00  1.18D+00
                    CP:  6.31D-01  1.52D+00  1.49D+00  1.98D+00  1.56D+00
 E= -227.774408281495     Delta-E=       -0.000000002176 Rises=F Damp=F
 DIIS: error= 1.58D-06 at cycle  16 NSaved=  16.
 NSaved=16 IEnMin=16 EnMin= -227.774408281495     IErMin=16 ErrMin= 1.58D-06
 ErrMax= 1.58D-06  0.00D+00 EMaxC= 1.00D-01 BMatC= 5.71D-10 BMatP= 1.20D-09
 IDIUse=1 WtCom= 1.00D+00 WtEn= 0.00D+00
 Coeff-Com:  0.118D-03-0.167D-03 0.739D-04 0.219D-03 0.529D-03-0.345D-03
 Coeff-Com: -0.958D-03-0.148D-02-0.688D-03 0.797D-02 0.610D-02 0.311D-01
 Coeff-Com: -0.159D+00-0.363D+00 0.871D-01 0.139D+01
 Coeff:      0.118D-03-0.167D-03 0.739D-04 0.219D-03 0.529D-03-0.345D-03
 Coeff:     -0.958D-03-0.148D-02-0.688D-03 0.797D-02 0.610D-02 0.311D-01
 Coeff:     -0.159D+00-0.363D+00 0.871D-01 0.139D+01
 Gap=     0.113 Goal=   None    Shift=    0.000
 Gap=     0.119 Goal=   None    Shift=    0.000
 RMSDP=1.01D-06 MaxDP=5.68D-05 DE=-2.18D-09 OVMax= 9.41D-05

 Cycle  17  Pass 1  IDiag  1:
 RMSU=  1.80D-07    CP:  9.14D-01  3.00D+00  8.87D-01  9.60D-01  3.00D+00
                    CP:  2.83D+00  2.00D+00  1.65D+00  1.72D+00  1.18D+00
                    CP:  6.36D-01  1.55D+00  1.59D+00  2.91D+00  2.91D+00
                    CP:  2.21D+00
 E= -227.774408284902     Delta-E=       -0.000000003407 Rises=F Damp=F
 DIIS: error= 1.27D-06 at cycle  17 NSaved=  17.
 NSaved=17 IEnMin=17 EnMin= -227.774408284902     IErMin=17 ErrMin= 1.27D-06
 ErrMax= 1.27D-06  0.00D+00 EMaxC= 1.00D-01 BMatC= 3.61D-10 BMatP= 5.71D-10
 IDIUse=1 WtCom= 1.00D+00 WtEn= 0.00D+00
 Coeff-Com:  0.201D-03-0.268D-03-0.169D-03-0.283D-03-0.200D-03 0.844D-03
 Coeff-Com:  0.131D-02-0.370D-03-0.260D-02-0.104D-01-0.822D-02 0.212D-01
 Coeff-Com:  0.237D+00-0.382D+00-0.736D+00-0.864D+00 0.274D+01
 Coeff:      0.201D-03-0.268D-03-0.169D-03-0.283D-03-0.200D-03 0.844D-03
 Coeff:      0.131D-02-0.370D-03-0.260D-02-0.104D-01-0.822D-02 0.212D-01
 Coeff:      0.237D+00-0.382D+00-0.736D+00-0.864D+00 0.274D+01
 Gap=     0.113 Goal=   None    Shift=    0.000
 Gap=     0.119 Goal=   None    Shift=    0.000
 RMSDP=2.31D-06 MaxDP=1.29D-04 DE=-3.41D-09 OVMax= 2.16D-04

 Cycle  18  Pass 1  IDiag  1:
 RMSU=  2.04D-06    CP:  9.14D-01  3.00D+00  8.87D-01  9.60D-01  3.00D+00
                    CP:  2.83D+00  2.00D+00  1.66D+00  1.72D+00  1.18D+00
                    CP:  6.45D-01  1.61D+00  1.81D+00  3.00D+00  3.00D+00
                    CP:  3.00D+00  3.00D+00
 E= -227.774408290041     Delta-E=       -0.000000005138 Rises=F Damp=F
 DIIS: error= 5.94D-07 at cycle  18 NSaved=  18.
 NSaved=18 IEnMin=18 EnMin= -227.774408290041     IErMin=18 ErrMin= 5.94D-07
 ErrMax= 5.94D-07  0.00D+00 EMaxC= 1.00D-01 BMatC= 9.45D-11 BMatP= 3.61D-10
 IDIUse=1 WtCom= 1.00D+00 WtEn= 0.00D+00
 Coeff-Com:  0.752D-05-0.575D-05-0.736D-04-0.146D-03-0.300D-03 0.364D-03
 Coeff-Com:  0.821D-03 0.666D-03-0.255D-03-0.563D-02-0.531D-02-0.119D-01
 Coeff-Com:  0.130D+00 0.117D+00-0.190D+00-0.973D+00 0.493D+00 0.145D+01
 Coeff:      0.752D-05-0.575D-05-0.736D-04-0.146D-03-0.300D-03 0.364D-03
 Coeff:      0.821D-03 0.666D-03-0.255D-03-0.563D-02-0.531D-02-0.119D-01
 Coeff:      0.130D+00 0.117D+00-0.190D+00-0.973D+00 0.493D+00 0.145D+01
 Gap=     0.113 Goal=   None    Shift=    0.000
 Gap=     0.119 Goal=   None    Shift=    0.000
 RMSDP=1.78D-06 MaxDP=9.93D-05 DE=-5.14D-09 OVMax= 1.67D-04

 Cycle  19  Pass 1  IDiag  1:
 RMSU=  3.58D-07    CP:  9.14D-01  3.00D+00  8.87D-01  9.60D-01  3.00D+00
                    CP:  2.83D+00  2.00D+00  1.66D+00  1.72D+00  1.19D+00
                    CP:  6.52D-01  1.65D+00  1.98D+00  3.00D+00  3.00D+00
                    CP:  3.00D+00  3.00D+00  1.82D+00
 E= -227.774408291472     Delta-E=       -0.000000001431 Rises=F Damp=F
 DIIS: error= 9.50D-08 at cycle  19 NSaved=  19.
 NSaved=19 IEnMin=19 EnMin= -227.774408291472     IErMin=19 ErrMin= 9.50D-08
 ErrMax= 9.50D-08  0.00D+00 EMaxC= 1.00D-01 BMatC= 5.75D-12 BMatP= 9.45D-11
 IDIUse=1 WtCom= 1.00D+00 WtEn= 0.00D+00
 Coeff-Com: -0.148D-04 0.196D-04 0.230D-04 0.325D-04 0.464D-04-0.109D-03
 Coeff-Com: -0.153D-03 0.195D-04 0.322D-03 0.155D-02 0.113D-02-0.160D-02
 Coeff-Com: -0.350D-01 0.390D-01 0.114D+00 0.152D+00-0.399D+00-0.858D-02
 Coeff-Com:  0.114D+01
 Coeff:     -0.148D-04 0.196D-04 0.230D-04 0.325D-04 0.464D-04-0.109D-03
 Coeff:     -0.153D-03 0.195D-04 0.322D-03 0.155D-02 0.113D-02-0.160D-02
 Coeff:     -0.350D-01 0.390D-01 0.114D+00 0.152D+00-0.399D+00-0.858D-02
 Coeff:      0.114D+01
 Gap=     0.113 Goal=   None    Shift=    0.000
 Gap=     0.119 Goal=   None    Shift=    0.000
 RMSDP=2.31D-07 MaxDP=1.40D-05 DE=-1.43D-09 OVMax= 2.15D-05

 Cycle  20  Pass 1  IDiag  1:
 RMSU=  2.65D-08    CP:  9.14D-01  3.00D+00  8.87D-01  9.60D-01  3.00D+00
                    CP:  2.83D+00  2.00D+00  1.66D+00  1.72D+00  1.18D+00
                    CP:  6.52D-01  1.66D+00  2.00D+00  3.00D+00  3.00D+00
                    CP:  3.00D+00  3.00D+00  1.92D+00  1.14D+00
 E= -227.774408291494     Delta-E=       -0.000000000022 Rises=F Damp=F
 DIIS: error= 5.15D-08 at cycle  20 NSaved=  20.
 NSaved=20 IEnMin=20 EnMin= -227.774408291494     IErMin=20 ErrMin= 5.15D-08
 ErrMax= 5.15D-08  0.00D+00 EMaxC= 1.00D-01 BMatC= 8.75D-13 BMatP= 5.75D-12
 IDIUse=1 WtCom= 1.00D+00 WtEn= 0.00D+00
 Coeff-Com: -0.192D-05 0.240D-05-0.304D-05-0.742D-05-0.475D-05-0.529D-05
 Coeff-Com:  0.283D-04-0.245D-04-0.548D-04-0.297D-03-0.212D-03 0.114D-02
 Coeff-Com:  0.451D-02-0.187D-01-0.147D-01-0.181D-02 0.868D-01-0.737D-01
 Coeff-Com: -0.270D+00 0.129D+01
 Coeff:     -0.192D-05 0.240D-05-0.304D-05-0.742D-05-0.475D-05-0.529D-05
 Coeff:      0.283D-04-0.245D-04-0.548D-04-0.297D-03-0.212D-03 0.114D-02
 Coeff:      0.451D-02-0.187D-01-0.147D-01-0.181D-02 0.868D-01-0.737D-01
 Coeff:     -0.270D+00 0.129D+01
 Gap=     0.113 Goal=   None    Shift=    0.000
 Gap=     0.119 Goal=   None    Shift=    0.000
 RMSDP=2.80D-08 MaxDP=1.85D-06 DE=-2.23D-11 OVMax= 2.98D-06

 Cycle  21  Pass 1  IDiag  1:
 Restarting incremental Fock formation.
 E= -227.774408291508     Delta-E=       -0.000000000014 Rises=F Damp=F
 DIIS: error= 4.69D-08 at cycle  21 NSaved=  20.
 NSaved=20 IEnMin=20 EnMin= -227.774408291508     IErMin=20 ErrMin= 4.69D-08
 ErrMax= 4.69D-08  0.00D+00 EMaxC= 1.00D-01 BMatC= 5.40D-13 BMatP= 8.75D-13
 IDIUse=1 WtCom= 1.00D+00 WtEn= 0.00D+00
 Coeff-Com:  0.128D-06 0.231D-05 0.701D-05 0.142D-05-0.134D-04 0.112D-05
 Coeff-Com:  0.167D-04 0.550D-04 0.144D-03 0.576D-04-0.992D-03-0.495D-03
 Coeff-Com:  0.108D-01 0.688D-02-0.266D-01-0.186D-01 0.580D-01 0.664D-01
 Coeff-Com: -0.100D+01 0.191D+01
 Coeff:      0.128D-06 0.231D-05 0.701D-05 0.142D-05-0.134D-04 0.112D-05
 Coeff:      0.167D-04 0.550D-04 0.144D-03 0.576D-04-0.992D-03-0.495D-03
 Coeff:      0.108D-01 0.688D-02-0.266D-01-0.186D-01 0.580D-01 0.664D-01
 Coeff:     -0.100D+01 0.191D+01
 Gap=     0.113 Goal=   None    Shift=    0.000
 Gap=     0.119 Goal=   None    Shift=    0.000
 RMSDP=3.17D-08 MaxDP=1.76D-06 DE=-1.44D-11 OVMax= 3.56D-06

 Cycle  22  Pass 1  IDiag  1:
 RMSU=  3.17D-08    CP:  1.00D+00
 E= -227.774408291510     Delta-E=       -0.000000000002 Rises=F Damp=F
 DIIS: error= 4.24D-08 at cycle  22 NSaved=  20.
 NSaved=20 IEnMin=20 EnMin= -227.774408291510     IErMin=20 ErrMin= 4.24D-08
 ErrMax= 4.24D-08  0.00D+00 EMaxC= 1.00D-01 BMatC= 4.02D-13 BMatP= 5.40D-13
 IDIUse=1 WtCom= 1.00D+00 WtEn= 0.00D+00
 Large coefficients: NSaved= 20 BigCof=    0.00 CofMax=   10.00 Det=-7.31D-15
 Inversion failed.  Reducing to 19 matrices.
 Large coefficients: NSaved= 19 BigCof=    0.00 CofMax=   10.00 Det=-7.90D-15
 Inversion failed.  Reducing to 18 matrices.
 Coeff-Com: -0.477D-05-0.224D-05 0.131D-04 0.110D-04 0.217D-04 0.274D-04
 Coeff-Com: -0.542D-05-0.397D-03-0.201D-03 0.647D-02 0.212D-02-0.783D-02
 Coeff-Com: -0.225D-01 0.389D-01 0.747D-01-0.526D+00-0.870D+00 0.230D+01
 Coeff:     -0.477D-05-0.224D-05 0.131D-04 0.110D-04 0.217D-04 0.274D-04
 Coeff:     -0.542D-05-0.397D-03-0.201D-03 0.647D-02 0.212D-02-0.783D-02
 Coeff:     -0.225D-01 0.389D-01 0.747D-01-0.526D+00-0.870D+00 0.230D+01
 Gap=     0.113 Goal=   None    Shift=    0.000
 Gap=     0.119 Goal=   None    Shift=    0.000
 RMSDP=5.82D-08 MaxDP=3.14D-06 DE=-1.65D-12 OVMax= 6.66D-06

 Cycle  23  Pass 1  IDiag  1:
 RMSU=  6.09D-09    CP:  1.00D+00  2.83D+00
 E= -227.774408291513     Delta-E=       -0.000000000003 Rises=F Damp=F
 DIIS: error= 3.13D-08 at cycle  23 NSaved=  19.
 NSaved=19 IEnMin=19 EnMin= -227.774408291513     IErMin=19 ErrMin= 3.13D-08
 ErrMax= 3.13D-08  0.00D+00 EMaxC= 1.00D-01 BMatC= 2.75D-13 BMatP= 4.02D-13
 IDIUse=1 WtCom= 1.00D+00 WtEn= 0.00D+00
 Coeff-Com:  0.903D-05-0.240D-05-0.128D-04-0.313D-04-0.224D-04 0.837D-04
 Coeff-Com:  0.991D-04 0.542D-03-0.344D-02-0.112D-02 0.588D-02 0.398D-01
 Coeff-Com: -0.459D-01-0.266D-01 0.117D+00 0.519D+00-0.182D+01 0.561D+00
 Coeff-Com:  0.166D+01
 Coeff:      0.903D-05-0.240D-05-0.128D-04-0.313D-04-0.224D-04 0.837D-04
 Coeff:      0.991D-04 0.542D-03-0.344D-02-0.112D-02 0.588D-02 0.398D-01
 Coeff:     -0.459D-01-0.266D-01 0.117D+00 0.519D+00-0.182D+01 0.561D+00
 Coeff:      0.166D+01
 Gap=     0.113 Goal=   None    Shift=    0.000
 Gap=     0.119 Goal=   None    Shift=    0.000
 RMSDP=6.74D-08 MaxDP=3.52D-06 DE=-3.35D-12 OVMax= 7.79D-06

 Cycle  24  Pass 1  IDiag  1:
 RMSU=  6.13D-08    CP:  1.00D+00  3.00D+00  2.56D+00
 E= -227.774408291518     Delta-E=       -0.000000000005 Rises=F Damp=F
 DIIS: error= 2.09D-08 at cycle  24 NSaved=  20.
 NSaved=20 IEnMin=20 EnMin= -227.774408291518     IErMin=20 ErrMin= 2.09D-08
 ErrMax= 2.09D-08  0.00D+00 EMaxC= 1.00D-01 BMatC= 1.36D-13 BMatP= 2.75D-13
 IDIUse=1 WtCom= 1.00D+00 WtEn= 0.00D+00
 Large coefficients: NSaved= 20 BigCof=    0.00 CofMax=   10.00 Det=-6.16D-15
 Inversion failed.  Reducing to 19 matrices.
 Large coefficients: NSaved= 19 BigCof=    0.00 CofMax=   10.00 Det=-7.47D-15
 Inversion failed.  Reducing to 18 matrices.
 Large coefficients: NSaved= 18 BigCof=    0.00 CofMax=   10.00 Det=-7.48D-15
 Inversion failed.  Reducing to 17 matrices.
 Large coefficients: NSaved= 17 BigCof=    0.00 CofMax=   10.00 Det=-7.57D-15
 Inversion failed.  Reducing to 16 matrices.
 Large coefficients: NSaved= 16 BigCof=    0.00 CofMax=   10.00 Det=-7.67D-15
 Inversion failed.  Reducing to 15 matrices.
 Coeff-Com: -0.150D-04-0.779D-05-0.287D-04 0.128D-02-0.180D-02-0.123D-01
 Coeff-Com: -0.945D-02 0.428D-01-0.142D-01-0.147D+00 0.218D+00 0.127D+01
 Coeff-Com: -0.193D+01-0.301D+00 0.188D+01
 Coeff:     -0.150D-04-0.779D-05-0.287D-04 0.128D-02-0.180D-02-0.123D-01
 Coeff:     -0.945D-02 0.428D-01-0.142D-01-0.147D+00 0.218D+00 0.127D+01
 Coeff:     -0.193D+01-0.301D+00 0.188D+01
 Gap=     0.113 Goal=   None    Shift=    0.000
 Gap=     0.119 Goal=   None    Shift=    0.000
 RMSDP=5.59D-08 MaxDP=2.83D-06 DE=-4.77D-12 OVMax= 6.55D-06

 Cycle  25  Pass 1  IDiag  1:
 RMSU=  9.10D-09    CP:  1.00D+00  3.00D+00  3.00D+00  1.89D+00
 E= -227.774408291518     Delta-E=        0.000000000001 Rises=F Damp=F
 DIIS: error= 1.52D-08 at cycle  25 NSaved=  16.
 NSaved=16 IEnMin=15 EnMin= -227.774408291518     IErMin=16 ErrMin= 1.52D-08
 ErrMax= 1.52D-08  0.00D+00 EMaxC= 1.00D-01 BMatC= 7.45D-14 BMatP= 1.36D-13
 IDIUse=1 WtCom= 1.00D+00 WtEn= 0.00D+00
 Large coefficients: NSaved= 16 BigCof=    0.00 CofMax=   10.00 Det=-6.61D-15
 Inversion failed.  Reducing to 15 matrices.
 Coeff-Com:  0.327D-05-0.169D-04 0.158D-03 0.599D-03-0.568D-02 0.878D-03
 Coeff-Com:  0.118D-01-0.802D-02-0.456D-01 0.370D-01 0.664D+00-0.104D+01
 Coeff-Com: -0.231D+00 0.674D+00 0.940D+00
 Coeff:      0.327D-05-0.169D-04 0.158D-03 0.599D-03-0.568D-02 0.878D-03
 Coeff:      0.118D-01-0.802D-02-0.456D-01 0.370D-01 0.664D+00-0.104D+01
 Coeff:     -0.231D+00 0.674D+00 0.940D+00
 Gap=     0.113 Goal=   None    Shift=    0.000
 Gap=     0.119 Goal=   None    Shift=    0.000
 RMSDP=4.17D-08 MaxDP=2.08D-06 DE= 6.25D-13 OVMax= 4.92D-06

 Cycle  26  Pass 1  IDiag  1:
 RMSU=  3.89D-09    CP:  1.00D+00  3.00D+00  3.00D+00  2.56D+00  1.84D+00
 E= -227.774408291525     Delta-E=       -0.000000000007 Rises=F Damp=F
 DIIS: error= 2.11D-08 at cycle  26 NSaved=  16.
 NSaved=16 IEnMin=16 EnMin= -227.774408291525     IErMin=15 ErrMin= 1.52D-08
 ErrMax= 2.11D-08  0.00D+00 EMaxC= 1.00D-01 BMatC= 1.08D-13 BMatP= 7.45D-14
 IDIUse=1 WtCom= 1.00D+00 WtEn= 0.00D+00
 Large coefficients: NSaved= 16 BigCof=    0.00 CofMax=   10.00 Det=-4.23D-15
 Inversion failed.  Reducing to 15 matrices.
 Coeff-Com:  0.747D-04-0.585D-03 0.175D-02 0.126D-02 0.349D-02-0.107D-01
 Coeff-Com:  0.208D-02 0.391D-01-0.126D+00-0.763D-01 0.644D+00-0.375D+00
 Coeff-Com: -0.102D+01 0.115D+01 0.764D+00
 Coeff:      0.747D-04-0.585D-03 0.175D-02 0.126D-02 0.349D-02-0.107D-01
 Coeff:      0.208D-02 0.391D-01-0.126D+00-0.763D-01 0.644D+00-0.375D+00
 Coeff:     -0.102D+01 0.115D+01 0.764D+00
 Gap=     0.113 Goal=   None    Shift=    0.000
 Gap=     0.119 Goal=   None    Shift=    0.000
 RMSDP=1.49D-08 MaxDP=8.01D-07 DE=-7.22D-12 OVMax= 1.79D-06

 Cycle  27  Pass 1  IDiag  1:
 RMSU=  2.37D-09    CP:  1.00D+00  3.00D+00  3.00D+00  2.77D+00  2.61D+00
                    CP:  8.16D-01
 E= -227.774408291524     Delta-E=        0.000000000001 Rises=F Damp=F
 DIIS: error= 3.67D-09 at cycle  27 NSaved=  16.
 NSaved=16 IEnMin=15 EnMin= -227.774408291525     IErMin=16 ErrMin= 3.67D-09
 ErrMax= 3.67D-09  0.00D+00 EMaxC= 1.00D-01 BMatC= 7.22D-15 BMatP= 7.45D-14
 IDIUse=1 WtCom= 1.00D+00 WtEn= 0.00D+00
 Large coefficients: NSaved= 16 BigCof=    0.00 CofMax=   10.00 Det=-4.20D-15
 Inversion failed.  Reducing to 15 matrices.
 Coeff-Com: -0.280D-04 0.970D-03 0.352D-03-0.796D-03-0.504D-02 0.748D-02
 Coeff-Com:  0.263D-01-0.141D+00-0.108D+00 0.510D+00-0.145D+00-0.490D+00
 Coeff-Com:  0.175D+00 0.255D+00 0.914D+00
 Coeff:     -0.280D-04 0.970D-03 0.352D-03-0.796D-03-0.504D-02 0.748D-02
 Coeff:      0.263D-01-0.141D+00-0.108D+00 0.510D+00-0.145D+00-0.490D+00
 Coeff:      0.175D+00 0.255D+00 0.914D+00
 Gap=     0.113 Goal=   None    Shift=    0.000
 Gap=     0.119 Goal=   None    Shift=    0.000
 RMSDP=7.55D-09 MaxDP=4.27D-07 DE= 6.25D-13 OVMax= 8.95D-07

 SCF Done:  E(UB3LYP) =  -227.774408292     A.U. after   27 cycles
            NFock= 27  Conv=0.76D-08     -V/T= 2.0042
 <Sx>= 0.0000 <Sy>= 0.0000 <Sz>= 0.5000 <S**2>= 0.9334 S= 0.5878
 <L.S>= 0.000000000000E+00
 KE= 2.268174531339D+02 PE=-8.556459363144D+02 EE= 2.323822049667D+02
 Annihilation of the first spin contaminant:
 S**2 before annihilation     0.9334,   after     0.7725
 Leave Link  502 at Tue Nov  1 19:51:15 2016, MaxMem=    33554432 cpu:      1542.0
 (Enter /home/proyectos/fulerenos/M3C-v2.0/M3C-deps_CCC/g09-AM64L-G09RevC.01/l801.exe)
 DoSCS=F DFT=T ScalE2(SS,OS)=  1.000000  1.000000
 Range of M.O.s used for correlation:     1   234
 NBasis=   234 NAE=    18 NBE=    17 NFC=     0 NFV=     0
 NROrb=    234 NOA=    18 NOB=    17 NVA=   216 NVB=   217

 **** Warning!!: The largest alpha MO coefficient is  0.10040582D+03


 **** Warning!!: The largest beta MO coefficient is  0.10108885D+03

 Leave Link  801 at Tue Nov  1 19:51:15 2016, MaxMem=    33554432 cpu:         0.1
 (Enter /home/proyectos/fulerenos/M3C-v2.0/M3C-deps_CCC/g09-AM64L-G09RevC.01/l1101.exe)
 Using compressed storage, NAtomX=     6.
 Will process      7 centers per pass.
 Leave Link 1101 at Tue Nov  1 19:51:16 2016, MaxMem=    33554432 cpu:         1.2
 (Enter /home/proyectos/fulerenos/M3C-v2.0/M3C-deps_CCC/g09-AM64L-G09RevC.01/l1102.exe)
 Symmetrizing basis deriv contribution to polar:
 IMax=3 JMax=2 DiffMx= 0.00D+00
 Leave Link 1102 at Tue Nov  1 19:51:16 2016, MaxMem=    33554432 cpu:         0.1
 (Enter /home/proyectos/fulerenos/M3C-v2.0/M3C-deps_CCC/g09-AM64L-G09RevC.01/l1110.exe)
 Forming Gx(P) for the SCF density, NAtomX=     6.
 Integral derivatives from FoFJK, PRISM(SPDF).
 Do as many integral derivatives as possible in FoFJK.
 G2DrvN: MDV=      33554280.
 G2DrvN: will do     7 centers at a time, making    1 passes.
 Calling FoFCou, ICntrl=  3107 FMM=F I1Cent=   0 AccDes= 0.00D+00.
 FoFJK:  IHMeth= 1 ICntrl=    3107 DoSepK=F KAlg= 0 I1Cent=   0 FoldK=F
 IRaf=         0 NMat=   1 IRICut=       1 DoRegI=T DoRafI=F ISym2E= 0.
 FoFCou: FMM=F IPFlag=           0 FMFlag=      100000 FMFlg1=           0
         NFxFlg=           0 DoJE=F BraDBF=F KetDBF=F FulRan=T
         wScrn=  0.000000 ICntrl=    3107 IOpCl=  1 I1Cent=           0 NGrid=           0
         NMat0=    1 NMatS0=      1 NMatT0=    0 NMatD0=    1 NMtDS0=    0 NMtDT0=    0
 Symmetry not used in FoFCou.
 End of G2Drv F.D. properties file   721 does not exist.
 End of G2Drv F.D. properties file   722 does not exist.
 End of G2Drv F.D. properties file   788 does not exist.
 Leave Link 1110 at Tue Nov  1 19:52:40 2016, MaxMem=    33554432 cpu:       336.8
 (Enter /home/proyectos/fulerenos/M3C-v2.0/M3C-deps_CCC/g09-AM64L-G09RevC.01/l1002.exe)
 Minotr:  UHF open shell wavefunction.
          IDoAtm=111111
          Direct CPHF calculation.
          Differentiating once with respect to electric field.
                with respect to dipole field.
          Differentiating once with respect to nuclear coordinates.
          Requested convergence is 1.0D-08 RMS, and 1.0D-07 maximum.
          Secondary convergence is 1.0D-12 RMS, and 1.0D-12 maximum.
          NewPWx=T KeepS1=F KeepF1=F KeepIn=T MapXYZ=F SortEE=F KeepMc=T.
          MDV=      33553900 using IRadAn=       2.
 Generate precomputed XC quadrature information.
          Solving linear equations simultaneously, MaxMat=       0.
 FoFJK:  IHMeth= 1 ICntrl=       0 DoSepK=F KAlg= 0 I1Cent=   0 FoldK=F
 IRaf= 990000000 NMat=  21 IRICut=      52 DoRegI=T DoRafI=T ISym2E= 2.
 FoFCou: FMM=F IPFlag=           0 FMFlag=      100000 FMFlg1=           0
         NFxFlg=           0 DoJE=F BraDBF=F KetDBF=F FulRan=T
         wScrn=  0.000000 ICntrl=       0 IOpCl=  1 I1Cent=           0 NGrid=           0
         NMat0=   21 NMatS0=     21 NMatT0=    0 NMatD0=   21 NMtDS0=    0 NMtDT0=    0
 Integrals replicated using symmetry in FoFCou.
          There are    21 degrees of freedom in the 1st order CPHF.  IDoFFX=6 NUNeed=     3.
     18 vectors produced by pass  0 Test12= 3.61D-14 4.76D-09 XBig12= 3.15D+02 1.08D+01.
 AX will form    18 AO Fock derivatives at one time.
     18 vectors produced by pass  1 Test12= 3.61D-14 4.76D-09 XBig12= 1.70D+02 3.80D+00.
     18 vectors produced by pass  2 Test12= 3.61D-14 4.76D-09 XBig12= 9.63D+00 1.13D+00.
     18 vectors produced by pass  3 Test12= 3.61D-14 4.76D-09 XBig12= 5.56D-01 3.33D-01.
     18 vectors produced by pass  4 Test12= 3.61D-14 4.76D-09 XBig12= 2.16D-02 4.96D-02.
     18 vectors produced by pass  5 Test12= 3.61D-14 4.76D-09 XBig12= 3.00D-04 4.14D-03.
     18 vectors produced by pass  6 Test12= 3.61D-14 4.76D-09 XBig12= 3.41D-06 5.51D-04.
     18 vectors produced by pass  7 Test12= 3.61D-14 4.76D-09 XBig12= 3.18D-08 3.85D-05.
     12 vectors produced by pass  8 Test12= 3.61D-14 4.76D-09 XBig12= 1.65D-10 2.68D-06.
      3 vectors produced by pass  9 Test12= 3.61D-14 4.76D-09 XBig12= 9.91D-13 2.14D-07.
      3 vectors produced by pass 10 Test12= 3.61D-14 4.76D-09 XBig12= 3.46D-14 4.94D-08.
      2 vectors produced by pass 11 Test12= 3.61D-14 4.76D-09 XBig12= 1.16D-15 6.40D-09.
 InvSVY:  IOpt=1 It=  1 EMax= 1.42D-14
 Solved reduced A of dimension   164 with    21 vectors.
 FullF1:  Do perturbations    1 to     3.
 Isotropic polarizability for W=    0.000000       48.11 Bohr**3.
 End of Minotr F.D. properties file   721 does not exist.
 End of Minotr F.D. properties file   722 does not exist.
 End of Minotr F.D. properties file   788 does not exist.
 Leave Link 1002 at Tue Nov  1 20:02:14 2016, MaxMem=    33554432 cpu:      2005.5
 (Enter /home/proyectos/fulerenos/M3C-v2.0/M3C-deps_CCC/g09-AM64L-G09RevC.01/l601.exe)
 Copying SCF densities to generalized density rwf, IOpCl= 1 IROHF=0.

 **********************************************************************

            Population analysis using the SCF density.

 **********************************************************************

 Orbital symmetries:
 Alpha Orbitals:
       Occupied  (A) (A) (A) (A) (A) (A) (A) (A) (A) (A) (A) (A)
                 (A) (A) (A) (A) (A) (A)
       Virtual   (A) (A) (A) (A) (A) (A) (A) (A) (A) (A) (A) (A)
                 (A) (A) (A) (A) (A) (A) (A) (A) (A) (A) (A) (A)
                 (A) (A) (A) (A) (A) (A) (A) (A) (A) (A) (A) (A)
                 (A) (A) (A) (A) (A) (A) (A) (A) (A) (A) (A) (A)
                 (A) (A) (A) (A) (A) (A) (A) (A) (A) (A) (A) (A)
                 (A) (A) (A) (A) (A) (A) (A) (A) (A) (A) (A) (A)
                 (A) (A) (A) (A) (A) (A) (A) (A) (A) (A) (A) (A)
                 (A) (A) (A) (A) (A) (A) (A) (A) (A) (A) (A) (A)
                 (A) (A) (A) (A) (A) (A) (A) (A) (A) (A) (A) (A)
                 (A) (A) (A) (A) (A) (A) (A) (A) (A) (A) (A) (A)
                 (A) (A) (A) (A) (A) (A) (A) (A) (A) (A) (A) (A)
                 (A) (A) (A) (A) (A) (A) (A) (A) (A) (A) (A) (A)
                 (A) (A) (A) (A) (A) (A) (A) (A) (A) (A) (A) (A)
                 (A) (A) (A) (A) (A) (A) (A) (A) (A) (A) (A) (A)
                 (A) (A) (A) (A) (A) (A) (A) (A) (A) (A) (A) (A)
                 (A) (A) (A) (A) (A) (A) (A) (A) (A) (A) (A) (A)
                 (A) (A) (A) (A) (A) (A) (A) (A) (A) (A) (A) (A)
                 (A) (A) (A) (A) (A) (A) (A) (A) (A) (A) (A) (A)
 Beta  Orbitals:
       Occupied  (A) (A) (A) (A) (A) (A) (A) (A) (A) (A) (A) (A)
                 (A) (A) (A) (A) (A)
       Virtual   (A) (A) (A) (A) (A) (A) (A) (A) (A) (A) (A) (A)
                 (A) (A) (A) (A) (A) (A) (A) (A) (A) (A) (A) (A)
                 (A) (A) (A) (A) (A) (A) (A) (A) (A) (A) (A) (A)
                 (A) (A) (A) (A) (A) (A) (A) (A) (A) (A) (A) (A)
                 (A) (A) (A) (A) (A) (A) (A) (A) (A) (A) (A) (A)
                 (A) (A) (A) (A) (A) (A) (A) (A) (A) (A) (A) (A)
                 (A) (A) (A) (A) (A) (A) (A) (A) (A) (A) (A) (A)
                 (A) (A) (A) (A) (A) (A) (A) (A) (A) (A) (A) (A)
                 (A) (A) (A) (A) (A) (A) (A) (A) (A) (A) (A) (A)
                 (A) (A) (A) (A) (A) (A) (A) (A) (A) (A) (A) (A)
                 (A) (A) (A) (A) (A) (A) (A) (A) (A) (A) (A) (A)
                 (A) (A) (A) (A) (A) (A) (A) (A) (A) (A) (A) (A)
                 (A) (A) (A) (A) (A) (A) (A) (A) (A) (A) (A) (A)
                 (A) (A) (A) (A) (A) (A) (A) (A) (A) (A) (A) (A)
                 (A) (A) (A) (A) (A) (A) (A) (A) (A) (A) (A) (A)
                 (A) (A) (A) (A) (A) (A) (A) (A) (A) (A) (A) (A)
                 (A) (A) (A) (A) (A) (A) (A) (A) (A) (A) (A) (A)
                 (A) (A) (A) (A) (A) (A) (A) (A) (A) (A) (A) (A)
                 (A)
 The electronic state is 2-A.
 Alpha  occ. eigenvalues --  -10.57026 -10.57008 -10.56544 -10.56528 -10.56485
 Alpha  occ. eigenvalues --  -10.56466  -1.36580  -1.10403  -0.98797  -0.92996
 Alpha  occ. eigenvalues --   -0.80253  -0.71917  -0.70683  -0.67192  -0.65740
 Alpha  occ. eigenvalues --   -0.62806  -0.55969  -0.53996
 Alpha virt. eigenvalues --   -0.42652  -0.42100  -0.38933  -0.23049  -0.22125
 Alpha virt. eigenvalues --   -0.15594  -0.13984  -0.12629  -0.09781  -0.08622
 Alpha virt. eigenvalues --   -0.07850  -0.07290  -0.07178  -0.06512  -0.05812
 Alpha virt. eigenvalues --   -0.05407  -0.04220  -0.01090  -0.00835  -0.00559
 Alpha virt. eigenvalues --   -0.00412  -0.00130   0.00259   0.01123   0.01375
 Alpha virt. eigenvalues --    0.01602   0.05528   0.05779   0.06521   0.07034
 Alpha virt. eigenvalues --    0.07194   0.07665   0.07837   0.08609   0.11871
 Alpha virt. eigenvalues --    0.15520   0.19140   0.19516   0.19777   0.20372
 Alpha virt. eigenvalues --    0.21653   0.21868   0.23131   0.25286   0.27447
 Alpha virt. eigenvalues --    0.28840   0.29137   0.30651   0.31917   0.32362
 Alpha virt. eigenvalues --    0.34775   0.35535   0.40531   0.41998   0.42444
 Alpha virt. eigenvalues --    0.42574   0.42710   0.42840   0.44285   0.45327
 Alpha virt. eigenvalues --    0.45752   0.45969   0.47790   0.48028   0.48431
 Alpha virt. eigenvalues --    0.48787   0.49479   0.50270   0.51874   0.66192
 Alpha virt. eigenvalues --    0.66526   0.68817   0.70278   0.70501   0.71221
 Alpha virt. eigenvalues --    0.74150   0.81285   0.81812   0.82366   0.84596
 Alpha virt. eigenvalues --    0.84819   0.87693   0.90223   0.96574   0.97419
 Alpha virt. eigenvalues --    0.98222   0.98438   1.02844   1.03193   1.15147
 Alpha virt. eigenvalues --    1.17162   1.20162   1.24600   1.25439   1.30222
 Alpha virt. eigenvalues --    1.32241   1.32373   1.39222   1.46701   1.47020
 Alpha virt. eigenvalues --    1.49986   1.53127   1.54301   1.57637   1.57902
 Alpha virt. eigenvalues --    1.63580   1.64236   1.64588   1.71582   1.72494
 Alpha virt. eigenvalues --    1.75218   1.76698   1.91026   1.95451   1.96081
 Alpha virt. eigenvalues --    2.01363   2.02662   2.05049   2.07824   2.08136
 Alpha virt. eigenvalues --    2.10881   2.26898   2.29279   2.36342   2.42562
 Alpha virt. eigenvalues --    2.43763   2.50161   2.54557   2.55982   2.56557
 Alpha virt. eigenvalues --    2.62453   2.63143   2.66517   2.69781   2.73212
 Alpha virt. eigenvalues --    2.73691   2.77798   2.79506   2.82592   2.89983
 Alpha virt. eigenvalues --    2.90561   2.94945   2.96867   2.99979   3.02425
 Alpha virt. eigenvalues --    3.05074   3.11946   3.12199   3.17404   3.21109
 Alpha virt. eigenvalues --    3.22126   3.23793   3.27348   3.33576   3.42848
 Alpha virt. eigenvalues --    3.49361   3.52723   3.59978   3.70703   3.76184
 Alpha virt. eigenvalues --    3.76338   3.81486   3.85574   3.90493   3.92998
 Alpha virt. eigenvalues --    3.93547   3.97786   4.07863   4.11062   4.11193
 Alpha virt. eigenvalues --    4.26384   4.26694   4.33252   4.40594   4.42837
 Alpha virt. eigenvalues --    4.55483   4.96869   5.00600   5.10057   5.35247
 Alpha virt. eigenvalues --    6.61525   6.63282   6.65481   6.74629   6.88686
 Alpha virt. eigenvalues --    6.94197   6.96577   7.04180   7.05730   7.09530
 Alpha virt. eigenvalues --    7.10065   7.11058   7.15067   7.18236   7.19089
 Alpha virt. eigenvalues --    7.21516   7.34016   7.42056   7.50193   7.52181
 Alpha virt. eigenvalues --    7.67875   7.68833   7.73153   7.80503   8.14581
 Alpha virt. eigenvalues --    8.18169   8.28575   8.69353   8.75005   8.99368
 Alpha virt. eigenvalues --   23.80786  24.32889  24.39490  24.39793  24.51763
 Alpha virt. eigenvalues --   24.62392
  Beta  occ. eigenvalues --  -10.57581 -10.57558 -10.55768 -10.55738 -10.55695
  Beta  occ. eigenvalues --  -10.55665  -1.35840  -1.10070  -0.97009  -0.93052
  Beta  occ. eigenvalues --   -0.78915  -0.69398  -0.68166  -0.67267  -0.66372
  Beta  occ. eigenvalues --   -0.62853  -0.53824
  Beta virt. eigenvalues --   -0.41914  -0.41734  -0.39122  -0.37946  -0.22247
  Beta virt. eigenvalues --   -0.22182  -0.15085  -0.13961  -0.12388  -0.09650
  Beta virt. eigenvalues --   -0.08529  -0.07474  -0.07205  -0.06965  -0.06507
  Beta virt. eigenvalues --   -0.05438  -0.04225  -0.04200  -0.00934  -0.00760
  Beta virt. eigenvalues --   -0.00517   0.00023   0.00461   0.01038   0.01457
  Beta virt. eigenvalues --    0.01483   0.01645   0.05842   0.06046   0.06467
  Beta virt. eigenvalues --    0.07160   0.07712   0.08070   0.08075   0.08393
  Beta virt. eigenvalues --    0.12110   0.15776   0.19758   0.20192   0.20559
  Beta virt. eigenvalues --    0.20712   0.22063   0.22127   0.23315   0.25660
  Beta virt. eigenvalues --    0.28542   0.28868   0.29225   0.31256   0.32151
  Beta virt. eigenvalues --    0.32750   0.34924   0.35735   0.40827   0.42419
  Beta virt. eigenvalues --    0.43147   0.43168   0.43362   0.43729   0.45096
  Beta virt. eigenvalues --    0.45239   0.45852   0.46305   0.48457   0.48464
  Beta virt. eigenvalues --    0.48953   0.49014   0.49590   0.50888   0.52037
  Beta virt. eigenvalues --    0.66474   0.67028   0.69266   0.70512   0.70706
  Beta virt. eigenvalues --    0.71648   0.75021   0.81718   0.81882   0.82449
  Beta virt. eigenvalues --    0.84895   0.84941   0.88138   0.90273   0.96545
  Beta virt. eigenvalues --    0.97818   0.99220   0.99307   1.02976   1.03323
  Beta virt. eigenvalues --    1.15760   1.16843   1.21740   1.24774   1.27229
  Beta virt. eigenvalues --    1.31312   1.32724   1.33131   1.40999   1.46917
  Beta virt. eigenvalues --    1.47650   1.50339   1.53310   1.56069   1.57501
  Beta virt. eigenvalues --    1.58392   1.64534   1.65662   1.66528   1.73786
  Beta virt. eigenvalues --    1.74749   1.75145   1.76754   1.92894   1.95399
  Beta virt. eigenvalues --    1.96239   2.03548   2.03999   2.06797   2.07707
  Beta virt. eigenvalues --    2.10190   2.12172   2.27278   2.29561   2.38727
  Beta virt. eigenvalues --    2.43044   2.44812   2.50650   2.54691   2.56521
  Beta virt. eigenvalues --    2.56601   2.62820   2.64172   2.66442   2.69969
  Beta virt. eigenvalues --    2.72973   2.74431   2.79231   2.81374   2.83746
  Beta virt. eigenvalues --    2.91061   2.91783   2.95565   2.97191   3.01153
  Beta virt. eigenvalues --    3.03162   3.07640   3.12444   3.13286   3.17546
  Beta virt. eigenvalues --    3.21331   3.23304   3.24082   3.27666   3.33722
  Beta virt. eigenvalues --    3.43239   3.51434   3.52265   3.60230   3.71310
  Beta virt. eigenvalues --    3.77360   3.78140   3.81790   3.87532   3.91276
  Beta virt. eigenvalues --    3.93213   3.93724   3.98967   4.07568   4.11445
  Beta virt. eigenvalues --    4.13124   4.25984   4.28416   4.34700   4.42557
  Beta virt. eigenvalues --    4.43478   4.55848   4.96973   5.01996   5.10856
  Beta virt. eigenvalues --    5.36481   6.63165   6.64364   6.66548   6.74705
  Beta virt. eigenvalues --    6.88693   6.95421   6.98229   7.03922   7.05710
  Beta virt. eigenvalues --    7.09611   7.09770   7.13535   7.15472   7.19467
  Beta virt. eigenvalues --    7.21654   7.22359   7.34884   7.42338   7.51446
  Beta virt. eigenvalues --    7.54709   7.68610   7.70880   7.73248   7.81529
  Beta virt. eigenvalues --    8.14755   8.18985   8.31003   8.68841   8.75869
  Beta virt. eigenvalues --    9.01669  23.81209  24.33124  24.40408  24.40643
  Beta virt. eigenvalues --   24.51870  24.62235
          Condensed to atoms (all electrons):
               1          2          3          4          5          6
     1  C    8.129730   0.617153  -0.832983  -1.361406  -1.380653   0.606964
     2  C    0.617153   7.440654  -1.374376  -0.141138  -0.480313  -0.209950
     3  C   -0.832983  -1.374376   8.122222   0.610126   0.620789  -1.354733
     4  C   -1.361406  -0.141138   0.610126   7.419411  -0.191463  -0.472722
     5  C   -1.380653  -0.480313   0.620789  -0.191463   7.436329  -0.141279
     6  C    0.606964  -0.209950  -1.354733  -0.472722  -0.141279   7.423625
          Atomic-Atomic Spin Densities.
               1          2          3          4          5          6
     1  C   -0.378844  -0.044378   0.083215   0.059069   0.063804  -0.043052
     2  C   -0.044378   0.619193   0.063585   0.039198  -0.027735  -0.281125
     3  C    0.083215   0.063585  -0.374935  -0.043937  -0.045258   0.058986
     4  C    0.059069   0.039198  -0.043937   0.663234  -0.286856  -0.040100
     5  C    0.063804  -0.027735  -0.045258  -0.286856   0.635285   0.039219
     6  C   -0.043052  -0.281125   0.058986  -0.040100   0.039219   0.646796
 Mulliken charges and spin densities:
               1          2
     1  C    0.221196  -0.260186
     2  C    0.147970   0.368739
     3  C    0.208956  -0.258344
     4  C    0.137192   0.390608
     5  C    0.136591   0.378459
     6  C    0.148095   0.380724
 Sum of Mulliken charges =   1.00000   1.00000
 Mulliken charges and spin densities with hydrogens summed into heavy atoms:
               1          2
     1  C    0.221196  -0.260186
     2  C    0.147970   0.368739
     3  C    0.208956  -0.258344
     4  C    0.137192   0.390608
     5  C    0.136591   0.378459
     6  C    0.148095   0.380724
 APT charges:
               1
     1  C    0.297707
     2  C    0.102789
     3  C    0.300305
     4  C    0.098079
     5  C    0.096426
     6  C    0.104695
 Sum of APT charges =   1.00000
 APT charges with hydrogens summed into heavy atoms:
               1
     1  C    0.297707
     2  C    0.102789
     3  C    0.300305
     4  C    0.098079
     5  C    0.096426
     6  C    0.104695
 Electronic spatial extent (au):  <R**2>=            229.7921
 Charge=              1.0000 electrons
 Dipole moment (field-independent basis, Debye):
    X=             -0.0136    Y=              0.0025    Z=              0.0002  Tot=              0.0139
 Quadrupole moment (field-independent basis, Debye-Ang):
   XX=            -26.0493   YY=            -27.2826   ZZ=            -28.7519
   XY=              0.0002   XZ=              0.0373   YZ=              0.0012
 Traceless Quadrupole moment (field-independent basis, Debye-Ang):
   XX=              1.3120   YY=              0.0787   ZZ=             -1.3906
   XY=              0.0002   XZ=              0.0373   YZ=              0.0012
 Octapole moment (field-independent basis, Debye-Ang**2):
  XXX=             -0.0457  YYY=              0.0312  ZZZ=              0.4299  XYY=             -0.0266
  XXY=             -0.0042  XXZ=              1.0030  XZZ=             -0.0042  YZZ=             -0.0126
  YYZ=             -1.3908  XYZ=             -0.0002
 Hexadecapole moment (field-independent basis, Debye-Ang**3):
 XXXX=           -132.5092 YYYY=            -98.3312 ZZZZ=            -90.9840 XXXY=              0.0007
 XXXZ=              0.0714 YYYX=             -0.0002 YYYZ=              0.0013 ZZZX=              0.0682
 ZZZY=              0.0043 XXYY=            -39.1042 XXZZ=            -36.5175 YYZZ=            -31.4001
 XXYZ=              0.0001 YYXZ=              0.0392 ZZXY=              0.0004
 N-N= 1.686718699222D+02 E-N=-8.556459361099D+02  KE= 2.268174531339D+02
  Exact polarizability:  55.275   0.000  46.439   0.013   0.022  42.614
 Approx polarizability: 146.031  -0.011 132.520   0.205   0.392 103.323
                          Isotropic Fermi Contact Couplings
        Atom                 a.u.       MegaHertz       Gauss      10(-4) cm-1
     1  C(13)             -0.11426    -128.44925     -45.83388     -42.84606
     2  C(13)              0.18947     213.00096      76.00404      71.04947
     3  C(13)             -0.11455    -128.78107     -45.95229     -42.95674
     4  C(13)              0.20445     229.84252      82.01352      76.66721
     5  C(13)              0.19660     221.01430      78.86340      73.72244
     6  C(13)              0.19721     221.70662      79.11043      73.95337
 --------------------------------------------------------
       Center         ----  Spin Dipole Couplings  ----
                      3XX-RR        3YY-RR        3ZZ-RR
 --------------------------------------------------------
     1   Atom        0.012351      0.038133     -0.050483
     2   Atom        0.376560     -0.021978     -0.354582
     3   Atom        0.011832      0.035376     -0.047208
     4   Atom        0.383111     -0.024207     -0.358904
     5   Atom        0.380230     -0.021284     -0.358946
     6   Atom        0.379538     -0.025113     -0.354424
 --------------------------------------------------------
                        XY            XZ            YZ
 --------------------------------------------------------
     1   Atom       -0.000627     -0.178190     -0.003453
     2   Atom        0.291988      0.152159      0.041373
     3   Atom        0.000791      0.173328     -0.003505
     4   Atom        0.307151     -0.155007     -0.043220
     5   Atom       -0.298997     -0.151790      0.041236
     6   Atom       -0.299851      0.155345     -0.043354
 --------------------------------------------------------


 ---------------------------------------------------------------------------------
              Anisotropic Spin Dipole Couplings in Principal Axis System
 ---------------------------------------------------------------------------------

       Atom             a.u.   MegaHertz   Gauss  10(-4) cm-1        Axes

              Baa    -0.2000   -26.844    -9.579    -8.954  0.6427  0.0128  0.7660
     1 C(13)  Bbb     0.0381     5.119     1.827     1.708 -0.0190  0.9998 -0.0008
              Bcc     0.1619    21.725     7.752     7.247  0.7659  0.0141 -0.6428
 
              Baa    -0.3861   -51.807   -18.486   -17.281 -0.2192  0.0651  0.9735
     2 C(13)  Bbb    -0.1707   -22.913    -8.176    -7.643 -0.4307  0.8888 -0.1564
              Bcc     0.5568    74.720    26.662    24.924  0.8755  0.4536  0.1668
 
              Baa    -0.1936   -25.973    -9.268    -8.664 -0.6449  0.0139  0.7641
     3 C(13)  Bbb     0.0354     4.750     1.695     1.584  0.0193  0.9998 -0.0019
              Bcc     0.1582    21.223     7.573     7.079  0.7640 -0.0135  0.6451
 
              Baa    -0.3913   -52.507   -18.736   -17.515  0.2233 -0.0724  0.9721
     4 C(13)  Bbb    -0.1832   -24.578    -8.770    -8.198 -0.4347  0.8852  0.1658
              Bcc     0.5744    77.085    27.506    25.713  0.8724  0.4596 -0.1662
 
              Baa    -0.3901   -52.347   -18.679   -17.461  0.2183  0.0681  0.9735
     5 C(13)  Bbb    -0.1750   -23.485    -8.380    -7.834  0.4340  0.8867 -0.1593
              Bcc     0.5651    75.832    27.059    25.295  0.8741 -0.4572 -0.1640
 
              Baa    -0.3871   -51.950   -18.537   -17.329 -0.2240 -0.0691  0.9721
     6 C(13)  Bbb    -0.1788   -23.994    -8.562    -8.004  0.4314  0.8874  0.1625
              Bcc     0.5659    75.944    27.099    25.332  0.8739 -0.4557  0.1690
 

 ---------------------------------------------------------------------------------

 No NMR shielding tensors so no spin-rotation constants.
 Leave Link  601 at Tue Nov  1 20:02:15 2016, MaxMem=    33554432 cpu:         2.0
 (Enter /home/proyectos/fulerenos/M3C-v2.0/M3C-deps_CCC/g09-AM64L-G09RevC.01/l701.exe)
 Compute integral second derivatives.
 ... and contract with generalized density number  0.
 Leave Link  701 at Tue Nov  1 20:02:15 2016, MaxMem=    33554432 cpu:         1.4
 (Enter /home/proyectos/fulerenos/M3C-v2.0/M3C-deps_CCC/g09-AM64L-G09RevC.01/l702.exe)
 L702 exits ... SP integral derivatives will be done elsewhere.
 Leave Link  702 at Tue Nov  1 20:02:15 2016, MaxMem=    33554432 cpu:         0.1
 (Enter /home/proyectos/fulerenos/M3C-v2.0/M3C-deps_CCC/g09-AM64L-G09RevC.01/l703.exe)
 Compute integral second derivatives, UseDBF=F ICtDFT=           0.
 Integral derivatives from FoFJK, PRISM(SPDF).
 Calling FoFJK, ICntrl=    100127 FMM=F ISym2X=0 I1Cent= 0 IOpClX= 1 NMat=1 NMatS=1 NMatT=0.
 FoFJK:  IHMeth= 1 ICntrl=  100127 DoSepK=F KAlg= 0 I1Cent=   0 FoldK=F
 IRaf=         0 NMat=   1 IRICut=       1 DoRegI=T DoRafI=F ISym2E= 0.
 FoFCou: FMM=F IPFlag=           0 FMFlag=      100000 FMFlg1=         800
         NFxFlg=           0 DoJE=F BraDBF=F KetDBF=F FulRan=T
         wScrn=  0.000000 ICntrl=  100127 IOpCl=  1 I1Cent=           0 NGrid=           0
         NMat0=    1 NMatS0=      1 NMatT0=    0 NMatD0=    1 NMtDS0=    0 NMtDT0=    0
 Symmetry not used in FoFCou.
 Leave Link  703 at Tue Nov  1 20:04:20 2016, MaxMem=    33554432 cpu:       501.0
 (Enter /home/proyectos/fulerenos/M3C-v2.0/M3C-deps_CCC/g09-AM64L-G09RevC.01/l716.exe)
 Dipole        =-5.36791746D-03 9.89177202D-04 7.40965510D-05
 Polarizability= 5.52750699D+01 4.01229788D-04 4.64390129D+01
                 1.30563801D-02 2.24585126D-02 4.26142721D+01
 Full mass-weighted force constant matrix:
 Low frequencies --- -702.8599 -697.5782 -211.6108   -0.0005   -0.0004    0.0007
 Low frequencies ---    5.2740   11.7472   25.4241
 ******    3 imaginary frequencies (negative Signs) ****** 
 Diagonal vibrational polarizability:
        7.9840499       1.3816736       3.0566654
 Harmonic frequencies (cm**-1), IR intensities (KM/Mole), Raman scattering
 activities (A**4/AMU), depolarization ratios for plane and unpolarized
 incident light, reduced masses (AMU), force constants (mDyne/A),
 and normal coordinates:
                      1                      2                      3
                      A                      A                      A
 Frequencies --   -702.8598              -697.5777              -211.6089
 Red. masses --     12.0000                12.0000                12.0000
 Frc consts  --      3.4928                 3.4405                 0.3166
 IR Inten    --     18.9701               119.8349                 0.5128
  Atom  AN      X      Y      Z        X      Y      Z        X      Y      Z
     1   6    -0.06   0.38  -0.02    -0.31  -0.07  -0.12    -0.34  -0.03  -0.12
     2   6     0.24  -0.12  -0.26     0.11   0.39   0.24     0.18  -0.34   0.23
     3   6    -0.06   0.38   0.02    -0.31  -0.08   0.12    -0.33   0.03   0.12
     4   6     0.24  -0.12   0.26     0.12   0.40  -0.25     0.15  -0.34  -0.19
     5   6    -0.18  -0.26  -0.34     0.19  -0.32  -0.12     0.18   0.34  -0.23
     6   6    -0.18  -0.27   0.33     0.20  -0.32   0.13     0.15   0.34   0.19
                      4                      5                      6
                      A                      A                      A
 Frequencies --    353.3821               543.9518               575.4493
 Red. masses --     12.0000                12.0000                12.0000
 Frc consts  --      0.8829                 2.0920                 2.3412
 IR Inten    --      0.0042                32.5235                 0.0160
  Atom  AN      X      Y      Z        X      Y      Z        X      Y      Z
     1   6    -0.02   0.52   0.00    -0.67   0.00   0.11    -0.00   0.11   0.00
     2   6    -0.16   0.08  -0.26    -0.13   0.05  -0.06    -0.35  -0.31   0.19
     3   6    -0.02  -0.52  -0.00     0.67   0.00   0.12    -0.00  -0.11  -0.00
     4   6     0.18  -0.14  -0.29     0.13  -0.05  -0.05     0.34   0.30   0.18
     5   6    -0.16  -0.08   0.26     0.12   0.05  -0.05    -0.34   0.31  -0.19
     6   6     0.17   0.14   0.29    -0.13  -0.05  -0.06     0.35  -0.30  -0.18
                      7                      8                      9
                      A                      A                      A
 Frequencies --    845.7646               846.5762               883.2382
 Red. masses --     12.0000                12.0000                12.0000
 Frc consts  --      5.0574                 5.0671                 5.5155
 IR Inten    --      1.2435                 0.5144                23.1958
  Atom  AN      X      Y      Z        X      Y      Z        X      Y      Z
     1   6     0.13  -0.05   0.32    -0.01  -0.32   0.03    -0.07  -0.03  -0.58
     2   6     0.01   0.38  -0.19    -0.06  -0.30  -0.31     0.03  -0.03  -0.32
     3   6    -0.13   0.05   0.27     0.03   0.33  -0.12    -0.08   0.04   0.59
     4   6    -0.01  -0.37  -0.22     0.04   0.29  -0.37     0.04   0.01   0.21
     5   6    -0.02   0.45  -0.10    -0.04   0.16   0.35     0.02   0.05   0.32
     6   6     0.02  -0.44  -0.09     0.05  -0.16   0.43     0.05  -0.03  -0.21
                     10                     11                     12
                      A                      A                      A
 Frequencies --    926.7781              1157.1770              1244.4276
 Red. masses --     12.0000                12.0000                12.0000
 Frc consts  --      6.0727                 9.4674                10.9489
 IR Inten    --     18.3748                 2.5348                 0.0219
  Atom  AN      X      Y      Z        X      Y      Z        X      Y      Z
     1   6     0.00   0.19  -0.00     0.17  -0.00  -0.07     0.09  -0.00   0.48
     2   6    -0.45  -0.08  -0.14    -0.48   0.03   0.03    -0.05  -0.27  -0.24
     3   6    -0.00   0.18   0.00    -0.17  -0.00  -0.06    -0.10  -0.00   0.47
     4   6    -0.45  -0.10   0.15     0.48  -0.03   0.03     0.05   0.27  -0.23
     5   6     0.46  -0.09  -0.15     0.48   0.03   0.04     0.05  -0.27  -0.24
     6   6     0.45  -0.09   0.14    -0.48  -0.03   0.03    -0.05   0.27  -0.23

 -------------------
 - Thermochemistry -
 -------------------
 Temperature   298.150 Kelvin.  Pressure   1.00000 Atm.
 Atom     1 has atomic number  6 and mass  12.00000
 Atom     2 has atomic number  6 and mass  12.00000
 Atom     3 has atomic number  6 and mass  12.00000
 Atom     4 has atomic number  6 and mass  12.00000
 Atom     5 has atomic number  6 and mass  12.00000
 Atom     6 has atomic number  6 and mass  12.00000
 Molecular mass:    72.00000 amu.
 Principal axes and moments of inertia in atomic units:
                           1         2         3
     Eigenvalues --   187.27651 234.46219 253.32071
           X            1.00000   0.00000   0.00000
           Y           -0.00000   1.00000   0.00000
           Z            0.00000  -0.00000   1.00000
 This molecule is an asymmetric top.
 Rotational symmetry number  1.
 Rotational temperatures (Kelvin)      0.46249     0.36941     0.34191
 Rotational constants (GHZ):           9.63677     7.69737     7.12433
    3 imaginary frequencies ignored.
 Zero-point vibrational energy      44122.7 (Joules/Mol)
                                   10.54559 (Kcal/Mol)
 Warning -- explicit consideration of   3 degrees of freedom as
           vibrations may cause significant error
 Vibrational temperatures:    508.44   782.62   827.94  1216.87  1218.03
          (Kelvin)           1270.78  1333.43  1664.92  1790.45
 
 Zero-point correction=                           0.016805 (Hartree/Particle)
 Thermal correction to Energy=                    0.020636
 Thermal correction to Enthalpy=                  0.021580
 Thermal correction to Gibbs Free Energy=        -0.010228
 Sum of electronic and zero-point Energies=           -227.757603
 Sum of electronic and thermal Energies=              -227.753773
 Sum of electronic and thermal Enthalpies=            -227.752829
 Sum of electronic and thermal Free Energies=         -227.784637
 
                     E (Thermal)             CV                S
                      KCal/Mol        Cal/Mol-Kelvin    Cal/Mol-Kelvin
 Total                   12.949             12.323             66.946
 Electronic               0.000              0.000              1.377
 Translational            0.889              2.981             38.739
 Rotational               0.889              2.981             23.924
 Vibrational             11.172              6.361              2.906
 Vibration     1          0.730              1.568              1.151
 Vibration     2          0.899              1.153              0.557
 Vibration     3          0.932              1.084              0.494
                       Q            Log10(Q)             Ln(Q)
 Total Bot       0.506715D+05          4.704764         10.833120
 Total V=0       0.272097D+13         12.434723         28.632008
 Vib (Bot)       0.279460D-07         -7.553680        -17.392990
 Vib (Bot)    1  0.520947D+00         -0.283207         -0.652107
 Vib (Bot)    2  0.290177D+00         -0.537337         -1.237265
 Vib (Bot)    3  0.266011D+00         -0.575100         -1.324216
 Vib (V=0)       0.150065D+01          0.176280          0.405899
 Vib (V=0)    1  0.122207D+01          0.087096          0.200546
 Vib (V=0)    2  0.107810D+01          0.032660          0.075203
 Vib (V=0)    3  0.106636D+01          0.027903          0.064250
 Electronic      0.200000D+01          0.301030          0.693147
 Translational   0.240134D+08          7.380454         16.994123
 Rotational      0.377537D+05          4.576960         10.538839
 
                                                              b3lyp opt
                                                             IR Spectrum
 
     1        1                                                                                                                      
     2        1                       9   8  88                           5  5                  3                                    
     4        5                       2   8  44                           7  4                  5                                    
     4        7                       7   3  76                           5  4                  3                                    
 
              X                       X   X  XX                              X                                                       
              X                       X   X                                  X                                                       
                                      X   X                                  X                                                       
                                      X   X                                  X                                                       
                                      X   X                                  X                                                       
                                      X   X                                  X                                                       
                                      X   X                                  X                                                       
                                      X   X                                  X                                                       
                                      X   X                                  X                                                       
                                      X   X                                  X                                                       
                                      X   X                                  X                                                       
                                          X                                  X                                                       
                                          X                                  X                                                       
                                          X                                  X                                                       
                                                                             X                                                       
                                                                             X                                                       
                                                                             X                                                       
                                                                             X                                                       
                                                                             X                                                       
                                                                             X                                                       
 
 ***** Axes restored to original set *****
 -------------------------------------------------------------------
 Center     Atomic                   Forces (Hartrees/Bohr)
 Number     Number              X              Y              Z
 -------------------------------------------------------------------
      1        6           0.000146901    0.000561944   -0.000258465
      2        6          -0.000515466   -0.000388063   -0.000346995
      3        6           0.000189573    0.000112148    0.000059207
      4        6          -0.000336441    0.000160825    0.000279028
      5        6           0.000109169   -0.000180898    0.000187046
      6        6           0.000406265   -0.000265955    0.000080180
 -------------------------------------------------------------------
 Cartesian Forces:  Max     0.000561944 RMS     0.000291704
 Z-matrix is all fixed cartesians, so copy forces.
 Force constants in Cartesian coordinates: 
                1             2             3             4             5 
      1  0.356214D-01
      2 -0.275540D-01  0.194888D+00
      3 -0.230240D-01  0.124818D+00  0.179959D+00
      4  0.317190D-01 -0.863648D-03 -0.391110D-01  0.966478D-01
      5 -0.309762D-02 -0.282309D-01 -0.983984D-02  0.319399D-01  0.214542D+00
      6  0.770657D-01  0.111186D-01 -0.348631D-01  0.126316D-02 -0.512199D-01
      7 -0.710757D-01 -0.946894D-02 -0.112061D-01 -0.294210D-02 -0.398692D-01
      8 -0.698300D-02 -0.380432D-01  0.672167D-01 -0.138534D-01 -0.205272D-01
      9 -0.166306D-01  0.111473D+00 -0.259884D-02 -0.448787D-01 -0.124353D+00
     10 -0.237614D-01  0.678626D-01  0.447276D-01 -0.173311D+00 -0.658700D-01
     11 -0.149637D-01 -0.474167D-01 -0.880562D-01  0.927122D-02 -0.246573D-01
     12  0.587173D-01 -0.110464D+00 -0.471280D-01  0.385005D-01  0.693256D-01
     13 -0.613642D-02 -0.470468D-01 -0.190804D-01  0.973048D-01  0.437965D-01
     14  0.343345D-01 -0.554539D-01 -0.946386D-01  0.177141D-01 -0.129231D+00
     15 -0.252277D-01 -0.129810D+00 -0.572945D-01  0.148232D-01  0.133507D+00
     16  0.336331D-01  0.170708D-01  0.476938D-01 -0.494186D-01  0.331004D-01
     17  0.182639D-01 -0.257438D-01  0.499671D-03 -0.442082D-01 -0.118951D-01
     18 -0.709007D-01 -0.713610D-02 -0.380748D-01  0.294028D-01 -0.174199D-01
                6             7             8             9            10 
      6  0.131435D+00
      7  0.288164D-01  0.344797D-01
      8 -0.828807D-01 -0.175362D-01  0.129874D+00
      9 -0.955742D-01 -0.253077D-01  0.110810D+00  0.246280D+00
     10 -0.712054D-01  0.370597D-01  0.511912D-01  0.209817D-01  0.104056D+00
     11  0.123169D+00 -0.669516D-01 -0.381837D-01 -0.346620D-03  0.929755D-02
     12  0.190326D-01 -0.456820D-03 -0.500885D-02 -0.297212D-01 -0.321516D-01
     13  0.278784D-02  0.272261D-01 -0.338441D-01 -0.138254D-01 -0.477932D-01
     14  0.300016D-01  0.834443D-01 -0.303606D-01  0.305172D-02 -0.603007D-01
     15 -0.101716D+00  0.795129D-02 -0.731868D-02 -0.285062D-01  0.285426D-01
     16 -0.387276D-01 -0.247477D-01  0.210255D-01  0.796606D-01  0.103750D+00
     17 -0.301887D-01  0.503817D-01 -0.275951D-02 -0.100635D+00 -0.218071D-02
     18  0.816854D-01  0.202939D-03 -0.828185D-01 -0.898795D-01  0.910507D-02
               11            12            13            14            15 
     11  0.156399D+00
     12 -0.705364D-01  0.177971D+00
     13  0.260146D-01 -0.348995D-01  0.104608D+00
     14  0.864825D-01 -0.986906D-02 -0.136067D-01  0.149899D+00
     15  0.275045D-02 -0.170931D-01  0.448911D-01 -0.597477D-01  0.187204D+00
     16  0.373320D-01 -0.297099D-01 -0.175210D+00 -0.615856D-01 -0.709805D-01
     17 -0.132624D+00  0.126552D+00  0.246864D-01 -0.213365D-01  0.606188D-01
     18  0.330197D-01 -0.103061D+00  0.201263D-01  0.131202D+00  0.174057D-01
               16            17            18 
     16  0.111993D+00
     17 -0.469432D-01  0.194359D+00
     18  0.120636D-01 -0.568471D-01  0.131924D+00
 Leave Link  716 at Tue Nov  1 20:04:20 2016, MaxMem=    33554432 cpu:         0.1
 (Enter /home/proyectos/fulerenos/M3C-v2.0/M3C-deps_CCC/g09-AM64L-G09RevC.01/l103.exe)

 GradGradGradGradGradGradGradGradGradGradGradGradGradGradGradGradGradGrad
 Berny optimization.
 Search for a local minimum.
 Step number   1 out of a maximum of    2
 All quantities printed in internal units (Hartrees-Bohrs-Radians)
 Second derivative matrix not updated -- analytic derivatives used.
 The second derivative matrix:
                          X1        Y1        Z1        X2        Y2
           X1           0.03562
           Y1          -0.02755   0.19489
           Z1          -0.02302   0.12482   0.17996
           X2           0.03172  -0.00086  -0.03911   0.09665
           Y2          -0.00310  -0.02823  -0.00984   0.03194   0.21454
           Z2           0.07707   0.01112  -0.03486   0.00126  -0.05122
           X3          -0.07108  -0.00947  -0.01121  -0.00294  -0.03987
           Y3          -0.00698  -0.03804   0.06722  -0.01385  -0.02053
           Z3          -0.01663   0.11147  -0.00260  -0.04488  -0.12435
           X4          -0.02376   0.06786   0.04473  -0.17331  -0.06587
           Y4          -0.01496  -0.04742  -0.08806   0.00927  -0.02466
           Z4           0.05872  -0.11046  -0.04713   0.03850   0.06933
           X5          -0.00614  -0.04705  -0.01908   0.09730   0.04380
           Y5           0.03433  -0.05545  -0.09464   0.01771  -0.12923
           Z5          -0.02523  -0.12981  -0.05729   0.01482   0.13351
           X6           0.03363   0.01707   0.04769  -0.04942   0.03310
           Y6           0.01826  -0.02574   0.00050  -0.04421  -0.01190
           Z6          -0.07090  -0.00714  -0.03807   0.02940  -0.01742
                          Z2        X3        Y3        Z3        X4
           Z2           0.13144
           X3           0.02882   0.03448
           Y3          -0.08288  -0.01754   0.12987
           Z3          -0.09557  -0.02531   0.11081   0.24628
           X4          -0.07121   0.03706   0.05119   0.02098   0.10406
           Y4           0.12317  -0.06695  -0.03818  -0.00035   0.00930
           Z4           0.01903  -0.00046  -0.00501  -0.02972  -0.03215
           X5           0.00279   0.02723  -0.03384  -0.01383  -0.04779
           Y5           0.03000   0.08344  -0.03036   0.00305  -0.06030
           Z5          -0.10172   0.00795  -0.00732  -0.02851   0.02854
           X6          -0.03873  -0.02475   0.02103   0.07966   0.10375
           Y6          -0.03019   0.05038  -0.00276  -0.10063  -0.00218
           Z6           0.08169   0.00020  -0.08282  -0.08988   0.00911
                          Y4        Z4        X5        Y5        Z5
           Y4           0.15640
           Z4          -0.07054   0.17797
           X5           0.02601  -0.03490   0.10461
           Y5           0.08648  -0.00987  -0.01361   0.14990
           Z5           0.00275  -0.01709   0.04489  -0.05975   0.18720
           X6           0.03733  -0.02971  -0.17521  -0.06159  -0.07098
           Y6          -0.13262   0.12655   0.02469  -0.02134   0.06062
           Z6           0.03302  -0.10306   0.02013   0.13120   0.01741
                          X6        Y6        Z6
           X6           0.11199
           Y6          -0.04694   0.19436
           Z6           0.01206  -0.05685   0.13192
 ITU=  0
     Eigenvalues ---   -0.22434  -0.22098  -0.02033   0.05671   0.13437
     Eigenvalues ---    0.15038   0.32484   0.32547   0.35427   0.39005
     Eigenvalues ---    0.60810   0.70325
 Eigenvalue     1 is  -2.24D-01 should be greater than     0.000000 Eigenvector:
                          X1        Y5        X3        Z2        Z6
   1                    0.38471  -0.38091   0.37723  -0.35676   0.35503
                          Y4        X6        X5        X4        Z5
   1                    0.33404  -0.29069  -0.20594  -0.16314  -0.15643
 Eigenvalue     2 is  -2.21D-01 should be greater than     0.000000 Eigenvector:
                          X4        X2        X6        Y1        X5
   1                    0.41392   0.35686  -0.34497  -0.32182  -0.31537
                          Z3        Y2        Z4        Z5        Y6
   1                    0.28455   0.28069  -0.24762  -0.23068   0.19587
 Eigenvalue     3 is  -2.03D-02 should be greater than     0.000000 Eigenvector:
                          X2        X5        Y1        X4        X6
   1                    0.37655  -0.35487   0.33471   0.32494  -0.30347
                          Z3        Z5        Y6        Z4        Y2
   1                   -0.30202   0.27500  -0.27404   0.25585  -0.24282
 Angle between quadratic step and forces=  29.10 degrees.
 Linear search not attempted -- first point.
 B after Tr=    -0.000000    0.000000    0.000000
         Rot=    1.000000   -0.000000   -0.000000   -0.000000 Ang=   0.00 deg.
 Variable       Old X    -DE/DX   Delta X   Delta X   Delta X     New X
                                 (Linear)    (Quad)   (Total)
    X1        0.27776   0.00015   0.00000   0.00065   0.00065   0.27841
    Y1       -2.14233   0.00056   0.00000   0.00361   0.00361  -2.13872
    Z1       -0.19810  -0.00026   0.00000  -0.00220  -0.00220  -0.20029
    X2        1.27355  -0.00052   0.00000  -0.00110  -0.00110   1.27245
    Y2        1.73002  -0.00039   0.00000  -0.00192  -0.00192   1.72810
    Z2       -0.22417  -0.00035   0.00000  -0.00152  -0.00152  -0.22569
    X3        0.08244   0.00019   0.00000   0.00088   0.00088   0.08332
    Y3        0.22845   0.00011   0.00000   0.00007   0.00007   0.22851
    Z3       -2.16073   0.00006   0.00000  -0.00083  -0.00083  -2.16156
    X4       -1.45490  -0.00034   0.00000  -0.00093  -0.00093  -1.45583
    Y4       -0.77257   0.00016   0.00000   0.00072   0.00072  -0.77185
    Z4        1.40280   0.00028   0.00000   0.00232   0.00232   1.40512
    X5        1.45107   0.00011   0.00000  -0.00018  -0.00018   1.45089
    Y5       -0.41250  -0.00018   0.00000  -0.00095  -0.00095  -0.41346
    Z5        1.55042   0.00019   0.00000   0.00195   0.00195   1.55237
    X6       -1.62991   0.00041   0.00000   0.00067   0.00067  -1.62923
    Y6        1.36893  -0.00027   0.00000  -0.00152  -0.00152   1.36741
    Z6       -0.37023   0.00008   0.00000   0.00028   0.00028  -0.36995
         Item               Value     Threshold  Converged?
 Maximum Force            0.000562     0.000450     NO 
 RMS     Force            0.000292     0.000300     YES
 Maximum Displacement     0.003606     0.001800     NO 
 RMS     Displacement     0.001514     0.001200     NO 
 Predicted change in Energy=-9.200856D-06
 GradGradGradGradGradGradGradGradGradGradGradGradGradGradGradGradGradGrad

 Leave Link  103 at Tue Nov  1 20:04:20 2016, MaxMem=    33554432 cpu:         0.1
 (Enter /home/proyectos/fulerenos/M3C-v2.0/M3C-deps_CCC/g09-AM64L-G09RevC.01/l9999.exe)
 1\1\GINC-BELVIS5\Freq\UB3LYP\6-311+G(3df)\C6(1+,2)\ROOT\01-Nov-2016\0\
 \#p b3lyp/6-311+G(3df) freq symmetry=Loose\\b3lyp opt\\1,2\C,0.146984,
 -1.13367,-0.104828\C,0.673932,0.915486,-0.118626\C,0.043624,0.120889,-
 1.14341\C,-0.7699,-0.408825,0.742331\C,0.767871,-0.218288,0.820448\C,-
 0.862509,0.724407,-0.195915\\Version=EM64L-G09RevE.01\State=2-A\HF=-22
 7.7744083\S2=0.933356\S2-1=0.\S2A=0.772464\RMSD=7.555e-09\RMSF=2.917e-
 04\ZeroPoint=0.0168055\Thermal=0.0206355\Dipole=-0.0013108,0.0039504,-
 0.003532\DipoleDeriv=0.0843254,-0.0072751,0.0159977,0.0026129,0.175641
 1,-0.2940295,-0.0198924,-0.0728299,0.6331559,0.2268676,-0.2148977,0.30
 8842,-0.1429483,-0.2825151,0.1498552,0.2467297,-0.0955088,0.3640132,0.
 0990094,-0.0583913,-0.0011353,-0.0761575,0.6886538,0.0224781,0.021578,
 -0.1871307,0.1132521,0.2740911,-0.4047558,0.2219683,-0.2805865,0.21812
 75,0.0281901,0.140558,0.2441412,-0.1979825,0.1402338,0.346818,-0.18155
 95,0.2566458,0.3764764,-0.0041854,-0.1560941,0.2318551,-0.2274334,0.17
 54728,0.3385019,-0.3641131,0.2404335,-0.1763837,0.0976914,-0.2328791,-
 0.1205268,0.3149948\Polar=46.4210858,-0.1438158,50.1288247,0.7021034,-
 6.1753349,47.7784445\PG=C01 [X(C6)]\NImag=3\\0.03562137,-0.02755404,0.
 19488850,-0.02302396,0.12481826,0.17995923,0.03171900,-0.00086365,-0.0
 3911100,0.09664776,-0.00309762,-0.02823095,-0.00983984,0.03193991,0.21
 454159,0.07706566,0.01111860,-0.03486313,0.00126316,-0.05121994,0.1314
 3508,-0.07107569,-0.00946894,-0.01120608,-0.00294210,-0.03986924,0.028
 81636,0.03447974,-0.00698300,-0.03804316,0.06721668,-0.01385338,-0.020
 52724,-0.08288067,-0.01753623,0.12987421,-0.01663061,0.11147265,-0.002
 59884,-0.04487866,-0.12435283,-0.09557424,-0.02530769,0.11081005,0.246
 28004,-0.02376139,0.06786261,0.04472761,-0.17331089,-0.06586997,-0.071
 20540,0.03705970,0.05119119,0.02098174,0.10405616,-0.01496374,-0.04741
 666,-0.08805622,0.00927122,-0.02465734,0.12316913,-0.06695165,-0.03818
 366,-0.00034662,0.00929755,0.15639937,0.05871732,-0.11046361,-0.047127
 95,0.03850053,0.06932560,0.01903262,-0.00045682,-0.00500885,-0.0297212
 1,-0.03215162,-0.07053642,0.17797052,-0.00613642,-0.04704681,-0.019080
 38,0.09730484,0.04379651,0.00278784,0.02722610,-0.03384412,-0.01382537
 ,-0.04779316,0.02601462,-0.03489950,0.10460843,0.03433452,-0.05545391,
 -0.09463856,0.01771409,-0.12923092,0.03000159,0.08344432,-0.03036064,0
 .00305172,-0.06030068,0.08648250,-0.00986906,-0.01360665,0.14989942,-0
 .02522768,-0.12980980,-0.05729449,0.01482318,0.13350693,-0.10171572,0.
 00795129,-0.00731868,-0.02850624,0.02854260,0.00275045,-0.01709307,0.0
 4489108,-0.05974770,0.18720381,0.03363313,0.01707083,0.04769380,-0.049
 41860,0.03310040,-0.03872763,-0.02474775,0.02102554,0.07966059,0.10374
 959,0.03733199,-0.02970990,-0.17520979,-0.06158559,-0.07098047,0.11199
 343,0.01826388,-0.02574382,0.00049967,-0.04420819,-0.01189514,-0.03018
 872,0.05038174,-0.00275951,-0.10063496,-0.00218071,-0.13262421,0.12655
 233,0.02468644,-0.02133645,0.06061881,-0.04694317,0.19435914,-0.070900
 74,-0.00713610,-0.03807482,0.02940279,-0.01741993,0.08168539,0.0002029
 4,-0.08281852,-0.08987952,0.00910507,0.03301967,-0.10306091,0.02012632
 ,0.13120201,0.01740571,0.01206361,-0.05684713,0.13192414\\-0.00014690,
 -0.00056194,0.00025847,0.00051547,0.00038806,0.00034699,-0.00018957,-0
 .00011215,-0.00005921,0.00033644,-0.00016083,-0.00027903,-0.00010917,0
 .00018090,-0.00018705,-0.00040626,0.00026596,-0.00008018\\\@


 IF YOU PERCEIVE THAT THERE ARE FOUR POSSIBLE WAYS IN
 WHICH A PROCEDURE CAN GO WRONG AND CIRCUMVENT THESE, 
 THEN A FIFTH WAY WILL DEVELOP.

                              -- MURPHY'S TWELFTH LAW
 Job cpu time:       0 days  1 hours 13 minutes 17.8 seconds.
 File lengths (MBytes):  RWF=     59 Int=      0 D2E=      0 Chk=      5 Scr=      1
 Normal termination of Gaussian 09 at Tue Nov  1 20:04:20 2016.
