 Entering Gaussian System, Link 0=/home/proyectos/fulerenos/M3C-v2.0/M3C-deps_CCC/g09-AM64L-G09RevC.01/g09
 Initial command:
 /home/proyectos/fulerenos/M3C-v2.0/M3C-deps_CCC/g09-AM64L-G09RevC.01/l1.exe "/scratch/naguirre/gaussian/Gau-28210.inp" -scrdir="/scratch/naguirre/gaussian/"
 Entering Link 1 = /home/proyectos/fulerenos/M3C-v2.0/M3C-deps_CCC/g09-AM64L-G09RevC.01/l1.exe PID=     28212.
  
 Copyright (c) 1988,1990,1992,1993,1995,1998,2003,2009,2015,
            Gaussian, Inc.  All Rights Reserved.
  
 This is part of the Gaussian(R) 09 program.  It is based on
 the Gaussian(R) 03 system (copyright 2003, Gaussian, Inc.),
 the Gaussian(R) 98 system (copyright 1998, Gaussian, Inc.),
 the Gaussian(R) 94 system (copyright 1995, Gaussian, Inc.),
 the Gaussian 92(TM) system (copyright 1992, Gaussian, Inc.),
 the Gaussian 90(TM) system (copyright 1990, Gaussian, Inc.),
 the Gaussian 88(TM) system (copyright 1988, Gaussian, Inc.),
 the Gaussian 86(TM) system (copyright 1986, Carnegie Mellon
 University), and the Gaussian 82(TM) system (copyright 1983,
 Carnegie Mellon University). Gaussian is a federally registered
 trademark of Gaussian, Inc.
  
 This software contains proprietary and confidential information,
 including trade secrets, belonging to Gaussian, Inc.
  
 This software is provided under written license and may be
 used, copied, transmitted, or stored only in accord with that
 written license.
  
 The following legend is applicable only to US Government
 contracts under FAR:
  
                    RESTRICTED RIGHTS LEGEND
  
 Use, reproduction and disclosure by the US Government is
 subject to restrictions as set forth in subparagraphs (a)
 and (c) of the Commercial Computer Software - Restricted
 Rights clause in FAR 52.227-19.
  
 Gaussian, Inc.
 340 Quinnipiac St., Bldg. 40, Wallingford CT 06492
  
  
 ---------------------------------------------------------------
 Warning -- This program may not be used in any manner that
 competes with the business of Gaussian, Inc. or will provide
 assistance to any competitor of Gaussian, Inc.  The licensee
 of this program is prohibited from giving any competitor of
 Gaussian, Inc. access to this program.  By using this program,
 the user acknowledges that Gaussian, Inc. is engaged in the
 business of creating and licensing software in the field of
 computational chemistry and represents and warrants to the
 licensee that it is not a competitor of Gaussian, Inc. and that
 it will not use this program in any manner prohibited above.
 ---------------------------------------------------------------
  

 Cite this work as:
 Gaussian 09, Revision E.01,
 M. J. Frisch, G. W. Trucks, H. B. Schlegel, G. E. Scuseria, 
 M. A. Robb, J. R. Cheeseman, G. Scalmani, V. Barone, B. Mennucci, 
 G. A. Petersson, H. Nakatsuji, M. Caricato, X. Li, H. P. Hratchian, 
 A. F. Izmaylov, J. Bloino, G. Zheng, J. L. Sonnenberg, M. Hada, 
 M. Ehara, K. Toyota, R. Fukuda, J. Hasegawa, M. Ishida, T. Nakajima, 
 Y. Honda, O. Kitao, H. Nakai, T. Vreven, J. A. Montgomery, Jr., 
 J. E. Peralta, F. Ogliaro, M. Bearpark, J. J. Heyd, E. Brothers, 
 K. N. Kudin, V. N. Staroverov, T. Keith, R. Kobayashi, J. Normand, 
 K. Raghavachari, A. Rendell, J. C. Burant, S. S. Iyengar, J. Tomasi, 
 M. Cossi, N. Rega, J. M. Millam, M. Klene, J. E. Knox, J. B. Cross, 
 V. Bakken, C. Adamo, J. Jaramillo, R. Gomperts, R. E. Stratmann, 
 O. Yazyev, A. J. Austin, R. Cammi, C. Pomelli, J. W. Ochterski, 
 R. L. Martin, K. Morokuma, V. G. Zakrzewski, G. A. Voth, 
 P. Salvador, J. J. Dannenberg, S. Dapprich, A. D. Daniels, 
 O. Farkas, J. B. Foresman, J. V. Ortiz, J. Cioslowski, 
 and D. J. Fox, Gaussian, Inc., Wallingford CT, 2013.
 
 ******************************************
 Gaussian 09:  EM64L-G09RevE.01 30-Nov-2015
                 1-Nov-2016 
 ******************************************
 %NProcShared=4
 Will use up to    4 processors via shared memory.
 -----------------------------------------
 #p b3lyp/6-311+G(3df) freq symmetry=Loose
 -----------------------------------------
 1/10=4,30=1,38=1/1,3;
 2/12=2,17=4,18=3,40=1/2;
 3/5=4,6=6,7=16,11=2,16=1,25=1,30=1,71=2,74=-5,140=1/1,2,3;
 4//1;
 5/5=2,38=5,98=1/2;
 8/6=4,10=90,11=11/1;
 11/6=1,8=1,9=11,15=111,16=1/1,2,10;
 10/6=1/2;
 6/7=2,8=2,9=2,10=2,18=1,28=1/1;
 7/8=1,10=1,25=1/1,2,3,16;
 1/10=4,30=1/3;
 99//99;
 Leave Link    1 at Tue Nov  1 19:56:42 2016, MaxMem=           0 cpu:         0.1
 (Enter /home/proyectos/fulerenos/M3C-v2.0/M3C-deps_CCC/g09-AM64L-G09RevC.01/l101.exe)
 ---------
 b3lyp opt
 ---------
 Symbolic Z-matrix:
 Charge =  1 Multiplicity = 4
 C                    -0.26335   1.10307  -0.71139 
 C                    -1.23553   0.21371  -0.47186 
 C                    -0.97134  -0.88953   0.23981 
 C                     0.97134   0.88953  -0.23982 
 C                     1.23553  -0.21371   0.47186 
 C                     0.26335  -1.10308   0.71139 
 
 NAtoms=      6 NQM=        6 NQMF=       0 NMMI=      0 NMMIF=      0
                NMic=       0 NMicF=      0.
                    Isotopes and Nuclear Properties:
 (Nuclear quadrupole moments (NQMom) in fm**2, nuclear magnetic moments (NMagM)
  in nuclear magnetons)

  Atom         1           2           3           4           5           6
 IAtWgt=          12          12          12          12          12          12
 AtmWgt=  12.0000000  12.0000000  12.0000000  12.0000000  12.0000000  12.0000000
 NucSpn=           0           0           0           0           0           0
 AtZEff=   0.0000000   0.0000000   0.0000000   0.0000000   0.0000000   0.0000000
 NQMom=    0.0000000   0.0000000   0.0000000   0.0000000   0.0000000   0.0000000
 NMagM=    0.0000000   0.0000000   0.0000000   0.0000000   0.0000000   0.0000000
 AtZNuc=   6.0000000   6.0000000   6.0000000   6.0000000   6.0000000   6.0000000
 Leave Link  101 at Tue Nov  1 19:56:42 2016, MaxMem=    33554432 cpu:         0.2
 (Enter /home/proyectos/fulerenos/M3C-v2.0/M3C-deps_CCC/g09-AM64L-G09RevC.01/l103.exe)

 GradGradGradGradGradGradGradGradGradGradGradGradGradGradGradGradGradGrad
 Berny optimization.
 Initialization pass.
 Trust Radius=3.00D-01 FncErr=1.00D-07 GrdErr=1.00D-07
 Number of steps in this run=      2 maximum allowed number of steps=      2.
 GradGradGradGradGradGradGradGradGradGradGradGradGradGradGradGradGradGrad

 Leave Link  103 at Tue Nov  1 19:56:42 2016, MaxMem=    33554432 cpu:         0.0
 (Enter /home/proyectos/fulerenos/M3C-v2.0/M3C-deps_CCC/g09-AM64L-G09RevC.01/l202.exe)
                          Input orientation:                          
 ---------------------------------------------------------------------
 Center     Atomic      Atomic             Coordinates (Angstroms)
 Number     Number       Type             X           Y           Z
 ---------------------------------------------------------------------
      1          6           0       -0.263351    1.103072   -0.711390
      2          6           0       -1.235530    0.213711   -0.471858
      3          6           0       -0.971339   -0.889527    0.239813
      4          6           0        0.971339    0.889533   -0.239817
      5          6           0        1.235534   -0.213713    0.471860
      6          6           0        0.263345   -1.103078    0.711391
 ---------------------------------------------------------------------
                    Distance matrix (angstroms):
                    1          2          3          4          5
     1  C    0.000000
     2  C    1.339205   0.000000
     3  C    2.318725   1.339181   0.000000
     4  C    1.338820   2.319666   2.677517   0.000000
     5  C    2.319625   2.679450   2.319668   1.339192   0.000000
     6  C    2.677464   2.319620   1.338818   2.318739   1.339215
                    6
     6  C    0.000000
 Stoichiometry    C6(1+,4)
 Framework group  C2H[SGH(C6)]
 Deg. of freedom     5
 Full point group                 C2H     NOp   4
 Largest Abelian subgroup         C2H     NOp   4
 Largest concise Abelian subgroup C2      NOp   2
                         Standard orientation:                         
 ---------------------------------------------------------------------
 Center     Atomic      Atomic             Coordinates (Angstroms)
 Number     Number       Type             X           Y           Z
 ---------------------------------------------------------------------
      1          6           0        1.159362   -0.669387   -0.000000
      2          6           0       -0.000001   -1.339722   -0.000000
      3          6           0       -1.159363   -0.669435   -0.000000
      4          6           0        1.159363    0.669435    0.000000
      5          6           0        0.000001    1.339722    0.000000
      6          6           0       -1.159362    0.669387   -0.000000
 ---------------------------------------------------------------------
 Rotational constants (GHZ):      7.8331729      7.8249124      3.9145202
 Leave Link  202 at Tue Nov  1 19:56:42 2016, MaxMem=    33554432 cpu:         0.0
 (Enter /home/proyectos/fulerenos/M3C-v2.0/M3C-deps_CCC/g09-AM64L-G09RevC.01/l301.exe)
 Standard basis: 6-311+G(3df) (5D, 7F)
 Ernie: Thresh=  0.10000D-02 Tol=  0.10000D-05 Strict=F.
 There are    93 symmetry adapted cartesian basis functions of AG  symmetry.
 There are    42 symmetry adapted cartesian basis functions of BG  symmetry.
 There are    42 symmetry adapted cartesian basis functions of AU  symmetry.
 There are    93 symmetry adapted cartesian basis functions of BU  symmetry.
 There are    78 symmetry adapted basis functions of AG  symmetry.
 There are    39 symmetry adapted basis functions of BG  symmetry.
 There are    39 symmetry adapted basis functions of AU  symmetry.
 There are    78 symmetry adapted basis functions of BU  symmetry.
   234 basis functions,   348 primitive gaussians,   270 cartesian basis functions
    19 alpha electrons       16 beta electrons
       nuclear repulsion energy       155.9816875046 Hartrees.
 IExCor=  402 DFT=T Ex+Corr=B3LYP ExCW=0 ScaHFX=  0.200000
 ScaDFX=  0.800000  0.720000  1.000000  0.810000 ScalE2=  1.000000  1.000000
 IRadAn=      0 IRanWt=     -1 IRanGd=            0 ICorTp=0 IEmpDi=  4
 NAtoms=    6 NActive=    6 NUniq=    3 SFac= 4.00D+00 NAtFMM=   60 NAOKFM=F Big=F
 Integral buffers will be    131072 words long.
 Raffenetti 2 integral format.
 Two-electron integral symmetry is turned on.
 Leave Link  301 at Tue Nov  1 19:56:42 2016, MaxMem=    33554432 cpu:         0.2
 (Enter /home/proyectos/fulerenos/M3C-v2.0/M3C-deps_CCC/g09-AM64L-G09RevC.01/l302.exe)
 NPDir=0 NMtPBC=     1 NCelOv=     1 NCel=       1 NClECP=     1 NCelD=      1
         NCelK=      1 NCelE2=     1 NClLst=     1 CellRange=     0.0.
 One-electron integrals computed using PRISM.
 One-electron integral symmetry used in STVInt
 NBasis=   234 RedAO= T EigKep=  1.89D-06  NBF=    78    39    39    78
 NBsUse=   234 1.00D-06 EigRej= -1.00D+00 NBFU=    78    39    39    78
 Precomputing XC quadrature grid using
 IXCGrd= 4 IRadAn=           0 IRanWt=          -1 IRanGd=           0 AccXCQ= 0.00D+00.
 Generated NRdTot=       0 NPtTot=           0 NUsed=           0 NTot=          32
 NSgBfM=   270   270   270   270   270 MxSgAt=     6 MxSgA2=     6.
 Leave Link  302 at Tue Nov  1 19:56:42 2016, MaxMem=    33554432 cpu:         0.8
 (Enter /home/proyectos/fulerenos/M3C-v2.0/M3C-deps_CCC/g09-AM64L-G09RevC.01/l303.exe)
 DipDrv:  MaxL=1.
 Leave Link  303 at Tue Nov  1 19:56:42 2016, MaxMem=    33554432 cpu:         0.1
 (Enter /home/proyectos/fulerenos/M3C-v2.0/M3C-deps_CCC/g09-AM64L-G09RevC.01/l401.exe)
 ExpMin= 4.38D-02 ExpMax= 4.56D+03 ExpMxC= 6.82D+02 IAcc=2 IRadAn=         4 AccDes= 0.00D+00
 Harris functional with IExCor=  402 and IRadAn=       4 diagonalized for initial guess.
 HarFok:  IExCor=  402 AccDes= 0.00D+00 IRadAn=         4 IDoV= 1 UseB2=F ITyADJ=14
 ICtDFT=  3500011 ScaDFX=  1.000000  1.000000  1.000000  1.000000
 FoFCou: FMM=F IPFlag=           0 FMFlag=      100000 FMFlg1=           0
         NFxFlg=           0 DoJE=T BraDBF=F KetDBF=T FulRan=T
         wScrn=  0.000000 ICntrl=     500 IOpCl=  0 I1Cent=   200000004 NGrid=           0
         NMat0=    1 NMatS0=      1 NMatT0=    0 NMatD0=    1 NMtDS0=    0 NMtDT0=    0
 Petite list used in FoFCou.
 Harris En= -227.933810583196    
 JPrj=0 DoOrth=F DoCkMO=F.
 Initial guess orbital symmetries:
 Alpha Orbitals:
       Occupied  (AG) (BU) (BU) (AG) (AG) (BU) (AG) (BU) (BU) (AG)
                 (AG) (BU) (AU) (AG) (BG) (BG) (BU) (BU) (BU)
       Virtual   (AG) (AG) (AU) (AU) (AG) (BU) (BU) (AU) (BG) (AG)
                 (AG) (AG) (BG) (BG) (BU) (BU) (AU) (AU) (BU) (BU)
                 (AG) (AG) (BG) (AG) (AG) (BU) (BU) (AG) (AG) (AU)
                 (BU) (AG) (BU) (BU) (AG) (BU) (BU) (AG) (BU) (BG)
                 (BG) (BG) (BU) (BU) (AU) (AG) (AG) (BU) (AG) (AG)
                 (AU) (AU) (AG) (AG) (AG) (AG) (BU) (AU) (AU) (BG)
                 (BG) (BG) (BU) (BU) (BU) (AU) (AU) (BG) (BG) (BU)
                 (AG) (BU) (BU) (AG) (BG) (AG) (AG) (AU) (BU) (BU)
                 (AG) (AG) (BG) (BU) (BU) (AG) (BU) (AG) (AG) (AU)
                 (AG) (BG) (BG) (AU) (AU) (BU) (BU) (AG) (BU) (BU)
                 (AG) (AG) (AU) (AU) (BU) (BU) (BG) (BG) (BG) (AG)
                 (AG) (BU) (BU) (BU) (AU) (AG) (AG) (AG) (AU) (AG)
                 (AU) (BG) (BG) (BU) (BU) (BU) (AU) (AU) (BG) (AG)
                 (BG) (BG) (AU) (AG) (AG) (BG) (BU) (BU) (BU) (AU)
                 (AU) (AG) (AG) (BU) (BG) (BG) (AG) (AG) (BU) (BU)
                 (BU) (BU) (AG) (AU) (AU) (BU) (BU) (AG) (AG) (AG)
                 (BG) (BU) (AG) (AG) (BG) (BG) (AG) (AG) (AU) (AU)
                 (BU) (BU) (BU) (AU) (BG) (BU) (BU) (AG) (AG) (AU)
                 (BU) (BU) (BG) (BG) (AG) (BG) (AG) (AG) (AU) (AU)
                 (BU) (BU) (BU) (AU) (AU) (AG) (AG) (BG) (BG) (BG)
                 (AU) (BU) (AG) (BU) (BU) (BU) (AG) (AG) (AG) (AG)
                 (BU) (BU) (AG) (AG) (BU)
 Beta  Orbitals:
       Occupied  (AG) (BU) (BU) (AG) (AG) (BU) (AG) (BU) (BU) (AG)
                 (AG) (BU) (AU) (AG) (BG) (BG)
       Virtual   (BU) (BU) (BU) (AG) (AG) (AU) (AU) (AG) (BU) (BU)
                 (AU) (BG) (AG) (AG) (AG) (BG) (BG) (BU) (BU) (AU)
                 (AU) (BU) (BU) (AG) (AG) (BG) (AG) (AG) (BU) (BU)
                 (AG) (AG) (AU) (BU) (AG) (BU) (BU) (AG) (BU) (BU)
                 (AG) (BU) (BG) (BG) (BG) (BU) (BU) (AU) (AG) (AG)
                 (BU) (AG) (AG) (AU) (AU) (AG) (AG) (AG) (AG) (BU)
                 (AU) (AU) (BG) (BG) (BG) (BU) (BU) (BU) (AU) (AU)
                 (BG) (BG) (BU) (AG) (BU) (BU) (AG) (BG) (AG) (AG)
                 (AU) (BU) (BU) (AG) (AG) (BG) (BU) (BU) (AG) (BU)
                 (AG) (AG) (AU) (AG) (BG) (BG) (AU) (AU) (BU) (BU)
                 (AG) (BU) (BU) (AG) (AG) (AU) (AU) (BU) (BU) (BG)
                 (BG) (BG) (AG) (AG) (BU) (BU) (BU) (AU) (AG) (AG)
                 (AG) (AU) (AG) (AU) (BG) (BG) (BU) (BU) (BU) (AU)
                 (AU) (BG) (AG) (BG) (BG) (AU) (AG) (AG) (BG) (BU)
                 (BU) (BU) (AU) (AU) (AG) (AG) (BU) (BG) (BG) (AG)
                 (AG) (BU) (BU) (BU) (BU) (AG) (AU) (AU) (BU) (BU)
                 (AG) (AG) (AG) (BG) (BU) (AG) (AG) (BG) (BG) (AG)
                 (AG) (AU) (AU) (BU) (BU) (BU) (AU) (BG) (BU) (BU)
                 (AG) (AG) (AU) (BU) (BU) (BG) (BG) (AG) (BG) (AG)
                 (AG) (AU) (AU) (BU) (BU) (BU) (AU) (AU) (AG) (AG)
                 (BG) (BG) (BG) (AU) (BU) (AG) (BU) (BU) (BU) (AG)
                 (AG) (AG) (AG) (BU) (BU) (AG) (AG) (BU)
 The electronic state of the initial guess is 4-BU.
 Initial guess <Sx>= 0.0000 <Sy>= 0.0000 <Sz>= 1.5000 <S**2>= 3.7500 S= 1.5000
 Leave Link  401 at Tue Nov  1 19:56:43 2016, MaxMem=    33554432 cpu:         1.3
 (Enter /home/proyectos/fulerenos/M3C-v2.0/M3C-deps_CCC/g09-AM64L-G09RevC.01/l502.exe)
 UHF open shell SCF:
 Using DIIS extrapolation, IDIIS=  1040.
 Integral symmetry usage will be decided dynamically.
 IVT=      241198 IEndB=      241198 NGot=    33554432 MDV=    33403045
 LenX=    33403045 LenY=    33329704
 Requested convergence on RMS density matrix=1.00D-08 within 128 cycles.
 Requested convergence on MAX density matrix=1.00D-06.
 Requested convergence on             energy=1.00D-06.
 No special actions if energy rises.
 Fock matrices will be formed incrementally for  20 cycles.

 Cycle   1  Pass 1  IDiag  1:
 FoFJK:  IHMeth= 1 ICntrl=       0 DoSepK=F KAlg= 0 I1Cent=   0 FoldK=F
 IRaf= 990000000 NMat=   1 IRICut=       1 DoRegI=T DoRafI=F ISym2E= 1.
 FoFCou: FMM=F IPFlag=           0 FMFlag=      100000 FMFlg1=           0
         NFxFlg=           0 DoJE=F BraDBF=F KetDBF=F FulRan=T
         wScrn=  0.000000 ICntrl=       0 IOpCl=  1 I1Cent=           0 NGrid=           0
         NMat0=    1 NMatS0=      1 NMatT0=    0 NMatD0=    1 NMtDS0=    0 NMtDT0=    0
 Petite list used in FoFCou.
 E= -227.853957517271    
 DIIS: error= 2.51D-02 at cycle   1 NSaved=   1.
 NSaved= 1 IEnMin= 1 EnMin= -227.853957517271     IErMin= 1 ErrMin= 2.51D-02
 ErrMax= 2.51D-02  0.00D+00 EMaxC= 1.00D-01 BMatC= 2.00D-01 BMatP= 2.00D-01
 IDIUse=3 WtCom= 7.49D-01 WtEn= 2.51D-01
 Coeff-Com:  0.100D+01
 Coeff-En:   0.100D+01
 Coeff:      0.100D+01
 Gap=     0.098 Goal=   None    Shift=    0.000
 Gap=     0.095 Goal=   None    Shift=    0.000
 GapD=    0.095 DampG=0.500 DampE=0.500 DampFc=0.2500 IDamp=-1.
 Damping current iteration by 2.50D-01
 RMSDP=2.57D-02 MaxDP=1.19D+00              OVMax= 1.08D-01

 Cycle   2  Pass 1  IDiag  1:
 RMSU=  3.30D-03    CP:  8.96D-01
 E= -227.866334505148     Delta-E=       -0.012376987877 Rises=F Damp=T
 DIIS: error= 1.39D-02 at cycle   2 NSaved=   2.
 NSaved= 2 IEnMin= 2 EnMin= -227.866334505148     IErMin= 2 ErrMin= 1.39D-02
 ErrMax= 1.39D-02  0.00D+00 EMaxC= 1.00D-01 BMatC= 8.26D-02 BMatP= 2.00D-01
 IDIUse=3 WtCom= 8.61D-01 WtEn= 1.39D-01
 Coeff-Com: -0.151D+01 0.251D+01
 Coeff-En:   0.000D+00 0.100D+01
 Coeff:     -0.130D+01 0.230D+01
 Gap=     0.093 Goal=   None    Shift=    0.000
 Gap=     0.102 Goal=   None    Shift=    0.000
 RMSDP=2.28D-02 MaxDP=1.05D+00 DE=-1.24D-02 OVMax= 3.79D-02

 Cycle   3  Pass 1  IDiag  1:
 RMSU=  4.66D-03    CP:  5.23D-01  3.00D+00
 E= -227.893771689450     Delta-E=       -0.027437184302 Rises=F Damp=F
 DIIS: error= 2.62D-03 at cycle   3 NSaved=   3.
 NSaved= 3 IEnMin= 3 EnMin= -227.893771689450     IErMin= 3 ErrMin= 2.62D-03
 ErrMax= 2.62D-03  0.00D+00 EMaxC= 1.00D-01 BMatC= 1.30D-03 BMatP= 8.26D-02
 IDIUse=3 WtCom= 9.74D-01 WtEn= 2.62D-02
 Coeff-Com: -0.294D+00 0.389D+00 0.905D+00
 Coeff-En:   0.000D+00 0.000D+00 0.100D+01
 Coeff:     -0.286D+00 0.379D+00 0.907D+00
 Gap=     0.095 Goal=   None    Shift=    0.000
 Gap=     0.103 Goal=   None    Shift=    0.000
 RMSDP=1.13D-03 MaxDP=4.49D-02 DE=-2.74D-02 OVMax= 8.37D-03

 Cycle   4  Pass 1  IDiag  1:
 RMSU=  3.25D-04    CP:  5.04D-01  3.00D+00  1.09D+00
 E= -227.894130669253     Delta-E=       -0.000358979804 Rises=F Damp=F
 DIIS: error= 4.11D-04 at cycle   4 NSaved=   4.
 NSaved= 4 IEnMin= 4 EnMin= -227.894130669253     IErMin= 4 ErrMin= 4.11D-04
 ErrMax= 4.11D-04  0.00D+00 EMaxC= 1.00D-01 BMatC= 4.37D-05 BMatP= 1.30D-03
 IDIUse=3 WtCom= 9.96D-01 WtEn= 4.11D-03
 Coeff-Com:  0.243D-01-0.432D-01 0.102D+00 0.916D+00
 Coeff-En:   0.000D+00 0.000D+00 0.000D+00 0.100D+01
 Coeff:      0.242D-01-0.430D-01 0.102D+00 0.917D+00
 Gap=     0.095 Goal=   None    Shift=    0.000
 Gap=     0.104 Goal=   None    Shift=    0.000
 RMSDP=6.27D-05 MaxDP=2.86D-03 DE=-3.59D-04 OVMax= 1.13D-03

 Cycle   5  Pass 1  IDiag  1:
 RMSU=  3.08D-05    CP:  5.03D-01  3.00D+00  1.09D+00  9.99D-01
 E= -227.894140975115     Delta-E=       -0.000010305862 Rises=F Damp=F
 DIIS: error= 1.50D-04 at cycle   5 NSaved=   5.
 NSaved= 5 IEnMin= 5 EnMin= -227.894140975115     IErMin= 5 ErrMin= 1.50D-04
 ErrMax= 1.50D-04  0.00D+00 EMaxC= 1.00D-01 BMatC= 5.05D-06 BMatP= 4.37D-05
 IDIUse=3 WtCom= 9.99D-01 WtEn= 1.50D-03
 Coeff-Com:  0.242D-01-0.344D-01-0.152D-01 0.250D+00 0.776D+00
 Coeff-En:   0.000D+00 0.000D+00 0.000D+00 0.000D+00 0.100D+01
 Coeff:      0.241D-01-0.344D-01-0.152D-01 0.249D+00 0.776D+00
 Gap=     0.095 Goal=   None    Shift=    0.000
 Gap=     0.104 Goal=   None    Shift=    0.000
 RMSDP=6.37D-05 MaxDP=2.76D-03 DE=-1.03D-05 OVMax= 6.55D-04

 Cycle   6  Pass 1  IDiag  1:
 RMSU=  1.79D-05    CP:  5.02D-01  3.00D+00  1.10D+00  1.02D+00  9.15D-01
 E= -227.894141471741     Delta-E=       -0.000000496626 Rises=F Damp=F
 DIIS: error= 1.34D-04 at cycle   6 NSaved=   6.
 NSaved= 6 IEnMin= 6 EnMin= -227.894141471741     IErMin= 6 ErrMin= 1.34D-04
 ErrMax= 1.34D-04  0.00D+00 EMaxC= 1.00D-01 BMatC= 3.63D-06 BMatP= 5.05D-06
 IDIUse=3 WtCom= 9.99D-01 WtEn= 1.34D-03
 Coeff-Com:  0.128D-01-0.173D-01-0.213D-01 0.608D-01 0.499D+00 0.466D+00
 Coeff-En:   0.000D+00 0.000D+00 0.000D+00 0.000D+00 0.387D+00 0.613D+00
 Coeff:      0.128D-01-0.172D-01-0.213D-01 0.607D-01 0.499D+00 0.466D+00
 Gap=     0.095 Goal=   None    Shift=    0.000
 Gap=     0.104 Goal=   None    Shift=    0.000
 RMSDP=1.63D-05 MaxDP=6.75D-04 DE=-4.97D-07 OVMax= 3.41D-04

 Cycle   7  Pass 1  IDiag  1:
 RMSU=  4.92D-06    CP:  5.02D-01  3.00D+00  1.10D+00  1.02D+00  1.05D+00
                    CP:  6.88D-01
 E= -227.894142375354     Delta-E=       -0.000000903612 Rises=F Damp=F
 DIIS: error= 1.21D-05 at cycle   7 NSaved=   7.
 NSaved= 7 IEnMin= 7 EnMin= -227.894142375354     IErMin= 7 ErrMin= 1.21D-05
 ErrMax= 1.21D-05  0.00D+00 EMaxC= 1.00D-01 BMatC= 2.36D-08 BMatP= 3.63D-06
 IDIUse=1 WtCom= 1.00D+00 WtEn= 0.00D+00
 Coeff-Com: -0.240D-02 0.330D-02 0.248D-03-0.160D-01-0.735D-01-0.657D-02
 Coeff-Com:  0.109D+01
 Coeff:     -0.240D-02 0.330D-02 0.248D-03-0.160D-01-0.735D-01-0.657D-02
 Coeff:      0.109D+01
 Gap=     0.095 Goal=   None    Shift=    0.000
 Gap=     0.104 Goal=   None    Shift=    0.000
 RMSDP=2.71D-06 MaxDP=1.04D-04 DE=-9.04D-07 OVMax= 5.15D-05

 Cycle   8  Pass 1  IDiag  1:
 RMSU=  3.96D-07    CP:  5.02D-01  3.00D+00  1.10D+00  1.02D+00  1.06D+00
                    CP:  7.14D-01  9.95D-01
 E= -227.894142383577     Delta-E=       -0.000000008223 Rises=F Damp=F
 DIIS: error= 1.07D-06 at cycle   8 NSaved=   8.
 NSaved= 8 IEnMin= 8 EnMin= -227.894142383577     IErMin= 8 ErrMin= 1.07D-06
 ErrMax= 1.07D-06  0.00D+00 EMaxC= 1.00D-01 BMatC= 1.12D-10 BMatP= 2.36D-08
 IDIUse=1 WtCom= 1.00D+00 WtEn= 0.00D+00
 Coeff-Com:  0.134D-03-0.190D-03 0.277D-03 0.160D-02 0.523D-02-0.490D-02
 Coeff-Com: -0.174D+00 0.117D+01
 Coeff:      0.134D-03-0.190D-03 0.277D-03 0.160D-02 0.523D-02-0.490D-02
 Coeff:     -0.174D+00 0.117D+01
 Gap=     0.095 Goal=   None    Shift=    0.000
 Gap=     0.104 Goal=   None    Shift=    0.000
 RMSDP=1.40D-07 MaxDP=7.12D-06 DE=-8.22D-09 OVMax= 3.62D-06

 Cycle   9  Pass 1  IDiag  1:
 RMSU=  4.87D-08    CP:  5.02D-01  3.00D+00  1.10D+00  1.02D+00  1.05D+00
                    CP:  7.12D-01  9.93D-01  1.10D+00
 E= -227.894142383628     Delta-E=       -0.000000000052 Rises=F Damp=F
 DIIS: error= 6.97D-08 at cycle   9 NSaved=   9.
 NSaved= 9 IEnMin= 9 EnMin= -227.894142383628     IErMin= 9 ErrMin= 6.97D-08
 ErrMax= 6.97D-08  0.00D+00 EMaxC= 1.00D-01 BMatC= 6.07D-13 BMatP= 1.12D-10
 IDIUse=1 WtCom= 1.00D+00 WtEn= 0.00D+00
 Coeff-Com:  0.542D-05-0.633D-05-0.304D-04-0.529D-04-0.198D-03 0.412D-03
 Coeff-Com:  0.111D-01-0.111D+00 0.110D+01
 Coeff:      0.542D-05-0.633D-05-0.304D-04-0.529D-04-0.198D-03 0.412D-03
 Coeff:      0.111D-01-0.111D+00 0.110D+01
 Gap=     0.095 Goal=   None    Shift=    0.000
 Gap=     0.104 Goal=   None    Shift=    0.000
 RMSDP=2.05D-08 MaxDP=8.77D-07 DE=-5.16D-11 OVMax= 2.03D-07

 Cycle  10  Pass 1  IDiag  1:
 RMSU=  3.40D-09    CP:  5.02D-01  3.00D+00  1.10D+00  1.02D+00  1.05D+00
                    CP:  7.12D-01  9.93D-01  1.09D+00  1.05D+00
 E= -227.894142383632     Delta-E=       -0.000000000003 Rises=F Damp=F
 DIIS: error= 1.41D-08 at cycle  10 NSaved=  10.
 NSaved=10 IEnMin=10 EnMin= -227.894142383632     IErMin=10 ErrMin= 1.41D-08
 ErrMax= 1.41D-08  0.00D+00 EMaxC= 1.00D-01 BMatC= 4.74D-14 BMatP= 6.07D-13
 IDIUse=1 WtCom= 1.00D+00 WtEn= 0.00D+00
 Coeff-Com:  0.223D-07 0.232D-06-0.987D-05-0.258D-04-0.740D-04 0.153D-03
 Coeff-Com:  0.400D-02-0.365D-01 0.246D+00 0.787D+00
 Coeff:      0.223D-07 0.232D-06-0.987D-05-0.258D-04-0.740D-04 0.153D-03
 Coeff:      0.400D-02-0.365D-01 0.246D+00 0.787D+00
 Gap=     0.095 Goal=   None    Shift=    0.000
 Gap=     0.104 Goal=   None    Shift=    0.000
 RMSDP=2.19D-09 MaxDP=1.12D-07 DE=-3.18D-12 OVMax= 7.29D-08

 SCF Done:  E(UB3LYP) =  -227.894142384     A.U. after   10 cycles
            NFock= 10  Conv=0.22D-08     -V/T= 2.0042
 <Sx>= 0.0000 <Sy>= 0.0000 <Sz>= 1.5000 <S**2>= 3.7640 S= 1.5035
 <L.S>= 0.000000000000E+00
 KE= 2.269464627161D+02 PE=-8.317364661989D+02 EE= 2.209141735945D+02
 Annihilation of the first spin contaminant:
 S**2 before annihilation     3.7640,   after     3.7501
 Leave Link  502 at Tue Nov  1 19:57:19 2016, MaxMem=    33554432 cpu:       144.2
 (Enter /home/proyectos/fulerenos/M3C-v2.0/M3C-deps_CCC/g09-AM64L-G09RevC.01/l801.exe)
 DoSCS=F DFT=T ScalE2(SS,OS)=  1.000000  1.000000
 Range of M.O.s used for correlation:     1   234
 NBasis=   234 NAE=    19 NBE=    16 NFC=     0 NFV=     0
 NROrb=    234 NOA=    19 NOB=    16 NVA=   215 NVB=   218

 **** Warning!!: The largest alpha MO coefficient is  0.28476296D+03


 **** Warning!!: The smallest alpha delta epsilon is  0.95181783D-01


 **** Warning!!: The largest beta MO coefficient is  0.28473637D+03

 Leave Link  801 at Tue Nov  1 19:57:19 2016, MaxMem=    33554432 cpu:         0.1
 (Enter /home/proyectos/fulerenos/M3C-v2.0/M3C-deps_CCC/g09-AM64L-G09RevC.01/l1101.exe)
 Using compressed storage, NAtomX=     6.
 Will process      7 centers per pass.
 Leave Link 1101 at Tue Nov  1 19:57:19 2016, MaxMem=    33554432 cpu:         0.8
 (Enter /home/proyectos/fulerenos/M3C-v2.0/M3C-deps_CCC/g09-AM64L-G09RevC.01/l1102.exe)
 Symmetrizing basis deriv contribution to polar:
 IMax=3 JMax=2 DiffMx= 0.00D+00
 Leave Link 1102 at Tue Nov  1 19:57:19 2016, MaxMem=    33554432 cpu:         0.1
 (Enter /home/proyectos/fulerenos/M3C-v2.0/M3C-deps_CCC/g09-AM64L-G09RevC.01/l1110.exe)
 Forming Gx(P) for the SCF density, NAtomX=     6.
 Integral derivatives from FoFJK, PRISM(SPDF).
 Do as many integral derivatives as possible in FoFJK.
 G2DrvN: MDV=      33554280.
 G2DrvN: will do     7 centers at a time, making    1 passes.
 Calling FoFCou, ICntrl=  3107 FMM=F I1Cent=   0 AccDes= 0.00D+00.
 FoFJK:  IHMeth= 1 ICntrl=    3107 DoSepK=F KAlg= 0 I1Cent=   0 FoldK=F
 IRaf=         0 NMat=   1 IRICut=       1 DoRegI=T DoRafI=F ISym2E= 1.
 FoFCou: FMM=F IPFlag=           0 FMFlag=      100000 FMFlg1=           0
         NFxFlg=           0 DoJE=F BraDBF=F KetDBF=F FulRan=T
         wScrn=  0.000000 ICntrl=    3107 IOpCl=  1 I1Cent=           0 NGrid=           0
         NMat0=    1 NMatS0=      1 NMatT0=    0 NMatD0=    1 NMtDS0=    0 NMtDT0=    0
 Petite list used in FoFCou.
 End of G2Drv F.D. properties file   721 does not exist.
 End of G2Drv F.D. properties file   722 does not exist.
 End of G2Drv F.D. properties file   788 does not exist.
 Leave Link 1110 at Tue Nov  1 19:57:43 2016, MaxMem=    33554432 cpu:        96.1
 (Enter /home/proyectos/fulerenos/M3C-v2.0/M3C-deps_CCC/g09-AM64L-G09RevC.01/l1002.exe)
 Minotr:  UHF open shell wavefunction.
          IDoAtm=111111
          Direct CPHF calculation.
          Differentiating once with respect to electric field.
                with respect to dipole field.
          Differentiating once with respect to nuclear coordinates.
          Using symmetry in CPHF.
          Requested convergence is 1.0D-08 RMS, and 1.0D-07 maximum.
          Secondary convergence is 1.0D-12 RMS, and 1.0D-12 maximum.
          NewPWx=T KeepS1=F KeepF1=F KeepIn=T MapXYZ=F SortEE=F KeepMc=T.
          MDV=      33553900 using IRadAn=       2.
 Generate precomputed XC quadrature information.
          Solving linear equations simultaneously, MaxMat=       0.
 FoFJK:  IHMeth= 1 ICntrl=       0 DoSepK=F KAlg= 0 I1Cent=   0 FoldK=F
 IRaf= 990000000 NMat=  12 IRICut=      30 DoRegI=T DoRafI=T ISym2E= 2.
 FoFCou: FMM=F IPFlag=           0 FMFlag=      100000 FMFlg1=           0
         NFxFlg=           0 DoJE=F BraDBF=F KetDBF=F FulRan=T
         wScrn=  0.000000 ICntrl=       0 IOpCl=  1 I1Cent=           0 NGrid=           0
         NMat0=   12 NMatS0=     12 NMatT0=    0 NMatD0=   12 NMtDS0=    0 NMtDT0=    0
 Integrals replicated using symmetry in FoFCou.
          There are    12 degrees of freedom in the 1st order CPHF.  IDoFFX=4 NUNeed=    12.
     12 vectors produced by pass  0 Test12= 6.31D-14 8.33D-09 XBig12= 9.52D+02 2.35D+01.
 AX will form    12 AO Fock derivatives at one time.
     12 vectors produced by pass  1 Test12= 6.31D-14 8.33D-09 XBig12= 3.87D+02 5.52D+00.
     12 vectors produced by pass  2 Test12= 6.31D-14 8.33D-09 XBig12= 2.27D+01 1.13D+00.
     12 vectors produced by pass  3 Test12= 6.31D-14 8.33D-09 XBig12= 2.20D+00 4.38D-01.
     12 vectors produced by pass  4 Test12= 6.31D-14 8.33D-09 XBig12= 3.95D-02 4.58D-02.
     12 vectors produced by pass  5 Test12= 6.31D-14 8.33D-09 XBig12= 8.54D-04 7.62D-03.
     12 vectors produced by pass  6 Test12= 6.31D-14 8.33D-09 XBig12= 1.68D-05 8.98D-04.
     12 vectors produced by pass  7 Test12= 6.31D-14 8.33D-09 XBig12= 1.37D-07 8.42D-05.
     12 vectors produced by pass  8 Test12= 6.31D-14 8.33D-09 XBig12= 1.70D-09 1.33D-05.
      8 vectors produced by pass  9 Test12= 6.31D-14 8.33D-09 XBig12= 1.61D-11 9.22D-07.
      4 vectors produced by pass 10 Test12= 6.31D-14 8.33D-09 XBig12= 2.23D-13 1.97D-07.
      2 vectors produced by pass 11 Test12= 6.31D-14 8.33D-09 XBig12= 1.53D-13 1.38D-07.
      2 vectors produced by pass 12 Test12= 6.31D-14 8.33D-09 XBig12= 4.72D-15 2.96D-08.
 InvSVY:  IOpt=1 It=  1 EMax= 7.11D-15
 Solved reduced A of dimension   124 with    12 vectors.
 FullF1:  Do perturbations    1 to    12.
 Isotropic polarizability for W=    0.000000       65.93 Bohr**3.
 End of Minotr F.D. properties file   721 does not exist.
 End of Minotr F.D. properties file   722 does not exist.
 End of Minotr F.D. properties file   788 does not exist.
 Leave Link 1002 at Tue Nov  1 20:00:34 2016, MaxMem=    33554432 cpu:       683.7
 (Enter /home/proyectos/fulerenos/M3C-v2.0/M3C-deps_CCC/g09-AM64L-G09RevC.01/l601.exe)
 Copying SCF densities to generalized density rwf, IOpCl= 1 IROHF=0.

 **********************************************************************

            Population analysis using the SCF density.

 **********************************************************************

 Orbital symmetries:
 Alpha Orbitals:
       Occupied  (AG) (BU) (BU) (AG) (AG) (BU) (AG) (BU) (BU) (AG)
                 (AG) (BU) (AG) (AU) (BU) (BU) (BG) (BG) (BU)
       Virtual   (AG) (AG) (AU) (AU) (AG) (AU) (BG) (BU) (BU) (AG)
                 (AG) (AG) (BG) (BG) (BU) (BU) (BU) (BU) (AU) (AU)
                 (AG) (AG) (BG) (AU) (AG) (AG) (AG) (AG) (BU) (BU)
                 (BU) (BU) (BU) (AG) (AG) (BU) (BU) (AG) (BU) (BG)
                 (BG) (BG) (BU) (BU) (AU) (AG) (AG) (BU) (AG) (AG)
                 (AU) (AU) (AG) (AG) (AU) (AU) (BG) (BG) (AG) (AG)
                 (BG) (BU) (BU) (BU) (BU) (AU) (AU) (BG) (BG) (BU)
                 (AG) (BU) (BU) (AG) (BG) (AU) (AG) (AG) (BU) (BU)
                 (AG) (AG) (BU) (BU) (BG) (AG) (BU) (AG) (AG) (AU)
                 (AG) (BG) (BG) (BU) (AU) (AU) (BU) (AG) (BU) (BU)
                 (AG) (AG) (AU) (AU) (BU) (BU) (BG) (BG) (BG) (AG)
                 (AG) (BU) (BU) (BU) (AU) (AG) (AG) (AG) (AU) (AG)
                 (AU) (BG) (BG) (BU) (BU) (BU) (AU) (AU) (BG) (AG)
                 (BG) (BG) (AU) (AG) (AG) (BG) (BU) (AU) (AU) (BU)
                 (BU) (BU) (AG) (AG) (BG) (BG) (AG) (AG) (BU) (BU)
                 (BU) (BU) (AU) (AU) (AG) (BU) (BU) (AG) (AG) (AG)
                 (BG) (BU) (AG) (AG) (BG) (BG) (AG) (AG) (AU) (AU)
                 (BU) (BU) (BU) (AU) (BG) (BU) (BU) (AG) (AG) (AU)
                 (BU) (BU) (BG) (BG) (AG) (BG) (AU) (AU) (AG) (AG)
                 (BU) (BU) (BU) (AG) (AG) (AU) (AU) (BG) (BG) (BG)
                 (AU) (BU) (AG) (BU) (BU) (BU) (AG) (AG) (AG) (AG)
                 (BU) (BU) (AG) (AG) (BU)
 Beta  Orbitals:
       Occupied  (AG) (BU) (BU) (AG) (AG) (BU) (AG) (BU) (BU) (AG)
                 (AG) (BU) (AU) (AG) (BG) (BG)
       Virtual   (BU) (BU) (BU) (AG) (AG) (AU) (AU) (AG) (AU) (BU)
                 (BU) (AG) (BG) (AG) (AG) (BG) (BG) (BU) (BU) (BU)
                 (BU) (AU) (AU) (AG) (AG) (BG) (AG) (AG) (AU) (BU)
                 (BU) (AG) (AG) (BU) (BU) (BU) (AG) (AG) (BU) (BU)
                 (AG) (BU) (BG) (BG) (BG) (BU) (BU) (AU) (AG) (AG)
                 (BU) (AU) (AU) (AG) (AG) (AU) (AU) (BG) (BG) (AG)
                 (AG) (AG) (AG) (BG) (BU) (BU) (BU) (BU) (AU) (AU)
                 (BG) (BG) (BU) (AG) (BU) (BU) (AG) (BG) (AU) (AG)
                 (AG) (BU) (BU) (AG) (AG) (BG) (BU) (BU) (AG) (BU)
                 (AG) (AG) (AU) (AG) (AU) (AU) (BG) (BG) (BU) (BU)
                 (AG) (BU) (BU) (AG) (AG) (AU) (AU) (BU) (BU) (BG)
                 (BG) (BG) (AG) (AG) (BU) (BU) (BU) (AU) (AG) (AG)
                 (AG) (AU) (AG) (AU) (BG) (BG) (BU) (BU) (BU) (AU)
                 (AU) (BG) (BG) (BG) (AG) (AU) (AG) (AG) (BG) (BU)
                 (AU) (AU) (BU) (BU) (AG) (AG) (BU) (BG) (BG) (AG)
                 (AG) (BU) (BU) (BU) (BU) (AU) (AU) (AG) (BU) (BU)
                 (AG) (AG) (AG) (BG) (BU) (AG) (AG) (BG) (BG) (AG)
                 (AG) (AU) (AU) (BU) (AU) (BU) (BU) (BG) (BU) (BU)
                 (AG) (AG) (AU) (BU) (BU) (BG) (BG) (AG) (BG) (AG)
                 (AG) (AU) (AU) (BU) (BU) (BU) (AU) (AU) (AG) (AG)
                 (BG) (BG) (BG) (AU) (BU) (AG) (BU) (BU) (BU) (AG)
                 (AG) (AG) (AG) (BU) (BU) (AG) (AG) (BU)
 The electronic state is 4-BU.
 Alpha  occ. eigenvalues --  -10.52575 -10.52554 -10.52545 -10.52470 -10.52462
 Alpha  occ. eigenvalues --  -10.52427  -1.20366  -1.05582  -1.05571  -0.87773
 Alpha  occ. eigenvalues --   -0.87751  -0.77720  -0.70857  -0.68749  -0.57175
 Alpha  occ. eigenvalues --   -0.57160  -0.55992  -0.55991  -0.49749
 Alpha virt. eigenvalues --   -0.40231  -0.40188  -0.28235  -0.28214  -0.14211
 Alpha virt. eigenvalues --   -0.10341  -0.10039  -0.10038  -0.10036  -0.08325
 Alpha virt. eigenvalues --   -0.07215  -0.07211  -0.05795  -0.05786  -0.02852
 Alpha virt. eigenvalues --   -0.01758  -0.00562  -0.00543   0.00394   0.00397
 Alpha virt. eigenvalues --    0.02312   0.02315   0.06451   0.06690   0.06969
 Alpha virt. eigenvalues --    0.06973   0.09595   0.09596   0.09689   0.09700
 Alpha virt. eigenvalues --    0.11865   0.14736   0.14762   0.16987   0.17269
 Alpha virt. eigenvalues --    0.18637   0.18638   0.19512   0.20444   0.21637
 Alpha virt. eigenvalues --    0.24238   0.24243   0.26095   0.26106   0.29020
 Alpha virt. eigenvalues --    0.30740   0.30754   0.31980   0.33123   0.33125
 Alpha virt. eigenvalues --    0.33614   0.33617   0.38992   0.39871   0.40286
 Alpha virt. eigenvalues --    0.40290   0.41257   0.41282   0.41588   0.41591
 Alpha virt. eigenvalues --    0.42727   0.43068   0.53747   0.55211   0.55237
 Alpha virt. eigenvalues --    0.61696   0.61703   0.62559   0.62569   0.66274
 Alpha virt. eigenvalues --    0.71516   0.75644   0.75673   0.76543   0.80018
 Alpha virt. eigenvalues --    0.82522   0.83133   0.83135   0.85935   0.85942
 Alpha virt. eigenvalues --    0.90789   0.90798   1.00433   1.00434   1.01621
 Alpha virt. eigenvalues --    1.07727   1.08577   1.09794   1.09795   1.12704
 Alpha virt. eigenvalues --    1.15737   1.19265   1.19280   1.20639   1.21198
 Alpha virt. eigenvalues --    1.21220   1.22265   1.27099   1.30393   1.30469
 Alpha virt. eigenvalues --    1.51904   1.51976   1.58265   1.58273   1.60628
 Alpha virt. eigenvalues --    1.60678   1.76139   1.76171   1.76224   1.79907
 Alpha virt. eigenvalues --    1.79909   1.91354   2.01563   2.01615   2.13205
 Alpha virt. eigenvalues --    2.15104   2.18275   2.18309   2.20493   2.24121
 Alpha virt. eigenvalues --    2.35192   2.36682   2.36719   2.43803   2.50197
 Alpha virt. eigenvalues --    2.50277   2.53925   2.53960   2.54429   2.58630
 Alpha virt. eigenvalues --    2.58730   2.58752   2.63017   2.66331   2.66355
 Alpha virt. eigenvalues --    2.77467   2.80332   2.83414   2.83475   2.83807
 Alpha virt. eigenvalues --    2.83829   2.87517   2.87809   2.87900   3.07547
 Alpha virt. eigenvalues --    3.07554   3.12188   3.12221   3.16712   3.16804
 Alpha virt. eigenvalues --    3.20710   3.31399   3.42471   3.42600   3.46247
 Alpha virt. eigenvalues --    3.57093   3.57150   3.59494   3.59974   3.60084
 Alpha virt. eigenvalues --    3.72442   3.80972   3.86300   3.86425   4.06889
 Alpha virt. eigenvalues --    4.06930   4.09759   4.09837   4.21172   4.21384
 Alpha virt. eigenvalues --    4.40530   4.49747   4.49767   4.50621   4.78479
 Alpha virt. eigenvalues --    4.81404   4.81421   5.40358   6.48699   6.69409
 Alpha virt. eigenvalues --    6.70829   6.70867   6.71186   6.71191   6.72619
 Alpha virt. eigenvalues --    6.83931   6.84619   6.84624   6.85074   6.85077
 Alpha virt. eigenvalues --    6.96943   7.01184   7.01189   7.06865   7.06888
 Alpha virt. eigenvalues --    7.07902   7.07975   7.16898   7.30202   7.30225
 Alpha virt. eigenvalues --    7.56651   7.62708   7.65718   7.80675   8.02557
 Alpha virt. eigenvalues --    8.02615   8.12874   8.12994   9.27438  23.01356
 Alpha virt. eigenvalues --   25.02374  25.02526  25.45668  25.45962  25.93346
  Beta  occ. eigenvalues --  -10.51506 -10.51483 -10.51474 -10.51404 -10.51395
  Beta  occ. eigenvalues --  -10.51361  -1.17589  -1.02780  -1.02768  -0.85394
  Beta  occ. eigenvalues --   -0.85372  -0.76744  -0.67554  -0.61825  -0.54567
  Beta  occ. eigenvalues --   -0.54566
  Beta virt. eigenvalues --   -0.44197  -0.44182  -0.36197  -0.31013  -0.30974
  Beta virt. eigenvalues --   -0.26354  -0.26335  -0.13919  -0.10293  -0.09308
  Beta virt. eigenvalues --   -0.09307  -0.08018  -0.07400  -0.06458  -0.06454
  Beta virt. eigenvalues --   -0.05734  -0.05725  -0.02728  -0.01304  -0.00445
  Beta virt. eigenvalues --   -0.00426   0.00466   0.00470   0.03149   0.03149
  Beta virt. eigenvalues --    0.06675   0.07413   0.07413   0.07774   0.10419
  Beta virt. eigenvalues --    0.10425   0.11362   0.11366   0.12459   0.16376
  Beta virt. eigenvalues --    0.16404   0.17400   0.17750   0.20376   0.20377
  Beta virt. eigenvalues --    0.20632   0.21395   0.21907   0.25189   0.25193
  Beta virt. eigenvalues --    0.27489   0.27502   0.29436   0.32734   0.32752
  Beta virt. eigenvalues --    0.33756   0.34328   0.34332   0.34356   0.34361
  Beta virt. eigenvalues --    0.41237   0.41241   0.41747   0.41772   0.42022
  Beta virt. eigenvalues --    0.42581   0.42587   0.43246   0.43840   0.45812
  Beta virt. eigenvalues --    0.55583   0.56305   0.56332   0.62042   0.62049
  Beta virt. eigenvalues --    0.63258   0.63267   0.66318   0.72762   0.76925
  Beta virt. eigenvalues --    0.76949   0.77992   0.80416   0.83154   0.83719
  Beta virt. eigenvalues --    0.83721   0.87656   0.87662   0.91934   0.91943
  Beta virt. eigenvalues --    1.01845   1.02010   1.02011   1.08092   1.09952
  Beta virt. eigenvalues --    1.11752   1.11755   1.15533   1.19005   1.22360
  Beta virt. eigenvalues --    1.22381   1.22384   1.22400   1.22988   1.25476
  Beta virt. eigenvalues --    1.28352   1.34549   1.34626   1.55666   1.55737
  Beta virt. eigenvalues --    1.61343   1.61350   1.62411   1.62463   1.77275
  Beta virt. eigenvalues --    1.77325   1.80425   1.83746   1.83754   1.95703
  Beta virt. eigenvalues --    2.05249   2.05303   2.17146   2.20319   2.21307
  Beta virt. eigenvalues --    2.21333   2.22747   2.27853   2.36264   2.39207
  Beta virt. eigenvalues --    2.39237   2.44126   2.55093   2.55169   2.55527
  Beta virt. eigenvalues --    2.55560   2.56628   2.61291   2.61317   2.61814
  Beta virt. eigenvalues --    2.63505   2.67684   2.67709   2.78406   2.84253
  Beta virt. eigenvalues --    2.85884   2.85945   2.86328   2.86349   2.91037
  Beta virt. eigenvalues --    2.91121   2.91416   3.09061   3.09068   3.15122
  Beta virt. eigenvalues --    3.15160   3.17794   3.17886   3.23546   3.32853
  Beta virt. eigenvalues --    3.45288   3.45416   3.48141   3.59479   3.59536
  Beta virt. eigenvalues --    3.60883   3.62124   3.62240   3.75811   3.84674
  Beta virt. eigenvalues --    3.89174   3.89291   4.08284   4.08326   4.13592
  Beta virt. eigenvalues --    4.13672   4.22484   4.22695   4.44308   4.52290
  Beta virt. eigenvalues --    4.52306   4.52327   4.80245   4.84149   4.84168
  Beta virt. eigenvalues --    5.43993   6.51616   6.73567   6.74816   6.74849
  Beta virt. eigenvalues --    6.75294   6.75300   6.77404   6.84567   6.86389
  Beta virt. eigenvalues --    6.86392   6.87639   6.87642   6.97822   7.05209
  Beta virt. eigenvalues --    7.05216   7.09590   7.09665   7.11985   7.12008
  Beta virt. eigenvalues --    7.20827   7.30959   7.30981   7.57439   7.66346
  Beta virt. eigenvalues --    7.67096   7.85872   8.04772   8.04826   8.16063
  Beta virt. eigenvalues --    8.16184   9.30224  23.02632  25.03711  25.03864
  Beta virt. eigenvalues --   25.46979  25.47272  25.94651
          Condensed to atoms (all electrons):
               1          2          3          4          5          6
     1  C    9.289902  -2.128658   0.877469  -2.134319   0.876611  -0.947415
     2  C   -2.128658   9.287173  -2.128963   0.876660  -0.949935   0.876611
     3  C    0.877469  -2.128963   9.290214  -0.947539   0.876660  -2.134319
     4  C   -2.134319   0.876660  -0.947539   9.290214  -2.128963   0.877469
     5  C    0.876611  -0.949935   0.876660  -2.128963   9.287173  -2.128658
     6  C   -0.947415   0.876611  -2.134319   0.877469  -2.128658   9.289902
          Atomic-Atomic Spin Densities.
               1          2          3          4          5          6
     1  C    3.976175  -2.383720   1.190003  -2.386340   1.188838  -1.084929
     2  C   -2.383720   3.975466  -2.383894   1.188848  -1.085585   1.188838
     3  C    1.190003  -2.383894   3.976420  -1.085018   1.188848  -2.386340
     4  C   -2.386340   1.188848  -1.085018   3.976420  -2.383894   1.190003
     5  C    1.188838  -1.085585   1.188848  -2.383894   3.975466  -2.383720
     6  C   -1.084929   1.188838  -2.386340   1.190003  -2.383720   3.976175
 Mulliken charges and spin densities:
               1          2
     1  C    0.166409   0.500027
     2  C    0.167112   0.499954
     3  C    0.166479   0.500019
     4  C    0.166479   0.500019
     5  C    0.167112   0.499954
     6  C    0.166409   0.500027
 Sum of Mulliken charges =   1.00000   3.00000
 Mulliken charges and spin densities with hydrogens summed into heavy atoms:
               1          2
     1  C    0.166409   0.500027
     2  C    0.167112   0.499954
     3  C    0.166479   0.500019
     4  C    0.166479   0.500019
     5  C    0.167112   0.499954
     6  C    0.166409   0.500027
 APT charges:
               1
     1  C    0.170081
     2  C    0.159860
     3  C    0.170058
     4  C    0.170058
     5  C    0.159860
     6  C    0.170081
 Sum of APT charges =   1.00000
 APT charges with hydrogens summed into heavy atoms:
               1
     1  C    0.170081
     2  C    0.159860
     3  C    0.170058
     4  C    0.170058
     5  C    0.159860
     6  C    0.170081
 Electronic spatial extent (au):  <R**2>=            286.4584
 Charge=              1.0000 electrons
 Dipole moment (field-independent basis, Debye):
    X=             -0.0000    Y=              0.0000    Z=             -0.0000  Tot=              0.0000
 Quadrupole moment (field-independent basis, Debye-Ang):
   XX=            -21.9801   YY=            -21.9629   ZZ=            -31.2976
   XY=              0.0003   XZ=             -0.0000   YZ=             -0.0000
 Traceless Quadrupole moment (field-independent basis, Debye-Ang):
   XX=              3.1001   YY=              3.1173   ZZ=             -6.2174
   XY=              0.0003   XZ=             -0.0000   YZ=             -0.0000
 Octapole moment (field-independent basis, Debye-Ang**2):
  XXX=              0.0000  YYY=             -0.0000  ZZZ=              0.0000  XYY=             -0.0000
  XXY=             -0.0000  XXZ=              0.0000  XZZ=             -0.0000  YZZ=              0.0000
  YYZ=              0.0000  XYZ=             -0.0000
 Hexadecapole moment (field-independent basis, Debye-Ang**3):
 XXXX=           -168.9671 YYYY=           -169.0447 ZZZZ=            -33.4452 XXXY=             -0.0008
 XXXZ=             -0.0000 YYYX=             -0.0009 YYYZ=             -0.0000 ZZZX=             -0.0000
 ZZZY=             -0.0000 XXYY=            -56.3523 XXZZ=            -37.9708 YYZZ=            -37.9972
 XXYZ=             -0.0000 YYXZ=             -0.0000 ZZXY=             -0.0005
 N-N= 1.559816875046D+02 E-N=-8.317364658766D+02  KE= 2.269464627161D+02
 Symmetry AG   KE= 1.084558943987D+02
 Symmetry BG   KE= 5.098299740260D+00
 Symmetry AU   KE= 2.112875923538D+00
 Symmetry BU   KE= 1.112793926536D+02
  Exact polarizability:  81.767   0.001  81.961   0.000  -0.000  34.074
 Approx polarizability: 283.397   0.004 283.954   0.000   0.000  44.611
                          Isotropic Fermi Contact Couplings
        Atom                 a.u.       MegaHertz       Gauss      10(-4) cm-1
     1  C(13)              0.43445     162.80013      58.09113      54.30428
     2  C(13)              0.43518     163.07652      58.18975      54.39647
     3  C(13)              0.43445     162.80339      58.09230      54.30537
     4  C(13)              0.43445     162.80339      58.09230      54.30537
     5  C(13)              0.43518     163.07652      58.18975      54.39647
     6  C(13)              0.43445     162.80013      58.09113      54.30428
 --------------------------------------------------------
       Center         ----  Spin Dipole Couplings  ----
                      3XX-RR        3YY-RR        3ZZ-RR
 --------------------------------------------------------
     1   Atom        0.428959     -0.078040     -0.350918
     2   Atom       -0.330691      0.681341     -0.350650
     3   Atom        0.428947     -0.078033     -0.350914
     4   Atom        0.428947     -0.078033     -0.350914
     5   Atom       -0.330691      0.681341     -0.350650
     6   Atom        0.428959     -0.078040     -0.350918
 --------------------------------------------------------
                        XY            XZ            YZ
 --------------------------------------------------------
     1   Atom       -0.438221     -0.000000      0.000000
     2   Atom       -0.000026     -0.000000      0.000000
     3   Atom        0.438215     -0.000000     -0.000000
     4   Atom        0.438215      0.000000      0.000000
     5   Atom       -0.000026      0.000000      0.000000
     6   Atom       -0.438221      0.000000     -0.000000
 --------------------------------------------------------


 ---------------------------------------------------------------------------------
              Anisotropic Spin Dipole Couplings in Principal Axis System
 ---------------------------------------------------------------------------------

       Atom             a.u.   MegaHertz   Gauss  10(-4) cm-1        Axes

              Baa    -0.3509   -47.090   -16.803   -15.707  0.0000  0.0000  1.0000
     1 C(13)  Bbb    -0.3308   -44.390   -15.840   -14.807  0.4996  0.8662 -0.0000
              Bcc     0.6817    91.480    32.642    30.515  0.8662 -0.4996  0.0000
 
              Baa    -0.3506   -47.054   -16.790   -15.695  0.0000  0.0000  1.0000
     2 C(13)  Bbb    -0.3307   -44.376   -15.834   -14.802  1.0000  0.0000  0.0000
              Bcc     0.6813    91.429    32.624    30.498 -0.0000  1.0000 -0.0000
 
              Baa    -0.3509   -47.089   -16.803   -15.707  0.0000  0.0000  1.0000
     3 C(13)  Bbb    -0.3308   -44.389   -15.839   -14.807 -0.4996  0.8662 -0.0000
              Bcc     0.6817    91.479    32.642    30.514  0.8662  0.4996 -0.0000
 
              Baa    -0.3509   -47.089   -16.803   -15.707  0.0000  0.0000  1.0000
     4 C(13)  Bbb    -0.3308   -44.389   -15.839   -14.807 -0.4996  0.8662 -0.0000
              Bcc     0.6817    91.479    32.642    30.514  0.8662  0.4996 -0.0000
 
              Baa    -0.3506   -47.054   -16.790   -15.695  0.0000  0.0000  1.0000
     5 C(13)  Bbb    -0.3307   -44.376   -15.834   -14.802  1.0000  0.0000  0.0000
              Bcc     0.6813    91.429    32.624    30.498 -0.0000  1.0000 -0.0000
 
              Baa    -0.3509   -47.090   -16.803   -15.707  0.0000  0.0000  1.0000
     6 C(13)  Bbb    -0.3308   -44.390   -15.840   -14.807  0.4996  0.8662  0.0000
              Bcc     0.6817    91.480    32.642    30.515  0.8662 -0.4996  0.0000
 

 ---------------------------------------------------------------------------------

 No NMR shielding tensors so no spin-rotation constants.
 Leave Link  601 at Tue Nov  1 20:00:34 2016, MaxMem=    33554432 cpu:         1.7
 (Enter /home/proyectos/fulerenos/M3C-v2.0/M3C-deps_CCC/g09-AM64L-G09RevC.01/l701.exe)
 Compute integral second derivatives.
 ... and contract with generalized density number  0.
 Leave Link  701 at Tue Nov  1 20:00:35 2016, MaxMem=    33554432 cpu:         1.4
 (Enter /home/proyectos/fulerenos/M3C-v2.0/M3C-deps_CCC/g09-AM64L-G09RevC.01/l702.exe)
 L702 exits ... SP integral derivatives will be done elsewhere.
 Leave Link  702 at Tue Nov  1 20:00:35 2016, MaxMem=    33554432 cpu:         0.1
 (Enter /home/proyectos/fulerenos/M3C-v2.0/M3C-deps_CCC/g09-AM64L-G09RevC.01/l703.exe)
 Compute integral second derivatives, UseDBF=F ICtDFT=           0.
 Integral derivatives from FoFJK, PRISM(SPDF).
 Calling FoFJK, ICntrl=    100127 FMM=F ISym2X=1 I1Cent= 0 IOpClX= 1 NMat=1 NMatS=1 NMatT=0.
 FoFJK:  IHMeth= 1 ICntrl=  100127 DoSepK=F KAlg= 0 I1Cent=   0 FoldK=F
 IRaf=         0 NMat=   1 IRICut=       1 DoRegI=T DoRafI=F ISym2E= 1.
 FoFCou: FMM=F IPFlag=           0 FMFlag=      100000 FMFlg1=         800
         NFxFlg=           0 DoJE=F BraDBF=F KetDBF=F FulRan=T
         wScrn=  0.000000 ICntrl=  100127 IOpCl=  1 I1Cent=           0 NGrid=           0
         NMat0=    1 NMatS0=      1 NMatT0=    0 NMatD0=    1 NMtDS0=    0 NMtDT0=    0
 Petite list used in FoFCou.
 Leave Link  703 at Tue Nov  1 20:01:26 2016, MaxMem=    33554432 cpu:       206.2
 (Enter /home/proyectos/fulerenos/M3C-v2.0/M3C-deps_CCC/g09-AM64L-G09RevC.01/l716.exe)
 Dipole        = 2.73364231D-14-6.94314398D-14-4.68322146D-17
 Polarizability= 8.17665605D+01 5.91714145D-04 8.19613272D+01
                 6.19653880D-09-3.03281247D-09 3.40735947D+01
 Full mass-weighted force constant matrix:
 Low frequencies ----1340.0175-1324.3336 -730.2559 -227.6362   -7.4370    0.0006
 Low frequencies ---    0.0009    0.0009    9.4660
 ******    4 imaginary frequencies (negative Signs) ****** 
 Diagonal vibrational polarizability:
       26.3121605      26.2862064       0.0000018
 Harmonic frequencies (cm**-1), IR intensities (KM/Mole), Raman scattering
 activities (A**4/AMU), depolarization ratios for plane and unpolarized
 incident light, reduced masses (AMU), force constants (mDyne/A),
 and normal coordinates:
                      1                      2                      3
                     BU                     BU                     BU
 Frequencies --  -1340.0175             -1324.3336              -730.2559
 Red. masses --     12.0000                12.0000                12.0000
 Frc consts  --     12.6956                12.4001                 3.7703
 IR Inten    --   1753.9124              1714.8200                 0.0090
  Atom  AN      X      Y      Z        X      Y      Z        X      Y      Z
     1   6    -0.35  -0.21   0.00    -0.21   0.35   0.00     0.35  -0.20   0.00
     2   6    -0.00   0.41  -0.00     0.41   0.00  -0.00     0.00   0.41  -0.00
     3   6     0.36  -0.20   0.00    -0.20  -0.35   0.00    -0.35  -0.20   0.00
     4   6     0.36  -0.20  -0.00    -0.20  -0.35  -0.00    -0.35  -0.20  -0.00
     5   6    -0.00   0.41   0.00     0.41   0.00   0.00     0.00   0.41   0.00
     6   6    -0.35  -0.21  -0.00    -0.21   0.35  -0.00     0.35  -0.20  -0.00
                      4                      5                      6
                     BG                     AU                     AU
 Frequencies --   -227.6265               433.8965               434.0696
 Red. masses --     12.0000                12.0000                12.0000
 Frc consts  --      0.3663                 1.3311                 1.3321
 IR Inten    --      0.0000                 0.0000                 0.0000
  Atom  AN      X      Y      Z        X      Y      Z        X      Y      Z
     1   6     0.00   0.00   0.41    -0.00   0.00  -0.47     0.00   0.00  -0.34
     2   6    -0.00  -0.00  -0.41    -0.00  -0.00  -0.06    -0.00   0.00   0.57
     3   6     0.00   0.00   0.41    -0.00  -0.00   0.53    -0.00  -0.00  -0.24
     4   6     0.00   0.00  -0.41     0.00   0.00   0.53     0.00   0.00  -0.24
     5   6    -0.00  -0.00   0.41     0.00   0.00  -0.06     0.00  -0.00   0.57
     6   6     0.00   0.00  -0.41     0.00  -0.00  -0.47    -0.00  -0.00  -0.34
                      7                      8                      9
                     AG                     AG                     AG
 Frequencies --    615.0362               615.0864              1160.0207
 Red. masses --     12.0000                12.0000                12.0000
 Frc consts  --      2.6744                 2.6749                 9.5140
 IR Inten    --      0.0000                 0.0000                 0.0000
  Atom  AN      X      Y      Z        X      Y      Z        X      Y      Z
     1   6     0.31  -0.31  -0.00     0.37  -0.05  -0.00    -0.35   0.20  -0.00
     2   6     0.18  -0.09   0.00     0.03   0.54  -0.00     0.00   0.41   0.00
     3   6     0.41   0.31   0.00    -0.25   0.05   0.00     0.35   0.20  -0.00
     4   6    -0.41  -0.31   0.00     0.25  -0.05   0.00    -0.35  -0.20  -0.00
     5   6    -0.18   0.09   0.00    -0.03  -0.54  -0.00    -0.00  -0.41   0.00
     6   6    -0.31   0.31  -0.00    -0.37   0.05  -0.00     0.35  -0.20  -0.00
                     10                     11                     12
                     BU                     AG                     AG
 Frequencies --   1240.4544              1692.9562              1694.7789
 Red. masses --     12.0000                12.0000                12.0000
 Frc consts  --     10.8791                20.2639                20.3075
 IR Inten    --      0.0002                 0.0000                 0.0000
  Atom  AN      X      Y      Z        X      Y      Z        X      Y      Z
     1   6    -0.20  -0.35   0.00    -0.28  -0.17   0.00     0.15   0.45  -0.00
     2   6     0.41  -0.00  -0.00     0.55   0.00   0.00     0.01  -0.18   0.00
     3   6    -0.20   0.35   0.00    -0.27   0.15  -0.00    -0.16   0.46   0.00
     4   6    -0.20   0.35  -0.00     0.27  -0.15  -0.00     0.16  -0.46   0.00
     5   6     0.41  -0.00   0.00    -0.55  -0.00   0.00    -0.01   0.18   0.00
     6   6    -0.20  -0.35  -0.00     0.28   0.17   0.00    -0.15  -0.45  -0.00

 -------------------
 - Thermochemistry -
 -------------------
 Temperature   298.150 Kelvin.  Pressure   1.00000 Atm.
 Atom     1 has atomic number  6 and mass  12.00000
 Atom     2 has atomic number  6 and mass  12.00000
 Atom     3 has atomic number  6 and mass  12.00000
 Atom     4 has atomic number  6 and mass  12.00000
 Atom     5 has atomic number  6 and mass  12.00000
 Atom     6 has atomic number  6 and mass  12.00000
 Molecular mass:    72.00000 amu.
 Principal axes and moments of inertia in atomic units:
                           1         2         3
     Eigenvalues --   230.39721 230.64044 461.03765
           X            0.02058   0.99979   0.00000
           Y            0.99979  -0.02058   0.00000
           Z           -0.00000  -0.00000   1.00000
 This molecule is an asymmetric top.
 Rotational symmetry number  2.
 Rotational temperatures (Kelvin)      0.37593     0.37554     0.18787
 Rotational constants (GHZ):           7.83317     7.82491     3.91452
    4 imaginary frequencies ignored.
 Zero-point vibrational energy      47170.5 (Joules/Mol)
                                   11.27403 (Kcal/Mol)
 Warning -- explicit consideration of   4 degrees of freedom as
           vibrations may cause significant error
 Vibrational temperatures:    624.28   624.53   884.90   884.97  1669.01
          (Kelvin)           1784.73  2435.78  2438.41
 
 Zero-point correction=                           0.017966 (Hartree/Particle)
 Thermal correction to Energy=                    0.021696
 Thermal correction to Enthalpy=                  0.022641
 Thermal correction to Gibbs Free Energy=        -0.009411
 Sum of electronic and zero-point Energies=           -227.876176
 Sum of electronic and thermal Energies=              -227.872446
 Sum of electronic and thermal Enthalpies=            -227.871502
 Sum of electronic and thermal Free Energies=         -227.903554
 
                     E (Thermal)             CV                S
                      KCal/Mol        Cal/Mol-Kelvin    Cal/Mol-Kelvin
 Total                   13.615             11.241             67.459
 Electronic               0.000              0.000              2.755
 Translational            0.889              2.981             38.739
 Rotational               0.889              2.981             23.331
 Vibrational             11.837              5.280              2.634
 Vibration     1          0.795              1.396              0.846
 Vibration     2          0.795              1.396              0.845
 Vibration     3          0.975              1.000              0.425
 Vibration     4          0.975              1.000              0.424
                       Q            Log10(Q)             Ln(Q)
 Total Bot       0.213275D+05          4.328939          9.967751
 Total V=0       0.391607D+13         12.592851         28.996111
 Vib (Bot)       0.792564D-08         -8.100966        -18.653163
 Vib (Bot)    1  0.400344D+00         -0.397567         -0.915431
 Vib (Bot)    2  0.400130D+00         -0.397799         -0.915966
 Vib (Bot)    3  0.239020D+00         -0.621565         -1.431206
 Vib (Bot)    4  0.238988D+00         -0.621623         -1.431340
 Vib (V=0)       0.145528D+01          0.162946          0.375197
 Vib (V=0)    1  0.114053D+01          0.057106          0.131491
 Vib (V=0)    2  0.114039D+01          0.057055          0.131373
 Vib (V=0)    3  0.105419D+01          0.022920          0.052776
 Vib (V=0)    4  0.105418D+01          0.022915          0.052763
 Electronic      0.400000D+01          0.602060          1.386294
 Translational   0.240134D+08          7.380454         16.994123
 Rotational      0.280150D+05          4.447391         10.240496
 
                                                              b3lyp opt
                                                             IR Spectrum
 
     11                                 1     1                                                                                      
     66                                 2     1                                       6             4                                
     99                                 4     6                                       1             3                                
     53                                 0     0                                       5             4                                
 
                                        X                                                           X                                
                                        X                                                                                            
                                        X                                                                                            
                                        X                                                                                            
                                        X                                                                                            
                                        X                                                                                            
                                        X                                                                                            
                                        X                                                                                            
                                        X                                                                                            
                                        X                                                                                            
                                        X                                                                                            
                                        X                                                                                            
                                        X                                                                                            
                                        X                                                                                            
                                        X                                                                                            
                                        X                                                                                            
                                        X                                                                                            
                                        X                                                                                            
                                        X                                                                                            
                                        X                                                                                            
 
 ***** Axes restored to original set *****
 -------------------------------------------------------------------
 Center     Atomic                   Forces (Hartrees/Bohr)
 Number     Number              X              Y              Z
 -------------------------------------------------------------------
      1        6          -0.000293302    0.000006081   -0.000086229
      2        6           0.000331256   -0.000036957    0.000114766
      3        6          -0.000250342    0.000076335   -0.000114690
      4        6           0.000250342   -0.000076335    0.000114690
      5        6          -0.000331256    0.000036957   -0.000114766
      6        6           0.000293302   -0.000006081    0.000086229
 -------------------------------------------------------------------
 Cartesian Forces:  Max     0.000331256 RMS     0.000182397
 Z-matrix is all fixed cartesians, so copy forces.
 Force constants in Cartesian coordinates: 
                1             2             3             4             5 
      1  0.345458D+00
      2  0.971063D-01  0.522925D-01
      3  0.344127D-01  0.113694D-01  0.277004D-01
      4 -0.901487D-01 -0.432959D-01  0.250560D-02  0.545847D-01
      5 -0.317103D+00 -0.829224D-01 -0.475207D-01  0.937474D-01  0.286901D+00
      6  0.160649D+00  0.296977D-01  0.177897D-01 -0.457230D-01 -0.124991D+00
      7  0.193869D+00 -0.111666D+00  0.124314D+00  0.108016D+00  0.218511D+00
      8  0.116831D+00  0.917891D-01 -0.306016D-01 -0.552936D-01 -0.179439D+00
      9 -0.765936D-02 -0.950420D-01  0.344928D-01  0.653185D-01  0.159283D+00
     10 -0.225622D+00 -0.593765D-01 -0.264455D-01  0.116244D+00  0.113372D+00
     11  0.214439D+00  0.896582D-01  0.277332D-02 -0.115137D+00  0.152834D+00
     12 -0.184594D+00 -0.744477D-01 -0.193070D-01  0.104405D+00 -0.667897D-01
     13  0.164618D+00  0.177192D+00 -0.507940D-01 -0.353313D+00 -0.572132D-01
     14 -0.513145D-01  0.129274D+00 -0.996261D-01 -0.572132D-01 -0.306647D+00
     15  0.811848D-01 -0.351832D-01  0.250548D-01 -0.757117D-01  0.179645D+00
     16 -0.388174D+00 -0.599596D-01 -0.839929D-01  0.164618D+00 -0.513145D-01
     17 -0.599596D-01 -0.280091D+00  0.163606D+00  0.177192D+00  0.129274D+00
     18 -0.839929D-01  0.163606D+00 -0.857306D-01 -0.507940D-01 -0.996261D-01
                6             7             8             9            10 
      6  0.840148D-01
      7 -0.928232D-01  0.172939D+00
      8  0.820648D-01 -0.130824D+00  0.136319D+00
      9 -0.839305D-01  0.117407D+00 -0.101447D+00  0.116259D+00
     10 -0.275754D-01 -0.365445D+00 -0.300162D-01 -0.948770D-01  0.172939D+00
     11 -0.131233D+00 -0.300162D-01 -0.291161D+00  0.178443D+00 -0.130824D+00
     12  0.498571D-01 -0.948770D-01  0.178443D+00 -0.973709D-01  0.117407D+00
     13 -0.757117D-01  0.116244D+00 -0.115137D+00  0.104405D+00  0.108016D+00
     14  0.179645D+00  0.113372D+00  0.152834D+00 -0.667897D-01  0.218511D+00
     15 -0.927859D-01 -0.275754D-01 -0.131233D+00  0.498571D-01 -0.928232D-01
     16  0.811848D-01 -0.225622D+00  0.214439D+00 -0.184594D+00  0.193869D+00
     17 -0.351832D-01 -0.593765D-01  0.896582D-01 -0.744477D-01 -0.111666D+00
     18  0.250548D-01 -0.264455D-01  0.277332D-02 -0.193070D-01  0.124314D+00
               11            12            13            14            15 
     11  0.136319D+00
     12 -0.101447D+00  0.116259D+00
     13 -0.552936D-01  0.653185D-01  0.545847D-01
     14 -0.179439D+00  0.159283D+00  0.937474D-01  0.286901D+00
     15  0.820648D-01 -0.839305D-01 -0.457230D-01 -0.124991D+00  0.840148D-01
     16  0.116831D+00 -0.765935D-02 -0.901487D-01 -0.317103D+00  0.160649D+00
     17  0.917891D-01 -0.950420D-01 -0.432959D-01 -0.829224D-01  0.296977D-01
     18 -0.306016D-01  0.344928D-01  0.250560D-02 -0.475207D-01  0.177897D-01
               16            17            18 
     16  0.345458D+00
     17  0.971063D-01  0.522925D-01
     18  0.344127D-01  0.113694D-01  0.277004D-01
 Leave Link  716 at Tue Nov  1 20:01:26 2016, MaxMem=    33554432 cpu:         0.1
 (Enter /home/proyectos/fulerenos/M3C-v2.0/M3C-deps_CCC/g09-AM64L-G09RevC.01/l103.exe)

 GradGradGradGradGradGradGradGradGradGradGradGradGradGradGradGradGradGrad
 Berny optimization.
 Search for a local minimum.
 Step number   1 out of a maximum of    2
 All quantities printed in internal units (Hartrees-Bohrs-Radians)
 Second derivative matrix not updated -- analytic derivatives used.
 The second derivative matrix:
                          X1        Y1        Z1        X2        Y2
           X1           0.34546
           Y1           0.09711   0.05229
           Z1           0.03441   0.01137   0.02770
           X2          -0.09015  -0.04330   0.00251   0.05458
           Y2          -0.31710  -0.08292  -0.04752   0.09375   0.28690
           Z2           0.16065   0.02970   0.01779  -0.04572  -0.12499
           X3           0.19387  -0.11167   0.12431   0.10802   0.21851
           Y3           0.11683   0.09179  -0.03060  -0.05529  -0.17944
           Z3          -0.00766  -0.09504   0.03449   0.06532   0.15928
           X4          -0.22562  -0.05938  -0.02645   0.11624   0.11337
           Y4           0.21444   0.08966   0.00277  -0.11514   0.15283
           Z4          -0.18459  -0.07445  -0.01931   0.10440  -0.06679
           X5           0.16462   0.17719  -0.05079  -0.35331  -0.05721
           Y5          -0.05131   0.12927  -0.09963  -0.05721  -0.30665
           Z5           0.08118  -0.03518   0.02505  -0.07571   0.17964
           X6          -0.38817  -0.05996  -0.08399   0.16462  -0.05131
           Y6          -0.05996  -0.28009   0.16361   0.17719   0.12927
           Z6          -0.08399   0.16361  -0.08573  -0.05079  -0.09963
                          Z2        X3        Y3        Z3        X4
           Z2           0.08401
           X3          -0.09282   0.17294
           Y3           0.08206  -0.13082   0.13632
           Z3          -0.08393   0.11741  -0.10145   0.11626
           X4          -0.02758  -0.36545  -0.03002  -0.09488   0.17294
           Y4          -0.13123  -0.03002  -0.29116   0.17844  -0.13082
           Z4           0.04986  -0.09488   0.17844  -0.09737   0.11741
           X5          -0.07571   0.11624  -0.11514   0.10440   0.10802
           Y5           0.17964   0.11337   0.15283  -0.06679   0.21851
           Z5          -0.09279  -0.02758  -0.13123   0.04986  -0.09282
           X6           0.08118  -0.22562   0.21444  -0.18459   0.19387
           Y6          -0.03518  -0.05938   0.08966  -0.07445  -0.11167
           Z6           0.02505  -0.02645   0.00277  -0.01931   0.12431
                          Y4        Z4        X5        Y5        Z5
           Y4           0.13632
           Z4          -0.10145   0.11626
           X5          -0.05529   0.06532   0.05458
           Y5          -0.17944   0.15928   0.09375   0.28690
           Z5           0.08206  -0.08393  -0.04572  -0.12499   0.08401
           X6           0.11683  -0.00766  -0.09015  -0.31710   0.16065
           Y6           0.09179  -0.09504  -0.04330  -0.08292   0.02970
           Z6          -0.03060   0.03449   0.00251  -0.04752   0.01779
                          X6        Y6        Z6
           X6           0.34546
           Y6           0.09711   0.05229
           Z6           0.03441   0.01137   0.02770
 ITU=  0
     Eigenvalues ---   -0.81544  -0.79647  -0.24217  -0.02353   0.08550
     Eigenvalues ---    0.08556   0.17178   0.17181   0.61109   0.69877
     Eigenvalues ---    1.30156   1.30436
 Eigenvalue     1 is  -8.15D-01 should be greater than     0.000000 Eigenvector:
                          X5        X2        Y4        Y3        X6
   1                    0.37464   0.37464   0.33788   0.33788  -0.29758
                          X1        Y1        Y6        Z3        Z4
   1                   -0.29758  -0.27081  -0.27081  -0.21688  -0.21688
 Eigenvalue     2 is  -7.96D-01 should be greater than     0.000000 Eigenvector:
                          X4        X3        Y2        Y5        X1
   1                    0.38876   0.38876  -0.35053  -0.35053  -0.26181
                          X6        Y1        Y6        Z6        Z1
   1                   -0.26181   0.23353   0.23353  -0.20872  -0.20872
 Eigenvalue     3 is  -2.42D-01 should be greater than     0.000000 Eigenvector:
                          X5        X2        Y6        Y1        X4
   1                    0.37759   0.37759   0.33559   0.33559  -0.29645
                          X3        Y3        Y4        Z1        Z6
   1                   -0.29645  -0.27030  -0.27030  -0.21671  -0.21671
 Eigenvalue     4 is  -2.35D-02 should be greater than     0.000000 Eigenvector:
                          Z6        Z1        Z4        Z3        Z5
   1                   -0.34350   0.34350  -0.34350   0.34350   0.34327
                          Z2        Y6        Y1        Y4        Y3
   1                   -0.34327  -0.19840   0.19840  -0.19840   0.19840
 Angle between quadratic step and forces=  48.74 degrees.
 ClnCor:  largest displacement from symmetrization is 9.37D-12 for atom     6.
 Linear search not attempted -- first point.
 ClnCor:  largest displacement from symmetrization is 5.02D-15 for atom     5.
 B after Tr=     0.000000    0.000000   -0.000000
         Rot=    1.000000    0.000000   -0.000000   -0.000000 Ang=   0.00 deg.
 Variable       Old X    -DE/DX   Delta X   Delta X   Delta X     New X
                                 (Linear)    (Quad)   (Total)
    X1       -0.49767  -0.00029   0.00000  -0.00007  -0.00007  -0.49773
    Y1        2.08452   0.00001   0.00000   0.00045   0.00045   2.08497
    Z1       -1.34431  -0.00009   0.00000  -0.00028  -0.00028  -1.34459
    X2       -2.33481   0.00033   0.00000   0.00114   0.00114  -2.33367
    Y2        0.40384  -0.00004   0.00000  -0.00017  -0.00017   0.40367
    Z2       -0.89171   0.00011   0.00000   0.00042   0.00042  -0.89128
    X3       -1.83557  -0.00025   0.00000  -0.00031  -0.00031  -1.83588
    Y3       -1.68095   0.00008   0.00000  -0.00036  -0.00036  -1.68131
    Z3        0.45320  -0.00011   0.00000   0.00012   0.00012   0.45332
    X4        1.83557   0.00025   0.00000   0.00031   0.00031   1.83588
    Y4        1.68095  -0.00008   0.00000   0.00036   0.00036   1.68131
    Z4       -0.45320   0.00011   0.00000  -0.00012  -0.00012  -0.45332
    X5        2.33481  -0.00033   0.00000  -0.00114  -0.00114   2.33367
    Y5       -0.40384   0.00004   0.00000   0.00017   0.00017  -0.40367
    Z5        0.89170  -0.00011   0.00000  -0.00042  -0.00042   0.89128
    X6        0.49767   0.00029   0.00000   0.00007   0.00007   0.49773
    Y6       -2.08452  -0.00001   0.00000  -0.00045  -0.00045  -2.08497
    Z6        1.34431   0.00009   0.00000   0.00028   0.00028   1.34459
         Item               Value     Threshold  Converged?
 Maximum Force            0.000331     0.000450     YES
 RMS     Force            0.000182     0.000300     YES
 Maximum Displacement     0.001140     0.001800     YES
 RMS     Displacement     0.000474     0.001200     YES
 Predicted change in Energy=-5.136030D-07
 Optimization completed.
    -- Stationary point found.
 GradGradGradGradGradGradGradGradGradGradGradGradGradGradGradGradGradGrad

 Leave Link  103 at Tue Nov  1 20:01:26 2016, MaxMem=    33554432 cpu:         0.1
 (Enter /home/proyectos/fulerenos/M3C-v2.0/M3C-deps_CCC/g09-AM64L-G09RevC.01/l9999.exe)
 1\1\GINC-BELVIS10\Freq\UB3LYP\6-311+G(3df)\C6(1+,4)\NAGUIRRE\01-Nov-20
 16\0\\#p b3lyp/6-311+G(3df) freq symmetry=Loose\\b3lyp opt\\1,4\C,-0.2
 63354435,1.1030790348,-0.71137782\C,-1.2355265669,0.213703969,-0.47187
 01733\C,-0.9713424112,-0.889520014,0.2398250955\C,0.9713417445,0.88951
 93473,-0.2398254289\C,1.2355259002,-0.2137046357,0.47186984\C,0.263353
 7683,-1.1030797015,0.7113774867\\Version=EM64L-G09RevE.01\State=4-BU\H
 F=-227.8941424\S2=3.764019\S2-1=0.\S2A=3.750081\RMSD=2.191e-09\RMSF=1.
 824e-04\ZeroPoint=0.0179663\Thermal=0.0216963\Dipole=0.,0.,0.\DipoleDe
 riv=1.8056884,0.8218624,-0.0124825,0.8380377,-0.9497405,0.8812115,-0.0
 218249,0.8766498,-0.3457035,-1.2708161,0.7709199,-0.8505931,0.7711121,
 1.5034364,-0.5547438,-0.850704,-0.554798,0.2469611,-0.0348723,-1.59278
 24,0.8630756,-1.6091498,-0.0536959,-0.3264677,0.872529,-0.3218518,0.59
 87425,-0.0348723,-1.5927823,0.8630756,-1.6091497,-0.0536959,-0.3264677
 ,0.8725289,-0.3218518,0.5987425,-1.2708161,0.7709199,-0.850593,0.77111
 2,1.5034363,-0.5547438,-0.850704,-0.554798,0.246961,1.8056884,0.821862
 5,-0.0124826,0.8380377,-0.9497404,0.8812115,-0.0218249,0.8766498,-0.34
 57035\Polar=79.248263,5.4691812,70.5127184,9.5812226,-19.5037883,48.04
 05011\PG=C02H [SGH(C6)]\NImag=4\\0.34545827,0.09710632,0.05229247,0.03
 441266,0.01136940,0.02770036,-0.09014872,-0.04329586,0.00250560,0.0545
 8471,-0.31710263,-0.08292235,-0.04752071,0.09374744,0.28690126,0.16064
 855,0.02969770,0.01778970,-0.04572300,-0.12499087,0.08401483,0.1938694
 4,-0.11166638,0.12431415,0.10801565,0.21851102,-0.09282325,0.17293867,
 0.11683092,0.09178909,-0.03060162,-0.05529359,-0.17943933,0.08206484,-
 0.13082389,0.13631929,-0.00765936,-0.09504196,0.03449279,0.06531846,0.
 15928264,-0.08393051,0.11740698,-0.10144652,0.11625850,-0.22562211,-0.
 05937646,-0.02644547,0.11624361,0.11337191,-0.02757538,-0.36544526,-0.
 03001620,-0.09487702,0.17293867,0.21443947,0.08965824,0.00277332,-0.11
 513671,0.15283368,-0.13123323,-0.03001621,-0.29116098,0.17844321,-0.13
 082389,0.13631929,-0.18459372,-0.07444768,-0.01930696,0.10440466,-0.06
 678970,0.04985711,-0.09487702,0.17844321,-0.09737093,0.11740698,-0.101
 44652,0.11625851,0.16461752,0.17719195,-0.05079401,-0.35331277,-0.0572
 1324,-0.07571170,0.11624361,-0.11513671,0.10440466,0.10801565,-0.05529
 359,0.06531846,0.05458471,-0.05131451,0.12927385,-0.09962612,-0.057213
 24,-0.30664710,0.17964476,0.11337191,0.15283367,-0.06678970,0.21851102
 ,-0.17943933,0.15928265,0.09374744,0.28690126,0.08118478,-0.03518320,0
 .02505475,-0.07571170,0.17964476,-0.09278589,-0.02757539,-0.13123323,0
 .04985711,-0.09282325,0.08206484,-0.08393051,-0.04572300,-0.12499087,0
 .08401483,-0.38817440,-0.05995957,-0.08399292,0.16461752,-0.05131451,0
 .08118478,-0.22562211,0.21443947,-0.18459372,0.19386944,0.11683092,-0.
 00765935,-0.09014872,-0.31710263,0.16064855,0.34545827,-0.05995957,-0.
 28009130,0.16360574,0.17719195,0.12927384,-0.03518320,-0.05937646,0.08
 965824,-0.07444768,-0.11166638,0.09178910,-0.09504195,-0.04329586,-0.0
 8292235,0.02969770,0.09710632,0.05229247,-0.08399292,0.16360573,-0.085
 73064,-0.05079401,-0.09962612,0.02505476,-0.02644547,0.00277332,-0.019
 30696,0.12431415,-0.03060162,0.03449278,0.00250560,-0.04752071,0.01778
 970,0.03441266,0.01136940,0.02770036\\0.00029330,-0.00000608,0.0000862
 3,-0.00033126,0.00003696,-0.00011477,0.00025034,-0.00007634,0.00011469
 ,-0.00025034,0.00007634,-0.00011469,0.00033126,-0.00003696,0.00011477,
 -0.00029330,0.00000608,-0.00008623\\\@


 I HAVE NOT FAILED, I HAVE ONLY DISCOVERED 10,000
 WAYS THAT DIDN'T WORK.  -- THOMAS A. EDISON
 Job cpu time:       0 days  0 hours 18 minutes 57.6 seconds.
 File lengths (MBytes):  RWF=     58 Int=      0 D2E=      0 Chk=      5 Scr=      1
 Normal termination of Gaussian 09 at Tue Nov  1 20:01:26 2016.
