7
Energy =   -190.479739282     
    C    0.789806   -0.000052    0.000001
    C   -0.323872    0.764463    0.000719
    C   -1.615716    0.000353   -0.000130
    C   -0.324017   -0.764417   -0.000201
    C    2.232718   -0.000212   -0.000088
    H   -2.195022   -0.000167    0.931937
    H   -2.194547    0.000950   -0.932487

FREQUENCIES   15
269.5658
270.2277
464.7903
521.5816
596.9659
634.0960
940.9943
1000.9791
1105.3893
1127.5187
1182.3827
1398.0279
1624.2524
2993.8274
3085.7214
