3
Energy =   -76.6359987892     
    H   -0.000000   -0.000000    1.547062
    C    0.000000    0.000000    0.484003
    C   -0.000000   -0.000000   -0.715380

FREQUENCIES   4
291.7361
295.1157
2089.8433
3450.6255
