6
Energy =   -190.547382801     
    H    1.634003    2.942331   -0.000248
    C    1.150154    1.985926   -0.000147
    C    0.594571    0.887253   -0.000046
    C   -0.571509   -1.418686    0.000167
    C   -1.130050   -2.529263    0.000219
    C    0.009216   -0.269246    0.000054

FREQUENCIES   12
146.3919
311.0397
337.5907
497.1089
548.3448
643.2976
796.4605
852.3680
1591.3043
1946.6897
2052.9876
3366.0906
