6
Energy =   -189.884546367     
    C    0.208569    1.859117    0.000000
    C    0.090489    0.580317    0.000000
    C    0.751182   -0.703088   -0.000001
    C   -0.122396   -1.733028    0.000002
    C   -0.792270   -0.561025   -0.000001
    H    0.310392    2.955512    0.000000

FREQUENCIES   12
225.2456
251.3599
500.7407
583.3010
605.6385
651.8854
988.4410
1008.4340
1187.3703
1630.6885
1824.8218
3082.5284
