3
Energy =   -1194.25633815     
    S   -0.260211   -1.224613   -0.000001
    S   -0.930670    0.837408    0.000007
    S    1.190881    0.387205   -0.000001

FREQUENCIES 3
-438.2351
-434.1689
541.9916

SYMMETRY CS
ELECTRONIC_STATE 4-A'
