3
Energy =   -1194.30546796     
    S   -0.654095   -0.488636    0.000000
    S    1.220971   -0.952332    0.000000
    S   -0.566877    1.440966    0.000000

FREQUENCIES 3
-1112.3114
229.0401
636.4362

SYMMETRY C2V
ELECTRONIC_STATE 2-B2
