3
Energy =   -1194.30546798     
    S    0.048776   -1.547696   -0.000002
    S   -0.829148    1.307878    0.000008
    S    0.780373    0.239819    0.000000

FREQUENCIES 3
-959.0858
229.1196
635.2673

SYMMETRY CS
ELECTRONIC_STATE 2-A'
