4
Energy =   -1592.53490294     
    S    0.098028    1.561129    0.090908
    S   -0.054861    0.256164    1.544441
    S   -0.098125   -1.561162   -0.090948
    S    0.054958   -0.256131   -1.544401

FREQUENCIES 6
-107.6070
130.2683
249.3113
340.7136
581.6369
657.4354

SYMMETRY C2H
ELECTRONIC_STATE 4-AG
