4
Energy =   -1592.55890294     
    S   -0.000001    1.149041    2.134440
    S    0.000001   -0.570143    1.402966
    S   -0.000001   -0.632162   -1.365630
    S    0.000001    1.053264   -2.171776

FREQUENCIES 6
-43.5076
56.0533
147.7323
152.5349
717.1140
740.8317

SYMMETRY CS
ELECTRONIC_STATE 4-A'
