4
Energy =   -1592.85696041     
    S    0.099633    1.526665    0.026773
    S   -0.058526    0.194536    1.517129
    S   -0.097945   -1.526766   -0.026676
    S    0.056837   -0.194434   -1.517227

FREQUENCIES 6
-133.0413
101.2375
286.0334
380.9246
510.4128
606.5327

SYMMETRY C2
ELECTRONIC_STATE 3-B
