4
Energy =   -1592.53490328     
    S    1.077500    0.870456    0.686194
    S   -0.241415   -0.239475    1.618357
    S    0.150830    0.161579   -1.465745
    S   -1.166643   -0.947402   -0.530419

FREQUENCIES 6
-107.8065
130.6490
249.0983
340.1378
581.0502
656.9087

SYMMETRY CS
ELECTRONIC_STATE 4-A'
