4
Energy =   -1592.48606958     
    S    0.098829   -1.631961   -0.165647
    S   -1.281418    0.000127    0.176604
    S    0.098585    1.631962   -0.165643
    S    1.484004   -0.000128    0.154685

FREQUENCIES 6
-885.9410
120.2322
172.0000
216.5922
337.3590
466.7163

SYMMETRY C2
ELECTRONIC_STATE 4-A
