4
Energy =   -1592.85695306     
    S    1.436700    0.523364    0.061158
    S   -0.644188    1.213174   -0.674488
    S    0.644052   -1.213551    0.673230
    S   -1.436565   -0.522989   -0.059900

FREQUENCIES 6
-133.9611
100.4793
285.9397
381.1644
510.9355
606.8774

SYMMETRY C1
ELECTRONIC_STATE 3-A
