4
Energy =   -1592.85695297     
    S    1.066963    0.864077    0.616341
    S   -0.281741   -0.272000    1.569997
    S    0.191867    0.193617   -1.416960
    S   -1.156817   -0.940535   -0.460992

FREQUENCIES 6
-133.7586
100.4192
285.9959
381.4133
511.1988
607.1216

SYMMETRY C1
ELECTRONIC_STATE 3-A
