4
Energy =   -1592.78594981     
    S    0.081176   -1.263028   -0.394874
    S   -1.498886   -0.000010    0.472087
    S    0.081167    1.263029   -0.394873
    S    1.736543    0.000009    0.317659

FREQUENCIES 6
-572.4408
-307.8882
-212.0193
217.3740
332.6514
463.3450

SYMMETRY C2V
ELECTRONIC_STATE 3-A1
