4
Energy =   -1592.48606935     
    S    0.092138   -1.383113   -0.164405
    S   -1.522177   -0.000024    0.242190
    S    0.092160    1.383113   -0.164406
    S    1.737880    0.000023    0.086620

FREQUENCIES 6
-887.8533
119.0748
173.5087
216.8252
337.3755
466.8447

SYMMETRY C2
ELECTRONIC_STATE 4-A
