5
Energy =   -1990.99619220     
    S   -0.286760    1.428704   -0.201722
    S    1.615641    0.501352   -0.389550
    S    0.703019   -1.117889    0.639831
    S   -0.427513    0.377915    1.639611
    S   -1.604387   -1.190081   -1.688170

FREQUENCIES 9
-44.3951
66.0777
83.7529
216.3689
309.6644
416.0673
416.1378
440.3106
503.3599

SYMMETRY C1
ELECTRONIC_STATE 3-A
