6
Energy =   -2389.03711125     
    S   -1.172871   -0.143197   -1.444511
    S    0.089024    2.015466    0.261278
    S   -0.171343    0.964089    1.781343
    S    1.219299   -1.346737    0.424100
    S    1.474612   -0.299205   -1.098596
    S   -1.438721   -1.190418    0.076386

FREQUENCIES 12
-72.1217
14.3673
57.7823
93.7289
155.0570
222.5153
227.7343
256.0097
307.2002
716.5693
728.8279
766.4939

SYMMETRY C1
ELECTRONIC_STATE 2-A
