6
Energy =   -2389.03786751     
    S    1.744350   -0.263392   -0.981591
    S   -0.697082    1.073721   -1.084641
    S    1.799308   -0.015631    0.865097
    S   -0.633441    1.320433    0.768167
    S   -1.074745   -1.403965    1.140142
    S   -1.138390   -1.645031   -0.707174

FREQUENCIES 12
-62.5128
68.4213
89.1237
106.1782
122.3499
192.2260
233.6279
257.8326
294.9979
715.1845
729.4996
766.6620

SYMMETRY C1
ELECTRONIC_STATE 2-A
