6
Energy =   -2389.33584351     
    S    2.070632    0.027698   -1.047525
    S   -0.588870    0.850160   -1.068971
    S    2.126556    0.282112    0.832062
    S   -0.523676    1.099557    0.804678
    S   -1.510269   -1.474684    1.180217
    S   -1.574375   -1.718707   -0.700460

FREQUENCIES 12
-98.8427
62.0963
63.7762
104.9946
133.0754
201.9365
218.8783
256.9089
298.4759
676.6573
697.5123
725.0180

SYMMETRY C1
ELECTRONIC_STATE 3-A
