6
Energy =   -2388.99572557     
    S   -1.572542    0.111496    1.527490
    S    3.360392    0.909480    0.848790
    S   -1.242343   -0.821048   -0.275317
    S    0.832120   -0.391708   -0.123670
    S    0.498854    0.546441    1.689661
    S    4.479766   -0.354725    1.716038

FREQUENCIES 12
-271.8676
-45.5756
-10.6384
80.3727
104.7899
191.2502
216.0201
292.2354
316.4816
467.8216
501.4101
681.8091

SYMMETRY C1
ELECTRONIC_STATE 2-A
