6
Energy =   -2389.33584474     
    S   -0.938897    0.072031   -1.270776
    S   -0.370293    2.268802    0.339009
    S   -0.641649    1.199660    1.882840
    S    1.450841   -1.809162    0.162770
    S    1.707525   -0.744191   -1.386436
    S   -1.207527   -0.987141    0.272592

FREQUENCIES 12
-98.7585
62.2199
64.0098
104.9265
132.8095
202.1614
219.3182
256.9109
298.6498
677.0499
697.7519
725.3666

SYMMETRY C1
ELECTRONIC_STATE 3-A
