7
Energy =   -191.157687130     
    C   -2.239431   -0.291192    0.000235
    C   -0.862854   -0.206337   -0.000006
    C    1.684142   -0.051026   -0.000467
    C    3.027152    0.030878   -0.000356
    C    0.385397   -0.130275   -0.000032
    H   -2.784362   -0.329835   -0.938824
    H   -2.784432   -0.324984    0.939439

FREQUENCIES   15
260.8646
271.7365
408.1145
440.2146
480.6676
623.1546
704.8324
792.1992
939.4348
1064.4168
1351.6700
1563.1623
1909.0717
3095.4494
3200.2895
