8
Energy =   -191.833617307     
    C    1.066276    0.183243   -0.113203
    H    2.134717    0.118988    0.028634
    C   -1.021596    0.584812    0.093606
    C    0.094641   -0.847809    0.080017
    C   -1.263632   -0.755246    0.074189
    H   -2.102187   -1.407014   -0.110403
    C    0.215775    1.275731   -0.102639
    H    0.417140    2.325469    0.050464

FREQUENCIES   18
303.5345
381.4647
548.9367
645.0631
688.4904
720.8718
760.5502
861.8802
986.5810
1040.1854
1119.9833
1127.4994
1278.9278
1372.5013
1584.2031
3215.6660
3233.8625
3254.1992
