9
Energy =   -192.283316092     
    C    0.963048    1.114965    0.000750
    H    0.095221    1.801532   -0.003319
    H    1.571931    1.301887    0.887871
    H    1.578784    1.299573   -0.882035
    C   -1.763586    0.588862   -0.003324
    C    0.415315   -0.269426    0.000960
    C    1.244666   -1.368287    0.002193
    C   -1.013628   -0.526340   -0.000178
    H   -1.448657   -1.520989    0.001287

FREQUENCIES   21
100.1692
183.2435
219.4042
347.4171
446.3450
507.9965
778.3065
819.4918
939.5530
1005.8112
1099.8962
1161.0920
1281.7579
1341.0591
1359.2278
1384.5819
1442.5300
2855.5156
3055.2765
3093.9736
3151.8145
