9
Energy =   -191.909531046     
    H    0.015032    1.683200    0.858612
    C    0.011756    0.958039   -0.000011
    H    0.014953    1.683282   -0.858571
    C   -1.144623    0.118769    0.000024
    C   -2.141975   -0.626811    0.000123
    H   -3.035440   -1.243020    0.000128
    C    1.160583    0.108231   -0.000094
    C    2.151076   -0.646524   -0.000150
    H    3.039116   -1.270540    0.000278

FREQUENCIES   21
125.1624
281.2994
310.4657
322.3980
517.7277
654.7777
721.6595
732.9427
743.7050
745.1352
929.3359
981.6442
1071.7422
1146.3086
1239.2623
1903.4428
2058.4684
2714.3609
2767.6714
3236.6322
3241.6635
