5
Energy =   -151.778332581     
    C    0.128387    1.017768    0.000000
    H    0.313096    2.109129   -0.000000
    C   -0.250947   -1.214889    0.000000
    C   -0.063579   -0.115872    0.819248
    C   -0.063579   -0.115872   -0.819248

FREQUENCIES   9
381.2406
612.2038
768.2019
890.0851
1028.0277
1293.4078
1349.7233
1489.9355
3019.2209
