6
Energy =   -189.917587326     
    H    1.521837    3.079535    0.000017
    C    1.073627    2.084380    0.000015
    C    0.545679    0.927198   -0.000074
    C   -0.508999   -1.427338    0.000019
    C   -1.034419   -2.599818    0.000031
    C    0.016645   -0.252684   -0.000007

FREQUENCIES   12
148.2720
312.2706
366.8894
496.6194
528.4570
612.9326
785.0273
819.4916
1387.4117
1768.8798
1889.0538
3171.6797
