3
Energy =   -130.798685563     
    C   -1.266785    0.090004   -0.000000
    C    1.227793   -0.170540    0.000000
    N   -0.019397   -0.040163    0.000000

FREQUENCIES 4
310.1390
446.0124
1242.5184
1391.8714

SYMMETRY C*V
ELECTRONIC_STATE ??
