3
Energy =   -130.358944154     
C  0.469293103 -0.651729879  0.000000000
C  0.379263897  0.721514879 -0.000000000
N -0.687483000 -0.037994000 -0.000000000

FREQUENCIES 3
1108.9517
1196.7852
1659.7865

SYMMETRY C2V
ELECTRONIC_STATE 3-B2
