3
Energy =   -130.430653298     
C -1.262367686  0.089491656 -0.000000000
C  1.223419315 -0.170137331  0.000000000
N -0.019433110 -0.039929565  0.000000000

FREQUENCIES 4
192.0963
192.0963
1268.2223
1976.2097

SYMMETRY D*H
ELECTRONIC_STATE 1-SGG
