4
Energy =   -167.702988785     
    C    1.084989    0.417620    0.793699
    C    1.359798    0.025987    2.195294
    C   -0.075727   -0.265597    1.977331
    N   -0.248262    0.126309    0.676263

FREQUENCIES 6
189.6213
494.2455
577.5473
852.3290
1046.9544
1308.9564

SYMMETRY CS
ELECTRONIC_STATE 2-A'
