4
Energy =   -168.432960844     
    C   -0.000000   -0.082340   -0.610034
    C   -0.000000    0.017805   -1.971981
    C   -0.000000    0.004015    1.859075
    N    0.000000   -0.009480    0.622292

FREQUENCIES 6
81.8713
160.6383
247.8314
931.5794
1570.0864
2063.7856

SYMMETRY CS
ELECTRONIC_STATE 1-A'
