4
Energy =   -168.412195751     
    C   -0.043437    0.787062    0.008419
    C    1.291465    0.050977   -0.045254
    C    0.019233   -0.788942    0.006330
    N   -1.094098   -0.044009    0.050099

FREQUENCIES 6
141.9256
418.1073
878.1164
996.1916
1070.9535
1507.9617

SYMMETRY CS
ELECTRONIC_STATE 1-A'
