4
Energy =   -168.766983997     
    C    0.000000   -0.513747   -0.624644
    C    0.000000    0.311470   -1.832029
    C    0.000000    0.180236    1.766781
    N    0.000000   -0.047959    0.589244

FREQUENCIES 6
201.5939
271.2399
476.5141
935.1226
1257.7857
1867.6508

SYMMETRY CS
ELECTRONIC_STATE 4-A"
