4
Energy =   -168.422571614     
C  0.011518049  0.785436289  0.005920248
C  1.180526822  0.047870029 -0.015208135
C  0.075684061 -0.782787053  0.003849544
N -1.094574084 -0.045271941  0.025000008

FREQUENCIES 6
531.9041
568.2905
733.4439
870.7574
1242.5088
1346.6210

SYMMETRY C2V
ELECTRONIC_STATE 3-B1
