4
Energy =   -168.413416516     
    C   -0.100754   -0.639412    1.543125
    C   -0.019920   -0.142454    0.272137
    C    0.031766   -0.189456   -1.125634
    N    0.088908    0.971322   -0.689628

FREQUENCIES 6
239.8682
254.1818
565.6044
899.2313
1371.7492
1777.2140

SYMMETRY C1
ELECTRONIC_STATE 3-A
