4
Energy =   -168.395250224     
    C    1.218138    0.807415    0.702409
    C    0.968108    0.244618    2.040793
    C   -0.161637   -0.685223    2.223382
    N    0.127176   -0.106304    0.936168

FREQUENCIES 6
292.7314
391.2114
754.9732
840.9383
1239.9488
1246.1348

SYMMETRY CS
ELECTRONIC_STATE 1-A'
