4
Energy =   -167.717139169     
    C    0.049829    0.687974    0.092411
    C    0.712073    0.687974   -1.110088
    C    1.878770    0.687974   -2.099088
    N   -0.668212    0.687974   -0.988620

FREQUENCIES 6
252.3962
305.7115
669.0399
943.0567
1231.5302
1623.3579

SYMMETRY CS
ELECTRONIC_STATE 2-A'
