5
Energy =   -206.843676459     
N -0.000270000 -0.311450000 -0.007883000
C  0.688290000 -1.522214000  0.029876000
C -0.690157639 -1.521455795 -0.044577343
C  0.001604157  2.234888894 -0.008977083
C  0.000451482  0.950827900 -0.008436574

FREQUENCIES 9
91.7937
181.2849
269.3971
523.1706
535.9737
743.0769
1133.0134
1501.1821
1939.8499

SYMMETRY CS
ELECTRONIC_STATE 2-A'
