5
Energy =   -206.792474029     
C -0.026279657 -0.874908118 -0.154207241
N  0.955921012  0.091421722 -0.574282307
C -0.143669657  0.874609882 -0.071797241
C -1.216955251 -0.063424972 -0.382155930
C  0.344563717 -0.027591968  1.081455603

FREQUENCIES 9
206.0433
466.6571
482.8764
627.3266
760.1936
812.0404
960.2856
1044.1649
1231.4933

SYMMETRY CS
ELECTRONIC_STATE 2-A'
