5
Energy =   -206.396668596     
    C   -0.020638   -1.105247   -0.135660
    C    0.745912    0.074493   -0.530605
    C   -0.167182    1.099756   -0.029903
    C   -0.957460   -0.049008   -0.338940
    N    0.313080   -0.020054    0.934091

FREQUENCIES 9
179.3271
342.6759
466.9365
770.4285
868.2955
882.9053
963.3964
1273.0783
1293.9235

SYMMETRY C1
ELECTRONIC_STATE 3-A
