5
Energy =   -206.623112466     
    C   -2.282444   -0.721467   -0.380089
    C    2.451064    0.798661    0.372645
    C    1.206683    0.398806    0.174136
    C    0.036323    0.022856   -0.012574
    N   -1.140442   -0.354887   -0.199152

FREQUENCIES 10
103.3901
103.3901
199.3533
199.3533
545.7626
545.7626
812.3920
1486.5676
2035.0732
2287.4056

SYMMETRY C*V
ELECTRONIC_STATE 1-SG
