5
Energy =   -206.590454170     
C  0.745892630 -0.735625229  0.130759443
C -0.251949045  0.197196777 -0.027593216
C -0.736220415  1.500892571  0.099414871
C -1.539942470  0.550284462 -0.435851174
N  1.586048115 -1.521035926  0.264088065

FREQUENCIES 9
202.8948
212.8111
526.1326
569.4574
734.8107
1103.3716
1338.6843
1670.0969
2292.5678

SYMMETRY C2V
ELECTRONIC_STATE 3-B2
