5
Energy =   -206.793388117     
C  0.979149044  0.308070735 -0.264020343
C  0.366369785 -0.926117740  0.291091317
C -0.362103289  0.168996687  0.981685221
C -0.620569813 -0.468248694 -0.720429683
N -0.362898480  0.917283725 -0.288310011

FREQUENCIES 9
386.3373
386.3454
568.2640
568.2666
842.6293
877.2963
877.2982
1058.7895
1266.4825

SYMMETRY C3V
ELECTRONIC_STATE 2-A1
