5
Energy =   -206.569828900     
C -1.012495225  1.302717152  0.228114112
C -1.510048901  0.132020385  0.698323197
C -0.235492827  0.140996925  0.113637099
C  1.842442812 -1.026567744 -0.594515249
N  0.840154834 -0.463395329 -0.252939422

FREQUENCIES 9
156.9181
162.3975
482.0247
536.3177
789.4773
1094.0596
1376.4486
1679.9796
2067.4011

SYMMETRY C2V
ELECTRONIC_STATE 3-B2
