6
Energy =   -244.498957871     
    N   -0.987192    1.091116    0.389483
    C   -0.408184   -0.425411    0.507687
    C   -0.519262   -1.054553   -0.861220
    C   -0.052085    0.951302   -0.399607
    C    0.738338   -0.236303   -0.608590
    C    1.053559   -0.315718    0.876488

FREQUENCIES 12
272.6441
346.0399
353.7466
435.9625
483.6179
582.0881
755.0288
843.4014
977.7342
1132.5644
1136.0707
1716.7874

SYMMETRY C1
ELECTRONIC_STATE 1-A
