6
Energy =   -244.942464989     
C  0.604232000 -1.715578000 -0.273012000
C  1.131527000  0.587636000  0.265140000
C -1.178090286 -0.089429869 -0.196087082
C  1.926791943  1.556416729  0.572152647
C  0.219850475 -0.358708750 -0.053725188
N -2.308968113  0.098289621 -0.317319180

FREQUENCIES 12
121.1055
180.1876
237.6669
322.2553
458.8893
579.2849
616.4896
737.9352
1085.6090
1232.5324
1826.8540
2310.5260

SYMMETRY CS
ELECTRONIC_STATE 4-A"
