6
Energy =   -244.868244495     
    C    0.835102    0.054588   -0.483382
    C   -0.523035   -1.211790    1.143416
    C   -0.759815   -0.499249   -0.102864
    C    0.640749   -0.893447    0.549244
    C   -0.731748    0.925798   -0.522075
    N    0.478385    1.408947   -0.562294

FREQUENCIES 12
133.3360
236.3763
442.6835
513.8186
565.9201
680.0390
715.1740
919.7058
974.2364
1105.1553
1333.8532
1471.7512

SYMMETRY C1
ELECTRONIC_STATE 4-A
