6
Energy =   -244.844948597     
N -0.972746458  1.089748473  0.356722093
C -0.527736308 -0.283302055  0.574904502
C -0.126660714 -1.245841765 -0.423763785
C -0.095495585  1.246767618 -0.525046565
C  0.717019115 -0.026219214 -0.691966882
C  0.830802859 -0.770715636  0.613401288

FREQUENCIES 12
433.0358
494.0870
525.4786
651.5929
691.5758
720.6028
850.2363
901.9598
1011.2581
1054.4402
1347.9717
1622.9220

SYMMETRY CS
ELECTRONIC_STATE 4-A"
