6
Energy =   -244.831301975     
C -0.112112591  1.001259323  0.141053761
C  0.645723628 -0.448560792  0.147674266
C -0.829692487 -0.224110304 -0.522480340
C -0.746355945 -1.423079509  0.132280023
C  0.540750195  0.774837095  1.322445493
N  0.450912744  0.312341160 -1.046829174

FREQUENCIES 12
263.9046
340.6799
343.0821
366.6161
501.9852
701.6707
712.0879
767.8260
827.8230
1210.2706
1213.9246
1324.1972

SYMMETRY CS
ELECTRONIC_STATE 2-A"
