6
Energy =   -244.966911667     
C -0.270087949 -0.857817717  0.757650968
C -0.173656692  1.071552887  0.477082182
C -0.509972512  0.249714174  1.500651384
C  0.135661478 -1.150345358 -0.487030668
C  0.241003181  0.957303047 -0.793524585
N  0.424218567 -0.213478885 -1.363479955

FREQUENCIES 12
292.3384
338.6350
365.8560
502.9298
519.3101
725.4031
836.9073
1126.0276
1202.7739
1377.2149
1393.2910
1710.3423

SYMMETRY C2V
ELECTRONIC_STATE 4-B2
