6
Energy =   -244.611311231     
C  2.523785601  0.024257758  0.892874815
C -0.002503617 -0.102309335  0.119878041
C  1.188678248  0.002132604  0.896786564
C -0.000738445  0.067123701  1.680670034
C  3.748725933  0.044557245  0.889285845
N -1.101699760 -0.035823120  0.903497173

FREQUENCIES 12
168.3512
170.1451
426.4388
450.6578
530.2833
598.2953
687.7947
689.8371
969.4074
1421.3661
1539.9036
2082.1918

SYMMETRY C2V
ELECTRONIC_STATE 3-B1
