6
Energy =   -244.841755710     
    C    0.422046   -0.812406    0.005177
    C   -0.543585    0.339270   -0.585605
    C   -0.659921    0.716290    0.872948
    C   -1.035670   -0.987884   -0.269564
    C    0.745921    0.423516    0.835249
    N    0.921981    0.249328   -0.759373

FREQUENCIES 12
153.9689
361.8753
514.6004
573.3616
646.5201
682.3721
828.6046
883.6158
886.9165
1135.2843
1190.5313
1257.4130

SYMMETRY C1
ELECTRONIC_STATE 2-A
