6
Energy =   -245.020402849     
C -0.315030225 -1.156924468  0.892918991
C -0.187409980  1.399388459  0.521768881
C -0.352069728  0.171158108  1.016535042
C  0.096813953 -1.060363849 -0.367431483
C  0.195159047  0.909549600 -0.653442474
N  0.409711657 -0.205965586 -1.318982106

FREQUENCIES 12
347.6667
451.7543
526.4674
538.5504
600.3744
724.0645
820.3439
1046.7170
1149.5394
1241.4957
1672.4670
1698.9170

SYMMETRY C2V
ELECTRONIC_STATE 2-A1
