6
Energy =   -244.478391392     
    C    0.725205   -0.046939   -0.991165
    C    0.473907    0.737655    0.281248
    C   -0.735709   -0.279458   -0.886385
    C    1.051668   -0.545432    0.504876
    C   -0.442950   -0.655614    0.532735
    N   -0.938216    0.677578    0.473594

FREQUENCIES 12
338.9564
408.7272
566.6994
632.0356
698.6291
781.0126
872.6541
927.5621
954.7047
1067.0269
1207.8795
1256.4791

SYMMETRY C1
ELECTRONIC_STATE 3-A
