6
Energy =   -244.606503488     
    C   -1.156685    0.336638   -0.473210
    C   -0.123327   -0.069050    1.343233
    C   -1.404771    0.071322    1.074058
    C    0.151435    0.224822   -0.370304
    C   -2.352313    0.308312    0.146486
    N    0.996688   -0.017766    0.627598

FREQUENCIES 12
252.7024
434.9684
459.5227
518.6799
661.6132
754.7655
811.7326
1136.5917
1168.7271
1388.4705
1410.7119
1830.6678

SYMMETRY C2V
ELECTRONIC_STATE 1-A1
