6
Energy =   -244.620054646     
C  2.491053757  0.023725536  0.892862211
C -0.032662086 -0.105839297  0.092333943
C  1.210425382  0.002486651  0.896709400
C -0.030716569  0.069612305  1.708547834
C  3.808285710  0.045571483  0.888905059
N -1.090137452 -0.035667581  0.903620617

FREQUENCIES 12
116.1441
140.2989
290.5578
431.2597
532.5632
660.4663
661.4965
874.3224
883.7545
1353.8138
1525.9698
2053.8854

SYMMETRY C2V
ELECTRONIC_STATE 1-A1
