6
Energy =   -244.697207996     
    C   -2.244918    1.967514    0.797488
    C    0.471483   -0.384696   -0.171715
    C   -0.446649    0.410454    0.155850
    C    1.407233   -1.195147   -0.505495
    C    2.382627   -2.033767   -0.850092
    N   -1.360291    1.201507    0.481783

FREQUENCIES 13
30.3056
30.3056
151.6667
151.6667
313.8859
313.8859
492.7465
492.7465
671.0273
1231.7880
1766.9606
2024.8250
2151.6759

SYMMETRY C*V
ELECTRONIC_STATE 3-SG
