6
Energy =   -244.552244674     
C -0.103239000 -0.716365000 -0.282366000
C -0.497245000  0.748036000 -1.017658000
C -0.025804454  1.165991159  0.062461941
C  0.899629527 -0.553620112  1.948264709
C  0.383662165  0.055194430  0.864550672
N -0.625529347 -0.621667981 -1.427505706

FREQUENCIES 12
82.9647
163.2405
327.8658
345.9797
468.5563
674.9974
713.4454
922.3825
933.4514
1587.5281
1703.2231
1903.7830

SYMMETRY CS
ELECTRONIC_STATE 1-A'
