6
Energy =   -244.985773110     
    C   -1.106170   -0.036102   -0.906700
    C    0.879193   -0.874530    0.641137
    C    1.532384    0.065772    1.410994
    C   -0.072222    0.004070    0.003769
    C    0.979681    0.886303    0.449352
    N   -2.016179   -0.062517   -1.625050

FREQUENCIES 12
165.7894
198.6446
459.3106
516.5848
555.0863
616.4860
798.7505
934.5298
1184.8459
1308.9022
1485.7682
2217.7879

SYMMETRY CS
ELECTRONIC_STATE 4-A"
