6
Energy =   -244.642592058     
    C   -0.375664    0.052208   -0.464574
    C   -1.999288    0.265762   -2.460105
    C    1.157310   -0.154750    1.424971
    C    1.996657   -0.271618    2.463227
    C   -1.168650    0.159712   -1.442483
    N    0.389637   -0.051314    0.478964

FREQUENCIES 13
22.9344
22.9358
102.7557
102.7558
248.8906
248.8908
492.2011
492.2012
692.4071
1154.2588
1690.4980
2064.2219
2181.2059

SYMMETRY C*V
ELECTRONIC_STATE 3-SG
