6
Energy =   -244.654226555     
    C   -1.248960    0.130126   -0.329886
    C    1.643543    0.405677    1.989505
    C   -1.443598   -0.348593   -1.706088
    C    0.065880    0.014313    0.104871
    C   -0.067823   -0.450036   -1.198103
    N    0.879816    0.209598    1.081603

FREQUENCIES 12
121.6513
135.7490
215.7127
409.0796
591.1667
665.7118
689.8957
949.3175
1160.1979
1234.5337
1656.9140
2093.8045

SYMMETRY CS
ELECTRONIC_STATE 1-A'
