6
Energy =   -245.012153485     
C -1.318999353  0.421493473 -0.399454369
N  1.539357856  0.189044000  1.992787777
C -1.311461974 -0.752218321 -1.258123583
C  0.025101951  0.178303587 -0.059855685
C  0.044342647 -0.246110527 -1.401712369
C  0.850590731  0.170536621  1.068205933

FREQUENCIES 12
178.5690
204.3931
415.2610
522.8917
563.7151
622.6026
657.4297
846.5304
942.4465
1170.3787
1528.5224
2327.6131

SYMMETRY CS
ELECTRONIC_STATE 2-A"
