6
Energy =   -244.620970991     
    C    1.693454    0.521402    1.421776
    C    0.791295    0.012045    0.305089
    C   -1.576745    0.115952   -0.434793
    C    2.086687   -0.238801    0.344806
    C    1.741546    1.235096    2.582995
    N   -0.436711    0.041555   -0.068826

FREQUENCIES 12
121.3130
170.1634
222.4553
318.9535
431.1731
501.7504
524.6321
897.1314
975.6652
1515.6437
1787.0298
2092.0795

SYMMETRY C1
ELECTRONIC_STATE 3-A
