6
Energy =   -245.029608388     
    C    0.574143   -1.204677   -0.292953
    C    0.244828    1.395834   -0.823650
    C   -0.642175    1.040576    0.333702
    C    0.204951    0.137467   -0.334884
    C   -1.526831    1.218672    1.300917
    N    0.890030   -2.313590   -0.270903

FREQUENCIES 12
121.1875
224.5132
261.2133
346.6544
545.7965
557.6791
632.0762
800.7358
1000.5890
1452.7428
1725.9663
2321.9350

SYMMETRY CS
ELECTRONIC_STATE 2-A"
