6
Energy =   -244.646684535     
    N    1.532261   -0.691309    1.399173
    C   -2.397499    0.146683   -1.747619
    C    0.775183   -0.026663    0.532049
    C   -0.317423   -0.019455   -0.225793
    C    2.013212    0.503197    1.111799
    C   -1.322441    0.066342   -0.963935

FREQUENCIES 12
105.7346
114.1189
271.1721
278.0694
539.3848
604.2425
606.2691
919.8117
1075.0170
1355.0061
1719.7620
2156.3258

SYMMETRY CS
ELECTRONIC_STATE 1-A'
