6
Energy =   -244.643076941     
C  1.086387000 -1.119273000 -0.047924000
C  1.274062000  0.220845000  0.213240000
C -1.369233543 -0.121895537 -0.234920274
C  1.932181886  1.382097003  0.512356830
C -0.039478014 -0.433443150 -0.093822583
N -2.488553853  0.150326158 -0.351950120

FREQUENCIES 12
129.8966
217.1231
272.2935
322.7041
516.6517
536.5942
598.7686
840.7017
972.0359
1468.8161
1782.3314
2297.1150

SYMMETRY CS
ELECTRONIC_STATE 3-A"
