6
Energy =   -244.894381795     
    N   -0.076601   -1.109650   -0.259832
    C   -0.539799    0.939698   -1.093997
    C   -0.000139    1.186948    0.121127
    C    0.867929   -0.364629    1.895698
    C    0.327556   -0.095545    0.726592
    C   -0.547471   -0.479253   -1.241841

FREQUENCIES 12
132.1079
178.2831
471.9788
544.0513
612.3271
664.6251
813.5064
963.3309
1134.3031
1483.6607
1563.3191
1701.3574

SYMMETRY CS
ELECTRONIC_STATE 4-A'
