6
Energy =   -244.469687919     
    C    0.530985   -0.890021   -0.068809
    C   -0.531185    0.391089   -0.708869
    N   -0.746358    0.588805    0.820469
    C   -0.973246   -0.762587   -0.003145
    C    0.630657    0.320753    0.842338
    C    0.939919    0.280075   -0.783153

FREQUENCIES 12
330.6234
451.9270
515.8554
560.7854
685.5544
741.4368
780.8952
881.1398
926.6724
1058.3348
1188.1285
1232.7218

SYMMETRY C1
ELECTRONIC_STATE 3-A
