6
Energy =   -245.061178094     
    C   -2.249160    1.949942    0.786403
    C    0.478303   -0.364825   -0.159709
    C   -0.429761    0.403262    0.154830
    C    1.454102   -1.183574   -0.494956
    C    2.330924   -2.045355   -0.861975
    N   -1.374923    1.206416    0.483225

FREQUENCIES 12
76.2878
150.2586
173.7625
342.2413
371.8594
440.4915
518.4538
663.4214
1244.8063
1895.4237
2093.2439
2158.6501

SYMMETRY C1
ELECTRONIC_STATE 2-A
