6
Energy =   -244.473730559     
C -0.942596244  0.855466403  0.347843733
C -0.371708793 -0.485941576  0.633847623
C -0.543215797 -0.935177693 -0.750351492
C -0.007295233  1.132840622 -0.660723545
C  0.683845509 -0.172904867 -0.504392920
N  1.006114907 -0.383860048  0.838052087

FREQUENCIES 12
182.9249
263.2138
310.0094
491.6064
809.4638
846.8885
888.4870
941.9697
1025.7797
1142.5545
1223.2897
1350.4779

SYMMETRY CS
ELECTRONIC_STATE 3-A"
