6
Energy =   -245.061176687     
    C   -2.238179   -1.794329    1.170736
    C    2.307416    1.797851   -1.293228
    C    1.391526    1.112577   -0.712989
    C   -0.451846   -0.363604    0.241532
    C    0.440060    0.345520   -0.221273
    N   -1.379810   -1.106565    0.724722

FREQUENCIES 12
79.9986
159.4756
177.1969
343.4653
376.5794
447.5402
517.3897
663.8654
1244.9326
1892.9195
2092.8608
2157.8434

SYMMETRY C1
ELECTRONIC_STATE 2-A
