6
Energy =   -245.020632835     
    C   -1.256232    0.141647   -1.125198
    N    1.401134   -0.758628    1.507207
    C    1.896351    0.393641    1.299163
    C   -0.297960    0.010623   -0.276532
    C    0.670039   -0.066545    0.548603
    C   -2.216645    0.262258   -1.979741

FREQUENCIES 12
122.0310
130.9057
275.0941
341.8682
511.9632
545.5468
568.2014
799.4458
1068.1670
1485.3036
1827.1379
2065.8015

SYMMETRY C1
ELECTRONIC_STATE 2-A
