6
Energy =   -244.803836200     
    C    0.367774   -1.045148   -0.114990
    C   -0.670510    0.258779   -0.404923
    C   -0.499690    0.983054    0.877045
    C   -0.990027   -1.141908   -0.568399
    C    0.826200    0.660887    0.894423
    N    0.817025    0.212450   -0.584323

FREQUENCIES 12
167.7172
320.5724
414.8879
533.9840
634.5213
687.3509
765.0227
854.9382
982.9655
1096.1127
1164.2672
1334.0364

SYMMETRY C1
ELECTRONIC_STATE 4-A
