6
Energy =   -244.569921409     
C -1.197909947  0.329243192 -0.416691102
C -0.060065735 -0.082159945  1.390395831
C -1.426470613  0.084837100  1.008505251
C  0.226676582  0.224461358 -0.397593818
C -2.462307930  0.319035362  0.130667147
N  1.031104980 -0.021143343  0.632573450

FREQUENCIES 12
221.2813
297.2471
377.9350
469.3246
532.0079
583.5944
750.1642
917.2215
1022.7384
1413.9140
1467.2487
1575.8433

SYMMETRY C2V
ELECTRONIC_STATE 3-A2
