6
Energy =   -244.621779810     
    C   -1.341124    0.387839   -0.356775
    C    1.529810    0.207790    1.965652
    C   -1.264821   -0.654595   -1.259478
    C    0.034159    0.150521   -0.028573
    C    0.063681   -0.300111   -1.389244
    N    0.807153    0.169641    1.010319

FREQUENCIES 12
143.1103
151.0316
323.3528
490.2010
515.8784
674.9430
836.2872
846.7281
1181.1092
1409.1777
1542.8267
2081.4748

SYMMETRY C1
ELECTRONIC_STATE 3-A
