2
Energy =   -92.7446571193     
    C   -0.642369    0.000000    0.000000
    N    0.519761    0.000000    0.000000

FREQUENCIES 1
2151.1971

SYMMETRY C*V
ELECTRONIC_STATE 2-SG
