2
Energy =   -91.3482235988     
    C   -0.782253    0.000000    0.000000
    N    0.659645    0.000000    0.000000

FREQUENCIES 1
807.5712

SYMMETRY C*V
ELECTRONIC_STATE 4-SG
