2
Energy =   -91.2762290332     
    C   -0.703570    0.000000    0.000000
    N    0.580962    0.000000    0.000000

FREQUENCIES 1
1497.9480

SYMMETRY C*V
ELECTRONIC_STATE ??
