1
Energy =   -54.0614389192     
  N            0.00000000          0.00000000          0.00000000

FREQUENCIES 0

SYMMETRY R3
ELECTRONIC_STATE 3-P
