3
Energy = -39.00910645600
C 0.000000 0.000000 0.000000
H 0.000000 0.000000 1.065851
H 0.000000 0.000000 -1.065851
