6
Energy = -151.25148459000
C 2.006918 0.000200 -0.000035
C 0.690931 -0.000421 -0.000115
C -0.690970 -0.000274 0.000223
C -2.006831 0.000269 -0.000176
H 3.144169 0.000907 0.000264
H -3.144464 0.000452 0.000359
