6
Energy = -152.64416236000
C -1.583026 -0.471438 0.000312
C -0.561221 0.427380 0.000151
C 0.783372 0.209451 0.000610
C 1.944440 -0.340127 -0.000502
H -2.666199 -0.448187 -0.001970
H -0.835193 1.496590 -0.001455
