7
Energy = -190.21785296000
C -2.562999 -0.000308 -0.045263
C -1.290586 0.000097 -0.022848
C -0.000006 0.000283 0.000085
C 1.290547 0.000257 0.022801
C 2.563016 -0.000273 0.045194
H -3.652541 0.000122 -0.064778
H 3.652706 -0.000463 0.064970
