7
Energy = -190.83158668000
C -2.526445 -0.001818 -0.000002
C -1.293574 0.001278 -0.000022
C -0.000007 0.002127 -0.000346
C 1.293581 0.000771 0.000477
C 2.526424 -0.001184 -0.000042
H -3.597722 -0.002733 0.000260
H 3.597843 -0.004308 -0.000644
