7
Energy = -189.16313616000
C 2.462915 -0.500049 0.000015
C 1.275602 -0.059207 -0.000126
C 0.006989 0.623422 0.000016
C -1.255436 -0.029877 0.000157
C -2.484652 -0.512349 -0.000040
H -0.017032 1.434163 -0.846344
H -0.015476 1.434193 0.846218
