7
Energy = -189.27599175000
C 0.853153 0.046925 -0.003612
C 0.242656 1.253163 0.001327
C -1.896778 -0.448362 -0.000107
C -0.573455 0.123588 0.001079
C 2.182555 -0.757169 0.001337
H -2.423787 -0.656538 0.968730
H -2.424994 -0.652331 -0.968881
