8
Energy = -190.74694107000
H 1.795213 -0.271006 1.178574
C 0.315112 -0.939517 -0.245207
C -0.746428 -0.052193 0.018813
C -2.145529 -0.046008 0.094212
C 1.481809 -0.107142 0.123126
H 2.367615 -0.035144 -0.524402
C 0.343110 0.878583 -0.027919
H 0.348726 1.903807 -0.432324
