5
Energy = -40.11958986200
C 0.000000 0.000000 0.000000
H 0.000000 1.087510 0.366975
H -1.087510 0.000000 -0.366975
H 1.087510 0.000000 -0.366975
H 0.000000 -1.087510 0.366975
