9
Energy = -190.44753418000
C 1.377337 -0.226399 0.001565
C -1.143749 0.391868 -0.041666
H 2.164628 -1.088829 -0.050858
H -0.256079 -1.399892 -0.774891
H -1.033380 1.512281 -0.023010
C -2.571484 0.114411 0.028794
C 2.300544 0.673928 0.018408
C -0.063067 -0.564563 -0.000809
H -0.272654 -1.359033 0.811008
