6
Energy = -189.40547321000
C -1.988437 0.007477 -0.128227
C 1.379475 -0.200609 -0.367924
C 0.483637 -0.968145 0.312018
C -0.578010 -0.028692 0.016876
C 0.577131 0.876351 0.084564
H 0.757227 1.881704 0.496162
