6
Energy = -188.53335025000
H 0.000000 0.000000 1.875465
C 0.000000 0.000000 0.758651
C 0.000000 1.182733 -0.006552
C 0.000000 2.368585 -0.529062
C 0.000000 -1.182733 -0.006552
C 0.000000 -2.368585 -0.529062
