6
Energy = -189.39000992000
H 1.036176 0.050939 1.462077
C 0.684021 0.018876 0.392978
C -0.548134 -0.758830 0.055342
C -1.621675 -0.014908 -0.239566
C -0.559538 0.764545 0.013249
C 1.872631 -0.018174 -0.465682
