 Entering Gaussian System, Link 0=/home/proyectos/fulerenos/M3C-v2.0/M3C-deps_CCC/g09-AM64L-G09RevC.01/g09
 Initial command:
 /home/proyectos/fulerenos/M3C-v2.0/M3C-deps_CCC/g09-AM64L-G09RevC.01/l1.exe "/scratch/naguirre/gaussian/Gau-5130.inp" -scrdir="/scratch/naguirre/gaussian/"
 Entering Link 1 = /home/proyectos/fulerenos/M3C-v2.0/M3C-deps_CCC/g09-AM64L-G09RevC.01/l1.exe PID=      5138.
  
 Copyright (c) 1988,1990,1992,1993,1995,1998,2003,2009,2015,
            Gaussian, Inc.  All Rights Reserved.
  
 This is part of the Gaussian(R) 09 program.  It is based on
 the Gaussian(R) 03 system (copyright 2003, Gaussian, Inc.),
 the Gaussian(R) 98 system (copyright 1998, Gaussian, Inc.),
 the Gaussian(R) 94 system (copyright 1995, Gaussian, Inc.),
 the Gaussian 92(TM) system (copyright 1992, Gaussian, Inc.),
 the Gaussian 90(TM) system (copyright 1990, Gaussian, Inc.),
 the Gaussian 88(TM) system (copyright 1988, Gaussian, Inc.),
 the Gaussian 86(TM) system (copyright 1986, Carnegie Mellon
 University), and the Gaussian 82(TM) system (copyright 1983,
 Carnegie Mellon University). Gaussian is a federally registered
 trademark of Gaussian, Inc.
  
 This software contains proprietary and confidential information,
 including trade secrets, belonging to Gaussian, Inc.
  
 This software is provided under written license and may be
 used, copied, transmitted, or stored only in accord with that
 written license.
  
 The following legend is applicable only to US Government
 contracts under FAR:
  
                    RESTRICTED RIGHTS LEGEND
  
 Use, reproduction and disclosure by the US Government is
 subject to restrictions as set forth in subparagraphs (a)
 and (c) of the Commercial Computer Software - Restricted
 Rights clause in FAR 52.227-19.
  
 Gaussian, Inc.
 340 Quinnipiac St., Bldg. 40, Wallingford CT 06492
  
  
 ---------------------------------------------------------------
 Warning -- This program may not be used in any manner that
 competes with the business of Gaussian, Inc. or will provide
 assistance to any competitor of Gaussian, Inc.  The licensee
 of this program is prohibited from giving any competitor of
 Gaussian, Inc. access to this program.  By using this program,
 the user acknowledges that Gaussian, Inc. is engaged in the
 business of creating and licensing software in the field of
 computational chemistry and represents and warrants to the
 licensee that it is not a competitor of Gaussian, Inc. and that
 it will not use this program in any manner prohibited above.
 ---------------------------------------------------------------
  

 Cite this work as:
 Gaussian 09, Revision E.01,
 M. J. Frisch, G. W. Trucks, H. B. Schlegel, G. E. Scuseria, 
 M. A. Robb, J. R. Cheeseman, G. Scalmani, V. Barone, B. Mennucci, 
 G. A. Petersson, H. Nakatsuji, M. Caricato, X. Li, H. P. Hratchian, 
 A. F. Izmaylov, J. Bloino, G. Zheng, J. L. Sonnenberg, M. Hada, 
 M. Ehara, K. Toyota, R. Fukuda, J. Hasegawa, M. Ishida, T. Nakajima, 
 Y. Honda, O. Kitao, H. Nakai, T. Vreven, J. A. Montgomery, Jr., 
 J. E. Peralta, F. Ogliaro, M. Bearpark, J. J. Heyd, E. Brothers, 
 K. N. Kudin, V. N. Staroverov, T. Keith, R. Kobayashi, J. Normand, 
 K. Raghavachari, A. Rendell, J. C. Burant, S. S. Iyengar, J. Tomasi, 
 M. Cossi, N. Rega, J. M. Millam, M. Klene, J. E. Knox, J. B. Cross, 
 V. Bakken, C. Adamo, J. Jaramillo, R. Gomperts, R. E. Stratmann, 
 O. Yazyev, A. J. Austin, R. Cammi, C. Pomelli, J. W. Ochterski, 
 R. L. Martin, K. Morokuma, V. G. Zakrzewski, G. A. Voth, 
 P. Salvador, J. J. Dannenberg, S. Dapprich, A. D. Daniels, 
 O. Farkas, J. B. Foresman, J. V. Ortiz, J. Cioslowski, 
 and D. J. Fox, Gaussian, Inc., Wallingford CT, 2013.
 
 ******************************************
 Gaussian 09:  EM64L-G09RevE.01 30-Nov-2015
                23-Oct-2016 
 ******************************************
 %NProcShared=4
 Will use up to    4 processors via shared memory.
 -----------------------------------------
 #p b3lyp/6-311+G(3df) freq symmetry=Loose
 -----------------------------------------
 1/10=4,30=1,38=1/1,3;
 2/12=2,17=4,18=3,40=1/2;
 3/5=4,6=6,7=16,11=2,16=1,25=1,30=1,71=2,74=-5,140=1/1,2,3;
 4//1;
 5/5=2,38=5,98=1/2;
 8/6=4,10=90,11=11/1;
 11/6=1,8=1,9=11,15=111,16=1/1,2,10;
 10/6=1/2;
 6/7=2,8=2,9=2,10=2,18=1,28=1/1;
 7/8=1,10=1,25=1/1,2,3,16;
 1/10=4,30=1/3;
 99//99;
 Leave Link    1 at Sun Oct 23 12:15:05 2016, MaxMem=           0 cpu:         0.2
 (Enter /home/proyectos/fulerenos/M3C-v2.0/M3C-deps_CCC/g09-AM64L-G09RevC.01/l101.exe)
 ---------
 b3lyp opt
 ---------
 Symbolic Z-matrix:
 Charge =  2 Multiplicity = 3
 C                     0.98812   0.39762   0.01046 
 C                    -0.48824   0.78423  -0.53027 
 C                    -0.98812  -0.39762  -0.01046 
 C                     0.48824  -0.78423   0.53027 
 C                    -0.63239  -1.49516   0.65762 
 C                     0.63239   1.49516  -0.65762 
 
 NAtoms=      6 NQM=        6 NQMF=       0 NMMI=      0 NMMIF=      0
                NMic=       0 NMicF=      0.
                    Isotopes and Nuclear Properties:
 (Nuclear quadrupole moments (NQMom) in fm**2, nuclear magnetic moments (NMagM)
  in nuclear magnetons)

  Atom         1           2           3           4           5           6
 IAtWgt=          12          12          12          12          12          12
 AtmWgt=  12.0000000  12.0000000  12.0000000  12.0000000  12.0000000  12.0000000
 NucSpn=           0           0           0           0           0           0
 AtZEff=   0.0000000   0.0000000   0.0000000   0.0000000   0.0000000   0.0000000
 NQMom=    0.0000000   0.0000000   0.0000000   0.0000000   0.0000000   0.0000000
 NMagM=    0.0000000   0.0000000   0.0000000   0.0000000   0.0000000   0.0000000
 AtZNuc=   6.0000000   6.0000000   6.0000000   6.0000000   6.0000000   6.0000000
 Leave Link  101 at Sun Oct 23 12:15:05 2016, MaxMem=    33554432 cpu:         0.2
 (Enter /home/proyectos/fulerenos/M3C-v2.0/M3C-deps_CCC/g09-AM64L-G09RevC.01/l103.exe)

 GradGradGradGradGradGradGradGradGradGradGradGradGradGradGradGradGradGrad
 Berny optimization.
 Initialization pass.
 Trust Radius=3.00D-01 FncErr=1.00D-07 GrdErr=1.00D-07
 Number of steps in this run=      2 maximum allowed number of steps=      2.
 GradGradGradGradGradGradGradGradGradGradGradGradGradGradGradGradGradGrad

 Leave Link  103 at Sun Oct 23 12:15:05 2016, MaxMem=    33554432 cpu:         0.0
 (Enter /home/proyectos/fulerenos/M3C-v2.0/M3C-deps_CCC/g09-AM64L-G09RevC.01/l202.exe)
                          Input orientation:                          
 ---------------------------------------------------------------------
 Center     Atomic      Atomic             Coordinates (Angstroms)
 Number     Number       Type             X           Y           Z
 ---------------------------------------------------------------------
      1          6           0        0.988121    0.397619    0.010459
      2          6           0       -0.488244    0.784233   -0.530273
      3          6           0       -0.988121   -0.397619   -0.010459
      4          6           0        0.488244   -0.784233    0.530274
      5          6           0       -0.632393   -1.495155    0.657615
      6          6           0        0.632393    1.495155   -0.657615
 ---------------------------------------------------------------------
                    Distance matrix (angstroms):
                    1          2          3          4          5
     1  C    0.000000
     2  C    1.619109   0.000000
     3  C    2.130346   1.384507   0.000000
     4  C    1.384507   2.130346   1.619109   0.000000
     5  C    2.574387   2.574387   1.333211   1.333211   0.000000
     6  C    1.333211   1.333211   2.574387   2.574387   3.503066
                    6
     6  C    0.000000
 Stoichiometry    C6(2+,3)
 Framework group  D2H[C2"(C.C),SG(C4)]
 Deg. of freedom     3
 Full point group                 D2H     NOp   8
 Largest Abelian subgroup         D2H     NOp   8
 Largest concise Abelian subgroup D2      NOp   4
                         Standard orientation:                         
 ---------------------------------------------------------------------
 Center     Atomic      Atomic             Coordinates (Angstroms)
 Number     Number       Type             X           Y           Z
 ---------------------------------------------------------------------
      1          6           0       -0.000000    0.809555   -0.692253
      2          6           0       -0.000000   -0.809555   -0.692253
      3          6           0       -0.000000   -0.809555    0.692253
      4          6           0       -0.000000    0.809555    0.692253
      5          6           0       -0.000000    0.000000    1.751533
      6          6           0        0.000000    0.000000   -1.751533
 ---------------------------------------------------------------------
 Rotational constants (GHZ):     16.0651039      5.2299819      3.9455208
 Leave Link  202 at Sun Oct 23 12:15:05 2016, MaxMem=    33554432 cpu:         0.0
 (Enter /home/proyectos/fulerenos/M3C-v2.0/M3C-deps_CCC/g09-AM64L-G09RevC.01/l301.exe)
 Standard basis: 6-311+G(3df) (5D, 7F)
 Ernie: Thresh=  0.10000D-02 Tol=  0.10000D-05 Strict=F.
 There are    52 symmetry adapted cartesian basis functions of AG  symmetry.
 There are    18 symmetry adapted cartesian basis functions of B1G symmetry.
 There are    24 symmetry adapted cartesian basis functions of B2G symmetry.
 There are    41 symmetry adapted cartesian basis functions of B3G symmetry.
 There are    18 symmetry adapted cartesian basis functions of AU  symmetry.
 There are    52 symmetry adapted cartesian basis functions of B1U symmetry.
 There are    41 symmetry adapted cartesian basis functions of B2U symmetry.
 There are    24 symmetry adapted cartesian basis functions of B3U symmetry.
 There are    43 symmetry adapted basis functions of AG  symmetry.
 There are    17 symmetry adapted basis functions of B1G symmetry.
 There are    22 symmetry adapted basis functions of B2G symmetry.
 There are    35 symmetry adapted basis functions of B3G symmetry.
 There are    17 symmetry adapted basis functions of AU  symmetry.
 There are    43 symmetry adapted basis functions of B1U symmetry.
 There are    35 symmetry adapted basis functions of B2U symmetry.
 There are    22 symmetry adapted basis functions of B3U symmetry.
   234 basis functions,   348 primitive gaussians,   270 cartesian basis functions
    18 alpha electrons       16 beta electrons
       nuclear repulsion energy       161.1305196529 Hartrees.
 IExCor=  402 DFT=T Ex+Corr=B3LYP ExCW=0 ScaHFX=  0.200000
 ScaDFX=  0.800000  0.720000  1.000000  0.810000 ScalE2=  1.000000  1.000000
 IRadAn=      0 IRanWt=     -1 IRanGd=            0 ICorTp=0 IEmpDi=  4
 NAtoms=    6 NActive=    6 NUniq=    2 SFac= 4.00D+00 NAtFMM=   60 NAOKFM=F Big=F
 Integral buffers will be    131072 words long.
 Raffenetti 2 integral format.
 Two-electron integral symmetry is turned on.
 Leave Link  301 at Sun Oct 23 12:15:05 2016, MaxMem=    33554432 cpu:         0.2
 (Enter /home/proyectos/fulerenos/M3C-v2.0/M3C-deps_CCC/g09-AM64L-G09RevC.01/l302.exe)
 NPDir=0 NMtPBC=     1 NCelOv=     1 NCel=       1 NClECP=     1 NCelD=      1
         NCelK=      1 NCelE2=     1 NClLst=     1 CellRange=     0.0.
 One-electron integrals computed using PRISM.
 One-electron integral symmetry used in STVInt
 NBasis=   234 RedAO= T EigKep=  1.62D-06  NBF=    43    17    22    35    17    43    35    22
 NBsUse=   234 1.00D-06 EigRej= -1.00D+00 NBFU=    43    17    22    35    17    43    35    22
 Precomputing XC quadrature grid using
 IXCGrd= 4 IRadAn=           0 IRanWt=          -1 IRanGd=           0 AccXCQ= 0.00D+00.
 Generated NRdTot=       0 NPtTot=           0 NUsed=           0 NTot=          32
 NSgBfM=   270   270   270   270   270 MxSgAt=     6 MxSgA2=     6.
 Leave Link  302 at Sun Oct 23 12:15:05 2016, MaxMem=    33554432 cpu:         1.1
 (Enter /home/proyectos/fulerenos/M3C-v2.0/M3C-deps_CCC/g09-AM64L-G09RevC.01/l303.exe)
 DipDrv:  MaxL=1.
 Leave Link  303 at Sun Oct 23 12:15:05 2016, MaxMem=    33554432 cpu:         0.1
 (Enter /home/proyectos/fulerenos/M3C-v2.0/M3C-deps_CCC/g09-AM64L-G09RevC.01/l401.exe)
 ExpMin= 4.38D-02 ExpMax= 4.56D+03 ExpMxC= 6.82D+02 IAcc=2 IRadAn=         4 AccDes= 0.00D+00
 Harris functional with IExCor=  402 and IRadAn=       4 diagonalized for initial guess.
 HarFok:  IExCor=  402 AccDes= 0.00D+00 IRadAn=         4 IDoV= 1 UseB2=F ITyADJ=14
 ICtDFT=  3500011 ScaDFX=  1.000000  1.000000  1.000000  1.000000
 FoFCou: FMM=F IPFlag=           0 FMFlag=      100000 FMFlg1=           0
         NFxFlg=           0 DoJE=T BraDBF=F KetDBF=T FulRan=T
         wScrn=  0.000000 ICntrl=     500 IOpCl=  0 I1Cent=   200000004 NGrid=           0
         NMat0=    1 NMatS0=      1 NMatT0=    0 NMatD0=    1 NMtDS0=    0 NMtDT0=    0
 Petite list used in FoFCou.
 Harris En= -227.682244595845    
 JPrj=0 DoOrth=F DoCkMO=F.
 Initial guess orbital symmetries:
 Alpha Orbitals:
       Occupied  (B2U) (AG) (B1U) (B3G) (B1U) (AG) (AG) (B1U) (AG)
                 (B2U) (B3G) (B2U) (B3U) (AG) (B1U) (B2G) (AG)
                 (B1G)
       Virtual   (B1U) (B3U) (B2U) (B3G) (AU) (AG) (B2G) (B1U)
                 (B3U) (B2U) (B3G) (AG) (AG) (B2G) (B1G) (B1U)
                 (B2U) (B1U) (B3U) (AU) (B1U) (B2U) (B3G) (AG)
                 (B3G) (B2G) (AG) (B2U) (B1U) (B2U) (B1U) (AG)
                 (B3G) (B3U) (B3G) (AG) (B1U) (AG) (B1G) (B1U)
                 (B2U) (B2G) (AG) (B2U) (B3U) (B1G) (B3G) (AU)
                 (B2U) (AG) (B1U) (B3G) (B3U) (B2G) (AG) (B3G)
                 (B2G) (B1U) (B3U) (AU) (B1U) (B3G) (B2U) (B1G)
                 (B1U) (B3U) (AG) (B1G) (AG) (B3G) (B2U) (AU) (B2G)
                 (B2G) (B3G) (B1U) (B2U) (B1U) (AU) (AG) (B2U)
                 (B1U) (B3G) (AG) (B3U) (AG) (B2U) (B1U) (B3G)
                 (AG) (B1G) (B3U) (B3G) (B2G) (AG) (B1U) (B2U)
                 (AU) (B1U) (B1G) (AG) (B2G) (B1U) (B2U) (B1G)
                 (B3U) (AU) (B2U) (B3G) (AG) (B1U) (B3G) (B3G)
                 (B2G) (AG) (B2U) (AU) (B3U) (AG) (B1U) (B3U) (B3U)
                 (B2G) (B1G) (B1U) (B2U) (AG) (B3G) (B2G) (B3U)
                 (AU) (AG) (B1G) (B1U) (B2G) (B2U) (B3U) (B3G)
                 (AG) (B2G) (B1G) (B2U) (B1U) (B1U) (B3G) (B2U)
                 (B1U) (AG) (B2G) (B2U) (AU) (B3G) (AG) (B3U) (B2U)
                 (B1G) (B3G) (B1U) (AG) (B1U) (AU) (B3G) (AG) (AU)
                 (B2U) (B3G) (B3U) (B2U) (B1G) (B2G) (B1U) (AG)
                 (B1U) (B3G) (B3G) (B2G) (B2U) (AU) (B1U) (B3U)
                 (AG) (B2G) (B1G) (AG) (B2U) (B3G) (B3U) (B1U)
                 (B3G) (B1G) (AU) (B1U) (B2G) (B1U) (B1G) (B3U)
                 (B2U) (AU) (AG) (AG) (AU) (B2G) (B1U) (AG) (B1U)
                 (B2U) (B3G) (B3G) (B2U) (B3G) (AG) (B1U) (B2U)
                 (AG) (B1U) (B3G)
 Beta  Orbitals:
       Occupied  (B2U) (AG) (B1U) (B3G) (B1U) (AG) (AG) (B1U) (AG)
                 (B2U) (B3G) (B2U) (B3U) (AG) (B1U) (B2G)
       Virtual   (AG) (B1G) (B1U) (B3U) (B2U) (B3G) (AU) (AG) (B2G)
                 (B1U) (B3U) (B2U) (B3G) (AG) (AG) (B2G) (B1G)
                 (B1U) (B2U) (B1U) (B3U) (AU) (B1U) (B2U) (B3G)
                 (AG) (B3G) (B2G) (AG) (B2U) (B1U) (B2U) (B1U)
                 (AG) (B3G) (B3U) (B3G) (AG) (B1U) (AG) (B1G) (B1U)
                 (B2U) (B2G) (AG) (B2U) (B3U) (B1G) (B3G) (AU)
                 (B2U) (AG) (B1U) (B3G) (B3U) (B2G) (AG) (B3G)
                 (B2G) (B1U) (B3U) (AU) (B1U) (B3G) (B2U) (B1G)
                 (B1U) (B3U) (AG) (B1G) (AG) (B3G) (B2U) (AU) (B2G)
                 (B2G) (B3G) (B1U) (B2U) (B1U) (AU) (AG) (B2U)
                 (B1U) (B3G) (AG) (B3U) (AG) (B2U) (B1U) (B3G)
                 (AG) (B1G) (B3U) (B3G) (B2G) (AG) (B1U) (B2U)
                 (AU) (B1U) (B1G) (AG) (B2G) (B1U) (B2U) (B1G)
                 (B3U) (AU) (B2U) (B3G) (AG) (B1U) (B3G) (B3G)
                 (B2G) (AG) (B2U) (AU) (B3U) (AG) (B1U) (B3U) (B3U)
                 (B2G) (B1G) (B1U) (B2U) (AG) (B3G) (B2G) (B3U)
                 (AU) (AG) (B1G) (B1U) (B2G) (B2U) (B3U) (B3G)
                 (AG) (B2G) (B1G) (B2U) (B1U) (B1U) (B3G) (B2U)
                 (B1U) (AG) (B2G) (B2U) (AU) (B3G) (AG) (B3U) (B2U)
                 (B1G) (B3G) (B1U) (AG) (B1U) (AU) (B3G) (AG) (AU)
                 (B2U) (B3G) (B3U) (B2U) (B1G) (B2G) (B1U) (AG)
                 (B1U) (B3G) (B3G) (B2G) (B2U) (AU) (B1U) (B3U)
                 (AG) (B2G) (B1G) (AG) (B2U) (B3G) (B3U) (B1U)
                 (B3G) (B1G) (AU) (B1U) (B2G) (B1U) (B1G) (B3U)
                 (B2U) (AU) (AG) (AG) (AU) (B2G) (B1U) (AG) (B1U)
                 (B2U) (B3G) (B3G) (B2U) (B3G) (AG) (B1U) (B2U)
                 (AG) (B1U) (B3G)
 The electronic state of the initial guess is 3-B1G.
 Initial guess <Sx>= 0.0000 <Sy>= 0.0000 <Sz>= 1.0000 <S**2>= 2.0000 S= 1.0000
 Leave Link  401 at Sun Oct 23 12:15:06 2016, MaxMem=    33554432 cpu:         1.6
 (Enter /home/proyectos/fulerenos/M3C-v2.0/M3C-deps_CCC/g09-AM64L-G09RevC.01/l502.exe)
 UHF open shell SCF:
 Using DIIS extrapolation, IDIIS=  1040.
 Integral symmetry usage will be decided dynamically.
 IVT=      241898 IEndB=      241898 NGot=    33554432 MDV=    33402345
 LenX=    33402345 LenY=    33329004
 Requested convergence on RMS density matrix=1.00D-08 within 128 cycles.
 Requested convergence on MAX density matrix=1.00D-06.
 Requested convergence on             energy=1.00D-06.
 No special actions if energy rises.
 Fock matrices will be formed incrementally for  20 cycles.

 Cycle   1  Pass 1  IDiag  1:
 FoFJK:  IHMeth= 1 ICntrl=       0 DoSepK=F KAlg= 0 I1Cent=   0 FoldK=F
 IRaf= 990000000 NMat=   1 IRICut=       1 DoRegI=T DoRafI=F ISym2E= 1.
 FoFCou: FMM=F IPFlag=           0 FMFlag=      100000 FMFlg1=           0
         NFxFlg=           0 DoJE=F BraDBF=F KetDBF=F FulRan=T
         wScrn=  0.000000 ICntrl=       0 IOpCl=  1 I1Cent=           0 NGrid=           0
         NMat0=    1 NMatS0=      1 NMatT0=    0 NMatD0=    1 NMtDS0=    0 NMtDT0=    0
 Petite list used in FoFCou.
 E= -227.212514169495    
 DIIS: error= 2.42D-02 at cycle   1 NSaved=   1.
 NSaved= 1 IEnMin= 1 EnMin= -227.212514169495     IErMin= 1 ErrMin= 2.42D-02
 ErrMax= 2.42D-02  0.00D+00 EMaxC= 1.00D-01 BMatC= 2.77D-01 BMatP= 2.77D-01
 IDIUse=3 WtCom= 7.58D-01 WtEn= 2.42D-01
 Coeff-Com:  0.100D+01
 Coeff-En:   0.100D+01
 Coeff:      0.100D+01
 Gap=     0.039 Goal=   None    Shift=    0.000
 Gap=     0.024 Goal=   None    Shift=    0.000
 GapD=    0.024 DampG=0.250 DampE=0.500 DampFc=0.2500 IDamp=-1.
 Damping current iteration by 2.50D-01
 RMSDP=1.12D-02 MaxDP=6.67D-01              OVMax= 3.84D-01

 Cycle   2  Pass 1  IDiag  1:
 RMSU=  2.44D-03    CP:  9.35D-01
 E= -227.236941860834     Delta-E=       -0.024427691339 Rises=F Damp=T
 DIIS: error= 1.03D-02 at cycle   2 NSaved=   2.
 NSaved= 2 IEnMin= 2 EnMin= -227.236941860834     IErMin= 2 ErrMin= 1.03D-02
 ErrMax= 1.03D-02  0.00D+00 EMaxC= 1.00D-01 BMatC= 6.44D-02 BMatP= 2.77D-01
 IDIUse=3 WtCom= 8.97D-01 WtEn= 1.03D-01
 Coeff-Com: -0.337D+00 0.134D+01
 Coeff-En:   0.000D+00 0.100D+01
 Coeff:     -0.302D+00 0.130D+01
 Gap=     0.100 Goal=   None    Shift=    0.000
 Gap=     0.115 Goal=   None    Shift=    0.000
 RMSDP=5.39D-03 MaxDP=3.91D-01 DE=-2.44D-02 OVMax= 2.77D-01

 Cycle   3  Pass 1  IDiag  1:
 RMSU=  4.03D-03    CP:  8.79D-01  2.38D+00
 E= -227.291529397628     Delta-E=       -0.054587536794 Rises=F Damp=F
 DIIS: error= 4.27D-03 at cycle   3 NSaved=   3.
 NSaved= 3 IEnMin= 3 EnMin= -227.291529397628     IErMin= 3 ErrMin= 4.27D-03
 ErrMax= 4.27D-03  0.00D+00 EMaxC= 1.00D-01 BMatC= 4.85D-03 BMatP= 6.44D-02
 IDIUse=3 WtCom= 9.57D-01 WtEn= 4.27D-02
 Coeff-Com: -0.163D+00 0.253D+00 0.910D+00
 Coeff-En:   0.000D+00 0.000D+00 0.100D+01
 Coeff:     -0.156D+00 0.242D+00 0.914D+00
 Gap=     0.110 Goal=   None    Shift=    0.000
 Gap=     0.124 Goal=   None    Shift=    0.000
 RMSDP=8.33D-04 MaxDP=6.66D-02 DE=-5.46D-02 OVMax= 4.65D-02

 Cycle   4  Pass 1  IDiag  1:
 RMSU=  6.39D-04    CP:  8.78D-01  2.55D+00  1.08D+00
 E= -227.293447655105     Delta-E=       -0.001918257477 Rises=F Damp=F
 DIIS: error= 1.56D-03 at cycle   4 NSaved=   4.
 NSaved= 4 IEnMin= 4 EnMin= -227.293447655105     IErMin= 4 ErrMin= 1.56D-03
 ErrMax= 1.56D-03  0.00D+00 EMaxC= 1.00D-01 BMatC= 2.98D-04 BMatP= 4.85D-03
 IDIUse=3 WtCom= 9.84D-01 WtEn= 1.56D-02
 Coeff-Com:  0.192D-01-0.465D-01 0.424D-01 0.985D+00
 Coeff-En:   0.000D+00 0.000D+00 0.000D+00 0.100D+01
 Coeff:      0.189D-01-0.458D-01 0.418D-01 0.985D+00
 Gap=     0.116 Goal=   None    Shift=    0.000
 Gap=     0.124 Goal=   None    Shift=    0.000
 RMSDP=4.14D-04 MaxDP=3.15D-02 DE=-1.92D-03 OVMax= 2.10D-02

 Cycle   5  Pass 1  IDiag  1:
 RMSU=  1.88D-04    CP:  8.76D-01  2.57D+00  1.13D+00  1.46D+00
 E= -227.293770568478     Delta-E=       -0.000322913373 Rises=F Damp=F
 DIIS: error= 5.29D-04 at cycle   5 NSaved=   5.
 NSaved= 5 IEnMin= 5 EnMin= -227.293770568478     IErMin= 5 ErrMin= 5.29D-04
 ErrMax= 5.29D-04  0.00D+00 EMaxC= 1.00D-01 BMatC= 5.80D-05 BMatP= 2.98D-04
 IDIUse=3 WtCom= 9.95D-01 WtEn= 5.29D-03
 Coeff-Com:  0.263D-01-0.328D-01-0.119D+00-0.166D+00 0.129D+01
 Coeff-En:   0.000D+00 0.000D+00 0.000D+00 0.000D+00 0.100D+01
 Coeff:      0.261D-01-0.326D-01-0.118D+00-0.165D+00 0.129D+01
 Gap=     0.120 Goal=   None    Shift=    0.000
 Gap=     0.124 Goal=   None    Shift=    0.000
 RMSDP=2.95D-04 MaxDP=2.06D-02 DE=-3.23D-04 OVMax= 1.55D-02

 Cycle   6  Pass 1  IDiag  1:
 RMSU=  6.39D-05    CP:  8.72D-01  2.59D+00  1.15D+00  1.82D+00  1.69D+00
 E= -227.293869048428     Delta-E=       -0.000098479951 Rises=F Damp=F
 DIIS: error= 3.01D-04 at cycle   6 NSaved=   6.
 NSaved= 6 IEnMin= 6 EnMin= -227.293869048428     IErMin= 6 ErrMin= 3.01D-04
 ErrMax= 3.01D-04  0.00D+00 EMaxC= 1.00D-01 BMatC= 1.84D-05 BMatP= 5.80D-05
 IDIUse=3 WtCom= 9.97D-01 WtEn= 3.01D-03
 Coeff-Com:  0.954D-02-0.119D-01-0.167D-01-0.150D+00 0.293D+00 0.877D+00
 Coeff-En:   0.000D+00 0.000D+00 0.000D+00 0.000D+00 0.000D+00 0.100D+01
 Coeff:      0.951D-02-0.118D-01-0.166D-01-0.150D+00 0.292D+00 0.877D+00
 Gap=     0.120 Goal=   None    Shift=    0.000
 Gap=     0.124 Goal=   None    Shift=    0.000
 RMSDP=8.22D-05 MaxDP=5.26D-03 DE=-9.85D-05 OVMax= 3.88D-03

 Cycle   7  Pass 1  IDiag  1:
 RMSU=  2.61D-05    CP:  8.72D-01  2.60D+00  1.16D+00  1.92D+00  1.84D+00
                    CP:  1.14D+00
 E= -227.293880906828     Delta-E=       -0.000011858399 Rises=F Damp=F
 DIIS: error= 1.57D-04 at cycle   7 NSaved=   7.
 NSaved= 7 IEnMin= 7 EnMin= -227.293880906828     IErMin= 7 ErrMin= 1.57D-04
 ErrMax= 1.57D-04  0.00D+00 EMaxC= 1.00D-01 BMatC= 2.80D-06 BMatP= 1.84D-05
 IDIUse=3 WtCom= 9.98D-01 WtEn= 1.57D-03
 Coeff-Com: -0.272D-02 0.407D-02 0.301D-01 0.547D-02-0.264D+00 0.119D+00
 Coeff-Com:  0.111D+01
 Coeff-En:   0.000D+00 0.000D+00 0.000D+00 0.000D+00 0.000D+00 0.000D+00
 Coeff-En:   0.100D+01
 Coeff:     -0.271D-02 0.407D-02 0.301D-01 0.546D-02-0.264D+00 0.119D+00
 Coeff:      0.111D+01
 Gap=     0.121 Goal=   None    Shift=    0.000
 Gap=     0.124 Goal=   None    Shift=    0.000
 RMSDP=4.18D-05 MaxDP=2.41D-03 DE=-1.19D-05 OVMax= 1.98D-03

 Cycle   8  Pass 1  IDiag  1:
 RMSU=  5.60D-06    CP:  8.71D-01  2.60D+00  1.16D+00  1.96D+00  1.94D+00
                    CP:  1.32D+00  1.41D+00
 E= -227.293883220034     Delta-E=       -0.000002313206 Rises=F Damp=F
 DIIS: error= 2.38D-05 at cycle   8 NSaved=   8.
 NSaved= 8 IEnMin= 8 EnMin= -227.293883220034     IErMin= 8 ErrMin= 2.38D-05
 ErrMax= 2.38D-05  0.00D+00 EMaxC= 1.00D-01 BMatC= 1.15D-07 BMatP= 2.80D-06
 IDIUse=1 WtCom= 1.00D+00 WtEn= 0.00D+00
 Coeff-Com: -0.137D-02 0.178D-02 0.135D-02 0.159D-01-0.301D-01-0.590D-01
 Coeff-Com: -0.143D-02 0.107D+01
 Coeff:     -0.137D-02 0.178D-02 0.135D-02 0.159D-01-0.301D-01-0.590D-01
 Coeff:     -0.143D-02 0.107D+01
 Gap=     0.121 Goal=   None    Shift=    0.000
 Gap=     0.124 Goal=   None    Shift=    0.000
 RMSDP=6.05D-06 MaxDP=4.42D-04 DE=-2.31D-06 OVMax= 3.18D-04

 Cycle   9  Pass 1  IDiag  1:
 RMSU=  1.39D-06    CP:  8.71D-01  2.60D+00  1.16D+00  1.97D+00  1.95D+00
                    CP:  1.34D+00  1.48D+00  1.16D+00
 E= -227.293883303344     Delta-E=       -0.000000083310 Rises=F Damp=F
 DIIS: error= 4.72D-06 at cycle   9 NSaved=   9.
 NSaved= 9 IEnMin= 9 EnMin= -227.293883303344     IErMin= 9 ErrMin= 4.72D-06
 ErrMax= 4.72D-06  0.00D+00 EMaxC= 1.00D-01 BMatC= 3.26D-09 BMatP= 1.15D-07
 IDIUse=1 WtCom= 1.00D+00 WtEn= 0.00D+00
 Coeff-Com: -0.372D-04 0.142D-04-0.947D-03 0.168D-02 0.478D-02-0.103D-01
 Coeff-Com: -0.416D-01 0.215D-01 0.102D+01
 Coeff:     -0.372D-04 0.142D-04-0.947D-03 0.168D-02 0.478D-02-0.103D-01
 Coeff:     -0.416D-01 0.215D-01 0.102D+01
 Gap=     0.121 Goal=   None    Shift=    0.000
 Gap=     0.124 Goal=   None    Shift=    0.000
 RMSDP=1.15D-06 MaxDP=4.76D-05 DE=-8.33D-08 OVMax= 5.31D-05

 Cycle  10  Pass 1  IDiag  1:
 RMSU=  4.48D-07    CP:  8.71D-01  2.60D+00  1.16D+00  1.97D+00  1.95D+00
                    CP:  1.35D+00  1.48D+00  1.20D+00  1.10D+00
 E= -227.293883306387     Delta-E=       -0.000000003042 Rises=F Damp=F
 DIIS: error= 9.19D-07 at cycle  10 NSaved=  10.
 NSaved=10 IEnMin=10 EnMin= -227.293883306387     IErMin=10 ErrMin= 9.19D-07
 ErrMax= 9.19D-07  0.00D+00 EMaxC= 1.00D-01 BMatC= 1.97D-10 BMatP= 3.26D-09
 IDIUse=1 WtCom= 1.00D+00 WtEn= 0.00D+00
 Coeff-Com:  0.730D-04-0.898D-04-0.267D-04-0.739D-03 0.860D-03 0.386D-02
 Coeff-Com:  0.511D-02-0.653D-01-0.296D-01 0.109D+01
 Coeff:      0.730D-04-0.898D-04-0.267D-04-0.739D-03 0.860D-03 0.386D-02
 Coeff:      0.511D-02-0.653D-01-0.296D-01 0.109D+01
 Gap=     0.121 Goal=   None    Shift=    0.000
 Gap=     0.124 Goal=   None    Shift=    0.000
 RMSDP=2.14D-07 MaxDP=1.97D-05 DE=-3.04D-09 OVMax= 7.73D-06

 Cycle  11  Pass 1  IDiag  1:
 RMSU=  7.53D-08    CP:  8.71D-01  2.60D+00  1.16D+00  1.97D+00  1.95D+00
                    CP:  1.35D+00  1.48D+00  1.20D+00  1.17D+00  1.14D+00
 E= -227.293883306495     Delta-E=       -0.000000000108 Rises=F Damp=F
 DIIS: error= 1.66D-07 at cycle  11 NSaved=  11.
 NSaved=11 IEnMin=11 EnMin= -227.293883306495     IErMin=11 ErrMin= 1.66D-07
 ErrMax= 1.66D-07  0.00D+00 EMaxC= 1.00D-01 BMatC= 4.58D-12 BMatP= 1.97D-10
 IDIUse=1 WtCom= 1.00D+00 WtEn= 0.00D+00
 Coeff-Com: -0.878D-05 0.119D-04 0.259D-04 0.227D-04-0.139D-03-0.160D-03
 Coeff-Com:  0.747D-03 0.591D-02-0.340D-01-0.742D-01 0.110D+01
 Coeff:     -0.878D-05 0.119D-04 0.259D-04 0.227D-04-0.139D-03-0.160D-03
 Coeff:      0.747D-03 0.591D-02-0.340D-01-0.742D-01 0.110D+01
 Gap=     0.121 Goal=   None    Shift=    0.000
 Gap=     0.124 Goal=   None    Shift=    0.000
 RMSDP=2.65D-08 MaxDP=1.22D-06 DE=-1.08D-10 OVMax= 1.11D-06

 Cycle  12  Pass 1  IDiag  1:
 RMSU=  1.49D-08    CP:  8.71D-01  2.60D+00  1.16D+00  1.97D+00  1.95D+00
                    CP:  1.35D+00  1.48D+00  1.20D+00  1.16D+00  1.15D+00
                    CP:  1.02D+00
 E= -227.293883306493     Delta-E=        0.000000000002 Rises=F Damp=F
 DIIS: error= 2.65D-08 at cycle  12 NSaved=  12.
 NSaved=12 IEnMin=11 EnMin= -227.293883306495     IErMin=12 ErrMin= 2.65D-08
 ErrMax= 2.65D-08  0.00D+00 EMaxC= 1.00D-01 BMatC= 1.66D-13 BMatP= 4.58D-12
 IDIUse=1 WtCom= 1.00D+00 WtEn= 0.00D+00
 Coeff-Com: -0.821D-07-0.668D-07-0.748D-06 0.499D-05-0.121D-04-0.519D-04
 Coeff-Com: -0.232D-03 0.696D-03 0.532D-02-0.168D-01-0.169D+00 0.118D+01
 Coeff:     -0.821D-07-0.668D-07-0.748D-06 0.499D-05-0.121D-04-0.519D-04
 Coeff:     -0.232D-03 0.696D-03 0.532D-02-0.168D-01-0.169D+00 0.118D+01
 Gap=     0.121 Goal=   None    Shift=    0.000
 Gap=     0.124 Goal=   None    Shift=    0.000
 RMSDP=1.12D-08 MaxDP=8.44D-07 DE= 1.71D-12 OVMax= 5.39D-07

 Cycle  13  Pass 1  IDiag  1:
 RMSU=  2.32D-09    CP:  8.71D-01  2.60D+00  1.16D+00  1.97D+00  1.95D+00
                    CP:  1.35D+00  1.48D+00  1.20D+00  1.16D+00  1.15D+00
                    CP:  1.01D+00  1.17D+00
 E= -227.293883306498     Delta-E=       -0.000000000005 Rises=F Damp=F
 DIIS: error= 4.48D-09 at cycle  13 NSaved=  13.
 NSaved=13 IEnMin=13 EnMin= -227.293883306498     IErMin=13 ErrMin= 4.48D-09
 ErrMax= 4.48D-09  0.00D+00 EMaxC= 1.00D-01 BMatC= 4.69D-15 BMatP= 1.66D-13
 IDIUse=1 WtCom= 1.00D+00 WtEn= 0.00D+00
 Coeff-Com:  0.176D-06-0.218D-06-0.332D-06-0.226D-07 0.473D-05 0.212D-05
 Coeff-Com: -0.413D-06-0.373D-04-0.367D-03 0.208D-02 0.109D-01-0.159D+00
 Coeff-Com:  0.115D+01
 Coeff:      0.176D-06-0.218D-06-0.332D-06-0.226D-07 0.473D-05 0.212D-05
 Coeff:     -0.413D-06-0.373D-04-0.367D-03 0.208D-02 0.109D-01-0.159D+00
 Coeff:      0.115D+01
 Gap=     0.121 Goal=   None    Shift=    0.000
 Gap=     0.124 Goal=   None    Shift=    0.000
 RMSDP=9.07D-10 MaxDP=6.38D-08 DE=-5.12D-12 OVMax= 3.05D-08

 SCF Done:  E(UB3LYP) =  -227.293883306     A.U. after   13 cycles
            NFock= 13  Conv=0.91D-09     -V/T= 2.0042
 <Sx>= 0.0000 <Sy>= 0.0000 <Sz>= 1.0000 <S**2>= 2.0917 S= 1.0303
 <L.S>= 0.000000000000E+00
 KE= 2.263345260480D+02 PE=-8.306063252642D+02 EE= 2.158473962568D+02
 Annihilation of the first spin contaminant:
 S**2 before annihilation     2.0917,   after     2.0007
 Leave Link  502 at Sun Oct 23 12:16:00 2016, MaxMem=    33554432 cpu:       203.1
 (Enter /home/proyectos/fulerenos/M3C-v2.0/M3C-deps_CCC/g09-AM64L-G09RevC.01/l801.exe)
 DoSCS=F DFT=T ScalE2(SS,OS)=  1.000000  1.000000
 Range of M.O.s used for correlation:     1   234
 NBasis=   234 NAE=    18 NBE=    16 NFC=     0 NFV=     0
 NROrb=    234 NOA=    18 NOB=    16 NVA=   216 NVB=   218

 **** Warning!!: The largest alpha MO coefficient is  0.19942749D+03


 **** Warning!!: The largest beta MO coefficient is  0.21436136D+03

 Leave Link  801 at Sun Oct 23 12:16:00 2016, MaxMem=    33554432 cpu:         0.1
 (Enter /home/proyectos/fulerenos/M3C-v2.0/M3C-deps_CCC/g09-AM64L-G09RevC.01/l1101.exe)
 Using compressed storage, NAtomX=     6.
 Will process      7 centers per pass.
 Leave Link 1101 at Sun Oct 23 12:16:00 2016, MaxMem=    33554432 cpu:         1.1
 (Enter /home/proyectos/fulerenos/M3C-v2.0/M3C-deps_CCC/g09-AM64L-G09RevC.01/l1102.exe)
 Symmetrizing basis deriv contribution to polar:
 IMax=3 JMax=2 DiffMx= 0.00D+00
 Leave Link 1102 at Sun Oct 23 12:16:00 2016, MaxMem=    33554432 cpu:         0.1
 (Enter /home/proyectos/fulerenos/M3C-v2.0/M3C-deps_CCC/g09-AM64L-G09RevC.01/l1110.exe)
 Forming Gx(P) for the SCF density, NAtomX=     6.
 Integral derivatives from FoFJK, PRISM(SPDF).
 Do as many integral derivatives as possible in FoFJK.
 G2DrvN: MDV=      33554280.
 G2DrvN: will do     7 centers at a time, making    1 passes.
 Calling FoFCou, ICntrl=  3107 FMM=F I1Cent=   0 AccDes= 0.00D+00.
 FoFJK:  IHMeth= 1 ICntrl=    3107 DoSepK=F KAlg= 0 I1Cent=   0 FoldK=F
 IRaf=         0 NMat=   1 IRICut=       1 DoRegI=T DoRafI=F ISym2E= 1.
 FoFCou: FMM=F IPFlag=           0 FMFlag=      100000 FMFlg1=           0
         NFxFlg=           0 DoJE=F BraDBF=F KetDBF=F FulRan=T
         wScrn=  0.000000 ICntrl=    3107 IOpCl=  1 I1Cent=           0 NGrid=           0
         NMat0=    1 NMatS0=      1 NMatT0=    0 NMatD0=    1 NMtDS0=    0 NMtDT0=    0
 Petite list used in FoFCou.
 End of G2Drv F.D. properties file   721 does not exist.
 End of G2Drv F.D. properties file   722 does not exist.
 End of G2Drv F.D. properties file   788 does not exist.
 Leave Link 1110 at Sun Oct 23 12:16:23 2016, MaxMem=    33554432 cpu:        91.2
 (Enter /home/proyectos/fulerenos/M3C-v2.0/M3C-deps_CCC/g09-AM64L-G09RevC.01/l1002.exe)
 Minotr:  UHF open shell wavefunction.
          IDoAtm=111111
          Direct CPHF calculation.
          Differentiating once with respect to electric field.
                with respect to dipole field.
          Differentiating once with respect to nuclear coordinates.
          Using symmetry in CPHF.
          Requested convergence is 1.0D-08 RMS, and 1.0D-07 maximum.
          Secondary convergence is 1.0D-12 RMS, and 1.0D-12 maximum.
          NewPWx=T KeepS1=F KeepF1=F KeepIn=T MapXYZ=F SortEE=F KeepMc=T.
          MDV=      33553900 using IRadAn=       2.
 Generate precomputed XC quadrature information.
          Solving linear equations simultaneously, MaxMat=       0.
 FoFJK:  IHMeth= 1 ICntrl=       0 DoSepK=F KAlg= 0 I1Cent=   0 FoldK=F
 IRaf= 990000000 NMat=   9 IRICut=      22 DoRegI=T DoRafI=T ISym2E= 2.
 FoFCou: FMM=F IPFlag=           0 FMFlag=      100000 FMFlg1=           0
         NFxFlg=           0 DoJE=F BraDBF=F KetDBF=F FulRan=T
         wScrn=  0.000000 ICntrl=       0 IOpCl=  1 I1Cent=           0 NGrid=           0
         NMat0=    9 NMatS0=      9 NMatT0=    0 NMatD0=    9 NMtDS0=    0 NMtDT0=    0
 Integrals replicated using symmetry in FoFCou.
          There are     9 degrees of freedom in the 1st order CPHF.  IDoFFX=4 NUNeed=     9.
      9 vectors produced by pass  0 Test12= 8.20D-14 1.11D-08 XBig12= 5.70D+02 1.50D+01.
 AX will form     9 AO Fock derivatives at one time.
      9 vectors produced by pass  1 Test12= 8.20D-14 1.11D-08 XBig12= 1.63D+02 3.41D+00.
      9 vectors produced by pass  2 Test12= 8.20D-14 1.11D-08 XBig12= 2.82D+01 2.63D+00.
      9 vectors produced by pass  3 Test12= 8.20D-14 1.11D-08 XBig12= 3.20D+00 5.68D-01.
      9 vectors produced by pass  4 Test12= 8.20D-14 1.11D-08 XBig12= 8.66D-02 1.13D-01.
      9 vectors produced by pass  5 Test12= 8.20D-14 1.11D-08 XBig12= 2.80D-03 2.09D-02.
      9 vectors produced by pass  6 Test12= 8.20D-14 1.11D-08 XBig12= 6.80D-05 2.65D-03.
      9 vectors produced by pass  7 Test12= 8.20D-14 1.11D-08 XBig12= 9.92D-07 1.67D-04.
      9 vectors produced by pass  8 Test12= 8.20D-14 1.11D-08 XBig12= 1.58D-08 2.83D-05.
      8 vectors produced by pass  9 Test12= 8.20D-14 1.11D-08 XBig12= 1.04D-10 1.88D-06.
      2 vectors produced by pass 10 Test12= 8.20D-14 1.11D-08 XBig12= 8.67D-13 2.31D-07.
      2 vectors produced by pass 11 Test12= 8.20D-14 1.11D-08 XBig12= 7.77D-13 4.07D-07.
      1 vectors produced by pass 12 Test12= 8.20D-14 1.11D-08 XBig12= 6.94D-15 1.70D-08.
 InvSVY:  IOpt=1 It=  1 EMax= 1.42D-14
 Solved reduced A of dimension    94 with     9 vectors.
 FullF1:  Do perturbations    1 to     9.
 Isotropic polarizability for W=    0.000000       47.15 Bohr**3.
 End of Minotr F.D. properties file   721 does not exist.
 End of Minotr F.D. properties file   722 does not exist.
 End of Minotr F.D. properties file   788 does not exist.
 Leave Link 1002 at Sun Oct 23 12:20:57 2016, MaxMem=    33554432 cpu:      1098.4
 (Enter /home/proyectos/fulerenos/M3C-v2.0/M3C-deps_CCC/g09-AM64L-G09RevC.01/l601.exe)
 Copying SCF densities to generalized density rwf, IOpCl= 1 IROHF=0.

 **********************************************************************

            Population analysis using the SCF density.

 **********************************************************************

 Orbital symmetries:
 Alpha Orbitals:
       Occupied  (AG) (B2U) (B1U) (B3G) (B1U) (AG) (AG) (B1U) (B2U)
                 (AG) (B3G) (B3U) (B2U) (AG) (B1U) (B2G) (B1G)
                 (AG)
       Virtual   (B1U) (B3U) (B2U) (AU) (B3G) (B2G) (B1U) (AG)
                 (B3U) (B2U) (B3G) (AG) (B1U) (B2U) (B1G) (B2G)
                 (AG) (B1U) (AG) (B2U) (B1U) (AU) (B3U) (B3G) (B3U)
                 (B2U) (AG) (B3G) (B2G) (AG) (B3G) (B1U) (AG) (B2U)
                 (B1U) (B1G) (AG) (B1U) (B2U) (B3G) (B1U) (B3U)
                 (B1G) (B2G) (B2U) (B3G) (AG) (AU) (B2U) (B3U)
                 (B3G) (B2G) (AG) (B1U) (B3U) (AG) (B1U) (B3G)
                 (B2G) (AU) (B1G) (B1U) (B3G) (B2U) (B1U) (AG)
                 (B3U) (B1G) (AG) (AU) (B2U) (B3G) (B2G) (B2G)
                 (B1U) (B3G) (B2U) (AG) (AU) (B1U) (B2U) (B3U)
                 (AG) (B1U) (B3G) (AG) (B2U) (B1U) (AG) (B1G) (B3U)
                 (B3G) (B2G) (B3G) (AG) (B1U) (B2U) (AU) (B1U)
                 (B1G) (B1U) (AG) (B2G) (B2U) (B1G) (B3U) (AU)
                 (B2U) (B3G) (B1U) (AG) (B3G) (AG) (B2G) (B3G)
                 (B2U) (AU) (B3U) (AG) (B1U) (B3U) (B2G) (B3U)
                 (B1G) (B2U) (B1U) (AG) (B3G) (B2G) (B3U) (AU)
                 (AG) (B1G) (B1U) (B2G) (B2U) (B3U) (AG) (B3G)
                 (B1G) (B2G) (B2U) (B1U) (B1U) (B3G) (B2U) (B1U)
                 (B2G) (AG) (B2U) (AU) (B3G) (AG) (B3U) (B1G) (B2U)
                 (B3G) (B1U) (AG) (B1U) (AU) (B3G) (AG) (AU) (B2U)
                 (B3G) (B3U) (B2U) (B1G) (B2G) (B1U) (AG) (B1U)
                 (B3G) (B3G) (B2G) (B2U) (AU) (B1U) (B3U) (AG)
                 (B2G) (B1G) (AG) (B2U) (B3U) (B3G) (B1U) (B3G)
                 (B1G) (B1U) (B2G) (AU) (B1U) (B1G) (B3U) (B2U)
                 (AU) (AG) (AU) (AG) (B2G) (B1U) (AG) (B1U) (B2U)
                 (B3G) (B3G) (B2U) (B3G) (AG) (B1U) (B2U) (AG)
                 (B1U) (B3G)
 Beta  Orbitals:
       Occupied  (AG) (B2U) (B1U) (B3G) (B1U) (AG) (AG) (B1U) (B2U)
                 (AG) (B3G) (B2U) (B3U) (AG) (B2G) (B1U)
       Virtual   (B1G) (AG) (B1U) (B2U) (B3U) (B3G) (AU) (B2G)
                 (AG) (B1U) (B3U) (B2U) (AG) (B3G) (B1U) (B1G)
                 (B2U) (B2G) (AG) (B1U) (AG) (B2U) (B1U) (AU) (B3U)
                 (B3G) (B3U) (B2U) (AG) (B3G) (B2G) (AG) (B3G)
                 (B1U) (AG) (B2U) (B1U) (B1G) (AG) (B1U) (B2U)
                 (B3G) (B1U) (B2G) (B3U) (B1G) (B2U) (AG) (B3G)
                 (AU) (B2U) (B3G) (B2G) (B3U) (AG) (B1U) (B3U)
                 (AG) (B3G) (B1U) (B2G) (AU) (B1G) (B1U) (B3G)
                 (B2U) (AG) (B1U) (B3U) (B1G) (AG) (AU) (B2U) (B3G)
                 (B2G) (B2G) (B1U) (B3G) (B2U) (AG) (AU) (B1U)
                 (B2U) (B3U) (B3G) (AG) (B1U) (AG) (B2U) (B1U)
                 (AG) (B1G) (B3G) (B3U) (B2G) (B3G) (AG) (B1U)
                 (B2U) (AU) (B1U) (B1G) (AG) (B1U) (B2G) (B2U)
                 (B1G) (B3U) (AU) (B2U) (B3G) (B1U) (AG) (B3G)
                 (B3G) (AG) (B2G) (B2U) (AU) (B3U) (AG) (B3U) (B1U)
                 (B2G) (B3U) (B1G) (B2U) (B1U) (AG) (B3G) (B2G)
                 (B3U) (AU) (AG) (B1G) (B1U) (B2U) (B2G) (B3U)
                 (AG) (B3G) (B2G) (B1G) (B2U) (B1U) (B1U) (B3G)
                 (B2U) (B1U) (B2G) (AG) (B2U) (AU) (B3G) (AG) (B3U)
                 (B1G) (B2U) (B3G) (B1U) (AG) (AU) (B1U) (B3G)
                 (AG) (AU) (B2U) (B3G) (B3U) (B2U) (B1G) (B2G)
                 (B1U) (AG) (B1U) (B3G) (B3G) (B2G) (B2U) (AU)
                 (B1U) (B3U) (AG) (B2G) (B1G) (AG) (B2U) (B3U)
                 (B3G) (B1U) (B3G) (B1G) (B1U) (AU) (B2G) (B1U)
                 (B1G) (B3U) (B2U) (AU) (AG) (AU) (AG) (B2G) (B1U)
                 (AG) (B1U) (B2U) (B3G) (B3G) (B2U) (B3G) (AG)
                 (B1U) (B2U) (AG) (B1U) (B3G)
 The electronic state is 3-B1G.
 Alpha  occ. eigenvalues --  -10.85094 -10.85087 -10.85036 -10.85027 -10.81172
 Alpha  occ. eigenvalues --  -10.81170  -1.57299  -1.44632  -1.25936  -1.24730
 Alpha  occ. eigenvalues --   -1.06671  -1.01900  -1.01764  -0.97878  -0.89482
 Alpha  occ. eigenvalues --   -0.87382  -0.80870  -0.79118
 Alpha virt. eigenvalues --   -0.67003  -0.57760  -0.56908  -0.53754  -0.51451
 Alpha virt. eigenvalues --   -0.41774  -0.35158  -0.35071  -0.28445  -0.26350
 Alpha virt. eigenvalues --   -0.26190  -0.25944  -0.23598  -0.22926  -0.21741
 Alpha virt. eigenvalues --   -0.21150  -0.20664  -0.18338  -0.15946  -0.15140
 Alpha virt. eigenvalues --   -0.14489  -0.14304  -0.14286  -0.13812  -0.12365
 Alpha virt. eigenvalues --   -0.12177  -0.10454  -0.07832  -0.07732  -0.06981
 Alpha virt. eigenvalues --   -0.06537  -0.04362  -0.04155  -0.02783  -0.00537
 Alpha virt. eigenvalues --   -0.00508   0.01515   0.03524   0.03855   0.05076
 Alpha virt. eigenvalues --    0.05319   0.05503   0.05759   0.05818   0.07131
 Alpha virt. eigenvalues --    0.07344   0.07595   0.10375   0.11017   0.14172
 Alpha virt. eigenvalues --    0.14223   0.14318   0.14659   0.16455   0.17083
 Alpha virt. eigenvalues --    0.18396   0.19730   0.20060   0.20602   0.22470
 Alpha virt. eigenvalues --    0.23931   0.26415   0.26595   0.28831   0.33921
 Alpha virt. eigenvalues --    0.34383   0.34761   0.36734   0.39263   0.42635
 Alpha virt. eigenvalues --    0.43284   0.43460   0.47328   0.50081   0.51830
 Alpha virt. eigenvalues --    0.54826   0.55502   0.59733   0.60231   0.61109
 Alpha virt. eigenvalues --    0.65702   0.71050   0.73075   0.73936   0.74030
 Alpha virt. eigenvalues --    0.75518   0.79594   0.81779   0.82103   0.83395
 Alpha virt. eigenvalues --    0.84178   0.85023   0.90705   0.91960   0.93083
 Alpha virt. eigenvalues --    0.97916   1.06951   1.10232   1.10665   1.15034
 Alpha virt. eigenvalues --    1.21082   1.21314   1.21659   1.34366   1.36509
 Alpha virt. eigenvalues --    1.38016   1.39338   1.45195   1.46792   1.52872
 Alpha virt. eigenvalues --    1.53269   1.55336   1.74513   1.75157   1.75430
 Alpha virt. eigenvalues --    1.78270   1.81260   1.89285   1.91546   1.99242
 Alpha virt. eigenvalues --    1.99270   2.09896   2.10556   2.16050   2.20364
 Alpha virt. eigenvalues --    2.21279   2.23047   2.28830   2.31478   2.32488
 Alpha virt. eigenvalues --    2.35063   2.36930   2.38264   2.41392   2.45407
 Alpha virt. eigenvalues --    2.46285   2.47447   2.54122   2.54784   2.60386
 Alpha virt. eigenvalues --    2.60712   2.63297   2.67771   2.70598   2.76143
 Alpha virt. eigenvalues --    2.81231   2.82417   2.84250   2.84488   2.87917
 Alpha virt. eigenvalues --    2.91518   2.97872   3.04994   3.07997   3.14308
 Alpha virt. eigenvalues --    3.19510   3.23399   3.24731   3.37357   3.41488
 Alpha virt. eigenvalues --    3.41702   3.57888   3.59420   3.65942   3.80953
 Alpha virt. eigenvalues --    3.83606   3.85545   3.86615   3.86934   3.97114
 Alpha virt. eigenvalues --    4.07983   4.31228   4.32153   4.34575   4.60473
 Alpha virt. eigenvalues --    4.60587   4.65087   4.68610   5.26829   6.31555
 Alpha virt. eigenvalues --    6.38156   6.42986   6.49992   6.53786   6.55525
 Alpha virt. eigenvalues --    6.55939   6.56584   6.57247   6.64496   6.65650
 Alpha virt. eigenvalues --    6.68539   6.68574   6.69094   6.79213   6.86546
 Alpha virt. eigenvalues --    6.87916   6.91476   6.91553   6.95462   7.08362
 Alpha virt. eigenvalues --    7.08674   7.18282   7.23223   7.50641   7.58225
 Alpha virt. eigenvalues --    7.86281   7.89830   8.06097   8.08501   8.42263
 Alpha virt. eigenvalues --   23.19584  24.43844  24.95174  25.09797  25.36725
 Alpha virt. eigenvalues --   25.38779
  Beta  occ. eigenvalues --  -10.84593 -10.84582 -10.84542 -10.84530 -10.80000
  Beta  occ. eigenvalues --  -10.79997  -1.56211  -1.43965  -1.23503  -1.23170
  Beta  occ. eigenvalues --   -1.05482  -1.00759  -0.98095  -0.96207  -0.85260
  Beta  occ. eigenvalues --   -0.82638
  Beta virt. eigenvalues --   -0.70267  -0.66213  -0.63758  -0.56072  -0.54965
  Beta virt. eigenvalues --   -0.50266  -0.49190  -0.38007  -0.34706  -0.33420
  Beta virt. eigenvalues --   -0.28108  -0.25976  -0.25851  -0.25333  -0.22294
  Beta virt. eigenvalues --   -0.21239  -0.21236  -0.21071  -0.20076  -0.18172
  Beta virt. eigenvalues --   -0.15541  -0.14800  -0.14299  -0.14067  -0.14015
  Beta virt. eigenvalues --   -0.12964  -0.11476  -0.11140  -0.09952  -0.07620
  Beta virt. eigenvalues --   -0.07551  -0.06845  -0.06432  -0.03998  -0.03661
  Beta virt. eigenvalues --   -0.02738  -0.00449   0.00170   0.01775   0.03548
  Beta virt. eigenvalues --    0.03982   0.05379   0.06094   0.06273   0.06530
  Beta virt. eigenvalues --    0.06852   0.07894   0.08640   0.08937   0.11194
  Beta virt. eigenvalues --    0.11310   0.14355   0.14673   0.15719   0.16447
  Beta virt. eigenvalues --    0.17212   0.18250   0.19110   0.20398   0.20411
  Beta virt. eigenvalues --    0.21732   0.23111   0.25098   0.27054   0.27260
  Beta virt. eigenvalues --    0.29659   0.34818   0.34887   0.35024   0.37750
  Beta virt. eigenvalues --    0.39609   0.43293   0.43640   0.43931   0.48038
  Beta virt. eigenvalues --    0.50758   0.51961   0.55017   0.56332   0.60342
  Beta virt. eigenvalues --    0.60761   0.61493   0.66395   0.72400   0.74261
  Beta virt. eigenvalues --    0.74278   0.74983   0.76774   0.80385   0.83701
  Beta virt. eigenvalues --    0.84131   0.84799   0.85267   0.86341   0.92108
  Beta virt. eigenvalues --    0.92795   0.94572   0.99239   1.07701   1.11345
  Beta virt. eigenvalues --    1.11765   1.17169   1.22827   1.22855   1.24256
  Beta virt. eigenvalues --    1.37425   1.38865   1.41153   1.41238   1.46169
  Beta virt. eigenvalues --    1.49219   1.55581   1.55861   1.57963   1.75829
  Beta virt. eigenvalues --    1.77413   1.77557   1.80305   1.84144   1.91235
  Beta virt. eigenvalues --    1.92199   2.00987   2.01348   2.11675   2.12276
  Beta virt. eigenvalues --    2.18838   2.21895   2.22063   2.24587   2.29734
  Beta virt. eigenvalues --    2.32429   2.34658   2.37961   2.38352   2.39963
  Beta virt. eigenvalues --    2.42707   2.47739   2.48022   2.48955   2.55169
  Beta virt. eigenvalues --    2.56117   2.62823   2.63204   2.64848   2.69407
  Beta virt. eigenvalues --    2.72214   2.77964   2.83172   2.83721   2.85949
  Beta virt. eigenvalues --    2.86856   2.88759   2.93584   2.99573   3.06845
  Beta virt. eigenvalues --    3.10409   3.15727   3.20487   3.25445   3.27164
  Beta virt. eigenvalues --    3.39395   3.43258   3.44161   3.59392   3.61389
  Beta virt. eigenvalues --    3.68275   3.81920   3.84547   3.87573   3.87647
  Beta virt. eigenvalues --    3.89175   3.99426   4.08731   4.32345   4.33813
  Beta virt. eigenvalues --    4.35265   4.61143   4.62687   4.66116   4.70644
  Beta virt. eigenvalues --    5.27583   6.33726   6.38833   6.45009   6.52205
  Beta virt. eigenvalues --    6.55948   6.58446   6.58850   6.59415   6.60542
  Beta virt. eigenvalues --    6.66147   6.67236   6.69479   6.70311   6.71861
  Beta virt. eigenvalues --    6.79699   6.88626   6.91187   6.92913   6.93563
  Beta virt. eigenvalues --    6.96029   7.10951   7.11844   7.21186   7.23718
  Beta virt. eigenvalues --    7.52197   7.61285   7.88569   7.91070   8.06638
  Beta virt. eigenvalues --    8.08850   8.43524  23.20456  24.44795  24.95816
  Beta virt. eigenvalues --   25.10907  25.37731  25.39460
          Condensed to atoms (all electrons):
               1          2          3          4          5          6
     1  C    7.165236  -0.440606   0.511915  -0.118968  -0.333615  -1.123137
     2  C   -0.440606   7.165236  -0.118968   0.511915  -0.333615  -1.123137
     3  C    0.511915  -0.118968   7.165236  -0.440606  -1.123137  -0.333615
     4  C   -0.118968   0.511915  -0.440606   7.165236  -1.123137  -0.333615
     5  C   -0.333615  -0.333615  -1.123137  -1.123137   8.742663  -0.150811
     6  C   -1.123137  -1.123137  -0.333615  -0.333615  -0.150811   8.742663
          Atomic-Atomic Spin Densities.
               1          2          3          4          5          6
     1  C    0.438445   0.351688  -0.098362   0.224558  -0.015101  -0.719910
     2  C    0.351688   0.438445   0.224558  -0.098362  -0.015101  -0.719910
     3  C   -0.098362   0.224558   0.438445   0.351688  -0.719910  -0.015101
     4  C    0.224558  -0.098362   0.351688   0.438445  -0.719910  -0.015101
     5  C   -0.015101  -0.015101  -0.719910  -0.719910   1.960599   0.146788
     6  C   -0.719910  -0.719910  -0.015101  -0.015101   0.146788   1.960599
 Mulliken charges and spin densities:
               1          2
     1  C    0.339174   0.181318
     2  C    0.339174   0.181318
     3  C    0.339174   0.181318
     4  C    0.339174   0.181318
     5  C    0.321651   0.637364
     6  C    0.321651   0.637364
 Sum of Mulliken charges =   2.00000   2.00000
 Mulliken charges and spin densities with hydrogens summed into heavy atoms:
               1          2
     1  C    0.339174   0.181318
     2  C    0.339174   0.181318
     3  C    0.339174   0.181318
     4  C    0.339174   0.181318
     5  C    0.321651   0.637364
     6  C    0.321651   0.637364
 APT charges:
               1
     1  C    0.399613
     2  C    0.399613
     3  C    0.399613
     4  C    0.399613
     5  C    0.200773
     6  C    0.200773
 Sum of APT charges =   2.00000
 APT charges with hydrogens summed into heavy atoms:
               1
     1  C    0.399613
     2  C    0.399613
     3  C    0.399613
     4  C    0.399613
     5  C    0.200773
     6  C    0.200773
 Electronic spatial extent (au):  <R**2>=            271.5802
 Charge=              2.0000 electrons
 Dipole moment (field-independent basis, Debye):
    X=             -0.0000    Y=              0.0000    Z=              0.0000  Tot=              0.0000
 Quadrupole moment (field-independent basis, Debye-Ang):
   XX=            -26.8437   YY=            -18.2850   ZZ=            -12.5364
   XY=             -0.0000   XZ=             -0.0000   YZ=              0.0000
 Traceless Quadrupole moment (field-independent basis, Debye-Ang):
   XX=             -7.6220   YY=              0.9367   ZZ=              6.6853
   XY=             -0.0000   XZ=             -0.0000   YZ=              0.0000
 Octapole moment (field-independent basis, Debye-Ang**2):
  XXX=              0.0000  YYY=             -0.0000  ZZZ=              0.0000  XYY=             -0.0000
  XXY=             -0.0000  XXZ=             -0.0000  XZZ=             -0.0000  YZZ=             -0.0000
  YYZ=             -0.0000  XYZ=              0.0000
 Hexadecapole moment (field-independent basis, Debye-Ang**3):
 XXXX=            -25.0891 YYYY=            -76.1760 ZZZZ=           -200.8877 XXXY=              0.0000
 XXXZ=              0.0000 YYYX=              0.0000 YYYZ=             -0.0000 ZZZX=              0.0000
 ZZZY=             -0.0000 XXYY=            -18.9312 XXZZ=            -43.5248 YYZZ=            -51.2218
 XXYZ=             -0.0000 YYXZ=              0.0000 ZZXY=              0.0000
 N-N= 1.611305196529D+02 E-N=-8.306063251661D+02  KE= 2.263345260480D+02
 Symmetry AG   KE= 7.490220882234D+01
 Symmetry B1G  KE= 1.474441456799D+00
 Symmetry B2G  KE= 2.596790416737D+00
 Symmetry B3G  KE= 3.551528873259D+01
 Symmetry AU   KE=-9.208056436888D-17
 Symmetry B1U  KE= 7.059702509613D+01
 Symmetry B2U  KE= 3.906684327595D+01
 Symmetry B3U  KE= 2.181928247491D+00
  Exact polarizability:  23.965  -0.000  37.723  -0.000  -0.000  79.759
 Approx polarizability:  36.012  -0.000  93.757  -0.000   0.000 215.180
                          Isotropic Fermi Contact Couplings
        Atom                 a.u.       MegaHertz       Gauss      10(-4) cm-1
     1  C(13)              0.06598      37.08553      13.23304      12.37040
     2  C(13)              0.06598      37.08553      13.23304      12.37040
     3  C(13)              0.06598      37.08553      13.23304      12.37040
     4  C(13)              0.06598      37.08553      13.23304      12.37040
     5  C(13)              0.68614     385.67802     137.61950     128.64834
     6  C(13)              0.68614     385.67802     137.61950     128.64834
 --------------------------------------------------------
       Center         ----  Spin Dipole Couplings  ----
                      3XX-RR        3YY-RR        3ZZ-RR
 --------------------------------------------------------
     1   Atom        0.434444     -0.347690     -0.086753
     2   Atom        0.434444     -0.347690     -0.086753
     3   Atom        0.434444     -0.347690     -0.086753
     4   Atom        0.434444     -0.347690     -0.086753
     5   Atom       -0.336791     -0.273814      0.610605
     6   Atom       -0.336791     -0.273814      0.610605
 --------------------------------------------------------
                        XY            XZ            YZ
 --------------------------------------------------------
     1   Atom       -0.000000      0.000000      0.008088
     2   Atom        0.000000      0.000000     -0.008088
     3   Atom        0.000000     -0.000000      0.008088
     4   Atom       -0.000000      0.000000     -0.008088
     5   Atom        0.000000      0.000000     -0.000000
     6   Atom       -0.000000     -0.000000     -0.000000
 --------------------------------------------------------


 ---------------------------------------------------------------------------------
              Anisotropic Spin Dipole Couplings in Principal Axis System
 ---------------------------------------------------------------------------------

       Atom             a.u.   MegaHertz   Gauss  10(-4) cm-1        Axes

              Baa    -0.3479   -46.690   -16.660   -15.574  0.0000  0.9995 -0.0310
     1 C(13)  Bbb    -0.0865   -11.608    -4.142    -3.872 -0.0000  0.0310  0.9995
              Bcc     0.4344    58.298    20.802    19.446  1.0000 -0.0000  0.0000
 
              Baa    -0.3479   -46.690   -16.660   -15.574 -0.0000  0.9995  0.0310
     2 C(13)  Bbb    -0.0865   -11.608    -4.142    -3.872 -0.0000 -0.0310  0.9995
              Bcc     0.4344    58.298    20.802    19.446  1.0000  0.0000  0.0000
 
              Baa    -0.3479   -46.690   -16.660   -15.574 -0.0000  0.9995 -0.0310
     3 C(13)  Bbb    -0.0865   -11.608    -4.142    -3.872  0.0000  0.0310  0.9995
              Bcc     0.4344    58.298    20.802    19.446  1.0000  0.0000 -0.0000
 
              Baa    -0.3479   -46.690   -16.660   -15.574  0.0000  0.9995  0.0310
     4 C(13)  Bbb    -0.0865   -11.608    -4.142    -3.872 -0.0000 -0.0310  0.9995
              Bcc     0.4344    58.298    20.802    19.446  1.0000 -0.0000  0.0000
 
              Baa    -0.3368   -45.194   -16.126   -15.075  1.0000  0.0000 -0.0000
     5 C(13)  Bbb    -0.2738   -36.743   -13.111   -12.256 -0.0000  1.0000  0.0000
              Bcc     0.6106    81.937    29.237    27.331  0.0000 -0.0000  1.0000
 
              Baa    -0.3368   -45.194   -16.126   -15.075  1.0000 -0.0000  0.0000
     6 C(13)  Bbb    -0.2738   -36.743   -13.111   -12.256  0.0000  1.0000  0.0000
              Bcc     0.6106    81.937    29.237    27.331 -0.0000 -0.0000  1.0000
 

 ---------------------------------------------------------------------------------

 No NMR shielding tensors so no spin-rotation constants.
 Leave Link  601 at Sun Oct 23 12:20:58 2016, MaxMem=    33554432 cpu:         2.3
 (Enter /home/proyectos/fulerenos/M3C-v2.0/M3C-deps_CCC/g09-AM64L-G09RevC.01/l701.exe)
 Compute integral second derivatives.
 ... and contract with generalized density number  0.
 Leave Link  701 at Sun Oct 23 12:20:58 2016, MaxMem=    33554432 cpu:         1.5
 (Enter /home/proyectos/fulerenos/M3C-v2.0/M3C-deps_CCC/g09-AM64L-G09RevC.01/l702.exe)
 L702 exits ... SP integral derivatives will be done elsewhere.
 Leave Link  702 at Sun Oct 23 12:20:58 2016, MaxMem=    33554432 cpu:         0.1
 (Enter /home/proyectos/fulerenos/M3C-v2.0/M3C-deps_CCC/g09-AM64L-G09RevC.01/l703.exe)
 Compute integral second derivatives, UseDBF=F ICtDFT=           0.
 Integral derivatives from FoFJK, PRISM(SPDF).
 Calling FoFJK, ICntrl=    100127 FMM=F ISym2X=1 I1Cent= 0 IOpClX= 1 NMat=1 NMatS=1 NMatT=0.
 FoFJK:  IHMeth= 1 ICntrl=  100127 DoSepK=F KAlg= 0 I1Cent=   0 FoldK=F
 IRaf=         0 NMat=   1 IRICut=       1 DoRegI=T DoRafI=F ISym2E= 1.
 FoFCou: FMM=F IPFlag=           0 FMFlag=      100000 FMFlg1=         800
         NFxFlg=           0 DoJE=F BraDBF=F KetDBF=F FulRan=T
         wScrn=  0.000000 ICntrl=  100127 IOpCl=  1 I1Cent=           0 NGrid=           0
         NMat0=    1 NMatS0=      1 NMatT0=    0 NMatD0=    1 NMtDS0=    0 NMtDT0=    0
 Petite list used in FoFCou.
 Leave Link  703 at Sun Oct 23 12:21:37 2016, MaxMem=    33554432 cpu:       153.0
 (Enter /home/proyectos/fulerenos/M3C-v2.0/M3C-deps_CCC/g09-AM64L-G09RevC.01/l716.exe)
 Dipole        =-2.14399436D-16 2.55043693D-14-2.60422651D-15
 Polarizability= 2.39645389D+01-1.36969355D-09 3.77225707D+01
                -6.55044628D-09-3.86374590D-08 7.97587143D+01
 Full mass-weighted force constant matrix:
 Low frequencies ---  -29.7964  -18.1589   -5.4396   -0.0005   -0.0005    0.0003
 Low frequencies ---  257.6641  369.6063  414.7363
 Diagonal vibrational polarizability:
        0.5339596       0.9957184       0.4563493
 Harmonic frequencies (cm**-1), IR intensities (KM/Mole), Raman scattering
 activities (A**4/AMU), depolarization ratios for plane and unpolarized
 incident light, reduced masses (AMU), force constants (mDyne/A),
 and normal coordinates:
                      1                      2                      3
                     B3U                    AU                     B2G
 Frequencies --    257.6641               369.6063               414.7355
 Red. masses --     12.0000                12.0000                12.0000
 Frc consts  --      0.4694                 0.9659                 1.2161
 IR Inten    --      1.3173                 0.0000                 0.0000
  Atom  AN      X      Y      Z        X      Y      Z        X      Y      Z
     1   6    -0.29  -0.00  -0.00     0.50  -0.00   0.00     0.44  -0.00  -0.00
     2   6    -0.29   0.00   0.00    -0.50   0.00   0.00     0.44   0.00   0.00
     3   6    -0.29  -0.00   0.00     0.50   0.00  -0.00    -0.44   0.00  -0.00
     4   6    -0.29   0.00  -0.00    -0.50  -0.00  -0.00    -0.44  -0.00   0.00
     5   6     0.58  -0.00  -0.00     0.00   0.00   0.00     0.34   0.00   0.00
     6   6     0.58   0.00  -0.00    -0.00   0.00  -0.00    -0.34   0.00  -0.00
                      4                      5                      6
                     B1U                    B3G                    AG
 Frequencies --    460.7537               528.5876               765.9446
 Red. masses --     12.0000                12.0000                12.0000
 Frc consts  --      1.5010                 1.9754                 4.1479
 IR Inten    --      1.7310                 0.0000                 0.0000
  Atom  AN      X      Y      Z        X      Y      Z        X      Y      Z
     1   6    -0.00   0.44  -0.13     0.00   0.39  -0.32    -0.00  -0.35  -0.05
     2   6    -0.00  -0.44  -0.13     0.00   0.39   0.32     0.00   0.35  -0.05
     3   6    -0.00   0.44  -0.13     0.00  -0.39   0.32    -0.00   0.35   0.05
     4   6    -0.00  -0.44  -0.13     0.00  -0.39  -0.32     0.00  -0.35   0.05
     5   6     0.00  -0.00   0.26    -0.00   0.02   0.00    -0.00  -0.00   0.50
     6   6     0.00   0.00   0.26    -0.00  -0.02   0.00     0.00  -0.00  -0.50
                      7                      8                      9
                     B2U                    AG                     B3G
 Frequencies --    850.8841              1122.8859              1189.9902
 Red. masses --     12.0000                12.0000                12.0000
 Frc consts  --      5.1188                 8.9146                10.0119
 IR Inten    --     12.1453                 0.0000                 0.0000
  Atom  AN      X      Y      Z        X      Y      Z        X      Y      Z
     1   6    -0.00  -0.26   0.21     0.00   0.31  -0.28    -0.00   0.23   0.30
     2   6     0.00  -0.26  -0.21    -0.00  -0.31  -0.28    -0.00   0.23  -0.30
     3   6    -0.00  -0.26   0.21     0.00  -0.31   0.28    -0.00  -0.23  -0.30
     4   6     0.00  -0.26  -0.21    -0.00   0.31   0.28    -0.00  -0.23   0.30
     5   6     0.00   0.53   0.00    -0.00  -0.00   0.39     0.00   0.46  -0.00
     6   6    -0.00   0.53  -0.00     0.00  -0.00  -0.39     0.00  -0.46  -0.00
                     10                     11                     12
                     B2U                    B1U                    AG
 Frequencies --   1408.2922              1471.9833              1818.8083
 Red. masses --     12.0000                12.0000                12.0000
 Frc consts  --     14.0222                15.3192                23.3887
 IR Inten    --     40.1118                19.0760                 0.0000
  Atom  AN      X      Y      Z        X      Y      Z        X      Y      Z
     1   6     0.00   0.12   0.46    -0.00  -0.23  -0.26    -0.00   0.17   0.41
     2   6     0.00   0.12  -0.46    -0.00   0.23  -0.26     0.00  -0.17   0.41
     3   6    -0.00   0.12   0.46    -0.00  -0.23  -0.26    -0.00  -0.17  -0.41
     4   6    -0.00   0.12  -0.46    -0.00   0.23  -0.26     0.00   0.17  -0.41
     5   6     0.00  -0.24  -0.00     0.00   0.00   0.51    -0.00   0.00   0.32
     6   6    -0.00  -0.24   0.00     0.00  -0.00   0.51     0.00   0.00  -0.32

 -------------------
 - Thermochemistry -
 -------------------
 Temperature   298.150 Kelvin.  Pressure   1.00000 Atm.
 Atom     1 has atomic number  6 and mass  12.00000
 Atom     2 has atomic number  6 and mass  12.00000
 Atom     3 has atomic number  6 and mass  12.00000
 Atom     4 has atomic number  6 and mass  12.00000
 Atom     5 has atomic number  6 and mass  12.00000
 Atom     6 has atomic number  6 and mass  12.00000
 Molecular mass:    72.00000 amu.
 Principal axes and moments of inertia in atomic units:
                           1         2         3
     Eigenvalues --   112.33922 345.07599 457.41521
           X           -0.00000   0.00000   1.00000
           Y            0.00000   1.00000  -0.00000
           Z            1.00000  -0.00000   0.00000
 This molecule is an asymmetric top.
 Rotational symmetry number  4.
 Rotational temperatures (Kelvin)      0.77100     0.25100     0.18935
 Rotational constants (GHZ):          16.06510     5.22998     3.94552
 Zero-point vibrational energy      63761.8 (Joules/Mol)
                                   15.23943 (Kcal/Mol)
 Warning -- explicit consideration of   5 degrees of freedom as
           vibrations may cause significant error
 Vibrational temperatures:    370.72   531.78   596.71   662.92   760.52
          (Kelvin)           1102.02  1224.23  1615.58  1712.13  2026.22
                             2117.85  2616.86
 
 Zero-point correction=                           0.024286 (Hartree/Particle)
 Thermal correction to Energy=                    0.028896
 Thermal correction to Enthalpy=                  0.029840
 Thermal correction to Gibbs Free Energy=        -0.002525
 Sum of electronic and zero-point Energies=           -227.269598
 Sum of electronic and thermal Energies=              -227.264987
 Sum of electronic and thermal Enthalpies=            -227.264043
 Sum of electronic and thermal Free Energies=         -227.296408
 
                     E (Thermal)             CV                S
                      KCal/Mol        Cal/Mol-Kelvin    Cal/Mol-Kelvin
 Total                   18.132             15.169             68.117
 Electronic               0.000              0.000              2.183
 Translational            0.889              2.981             38.739
 Rotational               0.889              2.981             21.632
 Vibrational             16.355              9.207              5.563
 Vibration     1          0.667              1.750              1.678
 Vibration     2          0.742              1.535              1.081
 Vibration     3          0.778              1.438              0.910
 Vibration     4          0.819              1.337              0.764
 Vibration     5          0.884              1.187              0.590
                       Q            Log10(Q)             Ln(Q)
 Total Bot       0.144971D+02          1.161281          2.673949
 Total V=0       0.214707D+13         12.331847         28.395127
 Vib (Bot)       0.168866D-10        -10.772459        -24.804503
 Vib (Bot)    1  0.754681D+00         -0.122237         -0.281461
 Vib (Bot)    2  0.492708D+00         -0.307410         -0.707839
 Vib (Bot)    3  0.425074D+00         -0.371535         -0.855492
 Vib (Bot)    4  0.368922D+00         -0.433066         -0.997171
 Vib (Bot)    5  0.302957D+00         -0.518619         -1.194165
 Vib (V=0)       0.250096D+01          0.398107          0.916675
 Vib (V=0)    1  0.140529D+01          0.147765          0.340241
 Vib (V=0)    2  0.120197D+01          0.079893          0.183961
 Vib (V=0)    3  0.115627D+01          0.063059          0.145198
 Vib (V=0)    4  0.112137D+01          0.049750          0.114553
 Vib (V=0)    5  0.108462D+01          0.035278          0.081232
 Electronic      0.300000D+01          0.477121          1.098612
 Translational   0.240134D+08          7.380454         16.994123
 Rotational      0.119169D+05          4.076165          9.385716
 
                                                              b3lyp opt
                                                             IR Spectrum
 
     1                        1   1              1    1                                                                              
     8                        4   4              1    1                  8     7                5   4   4  3       2                 
     1                        7   0              9    2                  5     6                2   6   1  7       5                 
     9                        2   8              0    3                  1     6                9   1   5  0       8                 
 
                              X   X                                      X                          X              X                 
                              X   X                                      X                                                           
                              X   X                                      X                                                           
                              X   X                                      X                                                           
                              X   X                                      X                                                           
                              X   X                                      X                                                           
                              X   X                                                                                                  
                              X   X                                                                                                  
                              X   X                                                                                                  
                              X   X                                                                                                  
                                  X                                                                                                  
                                  X                                                                                                  
                                  X                                                                                                  
                                  X                                                                                                  
                                  X                                                                                                  
                                  X                                                                                                  
                                  X                                                                                                  
                                  X                                                                                                  
                                  X                                                                                                  
                                  X                                                                                                  
 
 ***** Axes restored to original set *****
 -------------------------------------------------------------------
 Center     Atomic                   Forces (Hartrees/Bohr)
 Number     Number              X              Y              Z
 -------------------------------------------------------------------
      1        6           0.000170278   -0.000426657    0.000266939
      2        6          -0.000461248   -0.000261280    0.000035637
      3        6          -0.000170278    0.000426657   -0.000266939
      4        6           0.000461248    0.000261280   -0.000035637
      5        6          -0.000108653   -0.000256887    0.000112987
      6        6           0.000108653    0.000256887   -0.000112987
 -------------------------------------------------------------------
 Cartesian Forces:  Max     0.000461248 RMS     0.000269802
 Z-matrix is all fixed cartesians, so copy forces.
 Force constants in Cartesian coordinates: 
                1             2             3             4             5 
      1  0.214047D+00
      2  0.118731D-01  0.559863D+00
      3  0.346053D-01 -0.279509D+00  0.190315D+00
      4 -0.804566D-01  0.986684D-01 -0.714733D-01  0.440169D+00
      5  0.102092D-01  0.654072D-01 -0.316346D-01  0.249574D+00  0.419864D+00
      6 -0.241088D-01 -0.116389D-01  0.279782D-02 -0.415555D-01 -0.150817D+00
      7 -0.761615D-01 -0.111677D-01 -0.119621D-01 -0.137284D-01 -0.112060D+00
      8 -0.111677D-01 -0.824492D-01  0.433414D-01 -0.127426D+00 -0.270917D+00
      9 -0.119621D-01  0.433414D-01 -0.226997D-01  0.714571D-01  0.104732D+00
     10 -0.137284D-01 -0.127426D+00  0.714571D-01 -0.837240D-01 -0.191174D-01
     11 -0.112060D+00 -0.270917D+00  0.104732D+00 -0.191174D-01 -0.777671D-01
     12  0.632294D-01  0.101258D+00 -0.679342D-01 -0.941495D-02  0.390374D-01
     13 -0.922478D-02 -0.220475D-01  0.820312D-02  0.715222D-02  0.188753D-01
     14  0.165973D-02  0.364923D-02  0.201398D-02 -0.483183D-02 -0.649030D-02
     15 -0.449063D-02 -0.334489D-02  0.748582D-02  0.268713D-02  0.113346D-01
     16 -0.344761D-01  0.501000D-01 -0.308302D-01 -0.269413D+00 -0.147481D+00
     17  0.994856D-01 -0.275553D+00  0.161056D+00 -0.196867D+00 -0.130096D+00
     18 -0.572732D-01  0.149893D+00 -0.109965D+00  0.482994D-01  0.273475D-01
                6             7             8             9            10 
      6  0.104192D+00
      7  0.632294D-01  0.214047D+00
      8  0.101258D+00  0.118731D-01  0.559863D+00
      9 -0.679342D-01  0.346053D-01 -0.279509D+00  0.190315D+00
     10 -0.941495D-02 -0.804566D-01  0.986684D-01 -0.714733D-01  0.440169D+00
     11  0.390374D-01  0.102092D-01  0.654072D-01 -0.316346D-01  0.249574D+00
     12 -0.198194D-01 -0.241088D-01 -0.116389D-01  0.279782D-02 -0.415555D-01
     13 -0.100066D-01 -0.344761D-01  0.501000D-01 -0.308302D-01 -0.269413D+00
     14  0.597571D-02  0.994856D-01 -0.275553D+00  0.161056D+00 -0.196867D+00
     15  0.124836D-02 -0.572732D-01  0.149893D+00 -0.109965D+00  0.482994D-01
     16  0.218564D-01 -0.922478D-02 -0.220474D-01  0.820311D-02  0.715223D-02
     17  0.161841D-01  0.165973D-02  0.364924D-02  0.201398D-02 -0.483184D-02
     18 -0.204849D-01 -0.449063D-02 -0.334489D-02  0.748582D-02  0.268713D-02
               11            12            13            14            15 
     11  0.419864D+00
     12 -0.150817D+00  0.104192D+00
     13 -0.147481D+00  0.218564D-01  0.306416D+00
     14 -0.130096D+00  0.161841D-01  0.113089D+00  0.434815D+00
     15  0.273475D-01 -0.204849D-01  0.435400D-02 -0.196932D+00  0.125705D+00
     16  0.188753D-01 -0.100066D-01 -0.455148D-03 -0.125362D-01  0.642326D-02
     17 -0.649031D-02  0.597571D-02 -0.125362D-01 -0.263242D-01  0.117024D-01
     18  0.113346D-01  0.124836D-02  0.642326D-02  0.117024D-01 -0.399021D-02
               16            17            18 
     16  0.306416D+00
     17  0.113089D+00  0.434815D+00
     18  0.435399D-02 -0.196932D+00  0.125705D+00
 Leave Link  716 at Sun Oct 23 12:21:37 2016, MaxMem=    33554432 cpu:         0.1
 (Enter /home/proyectos/fulerenos/M3C-v2.0/M3C-deps_CCC/g09-AM64L-G09RevC.01/l103.exe)

 GradGradGradGradGradGradGradGradGradGradGradGradGradGradGradGradGradGrad
 Berny optimization.
 Search for a local minimum.
 Step number   1 out of a maximum of    2
 All quantities printed in internal units (Hartrees-Bohrs-Radians)
 Second derivative matrix not updated -- analytic derivatives used.
 The second derivative matrix:
                          X1        Y1        Z1        X2        Y2
           X1           0.21405
           Y1           0.01187   0.55986
           Z1           0.03461  -0.27951   0.19031
           X2          -0.08046   0.09867  -0.07147   0.44017
           Y2           0.01021   0.06541  -0.03163   0.24957   0.41986
           Z2          -0.02411  -0.01164   0.00280  -0.04156  -0.15082
           X3          -0.07616  -0.01117  -0.01196  -0.01373  -0.11206
           Y3          -0.01117  -0.08245   0.04334  -0.12743  -0.27092
           Z3          -0.01196   0.04334  -0.02270   0.07146   0.10473
           X4          -0.01373  -0.12743   0.07146  -0.08372  -0.01912
           Y4          -0.11206  -0.27092   0.10473  -0.01912  -0.07777
           Z4           0.06323   0.10126  -0.06793  -0.00941   0.03904
           X5          -0.00922  -0.02205   0.00820   0.00715   0.01888
           Y5           0.00166   0.00365   0.00201  -0.00483  -0.00649
           Z5          -0.00449  -0.00334   0.00749   0.00269   0.01133
           X6          -0.03448   0.05010  -0.03083  -0.26941  -0.14748
           Y6           0.09949  -0.27555   0.16106  -0.19687  -0.13010
           Z6          -0.05727   0.14989  -0.10996   0.04830   0.02735
                          Z2        X3        Y3        Z3        X4
           Z2           0.10419
           X3           0.06323   0.21405
           Y3           0.10126   0.01187   0.55986
           Z3          -0.06793   0.03461  -0.27951   0.19031
           X4          -0.00941  -0.08046   0.09867  -0.07147   0.44017
           Y4           0.03904   0.01021   0.06541  -0.03163   0.24957
           Z4          -0.01982  -0.02411  -0.01164   0.00280  -0.04156
           X5          -0.01001  -0.03448   0.05010  -0.03083  -0.26941
           Y5           0.00598   0.09949  -0.27555   0.16106  -0.19687
           Z5           0.00125  -0.05727   0.14989  -0.10996   0.04830
           X6           0.02186  -0.00922  -0.02205   0.00820   0.00715
           Y6           0.01618   0.00166   0.00365   0.00201  -0.00483
           Z6          -0.02048  -0.00449  -0.00334   0.00749   0.00269
                          Y4        Z4        X5        Y5        Z5
           Y4           0.41986
           Z4          -0.15082   0.10419
           X5          -0.14748   0.02186   0.30642
           Y5          -0.13010   0.01618   0.11309   0.43481
           Z5           0.02735  -0.02048   0.00435  -0.19693   0.12571
           X6           0.01888  -0.01001  -0.00046  -0.01254   0.00642
           Y6          -0.00649   0.00598  -0.01254  -0.02632   0.01170
           Z6           0.01133   0.00125   0.00642   0.01170  -0.00399
                          X6        Y6        Z6
           X6           0.30642
           Y6           0.11309   0.43481
           Z6           0.00435  -0.19693   0.12571
 ITU=  0
     Eigenvalues ---    0.03015   0.06204   0.07811   0.09641   0.12688
     Eigenvalues ---    0.26642   0.32879   0.57259   0.64307   0.90065
     Eigenvalues ---    0.98396   1.50227
 Angle between quadratic step and forces=  39.32 degrees.
 ClnCor:  largest displacement from symmetrization is 2.08D-11 for atom     3.
 Linear search not attempted -- first point.
 ClnCor:  largest displacement from symmetrization is 4.73D-15 for atom     5.
 B after Tr=    -0.000000    0.000000   -0.000000
         Rot=    1.000000   -0.000000    0.000000    0.000000 Ang=   0.00 deg.
 Variable       Old X    -DE/DX   Delta X   Delta X   Delta X     New X
                                 (Linear)    (Quad)   (Total)
    X1        1.86728   0.00017   0.00000   0.00045   0.00045   1.86773
    Y1        0.75139  -0.00043   0.00000  -0.00035  -0.00035   0.75104
    Z1        0.01976   0.00027   0.00000   0.00029   0.00029   0.02005
    X2       -0.92265  -0.00046   0.00000  -0.00063  -0.00063  -0.92327
    Y2        1.48199  -0.00026   0.00000  -0.00006  -0.00006   1.48192
    Z2       -1.00207   0.00004   0.00000  -0.00011  -0.00011  -1.00218
    X3       -1.86728  -0.00017   0.00000  -0.00045  -0.00045  -1.86773
    Y3       -0.75139   0.00043   0.00000   0.00035   0.00035  -0.75104
    Z3       -0.01976  -0.00027   0.00000  -0.00029  -0.00029  -0.02005
    X4        0.92265   0.00046   0.00000   0.00063   0.00063   0.92327
    Y4       -1.48199   0.00026   0.00000   0.00006   0.00006  -1.48192
    Z4        1.00207  -0.00004   0.00000   0.00011   0.00011   1.00218
    X5       -1.19505  -0.00011   0.00000   0.00004   0.00004  -1.19501
    Y5       -2.82543  -0.00026   0.00000   0.00010   0.00010  -2.82534
    Z5        1.24271   0.00011   0.00000  -0.00004  -0.00004   1.24267
    X6        1.19505   0.00011   0.00000  -0.00004  -0.00004   1.19501
    Y6        2.82543   0.00026   0.00000  -0.00010  -0.00010   2.82534
    Z6       -1.24271  -0.00011   0.00000   0.00004   0.00004  -1.24267
         Item               Value     Threshold  Converged?
 Maximum Force            0.000461     0.000450     NO 
 RMS     Force            0.000270     0.000300     YES
 Maximum Displacement     0.000628     0.001800     YES
 RMS     Displacement     0.000304     0.001200     YES
 Predicted change in Energy=-5.712281D-07
 GradGradGradGradGradGradGradGradGradGradGradGradGradGradGradGradGradGrad

 Leave Link  103 at Sun Oct 23 12:21:37 2016, MaxMem=    33554432 cpu:         0.1
 (Enter /home/proyectos/fulerenos/M3C-v2.0/M3C-deps_CCC/g09-AM64L-G09RevC.01/l9999.exe)
 1\1\GINC-BELVIS17\Freq\UB3LYP\6-311+G(3df)\C6(2+,3)\ROOT\23-Oct-2016\0
 \\#p b3lyp/6-311+G(3df) freq symmetry=Loose\\b3lyp opt\\2,3\C,0.988121
 226,0.3976186369,0.0104589109\C,-0.4882436178,0.784233122,-0.530273444
 9\C,-0.988121226,-0.3976186369,-0.0104585776\C,0.4882436178,-0.7842331
 22,0.5302737782\C,-0.6323927978,-1.4951550703,0.6576154966\C,0.6323927
 978,1.4951550703,-0.6576151633\\Version=EM64L-G09RevE.01\State=3-B1G\H
 F=-227.2938833\S2=2.091717\S2-1=0.\S2A=2.000658\RMSD=9.067e-10\RMSF=2.
 698e-04\ZeroPoint=0.0242856\Thermal=0.0288959\Dipole=0.,0.,0.\DipoleDe
 riv=0.4853023,-0.0331287,0.0437809,0.3520463,0.3748065,0.077054,-0.162
 4567,-0.0100126,0.3387312,0.252225,0.1070339,-0.0839534,-0.2781411,0.5
 191123,-0.1426632,0.1222843,-0.0555966,0.4275027,0.4853023,-0.0331287,
 0.0437809,0.3520463,0.3748065,0.077054,-0.1624567,-0.0100126,0.3387312
 ,0.252225,0.1070339,-0.0839534,-0.2781411,0.5191123,-0.1426632,0.12228
 43,-0.0555966,0.4275027,0.2624727,-0.0739051,0.0401725,-0.0739052,0.10
 60812,0.0656092,0.0401725,0.0656092,0.233766,0.2624727,-0.0739052,0.04
 01725,-0.0739052,0.1060812,0.0656092,0.0401725,0.0656092,0.233766\Pola
 r=42.676834,14.2003774,65.4049915,-3.3736255,-18.9789143,33.3639984\PG
 =D02H [C2"(C1.C1),SG(C4)]\NImag=0\\0.21404743,0.01187312,0.55986318,0.
 03460528,-0.27950886,0.19031474,-0.08045661,0.09866839,-0.07147325,0.4
 4016948,0.01020922,0.06540718,-0.03163461,0.24957411,0.41986362,-0.024
 10877,-0.01163892,0.00279782,-0.04155545,-0.15081669,0.10419224,-0.076
 16154,-0.01116772,-0.01196208,-0.01372844,-0.11206000,0.06322936,0.214
 04743,-0.01116772,-0.08244924,0.04334141,-0.12742636,-0.27091712,0.101
 25835,0.01187312,0.55986318,-0.01196208,0.04334141,-0.02269966,0.07145
 711,0.10473183,-0.06793419,0.03460528,-0.27950886,0.19031474,-0.013728
 44,-0.12742636,0.07145711,-0.08372399,-0.01911742,-0.00941495,-0.08045
 661,0.09866839,-0.07147325,0.44016948,-0.11206000,-0.27091712,0.104731
 83,-0.01911741,-0.07776708,0.03903741,0.01020922,0.06540718,-0.0316346
 1,0.24957411,0.41986362,0.06322936,0.10125835,-0.06793419,-0.00941495,
 0.03903741,-0.01981937,-0.02410877,-0.01163892,0.00279782,-0.04155545,
 -0.15081669,0.10419224,-0.00922478,-0.02204745,0.00820312,0.00715222,0
 .01887535,-0.01000661,-0.03447606,0.05010004,-0.03083018,-0.26941268,-
 0.14748125,0.02185643,0.30641646,0.00165973,0.00364923,0.00201398,-0.0
 0483183,-0.00649030,0.00597571,0.09948565,-0.27555324,0.16105626,-0.19
 686687,-0.13009628,0.01618414,0.11308947,0.43481485,-0.00449063,-0.003
 34489,0.00748582,0.00268713,0.01133458,0.00124836,-0.05727315,0.149892
 92,-0.10996453,0.04829941,0.02734748,-0.02048485,0.00435400,-0.1969324
 6,0.12570541,-0.03447607,0.05010003,-0.03083018,-0.26941269,-0.1474812
 7,0.02185644,-0.00922478,-0.02204744,0.00820311,0.00715223,0.01887535,
 -0.01000661,-0.00045515,-0.01253616,0.00642326,0.30641648,0.09948565,-
 0.27555323,0.16105625,-0.19686688,-0.13009629,0.01618414,0.00165973,0.
 00364924,0.00201398,-0.00483184,-0.00649031,0.00597571,-0.01253616,-0.
 02632424,0.01170236,0.11308950,0.43481483,-0.05727315,0.14989291,-0.10
 996453,0.04829941,0.02734748,-0.02048485,-0.00449063,-0.00334489,0.007
 48582,0.00268713,0.01133458,0.00124836,0.00642326,0.01170236,-0.003990
 21,0.00435399,-0.19693245,0.12570540\\-0.00017028,0.00042666,-0.000266
 94,0.00046125,0.00026128,-0.00003564,0.00017028,-0.00042666,0.00026694
 ,-0.00046125,-0.00026128,0.00003564,0.00010865,0.00025689,-0.00011299,
 -0.00010865,-0.00025689,0.00011299\\\@


 THE REAL VOYAGE OF DISCOVERY CONSISTS NOT IN SEEKING NEW LANDSCAPES 
 BUT IN HAVING NEW EYES.
                                                    -- MARCEL PROUST
 Job cpu time:       0 days  0 hours 25 minutes 55.2 seconds.
 File lengths (MBytes):  RWF=     54 Int=      0 D2E=      0 Chk=      5 Scr=      1
 Normal termination of Gaussian 09 at Sun Oct 23 12:21:37 2016.
