 Entering Gaussian System, Link 0=/home/proyectos/fulerenos/M3C-v1.9/M3C-deps_CCC/g09-AM64L-G09RevC.01/g09
 Initial command:
 /home/proyectos/fulerenos/M3C-v1.9/M3C-deps_CCC/g09-AM64L-G09RevC.01/l1.exe "/scratch/naguirre/gaussian/Gau-28359.inp" -scrdir="/scratch/naguirre/gaussian/"
 Entering Link 1 = /home/proyectos/fulerenos/M3C-v1.9/M3C-deps_CCC/g09-AM64L-G09RevC.01/l1.exe PID=     28364.
  
 Copyright (c) 1988,1990,1992,1993,1995,1998,2003,2009,2015,
            Gaussian, Inc.  All Rights Reserved.
  
 This is part of the Gaussian(R) 09 program.  It is based on
 the Gaussian(R) 03 system (copyright 2003, Gaussian, Inc.),
 the Gaussian(R) 98 system (copyright 1998, Gaussian, Inc.),
 the Gaussian(R) 94 system (copyright 1995, Gaussian, Inc.),
 the Gaussian 92(TM) system (copyright 1992, Gaussian, Inc.),
 the Gaussian 90(TM) system (copyright 1990, Gaussian, Inc.),
 the Gaussian 88(TM) system (copyright 1988, Gaussian, Inc.),
 the Gaussian 86(TM) system (copyright 1986, Carnegie Mellon
 University), and the Gaussian 82(TM) system (copyright 1983,
 Carnegie Mellon University). Gaussian is a federally registered
 trademark of Gaussian, Inc.
  
 This software contains proprietary and confidential information,
 including trade secrets, belonging to Gaussian, Inc.
  
 This software is provided under written license and may be
 used, copied, transmitted, or stored only in accord with that
 written license.
  
 The following legend is applicable only to US Government
 contracts under FAR:
  
                    RESTRICTED RIGHTS LEGEND
  
 Use, reproduction and disclosure by the US Government is
 subject to restrictions as set forth in subparagraphs (a)
 and (c) of the Commercial Computer Software - Restricted
 Rights clause in FAR 52.227-19.
  
 Gaussian, Inc.
 340 Quinnipiac St., Bldg. 40, Wallingford CT 06492
  
  
 ---------------------------------------------------------------
 Warning -- This program may not be used in any manner that
 competes with the business of Gaussian, Inc. or will provide
 assistance to any competitor of Gaussian, Inc.  The licensee
 of this program is prohibited from giving any competitor of
 Gaussian, Inc. access to this program.  By using this program,
 the user acknowledges that Gaussian, Inc. is engaged in the
 business of creating and licensing software in the field of
 computational chemistry and represents and warrants to the
 licensee that it is not a competitor of Gaussian, Inc. and that
 it will not use this program in any manner prohibited above.
 ---------------------------------------------------------------
  

 Cite this work as:
 Gaussian 09, Revision E.01,
 M. J. Frisch, G. W. Trucks, H. B. Schlegel, G. E. Scuseria, 
 M. A. Robb, J. R. Cheeseman, G. Scalmani, V. Barone, B. Mennucci, 
 G. A. Petersson, H. Nakatsuji, M. Caricato, X. Li, H. P. Hratchian, 
 A. F. Izmaylov, J. Bloino, G. Zheng, J. L. Sonnenberg, M. Hada, 
 M. Ehara, K. Toyota, R. Fukuda, J. Hasegawa, M. Ishida, T. Nakajima, 
 Y. Honda, O. Kitao, H. Nakai, T. Vreven, J. A. Montgomery, Jr., 
 J. E. Peralta, F. Ogliaro, M. Bearpark, J. J. Heyd, E. Brothers, 
 K. N. Kudin, V. N. Staroverov, T. Keith, R. Kobayashi, J. Normand, 
 K. Raghavachari, A. Rendell, J. C. Burant, S. S. Iyengar, J. Tomasi, 
 M. Cossi, N. Rega, J. M. Millam, M. Klene, J. E. Knox, J. B. Cross, 
 V. Bakken, C. Adamo, J. Jaramillo, R. Gomperts, R. E. Stratmann, 
 O. Yazyev, A. J. Austin, R. Cammi, C. Pomelli, J. W. Ochterski, 
 R. L. Martin, K. Morokuma, V. G. Zakrzewski, G. A. Voth, 
 P. Salvador, J. J. Dannenberg, S. Dapprich, A. D. Daniels, 
 O. Farkas, J. B. Foresman, J. V. Ortiz, J. Cioslowski, 
 and D. J. Fox, Gaussian, Inc., Wallingford CT, 2013.
 
 ******************************************
 Gaussian 09:  EM64L-G09RevE.01 30-Nov-2015
                19-Jun-2016 
 ******************************************
 %NProcShared=4
 Will use up to    4 processors via shared memory.
 -----------------------------------------
 #p b3lyp/6-311+G(3df) freq symmetry=Loose
 -----------------------------------------
 1/10=4,30=1,38=1/1,3;
 2/12=2,17=4,18=3,40=1/2;
 3/5=4,6=6,7=16,11=2,16=1,25=1,30=1,71=2,74=-5,140=1/1,2,3;
 4//1;
 5/5=2,38=5,98=1/2;
 8/6=4,10=90,11=11/1;
 11/6=1,8=1,9=11,15=111,16=1/1,2,10;
 10/6=1/2;
 6/7=2,8=2,9=2,10=2,18=1,28=1/1;
 7/8=1,10=1,25=1/1,2,3,16;
 1/10=4,30=1/3;
 99//99;
 Leave Link    1 at Sun Jun 19 13:06:55 2016, MaxMem=           0 cpu:         0.3
 (Enter /home/proyectos/fulerenos/M3C-v1.9/M3C-deps_CCC/g09-AM64L-G09RevC.01/l101.exe)
 ---------
 b3lyp opt
 ---------
 Symbolic Z-matrix:
 Charge =  2 Multiplicity = 1
 C                     0.67551  -0.4988   -0.9446 
 C                    -0.17187   0.76339  -0.95142 
 C                     0.0645    0.5564    1.40218 
 C                    -0.8775    0.27108   0.29163 
 C                    -0.49773  -1.11088  -0.19173 
 C                     0.8071    0.01881   0.39395 
 
 NAtoms=      6 NQM=        6 NQMF=       0 NMMI=      0 NMMIF=      0
                NMic=       0 NMicF=      0.
                    Isotopes and Nuclear Properties:
 (Nuclear quadrupole moments (NQMom) in fm**2, nuclear magnetic moments (NMagM)
  in nuclear magnetons)

  Atom         1           2           3           4           5           6
 IAtWgt=          12          12          12          12          12          12
 AtmWgt=  12.0000000  12.0000000  12.0000000  12.0000000  12.0000000  12.0000000
 NucSpn=           0           0           0           0           0           0
 AtZEff=   0.0000000   0.0000000   0.0000000   0.0000000   0.0000000   0.0000000
 NQMom=    0.0000000   0.0000000   0.0000000   0.0000000   0.0000000   0.0000000
 NMagM=    0.0000000   0.0000000   0.0000000   0.0000000   0.0000000   0.0000000
 AtZNuc=   6.0000000   6.0000000   6.0000000   6.0000000   6.0000000   6.0000000
 Leave Link  101 at Sun Jun 19 13:06:56 2016, MaxMem=    33554432 cpu:         0.5
 (Enter /home/proyectos/fulerenos/M3C-v1.9/M3C-deps_CCC/g09-AM64L-G09RevC.01/l103.exe)

 GradGradGradGradGradGradGradGradGradGradGradGradGradGradGradGradGradGrad
 Berny optimization.
 Initialization pass.
 Trust Radius=3.00D-01 FncErr=1.00D-07 GrdErr=1.00D-07
 Number of steps in this run=      2 maximum allowed number of steps=      2.
 GradGradGradGradGradGradGradGradGradGradGradGradGradGradGradGradGradGrad

 Leave Link  103 at Sun Jun 19 13:06:56 2016, MaxMem=    33554432 cpu:         0.2
 (Enter /home/proyectos/fulerenos/M3C-v1.9/M3C-deps_CCC/g09-AM64L-G09RevC.01/l202.exe)
                          Input orientation:                          
 ---------------------------------------------------------------------
 Center     Atomic      Atomic             Coordinates (Angstroms)
 Number     Number       Type             X           Y           Z
 ---------------------------------------------------------------------
      1          6           0        0.675509   -0.498796   -0.944602
      2          6           0       -0.171873    0.763390   -0.951422
      3          6           0        0.064497    0.556396    1.402179
      4          6           0       -0.877500    0.271083    0.291627
      5          6           0       -0.497728   -1.110881   -0.191734
      6          6           0        0.807096    0.018808    0.393953
 ---------------------------------------------------------------------
                    Distance matrix (angstroms):
                    1          2          3          4          5
     1  C    0.000000
     2  C    1.520268   0.000000
     3  C    2.644645   2.374480   0.000000
     4  C    2.129040   1.511769   1.483943   0.000000
     5  C    1.522479   2.048463   2.374125   1.512511   0.000000
     6  C    1.441166   1.822859   1.362708   1.706452   1.822578
                    6
     6  C    0.000000
 Stoichiometry    C6(2+)
 Framework group  C1[X(C6)]
 Deg. of freedom    12
 Full point group                 C1      NOp   1
 Largest Abelian subgroup         C1      NOp   1
 Largest concise Abelian subgroup C1      NOp   1
                         Standard orientation:                         
 ---------------------------------------------------------------------
 Center     Atomic      Atomic             Coordinates (Angstroms)
 Number     Number       Type             X           Y           Z
 ---------------------------------------------------------------------
      1          6           0       -1.131924    0.562251   -0.002221
      2          6           0       -0.554841   -0.398261    1.025206
      3          6           0        1.492004    0.231877   -0.000224
      4          6           0        0.468125   -0.842245    0.004489
      5          6           0       -0.552822   -0.407345   -1.023235
      6          6           0        0.279458    0.853723   -0.004015
 ---------------------------------------------------------------------
 Rotational constants (GHZ):      9.9544692      6.4631841      6.4290899
 Leave Link  202 at Sun Jun 19 13:06:56 2016, MaxMem=    33554432 cpu:         0.4
 (Enter /home/proyectos/fulerenos/M3C-v1.9/M3C-deps_CCC/g09-AM64L-G09RevC.01/l301.exe)
 Standard basis: 6-311+G(3df) (5D, 7F)
 Ernie: Thresh=  0.10000D-02 Tol=  0.10000D-05 Strict=F.
 There are   270 symmetry adapted cartesian basis functions of A   symmetry.
 There are   234 symmetry adapted basis functions of A   symmetry.
   234 basis functions,   348 primitive gaussians,   270 cartesian basis functions
    17 alpha electrons       17 beta electrons
       nuclear repulsion energy       163.8416692097 Hartrees.
 IExCor=  402 DFT=T Ex+Corr=B3LYP ExCW=0 ScaHFX=  0.200000
 ScaDFX=  0.800000  0.720000  1.000000  0.810000 ScalE2=  1.000000  1.000000
 IRadAn=      0 IRanWt=     -1 IRanGd=            0 ICorTp=0 IEmpDi=  4
 NAtoms=    6 NActive=    6 NUniq=    6 SFac= 1.00D+00 NAtFMM=   60 NAOKFM=F Big=F
 Integral buffers will be    131072 words long.
 Raffenetti 2 integral format.
 Two-electron integral symmetry is turned on.
 Leave Link  301 at Sun Jun 19 13:06:56 2016, MaxMem=    33554432 cpu:         0.3
 (Enter /home/proyectos/fulerenos/M3C-v1.9/M3C-deps_CCC/g09-AM64L-G09RevC.01/l302.exe)
 NPDir=0 NMtPBC=     1 NCelOv=     1 NCel=       1 NClECP=     1 NCelD=      1
         NCelK=      1 NCelE2=     1 NClLst=     1 CellRange=     0.0.
 One-electron integrals computed using PRISM.
 NBasis=   234 RedAO= T EigKep=  1.80D-05  NBF=   234
 NBsUse=   234 1.00D-06 EigRej= -1.00D+00 NBFU=   234
 Precomputing XC quadrature grid using
 IXCGrd= 4 IRadAn=           0 IRanWt=          -1 IRanGd=           0 AccXCQ= 0.00D+00.
 Generated NRdTot=       0 NPtTot=           0 NUsed=           0 NTot=          32
 NSgBfM=   270   270   270   270   270 MxSgAt=     6 MxSgA2=     6.
 Leave Link  302 at Sun Jun 19 13:06:57 2016, MaxMem=    33554432 cpu:         2.0
 (Enter /home/proyectos/fulerenos/M3C-v1.9/M3C-deps_CCC/g09-AM64L-G09RevC.01/l303.exe)
 DipDrv:  MaxL=1.
 Leave Link  303 at Sun Jun 19 13:06:57 2016, MaxMem=    33554432 cpu:         0.1
 (Enter /home/proyectos/fulerenos/M3C-v1.9/M3C-deps_CCC/g09-AM64L-G09RevC.01/l401.exe)
 ExpMin= 4.38D-02 ExpMax= 4.56D+03 ExpMxC= 6.82D+02 IAcc=2 IRadAn=         4 AccDes= 0.00D+00
 Harris functional with IExCor=  402 and IRadAn=       4 diagonalized for initial guess.
 HarFok:  IExCor=  402 AccDes= 0.00D+00 IRadAn=         4 IDoV= 1 UseB2=F ITyADJ=14
 ICtDFT=  3500011 ScaDFX=  1.000000  1.000000  1.000000  1.000000
 FoFCou: FMM=F IPFlag=           0 FMFlag=      100000 FMFlg1=           0
         NFxFlg=           0 DoJE=T BraDBF=F KetDBF=T FulRan=T
         wScrn=  0.000000 ICntrl=     500 IOpCl=  0 I1Cent=   200000004 NGrid=           0
         NMat0=    1 NMatS0=      1 NMatT0=    0 NMatD0=    1 NMtDS0=    0 NMtDT0=    0
 Petite list used in FoFCou.
 Harris En= -227.587283231200    
 JPrj=0 DoOrth=F DoCkMO=F.
 Leave Link  401 at Sun Jun 19 13:06:58 2016, MaxMem=    33554432 cpu:         4.0
 (Enter /home/proyectos/fulerenos/M3C-v1.9/M3C-deps_CCC/g09-AM64L-G09RevC.01/l502.exe)
 Closed shell SCF:
 Using DIIS extrapolation, IDIIS=  1040.
 Integral symmetry usage will be decided dynamically.
 IVT=      240790 IEndB=      240790 NGot=    33554432 MDV=    33403453
 LenX=    33403453 LenY=    33330112
 Requested convergence on RMS density matrix=1.00D-08 within 128 cycles.
 Requested convergence on MAX density matrix=1.00D-06.
 Requested convergence on             energy=1.00D-06.
 No special actions if energy rises.
 Fock matrices will be formed incrementally for  20 cycles.

 Cycle   1  Pass 1  IDiag  1:
 FoFJK:  IHMeth= 1 ICntrl=       0 DoSepK=F KAlg= 0 I1Cent=   0 FoldK=F
 IRaf= 990000000 NMat=   1 IRICut=       1 DoRegI=T DoRafI=F ISym2E= 0.
 FoFCou: FMM=F IPFlag=           0 FMFlag=      100000 FMFlg1=           0
         NFxFlg=           0 DoJE=F BraDBF=F KetDBF=F FulRan=T
         wScrn=  0.000000 ICntrl=       0 IOpCl=  0 I1Cent=           0 NGrid=           0
         NMat0=    1 NMatS0=      1 NMatT0=    0 NMatD0=    1 NMtDS0=    0 NMtDT0=    0
 Symmetry not used in FoFCou.
 E= -227.089466132064    
 DIIS: error= 2.34D-02 at cycle   1 NSaved=   1.
 NSaved= 1 IEnMin= 1 EnMin= -227.089466132064     IErMin= 1 ErrMin= 2.34D-02
 ErrMax= 2.34D-02  0.00D+00 EMaxC= 1.00D-01 BMatC= 6.02D-02 BMatP= 6.02D-02
 IDIUse=3 WtCom= 7.66D-01 WtEn= 2.34D-01
 Coeff-Com:  0.100D+01
 Coeff-En:   0.100D+01
 Coeff:      0.100D+01
 Gap=     0.097 Goal=   None    Shift=    0.000
 GapD=    0.097 DampG=0.500 DampE=0.500 DampFc=0.2500 IDamp=-1.
 Damping current iteration by 2.50D-01
 RMSDP=7.42D-03 MaxDP=4.75D-01              OVMax= 4.09D-01

 Cycle   2  Pass 1  IDiag  1:
 RMSU=  1.85D-03    CP:  1.00D+00
 E= -227.105093922705     Delta-E=       -0.015627790641 Rises=F Damp=T
 DIIS: error= 7.72D-03 at cycle   2 NSaved=   2.
 NSaved= 2 IEnMin= 2 EnMin= -227.105093922705     IErMin= 2 ErrMin= 7.72D-03
 ErrMax= 7.72D-03  0.00D+00 EMaxC= 1.00D-01 BMatC= 1.90D-02 BMatP= 6.02D-02
 IDIUse=3 WtCom= 9.23D-01 WtEn= 7.72D-02
 Coeff-Com: -0.131D+00 0.113D+01
 Coeff-En:   0.221D+00 0.779D+00
 Coeff:     -0.104D+00 0.110D+01
 Gap=     0.105 Goal=   None    Shift=    0.000
 RMSDP=5.96D-03 MaxDP=4.55D-01 DE=-1.56D-02 OVMax= 5.13D-01

 Cycle   3  Pass 1  IDiag  1:
 RMSU=  5.64D-03    CP:  1.10D+00  7.20D-01
 E= -227.006577752233     Delta-E=        0.098516170472 Rises=F Damp=F
 DIIS: error= 3.26D-02 at cycle   3 NSaved=   3.
 NSaved= 3 IEnMin= 2 EnMin= -227.105093922705     IErMin= 2 ErrMin= 7.72D-03
 ErrMax= 3.26D-02  0.00D+00 EMaxC= 1.00D-01 BMatC= 1.32D-01 BMatP= 1.90D-02
 IDIUse=2 WtCom= 0.00D+00 WtEn= 1.00D+00
 Coeff-En:   0.000D+00 0.763D+00 0.237D+00
 Coeff:      0.000D+00 0.763D+00 0.237D+00
 Gap=     0.116 Goal=   None    Shift=    0.000
 RMSDP=6.11D-03 MaxDP=4.64D-01 DE= 9.85D-02 OVMax= 3.96D-01

 Cycle   4  Pass 1  IDiag  1:
 RMSU=  1.77D-03    CP:  1.07D+00  2.85D+00  2.44D-01
 E= -227.108218863160     Delta-E=       -0.101641110928 Rises=F Damp=F
 DIIS: error= 1.86D-02 at cycle   4 NSaved=   4.
 NSaved= 4 IEnMin= 4 EnMin= -227.108218863160     IErMin= 2 ErrMin= 7.72D-03
 ErrMax= 1.86D-02  0.00D+00 EMaxC= 1.00D-01 BMatC= 4.93D-02 BMatP= 1.90D-02
 IDIUse=2 WtCom= 0.00D+00 WtEn= 1.00D+00
 Coeff-En:   0.000D+00 0.000D+00 0.343D+00 0.657D+00
 Coeff:      0.000D+00 0.000D+00 0.343D+00 0.657D+00
 Gap=     0.109 Goal=   None    Shift=    0.000
 RMSDP=3.53D-03 MaxDP=3.60D-01 DE=-1.02D-01 OVMax= 2.08D-01

 Cycle   5  Pass 1  IDiag  1:
 RMSU=  8.67D-04    CP:  1.11D+00  1.57D+00  6.54D-01  9.94D-01
 E= -227.145810574715     Delta-E=       -0.037591711555 Rises=F Damp=F
 DIIS: error= 1.10D-02 at cycle   5 NSaved=   5.
 NSaved= 5 IEnMin= 5 EnMin= -227.145810574715     IErMin= 2 ErrMin= 7.72D-03
 ErrMax= 1.10D-02  0.00D+00 EMaxC= 1.00D-01 BMatC= 1.79D-02 BMatP= 1.90D-02
 IDIUse=3 WtCom= 8.90D-01 WtEn= 1.10D-01
 Coeff-Com: -0.126D+00 0.215D+00 0.129D+00 0.332D+00 0.449D+00
 Coeff-En:   0.000D+00 0.000D+00 0.000D+00 0.326D+00 0.674D+00
 Coeff:     -0.112D+00 0.192D+00 0.115D+00 0.332D+00 0.474D+00
 Gap=     0.109 Goal=   None    Shift=    0.000
 RMSDP=1.06D-03 MaxDP=8.25D-02 DE=-3.76D-02 OVMax= 5.76D-02

 Cycle   6  Pass 1  IDiag  1:
 RMSU=  3.92D-04    CP:  1.11D+00  1.95D+00  5.61D-01  9.43D-01  4.85D-01
 E= -227.163901081853     Delta-E=       -0.018090507138 Rises=F Damp=F
 DIIS: error= 2.39D-03 at cycle   6 NSaved=   6.
 NSaved= 6 IEnMin= 6 EnMin= -227.163901081853     IErMin= 6 ErrMin= 2.39D-03
 ErrMax= 2.39D-03  0.00D+00 EMaxC= 1.00D-01 BMatC= 9.52D-04 BMatP= 1.79D-02
 IDIUse=3 WtCom= 9.76D-01 WtEn= 2.39D-02
 Coeff-Com: -0.166D+00 0.212D+00-0.411D-02 0.714D-01 0.321D+00 0.566D+00
 Coeff-En:   0.000D+00 0.000D+00 0.000D+00 0.000D+00 0.000D+00 0.100D+01
 Coeff:     -0.162D+00 0.207D+00-0.401D-02 0.697D-01 0.313D+00 0.576D+00
 Gap=     0.110 Goal=   None    Shift=    0.000
 RMSDP=2.56D-04 MaxDP=1.23D-02 DE=-1.81D-02 OVMax= 1.22D-02

 Cycle   7  Pass 1  IDiag  1:
 RMSU=  1.46D-04    CP:  1.11D+00  1.97D+00  5.61D-01  9.56D-01  6.01D-01
                    CP:  5.86D-01
 E= -227.164709961571     Delta-E=       -0.000808879718 Rises=F Damp=F
 DIIS: error= 7.61D-04 at cycle   7 NSaved=   7.
 NSaved= 7 IEnMin= 7 EnMin= -227.164709961571     IErMin= 7 ErrMin= 7.61D-04
 ErrMax= 7.61D-04  0.00D+00 EMaxC= 1.00D-01 BMatC= 1.47D-04 BMatP= 9.52D-04
 IDIUse=3 WtCom= 9.92D-01 WtEn= 7.61D-03
 Coeff-Com: -0.919D-01 0.121D+00-0.172D-01 0.121D-01 0.128D+00 0.324D+00
 Coeff-Com:  0.524D+00
 Coeff-En:   0.000D+00 0.000D+00 0.000D+00 0.000D+00 0.000D+00 0.000D+00
 Coeff-En:   0.100D+01
 Coeff:     -0.912D-01 0.120D+00-0.170D-01 0.120D-01 0.127D+00 0.322D+00
 Coeff:      0.528D+00
 Gap=     0.110 Goal=   None    Shift=    0.000
 RMSDP=9.20D-05 MaxDP=6.87D-03 DE=-8.09D-04 OVMax= 4.60D-03

 Cycle   8  Pass 1  IDiag  1:
 RMSU=  4.75D-05    CP:  1.11D+00  2.00D+00  5.53D-01  9.58D-01  5.97D-01
                    CP:  6.25D-01  7.57D-01
 E= -227.164845100107     Delta-E=       -0.000135138536 Rises=F Damp=F
 DIIS: error= 5.98D-04 at cycle   8 NSaved=   8.
 NSaved= 8 IEnMin= 8 EnMin= -227.164845100107     IErMin= 8 ErrMin= 5.98D-04
 ErrMax= 5.98D-04  0.00D+00 EMaxC= 1.00D-01 BMatC= 2.71D-05 BMatP= 1.47D-04
 IDIUse=3 WtCom= 9.94D-01 WtEn= 5.98D-03
 Coeff-Com: -0.415D-01 0.546D-01-0.112D-01 0.451D-02 0.441D-01 0.107D+00
 Coeff-Com:  0.230D+00 0.613D+00
 Coeff-En:   0.000D+00 0.000D+00 0.000D+00 0.000D+00 0.000D+00 0.000D+00
 Coeff-En:   0.000D+00 0.100D+01
 Coeff:     -0.413D-01 0.543D-01-0.111D-01 0.448D-02 0.439D-01 0.107D+00
 Coeff:      0.228D+00 0.615D+00
 Gap=     0.110 Goal=   None    Shift=    0.000
 RMSDP=3.13D-05 MaxDP=1.80D-03 DE=-1.35D-04 OVMax= 2.27D-03

 Cycle   9  Pass 1  IDiag  1:
 RMSU=  1.92D-05    CP:  1.11D+00  2.01D+00  5.51D-01  9.58D-01  6.00D-01
                    CP:  6.40D-01  8.08D-01  8.16D-01
 E= -227.164869292893     Delta-E=       -0.000024192786 Rises=F Damp=F
 DIIS: error= 1.89D-04 at cycle   9 NSaved=   9.
 NSaved= 9 IEnMin= 9 EnMin= -227.164869292893     IErMin= 9 ErrMin= 1.89D-04
 ErrMax= 1.89D-04  0.00D+00 EMaxC= 1.00D-01 BMatC= 7.11D-06 BMatP= 2.71D-05
 IDIUse=3 WtCom= 9.98D-01 WtEn= 1.89D-03
 Coeff-Com: -0.185D-02 0.252D-02-0.323D-02 0.427D-02-0.540D-02-0.276D-01
 Coeff-Com: -0.271D-01 0.406D+00 0.653D+00
 Coeff-En:   0.000D+00 0.000D+00 0.000D+00 0.000D+00 0.000D+00 0.000D+00
 Coeff-En:   0.000D+00 0.000D+00 0.100D+01
 Coeff:     -0.185D-02 0.252D-02-0.322D-02 0.426D-02-0.539D-02-0.275D-01
 Coeff:     -0.271D-01 0.405D+00 0.653D+00
 Gap=     0.110 Goal=   None    Shift=    0.000
 RMSDP=2.97D-05 MaxDP=2.56D-03 DE=-2.42D-05 OVMax= 1.48D-03

 Cycle  10  Pass 1  IDiag  1:
 RMSU=  1.28D-05    CP:  1.11D+00  2.02D+00  5.48D-01  9.61D-01  6.00D-01
                    CP:  6.27D-01  8.08D-01  9.92D-01  7.24D-01
 E= -227.164875439740     Delta-E=       -0.000006146847 Rises=F Damp=F
 DIIS: error= 1.16D-04 at cycle  10 NSaved=  10.
 NSaved=10 IEnMin=10 EnMin= -227.164875439740     IErMin=10 ErrMin= 1.16D-04
 ErrMax= 1.16D-04  0.00D+00 EMaxC= 1.00D-01 BMatC= 1.68D-06 BMatP= 7.11D-06
 IDIUse=3 WtCom= 9.99D-01 WtEn= 1.16D-03
 Coeff-Com:  0.439D-02-0.569D-02-0.136D-02 0.346D-02-0.112D-01-0.404D-01
 Coeff-Com: -0.575D-01 0.281D+00 0.570D+00 0.258D+00
 Coeff-En:   0.000D+00 0.000D+00 0.000D+00 0.000D+00 0.000D+00 0.000D+00
 Coeff-En:   0.000D+00 0.000D+00 0.831D-01 0.917D+00
 Coeff:      0.438D-02-0.568D-02-0.136D-02 0.345D-02-0.112D-01-0.403D-01
 Coeff:     -0.574D-01 0.280D+00 0.569D+00 0.259D+00
 Gap=     0.110 Goal=   None    Shift=    0.000
 RMSDP=1.04D-05 MaxDP=4.70D-04 DE=-6.15D-06 OVMax= 7.35D-04

 Cycle  11  Pass 1  IDiag  1:
 RMSU=  4.39D-06    CP:  1.11D+00  2.02D+00  5.48D-01  9.61D-01  5.99D-01
                    CP:  6.23D-01  8.08D-01  1.01D+00  8.71D-01  4.04D-01
 E= -227.164877290810     Delta-E=       -0.000001851070 Rises=F Damp=F
 DIIS: error= 7.72D-06 at cycle  11 NSaved=  11.
 NSaved=11 IEnMin=11 EnMin= -227.164877290810     IErMin=11 ErrMin= 7.72D-06
 ErrMax= 7.72D-06  0.00D+00 EMaxC= 1.00D-01 BMatC= 1.10D-08 BMatP= 1.68D-06
 IDIUse=1 WtCom= 1.00D+00 WtEn= 0.00D+00
 Coeff-Com:  0.107D-02-0.143D-02-0.121D-03 0.529D-03-0.152D-02-0.446D-02
 Coeff-Com: -0.527D-02 0.313D-01 0.371D-01 0.703D-01 0.872D+00
 Coeff:      0.107D-02-0.143D-02-0.121D-03 0.529D-03-0.152D-02-0.446D-02
 Coeff:     -0.527D-02 0.313D-01 0.371D-01 0.703D-01 0.872D+00
 Gap=     0.110 Goal=   None    Shift=    0.000
 RMSDP=1.41D-06 MaxDP=1.14D-04 DE=-1.85D-06 OVMax= 5.73D-05

 Cycle  12  Pass 1  IDiag  1:
 RMSU=  9.12D-07    CP:  1.11D+00  2.02D+00  5.48D-01  9.62D-01  6.00D-01
                    CP:  6.23D-01  8.10D-01  1.02D+00  8.67D-01  4.43D-01
                    CP:  9.48D-01
 E= -227.164877303891     Delta-E=       -0.000000013080 Rises=F Damp=F
 DIIS: error= 2.08D-06 at cycle  12 NSaved=  12.
 NSaved=12 IEnMin=12 EnMin= -227.164877303891     IErMin=12 ErrMin= 2.08D-06
 ErrMax= 2.08D-06  0.00D+00 EMaxC= 1.00D-01 BMatC= 5.72D-10 BMatP= 1.10D-08
 IDIUse=1 WtCom= 1.00D+00 WtEn= 0.00D+00
 Coeff-Com:  0.822D-04-0.117D-03 0.728D-05-0.337D-04 0.117D-03 0.102D-02
 Coeff-Com:  0.152D-02-0.387D-02-0.204D-01-0.618D-02 0.725D-01 0.955D+00
 Coeff:      0.822D-04-0.117D-03 0.728D-05-0.337D-04 0.117D-03 0.102D-02
 Coeff:      0.152D-02-0.387D-02-0.204D-01-0.618D-02 0.725D-01 0.955D+00
 Gap=     0.110 Goal=   None    Shift=    0.000
 RMSDP=3.11D-07 MaxDP=2.63D-05 DE=-1.31D-08 OVMax= 1.11D-05

 Cycle  13  Pass 1  IDiag  1:
 RMSU=  1.26D-07    CP:  1.11D+00  2.02D+00  5.48D-01  9.62D-01  5.99D-01
                    CP:  6.23D-01  8.09D-01  1.02D+00  8.67D-01  4.45D-01
                    CP:  9.74D-01  1.13D+00
 E= -227.164877304572     Delta-E=       -0.000000000681 Rises=F Damp=F
 DIIS: error= 3.30D-07 at cycle  13 NSaved=  13.
 NSaved=13 IEnMin=13 EnMin= -227.164877304572     IErMin=13 ErrMin= 3.30D-07
 ErrMax= 3.30D-07  0.00D+00 EMaxC= 1.00D-01 BMatC= 2.21D-11 BMatP= 5.72D-10
 IDIUse=1 WtCom= 1.00D+00 WtEn= 0.00D+00
 Coeff-Com: -0.103D-04 0.137D-04 0.190D-05-0.156D-04 0.472D-04 0.229D-03
 Coeff-Com:  0.271D-03-0.129D-02-0.423D-02-0.315D-02-0.156D-01 0.111D+00
 Coeff-Com:  0.913D+00
 Coeff:     -0.103D-04 0.137D-04 0.190D-05-0.156D-04 0.472D-04 0.229D-03
 Coeff:      0.271D-03-0.129D-02-0.423D-02-0.315D-02-0.156D-01 0.111D+00
 Coeff:      0.913D+00
 Gap=     0.110 Goal=   None    Shift=    0.000
 RMSDP=6.20D-08 MaxDP=3.71D-06 DE=-6.81D-10 OVMax= 3.00D-06

 Cycle  14  Pass 1  IDiag  1:
 RMSU=  3.04D-08    CP:  1.11D+00  2.02D+00  5.48D-01  9.62D-01  6.00D-01
                    CP:  6.23D-01  8.09D-01  1.02D+00  8.67D-01  4.46D-01
                    CP:  9.79D-01  1.16D+00  1.00D+00
 E= -227.164877304602     Delta-E=       -0.000000000031 Rises=F Damp=F
 DIIS: error= 7.14D-08 at cycle  14 NSaved=  14.
 NSaved=14 IEnMin=14 EnMin= -227.164877304602     IErMin=14 ErrMin= 7.14D-08
 ErrMax= 7.14D-08  0.00D+00 EMaxC= 1.00D-01 BMatC= 8.03D-13 BMatP= 2.21D-11
 IDIUse=1 WtCom= 1.00D+00 WtEn= 0.00D+00
 Coeff-Com: -0.320D-05 0.438D-05-0.541D-06 0.191D-05 0.220D-05-0.108D-04
 Coeff-Com: -0.329D-04 0.796D-04 0.737D-04-0.153D-03-0.284D-02-0.308D-01
 Coeff-Com:  0.173D+00 0.861D+00
 Coeff:     -0.320D-05 0.438D-05-0.541D-06 0.191D-05 0.220D-05-0.108D-04
 Coeff:     -0.329D-04 0.796D-04 0.737D-04-0.153D-03-0.284D-02-0.308D-01
 Coeff:      0.173D+00 0.861D+00
 Gap=     0.110 Goal=   None    Shift=    0.000
 RMSDP=1.05D-08 MaxDP=3.53D-07 DE=-3.07D-11 OVMax= 5.59D-07

 Cycle  15  Pass 1  IDiag  1:
 RMSU=  7.25D-09    CP:  1.11D+00  2.02D+00  5.48D-01  9.62D-01  6.00D-01
                    CP:  6.23D-01  8.09D-01  1.02D+00  8.67D-01  4.46D-01
                    CP:  9.80D-01  1.16D+00  1.03D+00  9.42D-01
 E= -227.164877304601     Delta-E=        0.000000000002 Rises=F Damp=F
 DIIS: error= 2.61D-08 at cycle  15 NSaved=  15.
 NSaved=15 IEnMin=14 EnMin= -227.164877304602     IErMin=15 ErrMin= 2.61D-08
 ErrMax= 2.61D-08  0.00D+00 EMaxC= 1.00D-01 BMatC= 1.11D-13 BMatP= 8.03D-13
 IDIUse=1 WtCom= 1.00D+00 WtEn= 0.00D+00
 Coeff-Com:  0.100D-06-0.141D-06-0.918D-07 0.128D-05-0.131D-05-0.104D-04
 Coeff-Com: -0.203D-04 0.529D-04 0.107D-03 0.356D-04-0.316D-03-0.147D-01
 Coeff-Com:  0.141D-01 0.231D+00 0.770D+00
 Coeff:      0.100D-06-0.141D-06-0.918D-07 0.128D-05-0.131D-05-0.104D-04
 Coeff:     -0.203D-04 0.529D-04 0.107D-03 0.356D-04-0.316D-03-0.147D-01
 Coeff:      0.141D-01 0.231D+00 0.770D+00
 Gap=     0.110 Goal=   None    Shift=    0.000
 RMSDP=4.49D-09 MaxDP=2.91D-07 DE= 1.76D-12 OVMax= 1.91D-07

 SCF Done:  E(RB3LYP) =  -227.164877305     A.U. after   15 cycles
            NFock= 15  Conv=0.45D-08     -V/T= 2.0041
 KE= 2.262347977613D+02 PE=-8.353975554468D+02 EE= 2.181562111712D+02
 Leave Link  502 at Sun Jun 19 13:09:37 2016, MaxMem=    33554432 cpu:       628.5
 (Enter /home/proyectos/fulerenos/M3C-v1.9/M3C-deps_CCC/g09-AM64L-G09RevC.01/l801.exe)
 DoSCS=F DFT=T ScalE2(SS,OS)=  1.000000  1.000000
 Range of M.O.s used for correlation:     1   234
 NBasis=   234 NAE=    17 NBE=    17 NFC=     0 NFV=     0
 NROrb=    234 NOA=    17 NOB=    17 NVA=   217 NVB=   217

 **** Warning!!: The largest alpha MO coefficient is  0.66371065D+02

 Leave Link  801 at Sun Jun 19 13:09:38 2016, MaxMem=    33554432 cpu:         1.1
 (Enter /home/proyectos/fulerenos/M3C-v1.9/M3C-deps_CCC/g09-AM64L-G09RevC.01/l1101.exe)
 Using compressed storage, NAtomX=     6.
 Will process      7 centers per pass.
 Leave Link 1101 at Sun Jun 19 13:09:39 2016, MaxMem=    33554432 cpu:         1.6
 (Enter /home/proyectos/fulerenos/M3C-v1.9/M3C-deps_CCC/g09-AM64L-G09RevC.01/l1102.exe)
 Symmetrizing basis deriv contribution to polar:
 IMax=3 JMax=2 DiffMx= 0.00D+00
 Leave Link 1102 at Sun Jun 19 13:09:39 2016, MaxMem=    33554432 cpu:         0.2
 (Enter /home/proyectos/fulerenos/M3C-v1.9/M3C-deps_CCC/g09-AM64L-G09RevC.01/l1110.exe)
 Forming Gx(P) for the SCF density, NAtomX=     6.
 Integral derivatives from FoFJK, PRISM(SPDF).
 Do as many integral derivatives as possible in FoFJK.
 G2DrvN: MDV=      33554280.
 G2DrvN: will do     7 centers at a time, making    1 passes.
 Calling FoFCou, ICntrl=  3107 FMM=F I1Cent=   0 AccDes= 0.00D+00.
 FoFJK:  IHMeth= 1 ICntrl=    3107 DoSepK=F KAlg= 0 I1Cent=   0 FoldK=F
 IRaf=         0 NMat=   1 IRICut=       1 DoRegI=T DoRafI=F ISym2E= 0.
 FoFCou: FMM=F IPFlag=           0 FMFlag=      100000 FMFlg1=           0
         NFxFlg=           0 DoJE=F BraDBF=F KetDBF=F FulRan=T
         wScrn=  0.000000 ICntrl=    3107 IOpCl=  0 I1Cent=           0 NGrid=           0
         NMat0=    1 NMatS0=      1 NMatT0=    0 NMatD0=    1 NMtDS0=    0 NMtDT0=    0
 Symmetry not used in FoFCou.
 End of G2Drv F.D. properties file   721 does not exist.
 End of G2Drv F.D. properties file   722 does not exist.
 End of G2Drv F.D. properties file   788 does not exist.
 Leave Link 1110 at Sun Jun 19 13:10:55 2016, MaxMem=    33554432 cpu:       302.9
 (Enter /home/proyectos/fulerenos/M3C-v1.9/M3C-deps_CCC/g09-AM64L-G09RevC.01/l1002.exe)
 Minotr:  Closed shell wavefunction.
          IDoAtm=111111
          Direct CPHF calculation.
          Differentiating once with respect to electric field.
                with respect to dipole field.
          Differentiating once with respect to nuclear coordinates.
          Requested convergence is 1.0D-08 RMS, and 1.0D-07 maximum.
          Secondary convergence is 1.0D-12 RMS, and 1.0D-12 maximum.
          NewPWx=T KeepS1=F KeepF1=F KeepIn=T MapXYZ=F SortEE=F KeepMc=T.
          MDV=      33554134 using IRadAn=       2.
 Generate precomputed XC quadrature information.
          Solving linear equations simultaneously, MaxMat=       0.
 FoFJK:  IHMeth= 1 ICntrl=       0 DoSepK=F KAlg= 0 I1Cent=   0 FoldK=F
 IRaf= 990000000 NMat=  21 IRICut=      52 DoRegI=T DoRafI=T ISym2E= 2.
 FoFCou: FMM=F IPFlag=           0 FMFlag=      100000 FMFlg1=           0
         NFxFlg=           0 DoJE=F BraDBF=F KetDBF=F FulRan=T
         wScrn=  0.000000 ICntrl=       0 IOpCl=  0 I1Cent=           0 NGrid=           0
         NMat0=   21 NMatS0=     21 NMatT0=    0 NMatD0=   21 NMtDS0=    0 NMtDT0=    0
 Integrals replicated using symmetry in FoFCou.
          There are    21 degrees of freedom in the 1st order CPHF.  IDoFFX=6 NUNeed=     3.
     18 vectors produced by pass  0 Test12= 1.76D-14 4.76D-09 XBig12= 4.53D+02 1.94D+01.
 AX will form    18 AO Fock derivatives at one time.
     18 vectors produced by pass  1 Test12= 1.76D-14 4.76D-09 XBig12= 1.66D+02 2.78D+00.
     18 vectors produced by pass  2 Test12= 1.76D-14 4.76D-09 XBig12= 4.26D+00 5.92D-01.
     18 vectors produced by pass  3 Test12= 1.76D-14 4.76D-09 XBig12= 8.57D-02 6.58D-02.
     18 vectors produced by pass  4 Test12= 1.76D-14 4.76D-09 XBig12= 7.27D-04 6.60D-03.
     18 vectors produced by pass  5 Test12= 1.76D-14 4.76D-09 XBig12= 2.97D-06 3.33D-04.
     18 vectors produced by pass  6 Test12= 1.76D-14 4.76D-09 XBig12= 8.49D-09 1.68D-05.
      5 vectors produced by pass  7 Test12= 1.76D-14 4.76D-09 XBig12= 1.88D-11 9.22D-07.
      3 vectors produced by pass  8 Test12= 1.76D-14 4.76D-09 XBig12= 4.25D-14 4.48D-08.
      3 vectors produced by pass  9 Test12= 1.76D-14 4.76D-09 XBig12= 3.77D-15 1.41D-08.
 InvSVY:  IOpt=1 It=  1 EMax= 5.33D-15
 Solved reduced A of dimension   137 with    21 vectors.
 FullF1:  Do perturbations    1 to     3.
 Isotropic polarizability for W=    0.000000       47.99 Bohr**3.
 End of Minotr F.D. properties file   721 does not exist.
 End of Minotr F.D. properties file   722 does not exist.
 End of Minotr F.D. properties file   788 does not exist.
 Leave Link 1002 at Sun Jun 19 13:14:24 2016, MaxMem=    33554432 cpu:       839.3
 (Enter /home/proyectos/fulerenos/M3C-v1.9/M3C-deps_CCC/g09-AM64L-G09RevC.01/l601.exe)
 Copying SCF densities to generalized density rwf, IOpCl= 0 IROHF=0.

 **********************************************************************

            Population analysis using the SCF density.

 **********************************************************************

 Orbital symmetries:
       Occupied  (A) (A) (A) (A) (A) (A) (A) (A) (A) (A) (A) (A)
                 (A) (A) (A) (A) (A)
       Virtual   (A) (A) (A) (A) (A) (A) (A) (A) (A) (A) (A) (A)
                 (A) (A) (A) (A) (A) (A) (A) (A) (A) (A) (A) (A)
                 (A) (A) (A) (A) (A) (A) (A) (A) (A) (A) (A) (A)
                 (A) (A) (A) (A) (A) (A) (A) (A) (A) (A) (A) (A)
                 (A) (A) (A) (A) (A) (A) (A) (A) (A) (A) (A) (A)
                 (A) (A) (A) (A) (A) (A) (A) (A) (A) (A) (A) (A)
                 (A) (A) (A) (A) (A) (A) (A) (A) (A) (A) (A) (A)
                 (A) (A) (A) (A) (A) (A) (A) (A) (A) (A) (A) (A)
                 (A) (A) (A) (A) (A) (A) (A) (A) (A) (A) (A) (A)
                 (A) (A) (A) (A) (A) (A) (A) (A) (A) (A) (A) (A)
                 (A) (A) (A) (A) (A) (A) (A) (A) (A) (A) (A) (A)
                 (A) (A) (A) (A) (A) (A) (A) (A) (A) (A) (A) (A)
                 (A) (A) (A) (A) (A) (A) (A) (A) (A) (A) (A) (A)
                 (A) (A) (A) (A) (A) (A) (A) (A) (A) (A) (A) (A)
                 (A) (A) (A) (A) (A) (A) (A) (A) (A) (A) (A) (A)
                 (A) (A) (A) (A) (A) (A) (A) (A) (A) (A) (A) (A)
                 (A) (A) (A) (A) (A) (A) (A) (A) (A) (A) (A) (A)
                 (A) (A) (A) (A) (A) (A) (A) (A) (A) (A) (A) (A)
                 (A)
 The electronic state is 1-A.
 Alpha  occ. eigenvalues --  -10.89199 -10.88046 -10.88043 -10.86809 -10.85583
 Alpha  occ. eigenvalues --  -10.84000  -1.63396  -1.37552  -1.24844  -1.22709
 Alpha  occ. eigenvalues --   -1.04165  -1.02282  -0.99019  -0.95417  -0.88197
 Alpha  occ. eigenvalues --   -0.86219  -0.80977
 Alpha virt. eigenvalues --   -0.69939  -0.68192  -0.63454  -0.62818  -0.56927
 Alpha virt. eigenvalues --   -0.52748  -0.39098  -0.38952  -0.35214  -0.31130
 Alpha virt. eigenvalues --   -0.29440  -0.28627  -0.25183  -0.24952  -0.24676
 Alpha virt. eigenvalues --   -0.23724  -0.22859  -0.22431  -0.21458  -0.20940
 Alpha virt. eigenvalues --   -0.17748  -0.15484  -0.14771  -0.14661  -0.14327
 Alpha virt. eigenvalues --   -0.14310  -0.13730  -0.13482  -0.09475  -0.09276
 Alpha virt. eigenvalues --   -0.09168  -0.08663  -0.07351  -0.07042  -0.06168
 Alpha virt. eigenvalues --   -0.05824  -0.05211  -0.02884  -0.00081   0.00403
 Alpha virt. eigenvalues --    0.01912   0.02018   0.04205   0.04967   0.06209
 Alpha virt. eigenvalues --    0.06712   0.08070   0.08501   0.10758   0.10944
 Alpha virt. eigenvalues --    0.12213   0.13521   0.14162   0.15373   0.15385
 Alpha virt. eigenvalues --    0.17836   0.20112   0.21047   0.21714   0.23175
 Alpha virt. eigenvalues --    0.24454   0.25305   0.25580   0.27125   0.27336
 Alpha virt. eigenvalues --    0.29134   0.30030   0.31015   0.32277   0.33604
 Alpha virt. eigenvalues --    0.34232   0.38505   0.40218   0.45156   0.46092
 Alpha virt. eigenvalues --    0.48394   0.52128   0.55010   0.56428   0.59004
 Alpha virt. eigenvalues --    0.60890   0.62773   0.63098   0.66297   0.66528
 Alpha virt. eigenvalues --    0.72667   0.74907   0.75569   0.80931   0.81471
 Alpha virt. eigenvalues --    0.83488   0.94020   0.94928   0.98904   0.98951
 Alpha virt. eigenvalues --    1.02562   1.06888   1.07614   1.08166   1.10086
 Alpha virt. eigenvalues --    1.16437   1.17840   1.23157   1.25256   1.33784
 Alpha virt. eigenvalues --    1.35011   1.39161   1.41491   1.42099   1.45780
 Alpha virt. eigenvalues --    1.47487   1.51158   1.55758   1.58704   1.59160
 Alpha virt. eigenvalues --    1.65037   1.66203   1.68018   1.71620   1.73744
 Alpha virt. eigenvalues --    1.88219   1.95737   2.01808   2.11538   2.11708
 Alpha virt. eigenvalues --    2.14082   2.18117   2.21656   2.26070   2.27845
 Alpha virt. eigenvalues --    2.29155   2.30012   2.34213   2.34258   2.38326
 Alpha virt. eigenvalues --    2.40656   2.41679   2.43654   2.50169   2.53913
 Alpha virt. eigenvalues --    2.58543   2.59954   2.62437   2.64444   2.67225
 Alpha virt. eigenvalues --    2.73413   2.75830   2.76363   2.79908   2.84347
 Alpha virt. eigenvalues --    2.88008   2.88561   2.91553   2.96538   2.99208
 Alpha virt. eigenvalues --    3.05260   3.13388   3.23303   3.24092   3.36837
 Alpha virt. eigenvalues --    3.37596   3.39847   3.42140   3.51676   3.52742
 Alpha virt. eigenvalues --    3.58529   3.63057   3.65026   3.69472   3.72583
 Alpha virt. eigenvalues --    3.73115   3.82718   3.92968   4.02583   4.12125
 Alpha virt. eigenvalues --    4.17561   4.24362   4.29200   4.53814   4.75610
 Alpha virt. eigenvalues --    5.28251   6.34933   6.38910   6.41478   6.42741
 Alpha virt. eigenvalues --    6.49913   6.54064   6.57006   6.61739   6.67239
 Alpha virt. eigenvalues --    6.73496   6.77993   6.79846   6.83250   6.93415
 Alpha virt. eigenvalues --    6.94133   6.98022   7.01322   7.04960   7.07248
 Alpha virt. eigenvalues --    7.16596   7.20582   7.29301   7.29379   7.38377
 Alpha virt. eigenvalues --    7.50896   7.54192   7.67201   7.82256   8.20852
 Alpha virt. eigenvalues --    8.42565  23.60983  23.79197  23.81035  23.98049
 Alpha virt. eigenvalues --   24.10000  24.94418
          Condensed to atoms (all electrons):
               1          2          3          4          5          6
     1  C    7.674763  -1.239534  -0.386410   1.125569  -1.227275  -0.486179
     2  C   -1.239534   7.841438   0.348129  -1.788003   0.883004  -0.197135
     3  C   -0.386410   0.348129   7.905877  -0.743764   0.348956  -1.435800
     4  C    1.125569  -1.788003  -0.743764   8.759107  -1.781995  -0.306401
     5  C   -1.227275   0.883004   0.348956  -1.781995   7.825122  -0.199780
     6  C   -0.486179  -0.197135  -1.435800  -0.306401  -0.199780   8.166927
 Mulliken charges:
               1
     1  C    0.539066
     2  C    0.152100
     3  C   -0.036988
     4  C    0.735487
     5  C    0.151968
     6  C    0.458367
 Sum of Mulliken charges =   2.00000
 Mulliken charges with hydrogens summed into heavy atoms:
               1
     1  C    0.539066
     2  C    0.152100
     3  C   -0.036988
     4  C    0.735487
     5  C    0.151968
     6  C    0.458367
 APT charges:
               1
     1  C    0.205415
     2  C    0.451748
     3  C    0.154078
     4  C    0.626052
     5  C    0.453301
     6  C    0.109407
 Sum of APT charges =   2.00000
 APT charges with hydrogens summed into heavy atoms:
               1
     1  C    0.205415
     2  C    0.451748
     3  C    0.154078
     4  C    0.626052
     5  C    0.453301
     6  C    0.109407
 Electronic spatial extent (au):  <R**2>=            232.6591
 Charge=              2.0000 electrons
 Dipole moment (field-independent basis, Debye):
    X=             -0.2709    Y=             -0.4008    Z=              0.0064  Tot=              0.4838
 Quadrupole moment (field-independent basis, Debye-Ang):
   XX=            -19.9723   YY=            -20.8904   ZZ=            -22.8206
   XY=              0.2891   XZ=             -0.0057   YZ=             -0.0107
 Traceless Quadrupole moment (field-independent basis, Debye-Ang):
   XX=              1.2554   YY=              0.3374   ZZ=             -1.5928
   XY=              0.2891   XZ=             -0.0057   YZ=             -0.0107
 Octapole moment (field-independent basis, Debye-Ang**2):
  XXX=              0.2568  YYY=             -0.2912  ZZZ=              0.0257  XYY=              0.4095
  XXY=              0.7048  XXZ=              0.0157  XZZ=             -2.3668  YZZ=             -1.8862
  YYZ=             -0.0094  XYZ=             -0.0121
 Hexadecapole moment (field-independent basis, Debye-Ang**3):
 XXXX=           -140.2622 YYYY=            -70.6941 ZZZZ=            -76.4084 XXXY=              0.7047
 XXXZ=             -0.0158 YYYX=             -0.7222 YYYZ=             -0.0388 ZZZX=             -0.0293
 ZZZY=              0.0025 XXYY=            -34.1387 XXZZ=            -35.4287 YYZZ=            -25.6271
 XXYZ=             -0.0086 YYXZ=              0.0156 ZZXY=              1.7120
 N-N= 1.638416692097D+02 E-N=-8.353975559717D+02  KE= 2.262347977613D+02
  Exact polarizability:  60.544  -1.747  38.148   0.008   0.034  45.293
 Approx polarizability: 262.728 -21.430 100.371   0.092   0.200 150.229
 No NMR shielding tensors so no spin-rotation constants.
 Leave Link  601 at Sun Jun 19 13:14:25 2016, MaxMem=    33554432 cpu:         2.4
 (Enter /home/proyectos/fulerenos/M3C-v1.9/M3C-deps_CCC/g09-AM64L-G09RevC.01/l701.exe)
 Compute integral second derivatives.
 ... and contract with generalized density number  0.
 Leave Link  701 at Sun Jun 19 13:14:25 2016, MaxMem=    33554432 cpu:         1.4
 (Enter /home/proyectos/fulerenos/M3C-v1.9/M3C-deps_CCC/g09-AM64L-G09RevC.01/l702.exe)
 L702 exits ... SP integral derivatives will be done elsewhere.
 Leave Link  702 at Sun Jun 19 13:14:26 2016, MaxMem=    33554432 cpu:         0.1
 (Enter /home/proyectos/fulerenos/M3C-v1.9/M3C-deps_CCC/g09-AM64L-G09RevC.01/l703.exe)
 Compute integral second derivatives, UseDBF=F ICtDFT=           0.
 Integral derivatives from FoFJK, PRISM(SPDF).
 Calling FoFJK, ICntrl=    100127 FMM=F ISym2X=0 I1Cent= 0 IOpClX= 0 NMat=1 NMatS=1 NMatT=0.
 FoFJK:  IHMeth= 1 ICntrl=  100127 DoSepK=F KAlg= 0 I1Cent=   0 FoldK=F
 IRaf=         0 NMat=   1 IRICut=       1 DoRegI=T DoRafI=F ISym2E= 0.
 FoFCou: FMM=F IPFlag=           0 FMFlag=      100000 FMFlg1=         800
         NFxFlg=           0 DoJE=F BraDBF=F KetDBF=F FulRan=T
         wScrn=  0.000000 ICntrl=  100127 IOpCl=  0 I1Cent=           0 NGrid=           0
         NMat0=    1 NMatS0=      1 NMatT0=    0 NMatD0=    1 NMtDS0=    0 NMtDT0=    0
 Symmetry not used in FoFCou.
 Leave Link  703 at Sun Jun 19 13:16:55 2016, MaxMem=    33554432 cpu:       596.4
 (Enter /home/proyectos/fulerenos/M3C-v1.9/M3C-deps_CCC/g09-AM64L-G09RevC.01/l716.exe)
 Dipole        =-1.06586428D-01-1.57667288D-01 2.50984232D-03
 Polarizability= 6.05440511D+01-1.74674068D+00 3.81482755D+01
                 7.50220006D-03 3.44799984D-02 4.52925543D+01
 Full mass-weighted force constant matrix:
 Low frequencies ---   -8.2793   -3.5795   -0.0006   -0.0003   -0.0002   24.8140
 Low frequencies ---  275.9352  437.4231  441.4759
 Diagonal vibrational polarizability:
       10.2502514       1.3240804       7.8649840
 Harmonic frequencies (cm**-1), IR intensities (KM/Mole), Raman scattering
 activities (A**4/AMU), depolarization ratios for plane and unpolarized
 incident light, reduced masses (AMU), force constants (mDyne/A),
 and normal coordinates:
                      1                      2                      3
                      A                      A                      A
 Frequencies --    275.9330               437.4226               441.4747
 Red. masses --     12.0000                12.0000                12.0000
 Frc consts  --      0.5383                 1.3528                 1.3780
 IR Inten    --      5.1495                41.3845                38.5293
  Atom  AN      X      Y      Z        X      Y      Z        X      Y      Z
     1   6    -0.00  -0.00   0.01    -0.36  -0.09   0.04     0.02   0.01   0.67
     2   6     0.33  -0.09   0.04     0.39   0.34  -0.09    -0.24  -0.05  -0.28
     3   6    -0.00   0.00   0.65    -0.30  -0.19  -0.00     0.02   0.01  -0.03
     4   6     0.00  -0.00  -0.18     0.01  -0.36   0.02    -0.00   0.03   0.34
     5   6    -0.33   0.10   0.04     0.42   0.35   0.05     0.19  -0.00  -0.29
     6   6    -0.00  -0.00  -0.55    -0.16  -0.05  -0.03     0.01   0.00  -0.42
                      4                      5                      6
                      A                      A                      A
 Frequencies --    632.1161               652.7902               697.0183
 Red. masses --     12.0000                12.0000                12.0000
 Frc consts  --      2.8250                 3.0129                 3.4349
 IR Inten    --      3.5683                52.0238                10.7903
  Atom  AN      X      Y      Z        X      Y      Z        X      Y      Z
     1   6     0.00  -0.02  -0.31     0.02   0.44  -0.01     0.28  -0.25  -0.00
     2   6    -0.04  -0.48   0.20     0.00  -0.26  -0.44     0.09  -0.09   0.23
     3   6     0.01   0.00  -0.24    -0.34  -0.08  -0.00    -0.39  -0.33   0.00
     4   6    -0.00   0.00   0.45     0.31  -0.12   0.01    -0.11   0.11  -0.00
     5   6     0.03   0.50   0.18     0.00  -0.23   0.45     0.09  -0.09  -0.23
     6   6     0.00  -0.01  -0.28     0.01   0.24  -0.01     0.04   0.66  -0.00
                      7                      8                      9
                      A                      A                      A
 Frequencies --    756.9804               774.4483               864.3411
 Red. masses --     12.0000                12.0000                12.0000
 Frc consts  --      4.0514                 4.2405                 5.2820
 IR Inten    --     10.2946                 8.4894                12.0188
  Atom  AN      X      Y      Z        X      Y      Z        X      Y      Z
     1   6     0.00  -0.02  -0.12     0.01   0.56  -0.01     0.11   0.12  -0.00
     2   6     0.42   0.03  -0.37     0.32  -0.27   0.28    -0.16   0.13   0.26
     3   6     0.00  -0.00   0.02    -0.08   0.06  -0.00    -0.25  -0.25   0.00
     4   6     0.01  -0.00   0.52    -0.26   0.10   0.02     0.70   0.15  -0.00
     5   6    -0.44  -0.01  -0.35     0.29  -0.26  -0.29    -0.16   0.13  -0.25
     6   6     0.01   0.01   0.30    -0.27  -0.20   0.01    -0.23  -0.27   0.00
                     10                     11                     12
                      A                      A                      A
 Frequencies --    890.2203              1116.6789              1306.5802
 Red. masses --     12.0000                12.0000                12.0000
 Frc consts  --      5.6031                 8.8163                12.0699
 IR Inten    --     21.6923                 4.1264                14.7299
  Atom  AN      X      Y      Z        X      Y      Z        X      Y      Z
     1   6    -0.43  -0.06  -0.00     0.60  -0.19   0.00    -0.12  -0.04  -0.00
     2   6     0.10  -0.06  -0.14     0.08   0.11  -0.27     0.02  -0.03   0.06
     3   6     0.20  -0.48   0.00    -0.23   0.01   0.00    -0.56   0.22  -0.00
     4   6    -0.00   0.69  -0.00    -0.24   0.31  -0.00    -0.05   0.20  -0.00
     5   6     0.10  -0.06   0.14     0.08   0.11   0.27     0.02  -0.03  -0.06
     6   6     0.03  -0.03   0.00    -0.30  -0.34   0.00     0.69  -0.32   0.00

 -------------------
 - Thermochemistry -
 -------------------
 Temperature   298.150 Kelvin.  Pressure   1.00000 Atm.
 Atom     1 has atomic number  6 and mass  12.00000
 Atom     2 has atomic number  6 and mass  12.00000
 Atom     3 has atomic number  6 and mass  12.00000
 Atom     4 has atomic number  6 and mass  12.00000
 Atom     5 has atomic number  6 and mass  12.00000
 Atom     6 has atomic number  6 and mass  12.00000
 Molecular mass:    72.00000 amu.
 Principal axes and moments of inertia in atomic units:
                           1         2         3
     Eigenvalues --   181.29959 279.23407 280.71488
           X            1.00000   0.00000   0.00000
           Y           -0.00000   1.00000  -0.00000
           Z           -0.00000   0.00000   1.00000
 This molecule is an asymmetric top.
 Rotational symmetry number  1.
 Rotational temperatures (Kelvin)      0.47774     0.31018     0.30855
 Rotational constants (GHZ):           9.95447     6.46318     6.42909
 Zero-point vibrational energy      52910.9 (Joules/Mol)
                                   12.64600 (Kcal/Mol)
 Warning -- explicit consideration of   3 degrees of freedom as
           vibrations may cause significant error
 Vibrational temperatures:    397.01   629.35   635.18   909.47   939.22
          (Kelvin)           1002.85  1089.12  1114.26  1243.59  1280.83
                             1606.65  1879.88
 
 Zero-point correction=                           0.020153 (Hartree/Particle)
 Thermal correction to Energy=                    0.024702
 Thermal correction to Enthalpy=                  0.025646
 Thermal correction to Gibbs Free Energy=        -0.006692
 Sum of electronic and zero-point Energies=           -227.144725
 Sum of electronic and thermal Energies=              -227.140175
 Sum of electronic and thermal Enthalpies=            -227.139231
 Sum of electronic and thermal Free Energies=         -227.171569
 
                     E (Thermal)             CV                S
                      KCal/Mol        Cal/Mol-Kelvin    Cal/Mol-Kelvin
 Total                   15.501             16.063             68.061
 Electronic               0.000              0.000              0.000
 Translational            0.889              2.981             38.739
 Rotational               0.889              2.981             24.167
 Vibrational             13.723             10.101              5.155
 Vibration     1          0.678              1.718              1.559
 Vibration     2          0.798              1.389              0.835
 Vibration     3          0.801              1.380              0.822
                       Q            Log10(Q)             Ln(Q)
 Total Bot       0.119660D+04          3.077950          7.087243
 Total V=0       0.222597D+13         12.347520         28.431215
 Vib (Bot)       0.116771D-08         -8.932665        -20.568222
 Vib (Bot)    1  0.698256D+00         -0.155985         -0.359169
 Vib (Bot)    2  0.396013D+00         -0.402290         -0.926307
 Vib (Bot)    3  0.391117D+00         -0.407694         -0.938750
 Vib (V=0)       0.217222D+01          0.336904          0.775751
 Vib (V=0)    1  0.135881D+01          0.133160          0.306612
 Vib (V=0)    2  0.113783D+01          0.056077          0.129123
 Vib (V=0)    3  0.113480D+01          0.054920          0.126457
 Electronic      0.100000D+01          0.000000          0.000000
 Translational   0.240134D+08          7.380454         16.994123
 Rotational      0.426738D+05          4.630162         10.661341
 
                                                              b3lyp opt
                                                             IR Spectrum
 
     1                  1                                                                                                            
     3                  1                     8 8        7 7     6   6 6                 44               2                          
     0                  1                     9 6        7 5     9   5 3                 43               7                          
     7                  7                     0 4        4 7     7   3 2                 17               6                          
 
     X                  X                     X X        X X     X   X X                 XX               X                          
     X                  X                     X X        X X     X   X                   XX               X                          
     X                                        X X        X X     X   X                   XX                                          
     X                                        X X          X     X   X                   XX                                          
     X                                        X X                    X                   XX                                          
     X                                        X                      X                   XX                                          
                                              X                      X                   XX                                          
                                              X                      X                   XX                                          
                                                                     X                   XX                                          
                                                                     X                   XX                                          
                                                                     X                   XX                                          
                                                                     X                   XX                                          
                                                                     X                   XX                                          
                                                                     X                   XX                                          
                                                                     X                   XX                                          
                                                                     X                    X                                          
                                                                     X                                                               
                                                                     X                                                               
                                                                     X                                                               
                                                                     X                                                               
 
 ***** Axes restored to original set *****
 -------------------------------------------------------------------
 Center     Atomic                   Forces (Hartrees/Bohr)
 Number     Number              X              Y              Z
 -------------------------------------------------------------------
      1        6          -0.000310939   -0.000029008    0.000248842
      2        6           0.000065485   -0.000075766   -0.000089322
      3        6          -0.000009150    0.000124384    0.000282762
      4        6           0.000056525   -0.000120117   -0.000064877
      5        6           0.000139033    0.000071835   -0.000255382
      6        6           0.000059048    0.000028672   -0.000122023
 -------------------------------------------------------------------
 Cartesian Forces:  Max     0.000310939 RMS     0.000149760
 Z-matrix is all fixed cartesians, so copy forces.
 Force constants in Cartesian coordinates: 
                1             2             3             4             5 
      1  0.178469D+00
      2 -0.452568D-01  0.106192D+00
      3 -0.593812D-01  0.915829D-01  0.261548D+00
      4 -0.564761D-01  0.401724D-01  0.551031D-02  0.988762D-01
      5  0.465344D-01 -0.508073D-01 -0.305563D-01 -0.150370D-01  0.158123D+00
      6 -0.884274D-02 -0.670189D-03  0.246703D-01 -0.150286D-01 -0.601455D-01
      7  0.941717D-02  0.154523D-01  0.371166D-01  0.778050D-04  0.520145D-02
      8  0.875903D-02 -0.373487D-02 -0.346705D-01  0.161289D-01 -0.147378D-01
      9  0.208785D-01 -0.316981D-01 -0.583699D-01 -0.390511D-02 -0.205046D-01
     10 -0.539658D-01  0.633456D-02  0.190614D-02 -0.292468D-01 -0.208878D-01
     11  0.228449D-01 -0.292602D-01 -0.999394D-02 -0.283772D-01 -0.102025D-01
     12  0.418812D-01 -0.168497D-01 -0.449792D-01  0.499975D-01  0.968470D-02
     13 -0.768518D-01 -0.376706D-02  0.394805D-01  0.132525D-01 -0.206252D-01
     14 -0.217816D-01  0.156089D-01  0.382168D-01 -0.268940D-01 -0.809445D-01
     15  0.254296D-01  0.130061D-01 -0.195556D-01 -0.411644D-02  0.648942D-01
     16 -0.592163D-03 -0.129353D-01 -0.246323D-01 -0.264836D-01  0.481407D-02
     17 -0.110999D-01 -0.379981D-01 -0.545790D-01  0.140069D-01 -0.143124D-02
     18 -0.199653D-01 -0.553711D-01 -0.163314D+00 -0.324576D-01  0.366274D-01
                6             7             8             9            10 
      6  0.152450D+00
      7 -0.627472D-02  0.184169D+00
      8  0.102218D-01 -0.577136D-01  0.842231D-01
      9 -0.216358D-01 -0.740004D-01  0.122126D+00  0.294860D+00
     10  0.581030D-01 -0.752946D-01 -0.254027D-01 -0.858251D-01  0.286015D+00
     11  0.126252D-01 -0.204502D-01 -0.152684D-01  0.831510D-02 -0.345408D-01
     12 -0.848655D-01 -0.735045D-01  0.612327D-02 -0.386072D-01 -0.143803D-01
     13 -0.172087D-01 -0.809123D-02 -0.138000D-01  0.133279D-01 -0.329607D-02
     14  0.456455D-02 -0.109158D-01 -0.584340D-02  0.746516D-02  0.424863D-01
     15 -0.179535D-01 -0.426025D-02 -0.195563D-01 -0.221073D-01  0.175420D-01
     16 -0.107482D-01 -0.110278D+00  0.720283D-01  0.129524D+00 -0.124212D+00
     17  0.334042D-01  0.684258D-01 -0.446386D-01 -0.857033D-01  0.320105D-01
     18 -0.526652D-01  0.120923D+00 -0.842440D-01 -0.154139D+00  0.226542D-01
               11            12            13            14            15 
     11  0.142556D+00
     12  0.405819D-01  0.214860D+00
     13  0.425811D-01  0.814327D-02  0.112170D+00
     14 -0.871692D-01 -0.333992D-01  0.314732D-01  0.205101D+00
     15 -0.393809D-01 -0.333321D-01 -0.180358D-01  0.721388D-02  0.895078D-01
     16  0.179422D-01 -0.121372D-01 -0.371834D-01 -0.143682D-01 -0.165591D-01
     17 -0.655791D-03 -0.614094D-02 -0.358621D-01 -0.467529D-01 -0.261771D-01
     18 -0.121474D-01 -0.130760D-01 -0.257072D-01 -0.240612D-01  0.344072D-02
               16            17            18 
     16  0.298749D+00
     17 -0.674811D-01  0.131477D+00
     18 -0.654473D-01  0.139196D+00  0.379754D+00
 Leave Link  716 at Sun Jun 19 13:16:55 2016, MaxMem=    33554432 cpu:         2.5
 (Enter /home/proyectos/fulerenos/M3C-v1.9/M3C-deps_CCC/g09-AM64L-G09RevC.01/l103.exe)

 GradGradGradGradGradGradGradGradGradGradGradGradGradGradGradGradGradGrad
 Berny optimization.
 Search for a local minimum.
 Step number   1 out of a maximum of    2
 All quantities printed in internal units (Hartrees-Bohrs-Radians)
 Second derivative matrix not updated -- analytic derivatives used.
 The second derivative matrix:
                          X1        Y1        Z1        X2        Y2
           X1           0.17847
           Y1          -0.04526   0.10619
           Z1          -0.05938   0.09158   0.26155
           X2          -0.05648   0.04017   0.00551   0.09888
           Y2           0.04653  -0.05081  -0.03056  -0.01504   0.15812
           Z2          -0.00884  -0.00067   0.02467  -0.01503  -0.06015
           X3           0.00942   0.01545   0.03712   0.00008   0.00520
           Y3           0.00876  -0.00373  -0.03467   0.01613  -0.01474
           Z3           0.02088  -0.03170  -0.05837  -0.00391  -0.02050
           X4          -0.05397   0.00633   0.00191  -0.02925  -0.02089
           Y4           0.02284  -0.02926  -0.00999  -0.02838  -0.01020
           Z4           0.04188  -0.01685  -0.04498   0.05000   0.00968
           X5          -0.07685  -0.00377   0.03948   0.01325  -0.02063
           Y5          -0.02178   0.01561   0.03822  -0.02689  -0.08094
           Z5           0.02543   0.01301  -0.01956  -0.00412   0.06489
           X6          -0.00059  -0.01294  -0.02463  -0.02648   0.00481
           Y6          -0.01110  -0.03800  -0.05458   0.01401  -0.00143
           Z6          -0.01997  -0.05537  -0.16331  -0.03246   0.03663
                          Z2        X3        Y3        Z3        X4
           Z2           0.15245
           X3          -0.00627   0.18417
           Y3           0.01022  -0.05771   0.08422
           Z3          -0.02164  -0.07400   0.12213   0.29486
           X4           0.05810  -0.07529  -0.02540  -0.08583   0.28602
           Y4           0.01263  -0.02045  -0.01527   0.00832  -0.03454
           Z4          -0.08487  -0.07350   0.00612  -0.03861  -0.01438
           X5          -0.01721  -0.00809  -0.01380   0.01333  -0.00330
           Y5           0.00456  -0.01092  -0.00584   0.00747   0.04249
           Z5          -0.01795  -0.00426  -0.01956  -0.02211   0.01754
           X6          -0.01075  -0.11028   0.07203   0.12952  -0.12421
           Y6           0.03340   0.06843  -0.04464  -0.08570   0.03201
           Z6          -0.05267   0.12092  -0.08424  -0.15414   0.02265
                          Y4        Z4        X5        Y5        Z5
           Y4           0.14256
           Z4           0.04058   0.21486
           X5           0.04258   0.00814   0.11217
           Y5          -0.08717  -0.03340   0.03147   0.20510
           Z5          -0.03938  -0.03333  -0.01804   0.00721   0.08951
           X6           0.01794  -0.01214  -0.03718  -0.01437  -0.01656
           Y6          -0.00066  -0.00614  -0.03586  -0.04675  -0.02618
           Z6          -0.01215  -0.01308  -0.02571  -0.02406   0.00344
                          X6        Y6        Z6
           X6           0.29875
           Y6          -0.06748   0.13148
           Z6          -0.06545   0.13920   0.37975
 ITU=  0
     Eigenvalues ---    0.03458   0.08689   0.08851   0.18145   0.19352
     Eigenvalues ---    0.22063   0.26022   0.27237   0.33927   0.35989
     Eigenvalues ---    0.56628   0.77526
 Angle between quadratic step and forces=  37.67 degrees.
 Linear search not attempted -- first point.
 B after Tr=    -0.000000   -0.000000   -0.000000
         Rot=    1.000000    0.000000   -0.000000    0.000000 Ang=   0.00 deg.
 Variable       Old X    -DE/DX   Delta X   Delta X   Delta X     New X
                                 (Linear)    (Quad)   (Total)
    X1        1.27653  -0.00031   0.00000  -0.00130  -0.00130   1.27523
    Y1       -0.94259  -0.00003   0.00000  -0.00116  -0.00116  -0.94375
    Z1       -1.78504   0.00025   0.00000   0.00166   0.00166  -1.78338
    X2       -0.32479   0.00007   0.00000  -0.00024  -0.00024  -0.32503
    Y2        1.44260  -0.00008   0.00000   0.00059   0.00059   1.44319
    Z2       -1.79793  -0.00009   0.00000  -0.00107  -0.00107  -1.79900
    X3        0.12188  -0.00001   0.00000   0.00052   0.00052   0.12240
    Y3        1.05144   0.00012   0.00000   0.00082   0.00082   1.05225
    Z3        2.64973   0.00028   0.00000   0.00140   0.00140   2.65113
    X4       -1.65823   0.00006   0.00000   0.00082   0.00082  -1.65741
    Y4        0.51227  -0.00012   0.00000  -0.00111  -0.00111   0.51117
    Z4        0.55110  -0.00006   0.00000   0.00019   0.00019   0.55129
    X5       -0.94057   0.00014   0.00000   0.00005   0.00005  -0.94052
    Y5       -2.09926   0.00007   0.00000  -0.00007  -0.00007  -2.09933
    Z5       -0.36232  -0.00026   0.00000  -0.00230  -0.00230  -0.36462
    X6        1.52519   0.00006   0.00000   0.00014   0.00014   1.52533
    Y6        0.03554   0.00003   0.00000   0.00093   0.00093   0.03647
    Z6        0.74446  -0.00012   0.00000   0.00012   0.00012   0.74458
         Item               Value     Threshold  Converged?
 Maximum Force            0.000311     0.000450     YES
 RMS     Force            0.000150     0.000300     YES
 Maximum Displacement     0.002297     0.001800     NO 
 RMS     Displacement     0.001010     0.001200     YES
 Predicted change in Energy=-1.077390D-06
 GradGradGradGradGradGradGradGradGradGradGradGradGradGradGradGradGradGrad

 Leave Link  103 at Sun Jun 19 13:16:56 2016, MaxMem=    33554432 cpu:         1.3
 (Enter /home/proyectos/fulerenos/M3C-v1.9/M3C-deps_CCC/g09-AM64L-G09RevC.01/l9999.exe)
 1\1\GINC-BELVIS12\Freq\RB3LYP\6-311+G(3df)\C6(2+)\ROOT\19-Jun-2016\0\\
 #p b3lyp/6-311+G(3df) freq symmetry=Loose\\b3lyp opt\\2,1\C,0.675509,-
 0.498796,-0.944602\C,-0.171873,0.76339,-0.951422\C,0.064497,0.556396,1
 .402179\C,-0.8775,0.271083,0.291627\C,-0.497728,-1.110881,-0.191734\C,
 0.807096,0.018808,0.393953\\Version=EM64L-G09RevE.01\State=1-A\HF=-227
 .1648773\RMSD=4.487e-09\RMSF=1.498e-04\ZeroPoint=0.0201527\Thermal=0.0
 247022\Dipole=-0.1427711,-0.0232252,-0.1237051\DipoleDeriv=0.0765971,0
 .3148182,0.4842826,0.0844384,0.5868055,-0.4127688,-0.0869341,-0.314505
 8,-0.0471575,0.4166566,-0.0693363,-0.0226818,-0.0716839,0.123544,-0.09
 94242,-0.1503477,-0.1612747,0.8150421,0.2080076,-0.1634267,-0.3496039,
 0.1660002,0.0896767,0.0954814,0.4656691,-0.0463481,0.1645484,0.5024608
 ,-0.0481509,-0.1358934,-0.0522056,0.595646,0.1193844,-0.1466179,0.1213
 889,0.7800481,0.4267984,0.0362908,0.0383526,-0.0407863,0.5955339,0.316
 3291,-0.0297467,0.4126421,0.3375701,0.3694795,-0.070195,-0.0144561,-0.
 0857627,0.0087938,-0.0190019,-0.0520228,-0.0119024,-0.0500513\Polar=38
 .9721656,-0.596261,47.6605946,-4.1986278,5.6034585,57.3521207\PG=C01 [
 X(C6)]\NImag=0\\0.17846868,-0.04525684,0.10619171,-0.05938124,0.091582
 94,0.26154831,-0.05647608,0.04017236,0.00551031,0.09887622,0.04653445,
 -0.05080733,-0.03055630,-0.01503698,0.15812334,-0.00884274,-0.00067019
 ,0.02467035,-0.01502861,-0.06014545,0.15244965,0.00941717,0.01545225,0
 .03711658,0.00007781,0.00520145,-0.00627472,0.18416873,0.00875903,-0.0
 0373487,-0.03467050,0.01612894,-0.01473776,0.01022176,-0.05771357,0.08
 422308,0.02087854,-0.03169808,-0.05836994,-0.00390511,-0.02050456,-0.0
 2163580,-0.07400036,0.12212572,0.29485955,-0.05396577,0.00633456,0.001
 90614,-0.02924682,-0.02088784,0.05810300,-0.07529462,-0.02540270,-0.08
 582511,0.28601516,0.02284486,-0.02926023,-0.00999394,-0.02837719,-0.01
 020252,0.01262516,-0.02045019,-0.01526840,0.00831510,-0.03454084,0.142
 55615,0.04188117,-0.01684970,-0.04497918,0.04999749,0.00968470,-0.0848
 6549,-0.07350446,0.00612327,-0.03860717,-0.01438031,0.04058191,0.21485
 993,-0.07685184,-0.00376706,0.03948048,0.01325249,-0.02062515,-0.01720
 869,-0.00809123,-0.01379998,0.01332791,-0.00329607,0.04258113,0.008143
 27,0.11217001,-0.02178155,0.01560886,0.03821684,-0.02689403,-0.0809445
 0,0.00456455,-0.01091575,-0.00584340,0.00746516,0.04248633,-0.08716922
 ,-0.03339924,0.03147321,0.20510112,0.02542956,0.01300613,-0.01955560,-
 0.00411644,0.06489420,-0.01795351,-0.00426025,-0.01955630,-0.02210733,
 0.01754204,-0.03938086,-0.03333210,-0.01803579,0.00721388,0.08950782,-
 0.00059216,-0.01293528,-0.02463227,-0.02648361,0.00481407,-0.01074823,
 -0.11027785,0.07202827,0.12952413,-0.12421187,0.01794223,-0.01213717,-
 0.03718336,-0.01436820,-0.01655911,0.29874885,-0.01109995,-0.03799814,
 -0.05457904,0.01400690,-0.00143124,0.03340417,0.06842581,-0.04463865,-
 0.08570333,0.03201048,-0.00065579,-0.00614094,-0.03586215,-0.04675286,
 -0.02617706,-0.06748109,0.13147668,-0.01996529,-0.05537111,-0.16331393
 ,-0.03245764,0.03662741,-0.05266520,0.12092321,-0.08424395,-0.15413932
 ,0.02265424,-0.01214736,-0.01307598,-0.02570718,-0.02406119,0.00344072
 ,-0.06544734,0.13919620,0.37975371\\0.00031094,0.00002901,-0.00024884,
 -0.00006548,0.00007577,0.00008932,0.00000915,-0.00012438,-0.00028276,-
 0.00005653,0.00012012,0.00006488,-0.00013903,-0.00007184,0.00025538,-0
 .00005905,-0.00002867,0.00012202\\\@


 TO DETECT ERRORS, THE PROGRAMMER MUST HAVE A CONNIVING MIND,
 ONE THAT DELIGHTS IN UNCOVERING FLAWS WHERE BEAUTY AND
 PERFECTION WERE ONCE THOUGHT TO LIE.

             -- THE PSYCHOLOGY OF COMPUTER PROGRAMMING
                GERALD M. WEINBERG
 Job cpu time:       0 days  0 hours 39 minutes 47.0 seconds.
 File lengths (MBytes):  RWF=     34 Int=      0 D2E=      0 Chk=      4 Scr=      1
 Normal termination of Gaussian 09 at Sun Jun 19 13:16:56 2016.
