 Entering Gaussian System, Link 0=g09
 Initial command:
 /usr/local/gaussian/gaussian09/g09/l1.exe "/scratch/sergio/C7.q1.m4-9.com-2301896/Gau-26951.inp" -scrdir="/scratch/sergio/C7.q1.m4-9.com-2301896/"
 Default is to use a total of   4 processors:
                                4 via shared-memory
                                1 via Linda
 Entering Link 1 = /usr/local/gaussian/gaussian09/g09/l1.exe PID=     26952.
  
 Copyright (c) 1988,1990,1992,1993,1995,1998,2003,2009,2015,
            Gaussian, Inc.  All Rights Reserved.
  
 This is part of the Gaussian(R) 09 program.  It is based on
 the Gaussian(R) 03 system (copyright 2003, Gaussian, Inc.),
 the Gaussian(R) 98 system (copyright 1998, Gaussian, Inc.),
 the Gaussian(R) 94 system (copyright 1995, Gaussian, Inc.),
 the Gaussian 92(TM) system (copyright 1992, Gaussian, Inc.),
 the Gaussian 90(TM) system (copyright 1990, Gaussian, Inc.),
 the Gaussian 88(TM) system (copyright 1988, Gaussian, Inc.),
 the Gaussian 86(TM) system (copyright 1986, Carnegie Mellon
 University), and the Gaussian 82(TM) system (copyright 1983,
 Carnegie Mellon University). Gaussian is a federally registered
 trademark of Gaussian, Inc.
  
 This software contains proprietary and confidential information,
 including trade secrets, belonging to Gaussian, Inc.
  
 This software is provided under written license and may be
 used, copied, transmitted, or stored only in accord with that
 written license.
  
 The following legend is applicable only to US Government
 contracts under FAR:
  
                    RESTRICTED RIGHTS LEGEND
  
 Use, reproduction and disclosure by the US Government is
 subject to restrictions as set forth in subparagraphs (a)
 and (c) of the Commercial Computer Software - Restricted
 Rights clause in FAR 52.227-19.
  
 Gaussian, Inc.
 340 Quinnipiac St., Bldg. 40, Wallingford CT 06492
  
  
 ---------------------------------------------------------------
 Warning -- This program may not be used in any manner that
 competes with the business of Gaussian, Inc. or will provide
 assistance to any competitor of Gaussian, Inc.  The licensee
 of this program is prohibited from giving any competitor of
 Gaussian, Inc. access to this program.  By using this program,
 the user acknowledges that Gaussian, Inc. is engaged in the
 business of creating and licensing software in the field of
 computational chemistry and represents and warrants to the
 licensee that it is not a competitor of Gaussian, Inc. and that
 it will not use this program in any manner prohibited above.
 ---------------------------------------------------------------
  

 Cite this work as:
 Gaussian 09, Revision E.01,
 M. J. Frisch, G. W. Trucks, H. B. Schlegel, G. E. Scuseria, 
 M. A. Robb, J. R. Cheeseman, G. Scalmani, V. Barone, B. Mennucci, 
 G. A. Petersson, H. Nakatsuji, M. Caricato, X. Li, H. P. Hratchian, 
 A. F. Izmaylov, J. Bloino, G. Zheng, J. L. Sonnenberg, M. Hada, 
 M. Ehara, K. Toyota, R. Fukuda, J. Hasegawa, M. Ishida, T. Nakajima, 
 Y. Honda, O. Kitao, H. Nakai, T. Vreven, J. A. Montgomery, Jr., 
 J. E. Peralta, F. Ogliaro, M. Bearpark, J. J. Heyd, E. Brothers, 
 K. N. Kudin, V. N. Staroverov, T. Keith, R. Kobayashi, J. Normand, 
 K. Raghavachari, A. Rendell, J. C. Burant, S. S. Iyengar, J. Tomasi, 
 M. Cossi, N. Rega, J. M. Millam, M. Klene, J. E. Knox, J. B. Cross, 
 V. Bakken, C. Adamo, J. Jaramillo, R. Gomperts, R. E. Stratmann, 
 O. Yazyev, A. J. Austin, R. Cammi, C. Pomelli, J. W. Ochterski, 
 R. L. Martin, K. Morokuma, V. G. Zakrzewski, G. A. Voth, 
 P. Salvador, J. J. Dannenberg, S. Dapprich, A. D. Daniels, 
 O. Farkas, J. B. Foresman, J. V. Ortiz, J. Cioslowski, 
 and D. J. Fox, Gaussian, Inc., Wallingford CT, 2013.
 
 ******************************************
 Gaussian 09:  EM64L-G09RevE.01 30-Nov-2015
                14-Nov-2016 
 ******************************************
 Default route:  MaxDisk=40000MB
 ---------------------------------------------
 #p b3lyp/6-311+G(3df) opt freq symmetry=Loose
 ---------------------------------------------
 1/14=-1,18=20,19=15,26=3,38=1/1,3;
 2/9=110,12=2,17=4,18=3,40=1/2;
 3/5=4,6=6,7=16,11=2,16=1,25=1,30=1,71=1,74=-5/1,2,3;
 4//1;
 5/5=2,38=5/2;
 6/7=2,8=2,9=2,10=2,28=1/1;
 7//1,2,3,16;
 1/14=-1,18=20,19=15,26=3/3(2);
 2/9=110/2;
 99//99;
 2/9=110/2;
 3/5=4,6=6,7=16,11=2,16=1,25=1,30=1,71=1,74=-5/1,2,3;
 4/5=5,16=3,69=1/1;
 5/5=2,38=5/2;
 7//1,2,3,16;
 1/14=-1,18=20,19=15,26=3/3(-5);
 2/9=110/2;
 6/7=2,8=2,9=2,10=2,19=2,28=1/1;
 99/9=1/99;
 Leave Link    1 at Mon Nov 14 16:17:53 2016, MaxMem=           0 cpu:         0.6
 (Enter /usr/local/gaussian/gaussian09/g09/l101.exe)
 ---------
 b3lyp opt
 ---------
 Symbolic Z-matrix:
 Charge =  1 Multiplicity = 4
 6                    -1.69      0.        0. 
 6                    -0.94      1.18      0. 
 6                    -0.94     -1.18      0. 
 6                     0.31     -1.33      0. 
 6                     0.31      1.33      0. 
 6                     1.47      0.71      0. 
 6                     1.47     -0.71      0. 
 
 NAtoms=      7 NQM=        7 NQMF=       0 NMMI=      0 NMMIF=      0
                NMic=       0 NMicF=      0.
                    Isotopes and Nuclear Properties:
 (Nuclear quadrupole moments (NQMom) in fm**2, nuclear magnetic moments (NMagM)
  in nuclear magnetons)

  Atom         1           2           3           4           5           6           7
 IAtWgt=          12          12          12          12          12          12          12
 AtmWgt=  12.0000000  12.0000000  12.0000000  12.0000000  12.0000000  12.0000000  12.0000000
 NucSpn=           0           0           0           0           0           0           0
 AtZEff=   0.0000000   0.0000000   0.0000000   0.0000000   0.0000000   0.0000000   0.0000000
 NQMom=    0.0000000   0.0000000   0.0000000   0.0000000   0.0000000   0.0000000   0.0000000
 NMagM=    0.0000000   0.0000000   0.0000000   0.0000000   0.0000000   0.0000000   0.0000000
 AtZNuc=   6.0000000   6.0000000   6.0000000   6.0000000   6.0000000   6.0000000   6.0000000
 Leave Link  101 at Mon Nov 14 16:17:55 2016, MaxMem=  1835008000 cpu:         4.1
 (Enter /usr/local/gaussian/gaussian09/g09/l103.exe)

 GradGradGradGradGradGradGradGradGradGradGradGradGradGradGradGradGradGrad
 Berny optimization.
 Initialization pass.
                           ----------------------------
                           !    Initial Parameters    !
                           ! (Angstroms and Degrees)  !
 --------------------------                            --------------------------
 ! Name  Definition              Value          Derivative Info.                !
 --------------------------------------------------------------------------------
 ! R1    R(1,2)                  1.3982         estimate D2E/DX2                !
 ! R2    R(1,3)                  1.3982         estimate D2E/DX2                !
 ! R3    R(2,5)                  1.259          estimate D2E/DX2                !
 ! R4    R(3,4)                  1.259          estimate D2E/DX2                !
 ! R5    R(4,7)                  1.3153         estimate D2E/DX2                !
 ! R6    R(5,6)                  1.3153         estimate D2E/DX2                !
 ! R7    R(6,7)                  1.42           estimate D2E/DX2                !
 ! A1    A(2,1,3)              115.1205         estimate D2E/DX2                !
 ! A2    A(1,2,5)              129.2825         estimate D2E/DX2                !
 ! A3    A(1,3,4)              129.2825         estimate D2E/DX2                !
 ! A4    A(3,4,7)              145.0335         estimate D2E/DX2                !
 ! A5    A(2,5,6)              145.0335         estimate D2E/DX2                !
 ! A6    A(5,6,7)              118.1237         estimate D2E/DX2                !
 ! A7    A(4,7,6)              118.1237         estimate D2E/DX2                !
 ! D1    D(3,1,2,5)              0.0            estimate D2E/DX2                !
 ! D2    D(2,1,3,4)              0.0            estimate D2E/DX2                !
 ! D3    D(1,2,5,6)              0.0            estimate D2E/DX2                !
 ! D4    D(1,3,4,7)              0.0            estimate D2E/DX2                !
 ! D5    D(3,4,7,6)              0.0            estimate D2E/DX2                !
 ! D6    D(2,5,6,7)              0.0            estimate D2E/DX2                !
 ! D7    D(5,6,7,4)              0.0            estimate D2E/DX2                !
 --------------------------------------------------------------------------------
 Trust Radius=3.00D-01 FncErr=1.00D-07 GrdErr=1.00D-06
 Number of steps in this run=     31 maximum allowed number of steps=    100.
 GradGradGradGradGradGradGradGradGradGradGradGradGradGradGradGradGradGrad

 Leave Link  103 at Mon Nov 14 16:17:55 2016, MaxMem=  1835008000 cpu:         0.1
 (Enter /usr/local/gaussian/gaussian09/g09/l202.exe)
                          Input orientation:                          
 ---------------------------------------------------------------------
 Center     Atomic      Atomic             Coordinates (Angstroms)
 Number     Number       Type             X           Y           Z
 ---------------------------------------------------------------------
      1          6           0       -1.690000    0.000000    0.000000
      2          6           0       -0.940000    1.180000    0.000000
      3          6           0       -0.940000   -1.180000    0.000000
      4          6           0        0.310000   -1.330000    0.000000
      5          6           0        0.310000    1.330000    0.000000
      6          6           0        1.470000    0.710000    0.000000
      7          6           0        1.470000   -0.710000    0.000000
 ---------------------------------------------------------------------
                    Distance matrix (angstroms):
                    1          2          3          4          5
     1  C    0.000000
     2  C    1.398177   0.000000
     3  C    1.398177   2.360000   0.000000
     4  C    2.401853   2.804033   1.258968   0.000000
     5  C    2.401853   1.258968   2.804033   2.660000   0.000000
     6  C    3.238781   2.455402   3.062711   2.346742   1.315295
     7  C    3.238781   3.062711   2.455402   1.315295   2.346742
                    6          7
     6  C    0.000000
     7  C    1.420000   0.000000
 Stoichiometry    C7(1+,4)
 Framework group  C2V[C2(C),SGV(C6)]
 Deg. of freedom     6
 Full point group                 C2V     NOp   4
 Largest Abelian subgroup         C2V     NOp   4
 Largest concise Abelian subgroup C2      NOp   2
                         Standard orientation:                         
 ---------------------------------------------------------------------
 Center     Atomic      Atomic             Coordinates (Angstroms)
 Number     Number       Type             X           Y           Z
 ---------------------------------------------------------------------
      1          6           0        0.000000    0.000000    1.688571
      2          6           0        0.000000    1.180000    0.938571
      3          6           0       -0.000000   -1.180000    0.938571
      4          6           0        0.000000   -1.330000   -0.311429
      5          6           0        0.000000    1.330000   -0.311429
      6          6           0        0.000000    0.710000   -1.471429
      7          6           0       -0.000000   -0.710000   -1.471429
 ---------------------------------------------------------------------
 Rotational constants (GHZ):      5.7449279      4.6091277      2.5573657
 Leave Link  202 at Mon Nov 14 16:17:55 2016, MaxMem=  1835008000 cpu:         0.1
 (Enter /usr/local/gaussian/gaussian09/g09/l301.exe)
 Standard basis: 6-311+G(3df) (5D, 7F)
 Ernie: Thresh=  0.10000D-02 Tol=  0.10000D-05 Strict=F.
 There are   114 symmetry adapted cartesian basis functions of A1  symmetry.
 There are    46 symmetry adapted cartesian basis functions of A2  symmetry.
 There are    52 symmetry adapted cartesian basis functions of B1  symmetry.
 There are   103 symmetry adapted cartesian basis functions of B2  symmetry.
 There are    95 symmetry adapted basis functions of A1  symmetry.
 There are    43 symmetry adapted basis functions of A2  symmetry.
 There are    48 symmetry adapted basis functions of B1  symmetry.
 There are    87 symmetry adapted basis functions of B2  symmetry.
   273 basis functions,   406 primitive gaussians,   315 cartesian basis functions
    22 alpha electrons       19 beta electrons
       nuclear repulsion energy       200.5387617161 Hartrees.
 IExCor=  402 DFT=T Ex+Corr=B3LYP ExCW=0 ScaHFX=  0.200000
 ScaDFX=  0.800000  0.720000  1.000000  0.810000 ScalE2=  1.000000  1.000000
 IRadAn=      0 IRanWt=     -1 IRanGd=            0 ICorTp=0 IEmpDi=  4
 NAtoms=    7 NActive=    7 NUniq=    4 SFac= 3.06D+00 NAtFMM=   60 NAOKFM=F Big=F
 Integral buffers will be    131072 words long.
 Raffenetti 2 integral format.
 Two-electron integral symmetry is turned on.
 Leave Link  301 at Mon Nov 14 16:17:56 2016, MaxMem=  1835008000 cpu:         0.8
 (Enter /usr/local/gaussian/gaussian09/g09/l302.exe)
 NPDir=0 NMtPBC=     1 NCelOv=     1 NCel=       1 NClECP=     1 NCelD=      1
         NCelK=      1 NCelE2=     1 NClLst=     1 CellRange=     0.0.
 One-electron integrals computed using PRISM.
 One-electron integral symmetry used in STVInt
 NBasis=   273 RedAO= T EigKep=  1.98D-06  NBF=    95    43    48    87
 NBsUse=   272 1.00D-06 EigRej=  6.38D-07 NBFU=    95    43    48    86
 Precomputing XC quadrature grid using
 IXCGrd= 4 IRadAn=           0 IRanWt=          -1 IRanGd=           0 AccXCQ= 0.00D+00.
 Generated NRdTot=       0 NPtTot=           0 NUsed=           0 NTot=          32
 NSgBfM=   315   315   315   315   315 MxSgAt=     7 MxSgA2=     7.
 Leave Link  302 at Mon Nov 14 16:18:08 2016, MaxMem=  1835008000 cpu:        36.3
 (Enter /usr/local/gaussian/gaussian09/g09/l303.exe)
 DipDrv:  MaxL=1.
 Leave Link  303 at Mon Nov 14 16:18:08 2016, MaxMem=  1835008000 cpu:         1.5
 (Enter /usr/local/gaussian/gaussian09/g09/l401.exe)
 ExpMin= 4.38D-02 ExpMax= 4.56D+03 ExpMxC= 6.82D+02 IAcc=2 IRadAn=         4 AccDes= 0.00D+00
 Harris functional with IExCor=  402 and IRadAn=       4 diagonalized for initial guess.
 HarFok:  IExCor=  402 AccDes= 0.00D+00 IRadAn=         4 IDoV= 1 UseB2=F ITyADJ=14
 ICtDFT=  3500011 ScaDFX=  1.000000  1.000000  1.000000  1.000000
 FoFCou: FMM=F IPFlag=           0 FMFlag=      100000 FMFlg1=           0
         NFxFlg=           0 DoJE=T BraDBF=F KetDBF=T FulRan=T
         wScrn=  0.000000 ICntrl=     500 IOpCl=  0 I1Cent=   200000004 NGrid=           0
         NMat0=    1 NMatS0=      1 NMatT0=    0 NMatD0=    1 NMtDS0=    0 NMtDT0=    0
 Petite list used in FoFCou.
 Harris En= -266.042994606237    
 JPrj=0 DoOrth=F DoCkMO=F.
 Initial guess orbital symmetries:
 Alpha Orbitals:
       Occupied  (B2) (A1) (B2) (A1) (A1) (B2) (A1) (A1) (B2) (A1)
                 (B2) (A1) (A1) (B2) (B1) (A1) (A2) (B2) (B1) (A1)
                 (B2) (A1)
       Virtual   (A2) (B1) (B2) (A1) (A1) (B1) (A2) (B2) (A1) (B1)
                 (A1) (B2) (A1) (A2) (B1) (B2) (A1) (B1) (A2) (A1)
                 (B2) (A1) (B2) (A1) (B2) (B1) (A2) (B2) (A1) (B1)
                 (A1) (B2) (B2) (A1) (B2) (A1) (A1) (B2) (A1) (B2)
                 (A1) (A1) (B2) (A1) (B1) (A2) (B2) (B2) (A1) (B1)
                 (A1) (A2) (B1) (B2) (A2) (B2) (B1) (A1) (A1) (B1)
                 (A1) (A1) (B2) (A2) (B1) (A2) (B2) (A1) (B2) (A1)
                 (B2) (A2) (B1) (A2) (B1) (B2) (A1) (A1) (A2) (B1)
                 (A1) (B2) (A1) (B2) (A2) (B1) (B2) (B2) (A1) (A1)
                 (B2) (B2) (A2) (A1) (B2) (A1) (B2) (B2) (A1) (A1)
                 (B1) (A2) (B2) (B1) (A1) (A2) (B2) (B1) (A1) (A1)
                 (B2) (B2) (A2) (A1) (B1) (A1) (A1) (B1) (A2) (A1)
                 (B2) (B2) (A2) (B1) (A1) (B2) (A2) (A1) (B2) (B1)
                 (B2) (B2) (A1) (A1) (B1) (A1) (B1) (A2) (B1) (A2)
                 (B2) (A1) (B1) (B2) (A2) (A1) (B1) (A2) (B2) (A2)
                 (A1) (B1) (B2) (A1) (B1) (A2) (B1) (A1) (B2) (A1)
                 (B2) (B1) (A2) (A1) (B2) (B2) (A1) (A1) (B2) (B2)
                 (A1) (A2) (B1) (B2) (B1) (A2) (A1) (A1) (B2) (A1)
                 (B1) (A2) (B2) (A1) (B2) (B2) (A1) (B2) (A1) (A1)
                 (B2) (A1) (A2) (B2) (A2) (B1) (B1) (A2) (A1) (B2)
                 (B2) (A1) (B1) (A2) (A1) (B2) (B2) (B2) (B1) (B2)
                 (A2) (A1) (B1) (A1) (B1) (A2) (A1) (A1) (A2) (B1)
                 (B2) (B2) (B1) (A2) (A1) (B1) (B2) (A2) (A1) (A1)
                 (B2) (A2) (B1) (B2) (A2) (A1) (B2) (A1) (A1) (B2)
                 (A1) (B2) (B2) (A1) (B2) (A1) (A1) (B2) (B2) (A1)
 Beta  Orbitals:
       Occupied  (B2) (A1) (B2) (A1) (A1) (B2) (A1) (A1) (B2) (A1)
                 (B2) (A1) (A1) (B2) (B1) (A1) (A2) (B2) (B1)
       Virtual   (A1) (B2) (A1) (A2) (B1) (B2) (A1) (A1) (B1) (A2)
                 (B2) (A1) (B1) (A1) (B2) (A1) (A2) (B1) (B2) (A1)
                 (B1) (A2) (A1) (B2) (A1) (B2) (A1) (B2) (B1) (A2)
                 (B2) (A1) (B1) (A1) (B2) (B2) (A1) (B2) (A1) (A1)
                 (B2) (A1) (B2) (A1) (A1) (B2) (A1) (B1) (A2) (B2)
                 (B2) (A1) (B1) (A1) (A2) (B1) (B2) (A2) (B2) (B1)
                 (A1) (A1) (B1) (A1) (A1) (B2) (A2) (B1) (A2) (B2)
                 (A1) (B2) (A1) (B2) (A2) (B1) (A2) (B1) (B2) (A1)
                 (A1) (A2) (B1) (A1) (B2) (A1) (B2) (A2) (B1) (B2)
                 (B2) (A1) (A1) (B2) (B2) (A2) (A1) (B2) (A1) (B2)
                 (B2) (A1) (A1) (B1) (A2) (B2) (B1) (A1) (A2) (B2)
                 (B1) (A1) (A1) (B2) (B2) (A2) (A1) (B1) (A1) (A1)
                 (B1) (A2) (A1) (B2) (B2) (A2) (B1) (A1) (B2) (A2)
                 (A1) (B2) (B1) (B2) (B2) (A1) (A1) (B1) (A1) (B1)
                 (A2) (B1) (A2) (B2) (A1) (B1) (B2) (A2) (A1) (B1)
                 (A2) (B2) (A2) (A1) (B1) (B2) (A1) (B1) (A2) (B1)
                 (A1) (B2) (A1) (B2) (B1) (A2) (A1) (B2) (B2) (A1)
                 (A1) (B2) (B2) (A1) (A2) (B1) (B2) (B1) (A2) (A1)
                 (A1) (B2) (A1) (B1) (A2) (B2) (A1) (B2) (B2) (A1)
                 (B2) (A1) (A1) (B2) (A1) (A2) (B2) (A2) (B1) (B1)
                 (A2) (A1) (B2) (B2) (A1) (B1) (A2) (A1) (B2) (B2)
                 (B2) (B1) (B2) (A2) (A1) (B1) (A1) (B1) (A2) (A1)
                 (A1) (A2) (B1) (B2) (B2) (B1) (A2) (A1) (B1) (B2)
                 (A2) (A1) (A1) (B2) (A2) (B1) (B2) (A2) (A1) (B2)
                 (A1) (A1) (B2) (A1) (B2) (B2) (A1) (B2) (A1) (A1)
                 (B2) (B2) (A1)
 The electronic state of the initial guess is 4-B2.
 Initial guess <Sx>= 0.0000 <Sy>= 0.0000 <Sz>= 1.5000 <S**2>= 3.7500 S= 1.5000
 Leave Link  401 at Mon Nov 14 16:18:12 2016, MaxMem=  1835008000 cpu:         8.9
 (Enter /usr/local/gaussian/gaussian09/g09/l502.exe)
 UHF open shell SCF:
 Using DIIS extrapolation, IDIIS=  1040.
 Integral symmetry usage will be decided dynamically.
 Keep R1 and R2 ints in memory in symmetry-blocked form, NReq=877006048.
 IVT=      320829 IEndB=      320829 NGot=  1835008000 MDV=  1480270095
 LenX=  1480270095 LenY=  1480170429
 Requested convergence on RMS density matrix=1.00D-08 within 128 cycles.
 Requested convergence on MAX density matrix=1.00D-06.
 Requested convergence on             energy=1.00D-06.
 No special actions if energy rises.
 FoFCou: FMM=F IPFlag=           0 FMFlag=           0 FMFlg1=           0
         NFxFlg=           0 DoJE=F BraDBF=F KetDBF=F FulRan=T
         wScrn=  0.000000 ICntrl=     600 IOpCl=  0 I1Cent=           0 NGrid=           0
         NMat0=    1 NMatS0=  37401 NMatT0=    0 NMatD0=    1 NMtDS0=    0 NMtDT0=    0
 Petite list used in FoFCou.

 Cycle   1  Pass 1  IDiag  1:
 E= -265.956840544151    
 DIIS: error= 1.56D-02 at cycle   1 NSaved=   1.
 NSaved= 1 IEnMin= 1 EnMin= -265.956840544151     IErMin= 1 ErrMin= 1.56D-02
 ErrMax= 1.56D-02  0.00D+00 EMaxC= 1.00D-01 BMatC= 3.11D-01 BMatP= 3.11D-01
 IDIUse=3 WtCom= 8.44D-01 WtEn= 1.56D-01
 Coeff-Com:  0.100D+01
 Coeff-En:   0.100D+01
 Coeff:      0.100D+01
 Gap=     0.146 Goal=   None    Shift=    0.000
 Gap=     0.036 Goal=   None    Shift=    0.000
 GapD=    0.036 DampG=0.250 DampE=0.500 DampFc=0.2500 IDamp=-1.
 Damping current iteration by 2.50D-01
 RMSDP=9.96D-03 MaxDP=5.65D-01              OVMax= 1.43D-01

 Cycle   2  Pass 1  IDiag  1:
 E= -265.977084473532     Delta-E=       -0.020243929381 Rises=F Damp=T
 DIIS: error= 9.05D-03 at cycle   2 NSaved=   2.
 NSaved= 2 IEnMin= 2 EnMin= -265.977084473532     IErMin= 2 ErrMin= 9.05D-03
 ErrMax= 9.05D-03  0.00D+00 EMaxC= 1.00D-01 BMatC= 1.15D-01 BMatP= 3.11D-01
 IDIUse=3 WtCom= 9.10D-01 WtEn= 9.05D-02
 Coeff-Com: -0.107D+01 0.207D+01
 Coeff-En:   0.000D+00 0.100D+01
 Coeff:     -0.969D+00 0.197D+01
 Gap=     0.138 Goal=   None    Shift=    0.000
 Gap=     0.096 Goal=   None    Shift=    0.000
 RMSDP=7.40D-03 MaxDP=3.83D-01 DE=-2.02D-02 OVMax= 1.13D-01

 Cycle   3  Pass 1  IDiag  1:
 E= -266.014608999857     Delta-E=       -0.037524526325 Rises=F Damp=F
 DIIS: error= 9.84D-03 at cycle   3 NSaved=   3.
 NSaved= 3 IEnMin= 3 EnMin= -266.014608999857     IErMin= 2 ErrMin= 9.05D-03
 ErrMax= 9.84D-03  0.00D+00 EMaxC= 1.00D-01 BMatC= 4.28D-02 BMatP= 1.15D-01
 IDIUse=3 WtCom= 9.02D-01 WtEn= 9.84D-02
 Coeff-Com: -0.757D+00 0.117D+01 0.584D+00
 Coeff-En:   0.000D+00 0.000D+00 0.100D+01
 Coeff:     -0.682D+00 0.106D+01 0.625D+00
 Gap=     0.140 Goal=   None    Shift=    0.000
 Gap=     0.080 Goal=   None    Shift=    0.000
 RMSDP=2.45D-03 MaxDP=1.32D-01 DE=-3.75D-02 OVMax= 4.76D-02

 Cycle   4  Pass 1  IDiag  1:
 E= -266.024768948658     Delta-E=       -0.010159948801 Rises=F Damp=F
 DIIS: error= 3.23D-03 at cycle   4 NSaved=   4.
 NSaved= 4 IEnMin= 4 EnMin= -266.024768948658     IErMin= 4 ErrMin= 3.23D-03
 ErrMax= 3.23D-03  0.00D+00 EMaxC= 1.00D-01 BMatC= 6.44D-03 BMatP= 4.28D-02
 IDIUse=3 WtCom= 9.68D-01 WtEn= 3.23D-02
 Coeff-Com: -0.190D+00 0.253D+00 0.332D+00 0.604D+00
 Coeff-En:   0.000D+00 0.000D+00 0.822D-01 0.918D+00
 Coeff:     -0.183D+00 0.245D+00 0.324D+00 0.614D+00
 Gap=     0.140 Goal=   None    Shift=    0.000
 Gap=     0.087 Goal=   None    Shift=    0.000
 RMSDP=7.06D-04 MaxDP=6.16D-02 DE=-1.02D-02 OVMax= 2.93D-02

 Cycle   5  Pass 1  IDiag  1:
 E= -266.026164195061     Delta-E=       -0.001395246403 Rises=F Damp=F
 DIIS: error= 2.63D-03 at cycle   5 NSaved=   5.
 NSaved= 5 IEnMin= 5 EnMin= -266.026164195061     IErMin= 5 ErrMin= 2.63D-03
 ErrMax= 2.63D-03  0.00D+00 EMaxC= 1.00D-01 BMatC= 2.04D-03 BMatP= 6.44D-03
 IDIUse=3 WtCom= 9.74D-01 WtEn= 2.63D-02
 Coeff-Com: -0.453D-01 0.418D-01 0.167D+00 0.441D+00 0.396D+00
 Coeff-En:   0.000D+00 0.000D+00 0.000D+00 0.133D+00 0.867D+00
 Coeff:     -0.441D-01 0.407D-01 0.162D+00 0.433D+00 0.408D+00
 Gap=     0.140 Goal=   None    Shift=    0.000
 Gap=     0.089 Goal=   None    Shift=    0.000
 RMSDP=5.56D-04 MaxDP=3.96D-02 DE=-1.40D-03 OVMax= 1.48D-02

 Cycle   6  Pass 1  IDiag  1:
 E= -266.026640517215     Delta-E=       -0.000476322154 Rises=F Damp=F
 DIIS: error= 1.93D-03 at cycle   6 NSaved=   6.
 NSaved= 6 IEnMin= 6 EnMin= -266.026640517215     IErMin= 6 ErrMin= 1.93D-03
 ErrMax= 1.93D-03  0.00D+00 EMaxC= 1.00D-01 BMatC= 8.15D-04 BMatP= 2.04D-03
 IDIUse=3 WtCom= 9.81D-01 WtEn= 1.93D-02
 Coeff-Com:  0.619D-01-0.988D-01-0.236D-01 0.802D-01 0.399D+00 0.581D+00
 Coeff-En:   0.000D+00 0.000D+00 0.000D+00 0.000D+00 0.270D+00 0.730D+00
 Coeff:      0.607D-01-0.969D-01-0.231D-01 0.786D-01 0.397D+00 0.584D+00
 Gap=     0.143 Goal=   None    Shift=    0.000
 Gap=     0.091 Goal=   None    Shift=    0.000
 RMSDP=3.54D-04 MaxDP=1.74D-02 DE=-4.76D-04 OVMax= 1.24D-02

 Cycle   7  Pass 1  IDiag  1:
 E= -266.026996841342     Delta-E=       -0.000356324127 Rises=F Damp=F
 DIIS: error= 7.87D-04 at cycle   7 NSaved=   7.
 NSaved= 7 IEnMin= 7 EnMin= -266.026996841342     IErMin= 7 ErrMin= 7.87D-04
 ErrMax= 7.87D-04  0.00D+00 EMaxC= 1.00D-01 BMatC= 1.14D-04 BMatP= 8.15D-04
 IDIUse=3 WtCom= 9.92D-01 WtEn= 7.87D-03
 Coeff-Com:  0.493D-01-0.692D-01-0.633D-01-0.830D-01 0.106D+00 0.342D+00
 Coeff-Com:  0.718D+00
 Coeff-En:   0.000D+00 0.000D+00 0.000D+00 0.000D+00 0.000D+00 0.000D+00
 Coeff-En:   0.100D+01
 Coeff:      0.490D-01-0.687D-01-0.628D-01-0.824D-01 0.105D+00 0.339D+00
 Coeff:      0.720D+00
 Gap=     0.142 Goal=   None    Shift=    0.000
 Gap=     0.092 Goal=   None    Shift=    0.000
 RMSDP=2.68D-04 MaxDP=1.43D-02 DE=-3.56D-04 OVMax= 8.15D-03

 Cycle   8  Pass 1  IDiag  1:
 E= -266.027098577257     Delta-E=       -0.000101735915 Rises=F Damp=F
 DIIS: error= 3.13D-04 at cycle   8 NSaved=   8.
 NSaved= 8 IEnMin= 8 EnMin= -266.027098577257     IErMin= 8 ErrMin= 3.13D-04
 ErrMax= 3.13D-04  0.00D+00 EMaxC= 1.00D-01 BMatC= 3.42D-05 BMatP= 1.14D-04
 IDIUse=3 WtCom= 9.97D-01 WtEn= 3.13D-03
 Coeff-Com: -0.490D-02 0.120D-01-0.204D-01-0.783D-01-0.123D+00-0.909D-01
 Coeff-Com:  0.379D+00 0.927D+00
 Coeff-En:   0.000D+00 0.000D+00 0.000D+00 0.000D+00 0.000D+00 0.000D+00
 Coeff-En:   0.000D+00 0.100D+01
 Coeff:     -0.489D-02 0.120D-01-0.203D-01-0.780D-01-0.123D+00-0.906D-01
 Coeff:      0.377D+00 0.927D+00
 Gap=     0.143 Goal=   None    Shift=    0.000
 Gap=     0.093 Goal=   None    Shift=    0.000
 RMSDP=2.94D-04 MaxDP=1.67D-02 DE=-1.02D-04 OVMax= 6.63D-03

 Cycle   9  Pass 1  IDiag  1:
 E= -266.027151840529     Delta-E=       -0.000053263272 Rises=F Damp=F
 DIIS: error= 1.15D-04 at cycle   9 NSaved=   9.
 NSaved= 9 IEnMin= 9 EnMin= -266.027151840529     IErMin= 9 ErrMin= 1.15D-04
 ErrMax= 1.15D-04  0.00D+00 EMaxC= 1.00D-01 BMatC= 4.98D-06 BMatP= 3.42D-05
 IDIUse=3 WtCom= 9.99D-01 WtEn= 1.15D-03
 Coeff-Com: -0.147D-01 0.197D-01 0.197D-01 0.224D-01-0.262D-01-0.757D-01
 Coeff-Com: -0.266D+00-0.905D-01 0.141D+01
 Coeff-En:   0.000D+00 0.000D+00 0.000D+00 0.000D+00 0.000D+00 0.000D+00
 Coeff-En:   0.000D+00 0.000D+00 0.100D+01
 Coeff:     -0.147D-01 0.197D-01 0.196D-01 0.224D-01-0.262D-01-0.756D-01
 Coeff:     -0.265D+00-0.904D-01 0.141D+01
 Gap=     0.143 Goal=   None    Shift=    0.000
 Gap=     0.093 Goal=   None    Shift=    0.000
 RMSDP=2.22D-04 MaxDP=1.31D-02 DE=-5.33D-05 OVMax= 5.50D-03

 Cycle  10  Pass 1  IDiag  1:
 E= -266.027167714915     Delta-E=       -0.000015874386 Rises=F Damp=F
 DIIS: error= 3.68D-05 at cycle  10 NSaved=  10.
 NSaved=10 IEnMin=10 EnMin= -266.027167714915     IErMin=10 ErrMin= 3.68D-05
 ErrMax= 3.68D-05  0.00D+00 EMaxC= 1.00D-01 BMatC= 4.72D-07 BMatP= 4.98D-06
 IDIUse=1 WtCom= 1.00D+00 WtEn= 0.00D+00
 Coeff-Com:  0.497D-02-0.716D-02-0.860D-03 0.495D-02 0.183D-01 0.262D-01
 Coeff-Com:  0.455D-02-0.606D-01-0.349D+00 0.136D+01
 Coeff:      0.497D-02-0.716D-02-0.860D-03 0.495D-02 0.183D-01 0.262D-01
 Coeff:      0.455D-02-0.606D-01-0.349D+00 0.136D+01
 Gap=     0.143 Goal=   None    Shift=    0.000
 Gap=     0.093 Goal=   None    Shift=    0.000
 RMSDP=5.10D-05 MaxDP=3.37D-03 DE=-1.59D-05 OVMax= 1.53D-03

 Cycle  11  Pass 1  IDiag  1:
 E= -266.027168916521     Delta-E=       -0.000001201606 Rises=F Damp=F
 DIIS: error= 1.48D-05 at cycle  11 NSaved=  11.
 NSaved=11 IEnMin=11 EnMin= -266.027168916521     IErMin=11 ErrMin= 1.48D-05
 ErrMax= 1.48D-05  0.00D+00 EMaxC= 1.00D-01 BMatC= 4.15D-08 BMatP= 4.72D-07
 IDIUse=1 WtCom= 1.00D+00 WtEn= 0.00D+00
 Coeff-Com:  0.749D-03-0.947D-03-0.224D-02-0.288D-02-0.132D-02 0.358D-02
 Coeff-Com:  0.254D-01 0.216D-01-0.898D-01-0.212D+00 0.126D+01
 Coeff:      0.749D-03-0.947D-03-0.224D-02-0.288D-02-0.132D-02 0.358D-02
 Coeff:      0.254D-01 0.216D-01-0.898D-01-0.212D+00 0.126D+01
 Gap=     0.143 Goal=   None    Shift=    0.000
 Gap=     0.093 Goal=   None    Shift=    0.000
 RMSDP=8.50D-06 MaxDP=6.26D-04 DE=-1.20D-06 OVMax= 3.15D-04

 Cycle  12  Pass 1  IDiag  1:
 E= -266.027168993785     Delta-E=       -0.000000077265 Rises=F Damp=F
 DIIS: error= 5.17D-06 at cycle  12 NSaved=  12.
 NSaved=12 IEnMin=12 EnMin= -266.027168993785     IErMin=12 ErrMin= 5.17D-06
 ErrMax= 5.17D-06  0.00D+00 EMaxC= 1.00D-01 BMatC= 3.43D-09 BMatP= 4.15D-08
 IDIUse=1 WtCom= 1.00D+00 WtEn= 0.00D+00
 Coeff-Com: -0.523D-03 0.738D-03 0.228D-03-0.346D-03-0.129D-02-0.251D-02
 Coeff-Com: -0.127D-02 0.204D-02 0.381D-01-0.104D+00-0.132D+00 0.120D+01
 Coeff:     -0.523D-03 0.738D-03 0.228D-03-0.346D-03-0.129D-02-0.251D-02
 Coeff:     -0.127D-02 0.204D-02 0.381D-01-0.104D+00-0.132D+00 0.120D+01
 Gap=     0.143 Goal=   None    Shift=    0.000
 Gap=     0.093 Goal=   None    Shift=    0.000
 RMSDP=1.20D-06 MaxDP=4.92D-05 DE=-7.73D-08 OVMax= 8.29D-05

 Cycle  13  Pass 1  IDiag  1:
 E= -266.027168999915     Delta-E=       -0.000000006130 Rises=F Damp=F
 DIIS: error= 1.89D-06 at cycle  13 NSaved=  13.
 NSaved=13 IEnMin=13 EnMin= -266.027168999915     IErMin=13 ErrMin= 1.89D-06
 ErrMax= 1.89D-06  0.00D+00 EMaxC= 1.00D-01 BMatC= 4.37D-10 BMatP= 3.43D-09
 IDIUse=1 WtCom= 1.00D+00 WtEn= 0.00D+00
 Coeff-Com:  0.358D-04-0.578D-04 0.177D-03 0.346D-03 0.362D-03 0.989D-04
 Coeff-Com: -0.205D-02-0.226D-02 0.114D-02 0.438D-01-0.954D-01-0.280D+00
 Coeff-Com:  0.133D+01
 Coeff:      0.358D-04-0.578D-04 0.177D-03 0.346D-03 0.362D-03 0.989D-04
 Coeff:     -0.205D-02-0.226D-02 0.114D-02 0.438D-01-0.954D-01-0.280D+00
 Coeff:      0.133D+01
 Gap=     0.143 Goal=   None    Shift=    0.000
 Gap=     0.093 Goal=   None    Shift=    0.000
 RMSDP=6.91D-07 MaxDP=3.22D-05 DE=-6.13D-09 OVMax= 3.50D-05

 Cycle  14  Pass 1  IDiag  1:
 E= -266.027169000853     Delta-E=       -0.000000000938 Rises=F Damp=F
 DIIS: error= 9.93D-07 at cycle  14 NSaved=  14.
 NSaved=14 IEnMin=14 EnMin= -266.027169000853     IErMin=14 ErrMin= 9.93D-07
 ErrMax= 9.93D-07  0.00D+00 EMaxC= 1.00D-01 BMatC= 8.92D-11 BMatP= 4.37D-10
 IDIUse=1 WtCom= 1.00D+00 WtEn= 0.00D+00
 Coeff-Com:  0.671D-04-0.947D-04-0.356D-04 0.524D-04 0.235D-03 0.210D-03
 Coeff-Com:  0.245D-03-0.225D-03-0.545D-02 0.130D-01 0.263D-01-0.184D+00
 Coeff-Com:  0.102D-01 0.114D+01
 Coeff:      0.671D-04-0.947D-04-0.356D-04 0.524D-04 0.235D-03 0.210D-03
 Coeff:      0.245D-03-0.225D-03-0.545D-02 0.130D-01 0.263D-01-0.184D+00
 Coeff:      0.102D-01 0.114D+01
 Gap=     0.143 Goal=   None    Shift=    0.000
 Gap=     0.093 Goal=   None    Shift=    0.000
 RMSDP=2.42D-07 MaxDP=1.58D-05 DE=-9.38D-10 OVMax= 1.50D-05

 Cycle  15  Pass 1  IDiag  1:
 E= -266.027169000964     Delta-E=       -0.000000000111 Rises=F Damp=F
 DIIS: error= 1.97D-07 at cycle  15 NSaved=  15.
 NSaved=15 IEnMin=15 EnMin= -266.027169000964     IErMin=15 ErrMin= 1.97D-07
 ErrMax= 1.97D-07  0.00D+00 EMaxC= 1.00D-01 BMatC= 5.04D-12 BMatP= 8.92D-11
 IDIUse=1 WtCom= 1.00D+00 WtEn= 0.00D+00
 Coeff-Com: -0.880D-05 0.130D-04-0.250D-04-0.491D-04-0.602D-04-0.506D-05
 Coeff-Com:  0.272D-03 0.342D-03 0.456D-04-0.682D-02 0.141D-01 0.355D-01
 Coeff-Com: -0.175D+00 0.335D-01 0.110D+01
 Coeff:     -0.880D-05 0.130D-04-0.250D-04-0.491D-04-0.602D-04-0.506D-05
 Coeff:      0.272D-03 0.342D-03 0.456D-04-0.682D-02 0.141D-01 0.355D-01
 Coeff:     -0.175D+00 0.335D-01 0.110D+01
 Gap=     0.143 Goal=   None    Shift=    0.000
 Gap=     0.093 Goal=   None    Shift=    0.000
 RMSDP=6.73D-08 MaxDP=3.86D-06 DE=-1.11D-10 OVMax= 3.30D-06

 Cycle  16  Pass 1  IDiag  1:
 E= -266.027169000972     Delta-E=       -0.000000000008 Rises=F Damp=F
 DIIS: error= 2.06D-08 at cycle  16 NSaved=  16.
 NSaved=16 IEnMin=16 EnMin= -266.027169000972     IErMin=16 ErrMin= 2.06D-08
 ErrMax= 2.06D-08  0.00D+00 EMaxC= 1.00D-01 BMatC= 1.11D-13 BMatP= 5.04D-12
 IDIUse=1 WtCom= 1.00D+00 WtEn= 0.00D+00
 Coeff-Com: -0.936D-06 0.125D-05 0.217D-05 0.373D-06-0.183D-05 0.921D-06
 Coeff-Com: -0.136D-04-0.394D-04 0.126D-03 0.998D-04-0.183D-02 0.462D-02
 Coeff-Com:  0.539D-02-0.311D-01-0.581D-01 0.108D+01
 Coeff:     -0.936D-06 0.125D-05 0.217D-05 0.373D-06-0.183D-05 0.921D-06
 Coeff:     -0.136D-04-0.394D-04 0.126D-03 0.998D-04-0.183D-02 0.462D-02
 Coeff:      0.539D-02-0.311D-01-0.581D-01 0.108D+01
 Gap=     0.143 Goal=   None    Shift=    0.000
 Gap=     0.093 Goal=   None    Shift=    0.000
 RMSDP=5.44D-09 MaxDP=4.42D-07 DE=-7.62D-12 OVMax= 3.83D-07

 SCF Done:  E(UB3LYP) =  -266.027169001     A.U. after   16 cycles
            NFock= 16  Conv=0.54D-08     -V/T= 2.0041
 <Sx>= 0.0000 <Sy>= 0.0000 <Sz>= 1.5000 <S**2>= 3.8632 S= 1.5281
 <L.S>= 0.000000000000E+00
 KE= 2.649495099825D+02 PE=-1.008432666540D+03 EE= 2.769172258400D+02
 Annihilation of the first spin contaminant:
 S**2 before annihilation     3.8632,   after     3.7540
 Leave Link  502 at Mon Nov 14 16:21:17 2016, MaxMem=  1835008000 cpu:       516.4
 (Enter /usr/local/gaussian/gaussian09/g09/l601.exe)
 Copying SCF densities to generalized density rwf, IOpCl= 1 IROHF=0.

 **********************************************************************

            Population analysis using the SCF density.

 **********************************************************************

 Orbital symmetries:
 Alpha Orbitals:
       Occupied  (A1) (A1) (B2) (B2) (A1) (B2) (A1) (A1) (A1) (B2)
                 (B2) (A1) (A1) (B2) (A1) (B1) (A1) (A2) (B2) (B1)
                 (A1) (B2)
       Virtual   (A2) (B1) (B2) (A1) (A1) (B1) (A2) (B1) (B2) (A1)
                 (A1) (B2) (A1) (A2) (B1) (B2) (A1) (A1) (B2) (B1)
                 (A2) (A1) (B2) (B2) (B1) (A1) (A2) (B1) (B2) (A1)
                 (A1) (B2) (B2) (A1) (A1) (B2) (A1) (B2) (A1) (A1)
                 (B2) (A1) (B2) (A1) (B1) (A2) (B2) (B2) (A1) (B1)
                 (A2) (B1) (A1) (B2) (A2) (B1) (A1) (B2) (B1) (A1)
                 (A1) (A2) (A1) (B2) (B1) (A2) (B2) (A1) (B2) (A1)
                 (A2) (B1) (B2) (A2) (B1) (B2) (A1) (A2) (A1) (B1)
                 (A1) (B2) (A1) (A2) (B1) (B2) (B2) (B2) (A1) (B2)
                 (A1) (B2) (A2) (A1) (B2) (A1) (B2) (B2) (A1) (A1)
                 (B1) (A2) (B2) (B1) (A1) (B2) (A2) (B1) (A1) (A1)
                 (B2) (B2) (A2) (A1) (B1) (A1) (A1) (B1) (A2) (A1)
                 (B2) (B2) (A2) (B1) (A1) (B2) (A1) (A2) (B2) (B1)
                 (B2) (B2) (A1) (A1) (B1) (A1) (A2) (B1) (B1) (A2)
                 (B2) (A1) (B1) (B2) (A2) (A1) (B1) (A2) (B2) (A2)
                 (A1) (B1) (B1) (B2) (A1) (A2) (B1) (A1) (B2) (B1)
                 (A1) (B2) (A2) (A1) (B2) (B2) (A1) (A1) (B2) (A1)
                 (B2) (B1) (A2) (B2) (B1) (A2) (A1) (A1) (B2) (A1)
                 (B1) (A2) (B2) (A1) (B2) (B2) (A1) (B2) (A1) (A1)
                 (B2) (A2) (A1) (B2) (A2) (B1) (B1) (A2) (B2) (A1)
                 (B2) (A1) (B1) (A2) (A1) (B2) (B2) (B2) (B1) (B1)
                 (A1) (A2) (B2) (A1) (A1) (B1) (A2) (A2) (B2) (A1)
                 (B1) (B1) (A2) (B2) (A1) (B1) (B2) (A2) (A1) (A1)
                 (B2) (A2) (B1) (B2) (A2) (A1) (B2) (A1) (A1) (B2)
                 (A1) (B2) (B2) (A1) (B2) (A1) (A1) (B2) (B2) (A1)
 Beta  Orbitals:
       Occupied  (A1) (A1) (B2) (B2) (A1) (B2) (A1) (A1) (B2) (A1)
                 (B2) (A1) (A1) (B2) (B1) (A1) (A2) (B1) (B2)
       Virtual   (A1) (B1) (A2) (B2) (A1) (A1) (B2) (A1) (B1) (B2)
                 (B1) (A2) (A1) (A1) (A2) (B1) (A1) (B2) (B2) (A1)
                 (A1) (B2) (B1) (A2) (A1) (B2) (B1) (A1) (B2) (A2)
                 (B1) (B2) (A1) (A1) (B2) (A1) (B2) (A1) (B2) (A1)
                 (B2) (A1) (B2) (A1) (A1) (A1) (B2) (B1) (A2) (B2)
                 (B1) (B2) (A1) (A2) (B1) (A1) (B2) (A2) (A1) (B1)
                 (B2) (B1) (A1) (A1) (A2) (A1) (B2) (A2) (B1) (B2)
                 (A1) (B2) (A1) (A2) (B1) (B2) (A2) (B1) (B2) (A1)
                 (A2) (B1) (A1) (A1) (B2) (A1) (A2) (B1) (B2) (B2)
                 (B2) (A1) (B2) (A2) (A1) (B2) (B2) (A1) (A1) (B2)
                 (B2) (A1) (A1) (B1) (A2) (B2) (B1) (A1) (A2) (B2)
                 (B1) (A1) (B2) (A1) (B2) (A2) (A1) (B1) (A1) (A1)
                 (B1) (A2) (A1) (B2) (B2) (A2) (B1) (A1) (B2) (A2)
                 (A1) (B2) (B1) (B2) (B2) (A1) (A1) (B1) (A1) (A2)
                 (B1) (B1) (A2) (B2) (A1) (B1) (B2) (A2) (A1) (A2)
                 (B1) (B2) (A2) (A1) (B1) (B1) (B2) (A1) (A2) (B1)
                 (A1) (B2) (B1) (A1) (A2) (B2) (A1) (B2) (B2) (A1)
                 (A1) (B2) (B2) (A1) (B1) (A2) (B2) (B1) (A2) (A1)
                 (A1) (B2) (A1) (B1) (A2) (B2) (A1) (B2) (B2) (A1)
                 (B2) (A1) (A1) (B2) (A2) (A1) (A2) (B2) (B1) (B1)
                 (A2) (B2) (A1) (B2) (A1) (B1) (A2) (A1) (B2) (B2)
                 (B2) (B1) (B2) (A2) (B1) (A1) (A1) (B1) (A2) (A1)
                 (A2) (A1) (B1) (B2) (B1) (B2) (A2) (A1) (B1) (A2)
                 (B2) (A1) (A1) (A2) (B2) (B1) (B2) (A2) (A1) (B2)
                 (A1) (A1) (B2) (A1) (B2) (B2) (A1) (B2) (A1) (A1)
                 (B2) (B2) (A1)
 The electronic state is 4-B2.
 Alpha  occ. eigenvalues --  -10.52996 -10.51559 -10.51516 -10.48986 -10.48984
 Alpha  occ. eigenvalues --  -10.47744 -10.47742  -1.16216  -1.07499  -1.05751
 Alpha  occ. eigenvalues --   -0.92686  -0.91984  -0.79096  -0.78832  -0.68874
 Alpha  occ. eigenvalues --   -0.66901  -0.60345  -0.57824  -0.57178  -0.56874
 Alpha  occ. eigenvalues --   -0.49004  -0.48708
 Alpha virt. eigenvalues --   -0.34446  -0.34437  -0.31456  -0.31171  -0.14763
 Alpha virt. eigenvalues --   -0.11717  -0.11449  -0.10215  -0.10167  -0.09811
 Alpha virt. eigenvalues --   -0.08200  -0.06099  -0.06032  -0.05959  -0.05860
 Alpha virt. eigenvalues --   -0.02948  -0.02898  -0.01854  -0.01297  -0.00244
 Alpha virt. eigenvalues --   -0.00230   0.03152   0.03209   0.03743   0.03786
 Alpha virt. eigenvalues --    0.04236   0.06101   0.06249   0.06316   0.06348
 Alpha virt. eigenvalues --    0.10047   0.10124   0.11233   0.11326   0.14553
 Alpha virt. eigenvalues --    0.15362   0.16359   0.17088   0.18062   0.18342
 Alpha virt. eigenvalues --    0.18839   0.19667   0.20973   0.21090   0.21783
 Alpha virt. eigenvalues --    0.23546   0.25714   0.27554   0.28006   0.28418
 Alpha virt. eigenvalues --    0.29924   0.30163   0.31035   0.32160   0.32713
 Alpha virt. eigenvalues --    0.33309   0.33354   0.33955   0.34599   0.34948
 Alpha virt. eigenvalues --    0.37239   0.39071   0.39859   0.40087   0.43311
 Alpha virt. eigenvalues --    0.43312   0.46721   0.48417   0.49009   0.49852
 Alpha virt. eigenvalues --    0.52384   0.52534   0.53603   0.56791   0.56912
 Alpha virt. eigenvalues --    0.59450   0.62109   0.73593   0.73819   0.73973
 Alpha virt. eigenvalues --    0.74916   0.76165   0.76475   0.77200   0.77494
 Alpha virt. eigenvalues --    0.78615   0.79461   0.88576   0.89603   0.91028
 Alpha virt. eigenvalues --    0.91383   0.91916   0.91969   0.94074   0.94992
 Alpha virt. eigenvalues --    0.96299   1.02404   1.05897   1.06489   1.07886
 Alpha virt. eigenvalues --    1.09908   1.10344   1.11005   1.14192   1.16959
 Alpha virt. eigenvalues --    1.20687   1.22178   1.22230   1.26599   1.28864
 Alpha virt. eigenvalues --    1.29939   1.30764   1.31337   1.32528   1.33523
 Alpha virt. eigenvalues --    1.42725   1.52039   1.53500   1.55864   1.57199
 Alpha virt. eigenvalues --    1.59148   1.69757   1.69834   1.70368   1.77595
 Alpha virt. eigenvalues --    1.80875   1.84255   1.84594   1.87491   1.96431
 Alpha virt. eigenvalues --    2.06510   2.08751   2.15626   2.20461   2.20597
 Alpha virt. eigenvalues --    2.24641   2.31690   2.32498   2.35949   2.37776
 Alpha virt. eigenvalues --    2.39547   2.40804   2.46837   2.47877   2.48297
 Alpha virt. eigenvalues --    2.50261   2.52835   2.53387   2.55021   2.55095
 Alpha virt. eigenvalues --    2.55413   2.56011   2.66060   2.66331   2.67850
 Alpha virt. eigenvalues --    2.74548   2.74822   2.77168   2.77891   2.82457
 Alpha virt. eigenvalues --    2.82486   2.83373   2.83661   2.88796   2.90479
 Alpha virt. eigenvalues --    2.91832   2.93027   3.00656   3.09975   3.12969
 Alpha virt. eigenvalues --    3.13495   3.14513   3.14991   3.22108   3.24479
 Alpha virt. eigenvalues --    3.31956   3.37374   3.41182   3.44243   3.45573
 Alpha virt. eigenvalues --    3.52308   3.54521   3.60556   3.62273   3.63259
 Alpha virt. eigenvalues --    3.71948   3.75890   3.83941   3.84974   3.96512
 Alpha virt. eigenvalues --    3.99113   4.04925   4.06865   4.09790   4.10194
 Alpha virt. eigenvalues --    4.14754   4.22226   4.51722   4.60219   4.60567
 Alpha virt. eigenvalues --    4.76090   4.78662   5.08340   5.10379   5.18568
 Alpha virt. eigenvalues --    5.26404   5.53195   6.26106   6.69086   6.71521
 Alpha virt. eigenvalues --    6.72171   6.73486   6.74008   6.76559   6.80938
 Alpha virt. eigenvalues --    6.81380   6.81717   6.90270   6.90579   6.90704
 Alpha virt. eigenvalues --    6.91503   6.99567   7.00499   7.01155   7.03306
 Alpha virt. eigenvalues --    7.16346   7.18051   7.18208   7.19436   7.30575
 Alpha virt. eigenvalues --    7.32814   7.35033   7.38435   7.47262   7.58911
 Alpha virt. eigenvalues --    7.71533   7.72535   7.84713   7.91403   8.04033
 Alpha virt. eigenvalues --    8.17923   8.24608   8.98365  23.29118  24.39691
 Alpha virt. eigenvalues --   24.88706  25.38025  25.50549  26.16649  26.18473
  Beta  occ. eigenvalues --  -10.51290 -10.50014 -10.49973 -10.48039 -10.48034
  Beta  occ. eigenvalues --  -10.47886 -10.47886  -1.14524  -1.04938  -1.04415
  Beta  occ. eigenvalues --   -0.90258  -0.89982  -0.77234  -0.76841  -0.66111
  Beta  occ. eigenvalues --   -0.63006  -0.57617  -0.54868  -0.54002
  Beta virt. eigenvalues --   -0.44682  -0.32907  -0.32462  -0.32031  -0.31719
  Beta virt. eigenvalues --   -0.28569  -0.28424  -0.14533  -0.10261  -0.10008
  Beta virt. eigenvalues --   -0.09721  -0.09710  -0.08910  -0.07968  -0.05904
  Beta virt. eigenvalues --   -0.05720  -0.05315  -0.05246  -0.02524  -0.02474
  Beta virt. eigenvalues --   -0.01685  -0.01244  -0.00198  -0.00122   0.03562
  Beta virt. eigenvalues --    0.03627   0.04257   0.05419   0.05740   0.06219
  Beta virt. eigenvalues --    0.06460   0.06825   0.06927   0.10626   0.10852
  Beta virt. eigenvalues --    0.11680   0.11866   0.15256   0.16115   0.16525
  Beta virt. eigenvalues --    0.18207   0.18696   0.19092   0.19951   0.20930
  Beta virt. eigenvalues --    0.21817   0.22057   0.23219   0.23706   0.27413
  Beta virt. eigenvalues --    0.28984   0.29384   0.30333   0.30475   0.30611
  Beta virt. eigenvalues --    0.33099   0.33197   0.33608   0.33760   0.33919
  Beta virt. eigenvalues --    0.34960   0.35307   0.36838   0.39048   0.39147
  Beta virt. eigenvalues --    0.42394   0.42614   0.44162   0.44224   0.47512
  Beta virt. eigenvalues --    0.49054   0.49749   0.50729   0.53410   0.53455
  Beta virt. eigenvalues --    0.55649   0.57067   0.57176   0.60561   0.62799
  Beta virt. eigenvalues --    0.74138   0.74316   0.75311   0.76417   0.76545
  Beta virt. eigenvalues --    0.77121   0.77640   0.77934   0.79609   0.80091
  Beta virt. eigenvalues --    0.89158   0.90785   0.92123   0.92456   0.92921
  Beta virt. eigenvalues --    0.92994   0.95371   0.96271   0.96899   1.03931
  Beta virt. eigenvalues --    1.06489   1.07535   1.09702   1.10762   1.11001
  Beta virt. eigenvalues --    1.12582   1.16854   1.20283   1.22720   1.23029
  Beta virt. eigenvalues --    1.25693   1.29532   1.30661   1.32083   1.32717
  Beta virt. eigenvalues --    1.33659   1.34286   1.34544   1.44359   1.54567
  Beta virt. eigenvalues --    1.54941   1.57330   1.59456   1.61750   1.72376
  Beta virt. eigenvalues --    1.73156   1.73661   1.80619   1.83586   1.86487
  Beta virt. eigenvalues --    1.88011   1.90245   1.97126   2.11312   2.12909
  Beta virt. eigenvalues --    2.18420   2.22789   2.23101   2.27315   2.34057
  Beta virt. eigenvalues --    2.36649   2.37334   2.38309   2.41543   2.45865
  Beta virt. eigenvalues --    2.48746   2.48814   2.50119   2.53244   2.53757
  Beta virt. eigenvalues --    2.54199   2.55807   2.56708   2.56991   2.57635
  Beta virt. eigenvalues --    2.66826   2.69117   2.69777   2.76255   2.76300
  Beta virt. eigenvalues --    2.79443   2.80982   2.83941   2.84711   2.85089
  Beta virt. eigenvalues --    2.85432   2.90466   2.90997   2.93884   2.96292
  Beta virt. eigenvalues --    3.03175   3.12281   3.14640   3.15034   3.15484
  Beta virt. eigenvalues --    3.16850   3.23610   3.26646   3.33749   3.38997
  Beta virt. eigenvalues --    3.42485   3.45966   3.48153   3.55018   3.56960
  Beta virt. eigenvalues --    3.62703   3.64166   3.65649   3.73315   3.77638
  Beta virt. eigenvalues --    3.86999   3.87979   3.99217   4.01483   4.06700
  Beta virt. eigenvalues --    4.09648   4.11626   4.12966   4.16037   4.23321
  Beta virt. eigenvalues --    4.53167   4.62836   4.62840   4.78214   4.79838
  Beta virt. eigenvalues --    5.09237   5.11244   5.20249   5.29029   5.55043
  Beta virt. eigenvalues --    6.28972   6.72788   6.74145   6.74189   6.76471
  Beta virt. eigenvalues --    6.77154   6.79557   6.82205   6.84009   6.84402
  Beta virt. eigenvalues --    6.92127   6.92885   6.93272   6.94032   7.02407
  Beta virt. eigenvalues --    7.02891   7.03313   7.04785   7.18355   7.19796
  Beta virt. eigenvalues --    7.20333   7.22738   7.33258   7.36365   7.36732
  Beta virt. eigenvalues --    7.39217   7.49630   7.59967   7.74573   7.76443
  Beta virt. eigenvalues --    7.86046   7.94558   8.06468   8.19858   8.26800
  Beta virt. eigenvalues --    9.01338  23.30154  24.40597  24.90531  25.39457
  Beta virt. eigenvalues --   25.52089  26.17010  26.18952
          Condensed to atoms (all electrons):
               1          2          3          4          5          6
     1  C    9.141184  -1.100131  -1.100131  -0.298569  -0.298569  -0.180964
     2  C   -1.100131   9.435105   0.284442  -0.427605  -1.116809  -1.276531
     3  C   -1.100131   0.284442   9.435105  -1.116809  -0.427605   0.062072
     4  C   -0.298569  -0.427605  -1.116809   9.738926  -0.136051   0.151263
     5  C   -0.298569  -1.116809  -0.427605  -0.136051   9.738926  -2.268135
     6  C   -0.180964  -1.276531   0.062072   0.151263  -2.268135  10.023232
     7  C   -0.180964   0.062072  -1.276531  -2.268135   0.151263  -0.505431
               7
     1  C   -0.180964
     2  C    0.062072
     3  C   -1.276531
     4  C   -2.268135
     5  C    0.151263
     6  C   -0.505431
     7  C   10.023232
          Atomic-Atomic Spin Densities.
               1          2          3          4          5          6
     1  C    4.128324  -1.098252  -1.098252  -0.095683  -0.095683  -0.314238
     2  C   -1.098252   2.935335   0.430951  -0.229276  -0.504350  -1.038684
     3  C   -1.098252   0.430951   2.935335  -0.504350  -0.229276   0.020779
     4  C   -0.095683  -0.229276  -0.504350   2.086591  -0.309723   0.491385
     5  C   -0.095683  -0.504350  -0.229276  -0.309723   2.086591  -1.965029
     6  C   -0.314238  -1.038684   0.020779   0.491385  -1.965029   4.809738
     7  C   -0.314238   0.020779  -1.038684  -1.965029   0.491385  -1.050358
               7
     1  C   -0.314238
     2  C    0.020779
     3  C   -1.038684
     4  C   -1.965029
     5  C    0.491385
     6  C   -1.050358
     7  C    4.809738
 Mulliken charges and spin densities:
               1          2
     1  C    0.018144   1.111978
     2  C    0.139456   0.516502
     3  C    0.139456   0.516502
     4  C    0.356979  -0.526085
     5  C    0.356979  -0.526085
     6  C   -0.005507   0.953593
     7  C   -0.005507   0.953593
 Sum of Mulliken charges =   1.00000   3.00000
 Mulliken charges and spin densities with hydrogens summed into heavy atoms:
               1          2
     1  C    0.018144   1.111978
     2  C    0.139456   0.516502
     3  C    0.139456   0.516502
     4  C    0.356979  -0.526085
     5  C    0.356979  -0.526085
     6  C   -0.005507   0.953593
     7  C   -0.005507   0.953593
 Electronic spatial extent (au):  <R**2>=            420.1795
 Charge=              1.0000 electrons
 Dipole moment (field-independent basis, Debye):
    X=              0.0000    Y=             -0.0000    Z=             -0.0805  Tot=              0.0805
 Quadrupole moment (field-independent basis, Debye-Ang):
   XX=            -35.3233   YY=            -28.3475   ZZ=            -26.8875
   XY=              0.0000   XZ=             -0.0000   YZ=             -0.0000
 Traceless Quadrupole moment (field-independent basis, Debye-Ang):
   XX=             -5.1372   YY=              1.8386   ZZ=              3.2986
   XY=              0.0000   XZ=             -0.0000   YZ=             -0.0000
 Octapole moment (field-independent basis, Debye-Ang**2):
  XXX=              0.0000  YYY=             -0.0000  ZZZ=              0.5414  XYY=              0.0000
  XXY=              0.0000  XXZ=             -0.0693  XZZ=              0.0000  YZZ=              0.0000
  YYZ=             -0.9609  XYZ=             -0.0000
 Hexadecapole moment (field-independent basis, Debye-Ang**3):
 XXXX=            -37.3984 YYYY=           -244.9014 ZZZZ=           -295.8710 XXXY=             -0.0000
 XXXZ=              0.0000 YYYX=             -0.0000 YYYZ=              0.0000 ZZZX=             -0.0000
 ZZZY=             -0.0000 XXYY=            -48.9569 XXZZ=            -57.8746 YYZZ=            -89.5418
 XXYZ=              0.0000 YYXZ=              0.0000 ZZXY=             -0.0000
 N-N= 2.005387617161D+02 E-N=-1.008432665987D+03  KE= 2.649495099825D+02
 Symmetry A1   KE= 1.468752756959D+02
 Symmetry A2   KE= 2.472605802528D+00
 Symmetry B1   KE= 4.441275286045D+00
 Symmetry B2   KE= 1.111603531980D+02
                          Isotropic Fermi Contact Couplings
        Atom                 a.u.       MegaHertz       Gauss      10(-4) cm-1
     1  C(13)              0.61299     229.70651      81.96499      76.62184
     2  C(13)              0.30685     114.98690      41.03018      38.35550
     3  C(13)              0.30685     114.98690      41.03018      38.35550
     4  C(13)              0.07130      26.71953       9.53419       8.91267
     5  C(13)              0.07130      26.71953       9.53419       8.91267
     6  C(13)              0.51141     191.63981      68.38185      63.92416
     7  C(13)              0.51141     191.63981      68.38185      63.92416
 --------------------------------------------------------
       Center         ----  Spin Dipole Couplings  ----
                      3XX-RR        3YY-RR        3ZZ-RR
 --------------------------------------------------------
     1   Atom       -0.530263     -0.536382      1.066645
     2   Atom       -0.346592      0.232389      0.114204
     3   Atom       -0.346592      0.232389      0.114204
     4   Atom       -0.033485     -0.307710      0.341195
     5   Atom       -0.033485     -0.307710      0.341195
     6   Atom       -0.472402     -0.172383      0.644785
     7   Atom       -0.472402     -0.172383      0.644785
 --------------------------------------------------------
                        XY            XZ            YZ
 --------------------------------------------------------
     1   Atom        0.000000      0.000000      0.000000
     2   Atom       -0.000000     -0.000000      0.367291
     3   Atom        0.000000     -0.000000     -0.367291
     4   Atom        0.000000      0.000000     -0.058550
     5   Atom       -0.000000      0.000000      0.058550
     6   Atom       -0.000000      0.000000     -0.537752
     7   Atom        0.000000      0.000000      0.537752
 --------------------------------------------------------


 ---------------------------------------------------------------------------------
              Anisotropic Spin Dipole Couplings in Principal Axis System
 ---------------------------------------------------------------------------------

       Atom             a.u.   MegaHertz   Gauss  10(-4) cm-1        Axes

              Baa    -0.5364   -71.977   -25.683   -24.009  0.0000  1.0000 -0.0000
     1 C(13)  Bbb    -0.5303   -71.156   -25.390   -23.735  1.0000 -0.0000 -0.0000
              Bcc     1.0666   143.134    51.074    47.744  0.0000  0.0000  1.0000
 
              Baa    -0.3466   -46.509   -16.596   -15.514  1.0000  0.0000  0.0000
     2 C(13)  Bbb    -0.1987   -26.666    -9.515    -8.895  0.0000 -0.6485  0.7612
              Bcc     0.5453    73.175    26.111    24.409 -0.0000  0.7612  0.6485
 
              Baa    -0.3466   -46.509   -16.596   -15.514  1.0000 -0.0000  0.0000
     3 C(13)  Bbb    -0.1987   -26.666    -9.515    -8.895  0.0000  0.6485  0.7612
              Bcc     0.5453    73.175    26.111    24.409  0.0000  0.7612 -0.6485
 
              Baa    -0.3130   -41.995   -14.985   -14.008 -0.0000  0.9960  0.0892
     4 C(13)  Bbb    -0.0335    -4.493    -1.603    -1.499  1.0000  0.0000  0.0000
              Bcc     0.3464    46.488    16.588    15.507  0.0000 -0.0892  0.9960
 
              Baa    -0.3130   -41.995   -14.985   -14.008  0.0000  0.9960 -0.0892
     5 C(13)  Bbb    -0.0335    -4.493    -1.603    -1.499  1.0000 -0.0000  0.0000
              Bcc     0.3464    46.488    16.588    15.507  0.0000  0.0892  0.9960
 
              Baa    -0.4724   -63.392   -22.620   -21.145  1.0000  0.0000  0.0000
     6 C(13)  Bbb    -0.4392   -58.932   -21.028   -19.657 -0.0000  0.8958  0.4444
              Bcc     0.9116   122.323    43.648    40.803  0.0000 -0.4444  0.8958
 
              Baa    -0.4724   -63.392   -22.620   -21.145  1.0000 -0.0000  0.0000
     7 C(13)  Bbb    -0.4392   -58.932   -21.028   -19.657  0.0000  0.8958 -0.4444
              Bcc     0.9116   122.323    43.648    40.803  0.0000  0.4444  0.8958
 

 ---------------------------------------------------------------------------------

 No NMR shielding tensors so no spin-rotation constants.
 Leave Link  601 at Mon Nov 14 16:21:25 2016, MaxMem=  1835008000 cpu:        20.1
 (Enter /usr/local/gaussian/gaussian09/g09/l701.exe)
 Compute integral first derivatives.
 ... and contract with generalized density number  0.
 Leave Link  701 at Mon Nov 14 16:21:29 2016, MaxMem=  1835008000 cpu:        13.1
 (Enter /usr/local/gaussian/gaussian09/g09/l702.exe)
 L702 exits ... SP integral derivatives will be done elsewhere.
 Leave Link  702 at Mon Nov 14 16:21:30 2016, MaxMem=  1835008000 cpu:         0.2
 (Enter /usr/local/gaussian/gaussian09/g09/l703.exe)
 Compute integral first derivatives, UseDBF=F ICtDFT=           0.
 Integral derivatives from FoFJK, PRISM(SPDF).
 Calling FoFJK, ICntrl=      2127 FMM=F ISym2X=1 I1Cent= 0 IOpClX= 1 NMat=1 NMatS=1 NMatT=0.
 FoFJK:  IHMeth= 1 ICntrl=    2127 DoSepK=F KAlg= 0 I1Cent=   0 FoldK=F
 IRaf=         0 NMat=   1 IRICut=       1 DoRegI=T DoRafI=F ISym2E= 1.
 FoFCou: FMM=F IPFlag=           0 FMFlag=      100000 FMFlg1=         800
         NFxFlg=           0 DoJE=F BraDBF=F KetDBF=F FulRan=T
         wScrn=  0.000000 ICntrl=    2127 IOpCl=  1 I1Cent=           0 NGrid=           0
         NMat0=    1 NMatS0=      1 NMatT0=    0 NMatD0=    1 NMtDS0=    0 NMtDT0=    0
 Petite list used in FoFCou.
 Leave Link  703 at Mon Nov 14 16:22:47 2016, MaxMem=  1835008000 cpu:       270.0
 (Enter /usr/local/gaussian/gaussian09/g09/l716.exe)
 Dipole        = 6.06258692D-17 0.00000000D+00-3.16891798D-02
 ***** Axes restored to original set *****
 -------------------------------------------------------------------
 Center     Atomic                   Forces (Hartrees/Bohr)
 Number     Number              X              Y              Z
 -------------------------------------------------------------------
      1        6           0.001089023   -0.000000000   -0.000000000
      2        6          -0.007229284   -0.001253197    0.000000000
      3        6          -0.007229284    0.001253197    0.000000000
      4        6           0.004008978   -0.001268969   -0.000000000
      5        6           0.004008978    0.001268969   -0.000000000
      6        6           0.002675795    0.002836869    0.000000000
      7        6           0.002675795   -0.002836869    0.000000000
 -------------------------------------------------------------------
 Cartesian Forces:  Max     0.007229284 RMS     0.002883713
 Leave Link  716 at Mon Nov 14 16:22:48 2016, MaxMem=  1835008000 cpu:         0.4
 (Enter /usr/local/gaussian/gaussian09/g09/l103.exe)

 GradGradGradGradGradGradGradGradGradGradGradGradGradGradGradGradGradGrad
 Berny optimization.
 FormGI is forming the generalized inverse of G from B-inverse, IUseBI=4.
 Internal  Forces:  Max     0.006704857 RMS     0.002402321
 Search for a local minimum.
 Step number   1 out of a maximum of   31
 All quantities printed in internal units (Hartrees-Bohrs-Radians)
 RMS Force = .24023D-02 SwitMx=.10000D-02 MixMth= 1
 Mixed Optimization -- RFO/linear search
 Second derivative matrix not updated -- first step.
 ITU=  0
     Eigenvalues ---    0.02309   0.02489   0.03553   0.03588   0.25000
     Eigenvalues ---    0.25000   0.25000   0.25000   0.41824   0.45196
     Eigenvalues ---    0.45418   0.60788   0.62674   0.76908   0.79968
 RFO step:  Lambda=-1.78382707D-04 EMin= 2.30944458D-02
 Linear search not attempted -- first point.
 Iteration  1 RMS(Cart)=  0.00387573 RMS(Int)=  0.00000389
 Iteration  2 RMS(Cart)=  0.00000342 RMS(Int)=  0.00000123
 Iteration  3 RMS(Cart)=  0.00000000 RMS(Int)=  0.00000123
 ITry= 1 IFail=0 DXMaxC= 8.48D-03 DCOld= 1.00D+10 DXMaxT= 3.00D-01 DXLimC= 3.00D+00 Rises=F
 ClnCor:  largest displacement from symmetrization is 3.11D-12 for atom     3.
 Variable       Old X    -DE/DX   Delta X   Delta X   Delta X     New X
                                 (Linear)    (Quad)   (Total)
    R1        2.64217  -0.00087   0.00000  -0.00203  -0.00203   2.64014
    R2        2.64217  -0.00087   0.00000  -0.00203  -0.00203   2.64014
    R3        2.37910   0.00670   0.00000   0.00837   0.00837   2.38747
    R4        2.37910   0.00670   0.00000   0.00837   0.00837   2.38747
    R5        2.48555   0.00269   0.00000   0.00432   0.00432   2.48986
    R6        2.48555   0.00269   0.00000   0.00432   0.00432   2.48986
    R7        2.68341   0.00354   0.00000   0.00850   0.00851   2.69192
    A1        2.00923   0.00035   0.00000   0.00044   0.00044   2.00967
    A2        2.25641   0.00011   0.00000  -0.00011  -0.00011   2.25630
    A3        2.25641   0.00011   0.00000  -0.00011  -0.00011   2.25630
    A4        2.53131   0.00066   0.00000   0.00281   0.00281   2.53412
    A5        2.53131   0.00066   0.00000   0.00281   0.00281   2.53412
    A6        2.06165  -0.00094   0.00000  -0.00293  -0.00292   2.05872
    A7        2.06165  -0.00094   0.00000  -0.00293  -0.00292   2.05872
    D1       -0.00000   0.00000   0.00000   0.00000   0.00000   0.00000
    D2        0.00000  -0.00000   0.00000  -0.00000   0.00000   0.00000
    D3        0.00000  -0.00000   0.00000  -0.00000   0.00000   0.00000
    D4       -0.00000   0.00000   0.00000   0.00000   0.00000   0.00000
    D5        0.00000  -0.00000   0.00000  -0.00000   0.00000   0.00000
    D6       -0.00000  -0.00000   0.00000  -0.00000   0.00000   0.00000
    D7        0.00000   0.00000   0.00000   0.00000   0.00000   0.00000
         Item               Value     Threshold  Converged?
 Maximum Force            0.006705     0.000450     NO 
 RMS     Force            0.002402     0.000300     NO 
 Maximum Displacement     0.008484     0.001800     NO 
 RMS     Displacement     0.003875     0.001200     NO 
 Predicted change in Energy=-8.921480D-05
 Lowest energy point so far.  Saving SCF results.
 GradGradGradGradGradGradGradGradGradGradGradGradGradGradGradGradGradGrad

 Leave Link  103 at Mon Nov 14 16:22:51 2016, MaxMem=  1835008000 cpu:         6.3
 (Enter /usr/local/gaussian/gaussian09/g09/l202.exe)
                          Input orientation:                          
 ---------------------------------------------------------------------
 Center     Atomic      Atomic             Coordinates (Angstroms)
 Number     Number       Type             X           Y           Z
 ---------------------------------------------------------------------
      1          6           0       -1.692878    0.000000   -0.000000
      2          6           0       -0.943715    1.179258   -0.000000
      3          6           0       -0.943715   -1.179258   -0.000000
      4          6           0        0.310664   -1.329927    0.000000
      5          6           0        0.310664    1.329927    0.000000
      6          6           0        1.474490    0.712250    0.000000
      7          6           0        1.474490   -0.712250    0.000000
 ---------------------------------------------------------------------
                    Distance matrix (angstroms):
                    1          2          3          4          5
     1  C    0.000000
     2  C    1.397102   0.000000
     3  C    1.397102   2.358515   0.000000
     4  C    2.404764   2.805258   1.263395   0.000000
     5  C    2.404764   1.263395   2.805258   2.659855   0.000000
     6  C    3.246463   2.462886   3.070100   2.350528   1.317579
     7  C    3.246463   3.070100   2.462886   1.317579   2.350528
                    6          7
     6  C    0.000000
     7  C    1.424501   0.000000
 Stoichiometry    C7(1+,4)
 Framework group  C2V[C2(C),SGV(C6)]
 Deg. of freedom     6
 Full point group                 C2V     NOp   4
 RotChk:  IX=0 Diff= 4.73D-15
 Largest Abelian subgroup         C2V     NOp   4
 Largest concise Abelian subgroup C2      NOp   2
                         Standard orientation:                         
 ---------------------------------------------------------------------
 Center     Atomic      Atomic             Coordinates (Angstroms)
 Number     Number       Type             X           Y           Z
 ---------------------------------------------------------------------
      1          6           0        0.000000    0.000000    1.691450
      2          6           0        0.000000    1.179258    0.942286
      3          6           0       -0.000000   -1.179258    0.942286
      4          6           0        0.000000   -1.329927   -0.312093
      5          6           0        0.000000    1.329927   -0.312093
      6          6           0        0.000000    0.712250   -1.475918
      7          6           0       -0.000000   -0.712250   -1.475918
 ---------------------------------------------------------------------
 Rotational constants (GHZ):      5.7429608      4.5835463      2.5490833
 Leave Link  202 at Mon Nov 14 16:22:51 2016, MaxMem=  1835008000 cpu:         0.2
 (Enter /usr/local/gaussian/gaussian09/g09/l301.exe)
 Standard basis: 6-311+G(3df) (5D, 7F)
 Ernie: Thresh=  0.10000D-02 Tol=  0.10000D-05 Strict=F.
 There are   114 symmetry adapted cartesian basis functions of A1  symmetry.
 There are    46 symmetry adapted cartesian basis functions of A2  symmetry.
 There are    52 symmetry adapted cartesian basis functions of B1  symmetry.
 There are   103 symmetry adapted cartesian basis functions of B2  symmetry.
 There are    95 symmetry adapted basis functions of A1  symmetry.
 There are    43 symmetry adapted basis functions of A2  symmetry.
 There are    48 symmetry adapted basis functions of B1  symmetry.
 There are    87 symmetry adapted basis functions of B2  symmetry.
   273 basis functions,   406 primitive gaussians,   315 cartesian basis functions
    22 alpha electrons       19 beta electrons
       nuclear repulsion energy       200.2103291924 Hartrees.
 IExCor=  402 DFT=T Ex+Corr=B3LYP ExCW=0 ScaHFX=  0.200000
 ScaDFX=  0.800000  0.720000  1.000000  0.810000 ScalE2=  1.000000  1.000000
 IRadAn=      0 IRanWt=     -1 IRanGd=            0 ICorTp=0 IEmpDi=  4
 NAtoms=    7 NActive=    7 NUniq=    4 SFac= 3.06D+00 NAtFMM=   60 NAOKFM=F Big=F
 Integral buffers will be    131072 words long.
 Raffenetti 2 integral format.
 Two-electron integral symmetry is turned on.
 Leave Link  301 at Mon Nov 14 16:22:52 2016, MaxMem=  1835008000 cpu:         0.8
 (Enter /usr/local/gaussian/gaussian09/g09/l302.exe)
 NPDir=0 NMtPBC=     1 NCelOv=     1 NCel=       1 NClECP=     1 NCelD=      1
         NCelK=      1 NCelE2=     1 NClLst=     1 CellRange=     0.0.
 One-electron integrals computed using PRISM.
 One-electron integral symmetry used in STVInt
 NBasis=   273 RedAO= T EigKep=  2.03D-06  NBF=    95    43    48    87
 NBsUse=   272 1.00D-06 EigRej=  6.53D-07 NBFU=    95    43    48    86
 Precomputing XC quadrature grid using
 IXCGrd= 4 IRadAn=           0 IRanWt=          -1 IRanGd=           0 AccXCQ= 0.00D+00.
 Generated NRdTot=       0 NPtTot=           0 NUsed=           0 NTot=          32
 NSgBfM=   315   315   315   315   315 MxSgAt=     7 MxSgA2=     7.
 Leave Link  302 at Mon Nov 14 16:23:03 2016, MaxMem=  1835008000 cpu:        34.9
 (Enter /usr/local/gaussian/gaussian09/g09/l303.exe)
 DipDrv:  MaxL=1.
 Leave Link  303 at Mon Nov 14 16:23:04 2016, MaxMem=  1835008000 cpu:         1.4
 (Enter /usr/local/gaussian/gaussian09/g09/l401.exe)
 Initial guess from the checkpoint file:  "/scratch/sergio/C7.q1.m4-9.com-2301896/Gau-26952.chk"
 B after Tr=    -0.000000   -0.000000   -0.000000
         Rot=    1.000000    0.000000   -0.000000   -0.000000 Ang=   0.00 deg.
 Guess basis will be translated and rotated to current coordinates.
 JPrj=2 DoOrth=T DoCkMO=T.
 Initial guess orbital symmetries:
 Alpha Orbitals:
       Occupied  (A1) (A1) (B2) (B2) (A1) (B2) (A1) (A1) (A1) (B2)
                 (B2) (A1) (A1) (B2) (A1) (B1) (A1) (A2) (B2) (B1)
                 (A1) (B2)
       Virtual   (A1) (A1) (A1) (A1) (A1) (A1) (A1) (A1) (A1) (A1)
                 (A1) (A1) (A1) (A1) (A1) (A1) (A1) (A1) (A1) (A1)
                 (A1) (A1) (A1) (A1) (A1) (A1) (A1) (A1) (A1) (A1)
                 (A1) (A1) (A1) (A1) (A1) (A1) (A1) (A1) (A1) (A1)
                 (A1) (A1) (A1) (A1) (A1) (A1) (A1) (A1) (A1) (A1)
                 (A1) (A1) (A1) (A1) (A1) (A1) (A1) (A1) (A1) (A1)
                 (A1) (A1) (A1) (A1) (A1) (A1) (A1) (A1) (A1) (A1)
                 (A1) (A1) (A1) (A1) (A1) (A1) (A1) (A1) (A1) (A1)
                 (A1) (A1) (A1) (A1) (A2) (A2) (A2) (A2) (A2) (A2)
                 (A2) (A2) (A2) (A2) (A2) (A2) (A2) (A2) (A2) (A2)
                 (A2) (A2) (A2) (A2) (A2) (A2) (A2) (A2) (A2) (A2)
                 (A2) (A2) (A2) (A2) (A2) (A2) (A2) (A2) (A2) (A2)
                 (A2) (A2) (A2) (A2) (A2) (A2) (B1) (B1) (B1) (B1)
                 (B1) (B1) (B1) (B1) (B1) (B1) (B1) (B1) (B1) (B1)
                 (B1) (B1) (B1) (B1) (B1) (B1) (B1) (B1) (B1) (B1)
                 (B1) (B1) (B1) (B1) (B1) (B1) (B1) (B1) (B1) (B1)
                 (B1) (B1) (B1) (B1) (B1) (B1) (B1) (B1) (B1) (B1)
                 (B1) (B1) (B2) (B2) (B2) (B2) (B2) (B2) (B2) (B2)
                 (B2) (B2) (B2) (B2) (B2) (B2) (B2) (B2) (B2) (B2)
                 (B2) (B2) (B2) (B2) (B2) (B2) (B2) (B2) (B2) (B2)
                 (B2) (B2) (B2) (B2) (B2) (B2) (B2) (B2) (B2) (B2)
                 (B2) (B2) (B2) (B2) (B2) (B2) (B2) (B2) (B2) (B2)
                 (B2) (B2) (B2) (B2) (B2) (B2) (B2) (B2) (B2) (B2)
                 (B2) (B2) (B2) (B2) (B2) (B2) (B2) (B2) (B2) (B2)
                 (B2) (B2) (B2) (B2) (B2) (B2) (B2) (B2) (B2) (B2)
 Beta  Orbitals:
       Occupied  (A1) (A1) (B2) (B2) (A1) (B2) (A1) (A1) (B2) (A1)
                 (B2) (A1) (A1) (B2) (B1) (A1) (A2) (B1) (B2)
       Virtual   (A1) (A1) (A1) (A1) (A1) (A1) (A1) (A1) (A1) (A1)
                 (A1) (A1) (A1) (A1) (A1) (A1) (A1) (A1) (A1) (A1)
                 (A1) (A1) (A1) (A1) (A1) (A1) (A1) (A1) (A1) (A1)
                 (A1) (A1) (A1) (A1) (A1) (A1) (A1) (A1) (A1) (A1)
                 (A1) (A1) (A1) (A1) (A1) (A1) (A1) (A1) (A1) (A1)
                 (A1) (A1) (A1) (A1) (A1) (A1) (A1) (A1) (A1) (A1)
                 (A1) (A1) (A1) (A1) (A1) (A1) (A1) (A1) (A1) (A1)
                 (A1) (A1) (A1) (A1) (A1) (A1) (A1) (A1) (A1) (A1)
                 (A1) (A1) (A1) (A1) (A1) (A1) (A2) (A2) (A2) (A2)
                 (A2) (A2) (A2) (A2) (A2) (A2) (A2) (A2) (A2) (A2)
                 (A2) (A2) (A2) (A2) (A2) (A2) (A2) (A2) (A2) (A2)
                 (A2) (A2) (A2) (A2) (A2) (A2) (A2) (A2) (A2) (A2)
                 (A2) (A2) (A2) (A2) (A2) (A2) (A2) (A2) (B1) (B1)
                 (B1) (B1) (B1) (B1) (B1) (B1) (B1) (B1) (B1) (B1)
                 (B1) (B1) (B1) (B1) (B1) (B1) (B1) (B1) (B1) (B1)
                 (B1) (B1) (B1) (B1) (B1) (B1) (B1) (B1) (B1) (B1)
                 (B1) (B1) (B1) (B1) (B1) (B1) (B1) (B1) (B1) (B1)
                 (B1) (B1) (B1) (B1) (B2) (B2) (B2) (B2) (B2) (B2)
                 (B2) (B2) (B2) (B2) (B2) (B2) (B2) (B2) (B2) (B2)
                 (B2) (B2) (B2) (B2) (B2) (B2) (B2) (B2) (B2) (B2)
                 (B2) (B2) (B2) (B2) (B2) (B2) (B2) (B2) (B2) (B2)
                 (B2) (B2) (B2) (B2) (B2) (B2) (B2) (B2) (B2) (B2)
                 (B2) (B2) (B2) (B2) (B2) (B2) (B2) (B2) (B2) (B2)
                 (B2) (B2) (B2) (B2) (B2) (B2) (B2) (B2) (B2) (B2)
                 (B2) (B2) (B2) (B2) (B2) (B2) (B2) (B2) (B2) (B2)
                 (B2) (B2) (B2)
 The electronic state of the initial guess is 4-B2.
 Initial guess <Sx>= 0.0000 <Sy>= 0.0000 <Sz>= 1.5000 <S**2>= 3.8640 S= 1.5283
 Leave Link  401 at Mon Nov 14 16:23:06 2016, MaxMem=  1835008000 cpu:         6.2
 (Enter /usr/local/gaussian/gaussian09/g09/l502.exe)
 UHF open shell SCF:
 Using DIIS extrapolation, IDIIS=  1040.
 Integral symmetry usage will be decided dynamically.
 Keep R1 and R2 ints in memory in symmetry-blocked form, NReq=877006048.
 IVT=      320829 IEndB=      320829 NGot=  1835008000 MDV=  1480270095
 LenX=  1480270095 LenY=  1480170429
 Requested convergence on RMS density matrix=1.00D-08 within 128 cycles.
 Requested convergence on MAX density matrix=1.00D-06.
 Requested convergence on             energy=1.00D-06.
 No special actions if energy rises.
 FoFCou: FMM=F IPFlag=           0 FMFlag=           0 FMFlg1=           0
         NFxFlg=           0 DoJE=F BraDBF=F KetDBF=F FulRan=T
         wScrn=  0.000000 ICntrl=     600 IOpCl=  0 I1Cent=           0 NGrid=           0
         NMat0=    1 NMatS0=  37401 NMatT0=    0 NMatD0=    1 NMtDS0=    0 NMtDT0=    0
 Petite list used in FoFCou.

 Cycle   1  Pass 1  IDiag  1:
 E= -266.027197221859    
 DIIS: error= 5.92D-04 at cycle   1 NSaved=   1.
 NSaved= 1 IEnMin= 1 EnMin= -266.027197221859     IErMin= 1 ErrMin= 5.92D-04
 ErrMax= 5.92D-04  0.00D+00 EMaxC= 1.00D-01 BMatC= 4.04D-04 BMatP= 4.04D-04
 IDIUse=3 WtCom= 9.94D-01 WtEn= 5.92D-03
 Coeff-Com:  0.100D+01
 Coeff-En:   0.100D+01
 Coeff:      0.100D+01
 Gap=     0.458 Goal=   None    Shift=    0.000
 Gap=     0.504 Goal=   None    Shift=    0.000
 RMSDP=6.15D-04 MaxDP=3.79D-02              OVMax= 4.84D-03

 Cycle   2  Pass 1  IDiag  1:
 E= -266.027245870261     Delta-E=       -0.000048648402 Rises=F Damp=F
 DIIS: error= 3.07D-04 at cycle   2 NSaved=   2.
 NSaved= 2 IEnMin= 2 EnMin= -266.027245870261     IErMin= 2 ErrMin= 3.07D-04
 ErrMax= 3.07D-04  0.00D+00 EMaxC= 1.00D-01 BMatC= 6.15D-05 BMatP= 4.04D-04
 IDIUse=3 WtCom= 9.97D-01 WtEn= 3.07D-03
 Coeff-Com:  0.176D+00 0.824D+00
 Coeff-En:   0.000D+00 0.100D+01
 Coeff:      0.175D+00 0.825D+00
 Gap=     0.143 Goal=   None    Shift=    0.000
 Gap=     0.093 Goal=   None    Shift=    0.000
 RMSDP=9.28D-05 MaxDP=5.17D-03 DE=-4.86D-05 OVMax= 3.26D-03

 Cycle   3  Pass 1  IDiag  1:
 E= -266.027231650923     Delta-E=        0.000014219338 Rises=F Damp=F
 DIIS: error= 4.02D-04 at cycle   3 NSaved=   3.
 NSaved= 3 IEnMin= 2 EnMin= -266.027245870261     IErMin= 2 ErrMin= 3.07D-04
 ErrMax= 4.02D-04  0.00D+00 EMaxC= 1.00D-01 BMatC= 1.13D-04 BMatP= 6.15D-05
 IDIUse=3 WtCom= 3.33D-01 WtEn= 6.67D-01
 Coeff-Com:  0.100D-01 0.575D+00 0.415D+00
 Coeff-En:   0.000D+00 0.627D+00 0.373D+00
 Coeff:      0.334D-02 0.609D+00 0.387D+00
 Gap=     0.143 Goal=   None    Shift=    0.000
 Gap=     0.092 Goal=   None    Shift=    0.000
 RMSDP=7.12D-05 MaxDP=3.66D-03 DE= 1.42D-05 OVMax= 2.10D-03

 Cycle   4  Pass 1  IDiag  1:
 E= -266.027259709333     Delta-E=       -0.000028058410 Rises=F Damp=F
 DIIS: error= 1.93D-04 at cycle   4 NSaved=   4.
 NSaved= 4 IEnMin= 4 EnMin= -266.027259709333     IErMin= 4 ErrMin= 1.93D-04
 ErrMax= 1.93D-04  0.00D+00 EMaxC= 1.00D-01 BMatC= 6.71D-06 BMatP= 6.15D-05
 IDIUse=3 WtCom= 9.98D-01 WtEn= 1.93D-03
 Coeff-Com: -0.910D-03 0.365D+00 0.253D+00 0.383D+00
 Coeff-En:   0.000D+00 0.000D+00 0.000D+00 0.100D+01
 Coeff:     -0.909D-03 0.364D+00 0.253D+00 0.384D+00
 Gap=     0.143 Goal=   None    Shift=    0.000
 Gap=     0.092 Goal=   None    Shift=    0.000
 RMSDP=2.00D-05 MaxDP=1.00D-03 DE=-2.81D-05 OVMax= 8.74D-04

 Cycle   5  Pass 1  IDiag  1:
 E= -266.027261120589     Delta-E=       -0.000001411256 Rises=F Damp=F
 DIIS: error= 8.76D-05 at cycle   5 NSaved=   5.
 NSaved= 5 IEnMin= 5 EnMin= -266.027261120589     IErMin= 5 ErrMin= 8.76D-05
 ErrMax= 8.76D-05  0.00D+00 EMaxC= 1.00D-01 BMatC= 1.94D-06 BMatP= 6.71D-06
 IDIUse=1 WtCom= 1.00D+00 WtEn= 0.00D+00
 Coeff-Com: -0.322D-02 0.100D+00 0.641D-01 0.332D+00 0.507D+00
 Coeff:     -0.322D-02 0.100D+00 0.641D-01 0.332D+00 0.507D+00
 Gap=     0.143 Goal=   None    Shift=    0.000
 Gap=     0.092 Goal=   None    Shift=    0.000
 RMSDP=1.22D-05 MaxDP=5.24D-04 DE=-1.41D-06 OVMax= 3.19D-04

 Cycle   6  Pass 1  IDiag  1:
 E= -266.027261701736     Delta-E=       -0.000000581147 Rises=F Damp=F
 DIIS: error= 1.04D-05 at cycle   6 NSaved=   6.
 NSaved= 6 IEnMin= 6 EnMin= -266.027261701736     IErMin= 6 ErrMin= 1.04D-05
 ErrMax= 1.04D-05  0.00D+00 EMaxC= 1.00D-01 BMatC= 6.63D-08 BMatP= 1.94D-06
 IDIUse=1 WtCom= 1.00D+00 WtEn= 0.00D+00
 Coeff-Com: -0.149D-02 0.600D-02 0.197D-02 0.125D+00 0.239D+00 0.630D+00
 Coeff:     -0.149D-02 0.600D-02 0.197D-02 0.125D+00 0.239D+00 0.630D+00
 Gap=     0.143 Goal=   None    Shift=    0.000
 Gap=     0.092 Goal=   None    Shift=    0.000
 RMSDP=3.04D-06 MaxDP=1.39D-04 DE=-5.81D-07 OVMax= 1.01D-04

 Cycle   7  Pass 1  IDiag  1:
 E= -266.027261722836     Delta-E=       -0.000000021101 Rises=F Damp=F
 DIIS: error= 8.64D-06 at cycle   7 NSaved=   7.
 NSaved= 7 IEnMin= 7 EnMin= -266.027261722836     IErMin= 7 ErrMin= 8.64D-06
 ErrMax= 8.64D-06  0.00D+00 EMaxC= 1.00D-01 BMatC= 1.47D-08 BMatP= 6.63D-08
 IDIUse=1 WtCom= 1.00D+00 WtEn= 0.00D+00
 Coeff-Com:  0.101D-03-0.231D-01-0.151D-01-0.235D-01-0.580D-02 0.317D+00
 Coeff-Com:  0.750D+00
 Coeff:      0.101D-03-0.231D-01-0.151D-01-0.235D-01-0.580D-02 0.317D+00
 Coeff:      0.750D+00
 Gap=     0.143 Goal=   None    Shift=    0.000
 Gap=     0.092 Goal=   None    Shift=    0.000
 RMSDP=1.83D-06 MaxDP=1.05D-04 DE=-2.11D-08 OVMax= 6.68D-05

 Cycle   8  Pass 1  IDiag  1:
 E= -266.027261731474     Delta-E=       -0.000000008637 Rises=F Damp=F
 DIIS: error= 3.04D-06 at cycle   8 NSaved=   8.
 NSaved= 8 IEnMin= 8 EnMin= -266.027261731474     IErMin= 8 ErrMin= 3.04D-06
 ErrMax= 3.04D-06  0.00D+00 EMaxC= 1.00D-01 BMatC= 2.68D-09 BMatP= 1.47D-08
 IDIUse=1 WtCom= 1.00D+00 WtEn= 0.00D+00
 Coeff-Com:  0.258D-03-0.995D-02-0.627D-02-0.319D-01-0.473D-01 0.986D-02
 Coeff-Com:  0.286D+00 0.800D+00
 Coeff:      0.258D-03-0.995D-02-0.627D-02-0.319D-01-0.473D-01 0.986D-02
 Coeff:      0.286D+00 0.800D+00
 Gap=     0.143 Goal=   None    Shift=    0.000
 Gap=     0.092 Goal=   None    Shift=    0.000
 RMSDP=1.16D-06 MaxDP=7.37D-05 DE=-8.64D-09 OVMax= 3.81D-05

 Cycle   9  Pass 1  IDiag  1:
 E= -266.027261734248     Delta-E=       -0.000000002774 Rises=F Damp=F
 DIIS: error= 1.30D-06 at cycle   9 NSaved=   9.
 NSaved= 9 IEnMin= 9 EnMin= -266.027261734248     IErMin= 9 ErrMin= 1.30D-06
 ErrMax= 1.30D-06  0.00D+00 EMaxC= 1.00D-01 BMatC= 6.13D-10 BMatP= 2.68D-09
 IDIUse=1 WtCom= 1.00D+00 WtEn= 0.00D+00
 Coeff-Com: -0.247D-05 0.577D-02 0.369D-02 0.139D-02-0.812D-02-0.889D-01
 Coeff-Com: -0.225D+00 0.270D-01 0.128D+01
 Coeff:     -0.247D-05 0.577D-02 0.369D-02 0.139D-02-0.812D-02-0.889D-01
 Coeff:     -0.225D+00 0.270D-01 0.128D+01
 Gap=     0.143 Goal=   None    Shift=    0.000
 Gap=     0.092 Goal=   None    Shift=    0.000
 RMSDP=1.46D-06 MaxDP=7.51D-05 DE=-2.77D-09 OVMax= 3.83D-05

 Cycle  10  Pass 1  IDiag  1:
 E= -266.027261735779     Delta-E=       -0.000000001531 Rises=F Damp=F
 DIIS: error= 4.83D-07 at cycle  10 NSaved=  10.
 NSaved=10 IEnMin=10 EnMin= -266.027261735779     IErMin=10 ErrMin= 4.83D-07
 ErrMax= 4.83D-07  0.00D+00 EMaxC= 1.00D-01 BMatC= 1.02D-10 BMatP= 6.13D-10
 IDIUse=1 WtCom= 1.00D+00 WtEn= 0.00D+00
 Coeff-Com: -0.713D-04 0.625D-03 0.495D-03 0.688D-02 0.141D-01 0.309D-01
 Coeff-Com: -0.193D-01-0.216D+00-0.359D+00 0.154D+01
 Coeff:     -0.713D-04 0.625D-03 0.495D-03 0.688D-02 0.141D-01 0.309D-01
 Coeff:     -0.193D-01-0.216D+00-0.359D+00 0.154D+01
 Gap=     0.143 Goal=   None    Shift=    0.000
 Gap=     0.092 Goal=   None    Shift=    0.000
 RMSDP=1.02D-06 MaxDP=5.79D-05 DE=-1.53D-09 OVMax= 2.70D-05

 Cycle  11  Pass 1  IDiag  1:
 E= -266.027261736140     Delta-E=       -0.000000000360 Rises=F Damp=F
 DIIS: error= 1.47D-07 at cycle  11 NSaved=  11.
 NSaved=11 IEnMin=11 EnMin= -266.027261736140     IErMin=11 ErrMin= 1.47D-07
 ErrMax= 1.47D-07  0.00D+00 EMaxC= 1.00D-01 BMatC= 7.70D-12 BMatP= 1.02D-10
 IDIUse=1 WtCom= 1.00D+00 WtEn= 0.00D+00
 Coeff-Com:  0.102D-04-0.922D-03-0.534D-03-0.687D-03-0.150D-03 0.827D-02
 Coeff-Com:  0.243D-01 0.151D-01-0.118D+00-0.100D+00 0.117D+01
 Coeff:      0.102D-04-0.922D-03-0.534D-03-0.687D-03-0.150D-03 0.827D-02
 Coeff:      0.243D-01 0.151D-01-0.118D+00-0.100D+00 0.117D+01
 Gap=     0.143 Goal=   None    Shift=    0.000
 Gap=     0.092 Goal=   None    Shift=    0.000
 RMSDP=1.77D-07 MaxDP=1.09D-05 DE=-3.60D-10 OVMax= 6.36D-06

 Cycle  12  Pass 1  IDiag  1:
 E= -266.027261736152     Delta-E=       -0.000000000013 Rises=F Damp=F
 DIIS: error= 8.48D-08 at cycle  12 NSaved=  12.
 NSaved=12 IEnMin=12 EnMin= -266.027261736152     IErMin=12 ErrMin= 8.48D-08
 ErrMax= 8.48D-08  0.00D+00 EMaxC= 1.00D-01 BMatC= 1.21D-12 BMatP= 7.70D-12
 IDIUse=1 WtCom= 1.00D+00 WtEn= 0.00D+00
 Coeff-Com:  0.804D-05-0.671D-04-0.182D-04-0.872D-03-0.132D-02-0.461D-02
 Coeff-Com:  0.151D-02 0.248D-01 0.442D-01-0.170D+00-0.315D-01 0.114D+01
 Coeff:      0.804D-05-0.671D-04-0.182D-04-0.872D-03-0.132D-02-0.461D-02
 Coeff:      0.151D-02 0.248D-01 0.442D-01-0.170D+00-0.315D-01 0.114D+01
 Gap=     0.143 Goal=   None    Shift=    0.000
 Gap=     0.092 Goal=   None    Shift=    0.000
 RMSDP=4.44D-08 MaxDP=3.50D-06 DE=-1.27D-11 OVMax= 1.55D-06

 Cycle  13  Pass 1  IDiag  1:
 E= -266.027261736149     Delta-E=        0.000000000003 Rises=F Damp=F
 DIIS: error= 1.57D-08 at cycle  13 NSaved=  13.
 NSaved=13 IEnMin=12 EnMin= -266.027261736152     IErMin=13 ErrMin= 1.57D-08
 ErrMax= 1.57D-08  0.00D+00 EMaxC= 1.00D-01 BMatC= 7.30D-14 BMatP= 1.21D-12
 IDIUse=1 WtCom= 1.00D+00 WtEn= 0.00D+00
 Coeff-Com: -0.169D-05 0.107D-03 0.633D-04 0.139D-03 0.140D-03-0.605D-03
 Coeff-Com: -0.248D-02-0.334D-02 0.793D-02 0.222D-01-0.135D+00-0.770D-02
 Coeff-Com:  0.112D+01
 Coeff:     -0.169D-05 0.107D-03 0.633D-04 0.139D-03 0.140D-03-0.605D-03
 Coeff:     -0.248D-02-0.334D-02 0.793D-02 0.222D-01-0.135D+00-0.770D-02
 Coeff:      0.112D+01
 Gap=     0.143 Goal=   None    Shift=    0.000
 Gap=     0.092 Goal=   None    Shift=    0.000
 RMSDP=1.47D-08 MaxDP=1.01D-06 DE= 3.47D-12 OVMax= 5.20D-07

 Cycle  14  Pass 1  IDiag  1:
 E= -266.027261736159     Delta-E=       -0.000000000010 Rises=F Damp=F
 DIIS: error= 8.71D-09 at cycle  14 NSaved=  14.
 NSaved=14 IEnMin=14 EnMin= -266.027261736159     IErMin=14 ErrMin= 8.71D-09
 ErrMax= 8.71D-09  0.00D+00 EMaxC= 1.00D-01 BMatC= 7.82D-15 BMatP= 7.30D-14
 IDIUse=1 WtCom= 1.00D+00 WtEn= 0.00D+00
 Coeff-Com: -0.329D-06-0.483D-05-0.175D-05 0.325D-04 0.684D-04 0.410D-03
 Coeff-Com: -0.986D-04-0.139D-02-0.367D-02 0.113D-01 0.825D-02-0.732D-01
 Coeff-Com: -0.700D-01 0.113D+01
 Coeff:     -0.329D-06-0.483D-05-0.175D-05 0.325D-04 0.684D-04 0.410D-03
 Coeff:     -0.986D-04-0.139D-02-0.367D-02 0.113D-01 0.825D-02-0.732D-01
 Coeff:     -0.700D-01 0.113D+01
 Gap=     0.143 Goal=   None    Shift=    0.000
 Gap=     0.092 Goal=   None    Shift=    0.000
 RMSDP=3.99D-09 MaxDP=2.16D-07 DE=-9.78D-12 OVMax= 1.01D-07

 SCF Done:  E(UB3LYP) =  -266.027261736     A.U. after   14 cycles
            NFock= 14  Conv=0.40D-08     -V/T= 2.0043
 <Sx>= 0.0000 <Sy>= 0.0000 <Sz>= 1.5000 <S**2>= 3.8659 S= 1.5288
 <L.S>= 0.000000000000E+00
 KE= 2.649010806761D+02 PE=-1.007740733101D+03 EE= 2.766020614966D+02
 Annihilation of the first spin contaminant:
 S**2 before annihilation     3.8659,   after     3.7542
 Leave Link  502 at Mon Nov 14 16:25:01 2016, MaxMem=  1835008000 cpu:       330.8
[...]
 Vib (V=0)    1  0.236827D+01          0.374430          0.862158
 Vib (V=0)    2  0.129504D+01          0.112283          0.258541
 Vib (V=0)    3  0.122755D+01          0.089040          0.205023
 Vib (V=0)    4  0.112653D+01          0.051742          0.119139
 Vib (V=0)    5  0.109437D+01          0.039165          0.090180
 Vib (V=0)    6  0.109383D+01          0.038950          0.089686
 Vib (V=0)    7  0.108465D+01          0.035291          0.081261
 Vib (V=0)    8  0.105875D+01          0.024792          0.057085
 Electronic      0.400000D+01          0.602060          1.386294
 Translational   0.302604D+08          7.480874         17.225349
 Rotational      0.529921D+05          4.724211         10.877898
 
                                                              b3lyp opt
                                                             IR Spectrum
 
     1          1                1                 1 1                                                                               
     8          6                4                 1 1         9                7         5    555   4      3  3             1       
     1          6                1                 5 3         9                4         9    200   5      4  0             1       
     0          4                5                 7 0         3                9         9    998   3      9  7             4       
 
                X                X                 X X         X                X         X    X X   X         X                     
                X                X                 X X                                         X     X                               
                X                                  X X                                               X                               
                X                                  X X                                               X                               
                X                                  X                                                 X                               
                X                                  X                                                 X                               
                X                                  X                                                 X                               
                                                   X                                                                                 
                                                   X                                                                                 
                                                   X                                                                                 
                                                   X                                                                                 
                                                   X                                                                                 
                                                   X                                                                                 
                                                   X                                                                                 
                                                   X                                                                                 
                                                   X                                                                                 
                                                   X                                                                                 
                                                   X                                                                                 
                                                   X                                                                                 
                                                   X                                                                                 
 
 ***** Axes restored to original set *****
 -------------------------------------------------------------------
 Center     Atomic                   Forces (Hartrees/Bohr)
 Number     Number              X              Y              Z
 -------------------------------------------------------------------
      1        6           0.000195267   -0.000000000   -0.000000000
      2        6          -0.000252183    0.000256476    0.000000000
      3        6          -0.000252183   -0.000256476    0.000000000
      4        6           0.000459951    0.000420394   -0.000000000
      5        6           0.000459951   -0.000420394   -0.000000000
      6        6          -0.000305402    0.000265963   -0.000000000
      7        6          -0.000305402   -0.000265963    0.000000000
 -------------------------------------------------------------------
 Cartesian Forces:  Max     0.000459951 RMS     0.000258334
 Force constants in Cartesian coordinates: 
                1             2             3             4             5 
      1  0.354966D+00
      2  0.000000D+00  0.319019D+00
      3  0.000000D+00  0.000000D+00  0.392229D-01
      4 -0.141714D+00 -0.167147D+00  0.000000D+00  0.733065D+00
      5 -0.159737D+00 -0.158653D+00  0.000000D+00  0.268291D+00  0.261001D+00
      6  0.000000D+00  0.000000D+00 -0.301874D-01  0.000000D+00  0.000000D+00
      7 -0.141714D+00  0.167147D+00  0.000000D+00  0.607885D-01  0.267402D-01
      8  0.159737D+00 -0.158653D+00  0.000000D+00 -0.267402D-01 -0.711014D-01
      9  0.000000D+00  0.000000D+00 -0.301874D-01  0.000000D+00  0.000000D+00
     10 -0.389600D-01 -0.111235D+00  0.000000D+00 -0.571370D-01  0.166928D-01
     11  0.399982D-02 -0.267382D-01  0.000000D+00 -0.149500D-01 -0.151477D-01
     12  0.000000D+00  0.000000D+00  0.941998D-02  0.000000D+00  0.000000D+00
     13 -0.389600D-01  0.111235D+00  0.000000D+00 -0.479525D+00 -0.181293D+00
     14 -0.399982D-02 -0.267382D-01  0.000000D+00 -0.135015D+00 -0.803339D-02
     15  0.000000D+00  0.000000D+00  0.941998D-02  0.000000D+00  0.000000D+00
     16  0.319151D-02 -0.575069D-01  0.000000D+00 -0.136220D+00  0.486776D-01
     17  0.180362D-04  0.258814D-01  0.000000D+00  0.716476D-01  0.148337D-01
     18  0.000000D+00  0.000000D+00  0.115598D-02  0.000000D+00  0.000000D+00
     19  0.319152D-02  0.575069D-01  0.000000D+00  0.207431D-01 -0.193710D-01
     20 -0.180370D-04  0.258814D-01  0.000000D+00  0.391443D-02 -0.228995D-01
     21  0.000000D+00  0.000000D+00  0.115598D-02  0.000000D+00  0.000000D+00
                6             7             8             9            10 
      6  0.495782D-01
      7  0.000000D+00  0.733065D+00
      8  0.000000D+00 -0.268291D+00  0.261001D+00
      9  0.751846D-02  0.000000D+00  0.000000D+00  0.495782D-01
     10  0.000000D+00 -0.479525D+00  0.181293D+00  0.000000D+00  0.670163D+00
     11  0.000000D+00  0.135015D+00 -0.803339D-02  0.000000D+00  0.517650D-02
     12  0.761958D-03  0.000000D+00  0.000000D+00 -0.374222D-01  0.000000D+00
     13  0.000000D+00 -0.571370D-01 -0.166928D-01  0.000000D+00  0.176623D+00
     14  0.000000D+00  0.149500D-01 -0.151477D-01  0.000000D+00 -0.269471D-01
     15 -0.374222D-01  0.000000D+00  0.000000D+00  0.761958D-03  0.000000D+00
     16  0.000000D+00  0.207431D-01  0.193710D-01  0.000000D+00 -0.958597D-01
     17  0.000000D+00 -0.391443D-02 -0.228995D-01  0.000000D+00 -0.582199D-02
     18  0.569048D-02  0.000000D+00  0.000000D+00  0.406052D-02  0.000000D+00
     19  0.000000D+00 -0.136220D+00 -0.486776D-01  0.000000D+00 -0.175304D+00
     20  0.000000D+00 -0.716476D-01  0.148337D-01  0.000000D+00 -0.591585D-01
     21  0.406052D-02  0.000000D+00  0.000000D+00  0.569048D-02  0.000000D+00
               11            12            13            14            15 
     11  0.209093D+00
     12  0.000000D+00  0.536043D-01
     13  0.269471D-01  0.000000D+00  0.670163D+00
     14 -0.195545D-01  0.000000D+00 -0.517650D-02  0.209093D+00
     15  0.000000D+00 -0.278076D-02  0.000000D+00  0.000000D+00  0.536043D-01
     16 -0.302405D-01  0.000000D+00 -0.175304D+00  0.125948D+00  0.000000D+00
     17 -0.189059D-01  0.000000D+00  0.591585D-01 -0.120713D+00  0.000000D+00
     18  0.000000D+00  0.902318D-02  0.000000D+00  0.000000D+00 -0.326064D-01
     19 -0.125948D+00  0.000000D+00 -0.958597D-01  0.302405D-01  0.000000D+00
     20 -0.120713D+00  0.000000D+00  0.582199D-02 -0.189059D-01  0.000000D+00
     21  0.000000D+00 -0.326064D-01  0.000000D+00  0.000000D+00  0.902318D-02
               16            17            18            19            20 
     16  0.329851D+00
     17 -0.113669D+00  0.427434D+00
     18  0.000000D+00  0.000000D+00  0.436483D-01
     19  0.535983D-01 -0.741903D-02  0.000000D+00  0.329851D+00
     20  0.741903D-02 -0.305631D+00  0.000000D+00  0.113669D+00  0.427434D+00
     21  0.000000D+00  0.000000D+00 -0.309721D-01  0.000000D+00  0.000000D+00
               21 
     21  0.436483D-01
 FormGI is forming the generalized inverse of G from B-inverse, IUseBI=4.
 Force constants in internal coordinates: 
                1             2             3             4             5 
      1  0.321065D+00
      2  0.953479D-01  0.321065D+00
      3 -0.554544D-01  0.364068D-01  0.587209D+00
      4  0.364068D-01 -0.554544D-01  0.112517D+00  0.587209D+00
      5  0.391098D-02  0.398433D-01 -0.100033D-03  0.115999D+00  0.386636D+00
      6  0.398433D-01  0.391098D-02  0.115999D+00 -0.100033D-03  0.752869D-01
      7  0.408207D-01  0.408207D-01 -0.150670D-01 -0.150670D-01  0.272890D-01
      8 -0.274845D-01 -0.274845D-01 -0.494015D-01 -0.494015D-01  0.391889D-01
      9 -0.667535D-03 -0.109776D-01 -0.507825D-02  0.521458D-01  0.475896D-01
     10 -0.109776D-01 -0.667536D-03  0.521458D-01 -0.507825D-02 -0.571933D-01
     11 -0.410956D-02 -0.279363D-01  0.718270D-01 -0.479086D-01 -0.371618D-01
     12 -0.279363D-01 -0.410955D-02 -0.479086D-01  0.718270D-01  0.382826D-01
     13  0.265071D-01  0.446684D-01 -0.464693D-01  0.248847D-01 -0.204517D-01
     14  0.446684D-01  0.265071D-01  0.248847D-01 -0.464693D-01 -0.102544D-01
     15  0.000000D+00  0.000000D+00  0.000000D+00  0.000000D+00  0.000000D+00
     16  0.000000D+00  0.000000D+00  0.000000D+00  0.000000D+00  0.000000D+00
     17  0.000000D+00  0.000000D+00  0.000000D+00  0.000000D+00  0.000000D+00
     18  0.000000D+00  0.000000D+00  0.000000D+00  0.000000D+00  0.000000D+00
     19  0.000000D+00  0.000000D+00  0.000000D+00  0.000000D+00  0.000000D+00
     20  0.000000D+00  0.000000D+00  0.000000D+00  0.000000D+00  0.000000D+00
     21  0.000000D+00  0.000000D+00  0.000000D+00  0.000000D+00  0.000000D+00
                6             7             8             9            10 
      6  0.386636D+00
      7  0.272890D-01  0.340857D+00
      8  0.391889D-01  0.735361D-01  0.121120D+00
      9 -0.571933D-01 -0.115157D-02 -0.351015D-01  0.445429D-01
     10  0.475896D-01 -0.115157D-02 -0.351015D-01 -0.373501D-02  0.445429D-01
     11  0.382826D-01 -0.291941D-01 -0.535310D-01  0.372607D-03  0.968523D-02
     12 -0.371618D-01 -0.291941D-01 -0.535310D-01  0.968523D-02  0.372608D-03
     13 -0.102544D-01 -0.642240D-02  0.280725D-01 -0.312955D-02 -0.126347D-01
     14 -0.204517D-01 -0.642240D-02  0.280725D-01 -0.126347D-01 -0.312955D-02
     15  0.000000D+00  0.000000D+00  0.000000D+00  0.000000D+00  0.000000D+00
     16  0.000000D+00  0.000000D+00  0.000000D+00  0.000000D+00  0.000000D+00
     17  0.000000D+00  0.000000D+00  0.000000D+00  0.000000D+00  0.000000D+00
     18  0.000000D+00  0.000000D+00  0.000000D+00  0.000000D+00  0.000000D+00
     19  0.000000D+00  0.000000D+00  0.000000D+00  0.000000D+00  0.000000D+00
     20  0.000000D+00  0.000000D+00  0.000000D+00  0.000000D+00  0.000000D+00
     21  0.000000D+00  0.000000D+00  0.000000D+00  0.000000D+00  0.000000D+00
               11            12            13            14            15 
     11  0.102106D+00
     12  0.206321D-01  0.102106D+00
     13 -0.295061D-01 -0.497584D-01  0.710685D-01
     14 -0.497584D-01 -0.295061D-01 -0.411214D-02  0.710685D-01
     15  0.000000D+00  0.000000D+00  0.000000D+00  0.000000D+00  0.126399D-01
     16  0.000000D+00  0.000000D+00  0.000000D+00  0.000000D+00 -0.672837D-02
     17  0.000000D+00  0.000000D+00  0.000000D+00  0.000000D+00 -0.590960D-02
     18  0.000000D+00  0.000000D+00  0.000000D+00  0.000000D+00 -0.304600D-02
     19  0.000000D+00  0.000000D+00  0.000000D+00  0.000000D+00  0.208361D-02
     20  0.000000D+00  0.000000D+00  0.000000D+00  0.000000D+00 -0.643580D-02
     21  0.000000D+00  0.000000D+00  0.000000D+00  0.000000D+00  0.596760D-02
               16            17            18            19            20 
     16  0.126399D-01
     17 -0.304600D-02  0.985538D-02
     18 -0.590960D-02  0.498511D-02  0.985538D-02
     19 -0.643580D-02  0.369070D-02 -0.480160D-04  0.970338D-02
     20  0.208361D-02 -0.480161D-04  0.369070D-02  0.337874D-03  0.970338D-02
     21  0.596760D-02 -0.750611D-02 -0.750611D-02 -0.794896D-02 -0.794896D-02
               21 
     21  0.157463D-01
 Leave Link  716 at Mon Nov 14 16:45:21 2016, MaxMem=  1835008000 cpu:         1.9
 (Enter /usr/local/gaussian/gaussian09/g09/l103.exe)

 GradGradGradGradGradGradGradGradGradGradGradGradGradGradGradGradGradGrad
 Berny optimization.
 Red2BG is reusing G-inverse.
 Internal  Forces:  Max     0.000392874 RMS     0.000160608
 Search for a local minimum.
 Step number   1 out of a maximum of    2
 All quantities printed in internal units (Hartrees-Bohrs-Radians)
 Second derivative matrix not updated -- analytic derivatives used.
 ITU=  0
     Eigenvalues ---    0.00757   0.00934   0.00974   0.02427   0.03680
     Eigenvalues ---    0.05675   0.09155   0.18579   0.20909   0.32566
     Eigenvalues ---    0.32667   0.40253   0.51847   0.60613   0.75703
 Angle between quadratic step and forces=  37.57 degrees.
 Linear search not attempted -- first point.
 Iteration  1 RMS(Cart)=  0.00147682 RMS(Int)=  0.00000285
 Iteration  2 RMS(Cart)=  0.00000295 RMS(Int)=  0.00000054
 Iteration  3 RMS(Cart)=  0.00000000 RMS(Int)=  0.00000054
 ITry= 1 IFail=0 DXMaxC= 3.45D-03 DCOld= 1.00D+10 DXMaxT= 3.00D-01 DXLimC= 3.00D+00 Rises=F
 ClnCor:  largest displacement from symmetrization is 5.74D-10 for atom     3.
 Variable       Old X    -DE/DX   Delta X   Delta X   Delta X     New X
                                 (Linear)    (Quad)   (Total)
    R1        2.63986   0.00003   0.00000   0.00080   0.00080   2.64066
    R2        2.63986   0.00003   0.00000   0.00080   0.00080   2.64066
    R3        2.38800   0.00013   0.00000   0.00093   0.00093   2.38893
    R4        2.38800   0.00013   0.00000   0.00093   0.00093   2.38893
    R5        2.48909  -0.00039   0.00000  -0.00163  -0.00163   2.48746
    R6        2.48909  -0.00039   0.00000  -0.00163  -0.00163   2.48746
    R7        2.69426   0.00000   0.00000  -0.00020  -0.00020   2.69406
    A1        2.01173   0.00013   0.00000   0.00392   0.00392   2.01565
    A2        2.25496  -0.00023   0.00000  -0.00446  -0.00446   2.25050
    A3        2.25496  -0.00023   0.00000  -0.00446  -0.00446   2.25050
    A4        2.53454   0.00019   0.00000   0.00319   0.00319   2.53773
    A5        2.53454   0.00019   0.00000   0.00319   0.00319   2.53773
    A6        2.05861  -0.00003   0.00000  -0.00069  -0.00069   2.05792
    A7        2.05861  -0.00003   0.00000  -0.00069  -0.00069   2.05792
    D1       -0.00000   0.00000   0.00000   0.00000   0.00000   0.00000
    D2        0.00000   0.00000   0.00000  -0.00000   0.00000   0.00000
    D3        0.00000  -0.00000   0.00000  -0.00000   0.00000   0.00000
    D4       -0.00000  -0.00000   0.00000  -0.00000   0.00000   0.00000
    D5        0.00000  -0.00000   0.00000  -0.00000   0.00000   0.00000
    D6       -0.00000  -0.00000   0.00000  -0.00000   0.00000   0.00000
    D7        0.00000   0.00000   0.00000   0.00000  -0.00000   0.00000
         Item               Value     Threshold  Converged?
 Maximum Force            0.000393     0.000450     YES
 RMS     Force            0.000161     0.000300     YES
 Maximum Displacement     0.003447     0.001800     NO 
 RMS     Displacement     0.001477     0.001200     NO 
 Predicted change in Energy=-2.685600D-06
 GradGradGradGradGradGradGradGradGradGradGradGradGradGradGradGradGradGrad

 Leave Link  103 at Mon Nov 14 16:45:21 2016, MaxMem=  1835008000 cpu:         2.1
 (Enter /usr/local/gaussian/gaussian09/g09/l9999.exe)
 1\1\GINC-EINSTENIO\Freq\UB3LYP\6-311+G(3df)\C7(1+,4)\SERGIO\14-Nov-201
 6\0\\#P Geom=AllCheck Guess=TCheck SCRF=Check GenChk UB3LYP/6-311+G(3d
 f) Freq\\b3lyp opt\\1,4\C,-1.6918725066,0.,0.\C,-0.9440018247,1.179901
 7267,0.\C,-0.9440018247,-1.1799017267,0.\C,0.3107028078,-1.3302197983,
 0.\C,0.3107028078,1.3302197983,0.\C,1.4742352702,0.7128693379,0.\C,1.4
 742352702,-0.7128693379,0.\\Version=EM64L-G09RevE.01\State=4-B2\HF=-26
 6.0272652\S2=3.866549\S2-1=0.\S2A=3.754241\RMSD=1.877e-09\RMSF=2.583e-
 04\ZeroPoint=0.0279899\Thermal=0.0335518\Dipole=0.0389595,0.,0.\Dipole
 Deriv=0.91482,0.,0.,0.,0.4307382,0.,0.,0.,0.0464834,-0.1608045,-0.1852
 393,0.,0.0774191,-0.0170188,0.,0.,0.,0.1371607,-0.1608045,0.1852393,0.
 ,-0.0774191,-0.0170188,0.,0.,0.,0.1371607,-0.1786821,-0.2785948,0.,0.1
 364052,0.0374896,0.,0.,0.,0.2769791,-0.1786822,0.2785948,0.,-0.1364052
 ,0.0374895,0.,0.,0.,0.276979,0.3820767,-0.1526074,0.,0.2307589,0.26416
 02,0.,0.,0.,0.0626185,0.3820767,0.1526074,0.,-0.2307589,0.2641601,0.,0
 .,0.,0.0626186\Polar=84.5798578,0.,67.1569627,0.,0.,36.4173917\PG=C02V
  [C2(C1),SGV(C6)]\NImag=0\\0.35496552,0.,0.31901886,0.,0.,0.03922294,-
 0.14171427,-0.16714700,0.,0.73306516,-0.15973685,-0.15865257,0.,0.2682
 9058,0.26100086,0.,0.,-0.03018742,0.,0.,0.04957821,-0.14171427,0.16714
 700,0.,0.06078850,0.02674022,0.,0.73306516,0.15973685,-0.15865257,0.,-
 0.02674022,-0.07110135,0.,-0.26829058,0.26100086,0.,0.,-0.03018743,0.,
 0.,0.00751846,0.,0.,0.04957821,-0.03896001,-0.11123491,0.,-0.05713701,
 0.01669277,0.,-0.47952544,0.18129331,0.,0.67016322,0.00399982,-0.02673
 823,0.,-0.01494996,-0.01514773,0.,0.13501548,-0.00803339,0.,0.00517650
 ,0.20909261,0.,0.,0.00941998,0.,0.,0.00076196,0.,0.,-0.03742223,0.,0.,
 0.05360426,-0.03896000,0.11123491,0.,-0.47952544,-0.18129331,0.,-0.057
 13701,-0.01669277,0.,0.17662300,0.02694715,0.,0.67016322,-0.00399982,-
 0.02673824,0.,-0.13501548,-0.00803339,0.,0.01494996,-0.01514773,0.,-0.
 02694715,-0.01955447,0.,-0.00517650,0.20909261,0.,0.,0.00941998,0.,0.,
 -0.03742223,0.,0.,0.00076196,0.,0.,-0.00278076,0.,0.,0.05360426,0.0031
 9151,-0.05750689,0.,-0.13622004,0.04867763,0.,0.02074307,0.01937105,0.
 ,-0.09585970,-0.03024054,0.,-0.17530404,0.12594842,0.,0.32985091,0.000
 01804,0.02588138,0.,0.07164764,0.01483371,0.,-0.00391443,-0.02289953,0
 .,-0.00582199,-0.01890594,0.,0.05915854,-0.12071285,0.,-0.11366872,0.4
 2743412,0.,0.,0.00115598,0.,0.,0.00569048,0.,0.,0.00406052,0.,0.,0.009
 02318,0.,0.,-0.03260637,0.,0.,0.04364828,0.00319152,0.05750689,0.,0.02
 074307,-0.01937105,0.,-0.13622004,-0.04867763,0.,-0.17530404,-0.125948
 42,0.,-0.09585970,0.03024054,0.,0.05359828,-0.00741903,0.,0.32985091,-
 0.00001804,0.02588136,0.,0.00391443,-0.02289953,0.,-0.07164764,0.01483
 371,0.,-0.05915854,-0.12071285,0.,0.00582199,-0.01890594,0.,0.00741903
 ,-0.30563087,0.,0.11366872,0.42743412,0.,0.,0.00115598,0.,0.,0.0040605
 2,0.,0.,0.00569048,0.,0.,-0.03260637,0.,0.,0.00902318,0.,0.,-0.0309720
 7,0.,0.,0.04364828\\-0.00019527,0.,0.,0.00025218,-0.00025648,0.,0.0002
 5218,0.00025648,0.,-0.00045995,-0.00042039,0.,-0.00045995,0.00042039,0
 .,0.00030540,-0.00026596,0.,0.00030540,0.00026596,0.\\\@


 PERICLES, SOPHOCLES,
 PELOPONESIAN WAR,
 FRENCH VERBS, LATIN VERBS
 H2SO4.
 Job cpu time:       0 days  0 hours 55 minutes 45.7 seconds.
 File lengths (MBytes):  RWF=     86 Int=      0 D2E=      0 Chk=      9 Scr=      1
 Normal termination of Gaussian 09 at Mon Nov 14 16:45:22 2016.
