 Entering Gaussian System, Link 0=/home/proyectos/fulerenos/M3C-v1.9/M3C-deps_CCC/g09-AM64L-G09RevC.01/g09
 Initial command:
 /home/proyectos/fulerenos/M3C-v1.9/M3C-deps_CCC/g09-AM64L-G09RevC.01/l1.exe "/scratch/naguirre/gaussian/Gau-26265.inp" -scrdir="/scratch/naguirre/gaussian/"
 Entering Link 1 = /home/proyectos/fulerenos/M3C-v1.9/M3C-deps_CCC/g09-AM64L-G09RevC.01/l1.exe PID=     26268.
  
 Copyright (c) 1988,1990,1992,1993,1995,1998,2003,2009,2015,
            Gaussian, Inc.  All Rights Reserved.
  
 This is part of the Gaussian(R) 09 program.  It is based on
 the Gaussian(R) 03 system (copyright 2003, Gaussian, Inc.),
 the Gaussian(R) 98 system (copyright 1998, Gaussian, Inc.),
 the Gaussian(R) 94 system (copyright 1995, Gaussian, Inc.),
 the Gaussian 92(TM) system (copyright 1992, Gaussian, Inc.),
 the Gaussian 90(TM) system (copyright 1990, Gaussian, Inc.),
 the Gaussian 88(TM) system (copyright 1988, Gaussian, Inc.),
 the Gaussian 86(TM) system (copyright 1986, Carnegie Mellon
 University), and the Gaussian 82(TM) system (copyright 1983,
 Carnegie Mellon University). Gaussian is a federally registered
 trademark of Gaussian, Inc.
  
 This software contains proprietary and confidential information,
 including trade secrets, belonging to Gaussian, Inc.
  
 This software is provided under written license and may be
 used, copied, transmitted, or stored only in accord with that
 written license.
  
 The following legend is applicable only to US Government
 contracts under FAR:
  
                    RESTRICTED RIGHTS LEGEND
  
 Use, reproduction and disclosure by the US Government is
 subject to restrictions as set forth in subparagraphs (a)
 and (c) of the Commercial Computer Software - Restricted
 Rights clause in FAR 52.227-19.
  
 Gaussian, Inc.
 340 Quinnipiac St., Bldg. 40, Wallingford CT 06492
  
  
 ---------------------------------------------------------------
 Warning -- This program may not be used in any manner that
 competes with the business of Gaussian, Inc. or will provide
 assistance to any competitor of Gaussian, Inc.  The licensee
 of this program is prohibited from giving any competitor of
 Gaussian, Inc. access to this program.  By using this program,
 the user acknowledges that Gaussian, Inc. is engaged in the
 business of creating and licensing software in the field of
 computational chemistry and represents and warrants to the
 licensee that it is not a competitor of Gaussian, Inc. and that
 it will not use this program in any manner prohibited above.
 ---------------------------------------------------------------
  

 Cite this work as:
 Gaussian 09, Revision E.01,
 M. J. Frisch, G. W. Trucks, H. B. Schlegel, G. E. Scuseria, 
 M. A. Robb, J. R. Cheeseman, G. Scalmani, V. Barone, B. Mennucci, 
 G. A. Petersson, H. Nakatsuji, M. Caricato, X. Li, H. P. Hratchian, 
 A. F. Izmaylov, J. Bloino, G. Zheng, J. L. Sonnenberg, M. Hada, 
 M. Ehara, K. Toyota, R. Fukuda, J. Hasegawa, M. Ishida, T. Nakajima, 
 Y. Honda, O. Kitao, H. Nakai, T. Vreven, J. A. Montgomery, Jr., 
 J. E. Peralta, F. Ogliaro, M. Bearpark, J. J. Heyd, E. Brothers, 
 K. N. Kudin, V. N. Staroverov, T. Keith, R. Kobayashi, J. Normand, 
 K. Raghavachari, A. Rendell, J. C. Burant, S. S. Iyengar, J. Tomasi, 
 M. Cossi, N. Rega, J. M. Millam, M. Klene, J. E. Knox, J. B. Cross, 
 V. Bakken, C. Adamo, J. Jaramillo, R. Gomperts, R. E. Stratmann, 
 O. Yazyev, A. J. Austin, R. Cammi, C. Pomelli, J. W. Ochterski, 
 R. L. Martin, K. Morokuma, V. G. Zakrzewski, G. A. Voth, 
 P. Salvador, J. J. Dannenberg, S. Dapprich, A. D. Daniels, 
 O. Farkas, J. B. Foresman, J. V. Ortiz, J. Cioslowski, 
 and D. J. Fox, Gaussian, Inc., Wallingford CT, 2013.
 
 ******************************************
 Gaussian 09:  EM64L-G09RevE.01 30-Nov-2015
                 5-Jul-2016 
 ******************************************
 %NProcShared=4
 Will use up to    4 processors via shared memory.
 -----------------------------------------
 #p b3lyp/6-311+G(3df) freq symmetry=Loose
 -----------------------------------------
 1/10=4,30=1,38=1/1,3;
 2/12=2,17=4,18=3,40=1/2;
 3/5=4,6=6,7=16,11=2,16=1,25=1,30=1,71=2,74=-5,140=1/1,2,3;
 4//1;
 5/5=2,38=5,98=1/2;
 8/6=4,10=90,11=11/1;
 11/6=1,8=1,9=11,15=111,16=1/1,2,10;
 10/6=1/2;
 6/7=2,8=2,9=2,10=2,18=1,28=1/1;
 7/8=1,10=1,25=1/1,2,3,16;
 1/10=4,30=1/3;
 99//99;
 Leave Link    1 at Tue Jul  5 23:22:54 2016, MaxMem=           0 cpu:         0.2
 (Enter /home/proyectos/fulerenos/M3C-v1.9/M3C-deps_CCC/g09-AM64L-G09RevC.01/l101.exe)
 ---------
 b3lyp opt
 ---------
 Symbolic Z-matrix:
 Charge =  2 Multiplicity = 3
 C                    -1.57736  -0.4755   -0.00989 
 C                     1.04857  -0.91626  -0.38368 
 C                     0.6319    0.11231   1.06137 
 C                     0.10459   0.95849  -0.01956 
 C                    -1.27705   0.73675  -0.33454 
 C                     1.29572   0.43167  -0.63777 
 C                    -0.22636  -0.84745   0.32406 
 
 NAtoms=      7 NQM=        7 NQMF=       0 NMMI=      0 NMMIF=      0
                NMic=       0 NMicF=      0.
                    Isotopes and Nuclear Properties:
 (Nuclear quadrupole moments (NQMom) in fm**2, nuclear magnetic moments (NMagM)
  in nuclear magnetons)

  Atom         1           2           3           4           5           6           7
 IAtWgt=          12          12          12          12          12          12          12
 AtmWgt=  12.0000000  12.0000000  12.0000000  12.0000000  12.0000000  12.0000000  12.0000000
 NucSpn=           0           0           0           0           0           0           0
 AtZEff=   0.0000000   0.0000000   0.0000000   0.0000000   0.0000000   0.0000000   0.0000000
 NQMom=    0.0000000   0.0000000   0.0000000   0.0000000   0.0000000   0.0000000   0.0000000
 NMagM=    0.0000000   0.0000000   0.0000000   0.0000000   0.0000000   0.0000000   0.0000000
 AtZNuc=   6.0000000   6.0000000   6.0000000   6.0000000   6.0000000   6.0000000   6.0000000
 Leave Link  101 at Tue Jul  5 23:22:54 2016, MaxMem=    33554432 cpu:         0.3
 (Enter /home/proyectos/fulerenos/M3C-v1.9/M3C-deps_CCC/g09-AM64L-G09RevC.01/l103.exe)

 GradGradGradGradGradGradGradGradGradGradGradGradGradGradGradGradGradGrad
 Berny optimization.
 Initialization pass.
 Trust Radius=3.00D-01 FncErr=1.00D-07 GrdErr=1.00D-07
 Number of steps in this run=      2 maximum allowed number of steps=      2.
 GradGradGradGradGradGradGradGradGradGradGradGradGradGradGradGradGradGrad

 Leave Link  103 at Tue Jul  5 23:22:54 2016, MaxMem=    33554432 cpu:         0.0
 (Enter /home/proyectos/fulerenos/M3C-v1.9/M3C-deps_CCC/g09-AM64L-G09RevC.01/l202.exe)
                          Input orientation:                          
 ---------------------------------------------------------------------
 Center     Atomic      Atomic             Coordinates (Angstroms)
 Number     Number       Type             X           Y           Z
 ---------------------------------------------------------------------
      1          6           0       -1.577363   -0.475500   -0.009885
      2          6           0        1.048574   -0.916263   -0.383677
      3          6           0        0.631895    0.112314    1.061367
      4          6           0        0.104586    0.958488   -0.019557
      5          6           0       -1.277050    0.736746   -0.334543
      6          6           0        1.295719    0.431667   -0.637766
      7          6           0       -0.226360   -0.847451    0.324060
 ---------------------------------------------------------------------
                    Distance matrix (angstroms):
                    1          2          3          4          5
     1  C    0.000000
     2  C    2.688780   0.000000
     3  C    2.524664   1.822017   0.000000
     4  C    2.210287   2.130349   1.470531   0.000000
     5  C    1.290400   2.853661   2.445925   1.434330   0.000000
     6  C    3.077627   1.393756   1.851945   1.441708   2.608478
     7  C    1.440512   1.459823   1.483702   1.867890   2.011812
                    6          7
     6  C    0.000000
     7  C    2.208614   0.000000
 Stoichiometry    C7(2+,3)
 Framework group  C1[X(C7)]
 Deg. of freedom    15
 Full point group                 C1      NOp   1
 Largest Abelian subgroup         C1      NOp   1
 Largest concise Abelian subgroup C1      NOp   1
                         Standard orientation:                         
 ---------------------------------------------------------------------
 Center     Atomic      Atomic             Coordinates (Angstroms)
 Number     Number       Type             X           Y           Z
 ---------------------------------------------------------------------
      1          6           0       -1.547482   -0.537179   -0.176102
      2          6           0        1.109262   -0.763257   -0.522715
      3          6           0        0.591193   -0.085011    1.087047
      4          6           0        0.051826    0.944763    0.186430
      5          6           0       -1.304858    0.729216   -0.226185
      6          6           0        1.289093    0.618115   -0.477642
      7          6           0       -0.189034   -0.906647    0.129167
 ---------------------------------------------------------------------
 Rotational constants (GHZ):      7.9112638      4.5806159      3.8693402
 Leave Link  202 at Tue Jul  5 23:22:54 2016, MaxMem=    33554432 cpu:         0.0
 (Enter /home/proyectos/fulerenos/M3C-v1.9/M3C-deps_CCC/g09-AM64L-G09RevC.01/l301.exe)
 Standard basis: 6-311+G(3df) (5D, 7F)
 Ernie: Thresh=  0.10000D-02 Tol=  0.10000D-05 Strict=F.
 There are   315 symmetry adapted cartesian basis functions of A   symmetry.
 There are   273 symmetry adapted basis functions of A   symmetry.
   273 basis functions,   406 primitive gaussians,   315 cartesian basis functions
    21 alpha electrons       19 beta electrons
       nuclear repulsion energy       216.1818068440 Hartrees.
 IExCor=  402 DFT=T Ex+Corr=B3LYP ExCW=0 ScaHFX=  0.200000
 ScaDFX=  0.800000  0.720000  1.000000  0.810000 ScalE2=  1.000000  1.000000
 IRadAn=      0 IRanWt=     -1 IRanGd=            0 ICorTp=0 IEmpDi=  4
 NAtoms=    7 NActive=    7 NUniq=    7 SFac= 1.00D+00 NAtFMM=   60 NAOKFM=F Big=F
 Integral buffers will be    131072 words long.
 Raffenetti 2 integral format.
 Two-electron integral symmetry is turned on.
 Leave Link  301 at Tue Jul  5 23:22:54 2016, MaxMem=    33554432 cpu:         0.2
 (Enter /home/proyectos/fulerenos/M3C-v1.9/M3C-deps_CCC/g09-AM64L-G09RevC.01/l302.exe)
 NPDir=0 NMtPBC=     1 NCelOv=     1 NCel=       1 NClECP=     1 NCelD=      1
         NCelK=      1 NCelE2=     1 NClLst=     1 CellRange=     0.0.
 One-electron integrals computed using PRISM.
 NBasis=   273 RedAO= T EigKep=  6.75D-06  NBF=   273
 NBsUse=   273 1.00D-06 EigRej= -1.00D+00 NBFU=   273
 Precomputing XC quadrature grid using
 IXCGrd= 4 IRadAn=           0 IRanWt=          -1 IRanGd=           0 AccXCQ= 0.00D+00.
 Generated NRdTot=       0 NPtTot=           0 NUsed=           0 NTot=          32
 NSgBfM=   315   315   315   315   315 MxSgAt=     7 MxSgA2=     7.
 Leave Link  302 at Tue Jul  5 23:22:54 2016, MaxMem=    33554432 cpu:         1.9
 (Enter /home/proyectos/fulerenos/M3C-v1.9/M3C-deps_CCC/g09-AM64L-G09RevC.01/l303.exe)
 DipDrv:  MaxL=1.
 Leave Link  303 at Tue Jul  5 23:22:55 2016, MaxMem=    33554432 cpu:         0.5
 (Enter /home/proyectos/fulerenos/M3C-v1.9/M3C-deps_CCC/g09-AM64L-G09RevC.01/l401.exe)
 ExpMin= 4.38D-02 ExpMax= 4.56D+03 ExpMxC= 6.82D+02 IAcc=2 IRadAn=         4 AccDes= 0.00D+00
 Harris functional with IExCor=  402 and IRadAn=       4 diagonalized for initial guess.
 HarFok:  IExCor=  402 AccDes= 0.00D+00 IRadAn=         4 IDoV= 1 UseB2=F ITyADJ=14
 ICtDFT=  3500011 ScaDFX=  1.000000  1.000000  1.000000  1.000000
 FoFCou: FMM=F IPFlag=           0 FMFlag=      100000 FMFlg1=           0
         NFxFlg=           0 DoJE=T BraDBF=F KetDBF=T FulRan=T
         wScrn=  0.000000 ICntrl=     500 IOpCl=  0 I1Cent=   200000004 NGrid=           0
         NMat0=    1 NMatS0=      1 NMatT0=    0 NMatD0=    1 NMtDS0=    0 NMtDT0=    0
 Petite list used in FoFCou.
 Harris En= -265.617226620260    
 JPrj=0 DoOrth=F DoCkMO=F.
 Initial guess <Sx>= 0.0000 <Sy>= 0.0000 <Sz>= 1.0000 <S**2>= 2.0000 S= 1.0000
 Leave Link  401 at Tue Jul  5 23:22:56 2016, MaxMem=    33554432 cpu:         6.6
 (Enter /home/proyectos/fulerenos/M3C-v1.9/M3C-deps_CCC/g09-AM64L-G09RevC.01/l502.exe)
 UHF open shell SCF:
 Using DIIS extrapolation, IDIIS=  1040.
 Integral symmetry usage will be decided dynamically.
 IVT=      320355 IEndB=      320355 NGot=    33554432 MDV=    33350258
 LenX=    33350258 LenY=    33250592
 Requested convergence on RMS density matrix=1.00D-08 within 128 cycles.
 Requested convergence on MAX density matrix=1.00D-06.
 Requested convergence on             energy=1.00D-06.
 No special actions if energy rises.
 Fock matrices will be formed incrementally for  20 cycles.

 Cycle   1  Pass 1  IDiag  1:
 FoFJK:  IHMeth= 1 ICntrl=       0 DoSepK=F KAlg= 0 I1Cent=   0 FoldK=F
 IRaf= 990000000 NMat=   1 IRICut=       1 DoRegI=T DoRafI=F ISym2E= 0.
 FoFCou: FMM=F IPFlag=           0 FMFlag=      100000 FMFlg1=           0
         NFxFlg=           0 DoJE=F BraDBF=F KetDBF=F FulRan=T
         wScrn=  0.000000 ICntrl=       0 IOpCl=  1 I1Cent=           0 NGrid=           0
         NMat0=    1 NMatS0=      1 NMatT0=    0 NMatD0=    1 NMtDS0=    0 NMtDT0=    0
 Symmetry not used in FoFCou.
 E= -265.192613984693    
 DIIS: error= 1.20D-02 at cycle   1 NSaved=   1.
 NSaved= 1 IEnMin= 1 EnMin= -265.192613984693     IErMin= 1 ErrMin= 1.20D-02
 ErrMax= 1.20D-02  0.00D+00 EMaxC= 1.00D-01 BMatC= 2.38D-01 BMatP= 2.38D-01
 IDIUse=3 WtCom= 8.80D-01 WtEn= 1.20D-01
 Coeff-Com:  0.100D+01
 Coeff-En:   0.100D+01
 Coeff:      0.100D+01
 Gap=     0.110 Goal=   None    Shift=    0.000
 Gap=     0.069 Goal=   None    Shift=    0.000
 GapD=    0.069 DampG=0.500 DampE=0.500 DampFc=0.2500 IDamp=-1.
 Damping current iteration by 2.50D-01
 RMSDP=7.28D-03 MaxDP=5.74D-01              OVMax= 3.31D-01

 Cycle   2  Pass 1  IDiag  1:
 RMSU=  1.80D-03    CP:  9.85D-01
 E= -265.208042455799     Delta-E=       -0.015428471106 Rises=F Damp=T
 DIIS: error= 5.89D-03 at cycle   2 NSaved=   2.
 NSaved= 2 IEnMin= 2 EnMin= -265.208042455799     IErMin= 2 ErrMin= 5.89D-03
 ErrMax= 5.89D-03  0.00D+00 EMaxC= 1.00D-01 BMatC= 7.26D-02 BMatP= 2.38D-01
 IDIUse=3 WtCom= 9.41D-01 WtEn= 5.89D-02
 Coeff-Com: -0.208D+00 0.121D+01
 Coeff-En:   0.176D+00 0.824D+00
 Coeff:     -0.186D+00 0.119D+01
 Gap=     0.171 Goal=   None    Shift=    0.000
 Gap=     0.121 Goal=   None    Shift=    0.000
 RMSDP=4.58D-03 MaxDP=4.19D-01 DE=-1.54D-02 OVMax= 3.72D-01

 Cycle   3  Pass 1  IDiag  1:
 RMSU=  4.53D-03    CP:  1.02D+00  1.18D+00
 E= -265.200949662478     Delta-E=        0.007092793321 Rises=F Damp=F
 DIIS: error= 1.92D-02 at cycle   3 NSaved=   3.
 NSaved= 3 IEnMin= 2 EnMin= -265.208042455799     IErMin= 2 ErrMin= 5.89D-03
 ErrMax= 1.92D-02  0.00D+00 EMaxC= 1.00D-01 BMatC= 2.04D-01 BMatP= 7.26D-02
 IDIUse=2 WtCom= 0.00D+00 WtEn= 1.00D+00
 Coeff-En:   0.000D+00 0.556D+00 0.444D+00
 Coeff:      0.000D+00 0.556D+00 0.444D+00
 Gap=     0.112 Goal=   None    Shift=    0.000
 Gap=     0.135 Goal=   None    Shift=    0.000
 RMSDP=6.44D-03 MaxDP=7.06D-01 DE= 7.09D-03 OVMax= 3.36D-01

 Cycle   4  Pass 1  IDiag  1:
 RMSU=  2.16D-03    CP:  9.45D-01  3.00D+00  9.87D-02
 E= -265.134070156795     Delta-E=        0.066879505683 Rises=F Damp=F
 DIIS: error= 3.02D-02 at cycle   4 NSaved=   4.
 NSaved= 4 IEnMin= 2 EnMin= -265.208042455799     IErMin= 2 ErrMin= 5.89D-03
 ErrMax= 3.02D-02  0.00D+00 EMaxC= 1.00D-01 BMatC= 4.19D-01 BMatP= 7.26D-02
 IDIUse=2 WtCom= 0.00D+00 WtEn= 1.00D+00
 Coeff-En:   0.000D+00 0.000D+00 0.614D+00 0.386D+00
 Coeff:      0.000D+00 0.000D+00 0.614D+00 0.386D+00
 Gap=     0.114 Goal=   None    Shift=    0.000
 Gap=     0.109 Goal=   None    Shift=    0.000
 RMSDP=2.79D-03 MaxDP=3.80D-01 DE= 6.69D-02 OVMax= 2.35D-01

 Cycle   5  Pass 1  IDiag  1:
 RMSU=  1.67D-03    CP:  9.73D-01  2.79D+00  5.03D-01  7.18D-01
 E= -265.262464077807     Delta-E=       -0.128393921012 Rises=F Damp=F
 DIIS: error= 6.07D-03 at cycle   5 NSaved=   5.
 NSaved= 5 IEnMin= 5 EnMin= -265.262464077807     IErMin= 2 ErrMin= 5.89D-03
 ErrMax= 6.07D-03  0.00D+00 EMaxC= 1.00D-01 BMatC= 1.88D-02 BMatP= 7.26D-02
 IDIUse=3 WtCom= 9.39D-01 WtEn= 6.07D-02
 Coeff-Com: -0.115D+00 0.178D+00 0.312D+00 0.974D-01 0.527D+00
 Coeff-En:   0.000D+00 0.000D+00 0.704D-01 0.000D+00 0.930D+00
 Coeff:     -0.108D+00 0.167D+00 0.298D+00 0.915D-01 0.551D+00
 Gap=     0.097 Goal=   None    Shift=    0.000
 Gap=     0.128 Goal=   None    Shift=    0.000
 RMSDP=8.70D-04 MaxDP=5.05D-02 DE=-1.28D-01 OVMax= 5.85D-02

 Cycle   6  Pass 1  IDiag  1:
 RMSU=  7.90D-04    CP:  9.75D-01  2.67D+00  5.63D-01  6.86D-01  9.62D-01
 E= -265.266372676167     Delta-E=       -0.003908598360 Rises=F Damp=F
 DIIS: error= 3.94D-03 at cycle   6 NSaved=   6.
 NSaved= 6 IEnMin= 6 EnMin= -265.266372676167     IErMin= 6 ErrMin= 3.94D-03
 ErrMax= 3.94D-03  0.00D+00 EMaxC= 1.00D-01 BMatC= 1.04D-02 BMatP= 1.88D-02
 IDIUse=3 WtCom= 9.61D-01 WtEn= 3.94D-02
 Coeff-Com: -0.174D+00 0.216D+00 0.108D+00-0.657D-01 0.487D+00 0.429D+00
 Coeff-En:   0.000D+00 0.000D+00 0.000D+00 0.000D+00 0.249D+00 0.751D+00
 Coeff:     -0.167D+00 0.208D+00 0.103D+00-0.631D-01 0.477D+00 0.441D+00
 Gap=     0.108 Goal=   None    Shift=    0.000
 Gap=     0.124 Goal=   None    Shift=    0.000
 RMSDP=8.86D-04 MaxDP=1.01D-01 DE=-3.91D-03 OVMax= 4.90D-02

 Cycle   7  Pass 1  IDiag  1:
 RMSU=  5.88D-04    CP:  9.65D-01  2.80D+00  5.60D-01  7.85D-01  1.29D+00
                    CP:  9.13D-01
 E= -265.269992564022     Delta-E=       -0.003619887855 Rises=F Damp=F
 DIIS: error= 1.87D-03 at cycle   7 NSaved=   7.
 NSaved= 7 IEnMin= 7 EnMin= -265.269992564022     IErMin= 7 ErrMin= 1.87D-03
 ErrMax= 1.87D-03  0.00D+00 EMaxC= 1.00D-01 BMatC= 1.76D-03 BMatP= 1.04D-02
 IDIUse=3 WtCom= 9.81D-01 WtEn= 1.87D-02
 Coeff-Com: -0.126D+00 0.157D+00 0.410D-01-0.638D-01 0.306D+00 0.333D+00
 Coeff-Com:  0.354D+00
 Coeff-En:   0.000D+00 0.000D+00 0.000D+00 0.000D+00 0.000D+00 0.000D+00
 Coeff-En:   0.100D+01
 Coeff:     -0.124D+00 0.154D+00 0.403D-01-0.626D-01 0.300D+00 0.326D+00
 Coeff:      0.366D+00
 Gap=     0.110 Goal=   None    Shift=    0.000
 Gap=     0.123 Goal=   None    Shift=    0.000
 RMSDP=3.69D-04 MaxDP=4.64D-02 DE=-3.62D-03 OVMax= 2.21D-02

 Cycle   8  Pass 1  IDiag  1:
 RMSU=  2.23D-04    CP:  9.61D-01  2.86D+00  5.55D-01  8.09D-01  1.36D+00
                    CP:  1.17D+00  1.18D+00
 E= -265.271133237341     Delta-E=       -0.001140673319 Rises=F Damp=F
 DIIS: error= 1.09D-03 at cycle   8 NSaved=   8.
 NSaved= 8 IEnMin= 8 EnMin= -265.271133237341     IErMin= 8 ErrMin= 1.09D-03
 ErrMax= 1.09D-03  0.00D+00 EMaxC= 1.00D-01 BMatC= 5.32D-04 BMatP= 1.76D-03
 IDIUse=3 WtCom= 9.89D-01 WtEn= 1.09D-02
 Coeff-Com:  0.110D-01-0.152D-01-0.115D-01 0.122D-02-0.210D-01-0.256D-01
 Coeff-Com:  0.199D+00 0.863D+00
 Coeff-En:   0.000D+00 0.000D+00 0.000D+00 0.000D+00 0.000D+00 0.000D+00
 Coeff-En:   0.000D+00 0.100D+01
 Coeff:      0.109D-01-0.150D-01-0.114D-01 0.120D-02-0.208D-01-0.253D-01
 Coeff:      0.196D+00 0.864D+00
 Gap=     0.117 Goal=   None    Shift=    0.000
 Gap=     0.125 Goal=   None    Shift=    0.000
 RMSDP=8.15D-04 MaxDP=1.08D-01 DE=-1.14D-03 OVMax= 5.29D-02

 Cycle   9  Pass 1  IDiag  1:
 RMSU=  2.28D-04    CP:  9.53D-01  2.95D+00  5.54D-01  8.97D-01  1.56D+00
                    CP:  1.57D+00  2.05D+00  2.06D+00
 E= -265.272976201988     Delta-E=       -0.001842964648 Rises=F Damp=F
 DIIS: error= 9.84D-04 at cycle   9 NSaved=   9.
 NSaved= 9 IEnMin= 9 EnMin= -265.272976201988     IErMin= 9 ErrMin= 9.84D-04
 ErrMax= 9.84D-04  0.00D+00 EMaxC= 1.00D-01 BMatC= 4.49D-04 BMatP= 5.32D-04
 IDIUse=3 WtCom= 9.90D-01 WtEn= 9.84D-03
 Coeff-Com: -0.164D-01 0.203D-01 0.164D-01-0.283D-02 0.831D-01 0.582D-01
 Coeff-Com: -0.226D-01-0.665D-01 0.930D+00
 Coeff-En:   0.000D+00 0.000D+00 0.000D+00 0.000D+00 0.000D+00 0.000D+00
 Coeff-En:   0.000D+00 0.000D+00 0.100D+01
 Coeff:     -0.162D-01 0.201D-01 0.163D-01-0.280D-02 0.823D-01 0.576D-01
 Coeff:     -0.224D-01-0.659D-01 0.931D+00
 Gap=     0.118 Goal=   None    Shift=    0.000
 Gap=     0.128 Goal=   None    Shift=    0.000
 RMSDP=5.44D-04 MaxDP=7.49D-02 DE=-1.84D-03 OVMax= 3.58D-02

 Cycle  10  Pass 1  IDiag  1:
 RMSU=  9.28D-05    CP:  9.51D-01  2.97D+00  5.60D-01  9.32D-01  1.64D+00
                    CP:  1.82D+00  2.58D+00  3.00D+00  2.15D+00
 E= -265.274293919060     Delta-E=       -0.001317717072 Rises=F Damp=F
 DIIS: error= 9.73D-04 at cycle  10 NSaved=  10.
 NSaved=10 IEnMin=10 EnMin= -265.274293919060     IErMin=10 ErrMin= 9.73D-04
 ErrMax= 9.73D-04  0.00D+00 EMaxC= 1.00D-01 BMatC= 4.67D-04 BMatP= 4.49D-04
 IDIUse=3 WtCom= 9.90D-01 WtEn= 9.73D-03
 Coeff-Com: -0.169D-01 0.210D-01 0.167D-01-0.307D-02 0.842D-01 0.593D-01
 Coeff-Com: -0.215D-01-0.697D-01 0.904D+00 0.262D-01
 Coeff-En:   0.000D+00 0.000D+00 0.000D+00 0.000D+00 0.000D+00 0.000D+00
 Coeff-En:   0.000D+00 0.000D+00 0.000D+00 0.100D+01
 Coeff:     -0.168D-01 0.208D-01 0.165D-01-0.304D-02 0.834D-01 0.587D-01
 Coeff:     -0.213D-01-0.690D-01 0.895D+00 0.357D-01
 Gap=     0.118 Goal=   None    Shift=    0.000
 Gap=     0.129 Goal=   None    Shift=    0.000
 RMSDP=1.75D-05 MaxDP=2.32D-03 DE=-1.32D-03 OVMax= 1.13D-03

 Cycle  11  Pass 1  IDiag  1:
 RMSU=  6.12D-06    CP:  9.51D-01  2.97D+00  5.61D-01  9.33D-01  1.64D+00
                    CP:  1.83D+00  2.59D+00  3.00D+00  2.19D+00  1.07D+00
 E= -265.274336812016     Delta-E=       -0.000042892955 Rises=F Damp=F
 DIIS: error= 9.75D-04 at cycle  11 NSaved=  11.
 NSaved=11 IEnMin=11 EnMin= -265.274336812016     IErMin=10 ErrMin= 9.73D-04
 ErrMax= 9.75D-04  0.00D+00 EMaxC= 1.00D-01 BMatC= 4.66D-04 BMatP= 4.49D-04
 IDIUse=3 WtCom= 9.90D-01 WtEn= 9.73D-03
 Large coefficients: NSaved= 11 BigCof=   37.09 CofMax=   10.00 Det=-1.12D-08
 Inversion failed.  Reducing to 10 matrices.
 Large coefficients: NSaved= 10 BigCof=   37.17 CofMax=   10.00 Det=-1.13D-08
 Inversion failed.  Reducing to  9 matrices.
 Large coefficients: NSaved=  9 BigCof=   32.48 CofMax=   10.00 Det=-1.19D-08
 Inversion failed.  Reducing to  8 matrices.
 Large coefficients: NSaved=  8 BigCof=   31.34 CofMax=   10.00 Det=-1.20D-08
 Inversion failed.  Reducing to  7 matrices.
 Large coefficients: NSaved=  7 BigCof=   31.32 CofMax=   10.00 Det=-1.20D-08
 Inversion failed.  Reducing to  6 matrices.
 Large coefficients: NSaved=  6 BigCof=   11.61 CofMax=   10.00 Det=-1.54D-08
 Inversion failed.  Reducing to  5 matrices.
 Large coefficients: NSaved=  5 BigCof=   11.65 CofMax=   10.00 Det=-1.54D-08
 Inversion failed.  Reducing to  4 matrices.
 Large coefficients: NSaved=  4 BigCof=   16.05 CofMax=   10.00 Det=-2.00D-08
 Inversion failed.  Reducing to  3 matrices.
 Large coefficients: NSaved=  3 BigCof=   19.85 CofMax=   10.00 Det=-2.10D-08
 Inversion failed.  Reducing to  2 matrices.
 Coeff-Com:  0.146D+00 0.854D+00
 Coeff-En:   0.000D+00 0.100D+01
 Coeff:      0.144D+00 0.856D+00
 Gap=     0.123 Goal=   None    Shift=    0.000
 Gap=     0.133 Goal=   None    Shift=    0.000
 RMSDP=7.32D-04 MaxDP=9.44D-02 DE=-4.29D-05 OVMax= 4.51D-02

 Cycle  12  Pass 1  IDiag  1:
 RMSU=  3.79D-04    CP:  9.47D-01  3.00D+00  5.67D-01  9.85D-01  1.72D+00
                    CP:  2.13D+00  3.00D+00  3.00D+00  3.00D+00  3.00D+00
                    CP:  3.00D+00
 E= -265.276119637063     Delta-E=       -0.001782825047 Rises=F Damp=F
 DIIS: error= 9.81D-04 at cycle  12 NSaved=   3.
 NSaved= 3 IEnMin= 3 EnMin= -265.276119637063     IErMin= 1 ErrMin= 9.73D-04
 ErrMax= 9.81D-04  0.00D+00 EMaxC= 1.00D-01 BMatC= 4.56D-04 BMatP= 4.66D-04
 IDIUse=3 WtCom= 9.90D-01 WtEn= 9.73D-03
 Large coefficients: NSaved=  3 BigCof=   21.77 CofMax=   10.00 Det=-2.14D-08
 Inversion failed.  Reducing to  2 matrices.
 Coeff-Com:  0.432D+00 0.568D+00
 Coeff-En:   0.000D+00 0.100D+01
 Coeff:      0.428D+00 0.572D+00
 Gap=     0.124 Goal=   None    Shift=    0.000
 Gap=     0.137 Goal=   None    Shift=    0.000
 RMSDP=4.05D-04 MaxDP=5.53D-02 DE=-1.78D-03 OVMax= 2.56D-02

 Cycle  13  Pass 1  IDiag  1:
 RMSU=  1.78D-04    CP:  9.45D-01  3.00D+00  5.79D-01  9.95D-01  1.75D+00
                    CP:  2.29D+00  3.00D+00  3.00D+00  3.00D+00  3.00D+00
                    CP:  3.00D+00  1.87D+00
 E= -265.277060134042     Delta-E=       -0.000940496979 Rises=F Damp=F
 DIIS: error= 1.04D-03 at cycle  13 NSaved=   3.
 NSaved= 3 IEnMin= 3 EnMin= -265.277060134042     IErMin= 1 ErrMin= 9.75D-04
 ErrMax= 1.04D-03  0.00D+00 EMaxC= 1.00D-01 BMatC= 4.43D-04 BMatP= 4.56D-04
 IDIUse=3 WtCom= 9.90D-01 WtEn= 9.73D-03
 Coeff-Com: -0.532D+00 0.649D+00 0.882D+00
 Coeff-En:   0.000D+00 0.000D+00 0.100D+01
 Coeff:     -0.527D+00 0.643D+00 0.883D+00
 Gap=     0.130 Goal=   None    Shift=    0.000
 Gap=     0.144 Goal=   None    Shift=    0.000
 RMSDP=9.08D-04 MaxDP=1.02D-01 DE=-9.40D-04 OVMax= 4.81D-02

 Cycle  14  Pass 1  IDiag  1:
 RMSU=  3.72D-04    CP:  9.42D-01  3.00D+00  5.89D-01  1.04D+00  1.77D+00
                    CP:  2.63D+00  3.00D+00  3.00D+00  3.00D+00  3.00D+00
                    CP:  3.00D+00  3.00D+00  2.86D+00
 E= -265.278982538184     Delta-E=       -0.001922404142 Rises=F Damp=F
 DIIS: error= 8.29D-04 at cycle  14 NSaved=   4.
 NSaved= 4 IEnMin= 4 EnMin= -265.278982538184     IErMin= 4 ErrMin= 8.29D-04
 ErrMax= 8.29D-04  0.00D+00 EMaxC= 1.00D-01 BMatC= 3.22D-04 BMatP= 4.43D-04
 IDIUse=3 WtCom= 9.92D-01 WtEn= 8.29D-03
 Coeff-Com: -0.418D+00-0.225D+00 0.611D+00 0.103D+01
 Coeff-En:   0.000D+00 0.000D+00 0.000D+00 0.100D+01
 Coeff:     -0.415D+00-0.223D+00 0.606D+00 0.103D+01
 Gap=     0.134 Goal=   None    Shift=    0.000
 Gap=     0.153 Goal=   None    Shift=    0.000
 RMSDP=8.83D-04 MaxDP=9.72D-02 DE=-1.92D-03 OVMax= 6.02D-02

 Cycle  15  Pass 1  IDiag  1:
 RMSU=  3.33D-04    CP:  9.39D-01  2.99D+00  6.07D-01  1.05D+00  1.79D+00
                    CP:  2.85D+00  3.00D+00  3.00D+00  3.00D+00  3.00D+00
                    CP:  3.00D+00  3.00D+00  3.00D+00  3.00D+00
 E= -265.280226291585     Delta-E=       -0.001243753402 Rises=F Damp=F
 DIIS: error= 6.11D-04 at cycle  15 NSaved=   5.
 NSaved= 5 IEnMin= 5 EnMin= -265.280226291585     IErMin= 5 ErrMin= 6.11D-04
 ErrMax= 6.11D-04  0.00D+00 EMaxC= 1.00D-01 BMatC= 2.31D-04 BMatP= 3.22D-04
 IDIUse=3 WtCom= 9.94D-01 WtEn= 6.11D-03
 Coeff-Com:  0.162D+01-0.136D+01-0.139D+01 0.111D+01 0.102D+01
 Coeff-En:   0.000D+00 0.000D+00 0.000D+00 0.000D+00 0.100D+01
 Coeff:      0.161D+01-0.136D+01-0.138D+01 0.111D+01 0.102D+01
 Gap=     0.133 Goal=   None    Shift=    0.000
 Gap=     0.150 Goal=   None    Shift=    0.000
 RMSDP=1.93D-04 MaxDP=2.10D-02 DE=-1.24D-03 OVMax= 1.00D-02

 Cycle  16  Pass 1  IDiag  1:
 RMSU=  1.65D-04    CP:  9.42D-01  2.96D+00  6.12D-01  1.04D+00  1.75D+00
                    CP:  2.87D+00  3.00D+00  3.00D+00  3.00D+00  3.00D+00
                    CP:  3.00D+00  3.00D+00  3.00D+00  3.00D+00  1.07D+00
 E= -265.280353336692     Delta-E=       -0.000127045107 Rises=F Damp=F
 DIIS: error= 4.01D-04 at cycle  16 NSaved=   6.
 NSaved= 6 IEnMin= 6 EnMin= -265.280353336692     IErMin= 6 ErrMin= 4.01D-04
 ErrMax= 4.01D-04  0.00D+00 EMaxC= 1.00D-01 BMatC= 1.24D-04 BMatP= 2.31D-04
 IDIUse=3 WtCom= 9.96D-01 WtEn= 4.01D-03
 Coeff-Com:  0.133D+01-0.112D+01-0.123D+01 0.712D+00 0.763D+00 0.541D+00
 Coeff-En:   0.000D+00 0.000D+00 0.000D+00 0.000D+00 0.000D+00 0.100D+01
 Coeff:      0.133D+01-0.111D+01-0.123D+01 0.709D+00 0.760D+00 0.543D+00
 Gap=     0.134 Goal=   None    Shift=    0.000
 Gap=     0.150 Goal=   None    Shift=    0.000
 RMSDP=2.88D-04 MaxDP=3.07D-02 DE=-1.27D-04 OVMax= 1.76D-02

 Cycle  17  Pass 1  IDiag  1:
 RMSU=  2.35D-04    CP:  9.41D-01  2.95D+00  6.16D-01  1.05D+00  1.74D+00
                    CP:  2.92D+00  3.00D+00  3.00D+00  3.00D+00  3.00D+00
                    CP:  3.00D+00  3.00D+00  3.00D+00  3.00D+00  1.45D+00
                    CP:  1.56D+00
 E= -265.280569946436     Delta-E=       -0.000216609744 Rises=F Damp=F
 DIIS: error= 2.18D-04 at cycle  17 NSaved=   7.
 NSaved= 7 IEnMin= 7 EnMin= -265.280569946436     IErMin= 7 ErrMin= 2.18D-04
 ErrMax= 2.18D-04  0.00D+00 EMaxC= 1.00D-01 BMatC= 3.01D-05 BMatP= 1.24D-04
 IDIUse=3 WtCom= 9.98D-01 WtEn= 2.18D-03
 Coeff-Com:  0.532D+00-0.571D+00-0.582D+00 0.348D+00 0.304D+00 0.332D+00
 Coeff-Com:  0.637D+00
 Coeff-En:   0.000D+00 0.000D+00 0.000D+00 0.000D+00 0.000D+00 0.000D+00
 Coeff-En:   0.100D+01
 Coeff:      0.531D+00-0.570D+00-0.580D+00 0.347D+00 0.303D+00 0.331D+00
 Coeff:      0.638D+00
 Gap=     0.137 Goal=   None    Shift=    0.000
 Gap=     0.150 Goal=   None    Shift=    0.000
 RMSDP=3.38D-04 MaxDP=3.60D-02 DE=-2.17D-04 OVMax= 2.13D-02

 Cycle  18  Pass 1  IDiag  1:
 RMSU=  6.21D-05    CP:  9.40D-01  2.94D+00  6.22D-01  1.05D+00  1.72D+00
                    CP:  3.00D+00  3.00D+00  3.00D+00  3.00D+00  3.00D+00
                    CP:  3.00D+00  3.00D+00  3.00D+00  3.00D+00  1.87D+00
                    CP:  2.06D+00  2.17D+00
 E= -265.280656381814     Delta-E=       -0.000086435379 Rises=F Damp=F
 DIIS: error= 6.33D-05 at cycle  18 NSaved=   8.
 NSaved= 8 IEnMin= 8 EnMin= -265.280656381814     IErMin= 8 ErrMin= 6.33D-05
 ErrMax= 6.33D-05  0.00D+00 EMaxC= 1.00D-01 BMatC= 3.73D-06 BMatP= 3.01D-05
 IDIUse=1 WtCom= 1.00D+00 WtEn= 0.00D+00
 Coeff-Com: -0.264D+00 0.193D+00 0.217D+00-0.129D+00-0.160D+00-0.114D+00
 Coeff-Com:  0.351D+00 0.906D+00
 Coeff:     -0.264D+00 0.193D+00 0.217D+00-0.129D+00-0.160D+00-0.114D+00
 Coeff:      0.351D+00 0.906D+00
 Gap=     0.137 Goal=   None    Shift=    0.000
 Gap=     0.150 Goal=   None    Shift=    0.000
 RMSDP=7.30D-05 MaxDP=7.17D-03 DE=-8.64D-05 OVMax= 4.95D-03

 Cycle  19  Pass 1  IDiag  1:
 RMSU=  2.52D-05    CP:  9.40D-01  2.94D+00  6.22D-01  1.05D+00  1.72D+00
                    CP:  3.00D+00  3.00D+00  3.00D+00  3.00D+00  3.00D+00
                    CP:  3.00D+00  3.00D+00  3.00D+00  3.00D+00  1.93D+00
                    CP:  2.19D+00  2.42D+00  1.18D+00
 E= -265.280653371884     Delta-E=        0.000003009931 Rises=F Damp=F
 DIIS: error= 6.58D-05 at cycle  19 NSaved=   9.
 NSaved= 9 IEnMin= 8 EnMin= -265.280656381814     IErMin= 8 ErrMin= 6.33D-05
 ErrMax= 6.58D-05  0.00D+00 EMaxC= 1.00D-01 BMatC= 2.97D-06 BMatP= 3.73D-06
 IDIUse=1 WtCom= 1.00D+00 WtEn= 0.00D+00
 Coeff-Com: -0.268D+00 0.213D+00 0.247D+00-0.133D+00-0.148D+00-0.724D-01
 Coeff-Com:  0.207D+00 0.298D+00 0.656D+00
 Coeff:     -0.268D+00 0.213D+00 0.247D+00-0.133D+00-0.148D+00-0.724D-01
 Coeff:      0.207D+00 0.298D+00 0.656D+00
 Gap=     0.137 Goal=   None    Shift=    0.000
 Gap=     0.150 Goal=   None    Shift=    0.000
 RMSDP=3.58D-05 MaxDP=3.69D-03 DE= 3.01D-06 OVMax= 2.27D-03

 Cycle  20  Pass 1  IDiag  1:
 RMSU=  9.64D-06    CP:  9.40D-01  2.94D+00  6.22D-01  1.05D+00  1.72D+00
                    CP:  3.00D+00  3.00D+00  3.00D+00  3.00D+00  3.00D+00
                    CP:  3.00D+00  3.00D+00  3.00D+00  3.00D+00  1.88D+00
                    CP:  2.13D+00  2.31D+00  1.07D+00  1.06D+00
 E= -265.280657709857     Delta-E=       -0.000004337973 Rises=F Damp=F
 DIIS: error= 4.70D-05 at cycle  20 NSaved=  10.
 NSaved=10 IEnMin=10 EnMin= -265.280657709857     IErMin=10 ErrMin= 4.70D-05
 ErrMax= 4.70D-05  0.00D+00 EMaxC= 1.00D-01 BMatC= 1.52D-06 BMatP= 2.97D-06
 IDIUse=1 WtCom= 1.00D+00 WtEn= 0.00D+00
 Coeff-Com: -0.132D+00 0.123D+00 0.133D+00-0.801D-01-0.762D-01-0.748D-02
 Coeff-Com:  0.112D+00-0.118D+00 0.494D+00 0.553D+00
 Coeff:     -0.132D+00 0.123D+00 0.133D+00-0.801D-01-0.762D-01-0.748D-02
 Coeff:      0.112D+00-0.118D+00 0.494D+00 0.553D+00
 Gap=     0.136 Goal=   None    Shift=    0.000
 Gap=     0.150 Goal=   None    Shift=    0.000
 RMSDP=4.86D-05 MaxDP=5.26D-03 DE=-4.34D-06 OVMax= 2.96D-03

 Cycle  21  Pass 1  IDiag  1:
 Restarting incremental Fock formation.
 E= -265.280660220160     Delta-E=       -0.000002510304 Rises=F Damp=F
 DIIS: error= 1.09D-05 at cycle  21 NSaved=  11.
 NSaved=11 IEnMin=11 EnMin= -265.280660220160     IErMin=11 ErrMin= 1.09D-05
 ErrMax= 1.09D-05  0.00D+00 EMaxC= 1.00D-01 BMatC= 1.17D-07 BMatP= 1.52D-06
 IDIUse=1 WtCom= 1.00D+00 WtEn= 0.00D+00
 Coeff-Com: -0.147D-01 0.315D-01 0.194D-01-0.292D-01-0.169D-01 0.779D-02
 Coeff-Com:  0.252D-01-0.127D+00 0.755D-01 0.260D+00 0.768D+00
 Coeff:     -0.147D-01 0.315D-01 0.194D-01-0.292D-01-0.169D-01 0.779D-02
 Coeff:      0.252D-01-0.127D+00 0.755D-01 0.260D+00 0.768D+00
 Gap=     0.136 Goal=   None    Shift=    0.000
 Gap=     0.150 Goal=   None    Shift=    0.000
 RMSDP=1.86D-05 MaxDP=1.79D-03 DE=-2.51D-06 OVMax= 1.09D-03

 Cycle  22  Pass 1  IDiag  1:
 RMSU=  1.83D-05    CP:  1.00D+00
 E= -265.280660123061     Delta-E=        0.000000097100 Rises=F Damp=F
 DIIS: error= 1.01D-05 at cycle  22 NSaved=  12.
 NSaved=12 IEnMin=11 EnMin= -265.280660220160     IErMin=12 ErrMin= 1.01D-05
 ErrMax= 1.01D-05  0.00D+00 EMaxC= 1.00D-01 BMatC= 1.05D-07 BMatP= 1.17D-07
 IDIUse=1 WtCom= 1.00D+00 WtEn= 0.00D+00
 Coeff-Com: -0.207D-01 0.221D-01 0.174D-01-0.199D-01-0.172D-01-0.958D-02
 Coeff-Com:  0.614D-02 0.815D-02-0.325D-01 0.281D-01 0.465D+00 0.553D+00
 Coeff:     -0.207D-01 0.221D-01 0.174D-01-0.199D-01-0.172D-01-0.958D-02
 Coeff:      0.614D-02 0.815D-02-0.325D-01 0.281D-01 0.465D+00 0.553D+00
 Gap=     0.137 Goal=   None    Shift=    0.000
 Gap=     0.150 Goal=   None    Shift=    0.000
 RMSDP=1.90D-05 MaxDP=2.06D-03 DE= 9.71D-08 OVMax= 1.18D-03

 Cycle  23  Pass 1  IDiag  1:
 RMSU=  6.30D-06    CP:  1.00D+00  4.02D-02
 E= -265.280660328458     Delta-E=       -0.000000205397 Rises=F Damp=F
 DIIS: error= 4.10D-06 at cycle  23 NSaved=  13.
 NSaved=13 IEnMin=13 EnMin= -265.280660328458     IErMin=13 ErrMin= 4.10D-06
 ErrMax= 4.10D-06  0.00D+00 EMaxC= 1.00D-01 BMatC= 1.06D-08 BMatP= 1.05D-07
 IDIUse=1 WtCom= 1.00D+00 WtEn= 0.00D+00
 Coeff-Com:  0.170D-01-0.106D-01-0.150D-01 0.546D-02 0.710D-02 0.233D-02
 Coeff-Com: -0.142D-01-0.233D-02-0.463D-01-0.147D-01 0.323D-01 0.212D+00
 Coeff-Com:  0.827D+00
 Coeff:      0.170D-01-0.106D-01-0.150D-01 0.546D-02 0.710D-02 0.233D-02
 Coeff:     -0.142D-01-0.233D-02-0.463D-01-0.147D-01 0.323D-01 0.212D+00
 Coeff:      0.827D+00
 Gap=     0.136 Goal=   None    Shift=    0.000
 Gap=     0.150 Goal=   None    Shift=    0.000
 RMSDP=9.03D-06 MaxDP=9.37D-04 DE=-2.05D-07 OVMax= 5.31D-04

 Cycle  24  Pass 1  IDiag  1:
 RMSU=  7.75D-07    CP:  1.00D+00  5.20D-01  8.01D-01
 E= -265.280660317405     Delta-E=        0.000000011053 Rises=F Damp=F
 DIIS: error= 5.00D-06 at cycle  24 NSaved=  14.
 NSaved=14 IEnMin=13 EnMin= -265.280660328458     IErMin=13 ErrMin= 4.10D-06
 ErrMax= 5.00D-06  0.00D+00 EMaxC= 1.00D-01 BMatC= 1.43D-08 BMatP= 1.06D-08
 IDIUse=1 WtCom= 1.00D+00 WtEn= 0.00D+00
 Coeff-Com:  0.268D-02-0.346D-02-0.217D-02 0.341D-02 0.175D-02 0.361D-03
 Coeff-Com: -0.540D-02 0.752D-02-0.499D-02 0.495D-02-0.961D-01-0.573D-01
 Coeff-Com:  0.547D+00 0.602D+00
 Coeff:      0.268D-02-0.346D-02-0.217D-02 0.341D-02 0.175D-02 0.361D-03
 Coeff:     -0.540D-02 0.752D-02-0.499D-02 0.495D-02-0.961D-01-0.573D-01
 Coeff:      0.547D+00 0.602D+00
 Gap=     0.137 Goal=   None    Shift=    0.000
 Gap=     0.150 Goal=   None    Shift=    0.000
 RMSDP=5.54D-06 MaxDP=5.86D-04 DE= 1.11D-08 OVMax= 3.46D-04

 Cycle  25  Pass 1  IDiag  1:
 RMSU=  3.84D-07    CP:  1.00D+00  2.32D-01  1.02D+00  8.27D-01
 E= -265.280660345049     Delta-E=       -0.000000027644 Rises=F Damp=F
 DIIS: error= 6.67D-07 at cycle  25 NSaved=  15.
 NSaved=15 IEnMin=15 EnMin= -265.280660345049     IErMin=15 ErrMin= 6.67D-07
 ErrMax= 6.67D-07  0.00D+00 EMaxC= 1.00D-01 BMatC= 6.62D-10 BMatP= 1.06D-08
 IDIUse=1 WtCom= 1.00D+00 WtEn= 0.00D+00
 Coeff-Com:  0.103D-02-0.169D-02-0.673D-03 0.226D-02 0.139D-02 0.127D-02
 Coeff-Com: -0.110D-02-0.260D-02 0.816D-02 0.165D-01-0.641D-01-0.123D+00
 Coeff-Com:  0.818D-01 0.314D+00 0.767D+00
 Coeff:      0.103D-02-0.169D-02-0.673D-03 0.226D-02 0.139D-02 0.127D-02
 Coeff:     -0.110D-02-0.260D-02 0.816D-02 0.165D-01-0.641D-01-0.123D+00
 Coeff:      0.818D-01 0.314D+00 0.767D+00
 Gap=     0.137 Goal=   None    Shift=    0.000
 Gap=     0.150 Goal=   None    Shift=    0.000
 RMSDP=2.76D-07 MaxDP=2.16D-05 DE=-2.76D-08 OVMax= 1.95D-05

 Cycle  26  Pass 1  IDiag  1:
 RMSU=  1.55D-07    CP:  1.00D+00  2.41D-01  1.03D+00  9.59D-01  1.27D+00
 E= -265.280660345456     Delta-E=       -0.000000000407 Rises=F Damp=F
 DIIS: error= 2.99D-07 at cycle  26 NSaved=  16.
 NSaved=16 IEnMin=16 EnMin= -265.280660345456     IErMin=16 ErrMin= 2.99D-07
 ErrMax= 2.99D-07  0.00D+00 EMaxC= 1.00D-01 BMatC= 8.45D-11 BMatP= 6.62D-10
 IDIUse=1 WtCom= 1.00D+00 WtEn= 0.00D+00
 Coeff-Com: -0.187D-02 0.153D-02 0.166D-02-0.763D-03-0.670D-03-0.306D-03
 Coeff-Com:  0.132D-02-0.927D-03 0.589D-02 0.559D-02-0.246D-02-0.342D-01
 Coeff-Com: -0.103D+00-0.141D-01 0.213D+00 0.929D+00
 Coeff:     -0.187D-02 0.153D-02 0.166D-02-0.763D-03-0.670D-03-0.306D-03
 Coeff:      0.132D-02-0.927D-03 0.589D-02 0.559D-02-0.246D-02-0.342D-01
 Coeff:     -0.103D+00-0.141D-01 0.213D+00 0.929D+00
 Gap=     0.137 Goal=   None    Shift=    0.000
 Gap=     0.150 Goal=   None    Shift=    0.000
 RMSDP=5.19D-07 MaxDP=5.18D-05 DE=-4.07D-10 OVMax= 3.24D-05

 Cycle  27  Pass 1  IDiag  1:
 RMSU=  8.04D-08    CP:  1.00D+00  2.16D-01  1.05D+00  9.86D-01  1.46D+00
                    CP:  1.37D+00
 E= -265.280660345483     Delta-E=       -0.000000000027 Rises=F Damp=F
 DIIS: error= 3.54D-07 at cycle  27 NSaved=  17.
 NSaved=17 IEnMin=17 EnMin= -265.280660345483     IErMin=16 ErrMin= 2.99D-07
 ErrMax= 3.54D-07  0.00D+00 EMaxC= 1.00D-01 BMatC= 5.25D-11 BMatP= 8.45D-11
 IDIUse=1 WtCom= 1.00D+00 WtEn= 0.00D+00
 Coeff-Com: -0.218D-03 0.538D-03 0.265D-03-0.683D-03-0.276D-03-0.259D-03
 Coeff-Com:  0.314D-03 0.347D-03-0.636D-03-0.321D-02 0.100D-01 0.173D-01
 Coeff-Com: -0.366D-01-0.257D-01-0.144D+00 0.111D+00 0.107D+01
 Coeff:     -0.218D-03 0.538D-03 0.265D-03-0.683D-03-0.276D-03-0.259D-03
 Coeff:      0.314D-03 0.347D-03-0.636D-03-0.321D-02 0.100D-01 0.173D-01
 Coeff:     -0.366D-01-0.257D-01-0.144D+00 0.111D+00 0.107D+01
 Gap=     0.137 Goal=   None    Shift=    0.000
 Gap=     0.150 Goal=   None    Shift=    0.000
 RMSDP=4.71D-07 MaxDP=4.61D-05 DE=-2.69D-11 OVMax= 2.78D-05

 Cycle  28  Pass 1  IDiag  1:
 RMSU=  4.01D-08    CP:  1.00D+00  2.41D-01  1.05D+00  1.03D+00  1.46D+00
                    CP:  1.53D+00  1.30D+00
 E= -265.280660345578     Delta-E=       -0.000000000095 Rises=F Damp=F
 DIIS: error= 1.09D-07 at cycle  28 NSaved=  18.
 NSaved=18 IEnMin=18 EnMin= -265.280660345578     IErMin=18 ErrMin= 1.09D-07
 ErrMax= 1.09D-07  0.00D+00 EMaxC= 1.00D-01 BMatC= 8.88D-12 BMatP= 5.25D-11
 IDIUse=1 WtCom= 1.00D+00 WtEn= 0.00D+00
 Coeff-Com: -0.262D-05 0.273D-04 0.405D-04-0.680D-04-0.626D-04-0.224D-04
 Coeff-Com: -0.121D-03 0.234D-03 0.485D-03-0.190D-04-0.241D-03-0.837D-03
 Coeff-Com:  0.110D-01-0.209D-02-0.150D-01-0.112D+00-0.160D-01 0.113D+01
 Coeff:     -0.262D-05 0.273D-04 0.405D-04-0.680D-04-0.626D-04-0.224D-04
 Coeff:     -0.121D-03 0.234D-03 0.485D-03-0.190D-04-0.241D-03-0.837D-03
 Coeff:      0.110D-01-0.209D-02-0.150D-01-0.112D+00-0.160D-01 0.113D+01
 Gap=     0.137 Goal=   None    Shift=    0.000
 Gap=     0.150 Goal=   None    Shift=    0.000
 RMSDP=1.55D-07 MaxDP=1.77D-05 DE=-9.46D-11 OVMax= 9.48D-06

 Cycle  29  Pass 1  IDiag  1:
 RMSU=  1.26D-08    CP:  1.00D+00  2.33D-01  1.06D+00  1.03D+00  1.47D+00
                    CP:  1.56D+00  1.39D+00  1.28D+00
 E= -265.280660345599     Delta-E=       -0.000000000021 Rises=F Damp=F
 DIIS: error= 2.01D-08 at cycle  29 NSaved=  19.
 NSaved=19 IEnMin=19 EnMin= -265.280660345599     IErMin=19 ErrMin= 2.01D-08
 ErrMax= 2.01D-08  0.00D+00 EMaxC= 1.00D-01 BMatC= 3.80D-13 BMatP= 8.88D-12
 IDIUse=1 WtCom= 1.00D+00 WtEn= 0.00D+00
 Coeff-Com:  0.849D-04-0.861D-04-0.810D-04 0.873D-04 0.540D-04 0.545D-04
 Coeff-Com: -0.609D-04-0.179D-03 0.210D-03 0.455D-03-0.852D-03-0.243D-02
 Coeff-Com:  0.458D-02 0.507D-03 0.161D-01-0.810D-02-0.122D+00-0.278D-02
 Coeff-Com:  0.111D+01
 Coeff:      0.849D-04-0.861D-04-0.810D-04 0.873D-04 0.540D-04 0.545D-04
 Coeff:     -0.609D-04-0.179D-03 0.210D-03 0.455D-03-0.852D-03-0.243D-02
 Coeff:      0.458D-02 0.507D-03 0.161D-01-0.810D-02-0.122D+00-0.278D-02
 Coeff:      0.111D+01
 Gap=     0.137 Goal=   None    Shift=    0.000
 Gap=     0.150 Goal=   None    Shift=    0.000
 RMSDP=1.83D-08 MaxDP=2.05D-06 DE=-2.15D-11 OVMax= 1.33D-06

 Cycle  30  Pass 1  IDiag  1:
 RMSU=  3.96D-09    CP:  1.00D+00  2.32D-01  1.06D+00  1.03D+00  1.47D+00
                    CP:  1.56D+00  1.40D+00  1.35D+00  1.25D+00
 E= -265.280660345603     Delta-E=       -0.000000000004 Rises=F Damp=F
 DIIS: error= 9.03D-09 at cycle  30 NSaved=  20.
 NSaved=20 IEnMin=20 EnMin= -265.280660345603     IErMin=20 ErrMin= 9.03D-09
 ErrMax= 9.03D-09  0.00D+00 EMaxC= 1.00D-01 BMatC= 1.03D-13 BMatP= 3.80D-13
 IDIUse=1 WtCom= 1.00D+00 WtEn= 0.00D+00
 Coeff-Com: -0.123D-04 0.409D-05 0.111D-04 0.395D-05 0.652D-06 0.304D-05
 Coeff-Com:  0.128D-04-0.619D-04-0.113D-04 0.278D-05 0.248D-03 0.409D-04
 Coeff-Com: -0.177D-02-0.130D-02 0.185D-02 0.191D-01 0.128D-01-0.173D+00
 Coeff-Com: -0.838D-03 0.114D+01
 Coeff:     -0.123D-04 0.409D-05 0.111D-04 0.395D-05 0.652D-06 0.304D-05
 Coeff:      0.128D-04-0.619D-04-0.113D-04 0.278D-05 0.248D-03 0.409D-04
 Coeff:     -0.177D-02-0.130D-02 0.185D-02 0.191D-01 0.128D-01-0.173D+00
 Coeff:     -0.838D-03 0.114D+01
 Gap=     0.137 Goal=   None    Shift=    0.000
 Gap=     0.150 Goal=   None    Shift=    0.000
 RMSDP=1.88D-08 MaxDP=1.93D-06 DE=-3.52D-12 OVMax= 1.17D-06

 Cycle  31  Pass 1  IDiag  1:
 RMSU=  1.66D-09    CP:  1.00D+00  2.32D-01  1.06D+00  1.03D+00  1.47D+00
                    CP:  1.55D+00  1.40D+00  1.34D+00  1.32D+00  1.47D+00
 E= -265.280660345595     Delta-E=        0.000000000008 Rises=F Damp=F
 DIIS: error= 4.24D-09 at cycle  31 NSaved=  20.
 NSaved=20 IEnMin=19 EnMin= -265.280660345603     IErMin=20 ErrMin= 4.24D-09
 ErrMax= 4.24D-09  0.00D+00 EMaxC= 1.00D-01 BMatC= 9.21D-15 BMatP= 1.03D-13
 IDIUse=1 WtCom= 1.00D+00 WtEn= 0.00D+00
 Large coefficients: NSaved= 20 BigCof=    0.00 CofMax=   10.00 Det=-7.09D-15
 Inversion failed.  Reducing to 19 matrices.
 Large coefficients: NSaved= 19 BigCof=    0.00 CofMax=   10.00 Det=-7.41D-15
 Inversion failed.  Reducing to 18 matrices.
 Large coefficients: NSaved= 18 BigCof=    0.00 CofMax=   10.00 Det=-7.47D-15
 Inversion failed.  Reducing to 17 matrices.
 Large coefficients: NSaved= 17 BigCof=    0.00 CofMax=   10.00 Det=-7.78D-15
 Inversion failed.  Reducing to 16 matrices.
 Large coefficients: NSaved= 16 BigCof=    0.00 CofMax=   10.00 Det=-8.47D-15
 Inversion failed.  Reducing to 15 matrices.
 Coeff-Com:  0.339D-05 0.113D-05-0.202D-04-0.586D-04 0.703D-04 0.118D-03
 Coeff-Com: -0.472D-03 0.353D-04-0.683D-04 0.392D-02 0.300D-02-0.265D-01
 Coeff-Com: -0.674D-01 0.998D-01 0.988D+00
 Coeff:      0.339D-05 0.113D-05-0.202D-04-0.586D-04 0.703D-04 0.118D-03
 Coeff:     -0.472D-03 0.353D-04-0.683D-04 0.392D-02 0.300D-02-0.265D-01
 Coeff:     -0.674D-01 0.998D-01 0.988D+00
 Gap=     0.137 Goal=   None    Shift=    0.000
 Gap=     0.150 Goal=   None    Shift=    0.000
 RMSDP=3.98D-09 MaxDP=3.90D-07 DE= 7.50D-12 OVMax= 2.39D-07

 SCF Done:  E(UB3LYP) =  -265.280660346     A.U. after   31 cycles
            NFock= 31  Conv=0.40D-08     -V/T= 2.0041
 <Sx>= 0.0000 <Sy>= 0.0000 <Sz>= 1.0000 <S**2>= 2.6642 S= 1.2071
 <L.S>= 0.000000000000E+00
 KE= 2.641905473239D+02 PE=-1.027027833973D+03 EE= 2.813748194597D+02
 Annihilation of the first spin contaminant:
 S**2 before annihilation     2.6642,   after     2.0925
 Leave Link  502 at Tue Jul  5 23:39:26 2016, MaxMem=    33554432 cpu:      3293.2
 (Enter /home/proyectos/fulerenos/M3C-v1.9/M3C-deps_CCC/g09-AM64L-G09RevC.01/l801.exe)
 DoSCS=F DFT=T ScalE2(SS,OS)=  1.000000  1.000000
 Range of M.O.s used for correlation:     1   273
 NBasis=   273 NAE=    21 NBE=    19 NFC=     0 NFV=     0
 NROrb=    273 NOA=    21 NOB=    19 NVA=   252 NVB=   254

 **** Warning!!: The largest alpha MO coefficient is  0.84865377D+02


 **** Warning!!: The largest beta MO coefficient is  0.92978307D+02

 Leave Link  801 at Tue Jul  5 23:39:26 2016, MaxMem=    33554432 cpu:         0.1
 (Enter /home/proyectos/fulerenos/M3C-v1.9/M3C-deps_CCC/g09-AM64L-G09RevC.01/l1101.exe)
 Using compressed storage, NAtomX=     7.
 Will process      8 centers per pass.
 Leave Link 1101 at Tue Jul  5 23:39:26 2016, MaxMem=    33554432 cpu:         2.3
 (Enter /home/proyectos/fulerenos/M3C-v1.9/M3C-deps_CCC/g09-AM64L-G09RevC.01/l1102.exe)
 Symmetrizing basis deriv contribution to polar:
 IMax=3 JMax=2 DiffMx= 0.00D+00
 Leave Link 1102 at Tue Jul  5 23:39:27 2016, MaxMem=    33554432 cpu:         0.5
 (Enter /home/proyectos/fulerenos/M3C-v1.9/M3C-deps_CCC/g09-AM64L-G09RevC.01/l1110.exe)
 Forming Gx(P) for the SCF density, NAtomX=     7.
 Integral derivatives from FoFJK, PRISM(SPDF).
 Do as many integral derivatives as possible in FoFJK.
 G2DrvN: MDV=      33554272.
 G2DrvN: will do     8 centers at a time, making    1 passes.
 Calling FoFCou, ICntrl=  3107 FMM=F I1Cent=   0 AccDes= 0.00D+00.
 FoFJK:  IHMeth= 1 ICntrl=    3107 DoSepK=F KAlg= 0 I1Cent=   0 FoldK=F
 IRaf=         0 NMat=   1 IRICut=       1 DoRegI=T DoRafI=F ISym2E= 0.
 FoFCou: FMM=F IPFlag=           0 FMFlag=      100000 FMFlg1=           0
         NFxFlg=           0 DoJE=F BraDBF=F KetDBF=F FulRan=T
         wScrn=  0.000000 ICntrl=    3107 IOpCl=  1 I1Cent=           0 NGrid=           0
         NMat0=    1 NMatS0=      1 NMatT0=    0 NMatD0=    1 NMtDS0=    0 NMtDT0=    0
 Symmetry not used in FoFCou.
 End of G2Drv F.D. properties file   721 does not exist.
 End of G2Drv F.D. properties file   722 does not exist.
 End of G2Drv F.D. properties file   788 does not exist.
 Leave Link 1110 at Tue Jul  5 23:43:36 2016, MaxMem=    33554432 cpu:       823.8
 (Enter /home/proyectos/fulerenos/M3C-v1.9/M3C-deps_CCC/g09-AM64L-G09RevC.01/l1002.exe)
 Minotr:  UHF open shell wavefunction.
          IDoAtm=1111111
          Direct CPHF calculation.
          Differentiating once with respect to electric field.
                with respect to dipole field.
          Differentiating once with respect to nuclear coordinates.
          Requested convergence is 1.0D-08 RMS, and 1.0D-07 maximum.
          Secondary convergence is 1.0D-12 RMS, and 1.0D-12 maximum.
          NewPWx=T KeepS1=F KeepF1=F KeepIn=T MapXYZ=F SortEE=F KeepMc=T.
          MDV=      33553812 using IRadAn=       2.
 Generate precomputed XC quadrature information.
          Solving linear equations simultaneously, MaxMat=       0.
 FoFJK:  IHMeth= 1 ICntrl=       0 DoSepK=F KAlg= 0 I1Cent=   0 FoldK=F
 IRaf= 990000000 NMat=  24 IRICut=      60 DoRegI=T DoRafI=T ISym2E= 2.
 FoFCou: FMM=F IPFlag=           0 FMFlag=      100000 FMFlg1=           0
         NFxFlg=           0 DoJE=F BraDBF=F KetDBF=F FulRan=T
         wScrn=  0.000000 ICntrl=       0 IOpCl=  1 I1Cent=           0 NGrid=           0
         NMat0=   24 NMatS0=     24 NMatT0=    0 NMatD0=   24 NMtDS0=    0 NMtDT0=    0
 Integrals replicated using symmetry in FoFCou.
          There are    24 degrees of freedom in the 1st order CPHF.  IDoFFX=6 NUNeed=     3.
     21 vectors produced by pass  0 Test12= 4.22D-14 4.17D-09 XBig12= 2.91D+02 5.87D+00.
 AX will form    21 AO Fock derivatives at one time.
     21 vectors produced by pass  1 Test12= 4.22D-14 4.17D-09 XBig12= 8.67D+01 1.70D+00.
     21 vectors produced by pass  2 Test12= 4.22D-14 4.17D-09 XBig12= 4.05D+00 4.98D-01.
     21 vectors produced by pass  3 Test12= 4.22D-14 4.17D-09 XBig12= 1.68D-01 7.42D-02.
     21 vectors produced by pass  4 Test12= 4.22D-14 4.17D-09 XBig12= 3.01D-03 1.04D-02.
     21 vectors produced by pass  5 Test12= 4.22D-14 4.17D-09 XBig12= 5.72D-05 1.15D-03.
     21 vectors produced by pass  6 Test12= 4.22D-14 4.17D-09 XBig12= 6.46D-07 1.44D-04.
     21 vectors produced by pass  7 Test12= 4.22D-14 4.17D-09 XBig12= 5.78D-09 9.63D-06.
     12 vectors produced by pass  8 Test12= 4.22D-14 4.17D-09 XBig12= 3.15D-11 7.39D-07.
      3 vectors produced by pass  9 Test12= 4.22D-14 4.17D-09 XBig12= 2.12D-13 5.66D-08.
      3 vectors produced by pass 10 Test12= 4.22D-14 4.17D-09 XBig12= 3.05D-14 3.49D-08.
      1 vectors produced by pass 11 Test12= 4.22D-14 4.17D-09 XBig12= 6.45D-16 6.53D-09.
 InvSVY:  IOpt=1 It=  1 EMax= 1.78D-14
 Solved reduced A of dimension   187 with    24 vectors.
 FullF1:  Do perturbations    1 to     3.
 Isotropic polarizability for W=    0.000000       51.86 Bohr**3.
 End of Minotr F.D. properties file   721 does not exist.
 End of Minotr F.D. properties file   722 does not exist.
 End of Minotr F.D. properties file   788 does not exist.
 Leave Link 1002 at Wed Jul  6 00:02:12 2016, MaxMem=    33554432 cpu:      4054.1
 (Enter /home/proyectos/fulerenos/M3C-v1.9/M3C-deps_CCC/g09-AM64L-G09RevC.01/l601.exe)
 Copying SCF densities to generalized density rwf, IOpCl= 1 IROHF=0.

 **********************************************************************

            Population analysis using the SCF density.

 **********************************************************************

 Orbital symmetries:
 Alpha Orbitals:
       Occupied  (A) (A) (A) (A) (A) (A) (A) (A) (A) (A) (A) (A)
                 (A) (A) (A) (A) (A) (A) (A) (A) (A)
       Virtual   (A) (A) (A) (A) (A) (A) (A) (A) (A) (A) (A) (A)
                 (A) (A) (A) (A) (A) (A) (A) (A) (A) (A) (A) (A)
                 (A) (A) (A) (A) (A) (A) (A) (A) (A) (A) (A) (A)
                 (A) (A) (A) (A) (A) (A) (A) (A) (A) (A) (A) (A)
                 (A) (A) (A) (A) (A) (A) (A) (A) (A) (A) (A) (A)
                 (A) (A) (A) (A) (A) (A) (A) (A) (A) (A) (A) (A)
                 (A) (A) (A) (A) (A) (A) (A) (A) (A) (A) (A) (A)
                 (A) (A) (A) (A) (A) (A) (A) (A) (A) (A) (A) (A)
                 (A) (A) (A) (A) (A) (A) (A) (A) (A) (A) (A) (A)
                 (A) (A) (A) (A) (A) (A) (A) (A) (A) (A) (A) (A)
                 (A) (A) (A) (A) (A) (A) (A) (A) (A) (A) (A) (A)
                 (A) (A) (A) (A) (A) (A) (A) (A) (A) (A) (A) (A)
                 (A) (A) (A) (A) (A) (A) (A) (A) (A) (A) (A) (A)
                 (A) (A) (A) (A) (A) (A) (A) (A) (A) (A) (A) (A)
                 (A) (A) (A) (A) (A) (A) (A) (A) (A) (A) (A) (A)
                 (A) (A) (A) (A) (A) (A) (A) (A) (A) (A) (A) (A)
                 (A) (A) (A) (A) (A) (A) (A) (A) (A) (A) (A) (A)
                 (A) (A) (A) (A) (A) (A) (A) (A) (A) (A) (A) (A)
                 (A) (A) (A) (A) (A) (A) (A) (A) (A) (A) (A) (A)
                 (A) (A) (A) (A) (A) (A) (A) (A) (A) (A) (A) (A)
                 (A) (A) (A) (A) (A) (A) (A) (A) (A) (A) (A) (A)
 Beta  Orbitals:
       Occupied  (A) (A) (A) (A) (A) (A) (A) (A) (A) (A) (A) (A)
                 (A) (A) (A) (A) (A) (A) (A)
       Virtual   (A) (A) (A) (A) (A) (A) (A) (A) (A) (A) (A) (A)
                 (A) (A) (A) (A) (A) (A) (A) (A) (A) (A) (A) (A)
                 (A) (A) (A) (A) (A) (A) (A) (A) (A) (A) (A) (A)
                 (A) (A) (A) (A) (A) (A) (A) (A) (A) (A) (A) (A)
                 (A) (A) (A) (A) (A) (A) (A) (A) (A) (A) (A) (A)
                 (A) (A) (A) (A) (A) (A) (A) (A) (A) (A) (A) (A)
                 (A) (A) (A) (A) (A) (A) (A) (A) (A) (A) (A) (A)
                 (A) (A) (A) (A) (A) (A) (A) (A) (A) (A) (A) (A)
                 (A) (A) (A) (A) (A) (A) (A) (A) (A) (A) (A) (A)
                 (A) (A) (A) (A) (A) (A) (A) (A) (A) (A) (A) (A)
                 (A) (A) (A) (A) (A) (A) (A) (A) (A) (A) (A) (A)
                 (A) (A) (A) (A) (A) (A) (A) (A) (A) (A) (A) (A)
                 (A) (A) (A) (A) (A) (A) (A) (A) (A) (A) (A) (A)
                 (A) (A) (A) (A) (A) (A) (A) (A) (A) (A) (A) (A)
                 (A) (A) (A) (A) (A) (A) (A) (A) (A) (A) (A) (A)
                 (A) (A) (A) (A) (A) (A) (A) (A) (A) (A) (A) (A)
                 (A) (A) (A) (A) (A) (A) (A) (A) (A) (A) (A) (A)
                 (A) (A) (A) (A) (A) (A) (A) (A) (A) (A) (A) (A)
                 (A) (A) (A) (A) (A) (A) (A) (A) (A) (A) (A) (A)
                 (A) (A) (A) (A) (A) (A) (A) (A) (A) (A) (A) (A)
                 (A) (A) (A) (A) (A) (A) (A) (A) (A) (A) (A) (A)
                 (A) (A)
 The electronic state is 3-A.
 Alpha  occ. eigenvalues --  -10.84083 -10.83520 -10.80428 -10.80084 -10.79750
 Alpha  occ. eigenvalues --  -10.77592 -10.75436  -1.56737  -1.37357  -1.26323
 Alpha  occ. eigenvalues --   -1.20173  -1.10650  -1.07083  -1.00312  -0.96160
 Alpha  occ. eigenvalues --   -0.93369  -0.86375  -0.83144  -0.81852  -0.78576
 Alpha  occ. eigenvalues --   -0.77525
 Alpha virt. eigenvalues --   -0.63875  -0.61124  -0.59513  -0.51658  -0.49813
 Alpha virt. eigenvalues --   -0.49127  -0.34884  -0.30346  -0.29194  -0.28813
 Alpha virt. eigenvalues --   -0.24892  -0.24588  -0.24042  -0.23452  -0.22031
 Alpha virt. eigenvalues --   -0.21404  -0.21090  -0.19869  -0.19026  -0.18275
 Alpha virt. eigenvalues --   -0.17263  -0.16527  -0.15107  -0.14765  -0.14420
 Alpha virt. eigenvalues --   -0.13610  -0.12599  -0.11796  -0.09410  -0.09245
 Alpha virt. eigenvalues --   -0.08627  -0.08060  -0.07518  -0.07307  -0.06750
 Alpha virt. eigenvalues --   -0.06194  -0.05438  -0.04367  -0.03513  -0.02787
 Alpha virt. eigenvalues --   -0.02036  -0.01594  -0.00873   0.01095   0.02660
 Alpha virt. eigenvalues --    0.04020   0.05292   0.06560   0.07469   0.08604
 Alpha virt. eigenvalues --    0.09135   0.10023   0.11368   0.12661   0.13984
 Alpha virt. eigenvalues --    0.14587   0.14887   0.16166   0.17087   0.17691
 Alpha virt. eigenvalues --    0.18956   0.19852   0.21517   0.21804   0.22997
 Alpha virt. eigenvalues --    0.23383   0.23866   0.24928   0.25987   0.27448
 Alpha virt. eigenvalues --    0.28155   0.28404   0.29879   0.31466   0.31789
 Alpha virt. eigenvalues --    0.34507   0.37242   0.38877   0.39358   0.42223
 Alpha virt. eigenvalues --    0.43835   0.44540   0.48006   0.50466   0.51913
 Alpha virt. eigenvalues --    0.52505   0.53375   0.55508   0.59157   0.59837
 Alpha virt. eigenvalues --    0.63385   0.64333   0.65587   0.66648   0.67354
 Alpha virt. eigenvalues --    0.69894   0.71521   0.74004   0.75625   0.78980
 Alpha virt. eigenvalues --    0.80427   0.83820   0.86760   0.91340   0.92920
 Alpha virt. eigenvalues --    0.94211   0.95048   0.98661   0.99888   1.02921
 Alpha virt. eigenvalues --    1.04584   1.11233   1.13429   1.18199   1.19440
 Alpha virt. eigenvalues --    1.20534   1.26572   1.27964   1.30256   1.34389
 Alpha virt. eigenvalues --    1.37177   1.38821   1.43601   1.45565   1.49232
 Alpha virt. eigenvalues --    1.52020   1.53427   1.54667   1.55936   1.58603
 Alpha virt. eigenvalues --    1.63967   1.65070   1.67945   1.68210   1.72166
 Alpha virt. eigenvalues --    1.72859   1.82360   1.85824   1.98017   1.99036
 Alpha virt. eigenvalues --    2.00181   2.08114   2.09292   2.14814   2.20259
 Alpha virt. eigenvalues --    2.24174   2.25773   2.27671   2.31032   2.34591
 Alpha virt. eigenvalues --    2.35869   2.39779   2.41108   2.43052   2.45388
 Alpha virt. eigenvalues --    2.47263   2.51102   2.51664   2.53126   2.59029
 Alpha virt. eigenvalues --    2.61173   2.64760   2.66736   2.68191   2.70953
 Alpha virt. eigenvalues --    2.72316   2.75775   2.80889   2.83867   2.85848
 Alpha virt. eigenvalues --    2.87504   2.91878   2.93385   2.94169   2.97873
 Alpha virt. eigenvalues --    3.02746   3.04606   3.08566   3.11205   3.12246
 Alpha virt. eigenvalues --    3.18864   3.29631   3.32194   3.36416   3.39730
 Alpha virt. eigenvalues --    3.41918   3.46274   3.47782   3.52289   3.57720
 Alpha virt. eigenvalues --    3.59574   3.64131   3.70589   3.72966   3.77950
 Alpha virt. eigenvalues --    3.83122   3.85500   3.94446   4.00967   4.05768
 Alpha virt. eigenvalues --    4.07217   4.10422   4.25481   4.30278   4.34324
 Alpha virt. eigenvalues --    4.46143   4.48944   4.75418   5.11038   5.47712
 Alpha virt. eigenvalues --    6.40839   6.47136   6.52864   6.53682   6.57505
 Alpha virt. eigenvalues --    6.58789   6.59684   6.62996   6.64205   6.67472
 Alpha virt. eigenvalues --    6.71465   6.79330   6.83408   6.86904   6.89818
 Alpha virt. eigenvalues --    6.90900   6.95425   6.98523   7.01024   7.08873
 Alpha virt. eigenvalues --    7.10291   7.14957   7.26922   7.27457   7.35993
 Alpha virt. eigenvalues --    7.38156   7.42616   7.52258   7.60935   7.65667
 Alpha virt. eigenvalues --    7.73058   7.89186   7.96652   8.29575   8.56170
 Alpha virt. eigenvalues --   23.52408  23.89946  24.12754  24.43778  24.55771
 Alpha virt. eigenvalues --   24.65597  25.57234
  Beta  occ. eigenvalues --  -10.83787 -10.83497 -10.79125 -10.78443 -10.78144
  Beta  occ. eigenvalues --  -10.77098 -10.76252  -1.55608  -1.36833  -1.25131
  Beta  occ. eigenvalues --   -1.18194  -1.09825  -1.05748  -0.98948  -0.93057
  Beta  occ. eigenvalues --   -0.91472  -0.84008  -0.80749  -0.79628
  Beta virt. eigenvalues --   -0.64662  -0.64058  -0.61939  -0.59953  -0.56977
  Beta virt. eigenvalues --   -0.49256  -0.48065  -0.46829  -0.33692  -0.29283
  Beta virt. eigenvalues --   -0.28688  -0.28103  -0.24624  -0.24125  -0.23656
  Beta virt. eigenvalues --   -0.22998  -0.21466  -0.20961  -0.20468  -0.19111
  Beta virt. eigenvalues --   -0.18761  -0.17688  -0.16230  -0.15795  -0.14842
  Beta virt. eigenvalues --   -0.14594  -0.14072  -0.12921  -0.12162  -0.11209
  Beta virt. eigenvalues --   -0.09119  -0.09102  -0.07938  -0.07725  -0.07306
  Beta virt. eigenvalues --   -0.07121  -0.06334  -0.06021  -0.04989  -0.04175
  Beta virt. eigenvalues --   -0.02721  -0.02237  -0.01332  -0.01291  -0.00220
  Beta virt. eigenvalues --    0.01085   0.03483   0.04603   0.05546   0.06971
  Beta virt. eigenvalues --    0.08140   0.09111   0.09768   0.10745   0.11687
  Beta virt. eigenvalues --    0.13456   0.13973   0.15484   0.15698   0.16318
  Beta virt. eigenvalues --    0.17546   0.18750   0.19860   0.20158   0.21935
  Beta virt. eigenvalues --    0.22794   0.23698   0.24565   0.24672   0.26017
  Beta virt. eigenvalues --    0.26874   0.27822   0.28468   0.29219   0.30427
  Beta virt. eigenvalues --    0.32121   0.32473   0.34935   0.37457   0.39366
  Beta virt. eigenvalues --    0.39777   0.42603   0.44351   0.44991   0.48285
  Beta virt. eigenvalues --    0.50827   0.52344   0.53082   0.54063   0.56010
  Beta virt. eigenvalues --    0.59860   0.60190   0.63911   0.65431   0.66004
  Beta virt. eigenvalues --    0.66932   0.67810   0.70319   0.72034   0.74805
  Beta virt. eigenvalues --    0.75977   0.80189   0.82267   0.85128   0.87676
  Beta virt. eigenvalues --    0.92242   0.93989   0.94415   0.95374   1.00689
  Beta virt. eigenvalues --    1.01738   1.03655   1.06134   1.13463   1.15049
  Beta virt. eigenvalues --    1.18384   1.20411   1.22029   1.27693   1.30663
  Beta virt. eigenvalues --    1.32040   1.35018   1.39492   1.40213   1.45278
  Beta virt. eigenvalues --    1.47742   1.49331   1.54580   1.55926   1.57579
  Beta virt. eigenvalues --    1.58860   1.60822   1.64599   1.66041   1.69058
  Beta virt. eigenvalues --    1.69705   1.74313   1.75765   1.83693   1.87281
  Beta virt. eigenvalues --    1.99313   2.00068   2.01669   2.09832   2.12220
  Beta virt. eigenvalues --    2.16472   2.21438   2.25309   2.27287   2.28984
  Beta virt. eigenvalues --    2.31765   2.35459   2.37046   2.41298   2.42368
  Beta virt. eigenvalues --    2.45177   2.46164   2.48492   2.51796   2.52861
  Beta virt. eigenvalues --    2.55603   2.60095   2.63043   2.65475   2.67856
  Beta virt. eigenvalues --    2.69915   2.72371   2.73971   2.77603   2.81584
  Beta virt. eigenvalues --    2.85381   2.87054   2.88670   2.93669   2.95254
  Beta virt. eigenvalues --    2.96269   2.98788   3.03911   3.06060   3.09823
  Beta virt. eigenvalues --    3.12378   3.14459   3.20955   3.30810   3.32843
  Beta virt. eigenvalues --    3.37280   3.41331   3.42342   3.46298   3.49986
  Beta virt. eigenvalues --    3.53797   3.57939   3.61331   3.65869   3.71515
  Beta virt. eigenvalues --    3.74532   3.80292   3.85540   3.87204   3.96185
  Beta virt. eigenvalues --    4.01614   4.06763   4.08719   4.11386   4.26955
  Beta virt. eigenvalues --    4.31647   4.34187   4.47748   4.49768   4.76235
  Beta virt. eigenvalues --    5.12708   5.48796   6.42836   6.49416   6.55356
  Beta virt. eigenvalues --    6.56712   6.58592   6.60494   6.61417   6.63023
  Beta virt. eigenvalues --    6.66033   6.69534   6.71228   6.80592   6.86360
  Beta virt. eigenvalues --    6.88315   6.92204   6.92892   6.97713   6.99513
  Beta virt. eigenvalues --    7.02614   7.09102   7.12151   7.16743   7.28553
  Beta virt. eigenvalues --    7.28860   7.37521   7.40994   7.44455   7.53816
  Beta virt. eigenvalues --    7.63678   7.68098   7.72862   7.90111   7.97721
  Beta virt. eigenvalues --    8.30394   8.58077  23.52710  23.91220  24.14203
  Beta virt. eigenvalues --   24.44045  24.56024  24.67469  25.57136
          Condensed to atoms (all electrons):
               1          2          3          4          5          6
     1  C    8.298219  -0.296132  -0.451679  -0.102981  -1.219590  -0.046266
     2  C   -0.296132   7.423474   0.115585   0.026450   0.001035  -0.809494
     3  C   -0.451679   0.115585   8.159018  -1.212192   0.326055   0.049654
     4  C   -0.102981   0.026450  -1.212192   8.221045  -0.361693  -0.943374
     5  C   -1.219590   0.001035   0.326055  -0.361693   7.694732  -0.222552
     6  C   -0.046266  -0.809494   0.049654  -0.943374  -0.222552   7.448997
     7  C   -0.468663  -0.821334  -0.912835  -0.092916  -0.458094   0.169972
               7
     1  C   -0.468663
     2  C   -0.821334
     3  C   -0.912835
     4  C   -0.092916
     5  C   -0.458094
     6  C    0.169972
     7  C    8.216607
          Atomic-Atomic Spin Densities.
               1          2          3          4          5          6
     1  C   -2.525388   0.105769   0.187362  -0.049813   0.565458  -0.043171
     2  C    0.105769   1.984638  -0.016743   0.523868  -0.151361  -0.968507
     3  C    0.187362  -0.016743   0.727516  -0.075529  -0.043466  -0.062740
     4  C   -0.049813   0.523868  -0.075529   0.903204  -0.698041  -0.647344
     5  C    0.565458  -0.151361  -0.043466  -0.698041   1.321876   0.111599
     6  C   -0.043171  -0.968507  -0.062740  -0.647344   0.111599   2.000457
     7  C    0.806632  -0.672742  -0.105520  -0.195275  -0.256682   0.411053
               7
     1  C    0.806632
     2  C   -0.672742
     3  C   -0.105520
     4  C   -0.195275
     5  C   -0.256682
     6  C    0.411053
     7  C    0.138084
 Mulliken charges and spin densities:
               1          2
     1  C    0.287093  -0.953151
     2  C    0.360418   0.804921
     3  C   -0.073605   0.610879
     4  C    0.465661  -0.238930
     5  C    0.240108   0.849383
     6  C    0.353063   0.801348
     7  C    0.367263   0.125550
 Sum of Mulliken charges =   2.00000   2.00000
 Mulliken charges and spin densities with hydrogens summed into heavy atoms:
               1          2
     1  C    0.287093  -0.953151
     2  C    0.360418   0.804921
     3  C   -0.073605   0.610879
     4  C    0.465661  -0.238930
     5  C    0.240108   0.849383
     6  C    0.353063   0.801348
     7  C    0.367263   0.125550
 APT charges:
               1
     1  C    0.198952
     2  C    0.230455
     3  C    0.098384
     4  C    0.497068
     5  C    0.096892
     6  C    0.282964
     7  C    0.595287
 Sum of APT charges =   2.00000
 APT charges with hydrogens summed into heavy atoms:
               1
     1  C    0.198952
     2  C    0.230455
     3  C    0.098384
     4  C    0.497068
     5  C    0.096892
     6  C    0.282964
     7  C    0.595287
 Electronic spatial extent (au):  <R**2>=            324.9808
 Charge=              2.0000 electrons
 Dipole moment (field-independent basis, Debye):
    X=             -0.4834    Y=              0.2775    Z=             -0.1619  Tot=              0.5804
 Quadrupole moment (field-independent basis, Debye-Ang):
   XX=            -18.8551   YY=            -22.6128   ZZ=            -29.6118
   XY=             -0.3210   XZ=             -0.2526   YZ=              0.2598
 Traceless Quadrupole moment (field-independent basis, Debye-Ang):
   XX=              4.8381   YY=              1.0804   ZZ=             -5.9186
   XY=             -0.3210   XZ=             -0.2526   YZ=              0.2598
 Octapole moment (field-independent basis, Debye-Ang**2):
  XXX=             -8.0352  YYY=              1.4296  ZZZ=              1.0465  XYY=             -1.9514
  XXY=              0.7394  XXZ=             -4.5072  XZZ=              2.2954  YZZ=             -0.1502
  YYZ=             -0.3364  XYZ=              0.3576
 Hexadecapole moment (field-independent basis, Debye-Ang**3):
 XXXX=           -198.3146 YYYY=           -107.2718 ZZZZ=            -78.1016 XXXY=             -0.2708
 XXXZ=             -0.8628 YYYX=             -1.9579 YYYZ=              0.7256 ZZZX=             -0.7014
 ZZZY=              0.3597 XXYY=            -49.5290 XXZZ=            -49.5448 YYZZ=            -32.3417
 XXYZ=              0.0297 YYXZ=             -0.7711 ZZXY=              0.0491
 N-N= 2.161818068440D+02 E-N=-1.027027833951D+03  KE= 2.641905473238D+02
  Exact polarizability:  64.317   0.650  49.096   0.021  -0.577  42.178
 Approx polarizability: 146.184   5.179 128.855  -2.691  -2.463  92.377
                          Isotropic Fermi Contact Couplings
        Atom                 a.u.       MegaHertz       Gauss      10(-4) cm-1
     1  C(13)             -0.61231    -344.17899    -122.81162    -114.80575
     2  C(13)              0.65261     366.83168     130.89466     122.36188
     3  C(13)              0.62769     352.81998     125.89494     117.68808
     4  C(13)              0.04745      26.67362       9.51781       8.89736
     5  C(13)              0.36500     205.16621      73.20840      68.43608
     6  C(13)              0.67128     377.32244     134.63802     125.86122
     7  C(13)              0.14291      80.32921      28.66346      26.79494
 --------------------------------------------------------
       Center         ----  Spin Dipole Couplings  ----
                      3XX-RR        3YY-RR        3ZZ-RR
 --------------------------------------------------------
     1   Atom       -0.236067      0.083232      0.152836
     2   Atom        0.190510      0.218647     -0.409157
     3   Atom        0.022184     -0.318307      0.296123
     4   Atom        0.076659     -0.175766      0.099107
     5   Atom       -0.033547     -0.038077      0.071624
     6   Atom        0.486268     -0.045892     -0.440376
     7   Atom       -0.038103     -0.091012      0.129115
 --------------------------------------------------------
                        XY            XZ            YZ
 --------------------------------------------------------
     1   Atom       -0.500168     -0.167061     -0.111594
     2   Atom       -0.616732     -0.086064      0.072874
     3   Atom       -0.094454      0.513582     -0.086345
     4   Atom       -0.072969     -0.033463     -0.069421
     5   Atom       -0.449146      0.214989     -0.302865
     6   Atom        0.546219     -0.063348     -0.074958
     7   Atom        0.162624     -0.124666      0.001331
 --------------------------------------------------------


 ---------------------------------------------------------------------------------
              Anisotropic Spin Dipole Couplings in Principal Axis System
 ---------------------------------------------------------------------------------

       Atom             a.u.   MegaHertz   Gauss  10(-4) cm-1        Axes

              Baa    -0.6515   -87.431   -31.197   -29.164  0.7846  0.5708  0.2421
     1 C(13)  Bbb     0.2027    27.194     9.704     9.071 -0.1758 -0.1696  0.9697
              Bcc     0.4489    60.236    21.494    20.093 -0.5946  0.8034  0.0327
 
              Baa    -0.4269   -57.292   -20.443   -19.111  0.4694  0.3573  0.8075
     2 C(13)  Bbb    -0.4047   -54.305   -19.377   -18.114  0.5425  0.6049 -0.5830
              Bcc     0.8316   111.597    39.821    37.225 -0.6967  0.7117  0.0901
 
              Baa    -0.3825   -51.322   -18.313   -17.119  0.7512  0.4113 -0.5162
     3 C(13)  Bbb    -0.3237   -43.443   -15.501   -14.491 -0.2600  0.9033  0.3413
              Bcc     0.7062    94.764    33.814    31.610  0.6067 -0.1221  0.7855
 
              Baa    -0.2137   -28.678   -10.233    -9.566  0.2623  0.9357  0.2357
     4 C(13)  Bbb     0.0894    11.991     4.279     4.000  0.8356 -0.3425  0.4296
              Bcc     0.1243    16.686     5.954     5.566 -0.4827 -0.0843  0.8717
 
              Baa    -0.4945   -66.353   -23.676   -22.133  0.6537  0.7420  0.1487
     5 C(13)  Bbb    -0.1530   -20.527    -7.324    -6.847 -0.4911  0.2664  0.8294
              Bcc     0.6474    86.879    31.001    28.980 -0.5758  0.6152 -0.5386
 
              Baa    -0.4596   -61.674   -22.007   -20.572 -0.1461  0.3598  0.9215
     6 C(13)  Bbb    -0.3750   -50.324   -17.957   -16.786 -0.5149  0.7677 -0.3814
              Bcc     0.8346   111.998    39.964    37.359  0.8447  0.5302 -0.0731
 
              Baa    -0.2483   -33.322   -11.890   -11.115 -0.6763  0.7011 -0.2259
     7 C(13)  Bbb     0.0296     3.968     1.416     1.324  0.4779  0.6510  0.5898
              Bcc     0.2187    29.354    10.474     9.791 -0.5605 -0.2910  0.7753
 

 ---------------------------------------------------------------------------------

 No NMR shielding tensors so no spin-rotation constants.
 Leave Link  601 at Wed Jul  6 00:02:12 2016, MaxMem=    33554432 cpu:         2.1
 (Enter /home/proyectos/fulerenos/M3C-v1.9/M3C-deps_CCC/g09-AM64L-G09RevC.01/l701.exe)
 Compute integral second derivatives.
 ... and contract with generalized density number  0.
 Leave Link  701 at Wed Jul  6 00:02:13 2016, MaxMem=    33554432 cpu:         1.7
 (Enter /home/proyectos/fulerenos/M3C-v1.9/M3C-deps_CCC/g09-AM64L-G09RevC.01/l702.exe)
 L702 exits ... SP integral derivatives will be done elsewhere.
 Leave Link  702 at Wed Jul  6 00:02:13 2016, MaxMem=    33554432 cpu:         0.1
 (Enter /home/proyectos/fulerenos/M3C-v1.9/M3C-deps_CCC/g09-AM64L-G09RevC.01/l703.exe)
 Compute integral second derivatives, UseDBF=F ICtDFT=           0.
 Integral derivatives from FoFJK, PRISM(SPDF).
 Calling FoFJK, ICntrl=    100127 FMM=F ISym2X=0 I1Cent= 0 IOpClX= 1 NMat=1 NMatS=1 NMatT=0.
 FoFJK:  IHMeth= 1 ICntrl=  100127 DoSepK=F KAlg= 0 I1Cent=   0 FoldK=F
 IRaf=         0 NMat=   1 IRICut=       1 DoRegI=T DoRafI=F ISym2E= 0.
 FoFCou: FMM=F IPFlag=           0 FMFlag=      100000 FMFlg1=         800
         NFxFlg=           0 DoJE=F BraDBF=F KetDBF=F FulRan=T
         wScrn=  0.000000 ICntrl=  100127 IOpCl=  1 I1Cent=           0 NGrid=           0
         NMat0=    1 NMatS0=      1 NMatT0=    0 NMatD0=    1 NMtDS0=    0 NMtDT0=    0
 Symmetry not used in FoFCou.
 Leave Link  703 at Wed Jul  6 00:07:13 2016, MaxMem=    33554432 cpu:      1198.7
 (Enter /home/proyectos/fulerenos/M3C-v1.9/M3C-deps_CCC/g09-AM64L-G09RevC.01/l716.exe)
 Dipole        =-1.90166479D-01 1.09186784D-01-6.36969383D-02
 Polarizability= 6.43168116D+01 6.49678038D-01 4.90956334D+01
                 2.05216615D-02-5.76767194D-01 4.21783135D+01
 Full mass-weighted force constant matrix:
 Low frequencies ---  -26.0528   -0.0009   -0.0008   -0.0005    6.3118   14.3238
 Low frequencies ---  359.6282  366.6450  418.1151
 Diagonal vibrational polarizability:
        1.4552930       3.8151164       0.4638743
 Harmonic frequencies (cm**-1), IR intensities (KM/Mole), Raman scattering
 activities (A**4/AMU), depolarization ratios for plane and unpolarized
 incident light, reduced masses (AMU), force constants (mDyne/A),
 and normal coordinates:
                      1                      2                      3
                      A                      A                      A
 Frequencies --    359.6270               366.6447               418.1150
 Red. masses --     12.0000                12.0000                12.0000
 Frc consts  --      0.9144                 0.9504                 1.2360
 IR Inten    --     11.5476                 0.9215                 0.4218
  Atom  AN      X      Y      Z        X      Y      Z        X      Y      Z
     1   6     0.24   0.10   0.08     0.22   0.20  -0.27    -0.25   0.07   0.55
     2   6    -0.05  -0.13  -0.30     0.22  -0.09   0.49     0.38   0.00   0.28
     3   6     0.01   0.17  -0.13     0.09  -0.13  -0.11    -0.00  -0.21  -0.35
     4   6    -0.26  -0.10  -0.23    -0.14  -0.15   0.01    -0.06  -0.01  -0.11
     5   6    -0.40   0.28   0.03    -0.28   0.32   0.25    -0.06   0.06  -0.21
     6   6     0.18  -0.18   0.47    -0.22   0.01  -0.37     0.06   0.10   0.18
     7   6     0.28  -0.15   0.08     0.11  -0.18   0.00    -0.06  -0.01  -0.35
                      4                      5                      6
                      A                      A                      A
 Frequencies --    453.9285               489.8752               602.9310
 Red. masses --     12.0000                12.0000                12.0000
 Frc consts  --      1.4568                 1.6967                 2.5702
 IR Inten    --      2.9834                 3.9033                 0.6860
  Atom  AN      X      Y      Z        X      Y      Z        X      Y      Z
     1   6    -0.13  -0.09  -0.30    -0.19  -0.13  -0.13    -0.07   0.04   0.03
     2   6    -0.18  -0.03   0.23     0.10  -0.01   0.12    -0.36   0.39   0.14
     3   6     0.58   0.09  -0.47    -0.25   0.18   0.03     0.09  -0.29   0.06
     4   6    -0.03   0.16   0.03     0.14  -0.01  -0.33     0.03  -0.32  -0.25
     5   6    -0.02  -0.17   0.09    -0.16  -0.15   0.59    -0.09   0.05  -0.14
     6   6     0.02  -0.01   0.31     0.43  -0.06  -0.04     0.43   0.31  -0.11
     7   6    -0.25   0.05   0.11    -0.07   0.18  -0.25    -0.03  -0.18   0.26
                      7                      8                      9
                      A                      A                      A
 Frequencies --    659.6186               834.2821               879.0299
 Red. masses --     12.0000                12.0000                12.0000
 Frc consts  --      3.0762                 4.9210                 5.4631
 IR Inten    --      0.6463                 5.7311                10.9035
  Atom  AN      X      Y      Z        X      Y      Z        X      Y      Z
     1   6    -0.28   0.00  -0.10    -0.28   0.11  -0.15    -0.14  -0.03   0.01
     2   6     0.21  -0.14  -0.11     0.47   0.01  -0.26     0.02   0.00  -0.02
     3   6     0.31  -0.03   0.23    -0.24  -0.14  -0.27    -0.13   0.41  -0.25
     4   6    -0.18  -0.46   0.11    -0.01   0.02  -0.08    -0.03  -0.15   0.63
     5   6    -0.18   0.03  -0.14     0.12  -0.02   0.13    -0.11   0.04  -0.12
     6   6     0.05  -0.02  -0.05    -0.02   0.10   0.02     0.40  -0.04  -0.23
     7   6     0.06   0.61   0.06    -0.05  -0.09   0.62    -0.02  -0.24  -0.01
                     10                     11                     12
                      A                      A                      A
 Frequencies --    887.8672              1044.7750              1133.7057
 Red. masses --     12.0000                12.0000                12.0000
 Frc consts  --      5.5735                 7.7175                 9.0872
 IR Inten    --     12.0253                 0.6976                 5.4451
  Atom  AN      X      Y      Z        X      Y      Z        X      Y      Z
     1   6     0.35  -0.20   0.06    -0.35  -0.07  -0.08    -0.28   0.10  -0.04
     2   6    -0.09  -0.07   0.04     0.15  -0.05  -0.08    -0.21   0.02   0.13
     3   6    -0.23  -0.39  -0.25     0.27  -0.15   0.38    -0.05  -0.13  -0.08
     4   6     0.04   0.32   0.18     0.08   0.54   0.02    -0.51   0.19   0.02
     5   6    -0.30  -0.03  -0.09    -0.38   0.07  -0.13     0.36  -0.07   0.08
     6   6     0.22  -0.09  -0.13     0.15  -0.07  -0.09     0.13  -0.17  -0.09
     7   6     0.00   0.45   0.19     0.08  -0.28  -0.01     0.57   0.07  -0.03
                     13                     14                     15
                      A                      A                      A
 Frequencies --   1314.3452              1354.5032              1478.9030
 Red. masses --     12.0000                12.0000                12.0000
 Frc consts  --     12.2138                12.9715                15.4636
 IR Inten    --     35.9174                12.4076                22.7050
  Atom  AN      X      Y      Z        X      Y      Z        X      Y      Z
     1   6    -0.30  -0.08  -0.06    -0.04  -0.05  -0.00     0.09   0.69   0.01
     2   6    -0.21  -0.07   0.11     0.12   0.69   0.03     0.01   0.03  -0.00
     3   6    -0.14   0.04  -0.19     0.02   0.00  -0.04    -0.00  -0.00   0.02
     4   6     0.59  -0.11   0.04     0.10  -0.07   0.01     0.08  -0.00   0.05
     5   6    -0.18   0.06  -0.06    -0.06   0.05  -0.03    -0.26  -0.66  -0.04
     6   6    -0.27   0.11   0.14    -0.13  -0.67   0.01     0.00  -0.05  -0.00
     7   6     0.52   0.06   0.03    -0.01   0.05   0.02     0.07  -0.01  -0.02

 -------------------
 - Thermochemistry -
 -------------------
 Temperature   298.150 Kelvin.  Pressure   1.00000 Atm.
 Atom     1 has atomic number  6 and mass  12.00000
 Atom     2 has atomic number  6 and mass  12.00000
 Atom     3 has atomic number  6 and mass  12.00000
 Atom     4 has atomic number  6 and mass  12.00000
 Atom     5 has atomic number  6 and mass  12.00000
 Atom     6 has atomic number  6 and mass  12.00000
 Atom     7 has atomic number  6 and mass  12.00000
 Molecular mass:    84.00000 amu.
 Principal axes and moments of inertia in atomic units:
                           1         2         3
     Eigenvalues --   228.12300 393.99532 466.42092
           X            1.00000  -0.00000   0.00000
           Y           -0.00000   1.00000   0.00000
           Z            0.00000  -0.00000   1.00000
 This molecule is an asymmetric top.
 Rotational symmetry number  1.
 Rotational temperatures (Kelvin)      0.37968     0.21983     0.18570
 Rotational constants (GHZ):           7.91126     4.58062     3.86934
 Zero-point vibrational energy      73439.7 (Joules/Mol)
                                   17.55250 (Kcal/Mol)
 Warning -- explicit consideration of   6 degrees of freedom as
           vibrations may cause significant error
 Vibrational temperatures:    517.42   527.52   601.57   653.10   704.82
          (Kelvin)            867.48   949.04  1200.34  1264.73  1277.44
                             1503.20  1631.15  1891.05  1948.83  2127.81
 
 Zero-point correction=                           0.027972 (Hartree/Particle)
 Thermal correction to Energy=                    0.032833
 Thermal correction to Enthalpy=                  0.033777
 Thermal correction to Gibbs Free Energy=        -0.000757
 Sum of electronic and zero-point Energies=           -265.252689
 Sum of electronic and thermal Energies=              -265.247828
 Sum of electronic and thermal Enthalpies=            -265.246884
 Sum of electronic and thermal Free Energies=         -265.281417
 
                     E (Thermal)             CV                S
                      KCal/Mol        Cal/Mol-Kelvin    Cal/Mol-Kelvin
 Total                   20.603             17.618             72.682
 Electronic               0.000              0.000              2.183
 Translational            0.889              2.981             39.198
 Rotational               0.889              2.981             25.242
 Vibrational             18.825             11.656              6.058
 Vibration     1          0.734              1.555              1.124
 Vibration     2          0.740              1.541              1.094
 Vibration     3          0.781              1.431              0.898
 Vibration     4          0.812              1.352              0.784
 Vibration     5          0.846              1.272              0.684
 Vibration     6          0.961              1.026              0.445
                       Q            Log10(Q)             Ln(Q)
 Total Bot       0.222860D+01          0.348032          0.801372
 Total V=0       0.163714D+14         13.214087         30.426559
 Vib (Bot)       0.334943D-12        -12.475029        -28.724817
 Vib (Bot)    1  0.509795D+00         -0.292604         -0.673746
 Vib (Bot)    2  0.497688D+00         -0.303042         -0.697781
 Vib (Bot)    3  0.420559D+00         -0.376173         -0.866171
 Vib (Bot)    4  0.376578D+00         -0.424145         -0.976630
 Vib (Bot)    5  0.338503D+00         -0.470438         -1.083223
 Vib (Bot)    6  0.246910D+00         -0.607462         -1.398733
 Vib (V=0)       0.246051D+01          0.391026          0.900370
 Vib (V=0)    1  0.121407D+01          0.084243          0.193976
 Vib (V=0)    2  0.120547D+01          0.081158          0.186873
 Vib (V=0)    3  0.115335D+01          0.061962          0.142673
 Vib (V=0)    4  0.112595D+01          0.051518          0.118625
 Vib (V=0)    5  0.110381D+01          0.042894          0.098766
 Vib (V=0)    6  0.105764D+01          0.024339          0.056042
 Electronic      0.300000D+01          0.477121          1.098612
 Translational   0.302604D+08          7.480874         17.225349
 Rotational      0.732935D+05          4.865065         11.202227
 
                                                              b3lyp opt
                                                             IR Spectrum
 
     1          1   1              1       1                                                                                         
     4          3   3              1       0            88   8              6    6        4   4  4   33                              
     7          5   1              3       4            87   3              6    0        9   5  1   66                              
     9          5   4              4       5            89   4              0    3        0   4  8   70                              
 
     X          X   X              X       X            XX   X              X    X        X   X  X   XX                              
     X          X   X              X                    XX   X                            X   X       X                              
     X          X   X              X                    XX   X                                        X                              
     X          X   X                                   XX                                            X                              
     X          X   X                                   XX                                            X                              
     X          X   X                                   XX                                            X                              
     X          X   X                                   X                                                                            
     X              X                                                                                                                
     X              X                                                                                                                
     X              X                                                                                                                
     X              X                                                                                                                
     X              X                                                                                                                
     X              X                                                                                                                
                    X                                                                                                                
                    X                                                                                                                
                    X                                                                                                                
                    X                                                                                                                
                    X                                                                                                                
                    X                                                                                                                
                    X                                                                                                                
 
 ***** Axes restored to original set *****
 -------------------------------------------------------------------
 Center     Atomic                   Forces (Hartrees/Bohr)
 Number     Number              X              Y              Z
 -------------------------------------------------------------------
      1        6          -0.000204792   -0.000042230    0.000082626
      2        6          -0.000048171   -0.000102856    0.000032802
      3        6           0.000067300    0.000106162    0.000091207
      4        6          -0.000483086    0.000175932   -0.000039443
      5        6           0.000406359    0.000212627    0.000010642
      6        6           0.000017376   -0.000154815    0.000014397
      7        6           0.000245013   -0.000194820   -0.000192232
 -------------------------------------------------------------------
 Cartesian Forces:  Max     0.000483086 RMS     0.000185728
 Z-matrix is all fixed cartesians, so copy forces.
 Force constants in Cartesian coordinates: 
                1             2             3             4             5 
      1  0.306139D+00
      2  0.710659D-01  0.484579D+00
      3  0.296888D-01 -0.936061D-01  0.737446D-01
      4 -0.100305D-01  0.223649D-01 -0.909195D-02  0.206978D+00
      5 -0.700229D-02  0.199635D-02  0.112099D-01  0.423014D-01  0.430059D+00
      6 -0.758177D-02 -0.792660D-02  0.638954D-02 -0.927471D-01 -0.467454D-01
      7 -0.258375D-01  0.222964D-02 -0.168415D-01  0.224037D-01  0.914311D-02
      8 -0.133291D-01  0.786944D-02 -0.691159D-02  0.628305D-02 -0.162797D-01
      9 -0.119082D-02  0.167243D-01 -0.542492D-02  0.310408D-01 -0.261945D-01
     10 -0.597114D-01 -0.282198D-01 -0.124246D-01 -0.280749D-01  0.306184D-01
     11 -0.273683D-01 -0.205361D-01 -0.420374D-02  0.130233D-01 -0.678504D-01
     12 -0.854890D-03  0.150801D-01  0.197660D-02 -0.967995D-02 -0.519624D-02
     13 -0.170517D-01 -0.121863D+00  0.342091D-01 -0.315974D-01 -0.624876D-02
     14 -0.882696D-01 -0.424673D+00  0.856620D-01  0.114054D-01  0.300274D-02
     15  0.259503D-01  0.800815D-01 -0.419287D-01  0.106787D-01 -0.161647D-01
     16  0.144680D-01  0.323045D-02  0.140846D-01 -0.905751D-02 -0.620712D-01
     17  0.393267D-02 -0.417313D-02  0.110752D-02 -0.857074D-01 -0.352399D+00
     18 -0.117062D-01 -0.187178D-02  0.253337D-02  0.408361D-02  0.752538D-01
     19 -0.207976D+00  0.511918D-01 -0.396244D-01 -0.150622D+00 -0.674055D-02
     20  0.609708D-01 -0.450630D-01  0.674200D-02 -0.967065D-02  0.147078D-02
     21 -0.343053D-01 -0.848142D-02 -0.372905D-01  0.657159D-01  0.783727D-02
                6             7             8             9            10 
      6  0.952063D-01
      7 -0.767767D-02  0.163012D+00
      8 -0.157288D-01  0.209778D-01  0.160683D+00
      9 -0.329692D-01  0.111900D+00 -0.144408D-01  0.214940D+00
     10  0.920512D-02 -0.548213D-01  0.305811D-01 -0.538869D-01  0.447056D+00
     11  0.664774D-03  0.264224D-01 -0.808593D-01  0.707981D-01 -0.764633D-01
     12  0.243100D-02 -0.277123D-01  0.768516D-01 -0.895905D-01  0.125388D-01
     13  0.144222D-01 -0.348423D-01  0.121348D-01 -0.443013D-01 -0.228281D+00
     14  0.355430D-03  0.508672D-02  0.787125D-02 -0.489413D-02 -0.773565D-02
     15  0.933156D-02 -0.313417D-01  0.790130D-02 -0.159333D-01 -0.456339D-01
     16 -0.144853D-02  0.695702D-02 -0.590531D-02  0.178253D-01 -0.152095D+00
     17  0.634185D-01 -0.197369D-01  0.670492D-02  0.693281D-04  0.604186D-01
     18 -0.158612D-01  0.100616D-01  0.582970D-02 -0.297996D-01  0.708252D-01
     19  0.858278D-01 -0.768719D-01 -0.507423D-01 -0.613866D-01  0.759280D-01
     20  0.596215D-02 -0.441227D-01 -0.859894D-01 -0.420623D-01 -0.919931D-02
     21 -0.645280D-01 -0.383879D-01 -0.535014D-01 -0.412221D-01  0.193762D-01
               11            12            13            14            15 
     11  0.293286D+00
     12 -0.242634D-01  0.190196D+00
     13 -0.432494D-01 -0.385631D-01  0.324395D+00
     14 -0.171687D-01 -0.264023D-01  0.134112D+00  0.428829D+00
     15 -0.645809D-02 -0.477263D-01  0.378251D-01 -0.783752D-01  0.960655D-01
     16  0.795266D-01  0.498503D-01 -0.117108D-01 -0.183119D-01  0.556083D-02
     17 -0.506137D-01 -0.395764D-01  0.247681D-01  0.115398D-01  0.339573D-02
     18 -0.451177D-01 -0.499667D-01 -0.214422D-02  0.202007D-02  0.508208D-02
     19  0.281087D-01  0.144212D-01 -0.910962D-03 -0.362866D-01 -0.303931D-02
     20 -0.562580D-01  0.350663D-02  0.346454D-03 -0.940085D-02  0.961950D-02
     21  0.858007D-02 -0.731960D-02 -0.144772D-02  0.216341D-01 -0.489083D-02
               16            17            18            19            20 
     16  0.220522D+00
     17  0.292280D-01  0.421046D+00
     18 -0.986517D-01 -0.546198D-01  0.992928D-01
     19 -0.690832D-01 -0.129031D-01  0.275317D-01  0.429536D+00
     20 -0.256966D-01 -0.321049D-01  0.185058D-01  0.273721D-01  0.227345D+00
     21  0.127792D-01  0.262052D-01 -0.112807D-01 -0.237303D-01 -0.227377D-02
               21 
     21  0.166532D+00
 Leave Link  716 at Wed Jul  6 00:07:13 2016, MaxMem=    33554432 cpu:         0.1
 (Enter /home/proyectos/fulerenos/M3C-v1.9/M3C-deps_CCC/g09-AM64L-G09RevC.01/l103.exe)

 GradGradGradGradGradGradGradGradGradGradGradGradGradGradGradGradGradGrad
 Berny optimization.
 Search for a local minimum.
 Step number   1 out of a maximum of    2
 All quantities printed in internal units (Hartrees-Bohrs-Radians)
 Second derivative matrix not updated -- analytic derivatives used.
 ITU=  0
     Eigenvalues ---    0.05873   0.06105   0.07939   0.09357   0.10898
     Eigenvalues ---    0.16509   0.19759   0.31608   0.35090   0.35799
     Eigenvalues ---    0.49570   0.58368   0.78450   0.83317   0.99324
 Angle between quadratic step and forces=  43.71 degrees.
 Linear search not attempted -- first point.
 B after Tr=    -0.000000    0.000000   -0.000000
         Rot=    1.000000    0.000000   -0.000000    0.000000 Ang=   0.00 deg.
 Variable       Old X    -DE/DX   Delta X   Delta X   Delta X     New X
                                 (Linear)    (Quad)   (Total)
    X1       -2.98078  -0.00020   0.00000   0.00001   0.00001  -2.98077
    Y1       -0.89856  -0.00004   0.00000   0.00042   0.00042  -0.89815
    Z1       -0.01868   0.00008   0.00000   0.00073   0.00073  -0.01795
    X2        1.98152  -0.00005   0.00000   0.00034   0.00034   1.98185
    Y2       -1.73149  -0.00010   0.00000  -0.00068  -0.00068  -1.73216
    Z2       -0.72504   0.00003   0.00000  -0.00043  -0.00043  -0.72547
    X3        1.19411   0.00007   0.00000  -0.00023  -0.00023   1.19388
    Y3        0.21224   0.00011   0.00000   0.00061   0.00061   0.21285
    Z3        2.00569   0.00009   0.00000   0.00011   0.00011   2.00580
    X4        0.19764  -0.00048   0.00000  -0.00117  -0.00117   0.19647
    Y4        1.81128   0.00018   0.00000   0.00028   0.00028   1.81156
    Z4       -0.03696  -0.00004   0.00000  -0.00016  -0.00016  -0.03711
    X5       -2.41327   0.00041   0.00000   0.00030   0.00030  -2.41297
    Y5        1.39225   0.00021   0.00000   0.00065   0.00065   1.39290
    Z5       -0.63219   0.00001   0.00000  -0.00028  -0.00028  -0.63248
    X6        2.44855   0.00002   0.00000  -0.00026  -0.00026   2.44829
    Y6        0.81573  -0.00015   0.00000  -0.00047  -0.00047   0.81526
    Z6       -1.20520   0.00001   0.00000   0.00082   0.00082  -1.20439
    X7       -0.42776   0.00025   0.00000   0.00101   0.00101  -0.42675
    Y7       -1.60145  -0.00019   0.00000  -0.00082  -0.00082  -1.60227
    Z7        0.61238  -0.00019   0.00000  -0.00079  -0.00079   0.61159
         Item               Value     Threshold  Converged?
 Maximum Force            0.000483     0.000450     NO 
 RMS     Force            0.000186     0.000300     YES
 Maximum Displacement     0.001166     0.001800     YES
 RMS     Displacement     0.000586     0.001200     YES
 Predicted change in Energy=-8.266204D-07
 GradGradGradGradGradGradGradGradGradGradGradGradGradGradGradGradGradGrad

 Leave Link  103 at Wed Jul  6 00:07:13 2016, MaxMem=    33554432 cpu:         0.1
 (Enter /home/proyectos/fulerenos/M3C-v1.9/M3C-deps_CCC/g09-AM64L-G09RevC.01/l9999.exe)
 1\1\GINC-BLADI28\Freq\UB3LYP\6-311+G(3df)\C7(2+,3)\ROOT\06-Jul-2016\0\
 \#p b3lyp/6-311+G(3df) freq symmetry=Loose\\b3lyp opt\\2,3\C,-1.577363
 ,-0.4755,-0.009885\C,1.048574,-0.916263,-0.383677\C,0.631895,0.112314,
 1.061367\C,0.104586,0.958488,-0.019557\C,-1.27705,0.736746,-0.334543\C
 ,1.295719,0.431667,-0.637766\C,-0.22636,-0.847451,0.32406\\Version=EM6
 4L-G09RevE.01\State=3-A\HF=-265.2806603\S2=2.66417\S2-1=0.\S2A=2.09248
 \RMSD=3.977e-09\RMSF=1.857e-04\ZeroPoint=0.0279717\Thermal=0.0328326\D
 ipole=-0.1872742,0.1037662,-0.0793932\DipoleDeriv=0.0232658,-0.0651015
 ,0.0206349,0.2057944,0.2998547,0.2343101,-0.1042747,-0.0961821,0.27373
 49,0.163781,-0.0376898,0.0485701,-0.178797,0.3672309,0.1869544,0.05598
 68,0.085914,0.1603526,-0.0276642,-0.0112392,-0.0729843,-0.0545324,0.04
 89484,0.0014495,-0.2160722,0.0974551,0.273867,0.5949218,0.1084257,0.09
 18461,0.0114468,0.5364611,-0.029316,0.1813643,-0.0630427,0.3598206,0.0
 845278,0.0184492,-0.1425833,-0.1928892,-0.0477008,-0.1249339,0.0151533
 ,0.1630644,0.2538482,0.3822331,0.0127019,-0.0853577,0.1740138,0.150891
 1,-0.1835928,-0.1002487,-0.100192,0.3157664,0.7789347,-0.0255463,0.139
 8742,0.0349636,0.6443145,-0.0848714,0.1680911,-0.0870166,0.3626104\Pol
 ar=64.303899,-0.2979488,48.5308218,-0.9005894,-1.9291718,42.7560377\PG
 =C01 [X(C7)]\NImag=0\\0.30613934,0.07106588,0.48457950,0.02968879,-0.0
 9360613,0.07374463,-0.01003053,0.02236490,-0.00909195,0.20697823,-0.00
 700229,0.00199635,0.01120989,0.04230135,0.43005915,-0.00758177,-0.0079
 2660,0.00638954,-0.09274713,-0.04674544,0.09520631,-0.02583748,0.00222
 964,-0.01684150,0.02240375,0.00914311,-0.00767767,0.16301218,-0.013329
 05,0.00786944,-0.00691159,0.00628305,-0.01627971,-0.01572880,0.0209777
 9,0.16068278,-0.00119082,0.01672434,-0.00542492,0.03104079,-0.02619450
 ,-0.03296919,0.11189954,-0.01444081,0.21493966,-0.05971141,-0.02821977
 ,-0.01242456,-0.02807495,0.03061836,0.00920512,-0.05482130,0.03058109,
 -0.05388689,0.44705641,-0.02736833,-0.02053615,-0.00420374,0.01302333,
 -0.06785037,0.00066477,0.02642240,-0.08085927,0.07079809,-0.07646331,0
 .29328623,-0.00085489,0.01508007,0.00197660,-0.00967995,-0.00519624,0.
 00243100,-0.02771231,0.07685161,-0.08959055,0.01253883,-0.02426337,0.1
 9019552,-0.01705170,-0.12186290,0.03420906,-0.03159741,-0.00624876,0.0
 1442215,-0.03484226,0.01213478,-0.04430126,-0.22828139,-0.04324935,-0.
 03856315,0.32439455,-0.08826965,-0.42467302,0.08566204,0.01140542,0.00
 300274,0.00035543,0.00508672,0.00787125,-0.00489413,-0.00773565,-0.017
 16867,-0.02640230,0.13411165,0.42882876,0.02595027,0.08008152,-0.04192
 873,0.01067872,-0.01616474,0.00933156,-0.03134174,0.00790130,-0.015933
 28,-0.04563391,-0.00645809,-0.04772628,0.03782513,-0.07837523,0.096065
 47,0.01446802,0.00323045,0.01408459,-0.00905751,-0.06207122,-0.0014485
 3,0.00695702,-0.00590531,0.01782525,-0.15209541,0.07952658,0.04985032,
 -0.01171083,-0.01831189,0.00556083,0.22052193,0.00393267,-0.00417313,0
 .00110752,-0.08570741,-0.35239894,0.06341848,-0.01973692,0.00670492,0.
 00006933,0.06041859,-0.05061372,-0.03957640,0.02476813,0.01153980,0.00
 339573,0.02922800,0.42104598,-0.01170624,-0.00187178,0.00253337,0.0040
 8361,0.07525375,-0.01586123,0.01006159,0.00582970,-0.02979962,0.070825
 23,-0.04511774,-0.04996669,-0.00214422,0.00202007,0.00508208,-0.098651
 66,-0.05461981,0.09929280,-0.20797623,0.05119181,-0.03962444,-0.150621
 59,-0.00674055,0.08582784,-0.07687191,-0.05074234,-0.06138661,0.075928
 05,0.02810868,0.01442116,-0.00091096,-0.03628661,-0.00303931,-0.069083
 23,-0.01290307,0.02753169,0.42953588,0.06097078,-0.04506300,0.00674200
 ,-0.00967065,0.00147078,0.00596215,-0.04412274,-0.08598940,-0.04206232
 ,-0.00919931,-0.05625805,0.00350663,0.00034645,-0.00940085,0.00961950,
 -0.02569661,-0.03210491,0.01850580,0.02737208,0.22734543,-0.03430534,-
 0.00848142,-0.03729050,0.06571591,0.00783727,-0.06452798,-0.03838790,-
 0.05350141,-0.04122210,0.01937618,0.00858007,-0.00731960,-0.00144772,0
 .02163412,-0.00489083,0.01277920,0.02620515,-0.01128071,-0.02373033,-0
 .00227377,0.16653173\\0.00020479,0.00004223,-0.00008263,0.00004817,0.0
 0010286,-0.00003280,-0.00006730,-0.00010616,-0.00009121,0.00048309,-0.
 00017593,0.00003944,-0.00040636,-0.00021263,-0.00001064,-0.00001738,0.
 00015482,-0.00001440,-0.00024501,0.00019482,0.00019223\\\@


 A MAN IS EXACTLY AS GREAT AS THE TIDE SURGING
 BENEATH HIM.      - BISMARCK
 Job cpu time:       0 days  2 hours 36 minutes 27.5 seconds.
 File lengths (MBytes):  RWF=     91 Int=      0 D2E=      0 Chk=      7 Scr=      1
 Normal termination of Gaussian 09 at Wed Jul  6 00:07:13 2016.
