 Entering Gaussian System, Link 0=/home/proyectos/fulerenos/M3C-v2.0/M3C-deps_CCC/g09-AM64L-G09RevC.01/g09
 Initial command:
 /home/proyectos/fulerenos/M3C-v2.0/M3C-deps_CCC/g09-AM64L-G09RevC.01/l1.exe "/scratch/naguirre/gaussian/Gau-3021.inp" -scrdir="/scratch/naguirre/gaussian/"
 Entering Link 1 = /home/proyectos/fulerenos/M3C-v2.0/M3C-deps_CCC/g09-AM64L-G09RevC.01/l1.exe PID=      3022.
  
 Copyright (c) 1988,1990,1992,1993,1995,1998,2003,2009,2015,
            Gaussian, Inc.  All Rights Reserved.
  
 This is part of the Gaussian(R) 09 program.  It is based on
 the Gaussian(R) 03 system (copyright 2003, Gaussian, Inc.),
 the Gaussian(R) 98 system (copyright 1998, Gaussian, Inc.),
 the Gaussian(R) 94 system (copyright 1995, Gaussian, Inc.),
 the Gaussian 92(TM) system (copyright 1992, Gaussian, Inc.),
 the Gaussian 90(TM) system (copyright 1990, Gaussian, Inc.),
 the Gaussian 88(TM) system (copyright 1988, Gaussian, Inc.),
 the Gaussian 86(TM) system (copyright 1986, Carnegie Mellon
 University), and the Gaussian 82(TM) system (copyright 1983,
 Carnegie Mellon University). Gaussian is a federally registered
 trademark of Gaussian, Inc.
  
 This software contains proprietary and confidential information,
 including trade secrets, belonging to Gaussian, Inc.
  
 This software is provided under written license and may be
 used, copied, transmitted, or stored only in accord with that
 written license.
  
 The following legend is applicable only to US Government
 contracts under FAR:
  
                    RESTRICTED RIGHTS LEGEND
  
 Use, reproduction and disclosure by the US Government is
 subject to restrictions as set forth in subparagraphs (a)
 and (c) of the Commercial Computer Software - Restricted
 Rights clause in FAR 52.227-19.
  
 Gaussian, Inc.
 340 Quinnipiac St., Bldg. 40, Wallingford CT 06492
  
  
 ---------------------------------------------------------------
 Warning -- This program may not be used in any manner that
 competes with the business of Gaussian, Inc. or will provide
 assistance to any competitor of Gaussian, Inc.  The licensee
 of this program is prohibited from giving any competitor of
 Gaussian, Inc. access to this program.  By using this program,
 the user acknowledges that Gaussian, Inc. is engaged in the
 business of creating and licensing software in the field of
 computational chemistry and represents and warrants to the
 licensee that it is not a competitor of Gaussian, Inc. and that
 it will not use this program in any manner prohibited above.
 ---------------------------------------------------------------
  

 Cite this work as:
 Gaussian 09, Revision E.01,
 M. J. Frisch, G. W. Trucks, H. B. Schlegel, G. E. Scuseria, 
 M. A. Robb, J. R. Cheeseman, G. Scalmani, V. Barone, B. Mennucci, 
 G. A. Petersson, H. Nakatsuji, M. Caricato, X. Li, H. P. Hratchian, 
 A. F. Izmaylov, J. Bloino, G. Zheng, J. L. Sonnenberg, M. Hada, 
 M. Ehara, K. Toyota, R. Fukuda, J. Hasegawa, M. Ishida, T. Nakajima, 
 Y. Honda, O. Kitao, H. Nakai, T. Vreven, J. A. Montgomery, Jr., 
 J. E. Peralta, F. Ogliaro, M. Bearpark, J. J. Heyd, E. Brothers, 
 K. N. Kudin, V. N. Staroverov, T. Keith, R. Kobayashi, J. Normand, 
 K. Raghavachari, A. Rendell, J. C. Burant, S. S. Iyengar, J. Tomasi, 
 M. Cossi, N. Rega, J. M. Millam, M. Klene, J. E. Knox, J. B. Cross, 
 V. Bakken, C. Adamo, J. Jaramillo, R. Gomperts, R. E. Stratmann, 
 O. Yazyev, A. J. Austin, R. Cammi, C. Pomelli, J. W. Ochterski, 
 R. L. Martin, K. Morokuma, V. G. Zakrzewski, G. A. Voth, 
 P. Salvador, J. J. Dannenberg, S. Dapprich, A. D. Daniels, 
 O. Farkas, J. B. Foresman, J. V. Ortiz, J. Cioslowski, 
 and D. J. Fox, Gaussian, Inc., Wallingford CT, 2013.
 
 ******************************************
 Gaussian 09:  EM64L-G09RevE.01 30-Nov-2015
                 1-Nov-2016 
 ******************************************
 %NProcShared=4
 Will use up to    4 processors via shared memory.
 -----------------------------------------
 #p b3lyp/6-311+G(3df) freq symmetry=Loose
 -----------------------------------------
 1/10=4,30=1,38=1/1,3;
 2/12=2,17=4,18=3,40=1/2;
 3/5=4,6=6,7=16,11=2,16=1,25=1,30=1,71=2,74=-5,140=1/1,2,3;
 4//1;
 5/5=2,38=5,98=1/2;
 8/6=4,10=90,11=11/1;
 11/6=1,8=1,9=11,15=111,16=1/1,2,10;
 10/6=1/2;
 6/7=2,8=2,9=2,10=2,18=1,28=1/1;
 7/8=1,10=1,25=1/1,2,3,16;
 1/10=4,30=1/3;
 99//99;
 Leave Link    1 at Tue Nov  1 20:05:10 2016, MaxMem=           0 cpu:         0.2
 (Enter /home/proyectos/fulerenos/M3C-v2.0/M3C-deps_CCC/g09-AM64L-G09RevC.01/l101.exe)
 ---------
 b3lyp opt
 ---------
 Symbolic Z-matrix:
 Charge =  1 Multiplicity = 4
 C                    -0.13198  -1.37894   0.60676 
 C                     0.49886   0.91901  -0.87814 
 C                    -0.79209  -0.39194   1.04049 
 C                    -1.03589   0.89403   0.9002 
 C                     1.01498  -0.21372  -1.09917 
 C                     0.79078  -1.42595  -0.44102 
 C                    -0.34466   1.59751  -0.12913 
 
 NAtoms=      7 NQM=        7 NQMF=       0 NMMI=      0 NMMIF=      0
                NMic=       0 NMicF=      0.
                    Isotopes and Nuclear Properties:
 (Nuclear quadrupole moments (NQMom) in fm**2, nuclear magnetic moments (NMagM)
  in nuclear magnetons)

  Atom         1           2           3           4           5           6           7
 IAtWgt=          12          12          12          12          12          12          12
 AtmWgt=  12.0000000  12.0000000  12.0000000  12.0000000  12.0000000  12.0000000  12.0000000
 NucSpn=           0           0           0           0           0           0           0
 AtZEff=   0.0000000   0.0000000   0.0000000   0.0000000   0.0000000   0.0000000   0.0000000
 NQMom=    0.0000000   0.0000000   0.0000000   0.0000000   0.0000000   0.0000000   0.0000000
 NMagM=    0.0000000   0.0000000   0.0000000   0.0000000   0.0000000   0.0000000   0.0000000
 AtZNuc=   6.0000000   6.0000000   6.0000000   6.0000000   6.0000000   6.0000000   6.0000000
 Leave Link  101 at Tue Nov  1 20:05:10 2016, MaxMem=    33554432 cpu:         0.4
 (Enter /home/proyectos/fulerenos/M3C-v2.0/M3C-deps_CCC/g09-AM64L-G09RevC.01/l103.exe)

 GradGradGradGradGradGradGradGradGradGradGradGradGradGradGradGradGradGrad
 Berny optimization.
 Initialization pass.
 Trust Radius=3.00D-01 FncErr=1.00D-07 GrdErr=1.00D-07
 Number of steps in this run=      2 maximum allowed number of steps=      2.
 GradGradGradGradGradGradGradGradGradGradGradGradGradGradGradGradGradGrad

 Leave Link  103 at Tue Nov  1 20:05:10 2016, MaxMem=    33554432 cpu:         0.1
 (Enter /home/proyectos/fulerenos/M3C-v2.0/M3C-deps_CCC/g09-AM64L-G09RevC.01/l202.exe)
                          Input orientation:                          
 ---------------------------------------------------------------------
 Center     Atomic      Atomic             Coordinates (Angstroms)
 Number     Number       Type             X           Y           Z
 ---------------------------------------------------------------------
      1          6           0       -0.131982   -1.378939    0.606763
      2          6           0        0.498855    0.919006   -0.878135
      3          6           0       -0.792091   -0.391941    1.040490
      4          6           0       -1.035890    0.894031    0.900204
      5          6           0        1.014981   -0.213716   -1.099172
      6          6           0        0.790781   -1.425952   -0.441017
      7          6           0       -0.344655    1.597509   -0.129132
 ---------------------------------------------------------------------
                    Distance matrix (angstroms):
                    1          2          3          4          5
     1  C    0.000000
     2  C    2.807744   0.000000
     3  C    1.264131   2.658241   0.000000
     4  C    2.463646   2.349161   1.316375   0.000000
     5  C    2.362939   1.264240   2.806319   3.070941   0.000000
     6  C    1.396977   2.403148   2.401984   3.243135   1.397480
     7  C    3.073437   1.316389   2.350771   1.425559   2.463762
                    6          7
     6  C    0.000000
     7  C    3.244658   0.000000
 Stoichiometry    C7(1+,4)
 Framework group  C1[X(C7)]
 Deg. of freedom    15
 Full point group                 C1      NOp   1
 Largest Abelian subgroup         C1      NOp   1
 Largest concise Abelian subgroup C1      NOp   1
                         Standard orientation:                         
 ---------------------------------------------------------------------
 Center     Atomic      Atomic             Coordinates (Angstroms)
 Number     Number       Type             X           Y           Z
 ---------------------------------------------------------------------
      1          6           0       -0.947092    1.179012    0.000233
      2          6           0        0.316617   -1.328271   -0.000327
      3          6           0        0.307995    1.329956   -0.000889
      4          6           0        1.472784    0.716682    0.000689
      5          6           0       -0.939354   -1.183915    0.000002
      6          6           0       -1.689126   -0.004597    0.000267
      7          6           0        1.478176   -0.708867    0.000025
 ---------------------------------------------------------------------
 Rotational constants (GHZ):      5.7369778      4.5868199      2.5489156
 Leave Link  202 at Tue Nov  1 20:05:10 2016, MaxMem=    33554432 cpu:         0.0
 (Enter /home/proyectos/fulerenos/M3C-v2.0/M3C-deps_CCC/g09-AM64L-G09RevC.01/l301.exe)
 Standard basis: 6-311+G(3df) (5D, 7F)
 Ernie: Thresh=  0.10000D-02 Tol=  0.10000D-05 Strict=F.
 There are   315 symmetry adapted cartesian basis functions of A   symmetry.
 There are   273 symmetry adapted basis functions of A   symmetry.
   273 basis functions,   406 primitive gaussians,   315 cartesian basis functions
    22 alpha electrons       19 beta electrons
       nuclear repulsion energy       200.2001111137 Hartrees.
 IExCor=  402 DFT=T Ex+Corr=B3LYP ExCW=0 ScaHFX=  0.200000
 ScaDFX=  0.800000  0.720000  1.000000  0.810000 ScalE2=  1.000000  1.000000
 IRadAn=      0 IRanWt=     -1 IRanGd=            0 ICorTp=0 IEmpDi=  4
 NAtoms=    7 NActive=    7 NUniq=    7 SFac= 1.00D+00 NAtFMM=   60 NAOKFM=F Big=F
 Integral buffers will be    131072 words long.
 Raffenetti 2 integral format.
 Two-electron integral symmetry is turned on.
 Leave Link  301 at Tue Nov  1 20:05:10 2016, MaxMem=    33554432 cpu:         0.4
 (Enter /home/proyectos/fulerenos/M3C-v2.0/M3C-deps_CCC/g09-AM64L-G09RevC.01/l302.exe)
 NPDir=0 NMtPBC=     1 NCelOv=     1 NCel=       1 NClECP=     1 NCelD=      1
         NCelK=      1 NCelE2=     1 NClLst=     1 CellRange=     0.0.
 One-electron integrals computed using PRISM.
 NBasis=   273 RedAO= T EigKep=  1.96D-06  NBF=   273
 NBsUse=   272 1.00D-06 EigRej=  6.49D-07 NBFU=   272
 Precomputing XC quadrature grid using
 IXCGrd= 4 IRadAn=           0 IRanWt=          -1 IRanGd=           0 AccXCQ= 0.00D+00.
 Generated NRdTot=       0 NPtTot=           0 NUsed=           0 NTot=          32
 NSgBfM=   315   315   315   315   315 MxSgAt=     7 MxSgA2=     7.
 Leave Link  302 at Tue Nov  1 20:05:11 2016, MaxMem=    33554432 cpu:         1.9
 (Enter /home/proyectos/fulerenos/M3C-v2.0/M3C-deps_CCC/g09-AM64L-G09RevC.01/l303.exe)
 DipDrv:  MaxL=1.
 Leave Link  303 at Tue Nov  1 20:05:11 2016, MaxMem=    33554432 cpu:         0.3
 (Enter /home/proyectos/fulerenos/M3C-v2.0/M3C-deps_CCC/g09-AM64L-G09RevC.01/l401.exe)
 ExpMin= 4.38D-02 ExpMax= 4.56D+03 ExpMxC= 6.82D+02 IAcc=2 IRadAn=         4 AccDes= 0.00D+00
 Harris functional with IExCor=  402 and IRadAn=       4 diagonalized for initial guess.
 HarFok:  IExCor=  402 AccDes= 0.00D+00 IRadAn=         4 IDoV= 1 UseB2=F ITyADJ=14
 ICtDFT=  3500011 ScaDFX=  1.000000  1.000000  1.000000  1.000000
 FoFCou: FMM=F IPFlag=           0 FMFlag=      100000 FMFlg1=           0
         NFxFlg=           0 DoJE=T BraDBF=F KetDBF=T FulRan=T
         wScrn=  0.000000 ICntrl=     500 IOpCl=  0 I1Cent=   200000004 NGrid=           0
         NMat0=    1 NMatS0=      1 NMatT0=    0 NMatD0=    1 NMtDS0=    0 NMtDT0=    0
 Petite list used in FoFCou.
 Harris En= -266.041474154984    
 JPrj=0 DoOrth=F DoCkMO=F.
 Initial guess <Sx>= 0.0000 <Sy>= 0.0000 <Sz>= 1.5000 <S**2>= 3.7500 S= 1.5000
 Leave Link  401 at Tue Nov  1 20:05:13 2016, MaxMem=    33554432 cpu:         5.7
 (Enter /home/proyectos/fulerenos/M3C-v2.0/M3C-deps_CCC/g09-AM64L-G09RevC.01/l502.exe)
 UHF open shell SCF:
 Using DIIS extrapolation, IDIIS=  1040.
 Integral symmetry usage will be decided dynamically.
 IVT=      320355 IEndB=      320355 NGot=    33554432 MDV=    33350258
 LenX=    33350258 LenY=    33250592
 Requested convergence on RMS density matrix=1.00D-08 within 128 cycles.
 Requested convergence on MAX density matrix=1.00D-06.
 Requested convergence on             energy=1.00D-06.
 No special actions if energy rises.
 Fock matrices will be formed incrementally for  20 cycles.

 Cycle   1  Pass 1  IDiag  1:
 FoFJK:  IHMeth= 1 ICntrl=       0 DoSepK=F KAlg= 0 I1Cent=   0 FoldK=F
 IRaf= 990000000 NMat=   1 IRICut=       1 DoRegI=T DoRafI=F ISym2E= 0.
 FoFCou: FMM=F IPFlag=           0 FMFlag=      100000 FMFlg1=           0
         NFxFlg=           0 DoJE=F BraDBF=F KetDBF=F FulRan=T
         wScrn=  0.000000 ICntrl=       0 IOpCl=  1 I1Cent=           0 NGrid=           0
         NMat0=    1 NMatS0=      1 NMatT0=    0 NMatD0=    1 NMtDS0=    0 NMtDT0=    0
 Symmetry not used in FoFCou.
 E= -265.958859839122    
 DIIS: error= 2.03D-02 at cycle   1 NSaved=   1.
 NSaved= 1 IEnMin= 1 EnMin= -265.958859839122     IErMin= 1 ErrMin= 2.03D-02
 ErrMax= 2.03D-02  0.00D+00 EMaxC= 1.00D-01 BMatC= 3.00D-01 BMatP= 3.00D-01
 IDIUse=3 WtCom= 7.97D-01 WtEn= 2.03D-01
 Coeff-Com:  0.100D+01
 Coeff-En:   0.100D+01
 Coeff:      0.100D+01
 Gap=     0.160 Goal=   None    Shift=    0.000
 Gap=     0.090 Goal=   None    Shift=    0.000
 GapD=    0.090 DampG=0.500 DampE=0.500 DampFc=0.2500 IDamp=-1.
 Damping current iteration by 2.50D-01
 RMSDP=9.75D-03 MaxDP=5.58D-01              OVMax= 1.41D-01

 Cycle   2  Pass 1  IDiag  1:
 RMSU=  2.44D-03    CP:  9.97D-01
 E= -265.978347477874     Delta-E=       -0.019487638752 Rises=F Damp=T
 DIIS: error= 1.14D-02 at cycle   2 NSaved=   2.
 NSaved= 2 IEnMin= 2 EnMin= -265.978347477874     IErMin= 2 ErrMin= 1.14D-02
 ErrMax= 1.14D-02  0.00D+00 EMaxC= 1.00D-01 BMatC= 1.12D-01 BMatP= 3.00D-01
 IDIUse=3 WtCom= 8.86D-01 WtEn= 1.14D-01
 Coeff-Com: -0.108D+01 0.208D+01
 Coeff-En:   0.000D+00 0.100D+01
 Coeff:     -0.955D+00 0.195D+01
 Gap=     0.141 Goal=   None    Shift=    0.000
 Gap=     0.094 Goal=   None    Shift=    0.000
 RMSDP=7.33D-03 MaxDP=3.96D-01 DE=-1.95D-02 OVMax= 1.12D-01

 Cycle   3  Pass 1  IDiag  1:
 RMSU=  3.50D-03    CP:  9.94D-01  3.00D+00
 E= -266.015014507174     Delta-E=       -0.036667029300 Rises=F Damp=F
 DIIS: error= 1.05D-02 at cycle   3 NSaved=   3.
 NSaved= 3 IEnMin= 3 EnMin= -266.015014507174     IErMin= 3 ErrMin= 1.05D-02
 ErrMax= 1.05D-02  0.00D+00 EMaxC= 1.00D-01 BMatC= 4.08D-02 BMatP= 1.12D-01
 IDIUse=3 WtCom= 8.95D-01 WtEn= 1.05D-01
 Coeff-Com: -0.754D+00 0.117D+01 0.584D+00
 Coeff-En:   0.000D+00 0.000D+00 0.100D+01
 Coeff:     -0.675D+00 0.105D+01 0.628D+00
 Gap=     0.146 Goal=   None    Shift=    0.000
 Gap=     0.079 Goal=   None    Shift=    0.000
 RMSDP=2.48D-03 MaxDP=1.14D-01 DE=-3.67D-02 OVMax= 4.69D-02

 Cycle   4  Pass 1  IDiag  1:
 RMSU=  2.21D-03    CP:  9.58D-01  3.00D+00  1.05D+00
 E= -266.024089865535     Delta-E=       -0.009075358361 Rises=F Damp=F
 DIIS: error= 4.86D-03 at cycle   4 NSaved=   4.
 NSaved= 4 IEnMin= 4 EnMin= -266.024089865535     IErMin= 4 ErrMin= 4.86D-03
 ErrMax= 4.86D-03  0.00D+00 EMaxC= 1.00D-01 BMatC= 8.38D-03 BMatP= 4.08D-02
 IDIUse=3 WtCom= 9.51D-01 WtEn= 4.86D-02
 Coeff-Com: -0.243D+00 0.339D+00 0.367D+00 0.537D+00
 Coeff-En:   0.000D+00 0.000D+00 0.153D+00 0.847D+00
 Coeff:     -0.231D+00 0.322D+00 0.357D+00 0.552D+00
 Gap=     0.147 Goal=   None    Shift=    0.000
 Gap=     0.085 Goal=   None    Shift=    0.000
 RMSDP=8.79D-04 MaxDP=6.22D-02 DE=-9.08D-03 OVMax= 3.52D-02

 Cycle   5  Pass 1  IDiag  1:
 RMSU=  7.11D-04    CP:  9.66D-01  3.00D+00  1.14D+00  8.55D-01
 E= -266.025160804450     Delta-E=       -0.001070938915 Rises=F Damp=F
 DIIS: error= 5.51D-03 at cycle   5 NSaved=   5.
 NSaved= 5 IEnMin= 5 EnMin= -266.025160804450     IErMin= 4 ErrMin= 4.86D-03
 ErrMax= 5.51D-03  0.00D+00 EMaxC= 1.00D-01 BMatC= 5.34D-03 BMatP= 8.38D-03
 IDIUse=3 WtCom= 9.45D-01 WtEn= 5.51D-02
 Coeff-Com: -0.612D-01 0.629D-01 0.203D+00 0.471D+00 0.324D+00
 Coeff-En:   0.000D+00 0.000D+00 0.000D+00 0.381D+00 0.619D+00
 Coeff:     -0.578D-01 0.595D-01 0.192D+00 0.466D+00 0.340D+00
 Gap=     0.144 Goal=   None    Shift=    0.000
 Gap=     0.088 Goal=   None    Shift=    0.000
 RMSDP=5.48D-04 MaxDP=2.71D-02 DE=-1.07D-03 OVMax= 2.39D-02

 Cycle   6  Pass 1  IDiag  1:
 RMSU=  3.85D-04    CP:  9.65D-01  3.00D+00  1.13D+00  9.37D-01  5.23D-01
 E= -266.026810405476     Delta-E=       -0.001649601026 Rises=F Damp=F
 DIIS: error= 1.42D-03 at cycle   6 NSaved=   6.
 NSaved= 6 IEnMin= 6 EnMin= -266.026810405476     IErMin= 6 ErrMin= 1.42D-03
 ErrMax= 1.42D-03  0.00D+00 EMaxC= 1.00D-01 BMatC= 4.73D-04 BMatP= 5.34D-03
 IDIUse=3 WtCom= 9.86D-01 WtEn= 1.42D-02
 Coeff-Com:  0.638D-01-0.102D+00-0.299D-01 0.811D-01 0.231D+00 0.756D+00
 Coeff-En:   0.000D+00 0.000D+00 0.000D+00 0.000D+00 0.377D-01 0.962D+00
 Coeff:      0.629D-01-0.100D+00-0.295D-01 0.800D-01 0.228D+00 0.759D+00
 Gap=     0.143 Goal=   None    Shift=    0.000
 Gap=     0.090 Goal=   None    Shift=    0.000
 RMSDP=4.55D-04 MaxDP=2.71D-02 DE=-1.65D-03 OVMax= 1.33D-02

 Cycle   7  Pass 1  IDiag  1:
 RMSU=  2.72D-04    CP:  9.66D-01  3.00D+00  1.19D+00  1.00D+00  8.83D-01
                    CP:  1.18D+00
 E= -266.027091980886     Delta-E=       -0.000281575411 Rises=F Damp=F
 DIIS: error= 5.43D-04 at cycle   7 NSaved=   7.
 NSaved= 7 IEnMin= 7 EnMin= -266.027091980886     IErMin= 7 ErrMin= 5.43D-04
 ErrMax= 5.43D-04  0.00D+00 EMaxC= 1.00D-01 BMatC= 1.06D-04 BMatP= 4.73D-04
 IDIUse=3 WtCom= 9.95D-01 WtEn= 5.43D-03
 Coeff-Com:  0.485D-01-0.678D-01-0.673D-01-0.785D-01 0.319D-01 0.389D+00
 Coeff-Com:  0.744D+00
 Coeff-En:   0.000D+00 0.000D+00 0.000D+00 0.000D+00 0.000D+00 0.000D+00
 Coeff-En:   0.100D+01
 Coeff:      0.482D-01-0.674D-01-0.669D-01-0.781D-01 0.317D-01 0.387D+00
 Coeff:      0.746D+00
 Gap=     0.143 Goal=   None    Shift=    0.000
 Gap=     0.091 Goal=   None    Shift=    0.000
 RMSDP=2.59D-04 MaxDP=1.62D-02 DE=-2.82D-04 OVMax= 9.40D-03

 Cycle   8  Pass 1  IDiag  1:
 RMSU=  1.04D-04    CP:  9.66D-01  3.00D+00  1.22D+00  1.05D+00  1.03D+00
                    CP:  1.49D+00  1.39D+00
 E= -266.027193956089     Delta-E=       -0.000101975202 Rises=F Damp=F
 DIIS: error= 2.73D-04 at cycle   8 NSaved=   8.
 NSaved= 8 IEnMin= 8 EnMin= -266.027193956089     IErMin= 8 ErrMin= 2.73D-04
 ErrMax= 2.73D-04  0.00D+00 EMaxC= 1.00D-01 BMatC= 3.63D-05 BMatP= 1.06D-04
 IDIUse=3 WtCom= 9.97D-01 WtEn= 2.73D-03
 Coeff-Com: -0.515D-02 0.123D-01-0.202D-01-0.744D-01-0.855D-01-0.125D+00
 Coeff-Com:  0.398D+00 0.900D+00
 Coeff-En:   0.000D+00 0.000D+00 0.000D+00 0.000D+00 0.000D+00 0.000D+00
 Coeff-En:   0.000D+00 0.100D+01
 Coeff:     -0.513D-02 0.123D-01-0.202D-01-0.742D-01-0.853D-01-0.125D+00
 Coeff:      0.397D+00 0.900D+00
 Gap=     0.143 Goal=   None    Shift=    0.000
 Gap=     0.092 Goal=   None    Shift=    0.000
 RMSDP=2.81D-04 MaxDP=1.78D-02 DE=-1.02D-04 OVMax= 6.63D-03

 Cycle   9  Pass 1  IDiag  1:
 RMSU=  5.22D-05    CP:  9.67D-01  3.00D+00  1.25D+00  1.08D+00  1.21D+00
                    CP:  1.74D+00  2.02D+00  1.55D+00
 E= -266.027247865969     Delta-E=       -0.000053909881 Rises=F Damp=F
 DIIS: error= 1.26D-04 at cycle   9 NSaved=   9.
 NSaved= 9 IEnMin= 9 EnMin= -266.027247865969     IErMin= 9 ErrMin= 1.26D-04
 ErrMax= 1.26D-04  0.00D+00 EMaxC= 1.00D-01 BMatC= 8.00D-06 BMatP= 3.63D-05
 IDIUse=3 WtCom= 9.99D-01 WtEn= 1.26D-03
 Coeff-Com: -0.139D-01 0.206D-01 0.102D-01-0.854D-02-0.323D-01-0.131D+00
 Coeff-Com: -0.714D-01 0.252D+00 0.974D+00
 Coeff-En:   0.000D+00 0.000D+00 0.000D+00 0.000D+00 0.000D+00 0.000D+00
 Coeff-En:   0.000D+00 0.000D+00 0.100D+01
 Coeff:     -0.139D-01 0.206D-01 0.102D-01-0.853D-02-0.322D-01-0.131D+00
 Coeff:     -0.713D-01 0.252D+00 0.974D+00
 Gap=     0.143 Goal=   None    Shift=    0.000
 Gap=     0.092 Goal=   None    Shift=    0.000
 RMSDP=1.66D-04 MaxDP=1.26D-02 DE=-5.39D-05 OVMax= 4.30D-03

 Cycle  10  Pass 1  IDiag  1:
 RMSU=  3.95D-05    CP:  9.68D-01  3.00D+00  1.26D+00  1.10D+00  1.31D+00
                    CP:  1.87D+00  2.39D+00  2.09D+00  1.24D+00
 E= -266.027260544762     Delta-E=       -0.000012678793 Rises=F Damp=F
 DIIS: error= 1.63D-04 at cycle  10 NSaved=  10.
 NSaved=10 IEnMin=10 EnMin= -266.027260544762     IErMin= 9 ErrMin= 1.26D-04
 ErrMax= 1.63D-04  0.00D+00 EMaxC= 1.00D-01 BMatC= 1.20D-05 BMatP= 8.00D-06
 IDIUse=3 WtCom= 9.99D-01 WtEn= 1.26D-03
 Coeff-Com: -0.100D-01 0.132D-01 0.167D-01 0.189D-01 0.392D-02-0.705D-01
 Coeff-Com: -0.214D+00-0.108D+00 0.867D+00 0.483D+00
 Coeff-En:   0.000D+00 0.000D+00 0.000D+00 0.000D+00 0.000D+00 0.000D+00
 Coeff-En:   0.000D+00 0.000D+00 0.000D+00 0.100D+01
 Coeff:     -0.100D-01 0.131D-01 0.166D-01 0.189D-01 0.391D-02-0.704D-01
 Coeff:     -0.213D+00-0.108D+00 0.866D+00 0.483D+00
 Gap=     0.143 Goal=   None    Shift=    0.000
 Gap=     0.092 Goal=   None    Shift=    0.000
 RMSDP=8.17D-05 MaxDP=6.49D-03 DE=-1.27D-05 OVMax= 2.29D-03

 Cycle  11  Pass 1  IDiag  1:
 RMSU=  1.48D-05    CP:  9.69D-01  3.00D+00  1.26D+00  1.11D+00  1.36D+00
                    CP:  1.94D+00  2.57D+00  2.32D+00  1.71D+00  6.91D-01
 E= -266.027266594427     Delta-E=       -0.000006049665 Rises=F Damp=F
 DIIS: error= 4.25D-05 at cycle  11 NSaved=  11.
 NSaved=11 IEnMin=11 EnMin= -266.027266594427     IErMin=11 ErrMin= 4.25D-05
 ErrMax= 4.25D-05  0.00D+00 EMaxC= 1.00D-01 BMatC= 3.81D-07 BMatP= 8.00D-06
 IDIUse=1 WtCom= 1.00D+00 WtEn= 0.00D+00
 Coeff-Com:  0.460D-02-0.654D-02-0.193D-02 0.245D-02 0.888D-02 0.295D-01
 Coeff-Com:  0.168D-01-0.384D-01-0.286D+00-0.261D-01 0.130D+01
 Coeff:      0.460D-02-0.654D-02-0.193D-02 0.245D-02 0.888D-02 0.295D-01
 Coeff:      0.168D-01-0.384D-01-0.286D+00-0.261D-01 0.130D+01
 Gap=     0.143 Goal=   None    Shift=    0.000
 Gap=     0.092 Goal=   None    Shift=    0.000
 RMSDP=3.63D-05 MaxDP=2.70D-03 DE=-6.05D-06 OVMax= 1.20D-03

 Cycle  12  Pass 1  IDiag  1:
 RMSU=  6.08D-06    CP:  9.69D-01  3.00D+00  1.27D+00  1.11D+00  1.38D+00
                    CP:  1.96D+00  2.64D+00  2.47D+00  1.89D+00  8.69D-01
                    CP:  1.36D+00
 E= -266.027267353048     Delta-E=       -0.000000758621 Rises=F Damp=F
 DIIS: error= 1.27D-05 at cycle  12 NSaved=  12.
 NSaved=12 IEnMin=12 EnMin= -266.027267353048     IErMin=12 ErrMin= 1.27D-05
 ErrMax= 1.27D-05  0.00D+00 EMaxC= 1.00D-01 BMatC= 4.14D-08 BMatP= 3.81D-07
 IDIUse=1 WtCom= 1.00D+00 WtEn= 0.00D+00
 Coeff-Com:  0.137D-02-0.188D-02-0.187D-02-0.131D-02 0.996D-03 0.861D-02
 Coeff-Com:  0.199D-01 0.518D-02-0.108D+00-0.413D-01 0.154D+00 0.964D+00
 Coeff:      0.137D-02-0.188D-02-0.187D-02-0.131D-02 0.996D-03 0.861D-02
 Coeff:      0.199D-01 0.518D-02-0.108D+00-0.413D-01 0.154D+00 0.964D+00
 Gap=     0.143 Goal=   None    Shift=    0.000
 Gap=     0.092 Goal=   None    Shift=    0.000
 RMSDP=5.48D-06 MaxDP=5.12D-04 DE=-7.59D-07 OVMax= 1.98D-04

 Cycle  13  Pass 1  IDiag  1:
 RMSU=  3.05D-06    CP:  9.69D-01  3.00D+00  1.27D+00  1.11D+00  1.39D+00
                    CP:  1.96D+00  2.65D+00  2.48D+00  1.91D+00  8.91D-01
                    CP:  1.46D+00  1.20D+00
 E= -266.027267379417     Delta-E=       -0.000000026369 Rises=F Damp=F
 DIIS: error= 1.99D-05 at cycle  13 NSaved=  13.
 NSaved=13 IEnMin=13 EnMin= -266.027267379417     IErMin=12 ErrMin= 1.27D-05
 ErrMax= 1.99D-05  0.00D+00 EMaxC= 1.00D-01 BMatC= 7.35D-08 BMatP= 4.14D-08
 IDIUse=1 WtCom= 1.00D+00 WtEn= 0.00D+00
 Coeff-Com: -0.120D-03 0.230D-03-0.108D-02-0.180D-02-0.161D-02-0.845D-03
 Coeff-Com:  0.122D-01 0.146D-01-0.126D-01-0.263D-01-0.228D+00 0.799D+00
 Coeff-Com:  0.446D+00
 Coeff:     -0.120D-03 0.230D-03-0.108D-02-0.180D-02-0.161D-02-0.845D-03
 Coeff:      0.122D-01 0.146D-01-0.126D-01-0.263D-01-0.228D+00 0.799D+00
 Coeff:      0.446D+00
 Gap=     0.143 Goal=   None    Shift=    0.000
 Gap=     0.092 Goal=   None    Shift=    0.000
 RMSDP=2.36D-06 MaxDP=1.50D-04 DE=-2.64D-08 OVMax= 9.96D-05

 Cycle  14  Pass 1  IDiag  1:
 RMSU=  1.06D-06    CP:  9.69D-01  3.00D+00  1.27D+00  1.11D+00  1.39D+00
                    CP:  1.97D+00  2.65D+00  2.49D+00  1.92D+00  9.00D-01
                    CP:  1.49D+00  1.37D+00  5.27D-01
 E= -266.027267408714     Delta-E=       -0.000000029297 Rises=F Damp=F
 DIIS: error= 3.25D-06 at cycle  14 NSaved=  14.
 NSaved=14 IEnMin=14 EnMin= -266.027267408714     IErMin=14 ErrMin= 3.25D-06
 ErrMax= 3.25D-06  0.00D+00 EMaxC= 1.00D-01 BMatC= 2.08D-09 BMatP= 4.14D-08
 IDIUse=1 WtCom= 1.00D+00 WtEn= 0.00D+00
 Coeff-Com: -0.307D-03 0.428D-03 0.266D-03 0.272D-04-0.496D-03-0.157D-02
 Coeff-Com: -0.228D-02 0.105D-04 0.205D-01 0.797D-02-0.588D-01-0.126D+00
 Coeff-Com:  0.545D-01 0.111D+01
 Coeff:     -0.307D-03 0.428D-03 0.266D-03 0.272D-04-0.496D-03-0.157D-02
 Coeff:     -0.228D-02 0.105D-04 0.205D-01 0.797D-02-0.588D-01-0.126D+00
 Coeff:      0.545D-01 0.111D+01
 Gap=     0.143 Goal=   None    Shift=    0.000
 Gap=     0.092 Goal=   None    Shift=    0.000
 RMSDP=9.72D-07 MaxDP=4.76D-05 DE=-2.93D-08 OVMax= 5.05D-05

 Cycle  15  Pass 1  IDiag  1:
 RMSU=  3.97D-07    CP:  9.69D-01  3.00D+00  1.27D+00  1.11D+00  1.39D+00
                    CP:  1.97D+00  2.65D+00  2.49D+00  1.91D+00  9.01D-01
                    CP:  1.48D+00  1.42D+00  6.47D-01  1.39D+00
 E= -266.027267411475     Delta-E=       -0.000000002761 Rises=F Damp=F
 DIIS: error= 1.37D-06 at cycle  15 NSaved=  15.
 NSaved=15 IEnMin=15 EnMin= -266.027267411475     IErMin=15 ErrMin= 1.37D-06
 ErrMax= 1.37D-06  0.00D+00 EMaxC= 1.00D-01 BMatC= 4.55D-10 BMatP= 2.08D-09
 IDIUse=1 WtCom= 1.00D+00 WtEn= 0.00D+00
 Coeff-Com: -0.745D-04 0.991D-04 0.181D-03 0.191D-03-0.777D-05-0.366D-03
 Coeff-Com: -0.183D-02-0.122D-02 0.654D-02 0.581D-02 0.568D-02-0.112D+00
 Coeff-Com: -0.305D-01 0.277D+00 0.851D+00
 Coeff:     -0.745D-04 0.991D-04 0.181D-03 0.191D-03-0.777D-05-0.366D-03
 Coeff:     -0.183D-02-0.122D-02 0.654D-02 0.581D-02 0.568D-02-0.112D+00
 Coeff:     -0.305D-01 0.277D+00 0.851D+00
 Gap=     0.143 Goal=   None    Shift=    0.000
 Gap=     0.092 Goal=   None    Shift=    0.000
 RMSDP=4.84D-07 MaxDP=4.27D-05 DE=-2.76D-09 OVMax= 2.12D-05

 Cycle  16  Pass 1  IDiag  1:
 RMSU=  2.34D-07    CP:  9.69D-01  3.00D+00  1.27D+00  1.11D+00  1.39D+00
                    CP:  1.97D+00  2.65D+00  2.48D+00  1.91D+00  9.00D-01
                    CP:  1.48D+00  1.43D+00  7.01D-01  1.58D+00  1.46D+00
 E= -266.027267411943     Delta-E=       -0.000000000468 Rises=F Damp=F
 DIIS: error= 7.81D-07 at cycle  16 NSaved=  16.
 NSaved=16 IEnMin=16 EnMin= -266.027267411943     IErMin=16 ErrMin= 7.81D-07
 ErrMax= 7.81D-07  0.00D+00 EMaxC= 1.00D-01 BMatC= 3.48D-10 BMatP= 4.55D-10
 IDIUse=1 WtCom= 1.00D+00 WtEn= 0.00D+00
 Coeff-Com:  0.902D-04-0.128D-03-0.522D-06 0.125D-03 0.209D-03 0.476D-03
 Coeff-Com: -0.230D-03-0.687D-03-0.534D-02 0.102D-02 0.304D-01-0.157D-01
 Coeff-Com: -0.490D-01-0.347D+00 0.626D+00 0.760D+00
 Coeff:      0.902D-04-0.128D-03-0.522D-06 0.125D-03 0.209D-03 0.476D-03
 Coeff:     -0.230D-03-0.687D-03-0.534D-02 0.102D-02 0.304D-01-0.157D-01
 Coeff:     -0.490D-01-0.347D+00 0.626D+00 0.760D+00
 Gap=     0.143 Goal=   None    Shift=    0.000
 Gap=     0.092 Goal=   None    Shift=    0.000
 RMSDP=4.15D-07 MaxDP=3.47D-05 DE=-4.68D-10 OVMax= 2.05D-05

 Cycle  17  Pass 1  IDiag  1:
 RMSU=  1.22D-07    CP:  9.69D-01  3.00D+00  1.27D+00  1.11D+00  1.39D+00
                    CP:  1.97D+00  2.65D+00  2.48D+00  1.91D+00  9.01D-01
                    CP:  1.48D+00  1.43D+00  7.16D-01  1.76D+00  2.09D+00
                    CP:  1.26D+00
 E= -266.027267412230     Delta-E=       -0.000000000286 Rises=F Damp=F
 DIIS: error= 2.61D-07 at cycle  17 NSaved=  17.
 NSaved=17 IEnMin=17 EnMin= -266.027267412230     IErMin=17 ErrMin= 2.61D-07
 ErrMax= 2.61D-07  0.00D+00 EMaxC= 1.00D-01 BMatC= 2.76D-11 BMatP= 3.48D-10
 IDIUse=1 WtCom= 1.00D+00 WtEn= 0.00D+00
 Coeff-Com: -0.362D-05 0.586D-05-0.352D-04-0.511D-04-0.402D-04 0.185D-04
 Coeff-Com:  0.328D-03 0.415D-03-0.742D-03-0.380D-03-0.733D-02 0.266D-01
 Coeff-Com:  0.130D-01-0.110D-01-0.200D+00-0.120D+00 0.130D+01
 Coeff:     -0.362D-05 0.586D-05-0.352D-04-0.511D-04-0.402D-04 0.185D-04
 Coeff:      0.328D-03 0.415D-03-0.742D-03-0.380D-03-0.733D-02 0.266D-01
 Coeff:      0.130D-01-0.110D-01-0.200D+00-0.120D+00 0.130D+01
 Gap=     0.143 Goal=   None    Shift=    0.000
 Gap=     0.092 Goal=   None    Shift=    0.000
 RMSDP=2.76D-07 MaxDP=2.49D-05 DE=-2.86D-10 OVMax= 1.64D-05

 Cycle  18  Pass 1  IDiag  1:
 RMSU=  4.88D-08    CP:  9.69D-01  3.00D+00  1.27D+00  1.11D+00  1.39D+00
                    CP:  1.97D+00  2.65D+00  2.48D+00  1.91D+00  9.01D-01
                    CP:  1.48D+00  1.44D+00  7.35D-01  1.86D+00  2.53D+00
                    CP:  1.76D+00  1.69D+00
 E= -266.027267412295     Delta-E=       -0.000000000065 Rises=F Damp=F
 DIIS: error= 1.66D-07 at cycle  18 NSaved=  18.
 NSaved=18 IEnMin=18 EnMin= -266.027267412295     IErMin=18 ErrMin= 1.66D-07
 ErrMax= 1.66D-07  0.00D+00 EMaxC= 1.00D-01 BMatC= 1.07D-11 BMatP= 2.76D-11
 IDIUse=1 WtCom= 1.00D+00 WtEn= 0.00D+00
 Coeff-Com: -0.124D-04 0.174D-04 0.886D-05-0.978D-05-0.112D-04-0.788D-04
 Coeff-Com: -0.447D-04 0.175D-04 0.754D-03 0.610D-03-0.325D-02-0.479D-02
 Coeff-Com:  0.374D-02 0.570D-01-0.371D-01-0.111D+00-0.276D+00 0.137D+01
 Coeff:     -0.124D-04 0.174D-04 0.886D-05-0.978D-05-0.112D-04-0.788D-04
 Coeff:     -0.447D-04 0.175D-04 0.754D-03 0.610D-03-0.325D-02-0.479D-02
 Coeff:      0.374D-02 0.570D-01-0.371D-01-0.111D+00-0.276D+00 0.137D+01
 Gap=     0.143 Goal=   None    Shift=    0.000
 Gap=     0.092 Goal=   None    Shift=    0.000
 RMSDP=1.90D-07 MaxDP=1.38D-05 DE=-6.55D-11 OVMax= 1.17D-05

 Cycle  19  Pass 1  IDiag  1:
 RMSU=  2.00D-08    CP:  9.69D-01  3.00D+00  1.27D+00  1.11D+00  1.39D+00
                    CP:  1.97D+00  2.65D+00  2.48D+00  1.91D+00  9.02D-01
                    CP:  1.48D+00  1.44D+00  7.49D-01  1.93D+00  2.82D+00
                    CP:  2.10D+00  2.25D+00  1.96D+00
 E= -266.027267412322     Delta-E=       -0.000000000026 Rises=F Damp=F
 DIIS: error= 1.07D-07 at cycle  19 NSaved=  19.
 NSaved=19 IEnMin=19 EnMin= -266.027267412322     IErMin=19 ErrMin= 1.07D-07
 ErrMax= 1.07D-07  0.00D+00 EMaxC= 1.00D-01 BMatC= 4.23D-12 BMatP= 1.07D-11
 IDIUse=1 WtCom= 1.00D+00 WtEn= 0.00D+00
 Coeff-Com:  0.900D-05-0.130D-04 0.194D-04 0.387D-04 0.303D-04 0.273D-04
 Coeff-Com: -0.210D-03-0.246D-03-0.142D-03 0.602D-03 0.593D-02-0.153D-01
 Coeff-Com: -0.103D-01-0.154D-01 0.150D+00 0.949D-01-0.704D+00-0.479D+00
 Coeff-Com:  0.197D+01
 Coeff:      0.900D-05-0.130D-04 0.194D-04 0.387D-04 0.303D-04 0.273D-04
 Coeff:     -0.210D-03-0.246D-03-0.142D-03 0.602D-03 0.593D-02-0.153D-01
 Coeff:     -0.103D-01-0.154D-01 0.150D+00 0.949D-01-0.704D+00-0.479D+00
 Coeff:      0.197D+01
 Gap=     0.143 Goal=   None    Shift=    0.000
 Gap=     0.092 Goal=   None    Shift=    0.000
 RMSDP=2.57D-07 MaxDP=1.90D-05 DE=-2.64D-11 OVMax= 1.59D-05

 Cycle  20  Pass 1  IDiag  1:
 RMSU=  8.60D-08    CP:  9.69D-01  3.00D+00  1.27D+00  1.11D+00  1.39D+00
                    CP:  1.97D+00  2.65D+00  2.48D+00  1.91D+00  9.03D-01
                    CP:  1.48D+00  1.45D+00  7.68D-01  2.04D+00  3.00D+00
                    CP:  2.54D+00  2.99D+00  3.00D+00  2.35D+00
 E= -266.027267412339     Delta-E=       -0.000000000018 Rises=F Damp=F
 DIIS: error= 2.63D-08 at cycle  20 NSaved=  20.
 NSaved=20 IEnMin=20 EnMin= -266.027267412339     IErMin=20 ErrMin= 2.63D-08
 ErrMax= 2.63D-08  0.00D+00 EMaxC= 1.00D-01 BMatC= 2.94D-13 BMatP= 4.23D-12
 IDIUse=1 WtCom= 1.00D+00 WtEn= 0.00D+00
 Coeff-Com:  0.495D-06-0.618D-06-0.324D-05-0.218D-05-0.153D-05 0.387D-05
 Coeff-Com:  0.203D-04 0.548D-04-0.110D-03-0.989D-04-0.316D-03 0.271D-02
 Coeff-Com:  0.451D-03-0.914D-02-0.455D-02 0.865D-02 0.106D+00-0.168D+00
 Coeff-Com: -0.248D+00 0.131D+01
 Coeff:      0.495D-06-0.618D-06-0.324D-05-0.218D-05-0.153D-05 0.387D-05
 Coeff:      0.203D-04 0.548D-04-0.110D-03-0.989D-04-0.316D-03 0.271D-02
 Coeff:      0.451D-03-0.914D-02-0.455D-02 0.865D-02 0.106D+00-0.168D+00
 Coeff:     -0.248D+00 0.131D+01
 Gap=     0.143 Goal=   None    Shift=    0.000
 Gap=     0.092 Goal=   None    Shift=    0.000
 RMSDP=7.26D-08 MaxDP=5.58D-06 DE=-1.76D-11 OVMax= 4.48D-06

 Cycle  21  Pass 1  IDiag  1:
 Restarting incremental Fock formation.
 E= -266.027267412340     Delta-E=       -0.000000000000 Rises=F Damp=F
 DIIS: error= 1.20D-08 at cycle  21 NSaved=  20.
 NSaved=20 IEnMin=20 EnMin= -266.027267412340     IErMin=20 ErrMin= 1.20D-08
 ErrMax= 1.20D-08  0.00D+00 EMaxC= 1.00D-01 BMatC= 1.45D-14 BMatP= 2.94D-13
 IDIUse=1 WtCom= 1.00D+00 WtEn= 0.00D+00
 Coeff-Com:  0.166D-07-0.162D-05-0.234D-05-0.171D-05 0.203D-05 0.168D-04
 Coeff-Com:  0.160D-04-0.315D-04-0.422D-04-0.274D-03 0.107D-02 0.549D-03
 Coeff-Com: -0.271D-03-0.817D-02-0.432D-02 0.466D-01 0.304D-01-0.151D+00
 Coeff-Com:  0.787D-01 0.101D+01
 Coeff:      0.166D-07-0.162D-05-0.234D-05-0.171D-05 0.203D-05 0.168D-04
 Coeff:      0.160D-04-0.315D-04-0.422D-04-0.274D-03 0.107D-02 0.549D-03
 Coeff:     -0.271D-03-0.817D-02-0.432D-02 0.466D-01 0.304D-01-0.151D+00
 Coeff:      0.787D-01 0.101D+01
 Gap=     0.143 Goal=   None    Shift=    0.000
 Gap=     0.092 Goal=   None    Shift=    0.000
 RMSDP=7.83D-09 MaxDP=4.82D-07 DE=-3.98D-13 OVMax= 3.65D-07

 SCF Done:  E(UB3LYP) =  -266.027267412     A.U. after   21 cycles
            NFock= 21  Conv=0.78D-08     -V/T= 2.0043
 <Sx>= 0.0000 <Sy>= 0.0000 <Sz>= 1.5000 <S**2>= 3.8685 S= 1.5294
 <L.S>= 0.000000000000E+00
 KE= 2.649011086409D+02 PE=-1.007719087136D+03 EE= 2.765905999690D+02
 Annihilation of the first spin contaminant:
 S**2 before annihilation     3.8685,   after     3.7544
 Leave Link  502 at Tue Nov  1 20:13:33 2016, MaxMem=    33554432 cpu:      2001.0
 (Enter /home/proyectos/fulerenos/M3C-v2.0/M3C-deps_CCC/g09-AM64L-G09RevC.01/l801.exe)
 DoSCS=F DFT=T ScalE2(SS,OS)=  1.000000  1.000000
 Range of M.O.s used for correlation:     1   272
 NBasis=   273 NAE=    22 NBE=    19 NFC=     0 NFV=     0
 NROrb=    272 NOA=    22 NOB=    19 NVA=   250 NVB=   253

 **** Warning!!: The largest alpha MO coefficient is  0.24120595D+03


 **** Warning!!: The largest beta MO coefficient is  0.24512907D+03


 **** Warning!!: The smallest beta delta epsilon is  0.92203965D-01

 Leave Link  801 at Tue Nov  1 20:13:33 2016, MaxMem=    33554432 cpu:         0.1
 (Enter /home/proyectos/fulerenos/M3C-v2.0/M3C-deps_CCC/g09-AM64L-G09RevC.01/l1101.exe)
 Using compressed storage, NAtomX=     7.
 Will process      8 centers per pass.
 Leave Link 1101 at Tue Nov  1 20:13:34 2016, MaxMem=    33554432 cpu:         3.5
 (Enter /home/proyectos/fulerenos/M3C-v2.0/M3C-deps_CCC/g09-AM64L-G09RevC.01/l1102.exe)
 Symmetrizing basis deriv contribution to polar:
 IMax=3 JMax=2 DiffMx= 0.00D+00
 Leave Link 1102 at Tue Nov  1 20:13:34 2016, MaxMem=    33554432 cpu:         0.2
 (Enter /home/proyectos/fulerenos/M3C-v2.0/M3C-deps_CCC/g09-AM64L-G09RevC.01/l1110.exe)
 Forming Gx(P) for the SCF density, NAtomX=     7.
 Integral derivatives from FoFJK, PRISM(SPDF).
 Do as many integral derivatives as possible in FoFJK.
 G2DrvN: MDV=      33554272.
 G2DrvN: will do     8 centers at a time, making    1 passes.
 Calling FoFCou, ICntrl=  3107 FMM=F I1Cent=   0 AccDes= 0.00D+00.
 FoFJK:  IHMeth= 1 ICntrl=    3107 DoSepK=F KAlg= 0 I1Cent=   0 FoldK=F
 IRaf=         0 NMat=   1 IRICut=       1 DoRegI=T DoRafI=F ISym2E= 0.
 FoFCou: FMM=F IPFlag=           0 FMFlag=      100000 FMFlg1=           0
         NFxFlg=           0 DoJE=F BraDBF=F KetDBF=F FulRan=T
         wScrn=  0.000000 ICntrl=    3107 IOpCl=  1 I1Cent=           0 NGrid=           0
         NMat0=    1 NMatS0=      1 NMatT0=    0 NMatD0=    1 NMtDS0=    0 NMtDT0=    0
 Symmetry not used in FoFCou.
 End of G2Drv F.D. properties file   721 does not exist.
 End of G2Drv F.D. properties file   722 does not exist.
 End of G2Drv F.D. properties file   788 does not exist.
 Leave Link 1110 at Tue Nov  1 20:17:03 2016, MaxMem=    33554432 cpu:       836.6
 (Enter /home/proyectos/fulerenos/M3C-v2.0/M3C-deps_CCC/g09-AM64L-G09RevC.01/l1002.exe)
 Minotr:  UHF open shell wavefunction.
          IDoAtm=1111111
          Direct CPHF calculation.
          Differentiating once with respect to electric field.
                with respect to dipole field.
          Differentiating once with respect to nuclear coordinates.
          Requested convergence is 1.0D-08 RMS, and 1.0D-07 maximum.
          Secondary convergence is 1.0D-12 RMS, and 1.0D-12 maximum.
          NewPWx=T KeepS1=F KeepF1=F KeepIn=T MapXYZ=F SortEE=F KeepMc=T.
          MDV=      33553814 using IRadAn=       2.
 Generate precomputed XC quadrature information.
          Solving linear equations simultaneously, MaxMat=       0.
 FoFJK:  IHMeth= 1 ICntrl=       0 DoSepK=F KAlg= 0 I1Cent=   0 FoldK=F
 IRaf= 990000000 NMat=  24 IRICut=      60 DoRegI=T DoRafI=T ISym2E= 2.
 FoFCou: FMM=F IPFlag=           0 FMFlag=      100000 FMFlg1=           0
         NFxFlg=           0 DoJE=F BraDBF=F KetDBF=F FulRan=T
         wScrn=  0.000000 ICntrl=       0 IOpCl=  1 I1Cent=           0 NGrid=           0
         NMat0=   24 NMatS0=     24 NMatT0=    0 NMatD0=   24 NMtDS0=    0 NMtDT0=    0
 Integrals replicated using symmetry in FoFCou.
          There are    24 degrees of freedom in the 1st order CPHF.  IDoFFX=6 NUNeed=     3.
     21 vectors produced by pass  0 Test12= 4.29D-14 4.17D-09 XBig12= 4.95D+02 1.17D+01.
 AX will form    21 AO Fock derivatives at one time.
     21 vectors produced by pass  1 Test12= 4.29D-14 4.17D-09 XBig12= 2.93D+02 3.84D+00.
     21 vectors produced by pass  2 Test12= 4.29D-14 4.17D-09 XBig12= 1.56D+01 1.61D+00.
     21 vectors produced by pass  3 Test12= 4.29D-14 4.17D-09 XBig12= 3.46D-01 2.12D-01.
     21 vectors produced by pass  4 Test12= 4.29D-14 4.17D-09 XBig12= 6.73D-03 2.42D-02.
     21 vectors produced by pass  5 Test12= 4.29D-14 4.17D-09 XBig12= 1.05D-04 2.95D-03.
     21 vectors produced by pass  6 Test12= 4.29D-14 4.17D-09 XBig12= 1.29D-06 2.76D-04.
     21 vectors produced by pass  7 Test12= 4.29D-14 4.17D-09 XBig12= 8.78D-09 1.97D-05.
     12 vectors produced by pass  8 Test12= 4.29D-14 4.17D-09 XBig12= 4.89D-11 1.21D-06.
      5 vectors produced by pass  9 Test12= 4.29D-14 4.17D-09 XBig12= 1.13D-12 5.31D-07.
      4 vectors produced by pass 10 Test12= 4.29D-14 4.17D-09 XBig12= 8.75D-13 3.48D-07.
      2 vectors produced by pass 11 Test12= 4.29D-14 4.17D-09 XBig12= 1.42D-13 1.37D-07.
      2 vectors produced by pass 12 Test12= 4.29D-14 4.17D-09 XBig12= 8.26D-15 2.83D-08.
      1 vectors produced by pass 13 Test12= 4.29D-14 4.17D-09 XBig12= 3.62D-16 8.28D-09.
 InvSVY:  IOpt=1 It=  1 EMax= 2.13D-14
 Solved reduced A of dimension   194 with    24 vectors.
 FullF1:  Do perturbations    1 to     3.
 Isotropic polarizability for W=    0.000000       62.72 Bohr**3.
 End of Minotr F.D. properties file   721 does not exist.
 End of Minotr F.D. properties file   722 does not exist.
 End of Minotr F.D. properties file   788 does not exist.
 Leave Link 1002 at Tue Nov  1 20:34:02 2016, MaxMem=    33554432 cpu:      4074.8
 (Enter /home/proyectos/fulerenos/M3C-v2.0/M3C-deps_CCC/g09-AM64L-G09RevC.01/l601.exe)
 Copying SCF densities to generalized density rwf, IOpCl= 1 IROHF=0.

 **********************************************************************

            Population analysis using the SCF density.

 **********************************************************************

 Orbital symmetries:
 Alpha Orbitals:
       Occupied  (A) (A) (A) (A) (A) (A) (A) (A) (A) (A) (A) (A)
                 (A) (A) (A) (A) (A) (A) (A) (A) (A) (A)
       Virtual   (A) (A) (A) (A) (A) (A) (A) (A) (A) (A) (A) (A)
                 (A) (A) (A) (A) (A) (A) (A) (A) (A) (A) (A) (A)
                 (A) (A) (A) (A) (A) (A) (A) (A) (A) (A) (A) (A)
                 (A) (A) (A) (A) (A) (A) (A) (A) (A) (A) (A) (A)
                 (A) (A) (A) (A) (A) (A) (A) (A) (A) (A) (A) (A)
                 (A) (A) (A) (A) (A) (A) (A) (A) (A) (A) (A) (A)
                 (A) (A) (A) (A) (A) (A) (A) (A) (A) (A) (A) (A)
                 (A) (A) (A) (A) (A) (A) (A) (A) (A) (A) (A) (A)
                 (A) (A) (A) (A) (A) (A) (A) (A) (A) (A) (A) (A)
                 (A) (A) (A) (A) (A) (A) (A) (A) (A) (A) (A) (A)
                 (A) (A) (A) (A) (A) (A) (A) (A) (A) (A) (A) (A)
                 (A) (A) (A) (A) (A) (A) (A) (A) (A) (A) (A) (A)
                 (A) (A) (A) (A) (A) (A) (A) (A) (A) (A) (A) (A)
                 (A) (A) (A) (A) (A) (A) (A) (A) (A) (A) (A) (A)
                 (A) (A) (A) (A) (A) (A) (A) (A) (A) (A) (A) (A)
                 (A) (A) (A) (A) (A) (A) (A) (A) (A) (A) (A) (A)
                 (A) (A) (A) (A) (A) (A) (A) (A) (A) (A) (A) (A)
                 (A) (A) (A) (A) (A) (A) (A) (A) (A) (A) (A) (A)
                 (A) (A) (A) (A) (A) (A) (A) (A) (A) (A) (A) (A)
                 (A) (A) (A) (A) (A) (A) (A) (A) (A) (A) (A) (A)
                 (A) (A) (A) (A) (A) (A) (A) (A) (A) (A)
 Beta  Orbitals:
       Occupied  (A) (A) (A) (A) (A) (A) (A) (A) (A) (A) (A) (A)
                 (A) (A) (A) (A) (A) (A) (A)
       Virtual   (A) (A) (A) (A) (A) (A) (A) (A) (A) (A) (A) (A)
                 (A) (A) (A) (A) (A) (A) (A) (A) (A) (A) (A) (A)
                 (A) (A) (A) (A) (A) (A) (A) (A) (A) (A) (A) (A)
                 (A) (A) (A) (A) (A) (A) (A) (A) (A) (A) (A) (A)
                 (A) (A) (A) (A) (A) (A) (A) (A) (A) (A) (A) (A)
                 (A) (A) (A) (A) (A) (A) (A) (A) (A) (A) (A) (A)
                 (A) (A) (A) (A) (A) (A) (A) (A) (A) (A) (A) (A)
                 (A) (A) (A) (A) (A) (A) (A) (A) (A) (A) (A) (A)
                 (A) (A) (A) (A) (A) (A) (A) (A) (A) (A) (A) (A)
                 (A) (A) (A) (A) (A) (A) (A) (A) (A) (A) (A) (A)
                 (A) (A) (A) (A) (A) (A) (A) (A) (A) (A) (A) (A)
                 (A) (A) (A) (A) (A) (A) (A) (A) (A) (A) (A) (A)
                 (A) (A) (A) (A) (A) (A) (A) (A) (A) (A) (A) (A)
                 (A) (A) (A) (A) (A) (A) (A) (A) (A) (A) (A) (A)
                 (A) (A) (A) (A) (A) (A) (A) (A) (A) (A) (A) (A)
                 (A) (A) (A) (A) (A) (A) (A) (A) (A) (A) (A) (A)
                 (A) (A) (A) (A) (A) (A) (A) (A) (A) (A) (A) (A)
                 (A) (A) (A) (A) (A) (A) (A) (A) (A) (A) (A) (A)
                 (A) (A) (A) (A) (A) (A) (A) (A) (A) (A) (A) (A)
                 (A) (A) (A) (A) (A) (A) (A) (A) (A) (A) (A) (A)
                 (A) (A) (A) (A) (A) (A) (A) (A) (A) (A) (A) (A)
                 (A)
 The electronic state is 4-A.
 Alpha  occ. eigenvalues --  -10.52900 -10.51664 -10.51623 -10.49080 -10.49065
 Alpha  occ. eigenvalues --  -10.47854 -10.47849  -1.16100  -1.07468  -1.05634
 Alpha  occ. eigenvalues --   -0.92710  -0.91843  -0.78985  -0.78817  -0.68801
 Alpha  occ. eigenvalues --   -0.66810  -0.60316  -0.57737  -0.57138  -0.56855
 Alpha  occ. eigenvalues --   -0.48965  -0.48840
 Alpha virt. eigenvalues --   -0.34560  -0.34364  -0.31597  -0.31178  -0.14758
 Alpha virt. eigenvalues --   -0.11819  -0.11631  -0.10203  -0.10161  -0.09808
 Alpha virt. eigenvalues --   -0.08193  -0.06103  -0.06042  -0.05955  -0.05855
 Alpha virt. eigenvalues --   -0.02947  -0.02912  -0.01863  -0.01303  -0.00242
 Alpha virt. eigenvalues --   -0.00241   0.03107   0.03174   0.03609   0.03753
 Alpha virt. eigenvalues --    0.04137   0.06082   0.06262   0.06307   0.06329
 Alpha virt. eigenvalues --    0.09995   0.10111   0.11192   0.11299   0.14523
 Alpha virt. eigenvalues --    0.15314   0.16328   0.17076   0.18094   0.18379
 Alpha virt. eigenvalues --    0.18868   0.19564   0.20767   0.21065   0.21746
 Alpha virt. eigenvalues --    0.23560   0.25721   0.27442   0.27996   0.28399
 Alpha virt. eigenvalues --    0.29901   0.30108   0.30942   0.32128   0.32673
 Alpha virt. eigenvalues --    0.33323   0.33350   0.33781   0.34579   0.35044
 Alpha virt. eigenvalues --    0.37177   0.39077   0.39774   0.39949   0.43238
 Alpha virt. eigenvalues --    0.43284   0.46722   0.48358   0.48832   0.49748
 Alpha virt. eigenvalues --    0.52253   0.52429   0.53256   0.56741   0.56880
 Alpha virt. eigenvalues --    0.59423   0.62076   0.73499   0.73551   0.73776
 Alpha virt. eigenvalues --    0.74834   0.76066   0.76385   0.77117   0.77439
 Alpha virt. eigenvalues --    0.78393   0.79450   0.88558   0.89650   0.91019
 Alpha virt. eigenvalues --    0.91229   0.91717   0.91960   0.94200   0.95177
 Alpha virt. eigenvalues --    0.96364   1.02533   1.05949   1.06453   1.07904
 Alpha virt. eigenvalues --    1.09925   1.10432   1.11080   1.14274   1.16901
 Alpha virt. eigenvalues --    1.20736   1.22251   1.22279   1.26574   1.28607
 Alpha virt. eigenvalues --    1.29640   1.30692   1.31195   1.32598   1.33582
 Alpha virt. eigenvalues --    1.42778   1.51857   1.53321   1.55719   1.56993
 Alpha virt. eigenvalues --    1.58528   1.69453   1.69510   1.70261   1.77500
 Alpha virt. eigenvalues --    1.80568   1.84243   1.84379   1.87176   1.96100
 Alpha virt. eigenvalues --    2.05987   2.08559   2.15163   2.19863   2.20766
 Alpha virt. eigenvalues --    2.24761   2.31108   2.32364   2.35959   2.37812
 Alpha virt. eigenvalues --    2.39127   2.40339   2.46515   2.47695   2.48081
 Alpha virt. eigenvalues --    2.50286   2.52760   2.53438   2.54921   2.55060
 Alpha virt. eigenvalues --    2.55632   2.55869   2.65768   2.65870   2.67786
 Alpha virt. eigenvalues --    2.74252   2.74735   2.77040   2.77161   2.82222
 Alpha virt. eigenvalues --    2.82360   2.83179   2.83382   2.88430   2.90150
 Alpha virt. eigenvalues --    2.91862   2.92765   3.00546   3.09832   3.12706
 Alpha virt. eigenvalues --    3.13214   3.14152   3.14211   3.21813   3.23463
 Alpha virt. eigenvalues --    3.31396   3.36233   3.40178   3.44009   3.44985
 Alpha virt. eigenvalues --    3.52257   3.54152   3.60521   3.61719   3.62739
 Alpha virt. eigenvalues --    3.71159   3.75763   3.84039   3.84802   3.96298
 Alpha virt. eigenvalues --    3.98583   4.04061   4.06437   4.09135   4.09525
 Alpha virt. eigenvalues --    4.14827   4.21124   4.50584   4.59571   4.60081
 Alpha virt. eigenvalues --    4.76062   4.77605   5.07620   5.09387   5.18123
 Alpha virt. eigenvalues --    5.24378   5.51837   6.26248   6.68946   6.71462
 Alpha virt. eigenvalues --    6.72275   6.73419   6.73961   6.76452   6.80725
 Alpha virt. eigenvalues --    6.81274   6.81725   6.90173   6.90209   6.90287
 Alpha virt. eigenvalues --    6.91282   6.99464   7.00345   7.00491   7.02877
 Alpha virt. eigenvalues --    7.16170   7.17689   7.18137   7.18986   7.29808
 Alpha virt. eigenvalues --    7.33629   7.35047   7.38340   7.45785   7.58650
 Alpha virt. eigenvalues --    7.70477   7.72206   7.83927   7.90913   8.03459
 Alpha virt. eigenvalues --    8.17811   8.24296   8.96408  23.29477  24.38047
 Alpha virt. eigenvalues --   24.88830  25.37020  25.48688  26.13053  26.15086
  Beta  occ. eigenvalues --  -10.51195 -10.50120 -10.50081 -10.48131 -10.48124
  Beta  occ. eigenvalues --  -10.47988 -10.47983  -1.14416  -1.04830  -1.04388
  Beta  occ. eigenvalues --   -0.90277  -0.89848  -0.77119  -0.76829  -0.66018
  Beta  occ. eigenvalues --   -0.62934  -0.57531  -0.54847  -0.53910
  Beta virt. eigenvalues --   -0.44690  -0.32851  -0.32558  -0.32216  -0.31629
  Beta virt. eigenvalues --   -0.28613  -0.28558  -0.14527  -0.10276  -0.10003
  Beta virt. eigenvalues --   -0.09888  -0.09773  -0.08908  -0.07961  -0.05903
  Beta virt. eigenvalues --   -0.05715  -0.05330  -0.05248  -0.02533  -0.02482
  Beta virt. eigenvalues --   -0.01695  -0.01246  -0.00198  -0.00131   0.03544
  Beta virt. eigenvalues --    0.03618   0.04210   0.05311   0.05599   0.06196
  Beta virt. eigenvalues --    0.06481   0.06805   0.06894   0.10568   0.10843
  Beta virt. eigenvalues --    0.11656   0.11798   0.15228   0.16089   0.16501
  Beta virt. eigenvalues --    0.18201   0.18731   0.19107   0.19984   0.20863
  Beta virt. eigenvalues --    0.21769   0.21880   0.23184   0.23718   0.27440
  Beta virt. eigenvalues --    0.28979   0.29244   0.30341   0.30448   0.30541
  Beta virt. eigenvalues --    0.33049   0.33180   0.33576   0.33710   0.33926
  Beta virt. eigenvalues --    0.34771   0.35294   0.36921   0.38936   0.39158
  Beta virt. eigenvalues --    0.42318   0.42459   0.44080   0.44206   0.47510
  Beta virt. eigenvalues --    0.48990   0.49549   0.50629   0.53281   0.53350
  Beta virt. eigenvalues --    0.55308   0.57022   0.57145   0.60535   0.62761
  Beta virt. eigenvalues --    0.74047   0.74125   0.75049   0.76393   0.76451
  Beta virt. eigenvalues --    0.76997   0.77556   0.77881   0.79472   0.79990
  Beta virt. eigenvalues --    0.89159   0.90830   0.92118   0.92205   0.92717
  Beta virt. eigenvalues --    0.92970   0.95555   0.96355   0.97055   1.04094
  Beta virt. eigenvalues --    1.06555   1.07487   1.09705   1.10786   1.11089
  Beta virt. eigenvalues --    1.12662   1.16936   1.20220   1.22820   1.23077
  Beta virt. eigenvalues --    1.25713   1.29552   1.30641   1.31844   1.32338
  Beta virt. eigenvalues --    1.33504   1.34391   1.34571   1.44296   1.54390
  Beta virt. eigenvalues --    1.54759   1.57194   1.59229   1.61101   1.72080
  Beta virt. eigenvalues --    1.72822   1.73581   1.80531   1.83237   1.86265
  Beta virt. eigenvalues --    1.88017   1.89951   1.96793   2.10737   2.12814
  Beta virt. eigenvalues --    2.17965   2.22162   2.23257   2.27406   2.33494
  Beta virt. eigenvalues --    2.36524   2.37355   2.38333   2.41149   2.45432
  Beta virt. eigenvalues --    2.48477   2.48634   2.49899   2.53299   2.53811
  Beta virt. eigenvalues --    2.54053   2.55828   2.56540   2.57188   2.57494
  Beta virt. eigenvalues --    2.66619   2.68553   2.69686   2.75959   2.76204
  Beta virt. eigenvalues --    2.79335   2.80193   2.83723   2.84540   2.84805
  Beta virt. eigenvalues --    2.85217   2.90130   2.90801   2.93802   2.95971
  Beta virt. eigenvalues --    3.03030   3.12156   3.14320   3.14823   3.15114
  Beta virt. eigenvalues --    3.16076   3.23321   3.25647   3.33216   3.37886
  Beta virt. eigenvalues --    3.41524   3.45770   3.47544   3.54983   3.56561
  Beta virt. eigenvalues --    3.62692   3.63555   3.65088   3.72519   3.77534
  Beta virt. eigenvalues --    3.87133   3.87753   3.99059   4.00912   4.05841
  Beta virt. eigenvalues --    4.09260   4.10579   4.12682   4.16123   4.22221
  Beta virt. eigenvalues --    4.52039   4.62154   4.62349   4.78186   4.78775
  Beta virt. eigenvalues --    5.08524   5.10245   5.19794   5.27008   5.53708
  Beta virt. eigenvalues --    6.29110   6.72614   6.74070   6.74099   6.76432
  Beta virt. eigenvalues --    6.77229   6.79602   6.82037   6.84020   6.84067
  Beta virt. eigenvalues --    6.92037   6.92381   6.93077   6.93728   7.02263
  Beta virt. eigenvalues --    7.02316   7.03168   7.04355   7.18215   7.19716
  Beta virt. eigenvalues --    7.19938   7.22068   7.32691   7.36383   7.37557
  Beta virt. eigenvalues --    7.39124   7.48079   7.59710   7.73584   7.76156
  Beta virt. eigenvalues --    7.85246   7.94033   8.05898   8.19736   8.26479
  Beta virt. eigenvalues --    8.99406  23.30513  24.38968  24.90657  25.38449
  Beta virt. eigenvalues --   25.50222  26.13409  26.15569
          Condensed to atoms (all electrons):
               1          2          3          4          5          6
     1  C    9.466651  -0.445851  -1.136810  -1.250572   0.310502  -1.147211
     2  C   -0.445851   9.666609  -0.106572   0.155116  -1.131054  -0.276724
     3  C   -1.136810  -0.106572   9.668606  -2.210567  -0.444596  -0.281032
     4  C   -1.250572   0.155116  -2.210567   9.895899   0.055288  -0.184905
     5  C    0.310502  -1.131054  -0.444596   0.055288   9.456458  -1.144962
     6  C   -1.147211  -0.276724  -0.281032  -0.184905  -1.144962   9.209297
     7  C    0.056484  -2.220908   0.153647  -0.450212  -1.248025  -0.185588
               7
     1  C    0.056484
     2  C   -2.220908
     3  C    0.153647
     4  C   -0.450212
     5  C   -1.248025
     6  C   -0.185588
     7  C    9.905583
          Atomic-Atomic Spin Densities.
               1          2          3          4          5          6
     1  C    2.901831  -0.222249  -0.492114  -0.990109   0.426189  -1.120814
     2  C   -0.222249   2.037638  -0.298824   0.479264  -0.486582  -0.082256
     3  C   -0.492114  -0.298824   2.041112  -1.944610  -0.222741  -0.085763
     4  C   -0.990109   0.479264  -1.944610   4.707087   0.017691  -0.312331
     5  C    0.426189  -0.486582  -0.222741   0.017691   2.892261  -1.118566
     6  C   -1.120814  -0.082256  -0.085763  -0.312331  -1.118566   4.142351
     7  C    0.016192  -1.951189   0.479001  -1.007960  -0.987088  -0.312404
               7
     1  C    0.016192
     2  C   -1.951189
     3  C    0.479001
     4  C   -1.007960
     5  C   -0.987088
     6  C   -0.312404
     7  C    4.712248
 Mulliken charges and spin densities:
               1          2
     1  C    0.146807   0.518925
     2  C    0.359385  -0.524197
     3  C    0.357324  -0.523939
     4  C   -0.010048   0.949031
     5  C    0.146389   0.521163
     6  C    0.011125   1.110216
     7  C   -0.010982   0.948801
 Sum of Mulliken charges =   1.00000   3.00000
 Mulliken charges and spin densities with hydrogens summed into heavy atoms:
               1          2
     1  C    0.146807   0.518925
     2  C    0.359385  -0.524197
     3  C    0.357324  -0.523939
     4  C   -0.010048   0.949031
     5  C    0.146389   0.521163
     6  C    0.011125   1.110216
     7  C   -0.010982   0.948801
 APT charges:
               1
     1  C   -0.014386
     2  C    0.044033
     3  C    0.047158
     4  C    0.235939
     5  C   -0.012300
     6  C    0.462496
     7  C    0.237061
 Sum of APT charges =   1.00000
 APT charges with hydrogens summed into heavy atoms:
               1
     1  C   -0.014386
     2  C    0.044033
     3  C    0.047158
     4  C    0.235939
     5  C   -0.012300
     6  C    0.462496
     7  C    0.237061
 Electronic spatial extent (au):  <R**2>=            421.3845
 Charge=              1.0000 electrons
 Dipole moment (field-independent basis, Debye):
    X=              0.1072    Y=              0.0004    Z=             -0.0012  Tot=              0.1072
 Quadrupole moment (field-independent basis, Debye-Ang):
   XX=            -26.8877   YY=            -28.3557   ZZ=            -35.3623
   XY=              0.0052   XZ=             -0.0006   YZ=             -0.0010
 Traceless Quadrupole moment (field-independent basis, Debye-Ang):
   XX=              3.3142   YY=              1.8462   ZZ=             -5.1604
   XY=              0.0052   XZ=             -0.0006   YZ=             -0.0010
 Octapole moment (field-independent basis, Debye-Ang**2):
  XXX=             -0.3904  YYY=              0.0099  ZZZ=             -0.0008  XYY=              0.9910
  XXY=             -0.0079  XXZ=             -0.0009  XZZ=              0.0616  YZZ=              0.0006
  YYZ=             -0.0062  XYZ=              0.0000
 Hexadecapole moment (field-independent basis, Debye-Ang**3):
 XXXX=           -297.2471 YYYY=           -245.4375 ZZZZ=            -37.4770 XXXY=              0.0061
 XXXZ=             -0.0010 YYYX=              0.0204 YYYZ=             -0.0040 ZZZX=             -0.0001
 ZZZY=             -0.0005 XXYY=            -89.8335 XXZZ=            -58.1483 YYZZ=            -49.0704
 XXYZ=             -0.0006 YYXZ=             -0.0016 ZZXY=              0.0004
 N-N= 2.002001111137D+02 E-N=-1.007719087076D+03  KE= 2.649011086409D+02
  Exact polarizability:  84.585   0.042  67.150   0.001   0.003  36.419
 Approx polarizability: 231.580   0.271 144.007  -0.007   0.005  53.550
                          Isotropic Fermi Contact Couplings
        Atom                 a.u.       MegaHertz       Gauss      10(-4) cm-1
     1  C(13)              0.31435     117.79538      42.03232      39.29231
     2  C(13)              0.07248      27.16090       9.69168       9.05990
     3  C(13)              0.07188      26.93712       9.61183       8.98526
     4  C(13)              0.51412     192.65750      68.74499      64.26363
     5  C(13)              0.31459     117.88481      42.06423      39.32214
     6  C(13)              0.61183     229.26986      81.80918      76.47619
     7  C(13)              0.51588     193.31631      68.98007      64.48338
 --------------------------------------------------------
       Center         ----  Spin Dipole Couplings  ----
                      3XX-RR        3YY-RR        3ZZ-RR
 --------------------------------------------------------
     1   Atom        0.111598      0.236673     -0.348270
     2   Atom        0.345695     -0.315314     -0.030380
     3   Atom        0.345716     -0.314978     -0.030738
     4   Atom        0.636567     -0.167527     -0.469040
     5   Atom        0.107255      0.241655     -0.348910
     6   Atom        1.067240     -0.535030     -0.532210
     7   Atom        0.642759     -0.174379     -0.468380
 --------------------------------------------------------
                        XY            XZ            YZ
 --------------------------------------------------------
     1   Atom       -0.371790     -0.000582      0.000554
     2   Atom        0.062352     -0.000176      0.000105
     3   Atom       -0.059525      0.000161     -0.000139
     4   Atom        0.537367      0.001215      0.000529
     5   Atom        0.372102     -0.000087     -0.000220
     6   Atom        0.005581     -0.000903      0.000001
     7   Atom       -0.531866      0.000728     -0.000224
 --------------------------------------------------------


 ---------------------------------------------------------------------------------
              Anisotropic Spin Dipole Couplings in Principal Axis System
 ---------------------------------------------------------------------------------

       Atom             a.u.   MegaHertz   Gauss  10(-4) cm-1        Axes

              Baa    -0.3483   -46.735   -16.676   -15.589  0.0010 -0.0003  1.0000
     1 C(13)  Bbb    -0.2029   -27.224    -9.714    -9.081  0.7635  0.6458 -0.0006
              Bcc     0.5511    73.959    26.390    24.670 -0.6458  0.7635  0.0009
 
              Baa    -0.3211   -43.095   -15.377   -14.375 -0.0931  0.9957 -0.0004
     2 C(13)  Bbb    -0.0304    -4.077    -1.455    -1.360  0.0004  0.0005  1.0000
              Bcc     0.3515    47.171    16.832    15.735  0.9957  0.0931 -0.0004
 
              Baa    -0.3203   -42.981   -15.337   -14.337  0.0890  0.9960  0.0004
     3 C(13)  Bbb    -0.0307    -4.125    -1.472    -1.376 -0.0005 -0.0004  1.0000
              Bcc     0.3510    47.106    16.808    15.713  0.9960 -0.0890  0.0005
 
              Baa    -0.4690   -62.941   -22.459   -20.995 -0.0018  0.0015  1.0000
     4 C(13)  Bbb    -0.4366   -58.588   -20.906   -19.543 -0.4477  0.8942 -0.0022
              Bcc     0.9056   121.529    43.364    40.538  0.8942  0.4477  0.0010
 
              Baa    -0.3489   -46.820   -16.707   -15.618 -0.0002  0.0005  1.0000
     5 C(13)  Bbb    -0.2037   -27.330    -9.752    -9.116  0.7674 -0.6412  0.0005
              Bcc     0.5526    74.150    26.459    24.734  0.6412  0.7674 -0.0002
 
              Baa    -0.5350   -71.798   -25.619   -23.949 -0.0035  1.0000 -0.0014
     6 C(13)  Bbb    -0.5322   -71.418   -25.484   -23.822  0.0006  0.0014  1.0000
              Bcc     1.0673   143.216    51.103    47.772  1.0000  0.0035 -0.0006
 
              Baa    -0.4684   -62.852   -22.427   -20.965 -0.0022 -0.0032  1.0000
     7 C(13)  Bbb    -0.4365   -58.573   -20.900   -19.538  0.4420  0.8970  0.0038
              Bcc     0.9049   121.425    43.327    40.503  0.8970 -0.4420  0.0005
 

 ---------------------------------------------------------------------------------

 No NMR shielding tensors so no spin-rotation constants.
 Leave Link  601 at Tue Nov  1 20:34:03 2016, MaxMem=    33554432 cpu:         2.8
 (Enter /home/proyectos/fulerenos/M3C-v2.0/M3C-deps_CCC/g09-AM64L-G09RevC.01/l701.exe)
 Compute integral second derivatives.
 ... and contract with generalized density number  0.
 Leave Link  701 at Tue Nov  1 20:34:04 2016, MaxMem=    33554432 cpu:         2.2
 (Enter /home/proyectos/fulerenos/M3C-v2.0/M3C-deps_CCC/g09-AM64L-G09RevC.01/l702.exe)
 L702 exits ... SP integral derivatives will be done elsewhere.
 Leave Link  702 at Tue Nov  1 20:34:04 2016, MaxMem=    33554432 cpu:         0.1
 (Enter /home/proyectos/fulerenos/M3C-v2.0/M3C-deps_CCC/g09-AM64L-G09RevC.01/l703.exe)
 Compute integral second derivatives, UseDBF=F ICtDFT=           0.
 Integral derivatives from FoFJK, PRISM(SPDF).
 Calling FoFJK, ICntrl=    100127 FMM=F ISym2X=0 I1Cent= 0 IOpClX= 1 NMat=1 NMatS=1 NMatT=0.
 FoFJK:  IHMeth= 1 ICntrl=  100127 DoSepK=F KAlg= 0 I1Cent=   0 FoldK=F
 IRaf=         0 NMat=   1 IRICut=       1 DoRegI=T DoRafI=F ISym2E= 0.
 FoFCou: FMM=F IPFlag=           0 FMFlag=      100000 FMFlg1=         800
         NFxFlg=           0 DoJE=F BraDBF=F KetDBF=F FulRan=T
         wScrn=  0.000000 ICntrl=  100127 IOpCl=  1 I1Cent=           0 NGrid=           0
         NMat0=    1 NMatS0=      1 NMatT0=    0 NMatD0=    1 NMtDS0=    0 NMtDT0=    0
 Symmetry not used in FoFCou.
 Leave Link  703 at Tue Nov  1 20:42:40 2016, MaxMem=    33554432 cpu:      2063.2
 (Enter /home/proyectos/fulerenos/M3C-v2.0/M3C-deps_CCC/g09-AM64L-G09RevC.01/l716.exe)
 Dipole        = 4.21816994D-02 1.45018126D-04-4.69733982D-04
 Polarizability= 8.45847044D+01 4.23826994D-02 6.71495388D+01
                 1.10079437D-03 2.66322973D-03 3.64192054D+01
 Full mass-weighted force constant matrix:
 Low frequencies ---   -2.7097   -0.0008   -0.0003    0.0002    8.1923    8.8835
 Low frequencies ---  118.2781  306.1597  349.1775
 Diagonal vibrational polarizability:
        4.8581404       0.5347992       1.2599165
 Harmonic frequencies (cm**-1), IR intensities (KM/Mole), Raman scattering
 activities (A**4/AMU), depolarization ratios for plane and unpolarized
 incident light, reduced masses (AMU), force constants (mDyne/A),
 and normal coordinates:
                      1                      2                      3
                      A                      A                      A
 Frequencies --    118.2680               306.1596               349.1772
 Red. masses --     12.0000                12.0000                12.0000
 Frc consts  --      0.0989                 0.6627                 0.8620
 IR Inten    --      0.0046                 4.1767                 0.0000
  Atom  AN      X      Y      Z        X      Y      Z        X      Y      Z
     1   6    -0.32   0.40   0.00     0.00   0.00  -0.16     0.00  -0.00   0.50
     2   6     0.15  -0.18   0.00     0.00  -0.00  -0.45    -0.00   0.00   0.19
     3   6    -0.15  -0.18   0.00     0.00   0.00  -0.45    -0.00   0.00  -0.20
     4   6    -0.35  -0.24  -0.00    -0.00  -0.00   0.32     0.00   0.00  -0.46
     5   6     0.32   0.40  -0.00     0.00   0.00  -0.16    -0.00  -0.00  -0.50
     6   6     0.00   0.05  -0.00     0.00   0.00   0.58     0.00  -0.00  -0.00
     7   6     0.35  -0.24   0.00    -0.00  -0.00   0.32    -0.00   0.00   0.46
                      4                      5                      6
                      A                      A                      A
 Frequencies --    454.4389               508.0627               508.6963
 Red. masses --     12.0000                12.0000                12.0000
 Frc consts  --      1.4601                 1.8250                 1.8296
 IR Inten    --     21.7613                 0.5787                 0.0043
  Atom  AN      X      Y      Z        X      Y      Z        X      Y      Z
     1   6     0.15  -0.56   0.00     0.00  -0.00   0.50     0.00  -0.00   0.21
     2   6    -0.00  -0.04   0.00     0.00  -0.00  -0.34     0.00  -0.00   0.50
     3   6    -0.00   0.04  -0.00     0.00   0.00  -0.41     0.00   0.00  -0.44
     4   6     0.12   0.05  -0.00    -0.00  -0.00   0.16    -0.00  -0.00   0.45
     5   6     0.15   0.57  -0.00     0.00   0.00   0.46     0.00   0.00  -0.29
     6   6    -0.53  -0.00   0.00     0.00  -0.00  -0.46     0.00  -0.00   0.04
     7   6     0.12  -0.05   0.00    -0.00  -0.00   0.08    -0.00  -0.00  -0.47
                      7                      8                      9
                      A                      A                      A
 Frequencies --    529.9640               598.2017               754.2633
 Red. masses --     12.0000                12.0000                12.0000
 Frc consts  --      1.9857                 2.5300                 4.0223
 IR Inten    --      5.9406                 0.1805                 0.1562
  Atom  AN      X      Y      Z        X      Y      Z        X      Y      Z
     1   6     0.15  -0.04  -0.00     0.14  -0.14  -0.00     0.01  -0.23  -0.00
     2   6     0.03  -0.63   0.00    -0.07   0.47  -0.00     0.44   0.03  -0.00
     3   6     0.04   0.63   0.00     0.07   0.47   0.00    -0.44   0.04   0.00
     4   6    -0.26   0.04  -0.00    -0.39  -0.27  -0.00     0.04  -0.14  -0.00
     5   6     0.14   0.05  -0.00    -0.14  -0.14   0.00    -0.01  -0.23  -0.00
     6   6     0.16  -0.00   0.00    -0.00  -0.12   0.00    -0.00   0.68  -0.00
     7   6    -0.26  -0.04   0.00     0.39  -0.27   0.00    -0.04  -0.14   0.00
                     10                     11                     12
                      A                      A                      A
 Frequencies --    992.8750              1133.7075              1156.4020
 Red. masses --     12.0000                12.0000                12.0000
 Frc consts  --      6.9698                 9.0873                 9.4547
 IR Inten    --      0.1220                13.2109                68.0486
  Atom  AN      X      Y      Z        X      Y      Z        X      Y      Z
     1   6     0.19  -0.29  -0.00    -0.23   0.12   0.00    -0.14  -0.21   0.00
     2   6    -0.06   0.26   0.00     0.15   0.30   0.00    -0.29  -0.03  -0.00
     3   6    -0.06  -0.26   0.00    -0.18   0.30  -0.00    -0.28   0.00  -0.00
     4   6    -0.36  -0.24  -0.00     0.45  -0.25   0.00     0.15   0.45   0.00
     5   6     0.19   0.29  -0.00     0.22   0.14  -0.00    -0.16   0.20   0.00
     6   6     0.48   0.00  -0.00     0.02  -0.31  -0.00     0.51   0.01  -0.00
     7   6    -0.37   0.24   0.00    -0.43  -0.29  -0.00     0.19  -0.43  -0.00
                     13                     14                     15
                      A                      A                      A
 Frequencies --   1418.3616              1660.2696              1805.9602
 Red. masses --     12.0000                12.0000                12.0000
 Frc consts  --     14.2235                19.4890                23.0594
 IR Inten    --      5.7557                23.7277                 0.0242
  Atom  AN      X      Y      Z        X      Y      Z        X      Y      Z
     1   6    -0.19  -0.09   0.00    -0.49  -0.23   0.00     0.47   0.21  -0.00
     2   6    -0.23  -0.19  -0.00    -0.38   0.07   0.00    -0.47   0.02   0.00
     3   6    -0.23   0.19  -0.00     0.38   0.08  -0.00    -0.47  -0.02   0.00
     4   6     0.33  -0.49   0.00     0.02  -0.01   0.00     0.07   0.01   0.00
     5   6    -0.19   0.09   0.00     0.49  -0.23  -0.00     0.47  -0.21  -0.00
     6   6     0.18  -0.00  -0.00    -0.00   0.34   0.00    -0.14  -0.00   0.00
     7   6     0.33   0.49   0.00    -0.02  -0.01  -0.00     0.07  -0.01   0.00

 -------------------
 - Thermochemistry -
 -------------------
 Temperature   298.150 Kelvin.  Pressure   1.00000 Atm.
 Atom     1 has atomic number  6 and mass  12.00000
 Atom     2 has atomic number  6 and mass  12.00000
 Atom     3 has atomic number  6 and mass  12.00000
 Atom     4 has atomic number  6 and mass  12.00000
 Atom     5 has atomic number  6 and mass  12.00000
 Atom     6 has atomic number  6 and mass  12.00000
 Atom     7 has atomic number  6 and mass  12.00000
 Molecular mass:    84.00000 amu.
 Principal axes and moments of inertia in atomic units:
                           1         2         3
     Eigenvalues --   314.58047 393.46241 708.04275
           X            1.00000  -0.00000   0.00000
           Y            0.00000   1.00000   0.00000
           Z           -0.00000  -0.00000   1.00000
 This molecule is an asymmetric top.
 Rotational symmetry number  1.
 Rotational temperatures (Kelvin)      0.27533     0.22013     0.12233
 Rotational constants (GHZ):           5.73698     4.58682     2.54892
 Zero-point vibrational energy      73539.3 (Joules/Mol)
                                   17.57631 (Kcal/Mol)
 Warning -- explicit consideration of   8 degrees of freedom as
           vibrations may cause significant error
 Vibrational temperatures:    170.16   440.49   502.39   653.84   730.99
          (Kelvin)            731.90   762.50   860.68  1085.22  1428.52
                             1631.15  1663.80  2040.70  2388.75  2598.37
 
 Zero-point correction=                           0.028010 (Hartree/Particle)
 Thermal correction to Energy=                    0.033560
 Thermal correction to Enthalpy=                  0.034504
 Thermal correction to Gibbs Free Energy=        -0.002167
 Sum of electronic and zero-point Energies=           -265.999258
 Sum of electronic and thermal Energies=              -265.993707
 Sum of electronic and thermal Enthalpies=            -265.992763
 Sum of electronic and thermal Free Energies=         -266.029434
 
                     E (Thermal)             CV                S
                      KCal/Mol        Cal/Mol-Kelvin    Cal/Mol-Kelvin
 Total                   21.059             18.936             77.180
 Electronic               0.000              0.000              2.755
 Translational            0.889              2.981             39.198
 Rotational               0.889              2.981             25.975
 Vibrational             19.282             12.974              9.253
 Vibration     1          0.608              1.934              3.128
 Vibration     2          0.697              1.662              1.383
 Vibration     3          0.726              1.577              1.170
 Vibration     4          0.813              1.351              0.782
 Vibration     5          0.863              1.232              0.638
 Vibration     6          0.864              1.231              0.637
 Vibration     7          0.885              1.184              0.587
 Vibration     8          0.956              1.036              0.453
                       Q            Log10(Q)             Ln(Q)
 Total Bot       0.992231D+01          0.996613          2.294786
 Total V=0       0.758791D+14         13.880122         31.960162
 Vib (Bot)       0.773544D-12        -12.111515        -27.887793
 Vib (Bot)    1  0.172861D+01          0.237696          0.547316
 Vib (Bot)    2  0.618999D+00         -0.208310         -0.479652
 Vib (Bot)    3  0.528666D+00         -0.276819         -0.637399
 Vib (Bot)    4  0.375998D+00         -0.424815         -0.978172
 Vib (Bot)    5  0.321168D+00         -0.493268         -1.135792
 Vib (Bot)    6  0.320585D+00         -0.494057         -1.137608
 Vib (Bot)    7  0.301783D+00         -0.520305         -1.198046
 Vib (Bot)    8  0.250076D+00         -0.601928         -1.385991
 Vib (V=0)       0.591554D+01          0.771994          1.777583
 Vib (V=0)    1  0.229947D+01          0.361627          0.832677
 Vib (V=0)    2  0.129571D+01          0.112509          0.259061
 Vib (V=0)    3  0.122766D+01          0.089078          0.205109
 Vib (V=0)    4  0.112560D+01          0.051384          0.118316
 Vib (V=0)    5  0.109426D+01          0.039122          0.090081
 Vib (V=0)    6  0.109395D+01          0.038997          0.089794
 Vib (V=0)    7  0.108401D+01          0.035035          0.080672
 Vib (V=0)    8  0.105905D+01          0.024917          0.057373
 Electronic      0.400000D+01          0.602060          1.386294
 Translational   0.302604D+08          7.480874         17.225349
 Rotational      0.105973D+06          5.025194         11.570936
 
                                                              b3lyp opt
                                                             IR Spectrum
 
     1          1                1                 1 1                                                                               
     8          6                4                 1 1         9               7          5    555   4      3  3            1        
     0          6                1                 5 3         9               5          9    300   5      4  0            1        
     6          0                8                 6 4         3               4          8    098   4      9  6            8        
 
                X                X                 X X         X               X          X    X X   X         X                     
                X                X                 X X                                         X     X                               
                X                                  X X                                               X                               
                X                                  X X                                               X                               
                X                                  X                                                 X                               
                X                                  X                                                 X                               
                X                                  X                                                                                 
                                                   X                                                                                 
                                                   X                                                                                 
                                                   X                                                                                 
                                                   X                                                                                 
                                                   X                                                                                 
                                                   X                                                                                 
                                                   X                                                                                 
                                                   X                                                                                 
                                                   X                                                                                 
                                                   X                                                                                 
                                                   X                                                                                 
                                                   X                                                                                 
                                                   X                                                                                 
 
 ***** Axes restored to original set *****
 -------------------------------------------------------------------
 Center     Atomic                   Forces (Hartrees/Bohr)
 Number     Number              X              Y              Z
 -------------------------------------------------------------------
      1        6          -0.000213294   -0.000018211    0.000132201
      2        6           0.000058872   -0.000104606   -0.000012519
      3        6           0.000143948    0.000092267    0.000025145
      4        6          -0.000167345   -0.000056796    0.000043823
      5        6          -0.000045113    0.000085573   -0.000001008
      6        6           0.000144258    0.000042367   -0.000158814
      7        6           0.000078673   -0.000040594   -0.000028828
 -------------------------------------------------------------------
 Cartesian Forces:  Max     0.000213294 RMS     0.000099221
 Z-matrix is all fixed cartesians, so copy forces.
 Force constants in Cartesian coordinates: 
                1             2             3             4             5 
      1  0.370291D+00
      2 -0.265949D+00  0.364058D+00
      3 -0.281560D+00  0.202369D+00  0.306941D+00
      4 -0.151473D-01  0.290082D-01  0.874728D-02  0.228797D+00
      5  0.864632D-02 -0.449863D-01  0.511545D-02 -0.207341D+00  0.523798D+00
      6  0.154609D-01 -0.183620D-01 -0.110217D-01 -0.133622D+00  0.839078D-01
      7 -0.198324D+00  0.194124D+00  0.121161D+00  0.325561D-01 -0.578153D-01
      8  0.223527D+00 -0.213404D+00 -0.199208D+00 -0.919238D-01  0.120606D+00
      9  0.111286D+00 -0.164993D+00 -0.111106D+00 -0.105061D-01  0.261466D-01
     10  0.397649D-02  0.404085D-01 -0.113853D-01 -0.284433D-01  0.298979D-01
     11  0.552423D-01 -0.143462D+00 -0.143520D-01  0.456251D-01 -0.574256D-01
     12 -0.161823D-01  0.234113D-02  0.235938D-01  0.283359D-01 -0.128045D-01
     13  0.595168D-03 -0.226801D-01  0.155325D-01 -0.558218D-01  0.137702D+00
     14 -0.567638D-01  0.262870D-01  0.592699D-01  0.166803D+00 -0.472973D+00
     15  0.267997D-01  0.199495D-01 -0.298886D-01 -0.339180D-01 -0.150794D-01
     16 -0.159221D+00  0.441943D-01  0.134068D+00 -0.340397D-01  0.571831D-01
     17  0.395702D-01 -0.436855D-02 -0.541613D-01 -0.164247D-01  0.102426D-01
     18  0.135642D+00 -0.594490D-01 -0.166731D+00  0.554638D-01 -0.661205D-01
     19 -0.217088D-02 -0.191065D-01  0.134370D-01 -0.127901D+00  0.317271D-01
     20 -0.427284D-02  0.158768D-01  0.967212D-03  0.742536D-01 -0.792612D-01
     21  0.855364D-02  0.181439D-01 -0.117877D-01  0.854992D-01 -0.211654D-01
                6             7             8             9            10 
      6  0.179967D+00
      7 -0.216710D-01  0.221697D+00
      8  0.653079D-01 -0.204238D+00  0.537432D+00
      9  0.777472D-03 -0.126221D+00  0.759303D-01  0.173664D+00
     10  0.333832D-01 -0.421250D-01  0.397913D-01 -0.192197D-02  0.144482D+00
     11 -0.306660D-01 -0.311416D-02 -0.235041D+00  0.695504D-01 -0.426014D-03
     12 -0.194770D-01  0.121526D-01  0.204497D-01 -0.532221D-01 -0.116343D+00
     13 -0.243799D-01 -0.160894D-01  0.293143D-01  0.973193D-02  0.481099D-02
     14 -0.484981D-01  0.927430D-02 -0.440766D-01  0.394661D-02 -0.693976D-02
     15  0.657457D-02  0.162890D-01 -0.190256D-01 -0.118079D-01  0.145421D-02
     16  0.312471D-01  0.145837D-01 -0.354565D-01  0.577026D-02 -0.553151D-02
     17  0.186345D-01  0.380620D-01 -0.784320D-01 -0.148667D-01 -0.818846D-02
     18 -0.327145D-01 -0.185118D-01  0.698560D-01  0.770222D-02  0.104116D-01
     19  0.995818D-01 -0.122980D-01  0.389859D-01  0.118613D-01 -0.771692D-01
     20 -0.703240D-01  0.237066D-01 -0.870840D-01  0.428542D-02 -0.945435D-01
     21 -0.124106D+00  0.168019D-01 -0.133099D-01 -0.600792D-02  0.844012D-01
               11            12            13            14            15 
     11  0.438135D+00
     12 -0.129022D+00  0.220244D+00
     13 -0.218748D-01  0.630987D-02  0.127584D+00
     14  0.338356D-02  0.835735D-02 -0.170219D+00  0.806601D+00
     15  0.253885D-01 -0.593266D-02 -0.335881D-01 -0.535213D-01  0.106075D+00
     16  0.284776D-01 -0.167260D-02 -0.106793D-01 -0.188848D-01 -0.163647D-01
     17  0.323361D-01 -0.786627D-03 -0.139933D-01 -0.275657D+00  0.971222D-01
     18 -0.430690D-01  0.331892D-02 -0.179289D-01  0.102704D+00 -0.434339D-01
     19 -0.103930D+00  0.873994D-01 -0.504001D-01  0.767301D-01  0.393278D-01
     20 -0.379264D-01  0.111465D+00  0.617507D-01 -0.435649D-01 -0.548339D-01
     21  0.122170D+00 -0.168525D+00  0.443227D-01 -0.722581D-01 -0.215862D-01
               16            17            18            19            20 
     16  0.174614D+00
     17 -0.571145D-01  0.330863D+00
     18 -0.137109D+00 -0.304201D-01  0.207194D+00
     19  0.202739D-01  0.180889D-01 -0.279671D-01  0.249665D+00
     20 -0.183992D-01 -0.149841D-01  0.264990D-01 -0.424954D-01  0.246944D+00
     21 -0.159383D-01 -0.155220D-01  0.246646D-01 -0.223640D+00 -0.180583D-01
               21 
     21  0.307349D+00
 Leave Link  716 at Tue Nov  1 20:42:40 2016, MaxMem=    33554432 cpu:         0.2
 (Enter /home/proyectos/fulerenos/M3C-v2.0/M3C-deps_CCC/g09-AM64L-G09RevC.01/l103.exe)

 GradGradGradGradGradGradGradGradGradGradGradGradGradGradGradGradGradGrad
 Berny optimization.
 Search for a local minimum.
 Step number   1 out of a maximum of    2
 All quantities printed in internal units (Hartrees-Bohrs-Radians)
 Second derivative matrix not updated -- analytic derivatives used.
 ITU=  0
     Eigenvalues ---    0.00635   0.04257   0.05537   0.09378   0.11722
     Eigenvalues ---    0.11751   0.12755   0.16251   0.25836   0.44767
     Eigenvalues ---    0.58368   0.60728   0.91358   1.25179   1.48112
 Angle between quadratic step and forces=  56.15 degrees.
 Linear search not attempted -- first point.
 B after Tr=     0.000000    0.000000   -0.000000
         Rot=    1.000000   -0.000000    0.000000    0.000000 Ang=   0.00 deg.
 Variable       Old X    -DE/DX   Delta X   Delta X   Delta X     New X
                                 (Linear)    (Quad)   (Total)
    X1       -0.24941  -0.00021   0.00000  -0.00054  -0.00054  -0.24995
    Y1       -2.60582  -0.00002   0.00000   0.00045   0.00045  -2.60537
    Z1        1.14662   0.00013   0.00000  -0.00021  -0.00021   1.14640
    X2        0.94270   0.00006   0.00000   0.00060   0.00060   0.94330
    Y2        1.73667  -0.00010   0.00000  -0.00065  -0.00065   1.73602
    Z2       -1.65943  -0.00001   0.00000   0.00049   0.00049  -1.65895
    X3       -1.49684   0.00014   0.00000   0.00100   0.00100  -1.49583
    Y3       -0.74066   0.00009   0.00000   0.00099   0.00099  -0.73967
    Z3        1.96624   0.00003   0.00000   0.00114   0.00114   1.96738
    X4       -1.95755  -0.00017   0.00000  -0.00189  -0.00189  -1.95944
    Y4        1.68947  -0.00006   0.00000   0.00018   0.00018   1.68965
    Z4        1.70114   0.00004   0.00000   0.00009   0.00009   1.70123
    X5        1.91804  -0.00005   0.00000   0.00082   0.00082   1.91886
    Y5       -0.40386   0.00009   0.00000  -0.00010  -0.00010  -0.40396
    Z5       -2.07713  -0.00000   0.00000  -0.00092  -0.00092  -2.07806
    X6        1.49436   0.00014   0.00000  -0.00007  -0.00007   1.49429
    Y6       -2.69466   0.00004   0.00000   0.00038   0.00038  -2.69428
    Z6       -0.83340  -0.00016   0.00000  -0.00083  -0.00083  -0.83423
    X7       -0.65130   0.00008   0.00000   0.00008   0.00008  -0.65122
    Y7        3.01885  -0.00004   0.00000  -0.00125  -0.00125   3.01760
    Z7       -0.24402  -0.00003   0.00000   0.00024   0.00024  -0.24378
         Item               Value     Threshold  Converged?
 Maximum Force            0.000213     0.000450     YES
 RMS     Force            0.000099     0.000300     YES
 Maximum Displacement     0.001895     0.001800     NO 
 RMS     Displacement     0.000771     0.001200     YES
 Predicted change in Energy=-4.474202D-07
 GradGradGradGradGradGradGradGradGradGradGradGradGradGradGradGradGradGrad

 Leave Link  103 at Tue Nov  1 20:42:40 2016, MaxMem=    33554432 cpu:         0.1
 (Enter /home/proyectos/fulerenos/M3C-v2.0/M3C-deps_CCC/g09-AM64L-G09RevC.01/l9999.exe)
 1\1\GINC-ALPEDRETE\Freq\UB3LYP\6-311+G(3df)\C7(1+,4)\NAGUIRRE\01-Nov-2
 016\0\\#p b3lyp/6-311+G(3df) freq symmetry=Loose\\b3lyp opt\\1,4\C,-0.
 131982,-1.378939,0.606763\C,0.498855,0.919006,-0.878135\C,-0.792091,-0
 .391941,1.04049\C,-1.03589,0.894031,0.900204\C,1.014981,-0.213716,-1.0
 99172\C,0.790781,-1.425952,-0.441017\C,-0.344655,1.597509,-0.129132\\V
 ersion=EM64L-G09RevE.01\State=4-A\HF=-266.0272674\S2=3.868489\S2-1=0.\
 S2A=3.754371\RMSD=7.827e-09\RMSF=9.922e-05\ZeroPoint=0.0280096\Thermal
 =0.03356\Dipole=-0.0201044,0.035497,0.0107385\DipoleDeriv=0.0095693,0.
 0063415,0.1430907,0.1731558,-0.067308,-0.1321491,0.0881073,0.0598217,0
 .0145794,0.086275,0.0047021,0.2193933,0.2727368,-0.0474272,-0.2072762,
 0.1314978,0.1011269,0.0932514,0.1558379,0.2443056,0.0604988,-0.0239232
 ,-0.1655788,0.1730413,0.1487156,-0.1359704,0.1512153,0.1971135,-0.2054
 46,-0.0874348,0.0377062,0.3064221,-0.1235165,-0.1674635,0.1573531,0.20
 42815,0.0609951,0.1526503,0.0358935,-0.0145648,-0.1551972,0.1126416,0.
 0909913,-0.0791384,0.0573014,0.3265877,-0.2523659,-0.238373,-0.2523674
 ,0.757481,0.0562617,-0.238528,0.0559692,0.3034184,0.1636216,0.0498124,
 -0.1330686,-0.1927434,0.3716082,0.1209972,-0.0533205,-0.1591621,0.1759
 525\Polar=54.2157477,-11.6775616,78.2108453,-16.6628601,-0.3131663,55.
 7268556\PG=C01 [X(C7)]\NImag=0\\0.37029131,-0.26594874,0.36405759,-0.2
 8156002,0.20236902,0.30694101,-0.01514732,0.02900817,0.00874728,0.2287
 9711,0.00864632,-0.04498635,0.00511545,-0.20734146,0.52379760,0.015460
 90,-0.01836202,-0.01102167,-0.13362209,0.08390777,0.17996705,-0.198324
 10,0.19412430,0.12116086,0.03255612,-0.05781532,-0.02167103,0.22169674
 ,0.22352657,-0.21340446,-0.19920833,-0.09192382,0.12060611,0.06530786,
 -0.20423770,0.53743192,0.11128609,-0.16499257,-0.11110591,-0.01050613,
 0.02614656,0.00077747,-0.12622148,0.07593028,0.17366419,0.00397649,0.0
 4040854,-0.01138528,-0.02844332,0.02989787,0.03338317,-0.04212498,0.03
 979133,-0.00192197,0.14448158,0.05524233,-0.14346203,-0.01435196,0.045
 62509,-0.05742565,-0.03066605,-0.00311416,-0.23504104,0.06955044,-0.00
 042601,0.43813540,-0.01618229,0.00234113,0.02359380,0.02833592,-0.0128
 0448,-0.01947697,0.01215259,0.02044974,-0.05322212,-0.11634293,-0.1290
 2178,0.22024444,0.00059517,-0.02268012,0.01553246,-0.05582175,0.137702
 36,-0.02437993,-0.01608944,0.02931432,0.00973193,0.00481099,-0.0218747
 5,0.00630987,0.12758445,-0.05676379,0.02628699,0.05926988,0.16680318,-
 0.47297313,-0.04849807,0.00927430,-0.04407658,0.00394661,-0.00693976,0
 .00338356,0.00835735,-0.17021920,0.80660109,0.02679974,0.01994948,-0.0
 2988864,-0.03391796,-0.01507937,0.00657457,0.01628899,-0.01902558,-0.0
 1180792,0.00145421,0.02538848,-0.00593266,-0.03358808,-0.05352132,0.10
 607478,-0.15922066,0.04419430,0.13406774,-0.03403973,0.05718315,0.0312
 4713,0.01458369,-0.03545655,0.00577026,-0.00553151,0.02847763,-0.00167
 260,-0.01067933,-0.01888479,-0.01636473,0.17461369,0.03957015,-0.00436
 855,-0.05416127,-0.01642475,0.01024259,0.01863452,0.03806196,-0.078431
 99,-0.01486673,-0.00818846,0.03233615,-0.00078663,-0.01399333,-0.27565
 704,0.09712223,-0.05711451,0.33086294,0.13564194,-0.05944895,-0.166730
 87,0.05546376,-0.06612053,-0.03271448,-0.01851181,0.06985596,0.0077022
 2,0.01041158,-0.04306896,0.00331892,-0.01792891,0.10270360,-0.04343389
 ,-0.13710949,-0.03042009,0.20719351,-0.00217088,-0.01910646,0.01343696
 ,-0.12790110,0.03172709,0.09958184,-0.01229803,0.03898586,0.01186129,-
 0.07716925,-0.10393012,0.08739943,-0.05040009,0.07673006,0.03932784,0.
 02027385,0.01808894,-0.02796707,0.24966550,-0.00427284,0.01587680,0.00
 096721,0.07425359,-0.07926118,-0.07032402,0.02370662,-0.08708396,0.004
 28542,-0.09454351,-0.03792639,0.11146467,0.06175072,-0.04356489,-0.054
 83392,-0.01839922,-0.01498410,0.02649897,-0.04249536,0.24694373,0.0085
 5364,0.01814391,-0.01178772,0.08549922,-0.02116541,-0.12410598,0.01680
 187,-0.01330992,-0.00600792,0.08440121,0.12216982,-0.16852541,0.044322
 66,-0.07225805,-0.02158624,-0.01593832,-0.01552201,0.02466458,-0.22364
 028,-0.01805833,0.30734869\\0.00021329,0.00001821,-0.00013220,-0.00005
 887,0.00010461,0.00001252,-0.00014395,-0.00009227,-0.00002514,0.000167
 34,0.00005680,-0.00004382,0.00004511,-0.00008557,0.00000101,-0.0001442
 6,-0.00004237,0.00015881,-0.00007867,0.00004059,0.00002883\\\@


 "WHERE SHALL I START, PLEASE YOUR MAJESTY?" HE ASKED.
 "BEGIN AT THE BEGINNING," THE KING SAID GRAVELY,
 "AND GO ON TILL YOU COME TO THE END: THEN STOP." 

                                      -- LEWIS CARROLL
 Job cpu time:       0 days  2 hours 29 minutes 54.8 seconds.
 File lengths (MBytes):  RWF=     91 Int=      0 D2E=      0 Chk=      7 Scr=      1
 Normal termination of Gaussian 09 at Tue Nov  1 20:42:40 2016.
