 Entering Gaussian System, Link 0=g09
 Initial command:
 /usr/local/gaussian/gaussian09/g09/l1.exe "/scratch/sergio/H2C3.q0.m3-2.com-2310318/Gau-18360.inp" -scrdir="/scratch/sergio/H2C3.q0.m3-2.com-2310318/"
 Default is to use a total of   4 processors:
                                4 via shared-memory
                                1 via Linda
 Entering Link 1 = /usr/local/gaussian/gaussian09/g09/l1.exe PID=     18361.
  
 Copyright (c) 1988,1990,1992,1993,1995,1998,2003,2009,2015,
            Gaussian, Inc.  All Rights Reserved.
  
 This is part of the Gaussian(R) 09 program.  It is based on
 the Gaussian(R) 03 system (copyright 2003, Gaussian, Inc.),
 the Gaussian(R) 98 system (copyright 1998, Gaussian, Inc.),
 the Gaussian(R) 94 system (copyright 1995, Gaussian, Inc.),
 the Gaussian 92(TM) system (copyright 1992, Gaussian, Inc.),
 the Gaussian 90(TM) system (copyright 1990, Gaussian, Inc.),
 the Gaussian 88(TM) system (copyright 1988, Gaussian, Inc.),
 the Gaussian 86(TM) system (copyright 1986, Carnegie Mellon
 University), and the Gaussian 82(TM) system (copyright 1983,
 Carnegie Mellon University). Gaussian is a federally registered
 trademark of Gaussian, Inc.
  
 This software contains proprietary and confidential information,
 including trade secrets, belonging to Gaussian, Inc.
  
 This software is provided under written license and may be
 used, copied, transmitted, or stored only in accord with that
 written license.
  
 The following legend is applicable only to US Government
 contracts under FAR:
  
                    RESTRICTED RIGHTS LEGEND
  
 Use, reproduction and disclosure by the US Government is
 subject to restrictions as set forth in subparagraphs (a)
 and (c) of the Commercial Computer Software - Restricted
 Rights clause in FAR 52.227-19.
  
 Gaussian, Inc.
 340 Quinnipiac St., Bldg. 40, Wallingford CT 06492
  
  
 ---------------------------------------------------------------
 Warning -- This program may not be used in any manner that
 competes with the business of Gaussian, Inc. or will provide
 assistance to any competitor of Gaussian, Inc.  The licensee
 of this program is prohibited from giving any competitor of
 Gaussian, Inc. access to this program.  By using this program,
 the user acknowledges that Gaussian, Inc. is engaged in the
 business of creating and licensing software in the field of
 computational chemistry and represents and warrants to the
 licensee that it is not a competitor of Gaussian, Inc. and that
 it will not use this program in any manner prohibited above.
 ---------------------------------------------------------------
  

 Cite this work as:
 Gaussian 09, Revision E.01,
 M. J. Frisch, G. W. Trucks, H. B. Schlegel, G. E. Scuseria, 
 M. A. Robb, J. R. Cheeseman, G. Scalmani, V. Barone, B. Mennucci, 
 G. A. Petersson, H. Nakatsuji, M. Caricato, X. Li, H. P. Hratchian, 
 A. F. Izmaylov, J. Bloino, G. Zheng, J. L. Sonnenberg, M. Hada, 
 M. Ehara, K. Toyota, R. Fukuda, J. Hasegawa, M. Ishida, T. Nakajima, 
 Y. Honda, O. Kitao, H. Nakai, T. Vreven, J. A. Montgomery, Jr., 
 J. E. Peralta, F. Ogliaro, M. Bearpark, J. J. Heyd, E. Brothers, 
 K. N. Kudin, V. N. Staroverov, T. Keith, R. Kobayashi, J. Normand, 
 K. Raghavachari, A. Rendell, J. C. Burant, S. S. Iyengar, J. Tomasi, 
 M. Cossi, N. Rega, J. M. Millam, M. Klene, J. E. Knox, J. B. Cross, 
 V. Bakken, C. Adamo, J. Jaramillo, R. Gomperts, R. E. Stratmann, 
 O. Yazyev, A. J. Austin, R. Cammi, C. Pomelli, J. W. Ochterski, 
 R. L. Martin, K. Morokuma, V. G. Zakrzewski, G. A. Voth, 
 P. Salvador, J. J. Dannenberg, S. Dapprich, A. D. Daniels, 
 O. Farkas, J. B. Foresman, J. V. Ortiz, J. Cioslowski, 
 and D. J. Fox, Gaussian, Inc., Wallingford CT, 2013.
 
 ******************************************
 Gaussian 09:  EM64L-G09RevE.01 30-Nov-2015
                22-Nov-2016 
 ******************************************
 Default route:  MaxDisk=40000MB
 -------------------------------------------------
 #p b3lyp/6-311++G(3df,2p) opt freq symmetry=Loose
 -------------------------------------------------
 1/14=-1,18=20,19=15,26=3,38=1/1,3;
 2/9=110,12=2,17=4,18=3,40=1/2;
 3/5=4,6=6,7=1216,11=2,16=1,25=1,30=1,71=1,74=-5/1,2,3;
 4//1;
 5/5=2,38=5/2;
 6/7=2,8=2,9=2,10=2,28=1/1;
 7//1,2,3,16;
 1/14=-1,18=20,19=15,26=3/3(2);
 2/9=110/2;
 99//99;
 2/9=110/2;
 3/5=4,6=6,7=1216,11=2,16=1,25=1,30=1,71=1,74=-5/1,2,3;
 4/5=5,16=3,69=1/1;
 5/5=2,38=5/2;
 7//1,2,3,16;
 1/14=-1,18=20,19=15,26=3/3(-5);
 2/9=110/2;
 6/7=2,8=2,9=2,10=2,19=2,28=1/1;
 99/9=1/99;
 Leave Link    1 at Tue Nov 22 17:41:46 2016, MaxMem=           0 cpu:         0.4
 (Enter /usr/local/gaussian/gaussian09/g09/l101.exe)
 ---------
 b3lyp opt
 ---------
 Symbolic Z-matrix:
 Charge =  0 Multiplicity = 3
 6                     1.479     0.06009   0. 
 6                     0.20702  -0.12745   0. 
 6                    -1.12651   0.03567   0. 
 1                    -1.57828   1.01887   0. 
 1                    -1.77877  -0.82876   0. 
 
 Add atom      3 valence  3 ND=      2 dihedral       2      3      4      5
 NAtoms=      5 NQM=        5 NQMF=       0 NMMI=      0 NMMIF=      0
                NMic=       0 NMicF=      0.
                    Isotopes and Nuclear Properties:
 (Nuclear quadrupole moments (NQMom) in fm**2, nuclear magnetic moments (NMagM)
  in nuclear magnetons)

  Atom         1           2           3           4           5
 IAtWgt=          12          12          12           1           1
 AtmWgt=  12.0000000  12.0000000  12.0000000   1.0078250   1.0078250
 NucSpn=           0           0           0           1           1
 AtZEff=   0.0000000   0.0000000   0.0000000   0.0000000   0.0000000
 NQMom=    0.0000000   0.0000000   0.0000000   0.0000000   0.0000000
 NMagM=    0.0000000   0.0000000   0.0000000   2.7928460   2.7928460
 AtZNuc=   6.0000000   6.0000000   6.0000000   1.0000000   1.0000000
 Leave Link  101 at Tue Nov 22 17:41:47 2016, MaxMem=  1835008000 cpu:         2.7
 (Enter /usr/local/gaussian/gaussian09/g09/l103.exe)

 GradGradGradGradGradGradGradGradGradGradGradGradGradGradGradGradGradGrad
 Berny optimization.
 Initialization pass.
                           ----------------------------
                           !    Initial Parameters    !
                           ! (Angstroms and Degrees)  !
 --------------------------                            --------------------------
 ! Name  Definition              Value          Derivative Info.                !
 --------------------------------------------------------------------------------
 ! R1    R(1,2)                  1.2857         estimate D2E/DX2                !
 ! R2    R(2,3)                  1.3435         estimate D2E/DX2                !
 ! R3    R(3,4)                  1.082          estimate D2E/DX2                !
 ! R4    R(3,5)                  1.0829         estimate D2E/DX2                !
 ! A1    A(1,2,3)              164.6391         estimate D2E/DX2                !
 ! A2    A(2,3,4)              121.6521         estimate D2E/DX2                !
 ! A3    A(2,3,5)              120.0634         estimate D2E/DX2                !
 ! A4    A(4,3,5)              118.2844         estimate D2E/DX2                !
 ! D1    D(1,2,3,4)              0.0            estimate D2E/DX2                !
 ! D2    D(1,2,3,5)            180.0            estimate D2E/DX2                !
 ! D3    D(2,3,4,5)            180.0            estimate D2E/DX2                !
 --------------------------------------------------------------------------------
 Trust Radius=3.00D-01 FncErr=1.00D-07 GrdErr=1.00D-06
 Number of steps in this run=     21 maximum allowed number of steps=    100.
 GradGradGradGradGradGradGradGradGradGradGradGradGradGradGradGradGradGrad

 Leave Link  103 at Tue Nov 22 17:41:47 2016, MaxMem=  1835008000 cpu:         0.1
 (Enter /usr/local/gaussian/gaussian09/g09/l202.exe)
                          Input orientation:                          
 ---------------------------------------------------------------------
 Center     Atomic      Atomic             Coordinates (Angstroms)
 Number     Number       Type             X           Y           Z
 ---------------------------------------------------------------------
      1          6           0        1.479000    0.060094    0.000000
      2          6           0        0.207016   -0.127447    0.000000
      3          6           0       -1.126507    0.035667    0.000000
      4          1           0       -1.578282    1.018870    0.000000
      5          1           0       -1.778774   -0.828755    0.000000
 ---------------------------------------------------------------------
                    Distance matrix (angstroms):
                    1          2          3          4          5
     1  C    0.000000
     2  C    1.285735   0.000000
     3  C    2.605622   1.343462   0.000000
     4  H    3.204095   2.121634   1.082030   0.000000
     5  H    3.376854   2.105990   1.082902   1.858471   0.000000
 Stoichiometry    C3H2(3)
 Framework group  CS[SG(C3H2)]
 Deg. of freedom     7
 Full point group                 CS      NOp   2
 Largest Abelian subgroup         CS      NOp   2
 Largest concise Abelian subgroup C1      NOp   1
                         Standard orientation:                         
 ---------------------------------------------------------------------
 Center     Atomic      Atomic             Coordinates (Angstroms)
 Number     Number       Type             X           Y           Z
 ---------------------------------------------------------------------
      1          6           0       -0.826545    1.227956    0.000000
      2          6           0        0.000000    0.243102    0.000000
      3          6           0        0.560203   -0.977989    0.000000
      4          1           0       -0.040211   -1.878151    0.000000
      5          1           0        1.638265   -1.080258    0.000000
 ---------------------------------------------------------------------
 Rotational constants (GHZ):    253.8935735     10.6620721     10.2323713
 Leave Link  202 at Tue Nov 22 17:41:47 2016, MaxMem=  1835008000 cpu:         0.1
 (Enter /usr/local/gaussian/gaussian09/g09/l301.exe)
 Standard basis: 6-311++G(3df,2p) (5D, 7F)
 Ernie: Thresh=  0.10000D-02 Tol=  0.10000D-05 Strict=F.
 There are   109 symmetry adapted cartesian basis functions of A'  symmetry.
 There are    46 symmetry adapted cartesian basis functions of A"  symmetry.
 There are    94 symmetry adapted basis functions of A'  symmetry.
 There are    43 symmetry adapted basis functions of A"  symmetry.
   137 basis functions,   198 primitive gaussians,   155 cartesian basis functions
    11 alpha electrons        9 beta electrons
       nuclear repulsion energy        47.3944737685 Hartrees.
 IExCor=  402 DFT=T Ex+Corr=B3LYP ExCW=0 ScaHFX=  0.200000
 ScaDFX=  0.800000  0.720000  1.000000  0.810000 ScalE2=  1.000000  1.000000
 IRadAn=      0 IRanWt=     -1 IRanGd=            0 ICorTp=0 IEmpDi=  4
 NAtoms=    5 NActive=    5 NUniq=    5 SFac= 1.00D+00 NAtFMM=   60 NAOKFM=F Big=F
 Integral buffers will be    131072 words long.
 Raffenetti 2 integral format.
 Two-electron integral symmetry is turned on.
 Leave Link  301 at Tue Nov 22 17:41:47 2016, MaxMem=  1835008000 cpu:         0.5
 (Enter /usr/local/gaussian/gaussian09/g09/l302.exe)
 NPDir=0 NMtPBC=     1 NCelOv=     1 NCel=       1 NClECP=     1 NCelD=      1
         NCelK=      1 NCelE2=     1 NClLst=     1 CellRange=     0.0.
 One-electron integrals computed using PRISM.
 NBasis=   137 RedAO= T EigKep=  1.15D-05  NBF=    94    43
 NBsUse=   137 1.00D-06 EigRej= -1.00D+00 NBFU=    94    43
 Precomputing XC quadrature grid using
 IXCGrd= 4 IRadAn=           0 IRanWt=          -1 IRanGd=           0 AccXCQ= 0.00D+00.
 Generated NRdTot=       0 NPtTot=           0 NUsed=           0 NTot=          32
 NSgBfM=   155   155   155   155   155 MxSgAt=     5 MxSgA2=     5.
 Leave Link  302 at Tue Nov 22 17:41:47 2016, MaxMem=  1835008000 cpu:         1.3
 (Enter /usr/local/gaussian/gaussian09/g09/l303.exe)
 DipDrv:  MaxL=1.
 Leave Link  303 at Tue Nov 22 17:41:47 2016, MaxMem=  1835008000 cpu:         0.3
 (Enter /usr/local/gaussian/gaussian09/g09/l401.exe)
 ExpMin= 3.60D-02 ExpMax= 4.56D+03 ExpMxC= 6.82D+02 IAcc=3 IRadAn=         5 AccDes= 0.00D+00
 Harris functional with IExCor=  402 and IRadAn=       5 diagonalized for initial guess.
 HarFok:  IExCor=  402 AccDes= 0.00D+00 IRadAn=         5 IDoV= 1 UseB2=F ITyADJ=14
 ICtDFT=  3500011 ScaDFX=  1.000000  1.000000  1.000000  1.000000
 FoFCou: FMM=F IPFlag=           0 FMFlag=      100000 FMFlg1=           0
         NFxFlg=           0 DoJE=T BraDBF=F KetDBF=T FulRan=T
         wScrn=  0.000000 ICntrl=     500 IOpCl=  0 I1Cent=   200000004 NGrid=           0
         NMat0=    1 NMatS0=      1 NMatT0=    0 NMatD0=    1 NMtDS0=    0 NMtDT0=    0
 Petite list used in FoFCou.
 Harris En= -115.309686505220    
 JPrj=0 DoOrth=F DoCkMO=F.
 Initial guess orbital symmetries:
 Alpha Orbitals:
       Occupied  (A') (A') (A') (A') (A') (A') (A') (A") (A') (A')
                 (A")
       Virtual   (A') (A") (A') (A') (A') (A") (A') (A') (A') (A")
                 (A') (A') (A') (A") (A') (A') (A') (A') (A") (A')
                 (A') (A') (A") (A') (A') (A') (A") (A') (A") (A')
                 (A') (A") (A') (A") (A") (A') (A') (A') (A') (A')
                 (A') (A') (A") (A") (A') (A") (A') (A") (A') (A')
                 (A') (A') (A') (A') (A') (A") (A') (A") (A') (A")
                 (A") (A') (A") (A') (A') (A') (A') (A") (A') (A")
                 (A') (A') (A") (A') (A") (A') (A') (A") (A') (A')
                 (A") (A') (A") (A') (A") (A') (A") (A') (A") (A')
                 (A') (A') (A') (A") (A') (A') (A') (A") (A") (A')
                 (A') (A") (A') (A') (A") (A') (A') (A') (A") (A')
                 (A") (A') (A") (A') (A") (A") (A') (A') (A') (A")
                 (A') (A') (A') (A') (A') (A')
 Beta  Orbitals:
       Occupied  (A') (A') (A') (A') (A') (A') (A') (A") (A')
       Virtual   (A') (A") (A') (A") (A') (A') (A') (A") (A') (A')
                 (A') (A") (A') (A') (A') (A") (A') (A') (A') (A')
                 (A") (A') (A') (A') (A") (A') (A') (A') (A") (A')
                 (A") (A') (A') (A") (A') (A") (A") (A') (A') (A')
                 (A') (A') (A') (A') (A") (A") (A') (A") (A') (A")
                 (A') (A') (A') (A') (A') (A') (A') (A") (A') (A")
                 (A') (A") (A") (A') (A") (A') (A') (A') (A') (A")
                 (A') (A") (A') (A') (A") (A') (A") (A') (A') (A")
                 (A') (A') (A") (A') (A") (A') (A") (A') (A") (A')
                 (A") (A') (A') (A') (A') (A") (A') (A') (A') (A")
                 (A") (A') (A') (A") (A') (A') (A") (A') (A') (A')
                 (A") (A') (A") (A') (A") (A') (A") (A") (A') (A')
                 (A') (A") (A') (A') (A') (A') (A') (A')
 The electronic state of the initial guess is 3-A".
 Initial guess <Sx>= 0.0000 <Sy>= 0.0000 <Sz>= 1.0000 <S**2>= 2.0000 S= 1.0000
 Leave Link  401 at Tue Nov 22 17:41:48 2016, MaxMem=  1835008000 cpu:         2.9
 (Enter /usr/local/gaussian/gaussian09/g09/l502.exe)
 UHF open shell SCF:
 Using DIIS extrapolation, IDIIS=  1040.
 Integral symmetry usage will be decided dynamically.
 Keep R1 and R2 ints in memory in symmetry-blocked form, NReq=68552745.
 IVT=       92714 IEndB=       92714 NGot=  1835008000 MDV=  1789268462
 LenX=  1789268462 LenY=  1789243996
 Requested convergence on RMS density matrix=1.00D-08 within 128 cycles.
 Requested convergence on MAX density matrix=1.00D-06.
 Requested convergence on             energy=1.00D-06.
 No special actions if energy rises.
 FoFCou: FMM=F IPFlag=           0 FMFlag=           0 FMFlg1=           0
         NFxFlg=           0 DoJE=F BraDBF=F KetDBF=F FulRan=T
         wScrn=  0.000000 ICntrl=     600 IOpCl=  0 I1Cent=           0 NGrid=           0
         NMat0=    1 NMatS0=   9453 NMatT0=    0 NMatD0=    1 NMtDS0=    0 NMtDT0=    0
 Petite list used in FoFCou.

 Cycle   1  Pass 1  IDiag  1:
 E= -115.265924476260    
 DIIS: error= 2.85D-02 at cycle   1 NSaved=   1.
 NSaved= 1 IEnMin= 1 EnMin= -115.265924476260     IErMin= 1 ErrMin= 2.85D-02
 ErrMax= 2.85D-02  0.00D+00 EMaxC= 1.00D-01 BMatC= 2.50D-01 BMatP= 2.50D-01
 IDIUse=3 WtCom= 7.15D-01 WtEn= 2.85D-01
 Coeff-Com:  0.100D+01
 Coeff-En:   0.100D+01
 Coeff:      0.100D+01
 Gap=     0.173 Goal=   None    Shift=    0.000
 Gap=     0.101 Goal=   None    Shift=    0.000
 GapD=    0.101 DampG=1.000 DampE=0.500 DampFc=0.5000 IDamp=-1.
 Damping current iteration by 5.00D-01
 RMSDP=9.19D-03 MaxDP=4.23D-01              OVMax= 1.63D-01

 Cycle   2  Pass 1  IDiag  1:
 E= -115.293800334585     Delta-E=       -0.027875858325 Rises=F Damp=T
 DIIS: error= 7.46D-03 at cycle   2 NSaved=   2.
 NSaved= 2 IEnMin= 2 EnMin= -115.293800334585     IErMin= 2 ErrMin= 7.46D-03
 ErrMax= 7.46D-03  0.00D+00 EMaxC= 1.00D-01 BMatC= 1.94D-02 BMatP= 2.50D-01
 IDIUse=3 WtCom= 9.25D-01 WtEn= 7.46D-02
 Coeff-Com: -0.183D-01 0.102D+01
 Coeff-En:   0.231D-02 0.998D+00
 Coeff:     -0.168D-01 0.102D+01
 Gap=     0.210 Goal=   None    Shift=    0.000
 Gap=     0.080 Goal=   None    Shift=    0.000
 RMSDP=3.71D-03 MaxDP=2.27D-01 DE=-2.79D-02 OVMax= 1.44D-01

 Cycle   3  Pass 1  IDiag  1:
 E= -115.315090401226     Delta-E=       -0.021290066641 Rises=F Damp=F
 DIIS: error= 1.84D-02 at cycle   3 NSaved=   3.
 NSaved= 3 IEnMin= 3 EnMin= -115.315090401226     IErMin= 2 ErrMin= 7.46D-03
 ErrMax= 1.84D-02  0.00D+00 EMaxC= 1.00D-01 BMatC= 4.27D-02 BMatP= 1.94D-02
 IDIUse=2 WtCom= 0.00D+00 WtEn= 1.00D+00
 Coeff-En:   0.000D+00 0.000D+00 0.100D+01
 Coeff:      0.000D+00 0.000D+00 0.100D+01
 Gap=     0.197 Goal=   None    Shift=    0.000
 Gap=     0.100 Goal=   None    Shift=    0.000
 RMSDP=4.57D-03 MaxDP=2.08D-01 DE=-2.13D-02 OVMax= 1.96D-01

 Cycle   4  Pass 1  IDiag  1:
 E= -115.257376283987     Delta-E=        0.057714117239 Rises=F Damp=F
 DIIS: error= 4.26D-02 at cycle   4 NSaved=   4.
 NSaved= 4 IEnMin= 3 EnMin= -115.315090401226     IErMin= 2 ErrMin= 7.46D-03
 ErrMax= 4.26D-02  0.00D+00 EMaxC= 1.00D-01 BMatC= 2.42D-01 BMatP= 1.94D-02
 IDIUse=2 WtCom= 0.00D+00 WtEn= 1.00D+00
 Coeff-En:   0.000D+00 0.000D+00 0.785D+00 0.215D+00
 Coeff:      0.000D+00 0.000D+00 0.785D+00 0.215D+00
 Gap=     0.199 Goal=   None    Shift=    0.000
 Gap=     0.103 Goal=   None    Shift=    0.000
 RMSDP=2.23D-03 MaxDP=9.33D-02 DE= 5.77D-02 OVMax= 1.04D-01

 Cycle   5  Pass 1  IDiag  1:
 E= -115.322920127649     Delta-E=       -0.065543843662 Rises=F Damp=F
 DIIS: error= 1.15D-02 at cycle   5 NSaved=   5.
 NSaved= 5 IEnMin= 5 EnMin= -115.322920127649     IErMin= 2 ErrMin= 7.46D-03
 ErrMax= 1.15D-02  0.00D+00 EMaxC= 1.00D-01 BMatC= 1.85D-02 BMatP= 1.94D-02
 IDIUse=3 WtCom= 8.85D-01 WtEn= 1.15D-01
 Coeff-Com:  0.785D-02-0.411D-01 0.222D+00-0.169D+00 0.980D+00
 Coeff-En:   0.000D+00 0.000D+00 0.340D+00 0.000D+00 0.660D+00
 Coeff:      0.695D-02-0.364D-01 0.236D+00-0.150D+00 0.943D+00
 Gap=     0.202 Goal=   None    Shift=    0.000
 Gap=     0.096 Goal=   None    Shift=    0.000
 RMSDP=9.67D-04 MaxDP=5.79D-02 DE=-6.55D-02 OVMax= 5.65D-02

 Cycle   6  Pass 1  IDiag  1:
 E= -115.328661209989     Delta-E=       -0.005741082340 Rises=F Damp=F
 DIIS: error= 1.07D-03 at cycle   6 NSaved=   6.
 NSaved= 6 IEnMin= 6 EnMin= -115.328661209989     IErMin= 6 ErrMin= 1.07D-03
 ErrMax= 1.07D-03  0.00D+00 EMaxC= 1.00D-01 BMatC= 1.48D-04 BMatP= 1.85D-02
 IDIUse=3 WtCom= 9.89D-01 WtEn= 1.07D-02
 Coeff-Com:  0.182D-02-0.748D-02-0.139D+00 0.409D-01-0.257D+00 0.136D+01
 Coeff-En:   0.000D+00 0.000D+00 0.000D+00 0.000D+00 0.000D+00 0.100D+01
 Coeff:      0.180D-02-0.740D-02-0.137D+00 0.404D-01-0.254D+00 0.136D+01
 Gap=     0.203 Goal=   None    Shift=    0.000
 Gap=     0.097 Goal=   None    Shift=    0.000
 RMSDP=3.74D-04 MaxDP=2.08D-02 DE=-5.74D-03 OVMax= 3.21D-02

 Cycle   7  Pass 1  IDiag  1:
 E= -115.328875018226     Delta-E=       -0.000213808237 Rises=F Damp=F
 DIIS: error= 6.05D-04 at cycle   7 NSaved=   7.
 NSaved= 7 IEnMin= 7 EnMin= -115.328875018226     IErMin= 7 ErrMin= 6.05D-04
 ErrMax= 6.05D-04  0.00D+00 EMaxC= 1.00D-01 BMatC= 6.60D-05 BMatP= 1.48D-04
 IDIUse=3 WtCom= 9.94D-01 WtEn= 6.05D-03
 Coeff-Com:  0.106D-02-0.417D-03-0.103D+00 0.530D-01-0.277D+00 0.670D+00
 Coeff-Com:  0.657D+00
 Coeff-En:   0.000D+00 0.000D+00 0.000D+00 0.000D+00 0.000D+00 0.000D+00
 Coeff-En:   0.100D+01
 Coeff:      0.105D-02-0.414D-03-0.103D+00 0.527D-01-0.276D+00 0.666D+00
 Coeff:      0.659D+00
 Gap=     0.203 Goal=   None    Shift=    0.000
 Gap=     0.098 Goal=   None    Shift=    0.000
 RMSDP=1.95D-04 MaxDP=1.10D-02 DE=-2.14D-04 OVMax= 1.57D-02

 Cycle   8  Pass 1  IDiag  1:
 E= -115.328949711899     Delta-E=       -0.000074693673 Rises=F Damp=F
 DIIS: error= 5.18D-04 at cycle   8 NSaved=   8.
 NSaved= 8 IEnMin= 8 EnMin= -115.328949711899     IErMin= 8 ErrMin= 5.18D-04
 ErrMax= 5.18D-04  0.00D+00 EMaxC= 1.00D-01 BMatC= 3.61D-05 BMatP= 6.60D-05
 IDIUse=3 WtCom= 9.95D-01 WtEn= 5.18D-03
 Coeff-Com: -0.789D-03 0.132D-01 0.338D-01-0.203D-01 0.119D+00-0.608D+00
 Coeff-Com: -0.234D+00 0.170D+01
 Coeff-En:   0.000D+00 0.000D+00 0.000D+00 0.000D+00 0.000D+00 0.000D+00
 Coeff-En:   0.000D+00 0.100D+01
 Coeff:     -0.785D-03 0.131D-01 0.336D-01-0.202D-01 0.118D+00-0.604D+00
 Coeff:     -0.233D+00 0.169D+01
 Gap=     0.204 Goal=   None    Shift=    0.000
 Gap=     0.098 Goal=   None    Shift=    0.000
 RMSDP=3.99D-04 MaxDP=2.31D-02 DE=-7.47D-05 OVMax= 3.29D-02

 Cycle   9  Pass 1  IDiag  1:
 E= -115.329059041684     Delta-E=       -0.000109329785 Rises=F Damp=F
 DIIS: error= 3.75D-04 at cycle   9 NSaved=   9.
 NSaved= 9 IEnMin= 9 EnMin= -115.329059041684     IErMin= 9 ErrMin= 3.75D-04
 ErrMax= 3.75D-04  0.00D+00 EMaxC= 1.00D-01 BMatC= 2.50D-05 BMatP= 3.61D-05
 IDIUse=3 WtCom= 9.96D-01 WtEn= 3.75D-03
 Coeff-Com:  0.833D-03 0.593D-04 0.920D-01-0.397D-01 0.263D+00-0.693D+00
 Coeff-Com: -0.889D+00 0.109D+01 0.118D+01
 Coeff-En:   0.000D+00 0.000D+00 0.000D+00 0.000D+00 0.000D+00 0.000D+00
 Coeff-En:   0.000D+00 0.000D+00 0.100D+01
 Coeff:      0.830D-03 0.591D-04 0.916D-01-0.396D-01 0.262D+00-0.690D+00
 Coeff:     -0.885D+00 0.109D+01 0.117D+01
 Gap=     0.204 Goal=   None    Shift=    0.000
 Gap=     0.099 Goal=   None    Shift=    0.000
 RMSDP=4.26D-04 MaxDP=2.41D-02 DE=-1.09D-04 OVMax= 3.30D-02

 Cycle  10  Pass 1  IDiag  1:
 E= -115.329128471172     Delta-E=       -0.000069429488 Rises=F Damp=F
 DIIS: error= 1.33D-04 at cycle  10 NSaved=  10.
 NSaved=10 IEnMin=10 EnMin= -115.329128471172     IErMin=10 ErrMin= 1.33D-04
 ErrMax= 1.33D-04  0.00D+00 EMaxC= 1.00D-01 BMatC= 2.84D-06 BMatP= 2.50D-05
 IDIUse=3 WtCom= 9.99D-01 WtEn= 1.33D-03
 Coeff-Com:  0.615D-03-0.178D-02 0.455D-02-0.216D-02 0.137D-01 0.789D-01
 Coeff-Com: -0.598D-02-0.373D+00-0.610D-01 0.135D+01
 Coeff-En:   0.000D+00 0.000D+00 0.000D+00 0.000D+00 0.000D+00 0.000D+00
 Coeff-En:   0.000D+00 0.000D+00 0.000D+00 0.100D+01
 Coeff:      0.614D-03-0.178D-02 0.454D-02-0.216D-02 0.137D-01 0.788D-01
 Coeff:     -0.597D-02-0.372D+00-0.609D-01 0.135D+01
 Gap=     0.205 Goal=   None    Shift=    0.000
 Gap=     0.099 Goal=   None    Shift=    0.000
 RMSDP=2.32D-04 MaxDP=1.33D-02 DE=-6.94D-05 OVMax= 1.82D-02

 Cycle  11  Pass 1  IDiag  1:
 E= -115.329146446347     Delta-E=       -0.000017975174 Rises=F Damp=F
 DIIS: error= 7.73D-05 at cycle  11 NSaved=  11.
 NSaved=11 IEnMin=11 EnMin= -115.329146446347     IErMin=11 ErrMin= 7.73D-05
 ErrMax= 7.73D-05  0.00D+00 EMaxC= 1.00D-01 BMatC= 8.79D-07 BMatP= 2.84D-06
 IDIUse=1 WtCom= 1.00D+00 WtEn= 0.00D+00
 Coeff-Com: -0.169D-03 0.986D-03-0.180D-01 0.759D-02-0.506D-01 0.131D+00
 Coeff-Com:  0.165D+00-0.166D+00-0.369D+00 0.104D-01 0.129D+01
 Coeff:     -0.169D-03 0.986D-03-0.180D-01 0.759D-02-0.506D-01 0.131D+00
 Coeff:      0.165D+00-0.166D+00-0.369D+00 0.104D-01 0.129D+01
 Gap=     0.205 Goal=   None    Shift=    0.000
 Gap=     0.098 Goal=   None    Shift=    0.000
 RMSDP=1.19D-04 MaxDP=7.21D-03 DE=-1.80D-05 OVMax= 9.48D-03

 Cycle  12  Pass 1  IDiag  1:
 E= -115.329150716523     Delta-E=       -0.000004270177 Rises=F Damp=F
 DIIS: error= 5.01D-05 at cycle  12 NSaved=  12.
 NSaved=12 IEnMin=12 EnMin= -115.329150716523     IErMin=12 ErrMin= 5.01D-05
 ErrMax= 5.01D-05  0.00D+00 EMaxC= 1.00D-01 BMatC= 2.80D-07 BMatP= 8.79D-07
 IDIUse=1 WtCom= 1.00D+00 WtEn= 0.00D+00
 Coeff-Com: -0.206D-03 0.689D-03 0.169D-02-0.947D-03 0.756D-02-0.471D-01
 Coeff-Com: -0.594D-01 0.156D+00 0.327D-01-0.350D+00-0.845D-01 0.134D+01
 Coeff:     -0.206D-03 0.689D-03 0.169D-02-0.947D-03 0.756D-02-0.471D-01
 Coeff:     -0.594D-01 0.156D+00 0.327D-01-0.350D+00-0.845D-01 0.134D+01
 Gap=     0.205 Goal=   None    Shift=    0.000
 Gap=     0.098 Goal=   None    Shift=    0.000
 RMSDP=6.86D-05 MaxDP=4.00D-03 DE=-4.27D-06 OVMax= 5.28D-03

 Cycle  13  Pass 1  IDiag  1:
 E= -115.329151442703     Delta-E=       -0.000000726179 Rises=F Damp=F
 DIIS: error= 6.18D-06 at cycle  13 NSaved=  13.
 NSaved=13 IEnMin=13 EnMin= -115.329151442703     IErMin=13 ErrMin= 6.18D-06
 ErrMax= 6.18D-06  0.00D+00 EMaxC= 1.00D-01 BMatC= 1.73D-08 BMatP= 2.80D-07
 IDIUse=1 WtCom= 1.00D+00 WtEn= 0.00D+00
 Coeff-Com: -0.309D-04 0.182D-03 0.123D-02-0.514D-03 0.343D-02-0.144D-01
 Coeff-Com: -0.433D-02 0.367D-01 0.267D-01-0.492D-01-0.128D+00 0.947D-01
 Coeff-Com:  0.103D+01
 Coeff:     -0.309D-04 0.182D-03 0.123D-02-0.514D-03 0.343D-02-0.144D-01
 Coeff:     -0.433D-02 0.367D-01 0.267D-01-0.492D-01-0.128D+00 0.947D-01
 Coeff:      0.103D+01
 Gap=     0.205 Goal=   None    Shift=    0.000
 Gap=     0.098 Goal=   None    Shift=    0.000
 RMSDP=7.36D-06 MaxDP=3.92D-04 DE=-7.26D-07 OVMax= 5.04D-04

 Cycle  14  Pass 1  IDiag  1:
 E= -115.329151455924     Delta-E=       -0.000000013221 Rises=F Damp=F
 DIIS: error= 2.72D-06 at cycle  14 NSaved=  14.
 NSaved=14 IEnMin=14 EnMin= -115.329151455924     IErMin=14 ErrMin= 2.72D-06
 ErrMax= 2.72D-06  0.00D+00 EMaxC= 1.00D-01 BMatC= 2.33D-09 BMatP= 1.73D-08
 IDIUse=1 WtCom= 1.00D+00 WtEn= 0.00D+00
 Coeff-Com:  0.172D-04-0.823D-04 0.297D-03-0.249D-04 0.148D-03 0.951D-03
 Coeff-Com: -0.817D-03-0.103D-01 0.953D-02 0.308D-01-0.286D-01-0.899D-01
 Coeff-Com:  0.271D+00 0.817D+00
 Coeff:      0.172D-04-0.823D-04 0.297D-03-0.249D-04 0.148D-03 0.951D-03
 Coeff:     -0.817D-03-0.103D-01 0.953D-02 0.308D-01-0.286D-01-0.899D-01
 Coeff:      0.271D+00 0.817D+00
 Gap=     0.205 Goal=   None    Shift=    0.000
 Gap=     0.098 Goal=   None    Shift=    0.000
 RMSDP=3.15D-06 MaxDP=1.98D-04 DE=-1.32D-08 OVMax= 2.55D-04

 Cycle  15  Pass 1  IDiag  1:
 E= -115.329151458126     Delta-E=       -0.000000002202 Rises=F Damp=F
 DIIS: error= 6.36D-07 at cycle  15 NSaved=  15.
 NSaved=15 IEnMin=15 EnMin= -115.329151458126     IErMin=15 ErrMin= 6.36D-07
 ErrMax= 6.36D-07  0.00D+00 EMaxC= 1.00D-01 BMatC= 9.54D-11 BMatP= 2.33D-09
 IDIUse=1 WtCom= 1.00D+00 WtEn= 0.00D+00
 Coeff-Com:  0.460D-06-0.204D-05-0.208D-03 0.976D-04-0.683D-03 0.235D-02
 Coeff-Com:  0.241D-02-0.524D-02-0.388D-02 0.705D-02 0.935D-02-0.218D-01
 Coeff-Com: -0.589D-01 0.710D-01 0.998D+00
 Coeff:      0.460D-06-0.204D-05-0.208D-03 0.976D-04-0.683D-03 0.235D-02
 Coeff:      0.241D-02-0.524D-02-0.388D-02 0.705D-02 0.935D-02-0.218D-01
 Coeff:     -0.589D-01 0.710D-01 0.998D+00
 Gap=     0.205 Goal=   None    Shift=    0.000
 Gap=     0.098 Goal=   None    Shift=    0.000
 RMSDP=1.53D-07 MaxDP=6.41D-06 DE=-2.20D-09 OVMax= 1.19D-05

 Cycle  16  Pass 1  IDiag  1:
 E= -115.329151458182     Delta-E=       -0.000000000057 Rises=F Damp=F
 DIIS: error= 2.57D-07 at cycle  16 NSaved=  16.
 NSaved=16 IEnMin=16 EnMin= -115.329151458182     IErMin=16 ErrMin= 2.57D-07
 ErrMax= 2.57D-07  0.00D+00 EMaxC= 1.00D-01 BMatC= 1.00D-11 BMatP= 9.54D-11
 IDIUse=1 WtCom= 1.00D+00 WtEn= 0.00D+00
 Coeff-Com: -0.114D-05 0.255D-05-0.232D-04 0.361D-05-0.174D-04 0.749D-04
 Coeff-Com:  0.238D-03 0.256D-04-0.688D-03-0.861D-03 0.207D-02 0.206D-02
 Coeff-Com: -0.150D-01-0.281D-01 0.680D-01 0.972D+00
 Coeff:     -0.114D-05 0.255D-05-0.232D-04 0.361D-05-0.174D-04 0.749D-04
 Coeff:      0.238D-03 0.256D-04-0.688D-03-0.861D-03 0.207D-02 0.206D-02
 Coeff:     -0.150D-01-0.281D-01 0.680D-01 0.972D+00
 Gap=     0.205 Goal=   None    Shift=    0.000
 Gap=     0.098 Goal=   None    Shift=    0.000
 RMSDP=4.41D-08 MaxDP=2.00D-06 DE=-5.66D-11 OVMax= 2.26D-06

 Cycle  17  Pass 1  IDiag  1:
 E= -115.329151458186     Delta-E=       -0.000000000004 Rises=F Damp=F
 DIIS: error= 6.05D-08 at cycle  17 NSaved=  17.
 NSaved=17 IEnMin=17 EnMin= -115.329151458186     IErMin=17 ErrMin= 6.05D-08
 ErrMax= 6.05D-08  0.00D+00 EMaxC= 1.00D-01 BMatC= 3.19D-13 BMatP= 1.00D-11
 IDIUse=1 WtCom= 1.00D+00 WtEn= 0.00D+00
 Coeff-Com: -0.116D-06 0.274D-06 0.167D-05-0.951D-06 0.760D-05-0.398D-04
 Coeff-Com: -0.319D-04 0.132D-03 0.945D-04-0.249D-03-0.467D-04 0.654D-03
 Coeff-Com:  0.964D-03-0.709D-02-0.355D-01 0.190D-01 0.102D+01
 Coeff:     -0.116D-06 0.274D-06 0.167D-05-0.951D-06 0.760D-05-0.398D-04
 Coeff:     -0.319D-04 0.132D-03 0.945D-04-0.249D-03-0.467D-04 0.654D-03
 Coeff:      0.964D-03-0.709D-02-0.355D-01 0.190D-01 0.102D+01
 Gap=     0.205 Goal=   None    Shift=    0.000
 Gap=     0.098 Goal=   None    Shift=    0.000
 RMSDP=4.53D-08 MaxDP=2.45D-06 DE=-3.55D-12 OVMax= 3.20D-06

 Cycle  18  Pass 1  IDiag  1:
 E= -115.329151458187     Delta-E=       -0.000000000001 Rises=F Damp=F
 DIIS: error= 7.75D-09 at cycle  18 NSaved=  18.
 NSaved=18 IEnMin=18 EnMin= -115.329151458187     IErMin=18 ErrMin= 7.75D-09
 ErrMax= 7.75D-09  0.00D+00 EMaxC= 1.00D-01 BMatC= 2.33D-14 BMatP= 3.19D-13
 IDIUse=1 WtCom= 1.00D+00 WtEn= 0.00D+00
 Coeff-Com:  0.627D-07-0.211D-06 0.944D-06 0.368D-06-0.166D-05-0.120D-05
 Coeff-Com: -0.397D-05-0.430D-05 0.302D-04 0.472D-04-0.146D-03-0.116D-03
 Coeff-Com:  0.138D-02-0.208D-03-0.506D-02-0.590D-01 0.333D-01 0.103D+01
 Coeff:      0.627D-07-0.211D-06 0.944D-06 0.368D-06-0.166D-05-0.120D-05
 Coeff:     -0.397D-05-0.430D-05 0.302D-04 0.472D-04-0.146D-03-0.116D-03
 Coeff:      0.138D-02-0.208D-03-0.506D-02-0.590D-01 0.333D-01 0.103D+01
 Gap=     0.205 Goal=   None    Shift=    0.000
 Gap=     0.098 Goal=   None    Shift=    0.000
 RMSDP=9.25D-09 MaxDP=5.00D-07 DE=-6.25D-13 OVMax= 6.94D-07

 SCF Done:  E(UB3LYP) =  -115.329151458     A.U. after   18 cycles
            NFock= 18  Conv=0.92D-08     -V/T= 2.0046
 <Sx>= 0.0000 <Sy>= 0.0000 <Sz>= 1.0000 <S**2>= 2.0283 S= 1.0094
 <L.S>= 0.000000000000E+00
 KE= 1.148022659476D+02 PE=-3.620753241537D+02 EE= 8.454943297944D+01
 Annihilation of the first spin contaminant:
 S**2 before annihilation     2.0283,   after     2.0003
 Leave Link  502 at Tue Nov 22 17:42:06 2016, MaxMem=  1835008000 cpu:        59.4
 (Enter /usr/local/gaussian/gaussian09/g09/l601.exe)
 Copying SCF densities to generalized density rwf, IOpCl= 1 IROHF=0.

 **********************************************************************

            Population analysis using the SCF density.

 **********************************************************************

 Orbital symmetries:
 Alpha Orbitals:
       Occupied  (A') (A') (A') (A') (A') (A') (A') (A") (A') (A')
                 (A")
       Virtual   (A') (A') (A') (A") (A') (A') (A") (A') (A") (A')
                 (A') (A') (A') (A") (A') (A') (A') (A") (A') (A')
                 (A') (A") (A') (A') (A') (A') (A") (A') (A") (A')
                 (A') (A") (A') (A") (A') (A") (A') (A') (A') (A')
                 (A') (A") (A') (A") (A') (A") (A') (A") (A') (A')
                 (A') (A') (A') (A') (A') (A") (A') (A") (A') (A")
                 (A') (A") (A") (A') (A') (A') (A') (A") (A') (A')
                 (A") (A') (A") (A") (A') (A') (A') (A") (A') (A')
                 (A") (A") (A') (A') (A") (A') (A") (A') (A") (A')
                 (A') (A') (A') (A") (A') (A') (A") (A') (A") (A')
                 (A') (A") (A') (A') (A") (A') (A') (A') (A") (A')
                 (A") (A') (A") (A') (A") (A") (A') (A') (A') (A")
                 (A') (A') (A') (A') (A') (A')
 Beta  Orbitals:
       Occupied  (A') (A') (A') (A') (A') (A') (A') (A") (A')
       Virtual   (A') (A") (A') (A') (A') (A") (A') (A') (A') (A")
                 (A') (A") (A') (A') (A') (A') (A") (A') (A') (A")
                 (A') (A') (A') (A') (A") (A') (A') (A') (A") (A')
                 (A') (A") (A') (A') (A") (A") (A') (A") (A') (A')
                 (A') (A') (A') (A") (A') (A") (A') (A") (A") (A')
                 (A') (A') (A') (A') (A') (A') (A') (A") (A') (A")
                 (A') (A") (A') (A") (A") (A') (A') (A') (A') (A")
                 (A') (A') (A") (A') (A") (A") (A') (A') (A') (A")
                 (A') (A') (A") (A") (A') (A') (A") (A') (A") (A')
                 (A") (A') (A') (A') (A') (A") (A') (A') (A") (A')
                 (A") (A') (A') (A") (A') (A') (A") (A') (A') (A')
                 (A") (A') (A") (A') (A") (A') (A") (A") (A') (A')
                 (A') (A") (A') (A') (A') (A') (A') (A')
 The electronic state is 3-A".
 Alpha  occ. eigenvalues --  -10.24005 -10.23648 -10.22001  -0.83496  -0.73463
 Alpha  occ. eigenvalues --   -0.53005  -0.48783  -0.37411  -0.36100  -0.31576
 Alpha  occ. eigenvalues --   -0.23561
 Alpha virt. eigenvalues --   -0.03050  -0.00531   0.02554   0.02833   0.04232
 Alpha virt. eigenvalues --    0.06626   0.07200   0.08108   0.09466   0.09923
 Alpha virt. eigenvalues --    0.12404   0.12904   0.13651   0.14827   0.15053
 Alpha virt. eigenvalues --    0.19168   0.20932   0.24888   0.25642   0.28049
 Alpha virt. eigenvalues --    0.31832   0.35159   0.35203   0.37141   0.41343
 Alpha virt. eigenvalues --    0.42403   0.43547   0.44189   0.48608   0.49861
 Alpha virt. eigenvalues --    0.52899   0.54538   0.54833   0.54984   0.56464
 Alpha virt. eigenvalues --    0.58127   0.60735   0.66906   0.68256   0.75584
 Alpha virt. eigenvalues --    0.81205   0.82721   0.82862   0.84636   0.90434
 Alpha virt. eigenvalues --    0.94508   1.02089   1.02801   1.10851   1.16938
 Alpha virt. eigenvalues --    1.21561   1.28061   1.30946   1.33450   1.40750
 Alpha virt. eigenvalues --    1.43477   1.46604   1.48587   1.59163   1.60395
 Alpha virt. eigenvalues --    1.69223   1.69568   1.79501   1.84032   2.03957
 Alpha virt. eigenvalues --    2.07337   2.11203   2.26573   2.34540   2.57443
 Alpha virt. eigenvalues --    2.58747   2.60208   2.62467   2.63516   2.64124
 Alpha virt. eigenvalues --    2.68685   2.73941   2.76790   2.82149   2.85034
 Alpha virt. eigenvalues --    2.86858   2.89076   2.89776   2.92490   3.01210
 Alpha virt. eigenvalues --    3.08927   3.11090   3.18593   3.23798   3.28670
 Alpha virt. eigenvalues --    3.44307   3.57218   3.70910   3.74821   3.86023
 Alpha virt. eigenvalues --    3.98879   4.13419   4.13939   4.17055   4.21255
 Alpha virt. eigenvalues --    4.25610   4.37373   4.67278   5.10438   5.34998
 Alpha virt. eigenvalues --    5.41064   5.56756   6.01854   6.89740   6.91511
 Alpha virt. eigenvalues --    7.00533   7.03704   7.05850   7.07207   7.21568
 Alpha virt. eigenvalues --    7.22723   7.24690   7.42452   7.56374   7.58386
 Alpha virt. eigenvalues --    7.69570   7.96849   8.43200  23.81406  25.56135
 Alpha virt. eigenvalues --   26.08150
  Beta  occ. eigenvalues --  -10.23366 -10.22108 -10.21078  -0.80470  -0.69282
  Beta  occ. eigenvalues --   -0.51379  -0.47142  -0.33500  -0.29693
  Beta virt. eigenvalues --   -0.19863  -0.11140  -0.01019   0.00728   0.03222
  Beta virt. eigenvalues --    0.03929   0.04560   0.06996   0.08660   0.10011
  Beta virt. eigenvalues --    0.10173   0.10524   0.12663   0.13604   0.14004
  Beta virt. eigenvalues --    0.15535   0.15555   0.19423   0.21160   0.25840
  Beta virt. eigenvalues --    0.26301   0.29127   0.33512   0.35732   0.36669
  Beta virt. eigenvalues --    0.38745   0.43002   0.43551   0.45462   0.46016
  Beta virt. eigenvalues --    0.50486   0.50879   0.54703   0.55822   0.55850
  Beta virt. eigenvalues --    0.57524   0.57913   0.58438   0.61523   0.67774
  Beta virt. eigenvalues --    0.69184   0.76369   0.82357   0.84051   0.84808
  Beta virt. eigenvalues --    0.86091   0.91252   0.95654   1.03909   1.04194
  Beta virt. eigenvalues --    1.11777   1.18544   1.22325   1.29024   1.33048
  Beta virt. eigenvalues --    1.35141   1.41931   1.45916   1.50023   1.52194
  Beta virt. eigenvalues --    1.61877   1.63735   1.73015   1.73076   1.83519
  Beta virt. eigenvalues --    1.86141   2.06570   2.10328   2.14037   2.29565
  Beta virt. eigenvalues --    2.36739   2.59433   2.62481   2.63539   2.65200
  Beta virt. eigenvalues --    2.65896   2.66610   2.71236   2.75874   2.81852
  Beta virt. eigenvalues --    2.84436   2.86662   2.89402   2.92618   2.92794
  Beta virt. eigenvalues --    2.96374   3.04110   3.11561   3.13601   3.21565
  Beta virt. eigenvalues --    3.27716   3.31177   3.46756   3.58830   3.73199
  Beta virt. eigenvalues --    3.77128   3.87718   4.01288   4.14767   4.14818
  Beta virt. eigenvalues --    4.19776   4.22509   4.27499   4.38988   4.68822
  Beta virt. eigenvalues --    5.12567   5.37156   5.42806   5.57490   6.03564
  Beta virt. eigenvalues --    6.94139   6.96172   7.05521   7.07402   7.09143
  Beta virt. eigenvalues --    7.11004   7.24399   7.28018   7.28501   7.46268
  Beta virt. eigenvalues --    7.59429   7.60186   7.72099   7.97967   8.44958
  Beta virt. eigenvalues --   23.82621  25.57234  26.09631
          Condensed to atoms (all electrons):
               1          2          3          4          5
     1  C    9.218222  -1.705406  -1.147159   0.041898   0.005745
     2  C   -1.705406   7.959199  -0.696746  -0.013552  -0.131166
     3  C   -1.147159  -0.696746   7.529241   0.359851   0.493359
     4  H    0.041898  -0.013552   0.359851   0.448997  -0.022645
     5  H    0.005745  -0.131166   0.493359  -0.022645   0.475981
          Atomic-Atomic Spin Densities.
               1          2          3          4          5
     1  C    1.344928  -0.001123  -0.186079   0.002411  -0.013399
     2  C   -0.001123   0.252390  -0.070598   0.000215  -0.015866
     3  C   -0.186079  -0.070598   0.882305   0.008945   0.036804
     4  H    0.002411   0.000215   0.008945  -0.011656   0.003167
     5  H   -0.013399  -0.015866   0.036804   0.003167   0.003077
 Mulliken charges and spin densities:
               1          2
     1  C   -0.413300   1.146739
     2  C    0.587671   0.165017
     3  C   -0.538546   0.671378
     4  H    0.185450   0.003083
     5  H    0.178726   0.013784
 Sum of Mulliken charges =  -0.00000   2.00000
 Mulliken charges and spin densities with hydrogens summed into heavy atoms:
               1          2
     1  C   -0.413300   1.146739
     2  C    0.587671   0.165017
     3  C   -0.174371   0.688244
 Electronic spatial extent (au):  <R**2>=            143.2423
 Charge=             -0.0000 electrons
 Dipole moment (field-independent basis, Debye):
    X=              1.7389    Y=             -1.7923    Z=              0.0000  Tot=              2.4973
 Quadrupole moment (field-independent basis, Debye-Ang):
   XX=            -18.6990   YY=            -17.1927   ZZ=            -19.8703
   XY=              1.4544   XZ=              0.0000   YZ=              0.0000
 Traceless Quadrupole moment (field-independent basis, Debye-Ang):
   XX=             -0.1117   YY=              1.3946   ZZ=             -1.2829
   XY=              1.4544   XZ=              0.0000   YZ=              0.0000
 Octapole moment (field-independent basis, Debye-Ang**2):
  XXX=              9.6899  YYY=             -9.1836  ZZZ=              0.0000  XYY=              3.6722
  XXY=             -6.0027  XXZ=              0.0000  XZZ=              0.9317  YZZ=             -0.9911
  YYZ=              0.0000  XYZ=              0.0000
 Hexadecapole moment (field-independent basis, Debye-Ang**3):
 XXXX=            -68.8187 YYYY=           -122.4865 ZZZZ=            -25.0397 XXXY=             33.5432
 XXXZ=              0.0000 YYYX=             37.2244 YYYZ=              0.0000 ZZZX=              0.0000
 ZZZY=              0.0000 XXYY=            -36.0537 XXZZ=            -16.8328 YYZZ=            -27.5598
 XXYZ=              0.0000 YYXZ=              0.0000 ZZXY=             11.9529
 N-N= 4.739447376846D+01 E-N=-3.620753243586D+02  KE= 1.148022659476D+02
 Symmetry A'   KE= 1.113755368522D+02
 Symmetry A"   KE= 3.426729095408D+00
                          Isotropic Fermi Contact Couplings
        Atom                 a.u.       MegaHertz       Gauss      10(-4) cm-1
     1  C(13)              0.33777     189.85976      67.74668      63.33040
     2  C(13)             -0.00851      -4.78600      -1.70776      -1.59644
     3  C(13)              0.02615      14.69997       5.24532       4.90338
     4  H(1)               0.00349       7.79651       2.78199       2.60063
     5  H(1)               0.01012      22.61964       8.07125       7.54510
 --------------------------------------------------------
       Center         ----  Spin Dipole Couplings  ----
                      3XX-RR        3YY-RR        3ZZ-RR
 --------------------------------------------------------
     1   Atom       -0.804551      0.452665      0.351886
     2   Atom        0.542160     -0.085676     -0.456484
     3   Atom       -0.364247     -0.391504      0.755751
     4   Atom       -0.024791      0.031853     -0.007062
     5   Atom        0.053622     -0.047567     -0.006055
 --------------------------------------------------------
                        XY            XZ            YZ
 --------------------------------------------------------
     1   Atom        0.104780      0.000000      0.000000
     2   Atom        0.059310      0.000000      0.000000
     3   Atom       -0.012767      0.000000      0.000000
     4   Atom        0.043278      0.000000      0.000000
     5   Atom       -0.015209      0.000000      0.000000
 --------------------------------------------------------


 ---------------------------------------------------------------------------------
              Anisotropic Spin Dipole Couplings in Principal Axis System
 ---------------------------------------------------------------------------------

       Atom             a.u.   MegaHertz   Gauss  10(-4) cm-1        Axes

              Baa    -0.8132  -109.127   -38.939   -36.401  0.9966 -0.0825 -0.0000
     1 C(13)  Bbb     0.3519    47.220    16.849    15.751  0.0000  0.0000  1.0000
              Bcc     0.4613    61.907    22.090    20.650  0.0825  0.9966  0.0000
 
              Baa    -0.4565   -61.256   -21.858   -20.433  0.0000  0.0000  1.0000
     2 C(13)  Bbb    -0.0912   -12.242    -4.368    -4.084 -0.0932  0.9956 -0.0000
              Bcc     0.5477    73.498    26.226    24.516  0.9956  0.0932  0.0000
 
              Baa    -0.3965   -53.213   -18.988   -17.750  0.3676  0.9300  0.0000
     3 C(13)  Bbb    -0.3592   -48.201   -17.199   -16.078  0.9300 -0.3676 -0.0000
              Bcc     0.7558   101.415    36.187    33.828  0.0000  0.0000  1.0000
 
              Baa    -0.0482   -25.712    -9.175    -8.577  0.8797 -0.4756 -0.0000
     4 H(1)   Bbb    -0.0071    -3.768    -1.345    -1.257  0.0000  0.0000  1.0000
              Bcc     0.0553    29.480    10.519     9.834  0.4756  0.8797  0.0000
 
              Baa    -0.0498   -26.573    -9.482    -8.864  0.1455  0.9894  0.0000
     5 H(1)   Bbb    -0.0061    -3.231    -1.153    -1.078  0.0000  0.0000  1.0000
              Bcc     0.0559    29.803    10.635     9.941  0.9894 -0.1455 -0.0000
 

 ---------------------------------------------------------------------------------

 No NMR shielding tensors so no spin-rotation constants.
 Leave Link  601 at Tue Nov 22 17:42:06 2016, MaxMem=  1835008000 cpu:         1.9
 (Enter /usr/local/gaussian/gaussian09/g09/l701.exe)
 Compute integral first derivatives.
 ... and contract with generalized density number  0.
 Leave Link  701 at Tue Nov 22 17:42:07 2016, MaxMem=  1835008000 cpu:         1.4
 (Enter /usr/local/gaussian/gaussian09/g09/l702.exe)
 L702 exits ... SP integral derivatives will be done elsewhere.
 Leave Link  702 at Tue Nov 22 17:42:07 2016, MaxMem=  1835008000 cpu:         0.2
 (Enter /usr/local/gaussian/gaussian09/g09/l703.exe)
 Compute integral first derivatives, UseDBF=F ICtDFT=           0.
 Integral derivatives from FoFJK, PRISM(SPDF).
 Calling FoFJK, ICntrl=      2127 FMM=F ISym2X=1 I1Cent= 0 IOpClX= 1 NMat=1 NMatS=1 NMatT=0.
 FoFJK:  IHMeth= 1 ICntrl=    2127 DoSepK=F KAlg= 0 I1Cent=   0 FoldK=F
 IRaf=         0 NMat=   1 IRICut=       1 DoRegI=T DoRafI=F ISym2E= 1.
 FoFCou: FMM=F IPFlag=           0 FMFlag=      100000 FMFlg1=         800
         NFxFlg=           0 DoJE=F BraDBF=F KetDBF=F FulRan=T
         wScrn=  0.000000 ICntrl=    2127 IOpCl=  1 I1Cent=           0 NGrid=           0
         NMat0=    1 NMatS0=      1 NMatT0=    0 NMatD0=    1 NMtDS0=    0 NMtDT0=    0
 Petite list used in FoFCou.
 Leave Link  703 at Tue Nov 22 17:42:16 2016, MaxMem=  1835008000 cpu:        34.9
 (Enter /usr/local/gaussian/gaussian09/g09/l716.exe)
 Dipole        = 6.84154742D-01-7.05148237D-01 0.00000000D+00
 ***** Axes restored to original set *****
 -------------------------------------------------------------------
 Center     Atomic                   Forces (Hartrees/Bohr)
 Number     Number              X              Y              Z
 -------------------------------------------------------------------
      1        6          -0.000172058    0.000007406   -0.000000000
      2        6           0.000207682   -0.000054934   -0.000000000
      3        6           0.000032865    0.000063014   -0.000000000
      4        1          -0.000045556   -0.000023169   -0.000000000
      5        1          -0.000022933    0.000007683   -0.000000000
 -------------------------------------------------------------------
 Cartesian Forces:  Max     0.000207682 RMS     0.000074858
 Leave Link  716 at Tue Nov 22 17:42:16 2016, MaxMem=  1835008000 cpu:         0.2
 (Enter /usr/local/gaussian/gaussian09/g09/l103.exe)

 GradGradGradGradGradGradGradGradGradGradGradGradGradGradGradGradGradGrad
 Berny optimization.
 FormGI is forming the generalized inverse of G from B-inverse, IUseBI=4.
 Internal  Forces:  Max     0.000169557 RMS     0.000060753
 Search for a local minimum.
 Step number   1 out of a maximum of   21
 All quantities printed in internal units (Hartrees-Bohrs-Radians)
 RMS Force = .60753D-04 SwitMx=.10000D-02 MixMth= 2
 Mixed Optimization -- En-DIIS/RFO-DIIS
 Second derivative matrix not updated -- first step.
 The second derivative matrix:
                          R1        R2        R3        R4        A1
           R1           0.71316
           R2           0.00000   0.56436
           R3           0.00000   0.00000   0.35750
           R4           0.00000   0.00000   0.00000   0.35646
           A1           0.00000   0.00000   0.00000   0.00000   0.25000
           A2           0.00000   0.00000   0.00000   0.00000   0.00000
           A3           0.00000   0.00000   0.00000   0.00000   0.00000
           A4           0.00000   0.00000   0.00000   0.00000   0.00000
           D1           0.00000   0.00000   0.00000   0.00000   0.00000
           D2           0.00000   0.00000   0.00000   0.00000   0.00000
           D3           0.00000   0.00000   0.00000   0.00000   0.00000
                          A2        A3        A4        D1        D2
           A2           0.16000
           A3           0.00000   0.16000
           A4           0.00000   0.00000   0.16000
           D1           0.00000   0.00000   0.00000   0.02837
           D2           0.00000   0.00000   0.00000   0.00000   0.02837
           D3           0.00000   0.00000   0.00000   0.00000   0.00000
                          D3
           D3           0.00340
 ITU=  0
     Eigenvalues ---    0.01192   0.02837   0.16000   0.16000   0.25000
     Eigenvalues ---    0.35646   0.35750   0.56436   0.71316
 RFO step:  Lambda=-9.51223236D-08 EMin= 1.19173272D-02
 Linear search not attempted -- first point.
 Iteration  1 RMS(Cart)=  0.00014867 RMS(Int)=  0.00000002
 Iteration  2 RMS(Cart)=  0.00000002 RMS(Int)=  0.00000000
 ITry= 1 IFail=0 DXMaxC= 2.57D-04 DCOld= 1.00D+10 DXMaxT= 3.00D-01 DXLimC= 3.00D+00 Rises=F
 ClnCor:  largest displacement from symmetrization is 3.24D-13 for atom     3.
 Variable       Old X    -DE/DX   Delta X   Delta X   Delta X     New X
                                 (Linear)    (Quad)   (Total)
    R1        2.42969  -0.00017   0.00000  -0.00024  -0.00024   2.42945
    R2        2.53877   0.00004   0.00000   0.00007   0.00007   2.53885
    R3        2.04474  -0.00000   0.00000  -0.00000  -0.00000   2.04474
    R4        2.04639   0.00001   0.00000   0.00002   0.00002   2.04641
    A1        2.87349  -0.00007   0.00000  -0.00028  -0.00028   2.87321
    A2        2.12323   0.00005   0.00000   0.00031   0.00031   2.12354
    A3        2.09550   0.00000   0.00000   0.00001   0.00001   2.09551
    A4        2.06445  -0.00005   0.00000  -0.00032  -0.00032   2.06414
    D1        0.00000   0.00000   0.00000  -0.00000   0.00000   0.00000
    D2        3.14159  -0.00000   0.00000   0.00000   0.00000   3.14159
    D3        3.14159   0.00000   0.00000   0.00000   0.00000   3.14159
         Item               Value     Threshold  Converged?
 Maximum Force            0.000170     0.000450     YES
 RMS     Force            0.000061     0.000300     YES
 Maximum Displacement     0.000257     0.001800     YES
 RMS     Displacement     0.000149     0.001200     YES
 Predicted change in Energy=-4.756116D-08
 Optimization completed.
    -- Stationary point found.
                           ----------------------------
                           !   Optimized Parameters   !
                           ! (Angstroms and Degrees)  !
 --------------------------                            --------------------------
 ! Name  Definition              Value          Derivative Info.                !
 --------------------------------------------------------------------------------
 ! R1    R(1,2)                  1.2857         -DE/DX =   -0.0002              !
 ! R2    R(2,3)                  1.3435         -DE/DX =    0.0                 !
 ! R3    R(3,4)                  1.082          -DE/DX =    0.0                 !
 ! R4    R(3,5)                  1.0829         -DE/DX =    0.0                 !
 ! A1    A(1,2,3)              164.6391         -DE/DX =   -0.0001              !
 ! A2    A(2,3,4)              121.6521         -DE/DX =    0.0                 !
 ! A3    A(2,3,5)              120.0634         -DE/DX =    0.0                 !
 ! A4    A(4,3,5)              118.2844         -DE/DX =   -0.0001              !
 ! D1    D(1,2,3,4)              0.0            -DE/DX =    0.0                 !
 ! D2    D(1,2,3,5)            180.0            -DE/DX =    0.0                 !
 ! D3    D(2,3,4,5)            180.0            -DE/DX =    0.0                 !
 --------------------------------------------------------------------------------
 Lowest energy point so far.  Saving SCF results.
 GradGradGradGradGradGradGradGradGradGradGradGradGradGradGradGradGradGrad

 Largest change from initial coordinates is atom    2       0.000 Angstoms.
 Leave Link  103 at Tue Nov 22 17:42:16 2016, MaxMem=  1835008000 cpu:         0.1
 (Enter /usr/local/gaussian/gaussian09/g09/l202.exe)
                          Input orientation:                          
 ---------------------------------------------------------------------
 Center     Atomic      Atomic             Coordinates (Angstroms)
 Number     Number       Type             X           Y           Z
 ---------------------------------------------------------------------
      1          6           0        1.479000    0.060094    0.000000
      2          6           0        0.207016   -0.127447    0.000000
      3          6           0       -1.126507    0.035667    0.000000
      4          1           0       -1.578282    1.018870    0.000000
      5          1           0       -1.778774   -0.828755    0.000000
 ---------------------------------------------------------------------
                    Distance matrix (angstroms):
                    1          2          3          4          5
     1  C    0.000000
     2  C    1.285735   0.000000
     3  C    2.605622   1.343462   0.000000
     4  H    3.204095   2.121634   1.082030   0.000000
     5  H    3.376854   2.105990   1.082902   1.858471   0.000000
 Stoichiometry    C3H2(3)
 Framework group  CS[SG(C3H2)]
 Deg. of freedom     7
 Full point group                 CS      NOp   2
 RotChk:  IX=0 Diff= 3.14D-16
 Largest Abelian subgroup         CS      NOp   2
 Largest concise Abelian subgroup C1      NOp   1
                         Standard orientation:                         
 ---------------------------------------------------------------------
 Center     Atomic      Atomic             Coordinates (Angstroms)
 Number     Number       Type             X           Y           Z
 ---------------------------------------------------------------------
      1          6           0       -0.826545    1.227956    0.000000
      2          6           0        0.000000    0.243102    0.000000
      3          6           0        0.560203   -0.977989    0.000000
      4          1           0       -0.040211   -1.878151    0.000000
      5          1           0        1.638265   -1.080258    0.000000
 ---------------------------------------------------------------------
 Rotational constants (GHZ):    253.8935735     10.6620721     10.2323713
 Leave Link  202 at Tue Nov 22 17:42:16 2016, MaxMem=  1835008000 cpu:         0.0
 (Enter /usr/local/gaussian/gaussian09/g09/l9999.exe)
 1\1\GINC-EINSTENIO\FOpt\UB3LYP\6-311++G(3df,2p)\C3H2(3)\SERGIO\22-Nov-
 2016\0\\#p b3lyp/6-311++G(3df,2p) opt freq symmetry=Loose\\b3lyp opt\\
 0,3\C,1.479,0.060094,0.\C,0.207016,-0.127447,0.\C,-1.126507,0.035667,0
 .\H,-1.578282,1.01887,0.\H,-1.778774,-0.828755,0.\\Version=EM64L-G09Re
 vE.01\State=3-A"\HF=-115.3291515\S2=2.028307\S2-1=0.\S2A=2.000302\RMSD
 =9.248e-09\RMSF=7.486e-05\Dipole=-0.9591482,-0.2129235,0.\Quadrupole=-
 0.2363868,1.1902279,-0.9538411,-0.9868885,0.,0.\PG=CS [SG(C3H2)]\\@


 GOOD SENSE ABOUT TRIVIALITIES IS BETTER THAN NONSENSE
 ABOUT THINGS THAT MATTER

                                       -- MAX BEERBOHM
 Leave Link 9999 at Tue Nov 22 17:42:16 2016, MaxMem=  1835008000 cpu:         0.2
 Job cpu time:       0 days  0 hours  1 minutes 47.0 seconds.
 File lengths (MBytes):  RWF=     14 Int=      0 D2E=      0 Chk=      3 Scr=      1
 Normal termination of Gaussian 09 at Tue Nov 22 17:42:16 2016.
 (Enter /usr/local/gaussian/gaussian09/g09/l1.exe)
 Link1:  Proceeding to internal job step number  2.
 ----------------------------------------------------------------------
 #P Geom=AllCheck Guess=TCheck SCRF=Check GenChk UB3LYP/6-311++G(3df,2p
 ) Freq
 ----------------------------------------------------------------------
 1/10=4,29=7,30=1,38=1,40=1/1,3;
 2/12=2,17=4,18=3,40=1/2;
 3/5=4,6=6,7=1216,11=2,14=-4,16=1,25=1,30=1,70=2,71=2,74=-5,116=2,140=1/1,2,3;
 4/5=101/1;
 5/5=2,38=6,98=1/2;
 8/6=4,10=90,11=11/1;
 11/6=1,8=1,9=11,15=111,16=1/1,2,10;
 10/6=1/2;
 6/7=2,8=2,9=2,10=2,18=1,28=1/1;
 7/8=1,10=1,25=1/1,2,3,16;
 1/10=4,30=1/3;
 99//99;
 Leave Link    1 at Tue Nov 22 17:42:16 2016, MaxMem=  1835008000 cpu:         0.2
 (Enter /usr/local/gaussian/gaussian09/g09/l101.exe)
 Structure from the checkpoint file:  "/scratch/sergio/H2C3.q0.m3-2.com-2310318/Gau-18361.chk"
 ---------
 b3lyp opt
 ---------
 Charge =  0 Multiplicity = 3
 Redundant internal coordinates found in file.
 C,0,1.479,0.060094,0.
 C,0,0.207016,-0.127447,0.
 C,0,-1.126507,0.035667,0.
 H,0,-1.578282,1.01887,0.
 H,0,-1.778774,-0.828755,0.
 Recover connectivity data from disk.
 NAtoms=      5 NQM=        5 NQMF=       0 NMMI=      0 NMMIF=      0
                NMic=       0 NMicF=      0.
                    Isotopes and Nuclear Properties:
 (Nuclear quadrupole moments (NQMom) in fm**2, nuclear magnetic moments (NMagM)
  in nuclear magnetons)

  Atom         1           2           3           4           5
 IAtWgt=          12          12          12           1           1
 AtmWgt=  12.0000000  12.0000000  12.0000000   1.0078250   1.0078250
 NucSpn=           0           0           0           1           1
 AtZEff=  -3.6000000  -3.6000000  -3.6000000  -1.0000000  -1.0000000
 NQMom=    0.0000000   0.0000000   0.0000000   0.0000000   0.0000000
 NMagM=    0.0000000   0.0000000   0.0000000   2.7928460   2.7928460
 AtZNuc=   6.0000000   6.0000000   6.0000000   1.0000000   1.0000000
 Leave Link  101 at Tue Nov 22 17:42:17 2016, MaxMem=  1835008000 cpu:         2.7
 (Enter /usr/local/gaussian/gaussian09/g09/l103.exe)

 GradGradGradGradGradGradGradGradGradGradGradGradGradGradGradGradGradGrad
 Berny optimization.
 Initialization pass.
                           ----------------------------
                           !    Initial Parameters    !
                           ! (Angstroms and Degrees)  !
 --------------------------                            --------------------------
 ! Name  Definition              Value          Derivative Info.                !
 --------------------------------------------------------------------------------
 ! R1    R(1,2)                  1.2857         calculate D2E/DX2 analytically  !
 ! R2    R(2,3)                  1.3435         calculate D2E/DX2 analytically  !
 ! R3    R(3,4)                  1.082          calculate D2E/DX2 analytically  !
 ! R4    R(3,5)                  1.0829         calculate D2E/DX2 analytically  !
 ! A1    A(1,2,3)              164.6391         calculate D2E/DX2 analytically  !
 ! A2    A(2,3,4)              121.6521         calculate D2E/DX2 analytically  !
 ! A3    A(2,3,5)              120.0634         calculate D2E/DX2 analytically  !
 ! A4    A(4,3,5)              118.2844         calculate D2E/DX2 analytically  !
 ! D1    D(1,2,3,4)              0.0            calculate D2E/DX2 analytically  !
 ! D2    D(1,2,3,5)            180.0            calculate D2E/DX2 analytically  !
 ! D3    D(2,3,4,5)            180.0            calculate D2E/DX2 analytically  !
 --------------------------------------------------------------------------------
 Trust Radius=3.00D-01 FncErr=1.00D-07 GrdErr=1.00D-07
 Number of steps in this run=      2 maximum allowed number of steps=      2.
 GradGradGradGradGradGradGradGradGradGradGradGradGradGradGradGradGradGrad

 Leave Link  103 at Tue Nov 22 17:42:17 2016, MaxMem=  1835008000 cpu:         0.1
 (Enter /usr/local/gaussian/gaussian09/g09/l202.exe)
                          Input orientation:                          
 ---------------------------------------------------------------------
 Center     Atomic      Atomic             Coordinates (Angstroms)
 Number     Number       Type             X           Y           Z
 ---------------------------------------------------------------------
      1          6           0        1.479000    0.060094    0.000000
      2          6           0        0.207016   -0.127447    0.000000
      3          6           0       -1.126507    0.035667    0.000000
      4          1           0       -1.578282    1.018870    0.000000
      5          1           0       -1.778774   -0.828755    0.000000
 ---------------------------------------------------------------------
                    Distance matrix (angstroms):
                    1          2          3          4          5
     1  C    0.000000
     2  C    1.285735   0.000000
     3  C    2.605622   1.343462   0.000000
     4  H    3.204095   2.121634   1.082030   0.000000
     5  H    3.376854   2.105990   1.082902   1.858471   0.000000
 Stoichiometry    C3H2(3)
 Framework group  CS[SG(C3H2)]
 Deg. of freedom     7
 Full point group                 CS      NOp   2
 RotChk:  IX=0 Diff= 3.93D-16
 Largest Abelian subgroup         CS      NOp   2
 Largest concise Abelian subgroup C1      NOp   1
                         Standard orientation:                         
 ---------------------------------------------------------------------
 Center     Atomic      Atomic             Coordinates (Angstroms)
 Number     Number       Type             X           Y           Z
 ---------------------------------------------------------------------
      1          6           0       -0.826545    1.227956    0.000000
      2          6           0        0.000000    0.243102    0.000000
      3          6           0        0.560203   -0.977989    0.000000
      4          1           0       -0.040211   -1.878151    0.000000
      5          1           0        1.638265   -1.080258    0.000000
 ---------------------------------------------------------------------
 Rotational constants (GHZ):    253.8935735     10.6620721     10.2323713
 Leave Link  202 at Tue Nov 22 17:42:17 2016, MaxMem=  1835008000 cpu:         0.1
 (Enter /usr/local/gaussian/gaussian09/g09/l301.exe)
 Standard basis: 6-311++G(3df,2p) (5D, 7F)
 Ernie: Thresh=  0.10000D-02 Tol=  0.10000D-05 Strict=F.
 There are   109 symmetry adapted cartesian basis functions of A'  symmetry.
 There are    46 symmetry adapted cartesian basis functions of A"  symmetry.
 There are    94 symmetry adapted basis functions of A'  symmetry.
 There are    43 symmetry adapted basis functions of A"  symmetry.
   137 basis functions,   198 primitive gaussians,   155 cartesian basis functions
    11 alpha electrons        9 beta electrons
       nuclear repulsion energy        47.3944737685 Hartrees.
 IExCor=  402 DFT=T Ex+Corr=B3LYP ExCW=0 ScaHFX=  0.200000
 ScaDFX=  0.800000  0.720000  1.000000  0.810000 ScalE2=  1.000000  1.000000
 IRadAn=      0 IRanWt=     -1 IRanGd=            0 ICorTp=0 IEmpDi=  4
 NAtoms=    5 NActive=    5 NUniq=    5 SFac= 1.00D+00 NAtFMM=   60 NAOKFM=F Big=F
 Integral buffers will be    131072 words long.
 Raffenetti 2 integral format.
 Two-electron integral symmetry is turned on.
 Leave Link  301 at Tue Nov 22 17:42:17 2016, MaxMem=  1835008000 cpu:         0.5
 (Enter /usr/local/gaussian/gaussian09/g09/l302.exe)
 NPDir=0 NMtPBC=     1 NCelOv=     1 NCel=       1 NClECP=     1 NCelD=      1
         NCelK=      1 NCelE2=     1 NClLst=     1 CellRange=     0.0.
 One-electron integrals computed using PRISM.
 NBasis=   137 RedAO= T EigKep=  1.15D-05  NBF=    94    43
 NBsUse=   137 1.00D-06 EigRej= -1.00D+00 NBFU=    94    43
 Precomputing XC quadrature grid using
 IXCGrd= 4 IRadAn=           0 IRanWt=          -1 IRanGd=           0 AccXCQ= 0.00D+00.
 Generated NRdTot=       0 NPtTot=           0 NUsed=           0 NTot=          32
 NSgBfM=   155   155   155   155   155 MxSgAt=     5 MxSgA2=     5.
 Leave Link  302 at Tue Nov 22 17:42:18 2016, MaxMem=  1835008000 cpu:         1.3
 (Enter /usr/local/gaussian/gaussian09/g09/l303.exe)
 DipDrv:  MaxL=1.
 Leave Link  303 at Tue Nov 22 17:42:18 2016, MaxMem=  1835008000 cpu:         0.2
 (Enter /usr/local/gaussian/gaussian09/g09/l401.exe)
 Initial guess from the checkpoint file:  "/scratch/sergio/H2C3.q0.m3-2.com-2310318/Gau-18361.chk"
 B after Tr=    -0.000000    0.000000    0.000000
         Rot=    1.000000   -0.000000   -0.000000   -0.000000 Ang=   0.00 deg.
 Guess basis will be translated and rotated to current coordinates.
 JPrj=2 DoOrth=T DoCkMO=T.
 Initial guess orbital symmetries:
 Alpha Orbitals:
       Occupied  (A') (A') (A') (A') (A') (A') (A') (A") (A') (A')
                 (A")
       Virtual   (A') (A') (A') (A") (A') (A') (A") (A') (A") (A')
                 (A') (A') (A') (A") (A') (A') (A') (A") (A') (A')
                 (A') (A") (A') (A') (A') (A') (A") (A') (A") (A')
                 (A') (A") (A') (A") (A') (A") (A') (A') (A') (A')
                 (A') (A") (A') (A") (A') (A") (A') (A") (A') (A')
                 (A') (A') (A') (A') (A') (A") (A') (A") (A') (A")
                 (A') (A") (A") (A') (A') (A') (A') (A") (A') (A')
                 (A") (A') (A") (A") (A') (A') (A') (A") (A') (A')
                 (A") (A") (A') (A') (A") (A') (A") (A') (A") (A')
                 (A') (A') (A') (A") (A') (A') (A") (A') (A") (A')
                 (A') (A") (A') (A') (A") (A') (A') (A') (A") (A')
                 (A") (A') (A") (A') (A") (A") (A') (A') (A') (A")
                 (A') (A') (A') (A') (A') (A')
 Beta  Orbitals:
       Occupied  (A') (A') (A') (A') (A') (A') (A') (A") (A')
       Virtual   (A') (A") (A') (A') (A') (A") (A') (A') (A') (A")
                 (A') (A") (A') (A') (A') (A') (A") (A') (A') (A")
                 (A') (A') (A') (A') (A") (A') (A') (A') (A") (A')
                 (A') (A") (A') (A') (A") (A") (A') (A") (A') (A')
                 (A') (A') (A') (A") (A') (A") (A') (A") (A") (A')
                 (A') (A') (A') (A') (A') (A') (A') (A") (A') (A")
                 (A') (A") (A') (A") (A") (A') (A') (A') (A') (A")
                 (A') (A') (A") (A') (A") (A") (A') (A') (A') (A")
                 (A') (A') (A") (A") (A') (A') (A") (A') (A") (A')
                 (A") (A') (A') (A') (A') (A") (A') (A') (A") (A')
                 (A") (A') (A') (A") (A') (A') (A") (A') (A') (A')
                 (A") (A') (A") (A') (A") (A') (A") (A") (A') (A')
                 (A') (A") (A') (A') (A') (A') (A') (A')
 The electronic state of the initial guess is 3-A".
 Initial guess <Sx>= 0.0000 <Sy>= 0.0000 <Sz>= 1.0000 <S**2>= 2.0283 S= 1.0094
 Leave Link  401 at Tue Nov 22 17:42:18 2016, MaxMem=  1835008000 cpu:         1.1
 (Enter /usr/local/gaussian/gaussian09/g09/l502.exe)
 UHF open shell SCF:
 Using DIIS extrapolation, IDIIS=  1040.
 Integral symmetry usage will be decided dynamically.
 Keep R1 and R2 ints in memory in symmetry-blocked form, NReq=68552745.
 IVT=       92714 IEndB=       92714 NGot=  1835008000 MDV=  1789268462
 LenX=  1789268462 LenY=  1789243996
 Requested convergence on RMS density matrix=1.00D-08 within 128 cycles.
 Requested convergence on MAX density matrix=1.00D-06.
 Requested convergence on             energy=1.00D-06.
 No special actions if energy rises.
 FoFCou: FMM=F IPFlag=           0 FMFlag=           0 FMFlg1=           0
         NFxFlg=           0 DoJE=F BraDBF=F KetDBF=F FulRan=T
         wScrn=  0.000000 ICntrl=     600 IOpCl=  0 I1Cent=           0 NGrid=           0
         NMat0=    1 NMatS0=   9453 NMatT0=    0 NMatD0=    1 NMtDS0=    0 NMtDT0=    0
 Petite list used in FoFCou.

 Cycle   1  Pass 1  IDiag  1:
 E= -115.329151458186    
 DIIS: error= 2.91D-09 at cycle   1 NSaved=   1.
 NSaved= 1 IEnMin= 1 EnMin= -115.329151458186     IErMin= 1 ErrMin= 2.91D-09
 ErrMax= 2.91D-09  0.00D+00 EMaxC= 1.00D-01 BMatC= 9.23D-16 BMatP= 9.23D-16
 IDIUse=1 WtCom= 1.00D+00 WtEn= 0.00D+00
 Coeff-Com:  0.100D+01
 Coeff:      0.100D+01
 Gap=     0.205 Goal=   None    Shift=    0.000
 Gap=     0.098 Goal=   None    Shift=    0.000
 RMSDP=5.21D-10 MaxDP=1.93D-08              OVMax= 3.32D-08

 SCF Done:  E(UB3LYP) =  -115.329151458     A.U. after    1 cycles
            NFock=  1  Conv=0.52D-09     -V/T= 2.0046
 <Sx>= 0.0000 <Sy>= 0.0000 <Sz>= 1.0000 <S**2>= 2.0283 S= 1.0094
 <L.S>= 0.000000000000E+00
 KE= 1.148022659252D+02 PE=-3.620753243362D+02 EE= 8.454943318435D+01
 Annihilation of the first spin contaminant:
 S**2 before annihilation     2.0283,   after     2.0003
 Leave Link  502 at Tue Nov 22 17:42:26 2016, MaxMem=  1835008000 cpu:        30.6
 (Enter /usr/local/gaussian/gaussian09/g09/l801.exe)
 DoSCS=F DFT=T ScalE2(SS,OS)=  1.000000  1.000000
 Range of M.O.s used for correlation:     1   137
 NBasis=   137 NAE=    11 NBE=     9 NFC=     0 NFV=     0
 NROrb=    137 NOA=    11 NOB=     9 NVA=   126 NVB=   128

 **** Warning!!: The largest alpha MO coefficient is  0.15412452D+03


 **** Warning!!: The largest beta MO coefficient is  0.15832510D+03


 **** Warning!!: The smallest beta delta epsilon is  0.98299959D-01

 Leave Link  801 at Tue Nov 22 17:42:26 2016, MaxMem=  1835008000 cpu:         0.2
 (Enter /usr/local/gaussian/gaussian09/g09/l1101.exe)
 Using compressed storage, NAtomX=     5.
 Will process      6 centers per pass.
 Leave Link 1101 at Tue Nov 22 17:42:26 2016, MaxMem=  1835008000 cpu:         1.9
 (Enter /usr/local/gaussian/gaussian09/g09/l1102.exe)
 Symmetrizing basis deriv contribution to polar:
 IMax=3 JMax=2 DiffMx= 0.00D+00
 Leave Link 1102 at Tue Nov 22 17:42:27 2016, MaxMem=  1835008000 cpu:         0.2
 (Enter /usr/local/gaussian/gaussian09/g09/l1110.exe)
 Forming Gx(P) for the SCF density, NAtomX=     5.
 Integral derivatives from FoFJK, PRISM(SPDF).
 Do as many integral derivatives as possible in FoFJK.
 G2DrvN: MDV=    1835007856.
 G2DrvN: will do     6 centers at a time, making    1 passes.
 Calling FoFCou, ICntrl=  3107 FMM=F I1Cent=   0 AccDes= 0.00D+00.
 FoFJK:  IHMeth= 1 ICntrl=    3107 DoSepK=F KAlg= 0 I1Cent=   0 FoldK=F
 IRaf=         0 NMat=   1 IRICut=       1 DoRegI=T DoRafI=F ISym2E= 1.
 FoFCou: FMM=F IPFlag=           0 FMFlag=      100000 FMFlg1=           0
         NFxFlg=           0 DoJE=F BraDBF=F KetDBF=F FulRan=T
         wScrn=  0.000000 ICntrl=    3107 IOpCl=  1 I1Cent=           0 NGrid=           0
         NMat0=    1 NMatS0=      1 NMatT0=    0 NMatD0=    1 NMtDS0=    0 NMtDT0=    0
 Petite list used in FoFCou.
 End of G2Drv F.D. properties file   721 does not exist.
 End of G2Drv F.D. properties file   722 does not exist.
 End of G2Drv F.D. properties file   788 does not exist.
 Leave Link 1110 at Tue Nov 22 17:42:45 2016, MaxMem=  1835008000 cpu:        72.9
 (Enter /usr/local/gaussian/gaussian09/g09/l1002.exe)
 Minotr:  UHF open shell wavefunction.
          IDoAtm=11111
          Direct CPHF calculation.
          Differentiating once with respect to electric field.
                with respect to dipole field.
          Differentiating once with respect to nuclear coordinates.
          Using symmetry in CPHF.
          Requested convergence is 1.0D-08 RMS, and 1.0D-07 maximum.
          Secondary convergence is 1.0D-12 RMS, and 1.0D-12 maximum.
          NewPWx=T KeepS1=F KeepF1=F KeepIn=T MapXYZ=F SortEE=F KeepMc=T.
          MDV=    1835007672 using IRadAn=       2.
 Generate precomputed XC quadrature information.
 Keep R1 and R2 ints in memory in symmetry-blocked form, NReq=68462753.
 FoFCou: FMM=F IPFlag=           0 FMFlag=           0 FMFlg1=           0
         NFxFlg=           0 DoJE=F BraDBF=F KetDBF=F FulRan=T
         wScrn=  0.000000 ICntrl=     600 IOpCl=  0 I1Cent=           0 NGrid=           0
         NMat0=    1 NMatS0=   9453 NMatT0=    0 NMatD0=    1 NMtDS0=    0 NMtDT0=    0
 Petite list used in FoFCou.
          Solving linear equations simultaneously, MaxMat=       0.
          There are    18 degrees of freedom in the 1st order CPHF.  IDoFFX=6 NUNeed=     3.
     15 vectors produced by pass  0 Test12= 1.41D-14 5.56D-09 XBig12= 1.30D+02 7.11D+00.
 AX will form    15 AO Fock derivatives at one time.
     15 vectors produced by pass  1 Test12= 1.41D-14 5.56D-09 XBig12= 5.60D+01 2.11D+00.
     15 vectors produced by pass  2 Test12= 1.41D-14 5.56D-09 XBig12= 5.21D+00 6.54D-01.
     15 vectors produced by pass  3 Test12= 1.41D-14 5.56D-09 XBig12= 1.05D-01 7.63D-02.
     15 vectors produced by pass  4 Test12= 1.41D-14 5.56D-09 XBig12= 1.10D-03 6.13D-03.
     15 vectors produced by pass  5 Test12= 1.41D-14 5.56D-09 XBig12= 8.26D-06 4.78D-04.
     14 vectors produced by pass  6 Test12= 1.41D-14 5.56D-09 XBig12= 3.45D-08 3.07D-05.
      8 vectors produced by pass  7 Test12= 1.41D-14 5.56D-09 XBig12= 1.36D-10 1.98D-06.
      3 vectors produced by pass  8 Test12= 1.41D-14 5.56D-09 XBig12= 7.51D-13 1.62D-07.
      3 vectors produced by pass  9 Test12= 1.41D-14 5.56D-09 XBig12= 1.44D-13 1.15D-07.
      2 vectors produced by pass 10 Test12= 1.41D-14 5.56D-09 XBig12= 3.01D-15 2.10D-08.
      1 vectors produced by pass 11 Test12= 1.41D-14 5.56D-09 XBig12= 3.15D-16 6.03D-09.
 InvSVY:  IOpt=1 It=  1 EMax= 8.88D-16
 Solved reduced A of dimension   121 with    15 vectors.
 FullF1:  Do perturbations    1 to     3.
 Isotropic polarizability for W=    0.000000       45.97 Bohr**3.
 End of Minotr F.D. properties file   721 does not exist.
 End of Minotr F.D. properties file   722 does not exist.
 End of Minotr F.D. properties file   788 does not exist.
 Leave Link 1002 at Tue Nov 22 17:43:26 2016, MaxMem=  1835008000 cpu:       161.2
 (Enter /usr/local/gaussian/gaussian09/g09/l601.exe)
 Copying SCF densities to generalized density rwf, IOpCl= 1 IROHF=0.

 **********************************************************************

            Population analysis using the SCF density.

 **********************************************************************

 Orbital symmetries:
 Alpha Orbitals:
       Occupied  (A') (A') (A') (A') (A') (A') (A') (A") (A') (A')
                 (A")
       Virtual   (A') (A') (A') (A") (A') (A') (A") (A') (A") (A')
                 (A') (A') (A') (A") (A') (A') (A') (A") (A') (A')
                 (A') (A") (A') (A') (A') (A') (A") (A') (A") (A')
                 (A') (A") (A') (A") (A') (A") (A') (A') (A') (A')
                 (A') (A") (A') (A") (A') (A") (A') (A") (A') (A')
                 (A') (A') (A') (A') (A') (A") (A') (A") (A') (A")
                 (A') (A") (A") (A') (A') (A') (A') (A") (A') (A')
                 (A") (A') (A") (A") (A') (A') (A') (A") (A') (A')
                 (A") (A") (A') (A') (A") (A') (A") (A') (A") (A')
                 (A') (A') (A') (A") (A') (A') (A") (A') (A") (A')
                 (A') (A") (A') (A') (A") (A') (A') (A') (A") (A')
                 (A") (A') (A") (A') (A") (A") (A') (A') (A') (A")
                 (A') (A') (A') (A') (A') (A')
 Beta  Orbitals:
       Occupied  (A') (A') (A') (A') (A') (A') (A') (A") (A')
       Virtual   (A') (A") (A') (A') (A') (A") (A') (A') (A') (A")
                 (A') (A") (A') (A') (A') (A') (A") (A') (A') (A")
                 (A') (A') (A') (A') (A") (A') (A') (A') (A") (A')
                 (A') (A") (A') (A') (A") (A") (A') (A") (A') (A')
                 (A') (A') (A') (A") (A') (A") (A') (A") (A") (A')
                 (A') (A') (A') (A') (A') (A') (A') (A") (A') (A")
                 (A') (A") (A') (A") (A") (A') (A') (A') (A') (A")
                 (A') (A') (A") (A') (A") (A") (A') (A') (A') (A")
                 (A') (A') (A") (A") (A') (A') (A") (A') (A") (A')
                 (A") (A') (A') (A') (A') (A") (A') (A') (A") (A')
                 (A") (A') (A') (A") (A') (A') (A") (A') (A') (A')
                 (A") (A') (A") (A') (A") (A') (A") (A") (A') (A')
                 (A') (A") (A') (A') (A') (A') (A') (A')
 The electronic state is 3-A".
 Alpha  occ. eigenvalues --  -10.24005 -10.23648 -10.22001  -0.83496  -0.73463
 Alpha  occ. eigenvalues --   -0.53005  -0.48783  -0.37411  -0.36100  -0.31576
 Alpha  occ. eigenvalues --   -0.23561
 Alpha virt. eigenvalues --   -0.03050  -0.00531   0.02554   0.02833   0.04232
 Alpha virt. eigenvalues --    0.06626   0.07200   0.08108   0.09466   0.09923
 Alpha virt. eigenvalues --    0.12404   0.12904   0.13651   0.14827   0.15053
 Alpha virt. eigenvalues --    0.19168   0.20932   0.24888   0.25642   0.28049
 Alpha virt. eigenvalues --    0.31832   0.35159   0.35203   0.37141   0.41343
 Alpha virt. eigenvalues --    0.42403   0.43547   0.44189   0.48608   0.49861
 Alpha virt. eigenvalues --    0.52899   0.54538   0.54833   0.54984   0.56464
 Alpha virt. eigenvalues --    0.58127   0.60735   0.66906   0.68256   0.75584
 Alpha virt. eigenvalues --    0.81205   0.82721   0.82862   0.84636   0.90434
 Alpha virt. eigenvalues --    0.94508   1.02089   1.02801   1.10851   1.16938
 Alpha virt. eigenvalues --    1.21561   1.28061   1.30946   1.33450   1.40750
 Alpha virt. eigenvalues --    1.43477   1.46604   1.48587   1.59163   1.60395
 Alpha virt. eigenvalues --    1.69223   1.69568   1.79501   1.84032   2.03957
 Alpha virt. eigenvalues --    2.07337   2.11203   2.26573   2.34540   2.57443
 Alpha virt. eigenvalues --    2.58747   2.60208   2.62467   2.63516   2.64124
 Alpha virt. eigenvalues --    2.68685   2.73941   2.76790   2.82149   2.85034
 Alpha virt. eigenvalues --    2.86858   2.89076   2.89776   2.92490   3.01210
 Alpha virt. eigenvalues --    3.08927   3.11090   3.18593   3.23798   3.28670
 Alpha virt. eigenvalues --    3.44307   3.57218   3.70910   3.74821   3.86023
 Alpha virt. eigenvalues --    3.98879   4.13419   4.13939   4.17055   4.21255
 Alpha virt. eigenvalues --    4.25610   4.37373   4.67278   5.10438   5.34998
 Alpha virt. eigenvalues --    5.41064   5.56756   6.01854   6.89740   6.91511
 Alpha virt. eigenvalues --    7.00533   7.03704   7.05850   7.07207   7.21568
 Alpha virt. eigenvalues --    7.22723   7.24690   7.42452   7.56374   7.58386
 Alpha virt. eigenvalues --    7.69570   7.96849   8.43200  23.81406  25.56135
 Alpha virt. eigenvalues --   26.08150
  Beta  occ. eigenvalues --  -10.23366 -10.22108 -10.21078  -0.80470  -0.69282
  Beta  occ. eigenvalues --   -0.51379  -0.47142  -0.33500  -0.29693
  Beta virt. eigenvalues --   -0.19863  -0.11140  -0.01019   0.00728   0.03222
  Beta virt. eigenvalues --    0.03929   0.04560   0.06996   0.08660   0.10011
  Beta virt. eigenvalues --    0.10173   0.10524   0.12663   0.13604   0.14004
  Beta virt. eigenvalues --    0.15535   0.15555   0.19423   0.21160   0.25840
  Beta virt. eigenvalues --    0.26301   0.29127   0.33512   0.35732   0.36669
  Beta virt. eigenvalues --    0.38745   0.43002   0.43551   0.45462   0.46016
  Beta virt. eigenvalues --    0.50486   0.50879   0.54703   0.55822   0.55850
  Beta virt. eigenvalues --    0.57524   0.57913   0.58438   0.61523   0.67774
  Beta virt. eigenvalues --    0.69184   0.76369   0.82357   0.84051   0.84808
  Beta virt. eigenvalues --    0.86091   0.91252   0.95654   1.03909   1.04194
  Beta virt. eigenvalues --    1.11777   1.18544   1.22325   1.29024   1.33048
  Beta virt. eigenvalues --    1.35141   1.41931   1.45916   1.50023   1.52194
  Beta virt. eigenvalues --    1.61877   1.63735   1.73015   1.73076   1.83519
  Beta virt. eigenvalues --    1.86141   2.06570   2.10328   2.14037   2.29565
  Beta virt. eigenvalues --    2.36739   2.59433   2.62481   2.63539   2.65200
  Beta virt. eigenvalues --    2.65896   2.66610   2.71236   2.75874   2.81852
  Beta virt. eigenvalues --    2.84436   2.86662   2.89402   2.92618   2.92794
  Beta virt. eigenvalues --    2.96374   3.04110   3.11561   3.13601   3.21565
  Beta virt. eigenvalues --    3.27716   3.31177   3.46756   3.58830   3.73199
  Beta virt. eigenvalues --    3.77128   3.87718   4.01288   4.14767   4.14818
  Beta virt. eigenvalues --    4.19776   4.22509   4.27499   4.38988   4.68822
  Beta virt. eigenvalues --    5.12567   5.37156   5.42806   5.57490   6.03564
  Beta virt. eigenvalues --    6.94139   6.96172   7.05521   7.07402   7.09143
  Beta virt. eigenvalues --    7.11004   7.24399   7.28018   7.28501   7.46268
  Beta virt. eigenvalues --    7.59429   7.60186   7.72099   7.97967   8.44958
  Beta virt. eigenvalues --   23.82621  25.57234  26.09631
          Condensed to atoms (all electrons):
               1          2          3          4          5
     1  C    9.218222  -1.705406  -1.147159   0.041898   0.005745
     2  C   -1.705406   7.959199  -0.696746  -0.013552  -0.131166
     3  C   -1.147159  -0.696746   7.529241   0.359851   0.493359
     4  H    0.041898  -0.013552   0.359851   0.448997  -0.022645
     5  H    0.005745  -0.131166   0.493359  -0.022645   0.475981
          Atomic-Atomic Spin Densities.
               1          2          3          4          5
     1  C    1.344928  -0.001123  -0.186079   0.002411  -0.013399
     2  C   -0.001123   0.252390  -0.070598   0.000215  -0.015866
     3  C   -0.186079  -0.070598   0.882305   0.008945   0.036804
     4  H    0.002411   0.000215   0.008945  -0.011656   0.003167
     5  H   -0.013399  -0.015866   0.036804   0.003167   0.003077
 Mulliken charges and spin densities:
               1          2
     1  C   -0.413300   1.146739
     2  C    0.587671   0.165017
     3  C   -0.538546   0.671378
     4  H    0.185450   0.003083
     5  H    0.178726   0.013784
 Sum of Mulliken charges =  -0.00000   2.00000
[...]
 Frc consts  --      0.8648                 2.3319                 1.7618
 IR Inten    --    189.6107               297.1614               347.0638
  Atom  AN      X      Y      Z        X      Y      Z        X      Y      Z
     1   6     0.08  -0.13  -0.00     0.26  -0.28  -0.00    -0.06   0.07   0.00
     2   6     0.07   0.08   0.00    -0.19  -0.05   0.00     0.12  -0.18  -0.00
     3   6    -0.18   0.02   0.00    -0.01   0.28   0.00    -0.02   0.02  -0.00
     4   1     0.43  -0.36  -0.00    -0.55   0.65  -0.00    -0.54   0.38   0.00
     5   1    -0.09   0.78  -0.00    -0.08  -0.08  -0.00     0.04   0.71   0.00
                      7                      8                      9
                     A'                     A'                     A'
 Frequencies --   1446.0374              3126.0049              3211.9490
 Red. masses --      2.8092                 1.0513                 1.1141
 Frc consts  --      3.4610                 6.0529                 6.7720
 IR Inten    --    478.4209                18.8344                 3.9789
  Atom  AN      X      Y      Z        X      Y      Z        X      Y      Z
     1   6    -0.04   0.05   0.00     0.00  -0.00   0.00    -0.00   0.00   0.00
     2   6     0.14  -0.24  -0.00    -0.00  -0.00   0.00    -0.00  -0.00  -0.00
     3   6    -0.13   0.26  -0.00    -0.03   0.05  -0.00    -0.09  -0.05   0.00
     4   1     0.61  -0.24   0.00    -0.38  -0.55   0.00     0.40   0.62   0.00
     5   1    -0.21  -0.60   0.00     0.73  -0.06   0.00     0.66  -0.08   0.00

 -------------------
 - Thermochemistry -
 -------------------
 Temperature   298.150 Kelvin.  Pressure   1.00000 Atm.
 Atom     1 has atomic number  6 and mass  12.00000
 Atom     2 has atomic number  6 and mass  12.00000
 Atom     3 has atomic number  6 and mass  12.00000
 Atom     4 has atomic number  1 and mass   1.00783
 Atom     5 has atomic number  1 and mass   1.00783
 Molecular mass:    38.01565 amu.
 Principal axes and moments of inertia in atomic units:
                           1         2         3
     Eigenvalues --     7.10826 169.26740 176.37566
           X           -0.52705   0.84983   0.00000
           Y            0.84983   0.52705   0.00000
           Z           -0.00000   0.00000   1.00000
 This molecule is an asymmetric top.
 Rotational symmetry number  1.
 Rotational temperatures (Kelvin)     12.18496     0.51170     0.49108
 Rotational constants (GHZ):         253.89357    10.66207    10.23237
 Zero-point vibrational energy      74939.4 (Joules/Mol)
                                   17.91095 (Kcal/Mol)
 Warning -- explicit consideration of   2 degrees of freedom as
           vibrations may cause significant error
 Vibrational temperatures:    518.44   634.84   940.36  1320.12  1450.84
          (Kelvin)           1962.25  2080.52  4497.62  4621.27
 
 Zero-point correction=                           0.028543 (Hartree/Particle)
 Thermal correction to Energy=                    0.032231
 Thermal correction to Enthalpy=                  0.033175
 Thermal correction to Gibbs Free Energy=         0.003919
 Sum of electronic and zero-point Energies=           -115.300609
 Sum of electronic and thermal Energies=              -115.296921
 Sum of electronic and thermal Enthalpies=            -115.295977
 Sum of electronic and thermal Free Energies=         -115.325232
 
                     E (Thermal)             CV                S
                      KCal/Mol        Cal/Mol-Kelvin    Cal/Mol-Kelvin
 Total                   20.225             10.871             61.574
 Electronic               0.000              0.000              2.183
 Translational            0.889              2.981             36.835
 Rotational               0.889              2.981             19.990
 Vibrational             18.448              4.910              2.566
 Vibration     1          0.735              1.554              1.121
 Vibration     2          0.801              1.380              0.823
                       Q            Log10(Q)             Ln(Q)
 Total Bot       0.157540D-01         -1.802610         -4.150662
 Total V=0       0.211931D+12         11.326194         26.079526
 Vib (Bot)       0.109304D-12        -12.961364        -29.844643
 Vib (Bot)    1  0.508554D+00         -0.293663         -0.676184
 Vib (Bot)    2  0.391404D+00         -0.407375         -0.938015
 Vib (V=0)       0.147042D+01          0.167440          0.385545
 Vib (V=0)    1  0.121318D+01          0.083926          0.193246
 Vib (V=0)    2  0.113498D+01          0.054987          0.126613
 Electronic      0.300000D+01          0.477121          1.098612
 Translational   0.921295D+07          6.964399         16.036121
 Rotational      0.521476D+04          3.717234          8.559248
 
                                                              b3lyp opt
                                                             IR Spectrum
 
     3   3                                                                 1   1             1                                       
     2   1                                                                 4   3             0  9          6       4  3              
     1   2                                                                 4   6             0  1          5       4  6              
     2   6                                                                 6   4             8  8          4       1  0              
 
     X   X                                                                 X   X             X  X          X       X  X              
                                                                           X   X             X  X          X                         
                                                                           X   X             X  X          X                         
                                                                           X   X             X  X                                    
                                                                           X   X             X  X                                    
                                                                           X   X             X  X                                    
                                                                           X   X             X  X                                    
                                                                           X   X             X  X                                    
                                                                           X   X             X                                       
                                                                           X   X             X                                       
                                                                           X   X             X                                       
                                                                           X   X             X                                       
                                                                           X   X                                                     
                                                                           X   X                                                     
                                                                           X   X                                                     
                                                                           X                                                         
                                                                           X                                                         
                                                                           X                                                         
                                                                           X                                                         
                                                                           X                                                         
 
 ***** Axes restored to original set *****
 -------------------------------------------------------------------
 Center     Atomic                   Forces (Hartrees/Bohr)
 Number     Number              X              Y              Z
 -------------------------------------------------------------------
      1        6          -0.000172060    0.000007406   -0.000000000
      2        6           0.000207691   -0.000054937   -0.000000000
      3        6           0.000032858    0.000063018   -0.000000000
      4        1          -0.000045556   -0.000023169   -0.000000000
      5        1          -0.000022934    0.000007682   -0.000000000
 -------------------------------------------------------------------
 Cartesian Forces:  Max     0.000207691 RMS     0.000074860
 Force constants in Cartesian coordinates: 
                1             2             3             4             5 
      1  0.322651D+00
      2  0.442712D-01  0.213710D-01
      3  0.000000D+00  0.000000D+00  0.152667D-01
      4 -0.229605D+00 -0.393981D-01  0.000000D+00  0.601352D+00
      5 -0.534466D-01 -0.395567D-01  0.000000D+00  0.459756D-02  0.110761D+00
      6  0.000000D+00  0.000000D+00 -0.278791D-01  0.000000D+00  0.000000D+00
      7 -0.940827D-01 -0.500565D-02  0.000000D+00 -0.330592D+00  0.446614D-01
      8  0.119998D-01  0.200442D-01  0.000000D+00  0.280905D-01 -0.771705D-01
      9  0.000000D+00  0.000000D+00  0.909540D-02  0.000000D+00  0.000000D+00
     10  0.530785D-03 -0.192862D-02  0.000000D+00 -0.173612D-01  0.252906D-01
     11 -0.598979D-02 -0.102138D-02  0.000000D+00  0.682599D-02  0.831898D-03
     12  0.000000D+00  0.000000D+00 -0.101093D-02  0.000000D+00  0.000000D+00
     13  0.506260D-03  0.206116D-02  0.000000D+00 -0.237933D-01 -0.211030D-01
     14  0.316537D-02 -0.837155D-03  0.000000D+00 -0.115932D-03  0.513414D-02
     15  0.000000D+00  0.000000D+00  0.452795D-02  0.000000D+00  0.000000D+00
                6             7             8             9            10 
      6  0.550471D-01
      7  0.000000D+00  0.663463D+00
      8  0.000000D+00 -0.112452D-01  0.571115D+00
      9 -0.306088D-01  0.000000D+00  0.000000D+00  0.531369D-01
     10  0.000000D+00 -0.927337D-01  0.111926D+00  0.000000D+00  0.100072D+00
     11  0.000000D+00  0.107998D+00 -0.285130D+00  0.000000D+00 -0.119210D+00
     12  0.684158D-02  0.000000D+00  0.000000D+00 -0.175918D-01  0.000000D+00
     13  0.000000D+00 -0.146054D+00 -0.140771D+00  0.000000D+00  0.949220D-02
     14  0.000000D+00 -0.136409D+00 -0.228858D+00  0.000000D+00 -0.160775D-01
     15 -0.340076D-02  0.000000D+00  0.000000D+00 -0.140317D-01  0.000000D+00
               11            12            13            14            15 
     11  0.300580D+00
     12  0.000000D+00  0.611074D-02
     13  0.103756D-01  0.000000D+00  0.159849D+00
     14 -0.152599D-01  0.000000D+00  0.149437D+00  0.239821D+00
     15  0.000000D+00  0.565046D-02  0.000000D+00  0.000000D+00  0.725400D-02
 FormGI is forming the generalized inverse of G from B-inverse, IUseBI=4.
 Force constants in internal coordinates: 
                1             2             3             4             5 
      1  0.329058D+00
      2  0.934836D-01  0.469322D+00
      3 -0.566014D-02  0.893487D-02  0.356081D+00
      4 -0.285073D-02  0.105301D-01  0.241708D-02  0.354510D+00
      5  0.231607D-02  0.161868D-01 -0.172072D-02  0.378325D-03  0.878849D-01
      6  0.256287D-02  0.113626D-01  0.802403D-02 -0.139160D-01 -0.100020D-01
      7 -0.189415D-03  0.128538D-01 -0.128821D-01  0.955478D-02  0.107923D-01
      8 -0.237346D-02 -0.242164D-01  0.485806D-02  0.436121D-02 -0.790227D-03
      9  0.000000D+00  0.000000D+00  0.000000D+00  0.000000D+00  0.000000D+00
     10  0.000000D+00  0.000000D+00  0.000000D+00  0.000000D+00  0.000000D+00
     11  0.000000D+00  0.000000D+00  0.000000D+00  0.000000D+00  0.000000D+00
                6             7             8             9            10 
      6  0.611329D-01
      7 -0.300460D-01  0.620479D-01
      8 -0.310868D-01 -0.320019D-01  0.630887D-01
      9  0.000000D+00  0.000000D+00  0.000000D+00  0.310698D-02
     10  0.000000D+00  0.000000D+00  0.000000D+00 -0.638867D-03  0.448299D-02
     11  0.000000D+00  0.000000D+00  0.000000D+00 -0.368146D-02  0.503383D-02
               11 
     11  0.856550D-02
 Leave Link  716 at Tue Nov 22 17:44:17 2016, MaxMem=  1835008000 cpu:         0.3
 (Enter /usr/local/gaussian/gaussian09/g09/l103.exe)

 GradGradGradGradGradGradGradGradGradGradGradGradGradGradGradGradGradGrad
 Berny optimization.
 Red2BG is reusing G-inverse.
 Internal  Forces:  Max     0.000169559 RMS     0.000060754
 Search for a local minimum.
 Step number   1 out of a maximum of    2
 All quantities printed in internal units (Hartrees-Bohrs-Radians)
 Second derivative matrix not updated -- analytic derivatives used.
 The second derivative matrix:
                          R1        R2        R3        R4        A1
           R1           0.32906
           R2           0.09348   0.46932
           R3          -0.00566   0.00893   0.35608
           R4          -0.00285   0.01053   0.00242   0.35451
           A1           0.00232   0.01619  -0.00172   0.00038   0.08788
           A2           0.00256   0.01136   0.00802  -0.01392  -0.01000
           A3          -0.00019   0.01285  -0.01288   0.00955   0.01079
           A4          -0.00237  -0.02422   0.00486   0.00436  -0.00079
           D1          -0.00000  -0.00000  -0.00000  -0.00000   0.00000
           D2           0.00000  -0.00000   0.00000   0.00000   0.00000
           D3           0.00000  -0.00000   0.00000   0.00000   0.00000
                          A2        A3        A4        D1        D2
           A2           0.06113
           A3          -0.03005   0.06205
           A4          -0.03109  -0.03200   0.06309
           D1          -0.00000   0.00000   0.00000   0.00311
           D2           0.00000   0.00000  -0.00000  -0.00064   0.00448
           D3           0.00000   0.00000  -0.00000  -0.00368   0.00503
                          D3
           D3           0.00857
 ITU=  0
     Eigenvalues ---    0.00302   0.01314   0.07389   0.09191   0.10296
     Eigenvalues ---    0.28150   0.35456   0.35931   0.51899
 Angle between quadratic step and forces=  30.50 degrees.
 Linear search not attempted -- first point.
 Iteration  1 RMS(Cart)=  0.00034633 RMS(Int)=  0.00000011
 Iteration  2 RMS(Cart)=  0.00000013 RMS(Int)=  0.00000000
 ITry= 1 IFail=0 DXMaxC= 6.96D-04 DCOld= 1.00D+10 DXMaxT= 3.00D-01 DXLimC= 3.00D+00 Rises=F
 ClnCor:  largest displacement from symmetrization is 3.31D-11 for atom     3.
 Variable       Old X    -DE/DX   Delta X   Delta X   Delta X     New X
                                 (Linear)    (Quad)   (Total)
    R1        2.42969  -0.00017   0.00000  -0.00057  -0.00057   2.42912
    R2        2.53877   0.00004   0.00000   0.00019   0.00019   2.53897
    R3        2.04474  -0.00000   0.00000  -0.00002  -0.00002   2.04472
    R4        2.04639   0.00001   0.00000   0.00003   0.00003   2.04642
    A1        2.87349  -0.00007   0.00000  -0.00079  -0.00079   2.87270
    A2        2.12323   0.00005   0.00000   0.00045   0.00045   2.12368
    A3        2.09550   0.00000   0.00000   0.00006   0.00006   2.09556
    A4        2.06445  -0.00005   0.00000  -0.00051  -0.00051   2.06394
    D1        0.00000  -0.00000   0.00000   0.00000   0.00000   0.00000
    D2        3.14159  -0.00000   0.00000   0.00000   0.00000   3.14159
    D3        3.14159   0.00000   0.00000   0.00000   0.00000   3.14159
         Item               Value     Threshold  Converged?
 Maximum Force            0.000170     0.000450     YES
 RMS     Force            0.000061     0.000300     YES
 Maximum Displacement     0.000696     0.001800     YES
 RMS     Displacement     0.000346     0.001200     YES
 Predicted change in Energy=-1.046800D-07
 Optimization completed.
    -- Stationary point found.
                           ----------------------------
                           !   Optimized Parameters   !
                           ! (Angstroms and Degrees)  !
 --------------------------                            --------------------------
 ! Name  Definition              Value          Derivative Info.                !
 --------------------------------------------------------------------------------
 ! R1    R(1,2)                  1.2857         -DE/DX =   -0.0002              !
 ! R2    R(2,3)                  1.3435         -DE/DX =    0.0                 !
 ! R3    R(3,4)                  1.082          -DE/DX =    0.0                 !
 ! R4    R(3,5)                  1.0829         -DE/DX =    0.0                 !
 ! A1    A(1,2,3)              164.6391         -DE/DX =   -0.0001              !
 ! A2    A(2,3,4)              121.6521         -DE/DX =    0.0                 !
 ! A3    A(2,3,5)              120.0634         -DE/DX =    0.0                 !
 ! A4    A(4,3,5)              118.2844         -DE/DX =   -0.0001              !
 ! D1    D(1,2,3,4)              0.0            -DE/DX =    0.0                 !
 ! D2    D(1,2,3,5)            180.0            -DE/DX =    0.0                 !
 ! D3    D(2,3,4,5)            180.0            -DE/DX =    0.0                 !
 --------------------------------------------------------------------------------
 GradGradGradGradGradGradGradGradGradGradGradGradGradGradGradGradGradGrad

 Leave Link  103 at Tue Nov 22 17:44:17 2016, MaxMem=  1835008000 cpu:         0.1
 (Enter /usr/local/gaussian/gaussian09/g09/l9999.exe)
 1\1\GINC-EINSTENIO\Freq\UB3LYP\6-311++G(3df,2p)\C3H2(3)\SERGIO\22-Nov-
 2016\0\\#P Geom=AllCheck Guess=TCheck SCRF=Check GenChk UB3LYP/6-311++
 G(3df,2p) Freq\\b3lyp opt\\0,3\C,1.479,0.060094,0.\C,0.207016,-0.12744
 7,0.\C,-1.126507,0.035667,0.\H,-1.578282,1.01887,0.\H,-1.778774,-0.828
 755,0.\\Version=EM64L-G09RevE.01\State=3-A"\HF=-115.3291515\S2=2.02830
 7\S2-1=0.\S2A=2.000302\RMSD=5.205e-10\RMSF=7.486e-05\ZeroPoint=0.02854
 29\Thermal=0.0322306\Dipole=-0.9591482,-0.2129235,0.\DipoleDeriv=-2.73
 22813,0.0876108,0.,-0.1178548,-0.1247981,0.,0.,0.,-0.1325221,2.9137665
 ,-0.0686004,0.,-0.1482677,-0.0997255,0.,0.,0.,0.0357515,-0.4089785,0.0
 136631,0.,0.297748,0.1088114,0.,0.,0.,-0.2588324,0.0754436,-0.0299056,
 0.,-0.0447075,0.0613057,0.,0.,0.,0.1102545,0.1520497,-0.0027679,0.,0.0
 13082,0.0544065,0.,0.,0.,0.2453486\Polar=83.9087189,2.3064643,26.86042
 14,0.0000008,0.,27.1314878\PG=CS [SG(C3H2)]\NImag=0\\0.32265079,0.0442
 7119,0.02137103,0.,0.,0.01526672,-0.22960509,-0.03939808,0.,0.60135205
 ,-0.05344656,-0.03955666,0.,0.00459756,0.11076110,0.,0.,-0.02787914,0.
 ,0.,0.05504712,-0.09408274,-0.00500565,0.,-0.33059243,0.04466139,0.,0.
 66346267,0.01199978,0.02004416,0.,0.02809046,-0.07717048,0.,-0.0112451
 6,0.57111480,0.,0.,0.00909540,0.,0.,-0.03060880,0.,0.,0.05313689,0.000
 53078,-0.00192862,0.,-0.01736120,0.02529064,0.,-0.09273365,0.11192555,
 0.,0.10007187,-0.00598979,-0.00102138,0.,0.00682599,0.00083190,0.,0.10
 799832,-0.28513033,0.,-0.11921008,0.30057967,0.,0.,-0.00101093,0.,0.,0
 .00684158,0.,0.,-0.01759184,0.,0.,0.00611074,0.00050626,0.00206116,0.,
 -0.02379332,-0.02110303,0.,-0.14605384,-0.14077063,0.,0.00949220,0.010
 37555,0.,0.15984870,0.00316537,-0.00083716,0.,-0.00011593,0.00513414,0
 .,-0.13640890,-0.22885814,0.,-0.01607749,-0.01525986,0.,0.14943695,0.2
 3982101,0.,0.,0.00452795,0.,0.,-0.00340076,0.,0.,-0.01403165,0.,0.,0.0
 0565046,0.,0.,0.00725400\\0.00017206,-0.00000741,0.,-0.00020769,0.0000
 5494,0.,-0.00003286,-0.00006302,0.,0.00004556,0.00002317,0.,0.00002293
 ,-0.00000768,0.\\\@


 PICNIC:  A SNACK IN THE GRASS.
 Job cpu time:       0 days  0 hours  7 minutes 59.0 seconds.
 File lengths (MBytes):  RWF=     20 Int=      0 D2E=      0 Chk=      3 Scr=      1
 Normal termination of Gaussian 09 at Tue Nov 22 17:44:17 2016.
