 Entering Gaussian System, Link 0=g09
 Initial command:
 /apl/tryton/gaussian/09/d01/g09/l1.exe "/users/work/eerd/M3C-outputs/ionized/4/Gau-425.inp" -scrdir="/users/work/eerd/M3C-outputs/ionized/4/"
 Entering Link 1 = /apl/tryton/gaussian/09/d01/g09/l1.exe PID=       426.
  
 Copyright (c) 1988,1990,1992,1993,1995,1998,2003,2009,2013,
            Gaussian, Inc.  All Rights Reserved.
  
 This is part of the Gaussian(R) 09 program.  It is based on
 the Gaussian(R) 03 system (copyright 2003, Gaussian, Inc.),
 the Gaussian(R) 98 system (copyright 1998, Gaussian, Inc.),
 the Gaussian(R) 94 system (copyright 1995, Gaussian, Inc.),
 the Gaussian 92(TM) system (copyright 1992, Gaussian, Inc.),
 the Gaussian 90(TM) system (copyright 1990, Gaussian, Inc.),
 the Gaussian 88(TM) system (copyright 1988, Gaussian, Inc.),
 the Gaussian 86(TM) system (copyright 1986, Carnegie Mellon
 University), and the Gaussian 82(TM) system (copyright 1983,
 Carnegie Mellon University). Gaussian is a federally registered
 trademark of Gaussian, Inc.
  
 This software contains proprietary and confidential information,
 including trade secrets, belonging to Gaussian, Inc.
  
 This software is provided under written license and may be
 used, copied, transmitted, or stored only in accord with that
 written license.
  
 The following legend is applicable only to US Government
 contracts under FAR:
  
                    RESTRICTED RIGHTS LEGEND
  
 Use, reproduction and disclosure by the US Government is
 subject to restrictions as set forth in subparagraphs (a)
 and (c) of the Commercial Computer Software - Restricted
 Rights clause in FAR 52.227-19.
  
 Gaussian, Inc.
 340 Quinnipiac St., Bldg. 40, Wallingford CT 06492
  
  
 ---------------------------------------------------------------
 Warning -- This program may not be used in any manner that
 competes with the business of Gaussian, Inc. or will provide
 assistance to any competitor of Gaussian, Inc.  The licensee
 of this program is prohibited from giving any competitor of
 Gaussian, Inc. access to this program.  By using this program,
 the user acknowledges that Gaussian, Inc. is engaged in the
 business of creating and licensing software in the field of
 computational chemistry and represents and warrants to the
 licensee that it is not a competitor of Gaussian, Inc. and that
 it will not use this program in any manner prohibited above.
 ---------------------------------------------------------------
  

 Cite this work as:
 Gaussian 09, Revision D.01,
 M. J. Frisch, G. W. Trucks, H. B. Schlegel, G. E. Scuseria, 
 M. A. Robb, J. R. Cheeseman, G. Scalmani, V. Barone, B. Mennucci, 
 G. A. Petersson, H. Nakatsuji, M. Caricato, X. Li, H. P. Hratchian, 
 A. F. Izmaylov, J. Bloino, G. Zheng, J. L. Sonnenberg, M. Hada, 
 M. Ehara, K. Toyota, R. Fukuda, J. Hasegawa, M. Ishida, T. Nakajima, 
 Y. Honda, O. Kitao, H. Nakai, T. Vreven, J. A. Montgomery, Jr., 
 J. E. Peralta, F. Ogliaro, M. Bearpark, J. J. Heyd, E. Brothers, 
 K. N. Kudin, V. N. Staroverov, T. Keith, R. Kobayashi, J. Normand, 
 K. Raghavachari, A. Rendell, J. C. Burant, S. S. Iyengar, J. Tomasi, 
 M. Cossi, N. Rega, J. M. Millam, M. Klene, J. E. Knox, J. B. Cross, 
 V. Bakken, C. Adamo, J. Jaramillo, R. Gomperts, R. E. Stratmann, 
 O. Yazyev, A. J. Austin, R. Cammi, C. Pomelli, J. W. Ochterski, 
 R. L. Martin, K. Morokuma, V. G. Zakrzewski, G. A. Voth, 
 P. Salvador, J. J. Dannenberg, S. Dapprich, A. D. Daniels, 
 O. Farkas, J. B. Foresman, J. V. Ortiz, J. Cioslowski, 
 and D. J. Fox, Gaussian, Inc., Wallingford CT, 2013.
 
 ******************************************
 Gaussian 09:  ES64L-G09RevD.01 24-Apr-2013
                24-Jan-2019 
 ******************************************
 ---------------------------
 #p b3lyp/6-311++g(d,p) freq
 ---------------------------
 1/10=4,30=1,38=1/1,3;
 2/12=2,17=6,18=5,40=1/2;
 3/5=4,6=6,7=1111,11=2,16=1,25=1,30=1,71=2,74=-5,140=1/1,2,3;
 4//1;
 5/5=2,38=5,98=1/2;
 8/6=4,10=90,11=11/1;
 11/6=1,8=1,9=11,15=111,16=1/1,2,10;
 10/6=1/2;
 6/7=2,8=2,9=2,10=2,18=1,28=1/1;
 7/8=1,10=1,25=1/1,2,3,16;
 1/10=4,30=1/3;
 99//99;
 Leave Link    1 at Thu Jan 24 15:32:59 2019, MaxMem=           0 cpu:         0.0
 (Enter /apl/tryton/gaussian/09/d01/g09/l101.exe)
 ---
 min
 ---
 Symbolic Z-matrix:
 Charge =  1 Multiplicity = 2
 C                     1.62663  -0.99406  -0.21358 
 C                     0.65439  -0.30995  -0.06709 
 C                    -1.36181   1.10858   0.23708 
 O                    -0.40666   0.43659   0.09293 
 
 NAtoms=      4 NQM=        4 NQMF=       0 NMMI=      0 NMMIF=      0
                NMic=       0 NMicF=      0.
                    Isotopes and Nuclear Properties:
 (Nuclear quadrupole moments (NQMom) in fm**2, nuclear magnetic moments (NMagM)
  in nuclear magnetons)

  Atom         1           2           3           4
 IAtWgt=          12          12          12          16
 AtmWgt=  12.0000000  12.0000000  12.0000000  15.9949146
 NucSpn=           0           0           0           0
 AtZEff=   0.0000000   0.0000000   0.0000000   0.0000000
 NQMom=    0.0000000   0.0000000   0.0000000   0.0000000
 NMagM=    0.0000000   0.0000000   0.0000000   0.0000000
 AtZNuc=   6.0000000   6.0000000   6.0000000   8.0000000
 Leave Link  101 at Thu Jan 24 15:32:59 2019, MaxMem=    33554432 cpu:         0.1
 (Enter /apl/tryton/gaussian/09/d01/g09/l103.exe)

 GradGradGradGradGradGradGradGradGradGradGradGradGradGradGradGradGradGrad
 Berny optimization.
 Initialization pass.
 Trust Radius=3.00D-01 FncErr=1.00D-07 GrdErr=1.00D-07
 Number of steps in this run=      2 maximum allowed number of steps=      2.
 GradGradGradGradGradGradGradGradGradGradGradGradGradGradGradGradGradGrad

 Leave Link  103 at Thu Jan 24 15:32:59 2019, MaxMem=    33554432 cpu:         0.0
 (Enter /apl/tryton/gaussian/09/d01/g09/l202.exe)
                          Input orientation:                          
 ---------------------------------------------------------------------
 Center     Atomic      Atomic             Coordinates (Angstroms)
 Number     Number       Type             X           Y           Z
 ---------------------------------------------------------------------
      1          6           0        1.626629   -0.994061   -0.213578
      2          6           0        0.654391   -0.309946   -0.067089
      3          6           0       -1.361812    1.108584    0.237079
      4          8           0       -0.406661    0.436586    0.092927
 ---------------------------------------------------------------------
                    Distance matrix (angstroms):
                    1          2          3          4
     1  C    0.000000
     2  C    1.197798   0.000000
     3  C    3.681710   2.483912   0.000000
     4  O    2.504988   1.307190   1.176722   0.000000
 Stoichiometry    C3O(1+,2)
 Framework group  C*V[C*(COCC)]
 Deg. of freedom     3
 Full point group                 C*V     NOp   4
 Largest Abelian subgroup         C2V     NOp   4
 Largest concise Abelian subgroup C1      NOp   1
                         Standard orientation:                         
 ---------------------------------------------------------------------
 Center     Atomic      Atomic             Coordinates (Angstroms)
 Number     Number       Type             X           Y           Z
 ---------------------------------------------------------------------
      1          6           0       -0.000000    0.000000    1.896806
      2          6           0       -0.000000    0.000000    0.699008
      3          6           0        0.000000   -0.000000   -1.784904
      4          8           0        0.000000   -0.000000   -0.608182
 ---------------------------------------------------------------------
 Rotational constants (GHZ):      0.0000000      5.4234123      5.4234123
 Leave Link  202 at Thu Jan 24 15:32:59 2019, MaxMem=    33554432 cpu:         0.0
 (Enter /apl/tryton/gaussian/09/d01/g09/l301.exe)
 Standard basis: 6-311++G(d,p) (5D, 7F)
 Ernie: Thresh=  0.10000D-02 Tol=  0.10000D-05 Strict=F.
 There are    48 symmetry adapted cartesian basis functions of A1  symmetry.
 There are     4 symmetry adapted cartesian basis functions of A2  symmetry.
 There are    20 symmetry adapted cartesian basis functions of B1  symmetry.
 There are    20 symmetry adapted cartesian basis functions of B2  symmetry.
 There are    44 symmetry adapted basis functions of A1  symmetry.
 There are     4 symmetry adapted basis functions of A2  symmetry.
 There are    20 symmetry adapted basis functions of B1  symmetry.
 There are    20 symmetry adapted basis functions of B2  symmetry.
    88 basis functions,   144 primitive gaussians,    92 cartesian basis functions
    13 alpha electrons       12 beta electrons
       nuclear repulsion energy        79.9055072990 Hartrees.
 IExCor=  402 DFT=T Ex+Corr=B3LYP ExCW=0 ScaHFX=  0.200000
 ScaDFX=  0.800000  0.720000  1.000000  0.810000 ScalE2=  1.000000  1.000000
 IRadAn=      0 IRanWt=     -1 IRanGd=            0 ICorTp=0 IEmpDi=  4
 NAtoms=    4 NActive=    4 NUniq=    4 SFac= 1.00D+00 NAtFMM=   60 NAOKFM=F Big=F
 Integral buffers will be    131072 words long.
 Raffenetti 2 integral format.
 Two-electron integral symmetry is turned on.
 Leave Link  301 at Thu Jan 24 15:32:59 2019, MaxMem=    33554432 cpu:         0.0
 (Enter /apl/tryton/gaussian/09/d01/g09/l302.exe)
 NPDir=0 NMtPBC=     1 NCelOv=     1 NCel=       1 NClECP=     1 NCelD=      1
         NCelK=      1 NCelE2=     1 NClLst=     1 CellRange=     0.0.
 One-electron integrals computed using PRISM.
 NBasis=    88 RedAO= T EigKep=  2.03D-05  NBF=    44     4    20    20
 NBsUse=    88 1.00D-06 EigRej= -1.00D+00 NBFU=    44     4    20    20
 Precomputing XC quadrature grid using
 IXCGrd= 4 IRadAn=           0 IRanWt=          -1 IRanGd=           0 AccXCQ= 0.00D+00.
 Generated NRdTot=       0 NPtTot=           0 NUsed=           0 NTot=          32
 NSgBfM=    92    92    92    92    92 MxSgAt=     4 MxSgA2=     4.
 Leave Link  302 at Thu Jan 24 15:33:00 2019, MaxMem=    33554432 cpu:         0.1
 (Enter /apl/tryton/gaussian/09/d01/g09/l303.exe)
 DipDrv:  MaxL=1.
 Leave Link  303 at Thu Jan 24 15:33:00 2019, MaxMem=    33554432 cpu:         0.0
 (Enter /apl/tryton/gaussian/09/d01/g09/l401.exe)
 ExpMin= 4.38D-02 ExpMax= 8.59D+03 ExpMxC= 1.30D+03 IAcc=2 IRadAn=         4 AccDes= 0.00D+00
 Harris functional with IExCor=  402 and IRadAn=       4 diagonalized for initial guess.
 HarFok:  IExCor=  402 AccDes= 0.00D+00 IRadAn=         4 IDoV= 1 UseB2=F ITyADJ=14
 ICtDFT=  3500011 ScaDFX=  1.000000  1.000000  1.000000  1.000000
 FoFCou: FMM=F IPFlag=           0 FMFlag=      100000 FMFlg1=           0
         NFxFlg=           0 DoJE=T BraDBF=F KetDBF=T FulRan=T
         wScrn=  0.000000 ICntrl=     500 IOpCl=  0 I1Cent=   200000004 NGrid=           0
         NMat0=    1 NMatS0=      1 NMatT0=    0 NMatD0=    1 NMtDS0=    0 NMtDT0=    0
 Petite list used in FoFCou.
 Harris En= -189.018201401440    
 JPrj=0 DoOrth=F DoCkMO=F.
 Initial guess orbital symmetries:
 Alpha Orbitals:
       Occupied  (SG) (SG) (SG) (SG) (SG) (SG) (SG) (PI) (PI) (SG)
                 (PI) (PI) (SG)
       Virtual   (PI) (PI) (SG) (PI) (PI) (SG) (PI) (PI) (SG) (SG)
                 (PI) (PI) (SG) (PI) (PI) (SG) (SG) (SG) (PI) (PI)
                 (SG) (SG) (SG) (PI) (PI) (PI) (PI) (SG) (PI) (PI)
                 (SG) (SG) (SG) (SG) (PI) (PI) (SG) (DLTA) (DLTA)
                 (PI) (PI) (DLTA) (DLTA) (SG) (DLTA) (DLTA) (PI)
                 (PI) (SG) (SG) (SG) (PI) (PI) (PI) (PI) (SG) (PI)
                 (PI) (DLTA) (DLTA) (PI) (PI) (SG) (SG) (PI) (PI)
                 (SG) (SG) (PI) (PI) (SG) (SG) (SG) (SG) (SG)
 Beta  Orbitals:
       Occupied  (SG) (SG) (SG) (SG) (SG) (SG) (SG) (PI) (PI) (SG)
                 (PI) (PI)
       Virtual   (SG) (PI) (PI) (SG) (PI) (PI) (SG) (PI) (PI) (SG)
                 (SG) (PI) (PI) (SG) (PI) (PI) (SG) (SG) (SG) (PI)
                 (PI) (SG) (SG) (SG) (PI) (PI) (PI) (PI) (SG) (PI)
                 (PI) (SG) (SG) (SG) (SG) (PI) (PI) (SG) (DLTA)
                 (DLTA) (PI) (PI) (DLTA) (DLTA) (SG) (DLTA) (DLTA)
                 (PI) (PI) (SG) (SG) (SG) (PI) (PI) (PI) (PI) (SG)
                 (PI) (PI) (DLTA) (DLTA) (PI) (PI) (SG) (SG) (PI)
                 (PI) (SG) (SG) (PI) (PI) (SG) (SG) (SG) (SG) (SG)
 The electronic state of the initial guess is 2-SG.
 Initial guess <Sx>= 0.0000 <Sy>= 0.0000 <Sz>= 0.5000 <S**2>= 0.7500 S= 0.5000
 Leave Link  401 at Thu Jan 24 15:33:00 2019, MaxMem=    33554432 cpu:         0.2
 (Enter /apl/tryton/gaussian/09/d01/g09/l502.exe)
 UHF open shell SCF:
 Using DIIS extrapolation, IDIIS=  1040.
 Integral symmetry usage will be decided dynamically.
 Keep R1 and R2 ints in memory in symmetry-blocked form, NReq=9823382.
 IVT=       45250 IEndB=       45250 NGot=    33554432 MDV=    29302979
 LenX=    29302979 LenY=    29294074
 Requested convergence on RMS density matrix=1.00D-08 within 128 cycles.
 Requested convergence on MAX density matrix=1.00D-06.
 Requested convergence on             energy=1.00D-06.
 No special actions if energy rises.
 FoFCou: FMM=F IPFlag=           0 FMFlag=           0 FMFlg1=           0
         NFxFlg=           0 DoJE=F BraDBF=F KetDBF=F FulRan=T
         wScrn=  0.000000 ICntrl=     600 IOpCl=  0 I1Cent=           0 NGrid=           0
         NMat0=    1 NMatS0=   3916 NMatT0=    0 NMatD0=    1 NMtDS0=    0 NMtDT0=    0
 Petite list used in FoFCou.

 Cycle   1  Pass 1  IDiag  1:
 E= -188.826084295468    
 DIIS: error= 3.54D-02 at cycle   1 NSaved=   1.
 NSaved= 1 IEnMin= 1 EnMin= -188.826084295468     IErMin= 1 ErrMin= 3.54D-02
 ErrMax= 3.54D-02  0.00D+00 EMaxC= 1.00D-01 BMatC= 2.71D-01 BMatP= 2.71D-01
 IDIUse=3 WtCom= 6.46D-01 WtEn= 3.54D-01
 Coeff-Com:  0.100D+01
 Coeff-En:   0.100D+01
 Coeff:      0.100D+01
 Gap=     0.112 Goal=   None    Shift=    0.000
 Gap=     0.104 Goal=   None    Shift=    0.000
 GapD=    0.104 DampG=1.000 DampE=0.500 DampFc=0.5000 IDamp=-1.
 Damping current iteration by 5.00D-01
 RMSDP=1.25D-02 MaxDP=5.20D-01              OVMax= 4.77D-01

 Cycle   2  Pass 1  IDiag  1:
 E= -188.752645974303     Delta-E=        0.073438321165 Rises=F Damp=T
 DIIS: error= 4.66D-02 at cycle   2 NSaved=   2.
 NSaved= 2 IEnMin= 1 EnMin= -188.826084295468     IErMin= 1 ErrMin= 3.54D-02
 ErrMax= 4.66D-02  0.00D+00 EMaxC= 1.00D-01 BMatC= 2.09D-01 BMatP= 2.71D-01
 IDIUse=3 WtCom= 5.34D-01 WtEn= 4.66D-01
 Coeff-Com:  0.452D+00 0.548D+00
 Coeff-En:   0.713D+00 0.287D+00
 Coeff:      0.574D+00 0.426D+00
 Gap=     0.180 Goal=   None    Shift=    0.000
 Gap=     0.082 Goal=   None    Shift=    0.000
 RMSDP=6.28D-03 MaxDP=2.95D-01 DE= 7.34D-02 OVMax= 3.88D-01

 Cycle   3  Pass 1  IDiag  1:
 E= -188.896235420902     Delta-E=       -0.143589446599 Rises=F Damp=F
 DIIS: error= 1.05D-02 at cycle   3 NSaved=   3.
 NSaved= 3 IEnMin= 3 EnMin= -188.896235420902     IErMin= 3 ErrMin= 1.05D-02
 ErrMax= 1.05D-02  0.00D+00 EMaxC= 1.00D-01 BMatC= 3.61D-02 BMatP= 2.09D-01
 IDIUse=3 WtCom= 8.95D-01 WtEn= 1.05D-01
 Coeff-Com:  0.156D+00 0.201D+00 0.643D+00
 Coeff-En:   0.000D+00 0.000D+00 0.100D+01
 Coeff:      0.140D+00 0.180D+00 0.680D+00
 Gap=     0.219 Goal=   None    Shift=    0.000
 Gap=     0.111 Goal=   None    Shift=    0.000
 RMSDP=2.96D-03 MaxDP=1.09D-01 DE=-1.44D-01 OVMax= 5.09D-02

 Cycle   4  Pass 1  IDiag  1:
 E= -188.893511970523     Delta-E=        0.002723450379 Rises=F Damp=F
 DIIS: error= 1.87D-02 at cycle   4 NSaved=   4.
 NSaved= 4 IEnMin= 3 EnMin= -188.896235420902     IErMin= 3 ErrMin= 1.05D-02
 ErrMax= 1.87D-02  0.00D+00 EMaxC= 1.00D-01 BMatC= 5.83D-02 BMatP= 3.61D-02
 IDIUse=2 WtCom= 0.00D+00 WtEn= 1.00D+00
 Coeff-En:   0.000D+00 0.000D+00 0.558D+00 0.442D+00
 Coeff:      0.000D+00 0.000D+00 0.558D+00 0.442D+00
 Gap=     0.208 Goal=   None    Shift=    0.000
 Gap=     0.133 Goal=   None    Shift=    0.000
 RMSDP=1.23D-03 MaxDP=3.26D-02 DE= 2.72D-03 OVMax= 4.83D-02

 Cycle   5  Pass 1  IDiag  1:
 E= -188.901881300658     Delta-E=       -0.008369330135 Rises=F Damp=F
 DIIS: error= 8.32D-03 at cycle   5 NSaved=   5.
 NSaved= 5 IEnMin= 5 EnMin= -188.901881300658     IErMin= 5 ErrMin= 8.32D-03
 ErrMax= 8.32D-03  0.00D+00 EMaxC= 1.00D-01 BMatC= 8.44D-03 BMatP= 3.61D-02
 IDIUse=3 WtCom= 9.17D-01 WtEn= 8.32D-02
 EnCoef did     4 forward-backward iterations
 Coeff-Com:  0.287D-01-0.584D-02 0.337D+00 0.253D+00 0.387D+00
 Coeff-En:   0.000D+00 0.000D+00 0.196D+00 0.162D+00 0.641D+00
 Coeff:      0.263D-01-0.535D-02 0.325D+00 0.246D+00 0.408D+00
 Gap=     0.220 Goal=   None    Shift=    0.000
 Gap=     0.124 Goal=   None    Shift=    0.000
 RMSDP=6.70D-04 MaxDP=1.94D-02 DE=-8.37D-03 OVMax= 3.09D-02

 Cycle   6  Pass 1  IDiag  1:
 E= -188.904520402012     Delta-E=       -0.002639101354 Rises=F Damp=F
 DIIS: error= 1.87D-03 at cycle   6 NSaved=   6.
 NSaved= 6 IEnMin= 6 EnMin= -188.904520402012     IErMin= 6 ErrMin= 1.87D-03
 ErrMax= 1.87D-03  0.00D+00 EMaxC= 1.00D-01 BMatC= 6.32D-04 BMatP= 8.44D-03
 IDIUse=3 WtCom= 9.81D-01 WtEn= 1.87D-02
 Coeff-Com:  0.105D-01-0.327D-01 0.707D-01 0.468D-01 0.310D+00 0.595D+00
 Coeff-En:   0.000D+00 0.000D+00 0.000D+00 0.000D+00 0.000D+00 0.100D+01
 Coeff:      0.103D-01-0.321D-01 0.694D-01 0.459D-01 0.304D+00 0.602D+00
 Gap=     0.220 Goal=   None    Shift=    0.000
 Gap=     0.127 Goal=   None    Shift=    0.000
 RMSDP=1.37D-04 MaxDP=2.73D-03 DE=-2.64D-03 OVMax= 1.07D-02

 Cycle   7  Pass 1  IDiag  1:
 E= -188.904718268283     Delta-E=       -0.000197866271 Rises=F Damp=F
 DIIS: error= 1.01D-03 at cycle   7 NSaved=   7.
 NSaved= 7 IEnMin= 7 EnMin= -188.904718268283     IErMin= 7 ErrMin= 1.01D-03
 ErrMax= 1.01D-03  0.00D+00 EMaxC= 1.00D-01 BMatC= 8.19D-05 BMatP= 6.32D-04
 IDIUse=3 WtCom= 9.90D-01 WtEn= 1.01D-02
 Coeff-Com:  0.341D-02-0.222D-02-0.423D-01-0.418D-01-0.120D+00-0.109D+00
 Coeff-Com:  0.131D+01
 Coeff-En:   0.000D+00 0.000D+00 0.000D+00 0.000D+00 0.000D+00 0.000D+00
 Coeff-En:   0.100D+01
 Coeff:      0.338D-02-0.220D-02-0.419D-01-0.414D-01-0.119D+00-0.108D+00
 Coeff:      0.131D+01
 Gap=     0.222 Goal=   None    Shift=    0.000
 Gap=     0.128 Goal=   None    Shift=    0.000
 RMSDP=1.71D-04 MaxDP=5.76D-03 DE=-1.98D-04 OVMax= 8.87D-03

 Cycle   8  Pass 1  IDiag  1:
 E= -188.904806025100     Delta-E=       -0.000087756817 Rises=F Damp=F
 DIIS: error= 2.93D-04 at cycle   8 NSaved=   8.
 NSaved= 8 IEnMin= 8 EnMin= -188.904806025100     IErMin= 8 ErrMin= 2.93D-04
 ErrMax= 2.93D-04  0.00D+00 EMaxC= 1.00D-01 BMatC= 1.25D-05 BMatP= 8.19D-05
 IDIUse=3 WtCom= 9.97D-01 WtEn= 2.93D-03
 Coeff-Com: -0.429D-02 0.106D-01-0.198D-01-0.748D-02-0.721D-01-0.214D+00
 Coeff-Com: -0.112D+00 0.142D+01
 Coeff-En:   0.000D+00 0.000D+00 0.000D+00 0.000D+00 0.000D+00 0.000D+00
 Coeff-En:   0.000D+00 0.100D+01
 Coeff:     -0.428D-02 0.106D-01-0.197D-01-0.746D-02-0.719D-01-0.213D+00
 Coeff:     -0.112D+00 0.142D+01
 Gap=     0.223 Goal=   None    Shift=    0.000
 Gap=     0.129 Goal=   None    Shift=    0.000
 RMSDP=1.02D-04 MaxDP=2.33D-03 DE=-8.78D-05 OVMax= 5.71D-03

 Cycle   9  Pass 1  IDiag  1:
 E= -188.904830661343     Delta-E=       -0.000024636242 Rises=F Damp=F
 DIIS: error= 2.09D-04 at cycle   9 NSaved=   9.
 NSaved= 9 IEnMin= 9 EnMin= -188.904830661343     IErMin= 9 ErrMin= 2.09D-04
 ErrMax= 2.09D-04  0.00D+00 EMaxC= 1.00D-01 BMatC= 2.95D-06 BMatP= 1.25D-05
 IDIUse=3 WtCom= 9.98D-01 WtEn= 2.09D-03
 Coeff-Com: -0.142D-02 0.181D-02-0.778D-04 0.569D-03 0.157D-01 0.168D-01
 Coeff-Com: -0.112D+00-0.757D-01 0.115D+01
 Coeff-En:   0.000D+00 0.000D+00 0.000D+00 0.000D+00 0.000D+00 0.000D+00
 Coeff-En:   0.000D+00 0.000D+00 0.100D+01
 Coeff:     -0.142D-02 0.181D-02-0.777D-04 0.567D-03 0.157D-01 0.168D-01
 Coeff:     -0.112D+00-0.755D-01 0.115D+01
 Gap=     0.223 Goal=   None    Shift=    0.000
 Gap=     0.129 Goal=   None    Shift=    0.000
 RMSDP=2.99D-05 MaxDP=1.07D-03 DE=-2.46D-05 OVMax= 1.74D-03

 Cycle  10  Pass 1  IDiag  1:
 E= -188.904832762562     Delta-E=       -0.000002101220 Rises=F Damp=F
 DIIS: error= 1.78D-05 at cycle  10 NSaved=  10.
 NSaved=10 IEnMin=10 EnMin= -188.904832762562     IErMin=10 ErrMin= 1.78D-05
 ErrMax= 1.78D-05  0.00D+00 EMaxC= 1.00D-01 BMatC= 4.47D-08 BMatP= 2.95D-06
 IDIUse=1 WtCom= 1.00D+00 WtEn= 0.00D+00
 Coeff-Com:  0.436D-04-0.204D-03 0.552D-03-0.207D-03 0.884D-03 0.102D-01
 Coeff-Com:  0.871D-02-0.707D-01-0.240D-01 0.107D+01
 Coeff:      0.436D-04-0.204D-03 0.552D-03-0.207D-03 0.884D-03 0.102D-01
 Coeff:      0.871D-02-0.707D-01-0.240D-01 0.107D+01
 Gap=     0.223 Goal=   None    Shift=    0.000
 Gap=     0.129 Goal=   None    Shift=    0.000
 RMSDP=5.25D-06 MaxDP=1.98D-04 DE=-2.10D-06 OVMax= 2.26D-04

 Cycle  11  Pass 1  IDiag  1:
 E= -188.904832807272     Delta-E=       -0.000000044710 Rises=F Damp=F
 DIIS: error= 5.38D-06 at cycle  11 NSaved=  11.
 NSaved=11 IEnMin=11 EnMin= -188.904832807272     IErMin=11 ErrMin= 5.38D-06
 ErrMax= 5.38D-06  0.00D+00 EMaxC= 1.00D-01 BMatC= 3.78D-09 BMatP= 4.47D-08
 IDIUse=1 WtCom= 1.00D+00 WtEn= 0.00D+00
 Coeff-Com:  0.777D-04-0.765D-04-0.322D-04 0.105D-03-0.695D-03-0.270D-02
 Coeff-Com:  0.158D-02 0.185D-01-0.450D-01-0.222D+00 0.125D+01
 Coeff:      0.777D-04-0.765D-04-0.322D-04 0.105D-03-0.695D-03-0.270D-02
 Coeff:      0.158D-02 0.185D-01-0.450D-01-0.222D+00 0.125D+01
 Gap=     0.223 Goal=   None    Shift=    0.000
 Gap=     0.129 Goal=   None    Shift=    0.000
 RMSDP=1.59D-06 MaxDP=5.68D-05 DE=-4.47D-08 OVMax= 4.68D-05

 Cycle  12  Pass 1  IDiag  1:
 E= -188.904832811643     Delta-E=       -0.000000004370 Rises=F Damp=F
 DIIS: error= 2.08D-06 at cycle  12 NSaved=  12.
 NSaved=12 IEnMin=12 EnMin= -188.904832811643     IErMin=12 ErrMin= 2.08D-06
 ErrMax= 2.08D-06  0.00D+00 EMaxC= 1.00D-01 BMatC= 5.94D-10 BMatP= 3.78D-09
 IDIUse=1 WtCom= 1.00D+00 WtEn= 0.00D+00
 Coeff-Com:  0.875D-06 0.874D-05-0.309D-04 0.205D-04 0.486D-04-0.116D-02
 Coeff-Com: -0.177D-02 0.792D-02 0.103D-01-0.136D+00-0.101D+00 0.122D+01
 Coeff:      0.875D-06 0.874D-05-0.309D-04 0.205D-04 0.486D-04-0.116D-02
 Coeff:     -0.177D-02 0.792D-02 0.103D-01-0.136D+00-0.101D+00 0.122D+01
 Gap=     0.223 Goal=   None    Shift=    0.000
 Gap=     0.129 Goal=   None    Shift=    0.000
 RMSDP=5.69D-07 MaxDP=2.30D-05 DE=-4.37D-09 OVMax= 1.83D-05

 Cycle  13  Pass 1  IDiag  1:
 E= -188.904832812194     Delta-E=       -0.000000000551 Rises=F Damp=F
 DIIS: error= 3.42D-07 at cycle  13 NSaved=  13.
 NSaved=13 IEnMin=13 EnMin= -188.904832812194     IErMin=13 ErrMin= 3.42D-07
 ErrMax= 3.42D-07  0.00D+00 EMaxC= 1.00D-01 BMatC= 1.60D-11 BMatP= 5.94D-10
 IDIUse=1 WtCom= 1.00D+00 WtEn= 0.00D+00
 Coeff-Com: -0.979D-06 0.330D-05 0.855D-05 0.131D-05 0.298D-04 0.647D-04
 Coeff-Com: -0.113D-03-0.705D-03 0.259D-02 0.105D-01-0.752D-01 0.329D-01
 Coeff-Com:  0.103D+01
 Coeff:     -0.979D-06 0.330D-05 0.855D-05 0.131D-05 0.298D-04 0.647D-04
 Coeff:     -0.113D-03-0.705D-03 0.259D-02 0.105D-01-0.752D-01 0.329D-01
 Coeff:      0.103D+01
 Gap=     0.223 Goal=   None    Shift=    0.000
 Gap=     0.129 Goal=   None    Shift=    0.000
 RMSDP=5.64D-08 MaxDP=1.75D-06 DE=-5.51D-10 OVMax= 1.95D-06

 Cycle  14  Pass 1  IDiag  1:
 E= -188.904832812204     Delta-E=       -0.000000000010 Rises=F Damp=F
 DIIS: error= 3.27D-08 at cycle  14 NSaved=  14.
 NSaved=14 IEnMin=14 EnMin= -188.904832812204     IErMin=14 ErrMin= 3.27D-08
 ErrMax= 3.27D-08  0.00D+00 EMaxC= 1.00D-01 BMatC= 1.83D-13 BMatP= 1.60D-11
 IDIUse=1 WtCom= 1.00D+00 WtEn= 0.00D+00
 Coeff-Com: -0.143D-06-0.226D-06 0.467D-06-0.570D-06-0.162D-05 0.120D-04
 Coeff-Com:  0.374D-04-0.545D-04-0.338D-03 0.335D-03 0.112D-01-0.216D-01
 Coeff-Com: -0.133D+00 0.114D+01
 Coeff:     -0.143D-06-0.226D-06 0.467D-06-0.570D-06-0.162D-05 0.120D-04
 Coeff:      0.374D-04-0.545D-04-0.338D-03 0.335D-03 0.112D-01-0.216D-01
 Coeff:     -0.133D+00 0.114D+01
 Gap=     0.223 Goal=   None    Shift=    0.000
 Gap=     0.129 Goal=   None    Shift=    0.000
 RMSDP=1.60D-08 MaxDP=6.13D-07 DE=-9.78D-12 OVMax= 1.70D-07

 Cycle  15  Pass 1  IDiag  1:
 E= -188.904832812203     Delta-E=        0.000000000000 Rises=F Damp=F
 DIIS: error= 4.94D-09 at cycle  15 NSaved=  15.
 NSaved=15 IEnMin=14 EnMin= -188.904832812204     IErMin=15 ErrMin= 4.94D-09
 ErrMax= 4.94D-09  0.00D+00 EMaxC= 1.00D-01 BMatC= 4.63D-15 BMatP= 1.83D-13
 IDIUse=1 WtCom= 1.00D+00 WtEn= 0.00D+00
 Coeff-Com:  0.106D-07-0.524D-08-0.370D-06-0.103D-06-0.768D-06-0.275D-05
 Coeff-Com: -0.207D-05 0.250D-04-0.239D-04-0.201D-03-0.475D-03 0.279D-02
 Coeff-Com:  0.534D-02-0.201D+00 0.119D+01
 Coeff:      0.106D-07-0.524D-08-0.370D-06-0.103D-06-0.768D-06-0.275D-05
 Coeff:     -0.207D-05 0.250D-04-0.239D-04-0.201D-03-0.475D-03 0.279D-02
 Coeff:      0.534D-02-0.201D+00 0.119D+01
 Gap=     0.223 Goal=   None    Shift=    0.000
 Gap=     0.129 Goal=   None    Shift=    0.000
 RMSDP=2.88D-09 MaxDP=1.05D-07 DE= 4.55D-13 OVMax= 3.33D-08

 SCF Done:  E(UB3LYP) =  -188.904832812     A.U. after   15 cycles
            NFock= 15  Conv=0.29D-08     -V/T= 2.0034
 <Sx>= 0.0000 <Sy>= 0.0000 <Sz>= 0.5000 <S**2>= 0.7867 S= 0.5182
 <L.S>= 0.000000000000E+00
 KE= 1.882624510597D+02 PE=-5.935987502427D+02 EE= 1.365259590717D+02
 Annihilation of the first spin contaminant:
 S**2 before annihilation     0.7867,   after     0.7508
 Leave Link  502 at Thu Jan 24 15:33:04 2019, MaxMem=    33554432 cpu:         4.4
 (Enter /apl/tryton/gaussian/09/d01/g09/l801.exe)
 DoSCS=F DFT=T ScalE2(SS,OS)=  1.000000  1.000000
 Range of M.O.s used for correlation:     1    88
 NBasis=    88 NAE=    13 NBE=    12 NFC=     0 NFV=     0
 NROrb=     88 NOA=    13 NOB=    12 NVA=    75 NVB=    76

 **** Warning!!: The largest alpha MO coefficient is  0.12209523D+03


 **** Warning!!: The largest beta MO coefficient is  0.11918736D+03

 Leave Link  801 at Thu Jan 24 15:33:04 2019, MaxMem=    33554432 cpu:         0.0
 (Enter /apl/tryton/gaussian/09/d01/g09/l1101.exe)
 Using compressed storage, NAtomX=     4.
 Will process      5 centers per pass.
 Leave Link 1101 at Thu Jan 24 15:33:04 2019, MaxMem=    33554432 cpu:         0.1
 (Enter /apl/tryton/gaussian/09/d01/g09/l1102.exe)
 Symmetrizing basis deriv contribution to polar:
 IMax=3 JMax=2 DiffMx= 0.00D+00
 Leave Link 1102 at Thu Jan 24 15:33:04 2019, MaxMem=    33554432 cpu:         0.0
 (Enter /apl/tryton/gaussian/09/d01/g09/l1110.exe)
 Forming Gx(P) for the SCF density, NAtomX=     4.
 Integral derivatives from FoFJK, PRISM(SPDF).
 Do as many integral derivatives as possible in FoFJK.
 G2DrvN: MDV=      33554296.
 G2DrvN: will do     5 centers at a time, making    1 passes.
 Calling FoFCou, ICntrl=  3107 FMM=F I1Cent=   0 AccDes= 0.00D+00.
 FoFJK:  IHMeth= 1 ICntrl=    3107 DoSepK=F KAlg= 0 I1Cent=   0 FoldK=F
 IRaf=         0 NMat=   1 IRICut=       1 DoRegI=T DoRafI=F ISym2E= 1.
 FoFCou: FMM=F IPFlag=           0 FMFlag=      100000 FMFlg1=           0
         NFxFlg=           0 DoJE=F BraDBF=F KetDBF=F FulRan=T
         wScrn=  0.000000 ICntrl=    3107 IOpCl=  1 I1Cent=           0 NGrid=           0
         NMat0=    1 NMatS0=      1 NMatT0=    0 NMatD0=    1 NMtDS0=    0 NMtDT0=    0
 Petite list used in FoFCou.
 End of G2Drv F.D. properties file   721 does not exist.
 End of G2Drv F.D. properties file   722 does not exist.
 End of G2Drv F.D. properties file   788 does not exist.
 Leave Link 1110 at Thu Jan 24 15:33:09 2019, MaxMem=    33554432 cpu:         4.7
 (Enter /apl/tryton/gaussian/09/d01/g09/l1002.exe)
 Minotr:  UHF open shell wavefunction.
          IDoAtm=1111
          Direct CPHF calculation.
          Differentiating once with respect to electric field.
                with respect to dipole field.
          Differentiating once with respect to nuclear coordinates.
          Using symmetry in CPHF.
          Requested convergence is 1.0D-08 RMS, and 1.0D-07 maximum.
          Secondary convergence is 1.0D-12 RMS, and 1.0D-12 maximum.
          NewPWx=T KeepS1=F KeepF1=F KeepIn=T MapXYZ=F SortEE=F KeepMc=T.
          MDV=      33554212 using IRadAn=       2.
 Generate precomputed XC quadrature information.
 Keep R1 and R2 ints in memory in symmetry-blocked form, NReq=9780408.
 FoFCou: FMM=F IPFlag=           0 FMFlag=           0 FMFlg1=           0
         NFxFlg=           0 DoJE=F BraDBF=F KetDBF=F FulRan=T
         wScrn=  0.000000 ICntrl=     600 IOpCl=  0 I1Cent=           0 NGrid=           0
         NMat0=    1 NMatS0=   3916 NMatT0=    0 NMatD0=    1 NMtDS0=    0 NMtDT0=    0
 Petite list used in FoFCou.
          Solving linear equations simultaneously, MaxMat=       0.
          There are    15 degrees of freedom in the 1st order CPHF.  IDoFFX=6 NUNeed=     3.
     12 vectors produced by pass  0 Test12= 1.26D-14 6.67D-09 XBig12= 2.49D+02 7.83D+00.
 AX will form    12 AO Fock derivatives at one time.
     12 vectors produced by pass  1 Test12= 1.26D-14 6.67D-09 XBig12= 7.13D+01 1.98D+00.
     12 vectors produced by pass  2 Test12= 1.26D-14 6.67D-09 XBig12= 2.10D+00 4.21D-01.
     12 vectors produced by pass  3 Test12= 1.26D-14 6.67D-09 XBig12= 7.50D-02 6.87D-02.
     12 vectors produced by pass  4 Test12= 1.26D-14 6.67D-09 XBig12= 1.29D-03 6.22D-03.
     12 vectors produced by pass  5 Test12= 1.26D-14 6.67D-09 XBig12= 1.19D-05 1.01D-03.
     12 vectors produced by pass  6 Test12= 1.26D-14 6.67D-09 XBig12= 1.11D-07 6.48D-05.
      6 vectors produced by pass  7 Test12= 1.26D-14 6.67D-09 XBig12= 3.72D-10 3.77D-06.
      4 vectors produced by pass  8 Test12= 1.26D-14 6.67D-09 XBig12= 2.51D-12 2.78D-07.
      3 vectors produced by pass  9 Test12= 1.26D-14 6.67D-09 XBig12= 1.13D-13 1.35D-07.
      2 vectors produced by pass 10 Test12= 1.26D-14 6.67D-09 XBig12= 3.83D-15 2.37D-08.
 InvSVY:  IOpt=1 It=  1 EMax= 1.33D-15
 Solved reduced A of dimension    99 with    12 vectors.
 FullF1:  Do perturbations    1 to     3.
 Isotropic polarizability for W=    0.000000       30.71 Bohr**3.
 End of Minotr F.D. properties file   721 does not exist.
 End of Minotr F.D. properties file   722 does not exist.
 End of Minotr F.D. properties file   788 does not exist.
 Leave Link 1002 at Thu Jan 24 15:33:21 2019, MaxMem=    33554432 cpu:        12.0
 (Enter /apl/tryton/gaussian/09/d01/g09/l601.exe)
 Copying SCF densities to generalized density rwf, IOpCl= 1 IROHF=0.

 **********************************************************************

            Population analysis using the SCF density.

 **********************************************************************

 Orbital symmetries:
 Alpha Orbitals:
       Occupied  (SG) (SG) (SG) (SG) (SG) (SG) (SG) (PI) (PI) (SG)
                 (SG) (PI) (PI)
       Virtual   (PI) (PI) (SG) (PI) (PI) (SG) (PI) (PI) (SG) (SG)
                 (PI) (PI) (SG) (PI) (PI) (SG) (SG) (SG) (PI) (PI)
                 (SG) (SG) (SG) (PI) (PI) (PI) (PI) (SG) (PI) (PI)
                 (SG) (SG) (SG) (PI) (PI) (SG) (SG) (DLTA) (DLTA)
                 (PI) (PI) (DLTA) (DLTA) (SG) (DLTA) (DLTA) (PI)
                 (PI) (SG) (SG) (SG) (PI) (PI) (PI) (PI) (DLTA)
                 (DLTA) (PI) (PI) (SG) (PI) (PI) (SG) (SG) (PI)
                 (PI) (SG) (SG) (PI) (PI) (SG) (SG) (SG) (SG) (SG)
 Beta  Orbitals:
       Occupied  (SG) (SG) (SG) (SG) (SG) (SG) (SG) (PI) (PI) (SG)
                 (PI) (PI)
       Virtual   (SG) (PI) (PI) (SG) (PI) (PI) (SG) (PI) (PI) (SG)
                 (SG) (PI) (PI) (SG) (PI) (PI) (SG) (SG) (SG) (PI)
                 (PI) (SG) (SG) (SG) (PI) (PI) (PI) (PI) (SG) (PI)
                 (PI) (SG) (SG) (SG) (PI) (PI) (SG) (SG) (DLTA)
                 (DLTA) (PI) (PI) (DLTA) (DLTA) (SG) (DLTA) (DLTA)
                 (PI) (PI) (SG) (SG) (SG) (PI) (PI) (PI) (PI) (DLTA)
                 (DLTA) (PI) (PI) (SG) (PI) (PI) (SG) (SG) (PI)
                 (PI) (SG) (SG) (PI) (PI) (SG) (SG) (SG) (SG) (SG)
 The electronic state is 2-SG.
 Alpha  occ. eigenvalues --  -19.63336 -10.65362 -10.54934 -10.54632  -1.55312
 Alpha  occ. eigenvalues --   -1.18959  -1.04527  -0.85996  -0.85996  -0.68430
 Alpha  occ. eigenvalues --   -0.67257  -0.59503  -0.59503
 Alpha virt. eigenvalues --   -0.37235  -0.37235  -0.21714  -0.20927  -0.20927
 Alpha virt. eigenvalues --   -0.14701  -0.10640  -0.10640  -0.09424  -0.07468
 Alpha virt. eigenvalues --   -0.05182  -0.05182  -0.04634  -0.00342  -0.00342
 Alpha virt. eigenvalues --    0.02794   0.06588   0.08349   0.08669   0.08669
 Alpha virt. eigenvalues --    0.12516   0.19436   0.27890   0.31535   0.31535
 Alpha virt. eigenvalues --    0.35989   0.35989   0.37793   0.42160   0.42160
 Alpha virt. eigenvalues --    0.48952   0.57609   0.63520   0.75290   0.75290
 Alpha virt. eigenvalues --    0.79679   0.82078   0.85438   0.85439   0.90567
 Alpha virt. eigenvalues --    0.90567   0.96993   0.96995   1.14342   1.24955
 Alpha virt. eigenvalues --    1.24956   1.29519   1.29519   1.52494   1.69029
 Alpha virt. eigenvalues --    1.74913   1.77709   1.77709   2.34349   2.34349
 Alpha virt. eigenvalues --    2.39459   2.39459   2.44802   2.44802   2.45822
 Alpha virt. eigenvalues --    2.62012   2.62012   2.86977   2.95351   3.17766
 Alpha virt. eigenvalues --    3.17766   3.43784   3.86303   4.57470   4.57470
 Alpha virt. eigenvalues --    5.57535  23.04494  23.51230  24.59069  49.54269
  Beta  occ. eigenvalues --  -19.63220 -10.65502 -10.54699 -10.52318  -1.55285
  Beta  occ. eigenvalues --   -1.19187  -1.02093  -0.86014  -0.86014  -0.68314
  Beta  occ. eigenvalues --   -0.57952  -0.57952
  Beta virt. eigenvalues --   -0.45052  -0.36908  -0.36908  -0.21728  -0.18405
  Beta virt. eigenvalues --   -0.18405  -0.14668  -0.10702  -0.10702  -0.08064
  Beta virt. eigenvalues --   -0.07318  -0.04866  -0.04866  -0.04264  -0.00201
  Beta virt. eigenvalues --   -0.00201   0.03042   0.06977   0.08387   0.08724
  Beta virt. eigenvalues --    0.08724   0.12993   0.19736   0.30601   0.32428
  Beta virt. eigenvalues --    0.32428   0.35891   0.35891   0.39480   0.42706
  Beta virt. eigenvalues --    0.42706   0.50024   0.61409   0.64004   0.75847
  Beta virt. eigenvalues --    0.75847   0.80355   0.83178   0.86579   0.86580
  Beta virt. eigenvalues --    0.92050   0.92050   0.96412   0.96414   1.14455
  Beta virt. eigenvalues --    1.27499   1.27500   1.32034   1.32034   1.52908
  Beta virt. eigenvalues --    1.70644   1.80011   1.80865   1.80865   2.35291
  Beta virt. eigenvalues --    2.35291   2.39673   2.39673   2.44928   2.44928
  Beta virt. eigenvalues --    2.47606   2.63061   2.63061   2.89721   2.99173
  Beta virt. eigenvalues --    3.17945   3.17945   3.43839   3.86698   4.57670
  Beta virt. eigenvalues --    4.57670   5.57595  23.06037  23.51159  24.60587
  Beta virt. eigenvalues --   49.54386
          Condensed to atoms (all electrons):
               1          2          3          4
     1  C    7.092418  -0.555546   0.052994  -0.383867
     2  C   -0.555546   6.201917  -0.221008   0.118271
     3  C    0.052994  -0.221008   5.780818   0.080613
     4  O   -0.383867   0.118271   0.080613   7.741931
          Atomic-Atomic Spin Densities.
               1          2          3          4
     1  C    1.227999  -0.187100  -0.014504  -0.037496
     2  C   -0.187100   0.197204   0.016501   0.023248
     3  C   -0.014504   0.016501  -0.073784  -0.003918
     4  O   -0.037496   0.023248  -0.003918   0.055123
 Mulliken charges and spin densities:
               1          2
     1  C   -0.205999   0.988898
     2  C    0.456364   0.049852
     3  C    0.306582  -0.075706
     4  O    0.443052   0.036956
 Sum of Mulliken charges =   1.00000   1.00000
 Mulliken charges and spin densities with hydrogens summed into heavy atoms:
               1          2
     1  C   -0.205999   0.988898
     2  C    0.456364   0.049852
     3  C    0.306582  -0.075706
     4  O    0.443052   0.036956
 APT charges:
               1
     1  C    0.489621
     2  C   -0.136449
     3  C    0.647475
     4  O   -0.000647
 Sum of APT charges =   1.00000
 APT charges with hydrogens summed into heavy atoms:
               1
     1  C    0.489621
     2  C   -0.136449
     3  C    0.647475
     4  O   -0.000647
 Electronic spatial extent (au):  <R**2>=            200.2456
 Charge=              1.0000 electrons
 Dipole moment (field-independent basis, Debye):
    X=             -0.0000    Y=              0.0000    Z=             -0.0936  Tot=              0.0936
 Quadrupole moment (field-independent basis, Debye-Ang):
   XX=            -18.9679   YY=            -18.9679   ZZ=             -7.6044
   XY=              0.0000   XZ=             -0.0000   YZ=             -0.0000
 Traceless Quadrupole moment (field-independent basis, Debye-Ang):
   XX=             -3.7878   YY=             -3.7878   ZZ=              7.5756
   XY=              0.0000   XZ=             -0.0000   YZ=             -0.0000
 Octapole moment (field-independent basis, Debye-Ang**2):
  XXX=             -0.0000  YYY=             -0.0000  ZZZ=             11.7940  XYY=             -0.0000
  XXY=             -0.0000  XXZ=             -2.2760  XZZ=             -0.0000  YZZ=              0.0000
  YYZ=             -2.2760  XYZ=              0.0000
 Hexadecapole moment (field-independent basis, Debye-Ang**3):
 XXXX=            -17.4919 YYYY=            -17.4919 ZZZZ=           -198.5636 XXXY=              0.0000
 XXXZ=              0.0000 YYYX=              0.0000 YYYZ=             -0.0000 ZZZX=              0.0000
 ZZZY=             -0.0000 XXYY=             -5.8306 XXZZ=            -42.2924 YYZZ=            -42.2924
 XXYZ=             -0.0000 YYXZ=              0.0000 ZZXY=              0.0000
 N-N= 7.990550729902D+01 E-N=-5.935987503829D+02  KE= 1.882624510597D+02
 Symmetry A1   KE= 1.741258271240D+02
 Symmetry A2   KE= 2.487528874116D-32
 Symmetry B1   KE= 7.068311967865D+00
 Symmetry B2   KE= 7.068311967865D+00
  Exact polarizability:  17.253   0.000  17.253   0.000   0.000  57.622
 Approx polarizability:  21.924  -0.000  21.924  -0.000   0.000 126.487
                          Isotropic Fermi Contact Couplings
        Atom                 a.u.       MegaHertz       Gauss      10(-4) cm-1
     1  C(13)              1.28044    1439.46106     513.63548     480.15253
     2  C(13)              0.29005     326.06702     116.34882     108.76425
     3  C(13)             -0.00644      -7.23647      -2.58215      -2.41382
     4  O(17)              0.03366     -20.40260      -7.28015      -6.80557
 --------------------------------------------------------
       Center         ----  Spin Dipole Couplings  ----
                      3XX-RR        3YY-RR        3ZZ-RR
 --------------------------------------------------------
     1   Atom       -0.322024     -0.322024      0.644048
     2   Atom       -0.155332     -0.155332      0.310663
     3   Atom       -0.037931     -0.037931      0.075862
     4   Atom        0.011605      0.011605     -0.023209
 --------------------------------------------------------
                        XY            XZ            YZ
 --------------------------------------------------------
     1   Atom        0.000000     -0.000000      0.000000
     2   Atom       -0.000000     -0.000000      0.000000
     3   Atom       -0.000000     -0.000000      0.000000
     4   Atom       -0.000000     -0.000000      0.000000
 --------------------------------------------------------


 ---------------------------------------------------------------------------------
              Anisotropic Spin Dipole Couplings in Principal Axis System
 ---------------------------------------------------------------------------------

       Atom             a.u.   MegaHertz   Gauss  10(-4) cm-1        Axes

              Baa    -0.3220   -43.213   -15.419   -14.414  1.0000 -0.0002  0.0000
     1 C(13)  Bbb    -0.3220   -43.213   -15.419   -14.414  0.0002  1.0000  0.0000
              Bcc     0.6440    86.425    30.839    28.828  0.0000  0.0000  1.0000
 
              Baa    -0.1553   -20.844    -7.438    -6.953  0.0010  1.0000 -0.0000
     2 C(13)  Bbb    -0.1553   -20.844    -7.438    -6.953  1.0000 -0.0010  0.0000
              Bcc     0.3107    41.688    14.875    13.906  0.0000  0.0000  1.0000
 
              Baa    -0.0379    -5.090    -1.816    -1.698  0.0001  1.0000 -0.0000
     3 C(13)  Bbb    -0.0379    -5.090    -1.816    -1.698  1.0000 -0.0001  0.0000
              Bcc     0.0759    10.180     3.632     3.396  0.0000  0.0000  1.0000
 
              Baa    -0.0232     1.679     0.599     0.560  0.0000  0.0000  1.0000
     4 O(17)  Bbb     0.0116    -0.840    -0.300    -0.280  1.0000  0.0000  0.0000
              Bcc     0.0116    -0.840    -0.300    -0.280 -0.0000  1.0000 -0.0000
 

 ---------------------------------------------------------------------------------

 No NMR shielding tensors so no spin-rotation constants.
 Leave Link  601 at Thu Jan 24 15:33:21 2019, MaxMem=    33554432 cpu:         0.2
 (Enter /apl/tryton/gaussian/09/d01/g09/l701.exe)
 Compute integral second derivatives.
 ... and contract with generalized density number  0.
 Leave Link  701 at Thu Jan 24 15:33:22 2019, MaxMem=    33554432 cpu:         0.2
 (Enter /apl/tryton/gaussian/09/d01/g09/l702.exe)
 L702 exits ... SP integral derivatives will be done elsewhere.
 Leave Link  702 at Thu Jan 24 15:33:22 2019, MaxMem=    33554432 cpu:         0.0
 (Enter /apl/tryton/gaussian/09/d01/g09/l703.exe)
 Compute integral second derivatives, UseDBF=F ICtDFT=           0.
 Integral derivatives from FoFJK, PRISM(SPDF).
 Calling FoFJK, ICntrl=    100127 FMM=F ISym2X=1 I1Cent= 0 IOpClX= 1 NMat=1 NMatS=1 NMatT=0.
 FoFJK:  IHMeth= 1 ICntrl=  100127 DoSepK=F KAlg= 0 I1Cent=   0 FoldK=F
 IRaf=         0 NMat=   1 IRICut=       1 DoRegI=T DoRafI=F ISym2E= 1.
 FoFCou: FMM=F IPFlag=           0 FMFlag=      100000 FMFlg1=         800
         NFxFlg=           0 DoJE=F BraDBF=F KetDBF=F FulRan=T
         wScrn=  0.000000 ICntrl=  100127 IOpCl=  1 I1Cent=           0 NGrid=           0
         NMat0=    1 NMatS0=      1 NMatT0=    0 NMatD0=    1 NMtDS0=    0 NMtDT0=    0
 Petite list used in FoFCou.
 Leave Link  703 at Thu Jan 24 15:33:28 2019, MaxMem=    33554432 cpu:         5.9
 (Enter /apl/tryton/gaussian/09/d01/g09/l716.exe)
 Dipole        =-1.33060277D-17 4.30734452D-17-3.68370441D-02
 Polarizability= 1.72532492D+01 1.98424878D-08 1.72532493D+01
                 1.58724461D-08 9.08576282D-10 5.76216170D+01
 Full mass-weighted force constant matrix:
 Low frequencies ---   -5.5636   -5.5636    0.0009    0.0010    0.0012  167.0830
 Low frequencies ---  167.0830  289.2128  289.2128
 Diagonal vibrational polarizability:
        1.3439859       1.3439858       1.8654630
 Harmonic frequencies (cm**-1), IR intensities (KM/Mole), Raman scattering
 activities (A**4/AMU), depolarization ratios for plane and unpolarized
 incident light, reduced masses (AMU), force constants (mDyne/A),
 and normal coordinates:
                      1                      2                      3
                     PI                     PI                     PI
 Frequencies --    167.0830               167.0830               289.2081
 Red. masses --     12.3175                12.3175                13.8136
 Frc consts  --      0.2026                 0.2026                 0.6807
 IR Inten    --      1.2388                 1.2388                 0.4657
  Atom  AN      X      Y      Z        X      Y      Z        X      Y      Z
     1   6    -0.12   0.54  -0.00     0.54   0.12  -0.00    -0.10   0.07  -0.00
     2   6     0.14  -0.62   0.00    -0.62  -0.14  -0.00     0.50  -0.34   0.00
     3   6    -0.10   0.45   0.00     0.45   0.10   0.00     0.34  -0.23   0.00
     4   8     0.06  -0.28  -0.00    -0.28  -0.06   0.00    -0.56   0.38  -0.00
                      4                      5                      6
                     PI                     SG                     SG
 Frequencies --    289.2081               905.0543              1872.5653
 Red. masses --     13.8136                12.5375                13.7275
 Frc consts  --      0.6807                 6.0508                28.3606
 IR Inten    --      0.4657                 9.5054               131.7952
  Atom  AN      X      Y      Z        X      Y      Z        X      Y      Z
     1   6    -0.07  -0.10   0.00     0.00  -0.00   0.62     0.00  -0.00   0.14
     2   6     0.34   0.50   0.00    -0.00  -0.00   0.42    -0.00   0.00  -0.01
     3   6     0.23   0.34   0.00     0.00  -0.00  -0.55    -0.00  -0.00   0.74
     4   8    -0.38  -0.56  -0.00    -0.00   0.00  -0.37     0.00   0.00  -0.66
                      7
                     SG
 Frequencies --   2280.0069
 Red. masses --     12.0508
 Frc consts  --     36.9095
 IR Inten    --    104.6389
  Atom  AN      X      Y      Z
     1   6     0.00   0.00   0.62
     2   6     0.00  -0.00  -0.78
     3   6     0.00   0.00   0.00
     4   8    -0.00  -0.00   0.11

 -------------------
 - Thermochemistry -
 -------------------
 Temperature   298.150 Kelvin.  Pressure   1.00000 Atm.
 Atom     1 has atomic number  6 and mass  12.00000
 Atom     2 has atomic number  6 and mass  12.00000
 Atom     3 has atomic number  6 and mass  12.00000
 Atom     4 has atomic number  8 and mass  15.99491
 Molecular mass:    51.99491 amu.
 Principal axes and moments of inertia in atomic units:
                           1         2         3
     Eigenvalues --     0.00000 332.76858 332.76858
           X           -0.00000  -0.06049   0.99817
           Y            0.00000   0.99817   0.06049
           Z            1.00000  -0.00000   0.00000
 This molecule is a prolate symmetric top.
 Rotational symmetry number  1.
 Rotational temperature (Kelvin)      0.26028
 Rotational constant (GHZ):           5.423412
 Zero-point vibrational energy      35709.8 (Joules/Mol)
                                    8.53484 (Kcal/Mol)
 Warning -- explicit consideration of   4 degrees of freedom as
           vibrations may cause significant error
 Vibrational temperatures:    240.39   240.39   416.11   416.11  1302.17
          (Kelvin)           2694.20  3280.42
 
 Zero-point correction=                           0.013601 (Hartree/Particle)
 Thermal correction to Energy=                    0.018112
 Thermal correction to Enthalpy=                  0.019056
 Thermal correction to Gibbs Free Energy=        -0.010955
 Sum of electronic and zero-point Energies=           -188.891232
 Sum of electronic and thermal Energies=              -188.886721
 Sum of electronic and thermal Enthalpies=            -188.885777
 Sum of electronic and thermal Free Energies=         -188.915788
 
                     E (Thermal)             CV                S
                      KCal/Mol        Cal/Mol-Kelvin    Cal/Mol-Kelvin
 Total                   11.365             12.638             63.163
 Electronic               0.000              0.000              1.377
 Translational            0.889              2.981             37.769
 Rotational               0.592              1.987             15.984
 Vibrational              9.884              7.670              8.033
 Vibration     1          0.624              1.883              2.468
 Vibration     2          0.624              1.883              2.468
 Vibration     3          0.686              1.694              1.479
 Vibration     4          0.686              1.694              1.479
                       Q            Log10(Q)             Ln(Q)
 Total Bot       0.109376D+06          5.038920         11.602543
 Total V=0       0.197240D+12         11.294996         26.007688
 Vib (Bot)       0.323969D-05         -5.489496        -12.640032
 Vib (Bot)    1  0.120728D+01          0.081809          0.188371
 Vib (Bot)    2  0.120728D+01          0.081809          0.188371
 Vib (Bot)    3  0.661516D+00         -0.179460         -0.413221
 Vib (Bot)    4  0.661516D+00         -0.179460         -0.413221
 Vib (V=0)       0.584224D+01          0.766579          1.765114
 Vib (V=0)    1  0.180672D+01          0.256892          0.591516
 Vib (V=0)    2  0.180672D+01          0.256892          0.591516
 Vib (V=0)    3  0.132922D+01          0.123596          0.284591
 Vib (V=0)    4  0.132922D+01          0.123596          0.284591
 Electronic      0.200000D+01          0.301030          0.693147
 Translational   0.147366D+08          7.168397         16.505843
 Rotational      0.114549D+04          3.058990          7.043585
 
                                                                 min
                                                             IR Spectrum
 
      2                     1                                                                                                        
      2                     8                                                     9                                 2      1         
      8                     7                                                     0                                 8      6         
      0                     3                                                     5                                 9      7         
 
      X                     X                                                     X                                 X      X         
      X                     X                                                                                                        
      X                     X                                                                                                        
      X                     X                                                                                                        
      X                     X                                                                                                        
      X                     X                                                                                                        
      X                     X                                                                                                        
      X                     X                                                                                                        
      X                     X                                                                                                        
      X                     X                                                                                                        
      X                     X                                                                                                        
      X                     X                                                                                                        
      X                     X                                                                                                        
      X                     X                                                                                                        
      X                     X                                                                                                        
      X                     X                                                                                                        
                            X                                                                                                        
                            X                                                                                                        
                            X                                                                                                        
                            X                                                                                                        
 
 ***** Axes restored to original set *****
 -------------------------------------------------------------------
 Center     Atomic                   Forces (Hartrees/Bohr)
 Number     Number              X              Y              Z
 -------------------------------------------------------------------
      1        6          -0.000109302    0.000076904    0.000016483
      2        6           0.000389807   -0.000274265   -0.000058782
      3        6           0.000078911   -0.000055521   -0.000011900
      4        8          -0.000359416    0.000252882    0.000054200
 -------------------------------------------------------------------
 Cartesian Forces:  Max     0.000389807 RMS     0.000194567
 Z-matrix is all fixed cartesians, so copy forces.
 Force constants in Cartesian coordinates: 
                1             2             3             4             5 
      1  0.707203D+00
      2 -0.494619D+00  0.352221D+00
      3 -0.106011D+00  0.745881D-01  0.201975D-01
      4 -0.687932D+00  0.479298D+00  0.102727D+00  0.979827D+00
      5  0.479298D+00 -0.343945D+00 -0.722777D-01 -0.677587D+00  0.493531D+00
      6  0.102727D+00 -0.722777D-01 -0.222062D-01 -0.145226D+00  0.102179D+00
      7  0.229713D-01 -0.151337D-01 -0.324356D-02 -0.637591D-01  0.481347D-01
      8 -0.151337D-01  0.121101D-01  0.228214D-02  0.481347D-01 -0.292134D-01
      9 -0.324356D-02  0.228214D-02  0.195129D-02  0.103166D-01 -0.725867D-02
     10 -0.422430D-01  0.304548D-01  0.652730D-02 -0.228136D+00  0.150154D+00
     11  0.304548D-01 -0.203860D-01 -0.459255D-02  0.150154D+00 -0.120372D+00
     12  0.652730D-02 -0.459255D-02  0.574734D-04  0.321822D-01 -0.226431D-01
                6             7             8             9            10 
      6  0.386860D-01
      7  0.103166D-01  0.575699D+00
      8 -0.725867D-02 -0.399108D+00  0.289263D+00
      9  0.309805D-02 -0.855399D-01  0.601851D-01  0.213536D-01
     10  0.321822D-01 -0.534911D+00  0.366107D+00  0.784669D-01  0.805290D+00
     11 -0.226431D-01  0.366107D+00 -0.272160D+00 -0.552086D-01 -0.546716D+00
     12 -0.195778D-01  0.784669D-01 -0.552086D-01 -0.264029D-01 -0.117176D+00
               11            12 
     11  0.412918D+00
     12  0.824443D-01  0.459232D-01
 Leave Link  716 at Thu Jan 24 15:33:28 2019, MaxMem=    33554432 cpu:         0.0
 (Enter /apl/tryton/gaussian/09/d01/g09/l103.exe)

 GradGradGradGradGradGradGradGradGradGradGradGradGradGradGradGradGradGrad
 Berny optimization.
 Search for a local minimum.
 Step number   1 out of a maximum of    2
 All quantities printed in internal units (Hartrees-Bohrs-Radians)
 Second derivative matrix not updated -- analytic derivatives used.
 The second derivative matrix:
                          X1        Y1        Z1        X2        Y2
           X1           0.70720
           Y1          -0.49462   0.35222
           Z1          -0.10601   0.07459   0.02020
           X2          -0.68793   0.47930   0.10273   0.97983
           Y2           0.47930  -0.34395  -0.07228  -0.67759   0.49353
           Z2           0.10273  -0.07228  -0.02221  -0.14523   0.10218
           X3           0.02297  -0.01513  -0.00324  -0.06376   0.04813
           Y3          -0.01513   0.01211   0.00228   0.04813  -0.02921
           Z3          -0.00324   0.00228   0.00195   0.01032  -0.00726
           X4          -0.04224   0.03045   0.00653  -0.22814   0.15015
           Y4           0.03045  -0.02039  -0.00459   0.15015  -0.12037
           Z4           0.00653  -0.00459   0.00006   0.03218  -0.02264
                          Z2        X3        Y3        Z3        X4
           Z2           0.03869
           X3           0.01032   0.57570
           Y3          -0.00726  -0.39911   0.28926
           Z3           0.00310  -0.08554   0.06019   0.02135
           X4           0.03218  -0.53491   0.36611   0.07847   0.80529
           Y4          -0.02264   0.36611  -0.27216  -0.05521  -0.54672
           Z4          -0.01958   0.07847  -0.05521  -0.02640  -0.11718
                          Y4        Z4
           Y4           0.41292
           Z4           0.08244   0.04592
 ITU=  0
     Eigenvalues ---    0.01301   0.01301   0.04453   0.04453   0.38897
     Eigenvalues ---    1.85064   2.38042
 Angle between quadratic step and forces=  44.20 degrees.
 ClnCor:  largest displacement from symmetrization is 7.30D-12 for atom     2.
 Linear search not attempted -- first point.
 ClnCor:  largest displacement from symmetrization is 1.62D-15 for atom     1.
 TrRot= -0.000012  0.000008  0.000002  0.000000  0.000000 -0.000000
 Variable       Old X    -DE/DX   Delta X   Delta X   Delta X     New X
                                 (Linear)    (Quad)   (Total)
    X1        3.07389  -0.00011   0.00000   0.00020   0.00018   3.07408
    Y1       -1.87846   0.00008   0.00000  -0.00014  -0.00013  -1.87859
    Z1       -0.40372   0.00002   0.00000  -0.00003  -0.00003  -0.40375
    X2        1.23660   0.00039   0.00000   0.00032   0.00031   1.23691
    Y2       -0.58576  -0.00027   0.00000  -0.00023  -0.00022  -0.58598
    Z2       -0.12666  -0.00006   0.00000  -0.00005  -0.00005  -0.12671
    X3       -2.57344   0.00008   0.00000  -0.00016  -0.00018  -2.57362
    Y3        2.09496  -0.00006   0.00000   0.00012   0.00012   2.09508
    Z3        0.44789  -0.00001   0.00000   0.00002   0.00003   0.44792
    X4       -0.76848  -0.00036   0.00000  -0.00031  -0.00032  -0.76880
    Y4        0.82500   0.00025   0.00000   0.00022   0.00022   0.82523
    Z4        0.17570   0.00005   0.00000   0.00005   0.00005   0.17575
         Item               Value     Threshold  Converged?
 Maximum Force            0.000390     0.000450     YES
 RMS     Force            0.000195     0.000300     YES
 Maximum Displacement     0.000318     0.001800     YES
 RMS     Displacement     0.000182     0.001200     YES
 Predicted change in Energy=-1.522941D-07
 Optimization completed.
    -- Stationary point found.
 GradGradGradGradGradGradGradGradGradGradGradGradGradGradGradGradGradGrad

 Leave Link  103 at Thu Jan 24 15:33:28 2019, MaxMem=    33554432 cpu:         0.0
 (Enter /apl/tryton/gaussian/09/d01/g09/l9999.exe)
 1\1\ CITASK-GV0222\Freq\UB3LYP\6-311++G(d,p)\C3O1(1+,2)\EERD\24-Jan-20
 19\0\\#p b3lyp/6-311++g(d,p) freq\\min\\1,2\C,1.6266351045,-0.99403870
 43,-0.2136415452\C,0.6543831339,-0.3099704897,-0.0670268995\C,-1.36180
 77431,1.1086042576,0.2370127117\O,-0.4066628715,0.4365724523,0.0929777
 998\\Version=ES64L-G09RevD.01\State=2-SG\HF=-188.9048328\S2=0.786687\S
 2-1=0.\S2A=0.750781\RMSD=2.875e-09\RMSF=1.946e-04\ZeroPoint=0.0136011\
 Thermal=0.0181117\Dipole=-0.0299006,0.0210378,0.004509\DipoleDeriv=0.6
 891219,-0.2841015,-0.0608908,-0.2841015,0.4852257,0.0428422,-0.0608908
 ,0.0428422,0.2945166,-0.459176,0.4595836,0.0985014,0.4595836,-0.129338
 4,-0.0693048,0.0985014,-0.0693048,0.1791668,0.9668553,-0.4548182,-0.09
 74801,-0.4548182,0.6404378,0.0685861,-0.0974801,0.0685861,0.3351315,-0
 .1968012,0.2793361,0.0598694,0.2793361,0.0036749,-0.0421236,0.0598694,
 -0.0421236,0.1911852\Polar=43.8502082,-18.713394,30.4198341,-4.0107954
 ,2.8219615,17.8580732\PG=C*V [C*(C1O1C1C1)]\NImag=0\\0.70720331,-0.494
 61927,0.35222110,-0.10601052,0.07458810,0.02019748,-0.68793165,0.47929
 813,0.10272678,0.97982681,0.47929813,-0.34394524,-0.07227769,-0.677587
 24,0.49353073,0.10272678,-0.07227769,-0.02220625,-0.14522559,0.1021794
 9,0.03868599,0.02297134,-0.01513367,-0.00324356,-0.06375908,0.04813471
 ,0.01031659,0.57569859,-0.01513367,0.01211009,0.00228214,0.04813471,-0
 .02921339,-0.00725867,-0.39910830,0.28926344,-0.00324356,0.00228214,0.
 00195129,0.01031659,-0.00725867,0.00309805,-0.08553989,0.06018514,0.02
 135357,-0.04224299,0.03045480,0.00652730,-0.22813608,0.15015440,0.0321
 8222,-0.53491085,0.36610726,0.07846686,0.80528993,0.03045480,-0.020385
 95,-0.00459255,0.15015440,-0.12037211,-0.02264314,0.36610726,-0.272160
 15,-0.05520862,-0.54671646,0.41291821,0.00652730,-0.00459255,0.0000574
 7,0.03218222,-0.02264314,-0.01957780,0.07846686,-0.05520862,-0.0264029
 2,-0.11717638,0.08244431,0.04592324\\0.00010930,-0.00007690,-0.0000164
 8,-0.00038981,0.00027426,0.00005878,-0.00007891,0.00005552,0.00001190,
 0.00035942,-0.00025288,-0.00005420\\\@


 MEN HAVE BECOME THE TOOLS OF THEIR TOOLS... THOREAU   
 Job cpu time:       0 days  0 hours  0 minutes 28.3 seconds.
 File lengths (MBytes):  RWF=     12 Int=      0 D2E=      0 Chk=      2 Scr=      1
 Normal termination of Gaussian 09 at Thu Jan 24 15:33:28 2019.
