 Entering Gaussian System, Link 0=g09
 Initial command:
 /apl/tryton/gaussian/09/d01/g09/l1.exe "/users/work/eerd/M3C-outputs/ionized/4/Gau-663.inp" -scrdir="/users/work/eerd/M3C-outputs/ionized/4/"
 Entering Link 1 = /apl/tryton/gaussian/09/d01/g09/l1.exe PID=       664.
  
 Copyright (c) 1988,1990,1992,1993,1995,1998,2003,2009,2013,
            Gaussian, Inc.  All Rights Reserved.
  
 This is part of the Gaussian(R) 09 program.  It is based on
 the Gaussian(R) 03 system (copyright 2003, Gaussian, Inc.),
 the Gaussian(R) 98 system (copyright 1998, Gaussian, Inc.),
 the Gaussian(R) 94 system (copyright 1995, Gaussian, Inc.),
 the Gaussian 92(TM) system (copyright 1992, Gaussian, Inc.),
 the Gaussian 90(TM) system (copyright 1990, Gaussian, Inc.),
 the Gaussian 88(TM) system (copyright 1988, Gaussian, Inc.),
 the Gaussian 86(TM) system (copyright 1986, Carnegie Mellon
 University), and the Gaussian 82(TM) system (copyright 1983,
 Carnegie Mellon University). Gaussian is a federally registered
 trademark of Gaussian, Inc.
  
 This software contains proprietary and confidential information,
 including trade secrets, belonging to Gaussian, Inc.
  
 This software is provided under written license and may be
 used, copied, transmitted, or stored only in accord with that
 written license.
  
 The following legend is applicable only to US Government
 contracts under FAR:
  
                    RESTRICTED RIGHTS LEGEND
  
 Use, reproduction and disclosure by the US Government is
 subject to restrictions as set forth in subparagraphs (a)
 and (c) of the Commercial Computer Software - Restricted
 Rights clause in FAR 52.227-19.
  
 Gaussian, Inc.
 340 Quinnipiac St., Bldg. 40, Wallingford CT 06492
  
  
 ---------------------------------------------------------------
 Warning -- This program may not be used in any manner that
 competes with the business of Gaussian, Inc. or will provide
 assistance to any competitor of Gaussian, Inc.  The licensee
 of this program is prohibited from giving any competitor of
 Gaussian, Inc. access to this program.  By using this program,
 the user acknowledges that Gaussian, Inc. is engaged in the
 business of creating and licensing software in the field of
 computational chemistry and represents and warrants to the
 licensee that it is not a competitor of Gaussian, Inc. and that
 it will not use this program in any manner prohibited above.
 ---------------------------------------------------------------
  

 Cite this work as:
 Gaussian 09, Revision D.01,
 M. J. Frisch, G. W. Trucks, H. B. Schlegel, G. E. Scuseria, 
 M. A. Robb, J. R. Cheeseman, G. Scalmani, V. Barone, B. Mennucci, 
 G. A. Petersson, H. Nakatsuji, M. Caricato, X. Li, H. P. Hratchian, 
 A. F. Izmaylov, J. Bloino, G. Zheng, J. L. Sonnenberg, M. Hada, 
 M. Ehara, K. Toyota, R. Fukuda, J. Hasegawa, M. Ishida, T. Nakajima, 
 Y. Honda, O. Kitao, H. Nakai, T. Vreven, J. A. Montgomery, Jr., 
 J. E. Peralta, F. Ogliaro, M. Bearpark, J. J. Heyd, E. Brothers, 
 K. N. Kudin, V. N. Staroverov, T. Keith, R. Kobayashi, J. Normand, 
 K. Raghavachari, A. Rendell, J. C. Burant, S. S. Iyengar, J. Tomasi, 
 M. Cossi, N. Rega, J. M. Millam, M. Klene, J. E. Knox, J. B. Cross, 
 V. Bakken, C. Adamo, J. Jaramillo, R. Gomperts, R. E. Stratmann, 
 O. Yazyev, A. J. Austin, R. Cammi, C. Pomelli, J. W. Ochterski, 
 R. L. Martin, K. Morokuma, V. G. Zakrzewski, G. A. Voth, 
 P. Salvador, J. J. Dannenberg, S. Dapprich, A. D. Daniels, 
 O. Farkas, J. B. Foresman, J. V. Ortiz, J. Cioslowski, 
 and D. J. Fox, Gaussian, Inc., Wallingford CT, 2013.
 
 ******************************************
 Gaussian 09:  ES64L-G09RevD.01 24-Apr-2013
                24-Jan-2019 
 ******************************************
 ---------------------------
 #p b3lyp/6-311++g(d,p) freq
 ---------------------------
 1/10=4,30=1,38=1/1,3;
 2/12=2,17=6,18=5,40=1/2;
 3/5=4,6=6,7=1111,11=2,16=1,25=1,30=1,71=2,74=-5,140=1/1,2,3;
 4//1;
 5/5=2,38=5,98=1/2;
 8/6=4,10=90,11=11/1;
 11/6=1,8=1,9=11,15=111,16=1/1,2,10;
 10/6=1/2;
 6/7=2,8=2,9=2,10=2,18=1,28=1/1;
 7/8=1,10=1,25=1/1,2,3,16;
 1/10=4,30=1/3;
 99//99;
 Leave Link    1 at Thu Jan 24 15:34:01 2019, MaxMem=           0 cpu:         0.0
 (Enter /apl/tryton/gaussian/09/d01/g09/l101.exe)
 ---
 min
 ---
 Symbolic Z-matrix:
 Charge =  1 Multiplicity = 4
 C                     0.13434   0.08098   1.17449 
 C                    -0.8693   -0.68441  -1.25903 
 C                     0.88739   0.72344   0.30531 
 C                    -0.15243  -0.12001  -0.22077 
 
 NAtoms=      4 NQM=        4 NQMF=       0 NMMI=      0 NMMIF=      0
                NMic=       0 NMicF=      0.
                    Isotopes and Nuclear Properties:
 (Nuclear quadrupole moments (NQMom) in fm**2, nuclear magnetic moments (NMagM)
  in nuclear magnetons)

  Atom         1           2           3           4
 IAtWgt=          12          12          12          12
 AtmWgt=  12.0000000  12.0000000  12.0000000  12.0000000
 NucSpn=           0           0           0           0
 AtZEff=   0.0000000   0.0000000   0.0000000   0.0000000
 NQMom=    0.0000000   0.0000000   0.0000000   0.0000000
 NMagM=    0.0000000   0.0000000   0.0000000   0.0000000
 AtZNuc=   6.0000000   6.0000000   6.0000000   6.0000000
 Leave Link  101 at Thu Jan 24 15:34:01 2019, MaxMem=    33554432 cpu:         0.1
 (Enter /apl/tryton/gaussian/09/d01/g09/l103.exe)

 GradGradGradGradGradGradGradGradGradGradGradGradGradGradGradGradGradGrad
 Berny optimization.
 Initialization pass.
 Trust Radius=3.00D-01 FncErr=1.00D-07 GrdErr=1.00D-07
 Number of steps in this run=      2 maximum allowed number of steps=      2.
 GradGradGradGradGradGradGradGradGradGradGradGradGradGradGradGradGradGrad

 Leave Link  103 at Thu Jan 24 15:34:01 2019, MaxMem=    33554432 cpu:         0.0
 (Enter /apl/tryton/gaussian/09/d01/g09/l202.exe)
                          Input orientation:                          
 ---------------------------------------------------------------------
 Center     Atomic      Atomic             Coordinates (Angstroms)
 Number     Number       Type             X           Y           Z
 ---------------------------------------------------------------------
      1          6           0        0.134344    0.080975    1.174491
      2          6           0       -0.869296   -0.684406   -1.259027
      3          6           0        0.887386    0.723442    0.305308
      4          6           0       -0.152432   -0.120012   -0.220773
 ---------------------------------------------------------------------
                    Distance matrix (angstroms):
                    1          2          3          4
     1  C    0.000000
     2  C    2.741371   0.000000
     3  C    1.317313   2.741371   0.000000
     4  C    1.438540   1.382175   1.438540   0.000000
 Stoichiometry    C4(1+,4)
 Framework group  C2V[C2(CC),SGV(C2)]
 Deg. of freedom     3
 Full point group                 C2V     NOp   4
 Largest Abelian subgroup         C2V     NOp   4
 Largest concise Abelian subgroup C2      NOp   2
                         Standard orientation:                         
 ---------------------------------------------------------------------
 Center     Atomic      Atomic             Coordinates (Angstroms)
 Number     Number       Type             X           Y           Z
 ---------------------------------------------------------------------
      1          6           0       -0.000000    0.658657   -0.984991
      2          6           0        0.000000    0.000000    1.676078
      3          6           0        0.000000   -0.658657   -0.984991
      4          6           0        0.000000    0.000000    0.293903
 ---------------------------------------------------------------------
 Rotational constants (GHZ):     48.5386600      8.7085744      7.3838070
 Leave Link  202 at Thu Jan 24 15:34:01 2019, MaxMem=    33554432 cpu:         0.0
 (Enter /apl/tryton/gaussian/09/d01/g09/l301.exe)
 Standard basis: 6-311++G(d,p) (5D, 7F)
 Ernie: Thresh=  0.10000D-02 Tol=  0.10000D-05 Strict=F.
 There are    41 symmetry adapted cartesian basis functions of A1  symmetry.
 There are     8 symmetry adapted cartesian basis functions of A2  symmetry.
 There are    16 symmetry adapted cartesian basis functions of B1  symmetry.
 There are    27 symmetry adapted cartesian basis functions of B2  symmetry.
 There are    38 symmetry adapted basis functions of A1  symmetry.
 There are     8 symmetry adapted basis functions of A2  symmetry.
 There are    16 symmetry adapted basis functions of B1  symmetry.
 There are    26 symmetry adapted basis functions of B2  symmetry.
    88 basis functions,   144 primitive gaussians,    92 cartesian basis functions
    13 alpha electrons       10 beta electrons
       nuclear repulsion energy        68.6285875159 Hartrees.
 IExCor=  402 DFT=T Ex+Corr=B3LYP ExCW=0 ScaHFX=  0.200000
 ScaDFX=  0.800000  0.720000  1.000000  0.810000 ScalE2=  1.000000  1.000000
 IRadAn=      0 IRanWt=     -1 IRanGd=            0 ICorTp=0 IEmpDi=  4
 NAtoms=    4 NActive=    4 NUniq=    3 SFac= 1.78D+00 NAtFMM=   60 NAOKFM=F Big=F
 Integral buffers will be    131072 words long.
 Raffenetti 2 integral format.
 Two-electron integral symmetry is turned on.
 Leave Link  301 at Thu Jan 24 15:34:01 2019, MaxMem=    33554432 cpu:         0.0
 (Enter /apl/tryton/gaussian/09/d01/g09/l302.exe)
 NPDir=0 NMtPBC=     1 NCelOv=     1 NCel=       1 NClECP=     1 NCelD=      1
         NCelK=      1 NCelE2=     1 NClLst=     1 CellRange=     0.0.
 One-electron integrals computed using PRISM.
 One-electron integral symmetry used in STVInt
 NBasis=    88 RedAO= T EigKep=  5.51D-05  NBF=    38     8    16    26
 NBsUse=    88 1.00D-06 EigRej= -1.00D+00 NBFU=    38     8    16    26
 Precomputing XC quadrature grid using
 IXCGrd= 4 IRadAn=           0 IRanWt=          -1 IRanGd=           0 AccXCQ= 0.00D+00.
 Generated NRdTot=       0 NPtTot=           0 NUsed=           0 NTot=          32
 NSgBfM=    92    92    92    92    92 MxSgAt=     4 MxSgA2=     4.
 Leave Link  302 at Thu Jan 24 15:34:01 2019, MaxMem=    33554432 cpu:         0.1
 (Enter /apl/tryton/gaussian/09/d01/g09/l303.exe)
 DipDrv:  MaxL=1.
 Leave Link  303 at Thu Jan 24 15:34:01 2019, MaxMem=    33554432 cpu:         0.0
 (Enter /apl/tryton/gaussian/09/d01/g09/l401.exe)
 ExpMin= 4.38D-02 ExpMax= 4.56D+03 ExpMxC= 6.82D+02 IAcc=2 IRadAn=         4 AccDes= 0.00D+00
 Harris functional with IExCor=  402 and IRadAn=       4 diagonalized for initial guess.
 HarFok:  IExCor=  402 AccDes= 0.00D+00 IRadAn=         4 IDoV= 1 UseB2=F ITyADJ=14
 ICtDFT=  3500011 ScaDFX=  1.000000  1.000000  1.000000  1.000000
 FoFCou: FMM=F IPFlag=           0 FMFlag=      100000 FMFlg1=           0
         NFxFlg=           0 DoJE=T BraDBF=F KetDBF=T FulRan=T
         wScrn=  0.000000 ICntrl=     500 IOpCl=  0 I1Cent=   200000004 NGrid=           0
         NMat0=    1 NMatS0=      1 NMatT0=    0 NMatD0=    1 NMtDS0=    0 NMtDT0=    0
 Petite list used in FoFCou.
 Harris En= -151.715475823235    
 JPrj=0 DoOrth=F DoCkMO=F.
 Initial guess orbital symmetries:
 Alpha Orbitals:
       Occupied  (A1) (A1) (B2) (A1) (A1) (A1) (A1) (B2) (B1) (A1)
                 (A1) (B2) (B1)
       Virtual   (B2) (A2) (B1) (A1) (A1) (B2) (B1) (A1) (B2) (A1)
                 (B1) (A2) (B2) (A1) (B1) (B2) (A1) (A1) (B2) (A1)
                 (B2) (A1) (B2) (A1) (B1) (A1) (B2) (B1) (A2) (B2)
                 (A1) (B1) (A1) (B2) (B2) (A1) (A1) (B2) (A1) (B1)
                 (A2) (B1) (A1) (A1) (B2) (A2) (B1) (A1) (A1) (B2)
                 (A2) (A1) (A1) (B2) (A2) (B2) (B1) (B2) (A1) (B1)
                 (B2) (B1) (A2) (B1) (B2) (A1) (A1) (A1) (B2) (B2)
                 (A1) (A1) (A1) (A1) (B2)
 Beta  Orbitals:
       Occupied  (A1) (A1) (B2) (A1) (A1) (A1) (A1) (B2) (B1) (A1)
       Virtual   (A1) (B2) (B1) (B2) (A2) (B1) (A1) (A1) (B2) (B1)
                 (A1) (B2) (A1) (B1) (A2) (B2) (A1) (B1) (B2) (A1)
                 (A1) (B2) (A1) (B2) (A1) (B2) (A1) (B1) (A1) (B2)
                 (B1) (A2) (B2) (A1) (B1) (A1) (B2) (B2) (A1) (A1)
                 (B2) (A1) (B1) (A2) (B1) (A1) (A1) (B2) (A2) (B1)
                 (A1) (A1) (B2) (A2) (A1) (A1) (B2) (A2) (B2) (B1)
                 (B2) (A1) (B1) (B2) (B1) (A2) (B1) (B2) (A1) (A1)
                 (A1) (B2) (B2) (A1) (A1) (A1) (A1) (B2)
 The electronic state of the initial guess is 4-A2.
 Initial guess <Sx>= 0.0000 <Sy>= 0.0000 <Sz>= 1.5000 <S**2>= 3.7500 S= 1.5000
 Leave Link  401 at Thu Jan 24 15:34:01 2019, MaxMem=    33554432 cpu:         0.2
 (Enter /apl/tryton/gaussian/09/d01/g09/l502.exe)
 UHF open shell SCF:
 Using DIIS extrapolation, IDIIS=  1040.
 Integral symmetry usage will be decided dynamically.
 Keep R1 and R2 ints in memory in symmetry-blocked form, NReq=9740782.
 IVT=       45338 IEndB=       45338 NGot=    33554432 MDV=    29467563
 LenX=    29467563 LenY=    29458658
 Requested convergence on RMS density matrix=1.00D-08 within 128 cycles.
 Requested convergence on MAX density matrix=1.00D-06.
 Requested convergence on             energy=1.00D-06.
 No special actions if energy rises.
 FoFCou: FMM=F IPFlag=           0 FMFlag=           0 FMFlg1=           0
         NFxFlg=           0 DoJE=F BraDBF=F KetDBF=F FulRan=T
         wScrn=  0.000000 ICntrl=     600 IOpCl=  0 I1Cent=           0 NGrid=           0
         NMat0=    1 NMatS0=   3916 NMatT0=    0 NMatD0=    1 NMtDS0=    0 NMtDT0=    0
 Petite list used in FoFCou.

 Cycle   1  Pass 1  IDiag  1:
 E= -151.643685157072    
 DIIS: error= 1.95D-02 at cycle   1 NSaved=   1.
 NSaved= 1 IEnMin= 1 EnMin= -151.643685157072     IErMin= 1 ErrMin= 1.95D-02
 ErrMax= 1.95D-02  0.00D+00 EMaxC= 1.00D-01 BMatC= 8.37D-02 BMatP= 8.37D-02
 IDIUse=3 WtCom= 8.05D-01 WtEn= 1.95D-01
 Coeff-Com:  0.100D+01
 Coeff-En:   0.100D+01
 Coeff:      0.100D+01
 Gap=     0.151 Goal=   None    Shift=    0.000
 Gap=     0.095 Goal=   None    Shift=    0.000
 GapD=    0.095 DampG=0.500 DampE=0.500 DampFc=0.2500 IDamp=-1.
 Damping current iteration by 2.50D-01
 RMSDP=8.61D-03 MaxDP=1.82D-01              OVMax= 3.13D-01

 Cycle   2  Pass 1  IDiag  1:
 E= -151.649850122307     Delta-E=       -0.006164965235 Rises=F Damp=T
 DIIS: error= 9.04D-03 at cycle   2 NSaved=   2.
 NSaved= 2 IEnMin= 2 EnMin= -151.649850122307     IErMin= 2 ErrMin= 9.04D-03
 ErrMax= 9.04D-03  0.00D+00 EMaxC= 1.00D-01 BMatC= 3.48D-02 BMatP= 8.37D-02
 IDIUse=3 WtCom= 9.10D-01 WtEn= 9.04D-02
 Coeff-Com: -0.326D+00 0.133D+01
 Coeff-En:   0.000D+00 0.100D+01
 Coeff:     -0.297D+00 0.130D+01
 Gap=     0.150 Goal=   None    Shift=    0.000
 Gap=     0.042 Goal=   None    Shift=    0.000
 RMSDP=6.70D-03 MaxDP=1.33D-01 DE=-6.16D-03 OVMax= 4.00D-01

 Cycle   3  Pass 1  IDiag  1:
 E= -151.640068782723     Delta-E=        0.009781339585 Rises=F Damp=F
 DIIS: error= 2.42D-02 at cycle   3 NSaved=   3.
 NSaved= 3 IEnMin= 2 EnMin= -151.649850122307     IErMin= 2 ErrMin= 9.04D-03
 ErrMax= 2.42D-02  0.00D+00 EMaxC= 1.00D-01 BMatC= 8.44D-02 BMatP= 3.48D-02
 IDIUse=2 WtCom= 0.00D+00 WtEn= 1.00D+00
 Coeff-En:   0.000D+00 0.674D+00 0.326D+00
 Coeff:      0.000D+00 0.674D+00 0.326D+00
 Gap=     0.152 Goal=   None    Shift=    0.000
 Gap=     0.077 Goal=   None    Shift=    0.000
 RMSDP=6.60D-03 MaxDP=1.91D-01 DE= 9.78D-03 OVMax= 3.64D-01

 Cycle   4  Pass 1  IDiag  1:
 E= -151.638268996914     Delta-E=        0.001799785809 Rises=F Damp=F
 DIIS: error= 2.72D-02 at cycle   4 NSaved=   4.
 NSaved= 4 IEnMin= 2 EnMin= -151.649850122307     IErMin= 2 ErrMin= 9.04D-03
 ErrMax= 2.72D-02  0.00D+00 EMaxC= 1.00D-01 BMatC= 1.03D-01 BMatP= 3.48D-02
 IDIUse=2 WtCom= 0.00D+00 WtEn= 1.00D+00
 Coeff-En:   0.000D+00 0.000D+00 0.509D+00 0.491D+00
 Coeff:      0.000D+00 0.000D+00 0.509D+00 0.491D+00
 Gap=     0.155 Goal=   None    Shift=    0.000
 Gap=     0.074 Goal=   None    Shift=    0.000
 RMSDP=3.16D-03 MaxDP=9.40D-02 DE= 1.80D-03 OVMax= 1.14D-01

 Cycle   5  Pass 1  IDiag  1:
 E= -151.672851022928     Delta-E=       -0.034582026014 Rises=F Damp=F
 DIIS: error= 2.19D-03 at cycle   5 NSaved=   5.
 NSaved= 5 IEnMin= 5 EnMin= -151.672851022928     IErMin= 5 ErrMin= 2.19D-03
 ErrMax= 2.19D-03  0.00D+00 EMaxC= 1.00D-01 BMatC= 1.10D-03 BMatP= 3.48D-02
 IDIUse=3 WtCom= 9.78D-01 WtEn= 2.19D-02
 Coeff-Com: -0.654D+00 0.838D+00 0.148D+00-0.250D+00 0.918D+00
 Coeff-En:   0.000D+00 0.000D+00 0.000D+00 0.000D+00 0.100D+01
 Coeff:     -0.640D+00 0.820D+00 0.145D+00-0.244D+00 0.919D+00
 Gap=     0.157 Goal=   None    Shift=    0.000
 Gap=     0.083 Goal=   None    Shift=    0.000
 RMSDP=9.49D-04 MaxDP=2.79D-02 DE=-3.46D-02 OVMax= 5.16D-02

 Cycle   6  Pass 1  IDiag  1:
 E= -151.673298323145     Delta-E=       -0.000447300217 Rises=F Damp=F
 DIIS: error= 3.72D-03 at cycle   6 NSaved=   6.
 NSaved= 6 IEnMin= 6 EnMin= -151.673298323145     IErMin= 5 ErrMin= 2.19D-03
 ErrMax= 3.72D-03  0.00D+00 EMaxC= 1.00D-01 BMatC= 1.58D-03 BMatP= 1.10D-03
 IDIUse=3 WtCom= 9.78D-01 WtEn= 2.19D-02
 Coeff-Com: -0.156D+00 0.204D+00 0.479D-01-0.178D+00-0.216D+00 0.130D+01
 Coeff-En:   0.000D+00 0.000D+00 0.000D+00 0.000D+00 0.000D+00 0.100D+01
 Coeff:     -0.153D+00 0.199D+00 0.468D-01-0.174D+00-0.211D+00 0.129D+01
 Gap=     0.159 Goal=   None    Shift=    0.000
 Gap=     0.086 Goal=   None    Shift=    0.000
 RMSDP=9.52D-04 MaxDP=2.86D-02 DE=-4.47D-04 OVMax= 4.03D-02

 Cycle   7  Pass 1  IDiag  1:
 E= -151.674245632048     Delta-E=       -0.000947308903 Rises=F Damp=F
 DIIS: error= 1.45D-03 at cycle   7 NSaved=   7.
 NSaved= 7 IEnMin= 7 EnMin= -151.674245632048     IErMin= 7 ErrMin= 1.45D-03
 ErrMax= 1.45D-03  0.00D+00 EMaxC= 1.00D-01 BMatC= 3.54D-04 BMatP= 1.10D-03
 IDIUse=3 WtCom= 9.85D-01 WtEn= 1.45D-02
 Coeff-Com: -0.168D+00 0.229D+00 0.343D-01-0.120D+00-0.330D+00 0.272D+00
 Coeff-Com:  0.108D+01
 Coeff-En:   0.000D+00 0.000D+00 0.000D+00 0.000D+00 0.000D+00 0.000D+00
 Coeff-En:   0.100D+01
 Coeff:     -0.166D+00 0.226D+00 0.338D-01-0.118D+00-0.325D+00 0.268D+00
 Coeff:      0.108D+01
 Gap=     0.160 Goal=   None    Shift=    0.000
 Gap=     0.089 Goal=   None    Shift=    0.000
 RMSDP=7.48D-04 MaxDP=2.18D-02 DE=-9.47D-04 OVMax= 3.60D-02

 Cycle   8  Pass 1  IDiag  1:
 E= -151.674562716534     Delta-E=       -0.000317084485 Rises=F Damp=F
 DIIS: error= 8.96D-04 at cycle   8 NSaved=   8.
 NSaved= 8 IEnMin= 8 EnMin= -151.674562716534     IErMin= 8 ErrMin= 8.96D-04
 ErrMax= 8.96D-04  0.00D+00 EMaxC= 1.00D-01 BMatC= 8.73D-05 BMatP= 3.54D-04
 IDIUse=3 WtCom= 9.91D-01 WtEn= 8.96D-03
 Coeff-Com: -0.470D-01 0.625D-01 0.363D-02 0.165D-01 0.954D-01-0.759D+00
 Coeff-Com:  0.289D+00 0.134D+01
 Coeff-En:   0.000D+00 0.000D+00 0.000D+00 0.000D+00 0.000D+00 0.000D+00
 Coeff-En:   0.000D+00 0.100D+01
 Coeff:     -0.466D-01 0.620D-01 0.360D-02 0.163D-01 0.945D-01-0.752D+00
 Coeff:      0.287D+00 0.134D+01
 Gap=     0.161 Goal=   None    Shift=    0.000
 Gap=     0.092 Goal=   None    Shift=    0.000
 RMSDP=7.25D-04 MaxDP=2.02D-02 DE=-3.17D-04 OVMax= 3.43D-02

 Cycle   9  Pass 1  IDiag  1:
 E= -151.674675144618     Delta-E=       -0.000112428085 Rises=F Damp=F
 DIIS: error= 1.95D-04 at cycle   9 NSaved=   9.
 NSaved= 9 IEnMin= 9 EnMin= -151.674675144618     IErMin= 9 ErrMin= 1.95D-04
 ErrMax= 1.95D-04  0.00D+00 EMaxC= 1.00D-01 BMatC= 4.95D-06 BMatP= 8.73D-05
 IDIUse=3 WtCom= 9.98D-01 WtEn= 1.95D-03
 Coeff-Com: -0.311D-03 0.369D-03-0.854D-03 0.826D-02 0.352D-01-0.398D-01
 Coeff-Com: -0.625D-01 0.104D+00 0.956D+00
 Coeff-En:   0.000D+00 0.000D+00 0.000D+00 0.000D+00 0.000D+00 0.000D+00
 Coeff-En:   0.000D+00 0.000D+00 0.100D+01
 Coeff:     -0.310D-03 0.368D-03-0.853D-03 0.824D-02 0.352D-01-0.397D-01
 Coeff:     -0.624D-01 0.104D+00 0.956D+00
 Gap=     0.160 Goal=   None    Shift=    0.000
 Gap=     0.092 Goal=   None    Shift=    0.000
 RMSDP=5.21D-05 MaxDP=2.13D-03 DE=-1.12D-04 OVMax= 1.76D-03

 Cycle  10  Pass 1  IDiag  1:
 E= -151.674677274063     Delta-E=       -0.000002129445 Rises=F Damp=F
 DIIS: error= 4.18D-05 at cycle  10 NSaved=  10.
 NSaved=10 IEnMin=10 EnMin= -151.674677274063     IErMin=10 ErrMin= 4.18D-05
 ErrMax= 4.18D-05  0.00D+00 EMaxC= 1.00D-01 BMatC= 2.56D-07 BMatP= 4.95D-06
 IDIUse=1 WtCom= 1.00D+00 WtEn= 0.00D+00
 Coeff-Com:  0.502D-02-0.705D-02-0.545D-03-0.626D-03-0.523D-03 0.719D-01
 Coeff-Com: -0.481D-01-0.139D+00 0.163D+00 0.955D+00
 Coeff:      0.502D-02-0.705D-02-0.545D-03-0.626D-03-0.523D-03 0.719D-01
 Coeff:     -0.481D-01-0.139D+00 0.163D+00 0.955D+00
 Gap=     0.160 Goal=   None    Shift=    0.000
 Gap=     0.092 Goal=   None    Shift=    0.000
 RMSDP=1.51D-05 MaxDP=3.91D-04 DE=-2.13D-06 OVMax= 9.41D-04

 Cycle  11  Pass 1  IDiag  1:
 E= -151.674677473090     Delta-E=       -0.000000199027 Rises=F Damp=F
 DIIS: error= 2.28D-05 at cycle  11 NSaved=  11.
 NSaved=11 IEnMin=11 EnMin= -151.674677473090     IErMin=11 ErrMin= 2.28D-05
 ErrMax= 2.28D-05  0.00D+00 EMaxC= 1.00D-01 BMatC= 7.99D-08 BMatP= 2.56D-07
 IDIUse=1 WtCom= 1.00D+00 WtEn= 0.00D+00
 Coeff-Com: -0.144D-02 0.194D-02 0.479D-03-0.125D-02-0.212D-02-0.687D-03
 Coeff-Com:  0.541D-02-0.140D-01-0.578D-01-0.182D-01 0.109D+01
 Coeff:     -0.144D-02 0.194D-02 0.479D-03-0.125D-02-0.212D-02-0.687D-03
 Coeff:      0.541D-02-0.140D-01-0.578D-01-0.182D-01 0.109D+01
 Gap=     0.160 Goal=   None    Shift=    0.000
 Gap=     0.092 Goal=   None    Shift=    0.000
 RMSDP=1.01D-05 MaxDP=2.96D-04 DE=-1.99D-07 OVMax= 4.55D-04

 Cycle  12  Pass 1  IDiag  1:
 E= -151.674677517846     Delta-E=       -0.000000044757 Rises=F Damp=F
 DIIS: error= 1.61D-06 at cycle  12 NSaved=  12.
 NSaved=12 IEnMin=12 EnMin= -151.674677517846     IErMin=12 ErrMin= 1.61D-06
 ErrMax= 1.61D-06  0.00D+00 EMaxC= 1.00D-01 BMatC= 6.29D-10 BMatP= 7.99D-08
 IDIUse=1 WtCom= 1.00D+00 WtEn= 0.00D+00
 Coeff-Com: -0.904D-04 0.122D-03-0.307D-05 0.117D-03 0.893D-04-0.217D-02
 Coeff-Com:  0.285D-02 0.628D-02 0.412D-02-0.695D-01-0.109D+00 0.117D+01
 Coeff:     -0.904D-04 0.122D-03-0.307D-05 0.117D-03 0.893D-04-0.217D-02
 Coeff:      0.285D-02 0.628D-02 0.412D-02-0.695D-01-0.109D+00 0.117D+01
 Gap=     0.160 Goal=   None    Shift=    0.000
 Gap=     0.092 Goal=   None    Shift=    0.000
 RMSDP=1.63D-06 MaxDP=5.18D-05 DE=-4.48D-08 OVMax= 6.87D-05

 Cycle  13  Pass 1  IDiag  1:
 E= -151.674677518725     Delta-E=       -0.000000000879 Rises=F Damp=F
 DIIS: error= 3.63D-07 at cycle  13 NSaved=  13.
 NSaved=13 IEnMin=13 EnMin= -151.674677518725     IErMin=13 ErrMin= 3.63D-07
 ErrMax= 3.63D-07  0.00D+00 EMaxC= 1.00D-01 BMatC= 2.21D-11 BMatP= 6.29D-10
 IDIUse=1 WtCom= 1.00D+00 WtEn= 0.00D+00
 Coeff-Com:  0.634D-04-0.851D-04-0.135D-04 0.118D-04 0.963D-04 0.871D-03
 Coeff-Com: -0.881D-03-0.176D-02 0.233D-02 0.188D-01-0.279D-01-0.205D+00
 Coeff-Com:  0.121D+01
 Coeff:      0.634D-04-0.851D-04-0.135D-04 0.118D-04 0.963D-04 0.871D-03
 Coeff:     -0.881D-03-0.176D-02 0.233D-02 0.188D-01-0.279D-01-0.205D+00
 Coeff:      0.121D+01
 Gap=     0.160 Goal=   None    Shift=    0.000
 Gap=     0.092 Goal=   None    Shift=    0.000
 RMSDP=2.24D-07 MaxDP=6.72D-06 DE=-8.79D-10 OVMax= 1.03D-05

 Cycle  14  Pass 1  IDiag  1:
 E= -151.674677518741     Delta-E=       -0.000000000015 Rises=F Damp=F
 DIIS: error= 4.37D-07 at cycle  14 NSaved=  14.
 NSaved=14 IEnMin=14 EnMin= -151.674677518741     IErMin=13 ErrMin= 3.63D-07
 ErrMax= 4.37D-07  0.00D+00 EMaxC= 1.00D-01 BMatC= 2.90D-11 BMatP= 2.21D-11
 IDIUse=1 WtCom= 1.00D+00 WtEn= 0.00D+00
 Coeff-Com: -0.153D-04 0.193D-04 0.448D-05-0.147D-04 0.521D-04 0.110D-03
 Coeff-Com: -0.264D-03-0.587D-03 0.189D-03 0.590D-02 0.403D-03-0.879D-01
 Coeff-Com:  0.106D+00 0.976D+00
 Coeff:     -0.153D-04 0.193D-04 0.448D-05-0.147D-04 0.521D-04 0.110D-03
 Coeff:     -0.264D-03-0.587D-03 0.189D-03 0.590D-02 0.403D-03-0.879D-01
 Coeff:      0.106D+00 0.976D+00
 Gap=     0.160 Goal=   None    Shift=    0.000
 Gap=     0.092 Goal=   None    Shift=    0.000
 RMSDP=1.35D-07 MaxDP=3.43D-06 DE=-1.53D-11 OVMax= 6.01D-06

 Cycle  15  Pass 1  IDiag  1:
 E= -151.674677518756     Delta-E=       -0.000000000015 Rises=F Damp=F
 DIIS: error= 9.28D-08 at cycle  15 NSaved=  15.
 NSaved=15 IEnMin=15 EnMin= -151.674677518756     IErMin=15 ErrMin= 9.28D-08
 ErrMax= 9.28D-08  0.00D+00 EMaxC= 1.00D-01 BMatC= 1.43D-12 BMatP= 2.21D-11
 IDIUse=1 WtCom= 1.00D+00 WtEn= 0.00D+00
 Coeff-Com: -0.842D-06 0.112D-05 0.211D-06-0.802D-06-0.433D-05-0.164D-04
 Coeff-Com:  0.477D-04 0.177D-04 0.115D-03-0.851D-03-0.575D-03 0.163D-01
 Coeff-Com: -0.758D-01-0.103D+00 0.116D+01
 Coeff:     -0.842D-06 0.112D-05 0.211D-06-0.802D-06-0.433D-05-0.164D-04
 Coeff:      0.477D-04 0.177D-04 0.115D-03-0.851D-03-0.575D-03 0.163D-01
 Coeff:     -0.758D-01-0.103D+00 0.116D+01
 Gap=     0.160 Goal=   None    Shift=    0.000
 Gap=     0.092 Goal=   None    Shift=    0.000
 RMSDP=3.34D-08 MaxDP=1.09D-06 DE=-1.53D-11 OVMax= 1.18D-06

 Cycle  16  Pass 1  IDiag  1:
 E= -151.674677518756     Delta-E=       -0.000000000000 Rises=F Damp=F
 DIIS: error= 1.09D-08 at cycle  16 NSaved=  16.
 NSaved=16 IEnMin=16 EnMin= -151.674677518756     IErMin=16 ErrMin= 1.09D-08
 ErrMax= 1.09D-08  0.00D+00 EMaxC= 1.00D-01 BMatC= 1.58D-14 BMatP= 1.43D-12
 IDIUse=1 WtCom= 1.00D+00 WtEn= 0.00D+00
 Coeff-Com:  0.307D-06-0.401D-06-0.795D-07 0.288D-06-0.281D-05-0.609D-06
 Coeff-Com:  0.105D-04 0.903D-05-0.347D-04-0.138D-03 0.254D-03 0.205D-02
 Coeff-Com: -0.262D-02-0.262D-01-0.431D-01 0.107D+01
 Coeff:      0.307D-06-0.401D-06-0.795D-07 0.288D-06-0.281D-05-0.609D-06
 Coeff:      0.105D-04 0.903D-05-0.347D-04-0.138D-03 0.254D-03 0.205D-02
 Coeff:     -0.262D-02-0.262D-01-0.431D-01 0.107D+01
 Gap=     0.160 Goal=   None    Shift=    0.000
 Gap=     0.092 Goal=   None    Shift=    0.000
 RMSDP=2.83D-09 MaxDP=1.05D-07 DE=-2.56D-13 OVMax= 1.19D-07

 SCF Done:  E(UB3LYP) =  -151.674677519     A.U. after   16 cycles
            NFock= 16  Conv=0.28D-08     -V/T= 2.0037
 <Sx>= 0.0000 <Sy>= 0.0000 <Sz>= 1.5000 <S**2>= 3.7632 S= 1.5033
 <L.S>= 0.000000000000E+00
 KE= 1.511205873640D+02 PE=-4.824788912319D+02 EE= 1.110550388332D+02
 Annihilation of the first spin contaminant:
 S**2 before annihilation     3.7632,   after     3.7501
 Leave Link  502 at Thu Jan 24 15:34:06 2019, MaxMem=    33554432 cpu:         4.5
 (Enter /apl/tryton/gaussian/09/d01/g09/l801.exe)
 DoSCS=F DFT=T ScalE2(SS,OS)=  1.000000  1.000000
 Range of M.O.s used for correlation:     1    88
 NBasis=    88 NAE=    13 NBE=    10 NFC=     0 NFV=     0
 NROrb=     88 NOA=    13 NOB=    10 NVA=    75 NVB=    78

 **** Warning!!: The largest alpha MO coefficient is  0.86192087D+02


 **** Warning!!: The largest beta MO coefficient is  0.88618979D+02


 **** Warning!!: The smallest beta delta epsilon is  0.91765869D-01

 Leave Link  801 at Thu Jan 24 15:34:06 2019, MaxMem=    33554432 cpu:         0.0
 (Enter /apl/tryton/gaussian/09/d01/g09/l1101.exe)
 Using compressed storage, NAtomX=     4.
 Will process      5 centers per pass.
 Leave Link 1101 at Thu Jan 24 15:34:06 2019, MaxMem=    33554432 cpu:         0.1
 (Enter /apl/tryton/gaussian/09/d01/g09/l1102.exe)
 Symmetrizing basis deriv contribution to polar:
 IMax=3 JMax=2 DiffMx= 0.00D+00
 Leave Link 1102 at Thu Jan 24 15:34:06 2019, MaxMem=    33554432 cpu:         0.0
 (Enter /apl/tryton/gaussian/09/d01/g09/l1110.exe)
 Forming Gx(P) for the SCF density, NAtomX=     4.
 Integral derivatives from FoFJK, PRISM(SPDF).
 Do as many integral derivatives as possible in FoFJK.
 G2DrvN: MDV=      33554296.
 G2DrvN: will do     5 centers at a time, making    1 passes.
 Calling FoFCou, ICntrl=  3107 FMM=F I1Cent=   0 AccDes= 0.00D+00.
 FoFJK:  IHMeth= 1 ICntrl=    3107 DoSepK=F KAlg= 0 I1Cent=   0 FoldK=F
 IRaf=         0 NMat=   1 IRICut=       1 DoRegI=T DoRafI=F ISym2E= 1.
 FoFCou: FMM=F IPFlag=           0 FMFlag=      100000 FMFlg1=           0
         NFxFlg=           0 DoJE=F BraDBF=F KetDBF=F FulRan=T
         wScrn=  0.000000 ICntrl=    3107 IOpCl=  1 I1Cent=           0 NGrid=           0
         NMat0=    1 NMatS0=      1 NMatT0=    0 NMatD0=    1 NMtDS0=    0 NMtDT0=    0
 Petite list used in FoFCou.
 End of G2Drv F.D. properties file   721 does not exist.
 End of G2Drv F.D. properties file   722 does not exist.
 End of G2Drv F.D. properties file   788 does not exist.
 Leave Link 1110 at Thu Jan 24 15:34:10 2019, MaxMem=    33554432 cpu:         3.6
 (Enter /apl/tryton/gaussian/09/d01/g09/l1002.exe)
 Minotr:  UHF open shell wavefunction.
          IDoAtm=1111
          Direct CPHF calculation.
          Differentiating once with respect to electric field.
                with respect to dipole field.
          Differentiating once with respect to nuclear coordinates.
          Using symmetry in CPHF.
          Requested convergence is 1.0D-08 RMS, and 1.0D-07 maximum.
          Secondary convergence is 1.0D-12 RMS, and 1.0D-12 maximum.
          NewPWx=T KeepS1=F KeepF1=F KeepIn=T MapXYZ=F SortEE=F KeepMc=T.
          MDV=      33554212 using IRadAn=       2.
 Generate precomputed XC quadrature information.
 Keep R1 and R2 ints in memory in symmetry-blocked form, NReq=9697713.
 FoFCou: FMM=F IPFlag=           0 FMFlag=           0 FMFlg1=           0
         NFxFlg=           0 DoJE=F BraDBF=F KetDBF=F FulRan=T
         wScrn=  0.000000 ICntrl=     600 IOpCl=  0 I1Cent=           0 NGrid=           0
         NMat0=    1 NMatS0=   3916 NMatT0=    0 NMatD0=    1 NMtDS0=    0 NMtDT0=    0
 Petite list used in FoFCou.
          Solving linear equations simultaneously, MaxMat=       0.
          There are    12 degrees of freedom in the 1st order CPHF.  IDoFFX=4 NUNeed=    12.
     12 vectors produced by pass  0 Test12= 1.46D-14 8.33D-09 XBig12= 3.77D+02 1.43D+01.
 AX will form    12 AO Fock derivatives at one time.
     12 vectors produced by pass  1 Test12= 1.46D-14 8.33D-09 XBig12= 8.90D+01 3.09D+00.
     12 vectors produced by pass  2 Test12= 1.46D-14 8.33D-09 XBig12= 7.01D+00 1.18D+00.
     12 vectors produced by pass  3 Test12= 1.46D-14 8.33D-09 XBig12= 2.94D-01 2.45D-01.
     12 vectors produced by pass  4 Test12= 1.46D-14 8.33D-09 XBig12= 8.04D-03 2.81D-02.
     12 vectors produced by pass  5 Test12= 1.46D-14 8.33D-09 XBig12= 8.12D-05 2.80D-03.
     12 vectors produced by pass  6 Test12= 1.46D-14 8.33D-09 XBig12= 4.41D-07 1.72D-04.
      9 vectors produced by pass  7 Test12= 1.46D-14 8.33D-09 XBig12= 3.58D-09 1.60D-05.
      5 vectors produced by pass  8 Test12= 1.46D-14 8.33D-09 XBig12= 2.59D-11 9.26D-07.
      2 vectors produced by pass  9 Test12= 1.46D-14 8.33D-09 XBig12= 1.54D-13 6.83D-08.
      2 vectors produced by pass 10 Test12= 1.46D-14 8.33D-09 XBig12= 2.69D-14 8.03D-08.
 InvSVY:  IOpt=1 It=  1 EMax= 7.11D-15
 Solved reduced A of dimension   102 with    12 vectors.
 FullF1:  Do perturbations    1 to    12.
 Isotropic polarizability for W=    0.000000       40.55 Bohr**3.
 End of Minotr F.D. properties file   721 does not exist.
 End of Minotr F.D. properties file   722 does not exist.
 End of Minotr F.D. properties file   788 does not exist.
 Leave Link 1002 at Thu Jan 24 15:34:28 2019, MaxMem=    33554432 cpu:        18.6
 (Enter /apl/tryton/gaussian/09/d01/g09/l601.exe)
 Copying SCF densities to generalized density rwf, IOpCl= 1 IROHF=0.

 **********************************************************************

            Population analysis using the SCF density.

 **********************************************************************

 Orbital symmetries:
 Alpha Orbitals:
       Occupied  (A1) (B2) (A1) (A1) (A1) (A1) (B2) (A1) (B1) (A1)
                 (B2) (A1) (B1)
       Virtual   (B2) (A2) (B1) (A1) (B2) (A1) (B1) (B2) (A1) (A1)
                 (B1) (B2) (A2) (A1) (B2) (A1) (B1) (A1) (B2) (A1)
                 (B2) (B2) (A1) (A1) (B1) (A1) (B2) (B1) (A2) (B2)
                 (A1) (B1) (A1) (B2) (B2) (A1) (A1) (B2) (A1) (B1)
                 (A2) (B1) (A1) (A1) (B2) (A2) (B1) (A1) (A1) (B2)
                 (A2) (A1) (A1) (B2) (A2) (B2) (B1) (B2) (A1) (B1)
                 (B2) (B1) (A2) (B1) (B2) (A1) (A1) (A1) (B2) (B2)
                 (A1) (A1) (A1) (A1) (B2)
 Beta  Orbitals:
       Occupied  (A1) (B2) (A1) (A1) (A1) (A1) (B2) (A1) (B1) (A1)
       Virtual   (A1) (B2) (B1) (B2) (A2) (B1) (A1) (A1) (B2) (B1)
                 (A1) (B2) (A1) (B1) (A2) (B2) (A1) (B2) (A1) (B1)
                 (A1) (B2) (A1) (B2) (B2) (A1) (A1) (B1) (A1) (B2)
                 (B1) (A2) (B2) (B1) (A1) (A1) (B2) (B2) (A1) (A1)
                 (B2) (A1) (B1) (A2) (B1) (A1) (A1) (B2) (A2) (B1)
                 (A1) (A1) (B2) (A2) (A1) (A1) (B2) (A2) (B1) (B2)
                 (B2) (A1) (B1) (B2) (B1) (A2) (B2) (B1) (A1) (A1)
                 (A1) (B2) (B2) (A1) (A1) (A1) (A1) (B2)
 The electronic state is 4-A2.
 Alpha  occ. eigenvalues --  -10.61198 -10.61096 -10.57689 -10.57378  -1.28315
 Alpha  occ. eigenvalues --   -1.06480  -0.84009  -0.80515  -0.73381  -0.67718
 Alpha  occ. eigenvalues --   -0.61479  -0.60380  -0.56438
 Alpha virt. eigenvalues --   -0.40395  -0.34090  -0.28452  -0.16313  -0.12926
 Alpha virt. eigenvalues --   -0.12590  -0.11508  -0.10028  -0.09638  -0.07613
 Alpha virt. eigenvalues --   -0.05873  -0.04893  -0.04467  -0.03715  -0.01521
 Alpha virt. eigenvalues --   -0.01243   0.00075   0.01053   0.02425   0.05827
 Alpha virt. eigenvalues --    0.06082   0.10603   0.12801   0.22896   0.26042
 Alpha virt. eigenvalues --    0.30170   0.31075   0.31803   0.32766   0.34517
 Alpha virt. eigenvalues --    0.37688   0.37800   0.39271   0.40317   0.44956
 Alpha virt. eigenvalues --    0.49905   0.53261   0.62500   0.63585   0.70290
 Alpha virt. eigenvalues --    0.79952   0.83449   0.88592   0.97797   1.03488
 Alpha virt. eigenvalues --    1.03933   1.25585   1.27851   1.43309   1.45557
 Alpha virt. eigenvalues --    1.46638   1.54177   1.65466   1.66114   1.66169
 Alpha virt. eigenvalues --    1.84084   1.84715   2.05481   2.16771   2.29163
 Alpha virt. eigenvalues --    2.44065   2.49801   2.51277   2.53359   2.53942
 Alpha virt. eigenvalues --    2.59166   2.82096   2.86037   2.93817   3.29666
 Alpha virt. eigenvalues --    3.40647  22.84143  23.22041  23.79355  23.89663
  Beta  occ. eigenvalues --  -10.59215 -10.59129 -10.56837 -10.56404  -1.25946
  Beta  occ. eigenvalues --   -1.01470  -0.76942  -0.76574  -0.69481  -0.57770
  Beta virt. eigenvalues --   -0.48594  -0.47135  -0.43761  -0.35111  -0.28668
  Beta virt. eigenvalues --   -0.22896  -0.14791  -0.11921  -0.11397  -0.10977
  Beta virt. eigenvalues --   -0.08324  -0.07453  -0.07345  -0.05283  -0.03959
  Beta virt. eigenvalues --   -0.02818  -0.02473  -0.01288  -0.00472   0.00243
  Beta virt. eigenvalues --    0.01366   0.02887   0.06085   0.06528   0.13418
  Beta virt. eigenvalues --    0.14573   0.25407   0.27367   0.31314   0.32616
  Beta virt. eigenvalues --    0.34343   0.34721   0.36641   0.39526   0.39683
  Beta virt. eigenvalues --    0.41688   0.44279   0.48043   0.51535   0.55797
  Beta virt. eigenvalues --    0.64800   0.65480   0.74303   0.83368   0.89219
  Beta virt. eigenvalues --    0.91481   1.03382   1.06395   1.09167   1.29753
  Beta virt. eigenvalues --    1.32615   1.48230   1.49047   1.50632   1.58734
  Beta virt. eigenvalues --    1.68475   1.71842   1.72801   1.88164   1.89475
  Beta virt. eigenvalues --    2.09127   2.18639   2.32327   2.46282   2.52872
  Beta virt. eigenvalues --    2.53974   2.56494   2.56963   2.61438   2.84076
  Beta virt. eigenvalues --    2.90908   2.99768   3.32577   3.42815  22.85842
  Beta virt. eigenvalues --   23.23771  23.80355  23.91949
          Condensed to atoms (all electrons):
               1          2          3          4
     1  C    4.941604  -0.048393   0.663025   0.236570
     2  C   -0.048393   5.319659  -0.048393   0.356938
     3  C    0.663025  -0.048393   4.941604   0.236570
     4  C    0.236570   0.356938   0.236570   5.004501
          Atomic-Atomic Spin Densities.
               1          2          3          4
     1  C    1.073777  -0.113078   0.110571  -0.106426
     2  C   -0.113078   0.740978  -0.113078   0.185258
     3  C    0.110571  -0.113078   1.073777  -0.106426
     4  C   -0.106426   0.185258  -0.106426   0.397826
 Mulliken charges and spin densities:
               1          2
     1  C    0.207195   0.964844
     2  C    0.420189   0.700079
     3  C    0.207195   0.964844
     4  C    0.165422   0.370232
 Sum of Mulliken charges =   1.00000   3.00000
 Mulliken charges and spin densities with hydrogens summed into heavy atoms:
               1          2
     1  C    0.207195   0.964844
     2  C    0.420189   0.700079
     3  C    0.207195   0.964844
     4  C    0.165422   0.370232
 APT charges:
               1
     1  C    0.373790
     2  C    0.326578
     3  C    0.373790
     4  C   -0.074158
 Sum of APT charges =   1.00000
 APT charges with hydrogens summed into heavy atoms:
               1
     1  C    0.373790
     2  C    0.326578
     3  C    0.373790
     4  C   -0.074158
 Electronic spatial extent (au):  <R**2>=            160.7307
 Charge=              1.0000 electrons
 Dipole moment (field-independent basis, Debye):
    X=             -0.0000    Y=              0.0000    Z=             -1.5043  Tot=              1.5043
 Quadrupole moment (field-independent basis, Debye-Ang):
   XX=            -19.3232   YY=            -16.7127   ZZ=            -15.7766
   XY=              0.0000   XZ=             -0.0000   YZ=              0.0000
 Traceless Quadrupole moment (field-independent basis, Debye-Ang):
   XX=             -2.0523   YY=              0.5581   ZZ=              1.4943
   XY=              0.0000   XZ=             -0.0000   YZ=              0.0000
 Octapole moment (field-independent basis, Debye-Ang**2):
  XXX=             -0.0000  YYY=              0.0000  ZZZ=             -9.5490  XYY=             -0.0000
  XXY=              0.0000  XXZ=             -1.2334  XZZ=             -0.0000  YZZ=             -0.0000
  YYZ=             -2.3063  XYZ=              0.0000
 Hexadecapole moment (field-independent basis, Debye-Ang**3):
 XXXX=            -19.2599 YYYY=            -41.3419 ZZZZ=           -178.5194 XXXY=              0.0000
 XXXZ=             -0.0000 YYYX=              0.0000 YYYZ=             -0.0000 ZZZX=             -0.0000
 ZZZY=             -0.0000 XXYY=            -10.0415 XXZZ=            -31.5166 YYZZ=            -30.8134
 XXYZ=             -0.0000 YYXZ=             -0.0000 ZZXY=              0.0000
 N-N= 6.862858751594D+01 E-N=-4.824788911670D+02  KE= 1.511205873640D+02
 Symmetry A1   KE= 1.108905563191D+02
 Symmetry A2   KE= 4.856266529267D-20
 Symmetry B1   KE= 3.622016368866D+00
 Symmetry B2   KE= 3.660801467612D+01
  Exact polarizability:  22.525   0.000  38.658  -0.000   0.000  60.459
 Approx polarizability:  29.745  -0.000  58.431   0.000   0.000 133.554
                          Isotropic Fermi Contact Couplings
        Atom                 a.u.       MegaHertz       Gauss      10(-4) cm-1
     1  C(13)              0.76670     287.30412     102.51725      95.83434
     2  C(13)              0.03855      14.44558       5.15454       4.81853
     3  C(13)              0.76670     287.30412     102.51725      95.83434
     4  C(13)              0.00476       1.78237       0.63599       0.59453
 --------------------------------------------------------
       Center         ----  Spin Dipole Couplings  ----
                      3XX-RR        3YY-RR        3ZZ-RR
 --------------------------------------------------------
     1   Atom       -0.287227      0.687534     -0.400307
     2   Atom        0.686139     -0.267755     -0.418383
     3   Atom       -0.287227      0.687534     -0.400307
     4   Atom       -0.058494      0.229013     -0.170519
 --------------------------------------------------------
                        XY            XZ            YZ
 --------------------------------------------------------
     1   Atom       -0.000000      0.000000     -0.210752
     2   Atom       -0.000000     -0.000000      0.000000
     3   Atom       -0.000000     -0.000000      0.210752
     4   Atom       -0.000000      0.000000     -0.000000
 --------------------------------------------------------


 ---------------------------------------------------------------------------------
              Anisotropic Spin Dipole Couplings in Principal Axis System
 ---------------------------------------------------------------------------------

       Atom             a.u.   MegaHertz   Gauss  10(-4) cm-1        Axes

              Baa    -0.4397   -59.005   -21.054   -19.682 -0.0000  0.1838  0.9830
     1 C(13)  Bbb    -0.2872   -38.543   -13.753   -12.857  1.0000  0.0000  0.0000
              Bcc     0.7269    97.548    34.808    32.538 -0.0000  0.9830 -0.1838
 
              Baa    -0.4184   -56.143   -20.033   -18.727  0.0000  0.0000  1.0000
     2 C(13)  Bbb    -0.2678   -35.930   -12.821   -11.985  0.0000  1.0000  0.0000
              Bcc     0.6861    92.073    32.854    30.712  1.0000 -0.0000  0.0000
 
              Baa    -0.4397   -59.005   -21.054   -19.682  0.0000 -0.1838  0.9830
     3 C(13)  Bbb    -0.2872   -38.543   -13.753   -12.857  1.0000  0.0000  0.0000
              Bcc     0.7269    97.548    34.808    32.538 -0.0000  0.9830  0.1838
 
              Baa    -0.1705   -22.882    -8.165    -7.633  0.0000  0.0000  1.0000
     4 C(13)  Bbb    -0.0585    -7.849    -2.801    -2.618  1.0000  0.0000  0.0000
              Bcc     0.2290    30.731    10.966    10.251 -0.0000  1.0000 -0.0000
 

 ---------------------------------------------------------------------------------

 No NMR shielding tensors so no spin-rotation constants.
 Leave Link  601 at Thu Jan 24 15:34:29 2019, MaxMem=    33554432 cpu:         0.2
 (Enter /apl/tryton/gaussian/09/d01/g09/l701.exe)
 Compute integral second derivatives.
 ... and contract with generalized density number  0.
 Leave Link  701 at Thu Jan 24 15:34:29 2019, MaxMem=    33554432 cpu:         0.2
 (Enter /apl/tryton/gaussian/09/d01/g09/l702.exe)
 L702 exits ... SP integral derivatives will be done elsewhere.
 Leave Link  702 at Thu Jan 24 15:34:29 2019, MaxMem=    33554432 cpu:         0.0
 (Enter /apl/tryton/gaussian/09/d01/g09/l703.exe)
 Compute integral second derivatives, UseDBF=F ICtDFT=           0.
 Integral derivatives from FoFJK, PRISM(SPDF).
 Calling FoFJK, ICntrl=    100127 FMM=F ISym2X=1 I1Cent= 0 IOpClX= 1 NMat=1 NMatS=1 NMatT=0.
 FoFJK:  IHMeth= 1 ICntrl=  100127 DoSepK=F KAlg= 0 I1Cent=   0 FoldK=F
 IRaf=         0 NMat=   1 IRICut=       1 DoRegI=T DoRafI=F ISym2E= 1.
 FoFCou: FMM=F IPFlag=           0 FMFlag=      100000 FMFlg1=         800
         NFxFlg=           0 DoJE=F BraDBF=F KetDBF=F FulRan=T
         wScrn=  0.000000 ICntrl=  100127 IOpCl=  1 I1Cent=           0 NGrid=           0
         NMat0=    1 NMatS0=      1 NMatT0=    0 NMatD0=    1 NMtDS0=    0 NMtDT0=    0
 Petite list used in FoFCou.
 Leave Link  703 at Thu Jan 24 15:34:34 2019, MaxMem=    33554432 cpu:         4.6
 (Enter /apl/tryton/gaussian/09/d01/g09/l716.exe)
 Dipole        =-2.87178462D-17 3.68118814D-15-5.91848975D-01
 Polarizability= 2.25246633D+01 1.82563376D-06 3.86584114D+01
                -7.91946606D-09 3.76533438D-06 6.04594328D+01
 Full mass-weighted force constant matrix:
 Low frequencies ---   -3.3034   -0.0011   -0.0004    0.0026    2.6295    5.3630
 Low frequencies ---  232.6700  323.0187  838.0096
 Diagonal vibrational polarizability:
        1.2303338      10.0132804       2.6102617
 Harmonic frequencies (cm**-1), IR intensities (KM/Mole), Raman scattering
 activities (A**4/AMU), depolarization ratios for plane and unpolarized
 incident light, reduced masses (AMU), force constants (mDyne/A),
 and normal coordinates:
                      1                      2                      3
                     B2                     B1                     A1
 Frequencies --    232.6699               323.0185               838.0096
 Red. masses --     12.0000                12.0000                12.0000
 Frc consts  --      0.3827                 0.7377                 4.9651
 IR Inten    --     18.9394                 4.7703                 0.1114
  Atom  AN      X      Y      Z        X      Y      Z        X      Y      Z
     1   6    -0.00   0.10   0.35     0.22   0.00   0.00     0.00   0.08   0.47
     2   6    -0.00   0.51   0.00     0.41   0.00   0.00     0.00   0.00  -0.70
     3   6    -0.00   0.10  -0.35     0.22   0.00  -0.00     0.00  -0.08   0.47
     4   6     0.00  -0.70  -0.00    -0.86  -0.00   0.00    -0.00   0.00  -0.24
                      4                      5                      6
                     B2                     A1                     A1
 Frequencies --    845.9003              1322.9995              1689.5450
 Red. masses --     12.0000                12.0000                12.0000
 Frc consts  --      5.0591                12.3752                20.1823
 IR Inten    --     15.9083               139.2431                49.3388
  Atom  AN      X      Y      Z        X      Y      Z        X      Y      Z
     1   6     0.00  -0.27   0.55    -0.00   0.35   0.12     0.00   0.61  -0.13
     2   6     0.00   0.03   0.00    -0.00  -0.00   0.48     0.00  -0.00  -0.18
     3   6     0.00  -0.27  -0.55    -0.00  -0.35   0.12     0.00  -0.61  -0.13
     4   6    -0.00   0.50   0.00     0.00   0.00  -0.71    -0.00   0.00   0.44

 -------------------
 - Thermochemistry -
 -------------------
 Temperature   298.150 Kelvin.  Pressure   1.00000 Atm.
 Atom     1 has atomic number  6 and mass  12.00000
 Atom     2 has atomic number  6 and mass  12.00000
 Atom     3 has atomic number  6 and mass  12.00000
 Atom     4 has atomic number  6 and mass  12.00000
 Molecular mass:    48.00000 amu.
 Principal axes and moments of inertia in atomic units:
                           1         2         3
     Eigenvalues --    37.18152 207.23727 244.41879
           X            0.00000  -0.00000   1.00000
           Y            0.00000   1.00000   0.00000
           Z            1.00000  -0.00000  -0.00000
 This molecule is an asymmetric top.
 Rotational symmetry number  2.
 Rotational temperatures (Kelvin)      2.32949     0.41795     0.35437
 Rotational constants (GHZ):          48.53866     8.70857     7.38381
 Zero-point vibrational energy      31414.8 (Joules/Mol)
                                    7.50831 (Kcal/Mol)
 Warning -- explicit consideration of   2 degrees of freedom as
           vibrations may cause significant error
 Vibrational temperatures:    334.76   464.75  1205.71  1217.06  1903.50
          (Kelvin)           2430.88
 
 Zero-point correction=                           0.011965 (Hartree/Particle)
 Thermal correction to Energy=                    0.015848
 Thermal correction to Enthalpy=                  0.016792
 Thermal correction to Gibbs Free Energy=        -0.013902
 Sum of electronic and zero-point Energies=           -151.662712
 Sum of electronic and thermal Energies=              -151.658830
 Sum of electronic and thermal Enthalpies=            -151.657885
 Sum of electronic and thermal Free Energies=         -151.688580
 
                     E (Thermal)             CV                S
                      KCal/Mol        Cal/Mol-Kelvin    Cal/Mol-Kelvin
 Total                    9.945             10.725             64.601
 Electronic               0.000              0.000              2.755
 Translational            0.889              2.981             37.530
 Rotational               0.889              2.981             20.782
 Vibrational              8.167              4.764              3.535
 Vibration     1          0.653              1.791              1.858
 Vibration     2          0.708              1.629              1.295
                       Q            Log10(Q)             Ln(Q)
 Total Bot       0.248018D+07          6.394484         14.723844
 Total V=0       0.790880D+12         11.898111         27.396412
 Vib (Bot)       0.610697D-05         -5.214174        -12.006080
 Vib (Bot)    1  0.845521D+00         -0.072876         -0.167802
 Vib (Bot)    2  0.580902D+00         -0.235897         -0.543172
 Vib (V=0)       0.194739D+01          0.289452          0.666488
 Vib (V=0)    1  0.148230D+01          0.170935          0.393592
 Vib (V=0)    2  0.126645D+01          0.102589          0.236219
 Electronic      0.400000D+01          0.602060          1.386294
 Translational   0.130712D+08          7.116317         16.385926
 Rotational      0.776750D+04          3.890281          8.957704
 
                                                                 min
                                                             IR Spectrum
 
     1                           1                                                                                                   
     6                           3                                   88                                     3      2                 
     9                           2                                   43                                     2      3                 
     0                           3                                   68                                     3      3                 
 
     X                           X                                   XX                                     X      X                 
     X                           X                                   X                                             X                 
     X                           X                                                                                 X                 
     X                           X                                                                                                   
     X                           X                                                                                                   
     X                           X                                                                                                   
     X                           X                                                                                                   
                                 X                                                                                                   
                                 X                                                                                                   
                                 X                                                                                                   
                                 X                                                                                                   
                                 X                                                                                                   
                                 X                                                                                                   
                                 X                                                                                                   
                                 X                                                                                                   
                                 X                                                                                                   
                                 X                                                                                                   
                                 X                                                                                                   
                                 X                                                                                                   
                                 X                                                                                                   
 
 ***** Axes restored to original set *****
 -------------------------------------------------------------------
 Center     Atomic                   Forces (Hartrees/Bohr)
 Number     Number              X              Y              Z
 -------------------------------------------------------------------
      1        6           0.000056914    0.000046062    0.000032902
      2        6           0.000051901    0.000040862    0.000075170
      3        6           0.000018853    0.000013590    0.000076834
      4        6          -0.000127668   -0.000100514   -0.000184905
 -------------------------------------------------------------------
 Cartesian Forces:  Max     0.000184905 RMS     0.000083413
 Z-matrix is all fixed cartesians, so copy forces.
 Force constants in Cartesian coordinates: 
                1             2             3             4             5 
      1  0.190645D+00
      2  0.159136D+00  0.137040D+00
      3 -0.157137D+00 -0.141623D+00  0.482456D+00
      4 -0.119071D-01 -0.134299D-01  0.200063D-02  0.107244D+00
      5 -0.127139D-01 -0.619587D-02  0.201290D-02  0.780723D-01  0.694855D-01
      6 -0.262987D-01 -0.213045D-01 -0.100734D-01  0.144838D+00  0.114067D+00
      7 -0.180791D+00 -0.156427D+00  0.219351D+00 -0.227294D-02 -0.552763D-02
      8 -0.155974D+00 -0.130924D+00  0.186916D+00 -0.481157D-02  0.275443D-03
      9  0.201449D+00  0.172165D+00 -0.241910D+00 -0.248820D-01 -0.197297D-01
     10  0.205238D-02  0.107207D-01 -0.642145D-01 -0.930642D-01 -0.598308D-01
     11  0.955170D-02  0.802536D-04 -0.473057D-01 -0.598308D-01 -0.635651D-01
     12 -0.180128D-01 -0.923746D-02 -0.230473D+00 -0.121957D+00 -0.963499D-01
                6             7             8             9            10 
      6  0.216474D+00
      7  0.341732D-02  0.315568D+00
      8  0.358772D-02  0.261603D+00  0.220951D+00
      9 -0.261789D-01 -0.138767D+00 -0.121203D+00  0.273622D+00
     10 -0.121957D+00 -0.132505D+00 -0.100817D+00 -0.377993D-01  0.223517D+00
     11 -0.963499D-01 -0.996480D-01 -0.903023D-01 -0.312324D-01  0.149927D+00
     12 -0.180222D+00 -0.840010D-01 -0.693006D-01 -0.553351D-02  0.223971D+00
               11            12 
     11  0.153787D+00
     12  0.174888D+00  0.416229D+00
 Leave Link  716 at Thu Jan 24 15:34:34 2019, MaxMem=    33554432 cpu:         0.0
 (Enter /apl/tryton/gaussian/09/d01/g09/l103.exe)

 GradGradGradGradGradGradGradGradGradGradGradGradGradGradGradGradGradGrad
 Berny optimization.
 Search for a local minimum.
 Step number   1 out of a maximum of    2
 All quantities printed in internal units (Hartrees-Bohrs-Radians)
 Second derivative matrix not updated -- analytic derivatives used.
 The second derivative matrix:
                          X1        Y1        Z1        X2        Y2
           X1           0.19065
           Y1           0.15914   0.13704
           Z1          -0.15714  -0.14162   0.48246
           X2          -0.01191  -0.01343   0.00200   0.10724
           Y2          -0.01271  -0.00620   0.00201   0.07807   0.06949
           Z2          -0.02630  -0.02130  -0.01007   0.14484   0.11407
           X3          -0.18079  -0.15643   0.21935  -0.00227  -0.00553
           Y3          -0.15597  -0.13092   0.18692  -0.00481   0.00028
           Z3           0.20145   0.17216  -0.24191  -0.02488  -0.01973
           X4           0.00205   0.01072  -0.06421  -0.09306  -0.05983
           Y4           0.00955   0.00008  -0.04731  -0.05983  -0.06357
           Z4          -0.01801  -0.00924  -0.23047  -0.12196  -0.09635
                          Z2        X3        Y3        Z3        X4
           Z2           0.21647
           X3           0.00342   0.31557
           Y3           0.00359   0.26160   0.22095
           Z3          -0.02618  -0.13877  -0.12120   0.27362
           X4          -0.12196  -0.13250  -0.10082  -0.03780   0.22352
           Y4          -0.09635  -0.09965  -0.09030  -0.03123   0.14993
           Z4          -0.18022  -0.08400  -0.06930  -0.00553   0.22397
                          Y4        Z4
           Y4           0.15379
           Z4           0.17489   0.41623
 ITU=  0
     Eigenvalues ---    0.02458   0.04738   0.31891   0.32495   0.79486
     Eigenvalues ---    1.29632
 Angle between quadratic step and forces=  18.96 degrees.
 ClnCor:  largest displacement from symmetrization is 4.09D-11 for atom     3.
 Linear search not attempted -- first point.
 ClnCor:  largest displacement from symmetrization is 4.01D-15 for atom     2.
 TrRot= -0.000000 -0.000000 -0.000000  0.000000  0.000000  0.000000
 Variable       Old X    -DE/DX   Delta X   Delta X   Delta X     New X
                                 (Linear)    (Quad)   (Total)
    X1        0.25387   0.00006   0.00000   0.00012   0.00012   0.25399
    Y1        0.15302   0.00005   0.00000   0.00010   0.00010   0.15312
    Z1        2.21947   0.00003   0.00000   0.00005   0.00005   2.21952
    X2       -1.64273   0.00005   0.00000   0.00002   0.00002  -1.64271
    Y2       -1.29334   0.00004   0.00000   0.00001   0.00001  -1.29333
    Z2       -2.37922   0.00008   0.00000   0.00003   0.00003  -2.37919
    X3        1.67692   0.00002   0.00000   0.00003   0.00003   1.67694
    Y3        1.36711   0.00001   0.00000   0.00002   0.00002   1.36713
    Z3        0.57695   0.00008   0.00000   0.00016   0.00016   0.57711
    X4       -0.28806  -0.00013   0.00000  -0.00016  -0.00016  -0.28822
    Y4       -0.22679  -0.00010   0.00000  -0.00013  -0.00013  -0.22692
    Z4       -0.41720  -0.00018   0.00000  -0.00024  -0.00024  -0.41744
         Item               Value     Threshold  Converged?
 Maximum Force            0.000185     0.000450     YES
 RMS     Force            0.000083     0.000300     YES
 Maximum Displacement     0.000237     0.001800     YES
 RMS     Displacement     0.000113     0.001200     YES
 Predicted change in Energy=-5.351211D-08
 Optimization completed.
    -- Stationary point found.
 GradGradGradGradGradGradGradGradGradGradGradGradGradGradGradGradGradGrad

 Leave Link  103 at Thu Jan 24 15:34:34 2019, MaxMem=    33554432 cpu:         0.0
 (Enter /apl/tryton/gaussian/09/d01/g09/l9999.exe)
 1\1\ CITASK-GV0222\Freq\UB3LYP\6-311++G(d,p)\C4(1+,4)\EERD\24-Jan-2019
 \0\\#p b3lyp/6-311++g(d,p) freq\\min\\1,4\C,0.1343442512,0.0809754057,
 1.174491229\C,-0.8692964129,-0.6844060733,-1.2590268539\C,0.8873856328
 ,0.7234424938,0.3053082296\C,-0.1524324713,-0.1200118265,-0.2207726061
 \\Version=ES64L-G09RevD.01\State=4-A2\HF=-151.6746775\S2=3.763156\S2-1
 =0.\S2A=3.750064\RMSD=2.833e-09\RMSF=8.341e-05\ZeroPoint=0.0119653\The
 rmal=0.0158479\Dipole=0.3069621,0.2416744,0.4445818\DipoleDeriv=0.2413
 367,-0.019478,0.1636624,-0.0125541,0.2464333,0.1253963,-0.1099722,-0.1
 000669,0.6335993,0.2633403,0.1713442,0.4426186,0.1713442,0.1740677,0.3
 520339,0.4426185,0.3520338,0.5423266,0.47571,0.1796874,-0.075508,0.172
 7635,0.4038627,-0.061756,0.1981266,0.1637073,0.2417971,0.0196131,-0.33
 15536,-0.530773,-0.3315536,0.1756363,-0.4156741,-0.530773,-0.4156742,-
 0.4177231\Polar=38.0012438,12.5320621,32.6874956,8.6938677,6.4440292,5
 0.9537681\PG=C02V [C2(C1C1),SGV(C2)]\NImag=0\\0.19064541,0.15913615,0.
 13703952,-0.15713722,-0.14162297,0.48245623,-0.01190713,-0.01342994,0.
 00200063,0.10724424,-0.01271388,-0.00619587,0.00201290,0.07807227,0.06
 948554,-0.02629870,-0.02130454,-0.01007336,0.14483837,0.11406669,0.216
 47443,-0.18079068,-0.15642695,0.21935109,-0.00227294,-0.00552763,0.003
 41732,0.31556838,-0.15597396,-0.13092391,0.18691577,-0.00481157,0.0002
 7544,0.00358772,0.26160253,0.22095077,0.20144870,0.17216497,-0.2419096
 6,-0.02488201,-0.01972972,-0.02617885,-0.13876742,-0.12120287,0.273622
 02,0.00205238,0.01072075,-0.06421450,-0.09306417,-0.05983076,-0.121956
 99,-0.13250477,-0.10081700,-0.03779928,0.22351656,0.00955170,0.0000802
 5,-0.04730571,-0.05983076,-0.06356510,-0.09634986,-0.09964795,-0.09030
 231,-0.03123238,0.14992701,0.15378717,-0.01801278,-0.00923746,-0.23047
 321,-0.12195699,-0.09634987,-0.18022221,-0.08400100,-0.06930063,-0.005
 53351,0.22397077,0.17488795,0.41622893\\-0.00005691,-0.00004606,-0.000
 03290,-0.00005190,-0.00004086,-0.00007517,-0.00001885,-0.00001359,-0.0
 0007683,0.00012767,0.00010051,0.00018491\\\@


 THERE IS AN OLD, OLD RECIPE IN MAINE FOR STEWING COOT. PLACE THE
 BIRD IN A KETTLE OF WATER WITH A RED BUILDING BRICK FREE OF MORTAR AND
 BLEMISHES. PARBOIL THE COOT AND BRICK TOGETHER FOR THREE HOURS.
 POUR OFF THE WATER, REFILL THE KETTLE, AND AGAIN PARBOIL FOR THREE HOURS.
 ONCE AGAIN POUR OFF THE WATER, FOR THE LAST TIME ADD FRESH WATER,
 AND LET THE COOT AND BRICK SIMMER TOGETHER OVERNIGHT. IN THE MORNING,
 THROW AWAY THE COOT AND EAT THE BRICK.
 Job cpu time:       0 days  0 hours  0 minutes 32.8 seconds.
 File lengths (MBytes):  RWF=      9 Int=      0 D2E=      0 Chk=      2 Scr=      1
 Normal termination of Gaussian 09 at Thu Jan 24 15:34:34 2019.
