 Entering Gaussian System, Link 0=g09
 Initial command:
 /apl/tryton/gaussian/09/d01/g09/l1.exe "/users/work/eerd/M3C-outputs/ionized/4/Gau-27292.inp" -scrdir="/users/work/eerd/M3C-outputs/ionized/4/"
 Entering Link 1 = /apl/tryton/gaussian/09/d01/g09/l1.exe PID=     27293.
  
 Copyright (c) 1988,1990,1992,1993,1995,1998,2003,2009,2013,
            Gaussian, Inc.  All Rights Reserved.
  
 This is part of the Gaussian(R) 09 program.  It is based on
 the Gaussian(R) 03 system (copyright 2003, Gaussian, Inc.),
 the Gaussian(R) 98 system (copyright 1998, Gaussian, Inc.),
 the Gaussian(R) 94 system (copyright 1995, Gaussian, Inc.),
 the Gaussian 92(TM) system (copyright 1992, Gaussian, Inc.),
 the Gaussian 90(TM) system (copyright 1990, Gaussian, Inc.),
 the Gaussian 88(TM) system (copyright 1988, Gaussian, Inc.),
 the Gaussian 86(TM) system (copyright 1986, Carnegie Mellon
 University), and the Gaussian 82(TM) system (copyright 1983,
 Carnegie Mellon University). Gaussian is a federally registered
 trademark of Gaussian, Inc.
  
 This software contains proprietary and confidential information,
 including trade secrets, belonging to Gaussian, Inc.
  
 This software is provided under written license and may be
 used, copied, transmitted, or stored only in accord with that
 written license.
  
 The following legend is applicable only to US Government
 contracts under FAR:
  
                    RESTRICTED RIGHTS LEGEND
  
 Use, reproduction and disclosure by the US Government is
 subject to restrictions as set forth in subparagraphs (a)
 and (c) of the Commercial Computer Software - Restricted
 Rights clause in FAR 52.227-19.
  
 Gaussian, Inc.
 340 Quinnipiac St., Bldg. 40, Wallingford CT 06492
  
  
 ---------------------------------------------------------------
 Warning -- This program may not be used in any manner that
 competes with the business of Gaussian, Inc. or will provide
 assistance to any competitor of Gaussian, Inc.  The licensee
 of this program is prohibited from giving any competitor of
 Gaussian, Inc. access to this program.  By using this program,
 the user acknowledges that Gaussian, Inc. is engaged in the
 business of creating and licensing software in the field of
 computational chemistry and represents and warrants to the
 licensee that it is not a competitor of Gaussian, Inc. and that
 it will not use this program in any manner prohibited above.
 ---------------------------------------------------------------
  

 Cite this work as:
 Gaussian 09, Revision D.01,
 M. J. Frisch, G. W. Trucks, H. B. Schlegel, G. E. Scuseria, 
 M. A. Robb, J. R. Cheeseman, G. Scalmani, V. Barone, B. Mennucci, 
 G. A. Petersson, H. Nakatsuji, M. Caricato, X. Li, H. P. Hratchian, 
 A. F. Izmaylov, J. Bloino, G. Zheng, J. L. Sonnenberg, M. Hada, 
 M. Ehara, K. Toyota, R. Fukuda, J. Hasegawa, M. Ishida, T. Nakajima, 
 Y. Honda, O. Kitao, H. Nakai, T. Vreven, J. A. Montgomery, Jr., 
 J. E. Peralta, F. Ogliaro, M. Bearpark, J. J. Heyd, E. Brothers, 
 K. N. Kudin, V. N. Staroverov, T. Keith, R. Kobayashi, J. Normand, 
 K. Raghavachari, A. Rendell, J. C. Burant, S. S. Iyengar, J. Tomasi, 
 M. Cossi, N. Rega, J. M. Millam, M. Klene, J. E. Knox, J. B. Cross, 
 V. Bakken, C. Adamo, J. Jaramillo, R. Gomperts, R. E. Stratmann, 
 O. Yazyev, A. J. Austin, R. Cammi, C. Pomelli, J. W. Ochterski, 
 R. L. Martin, K. Morokuma, V. G. Zakrzewski, G. A. Voth, 
 P. Salvador, J. J. Dannenberg, S. Dapprich, A. D. Daniels, 
 O. Farkas, J. B. Foresman, J. V. Ortiz, J. Cioslowski, 
 and D. J. Fox, Gaussian, Inc., Wallingford CT, 2013.
 
 ******************************************
 Gaussian 09:  ES64L-G09RevD.01 24-Apr-2013
                24-Jan-2019 
 ******************************************
 ---------------------------
 #p b3lyp/6-311++g(d,p) freq
 ---------------------------
 1/10=4,30=1,38=1/1,3;
 2/12=2,17=6,18=5,40=1/2;
 3/5=4,6=6,7=1111,11=2,16=1,25=1,30=1,71=2,74=-5,140=1/1,2,3;
 4//1;
 5/5=2,38=5,98=1/2;
 8/6=4,10=90,11=11/1;
 11/6=1,8=1,9=11,15=111,16=1/1,2,10;
 10/6=1/2;
 6/7=2,8=2,9=2,10=2,18=1,28=1/1;
 7/8=1,10=1,25=1/1,2,3,16;
 1/10=4,30=1/3;
 99//99;
 Leave Link    1 at Thu Jan 24 15:33:30 2019, MaxMem=           0 cpu:         0.0
 (Enter /apl/tryton/gaussian/09/d01/g09/l101.exe)
 ---
 min
 ---
 Symbolic Z-matrix:
 Charge =  1 Multiplicity = 2
 C                     0.02065   0.03543  -0.80736 
 C                    -0.02189   1.14944   0. 
 C                     0.02065   0.03543   0.80736 
 C                    -0.01942  -1.2203    0. 
 
 NAtoms=      4 NQM=        4 NQMF=       0 NMMI=      0 NMMIF=      0
                NMic=       0 NMicF=      0.
                    Isotopes and Nuclear Properties:
 (Nuclear quadrupole moments (NQMom) in fm**2, nuclear magnetic moments (NMagM)
  in nuclear magnetons)

  Atom         1           2           3           4
 IAtWgt=          12          12          12          12
 AtmWgt=  12.0000000  12.0000000  12.0000000  12.0000000
 NucSpn=           0           0           0           0
 AtZEff=   0.0000000   0.0000000   0.0000000   0.0000000
 NQMom=    0.0000000   0.0000000   0.0000000   0.0000000
 NMagM=    0.0000000   0.0000000   0.0000000   0.0000000
 AtZNuc=   6.0000000   6.0000000   6.0000000   6.0000000
 Leave Link  101 at Thu Jan 24 15:33:30 2019, MaxMem=    33554432 cpu:         0.0
 (Enter /apl/tryton/gaussian/09/d01/g09/l103.exe)

 GradGradGradGradGradGradGradGradGradGradGradGradGradGradGradGradGradGrad
 Berny optimization.
 Initialization pass.
 Trust Radius=3.00D-01 FncErr=1.00D-07 GrdErr=1.00D-07
 Number of steps in this run=      2 maximum allowed number of steps=      2.
 GradGradGradGradGradGradGradGradGradGradGradGradGradGradGradGradGradGrad

 Leave Link  103 at Thu Jan 24 15:33:30 2019, MaxMem=    33554432 cpu:         0.0
 (Enter /apl/tryton/gaussian/09/d01/g09/l202.exe)
                          Input orientation:                          
 ---------------------------------------------------------------------
 Center     Atomic      Atomic             Coordinates (Angstroms)
 Number     Number       Type             X           Y           Z
 ---------------------------------------------------------------------
      1          6           0        0.020653    0.035426   -0.807359
      2          6           0       -0.021888    1.149444    0.000000
      3          6           0        0.020653    0.035426    0.807359
      4          6           0       -0.019418   -1.220295    0.000000
 ---------------------------------------------------------------------
                    Distance matrix (angstroms):
                    1          2          3          4
     1  C    0.000000
     2  C    1.376472   0.000000
     3  C    1.614718   1.376472   0.000000
     4  C    1.493409   2.369740   1.493409   0.000000
 Stoichiometry    C4(1+,2)
 Framework group  CS[SG(C2),X(C2)]
 Deg. of freedom     4
 Full point group                 CS      NOp   2
 Largest Abelian subgroup         CS      NOp   2
 Largest concise Abelian subgroup CS      NOp   2
                         Standard orientation:                         
 ---------------------------------------------------------------------
 Center     Atomic      Atomic             Coordinates (Angstroms)
 Number     Number       Type             X           Y           Z
 ---------------------------------------------------------------------
      1          6           0       -0.021990    0.034612    0.807359
      2          6           0       -0.021990    1.149442   -0.000000
      3          6           0       -0.021990    0.034612   -0.807359
      4          6           0        0.065969   -1.218666    0.000000
 ---------------------------------------------------------------------
 Rotational constants (GHZ):     32.2629101     14.9632296     10.2307373
 Leave Link  202 at Thu Jan 24 15:33:30 2019, MaxMem=    33554432 cpu:         0.0
 (Enter /apl/tryton/gaussian/09/d01/g09/l301.exe)
 Standard basis: 6-311++G(d,p) (5D, 7F)
 Ernie: Thresh=  0.10000D-02 Tol=  0.10000D-05 Strict=F.
 There are    57 symmetry adapted cartesian basis functions of A'  symmetry.
 There are    35 symmetry adapted cartesian basis functions of A"  symmetry.
 There are    54 symmetry adapted basis functions of A'  symmetry.
 There are    34 symmetry adapted basis functions of A"  symmetry.
    88 basis functions,   144 primitive gaussians,    92 cartesian basis functions
    12 alpha electrons       11 beta electrons
       nuclear repulsion energy        73.0296062387 Hartrees.
 IExCor=  402 DFT=T Ex+Corr=B3LYP ExCW=0 ScaHFX=  0.200000
 ScaDFX=  0.800000  0.720000  1.000000  0.810000 ScalE2=  1.000000  1.000000
 IRadAn=      0 IRanWt=     -1 IRanGd=            0 ICorTp=0 IEmpDi=  4
 NAtoms=    4 NActive=    4 NUniq=    3 SFac= 1.78D+00 NAtFMM=   60 NAOKFM=F Big=F
 Integral buffers will be    131072 words long.
 Raffenetti 2 integral format.
 Two-electron integral symmetry is turned on.
 Leave Link  301 at Thu Jan 24 15:33:30 2019, MaxMem=    33554432 cpu:         0.0
 (Enter /apl/tryton/gaussian/09/d01/g09/l302.exe)
 NPDir=0 NMtPBC=     1 NCelOv=     1 NCel=       1 NClECP=     1 NCelD=      1
         NCelK=      1 NCelE2=     1 NClLst=     1 CellRange=     0.0.
 One-electron integrals computed using PRISM.
 One-electron integral symmetry used in STVInt
 NBasis=    88 RedAO= T EigKep=  3.94D-05  NBF=    54    34
 NBsUse=    88 1.00D-06 EigRej= -1.00D+00 NBFU=    54    34
 Precomputing XC quadrature grid using
 IXCGrd= 4 IRadAn=           0 IRanWt=          -1 IRanGd=           0 AccXCQ= 0.00D+00.
 Generated NRdTot=       0 NPtTot=           0 NUsed=           0 NTot=          32
 NSgBfM=    92    92    92    92    92 MxSgAt=     4 MxSgA2=     4.
 Leave Link  302 at Thu Jan 24 15:33:30 2019, MaxMem=    33554432 cpu:         0.1
 (Enter /apl/tryton/gaussian/09/d01/g09/l303.exe)
 DipDrv:  MaxL=1.
 Leave Link  303 at Thu Jan 24 15:33:30 2019, MaxMem=    33554432 cpu:         0.0
 (Enter /apl/tryton/gaussian/09/d01/g09/l401.exe)
 ExpMin= 4.38D-02 ExpMax= 4.56D+03 ExpMxC= 6.82D+02 IAcc=2 IRadAn=         4 AccDes= 0.00D+00
 Harris functional with IExCor=  402 and IRadAn=       4 diagonalized for initial guess.
 HarFok:  IExCor=  402 AccDes= 0.00D+00 IRadAn=         4 IDoV= 1 UseB2=F ITyADJ=14
 ICtDFT=  3500011 ScaDFX=  1.000000  1.000000  1.000000  1.000000
 FoFCou: FMM=F IPFlag=           0 FMFlag=      100000 FMFlg1=           0
         NFxFlg=           0 DoJE=T BraDBF=F KetDBF=T FulRan=T
         wScrn=  0.000000 ICntrl=     500 IOpCl=  0 I1Cent=   200000004 NGrid=           0
         NMat0=    1 NMatS0=      1 NMatT0=    0 NMatD0=    1 NMtDS0=    0 NMtDT0=    0
 Petite list used in FoFCou.
 Harris En= -151.787571391171    
 JPrj=0 DoOrth=F DoCkMO=F.
 Initial guess orbital symmetries:
 Alpha Orbitals:
       Occupied  (A') (A") (A') (A') (A') (A') (A") (A") (A') (A')
                 (A') (A')
       Virtual   (A') (A") (A") (A') (A') (A") (A') (A') (A") (A')
                 (A') (A') (A") (A') (A") (A') (A") (A') (A") (A")
                 (A') (A') (A") (A') (A') (A") (A') (A') (A") (A")
                 (A') (A') (A") (A') (A') (A') (A") (A') (A") (A')
                 (A') (A") (A') (A') (A") (A') (A") (A') (A') (A")
                 (A") (A') (A") (A') (A") (A') (A') (A") (A') (A")
                 (A') (A') (A") (A") (A') (A') (A') (A") (A') (A")
                 (A') (A") (A') (A') (A") (A')
 Beta  Orbitals:
       Occupied  (A') (A") (A') (A') (A') (A') (A") (A") (A') (A')
                 (A')
       Virtual   (A') (A') (A") (A") (A') (A') (A") (A') (A') (A")
                 (A') (A') (A') (A") (A') (A") (A') (A") (A') (A")
                 (A") (A') (A') (A") (A') (A') (A") (A') (A') (A")
                 (A") (A') (A') (A") (A') (A') (A') (A") (A') (A")
                 (A') (A') (A") (A') (A') (A") (A') (A") (A') (A')
                 (A") (A") (A') (A") (A') (A") (A') (A') (A") (A')
                 (A") (A') (A') (A") (A") (A') (A') (A') (A") (A')
                 (A") (A') (A") (A') (A') (A") (A')
 The electronic state of the initial guess is 2-A'.
 Initial guess <Sx>= 0.0000 <Sy>= 0.0000 <Sz>= 0.5000 <S**2>= 0.7500 S= 0.5000
 Leave Link  401 at Thu Jan 24 15:33:31 2019, MaxMem=    33554432 cpu:         0.2
 (Enter /apl/tryton/gaussian/09/d01/g09/l502.exe)
 UHF open shell SCF:
 Using DIIS extrapolation, IDIIS=  1040.
 Integral symmetry usage will be decided dynamically.
 Keep R1 and R2 ints in memory in symmetry-blocked form, NReq=11605900.
 IVT=       45282 IEndB=       45282 NGot=    33554432 MDV=    25799227
 LenX=    25799227 LenY=    25790322
 Requested convergence on RMS density matrix=1.00D-08 within 128 cycles.
 Requested convergence on MAX density matrix=1.00D-06.
 Requested convergence on             energy=1.00D-06.
 No special actions if energy rises.
 FoFCou: FMM=F IPFlag=           0 FMFlag=           0 FMFlg1=           0
         NFxFlg=           0 DoJE=F BraDBF=F KetDBF=F FulRan=T
         wScrn=  0.000000 ICntrl=     600 IOpCl=  0 I1Cent=           0 NGrid=           0
         NMat0=    1 NMatS0=   3916 NMatT0=    0 NMatD0=    1 NMtDS0=    0 NMtDT0=    0
 Petite list used in FoFCou.

 Cycle   1  Pass 1  IDiag  1:
 E= -151.686124193155    
 DIIS: error= 1.29D-02 at cycle   1 NSaved=   1.
 NSaved= 1 IEnMin= 1 EnMin= -151.686124193155     IErMin= 1 ErrMin= 1.29D-02
 ErrMax= 1.29D-02  0.00D+00 EMaxC= 1.00D-01 BMatC= 6.11D-02 BMatP= 6.11D-02
 IDIUse=3 WtCom= 8.71D-01 WtEn= 1.29D-01
 Coeff-Com:  0.100D+01
 Coeff-En:   0.100D+01
 Coeff:      0.100D+01
 Gap=     0.138 Goal=   None    Shift=    0.000
 Gap=     0.089 Goal=   None    Shift=    0.000
 GapD=    0.089 DampG=0.500 DampE=0.500 DampFc=0.2500 IDamp=-1.
 Damping current iteration by 2.50D-01
 RMSDP=8.44D-03 MaxDP=1.77D-01              OVMax= 1.02D-01

 Cycle   2  Pass 1  IDiag  1:
 E= -151.691426460031     Delta-E=       -0.005302266876 Rises=F Damp=T
 DIIS: error= 8.10D-03 at cycle   2 NSaved=   2.
 NSaved= 2 IEnMin= 2 EnMin= -151.691426460031     IErMin= 2 ErrMin= 8.10D-03
 ErrMax= 8.10D-03  0.00D+00 EMaxC= 1.00D-01 BMatC= 3.03D-02 BMatP= 6.11D-02
 IDIUse=3 WtCom= 9.19D-01 WtEn= 8.10D-02
 Coeff-Com: -0.156D+01 0.256D+01
 Coeff-En:   0.000D+00 0.100D+01
 Coeff:     -0.144D+01 0.244D+01
 Gap=     0.129 Goal=   None    Shift=    0.000
 Gap=     0.075 Goal=   None    Shift=    0.000
 RMSDP=7.23D-03 MaxDP=1.87D-01 DE=-5.30D-03 OVMax= 7.14D-02

 Cycle   3  Pass 1  IDiag  1:
 E= -151.699846661218     Delta-E=       -0.008420201187 Rises=F Damp=F
 DIIS: error= 1.16D-02 at cycle   3 NSaved=   3.
 NSaved= 3 IEnMin= 3 EnMin= -151.699846661218     IErMin= 2 ErrMin= 8.10D-03
 ErrMax= 1.16D-02  0.00D+00 EMaxC= 1.00D-01 BMatC= 2.17D-02 BMatP= 3.03D-02
 IDIUse=3 WtCom= 8.84D-01 WtEn= 1.16D-01
 Coeff-Com: -0.127D+01 0.180D+01 0.469D+00
 Coeff-En:   0.000D+00 0.000D+00 0.100D+01
 Coeff:     -0.113D+01 0.160D+01 0.530D+00
 Gap=     0.142 Goal=   None    Shift=    0.000
 Gap=     0.098 Goal=   None    Shift=    0.000
 RMSDP=1.82D-03 MaxDP=3.91D-02 DE=-8.42D-03 OVMax= 9.41D-02

 Cycle   4  Pass 1  IDiag  1:
 E= -151.702708327763     Delta-E=       -0.002861666544 Rises=F Damp=F
 DIIS: error= 9.80D-03 at cycle   4 NSaved=   4.
 NSaved= 4 IEnMin= 4 EnMin= -151.702708327763     IErMin= 2 ErrMin= 8.10D-03
 ErrMax= 9.80D-03  0.00D+00 EMaxC= 1.00D-01 BMatC= 1.20D-02 BMatP= 2.17D-02
 IDIUse=3 WtCom= 9.02D-01 WtEn= 9.80D-02
 Coeff-Com: -0.520D+00 0.702D+00 0.425D+00 0.393D+00
 Coeff-En:   0.000D+00 0.000D+00 0.394D+00 0.606D+00
 Coeff:     -0.469D+00 0.633D+00 0.422D+00 0.414D+00
 Gap=     0.141 Goal=   None    Shift=    0.000
 Gap=     0.092 Goal=   None    Shift=    0.000
 RMSDP=1.06D-03 MaxDP=2.21D-02 DE=-2.86D-03 OVMax= 4.56D-02

 Cycle   5  Pass 1  IDiag  1:
 E= -151.706221080548     Delta-E=       -0.003512752785 Rises=F Damp=F
 DIIS: error= 1.21D-03 at cycle   5 NSaved=   5.
 NSaved= 5 IEnMin= 5 EnMin= -151.706221080548     IErMin= 5 ErrMin= 1.21D-03
 ErrMax= 1.21D-03  0.00D+00 EMaxC= 1.00D-01 BMatC= 3.42D-04 BMatP= 1.20D-02
 IDIUse=3 WtCom= 9.88D-01 WtEn= 1.21D-02
 Coeff-Com: -0.786D-01 0.913D-01 0.182D+00 0.222D+00 0.584D+00
 Coeff-En:   0.000D+00 0.000D+00 0.000D+00 0.000D+00 0.100D+01
 Coeff:     -0.777D-01 0.902D-01 0.179D+00 0.219D+00 0.589D+00
 Gap=     0.134 Goal=   None    Shift=    0.000
 Gap=     0.092 Goal=   None    Shift=    0.000
 RMSDP=2.48D-04 MaxDP=7.37D-03 DE=-3.51D-03 OVMax= 4.61D-03

 Cycle   6  Pass 1  IDiag  1:
 E= -151.706330391947     Delta-E=       -0.000109311400 Rises=F Damp=F
 DIIS: error= 3.87D-04 at cycle   6 NSaved=   6.
 NSaved= 6 IEnMin= 6 EnMin= -151.706330391947     IErMin= 6 ErrMin= 3.87D-04
 ErrMax= 3.87D-04  0.00D+00 EMaxC= 1.00D-01 BMatC= 2.07D-05 BMatP= 3.42D-04
 IDIUse=3 WtCom= 9.96D-01 WtEn= 3.87D-03
 Coeff-Com:  0.706D-01-0.961D-01-0.287D-01-0.394D-01 0.195D-01 0.107D+01
 Coeff-En:   0.000D+00 0.000D+00 0.000D+00 0.000D+00 0.000D+00 0.100D+01
 Coeff:      0.703D-01-0.957D-01-0.286D-01-0.392D-01 0.195D-01 0.107D+01
 Gap=     0.133 Goal=   None    Shift=    0.000
 Gap=     0.093 Goal=   None    Shift=    0.000
 RMSDP=1.69D-04 MaxDP=3.96D-03 DE=-1.09D-04 OVMax= 1.07D-02

 Cycle   7  Pass 1  IDiag  1:
 E= -151.706366118311     Delta-E=       -0.000035726364 Rises=F Damp=F
 DIIS: error= 1.84D-04 at cycle   7 NSaved=   7.
 NSaved= 7 IEnMin= 7 EnMin= -151.706366118311     IErMin= 7 ErrMin= 1.84D-04
 ErrMax= 1.84D-04  0.00D+00 EMaxC= 1.00D-01 BMatC= 9.67D-06 BMatP= 2.07D-05
 IDIUse=3 WtCom= 9.98D-01 WtEn= 1.84D-03
 Coeff-Com:  0.267D-01-0.333D-01-0.283D-01-0.287D-01-0.158D+00 0.211D+00
 Coeff-Com:  0.101D+01
 Coeff-En:   0.000D+00 0.000D+00 0.000D+00 0.000D+00 0.000D+00 0.000D+00
 Coeff-En:   0.100D+01
 Coeff:      0.267D-01-0.332D-01-0.283D-01-0.287D-01-0.157D+00 0.210D+00
 Coeff:      0.101D+01
 Gap=     0.133 Goal=   None    Shift=    0.000
 Gap=     0.093 Goal=   None    Shift=    0.000
 RMSDP=9.90D-05 MaxDP=1.60D-03 DE=-3.57D-05 OVMax= 5.88D-03

 Cycle   8  Pass 1  IDiag  1:
 E= -151.706383641511     Delta-E=       -0.000017523199 Rises=F Damp=F
 DIIS: error= 1.53D-04 at cycle   8 NSaved=   8.
 NSaved= 8 IEnMin= 8 EnMin= -151.706383641511     IErMin= 8 ErrMin= 1.53D-04
 ErrMax= 1.53D-04  0.00D+00 EMaxC= 1.00D-01 BMatC= 3.21D-06 BMatP= 9.67D-06
 IDIUse=3 WtCom= 9.98D-01 WtEn= 1.53D-03
 Coeff-Com: -0.598D-02 0.818D-02 0.796D-02 0.141D-01 0.143D-01-0.116D+00
 Coeff-Com: -0.402D+00 0.148D+01
 Coeff-En:   0.000D+00 0.000D+00 0.000D+00 0.000D+00 0.000D+00 0.000D+00
 Coeff-En:   0.000D+00 0.100D+01
 Coeff:     -0.598D-02 0.817D-02 0.795D-02 0.141D-01 0.143D-01-0.115D+00
 Coeff:     -0.401D+00 0.148D+01
 Gap=     0.133 Goal=   None    Shift=    0.000
 Gap=     0.093 Goal=   None    Shift=    0.000
 RMSDP=9.40D-05 MaxDP=1.81D-03 DE=-1.75D-05 OVMax= 6.41D-03

 Cycle   9  Pass 1  IDiag  1:
 E= -151.706399310797     Delta-E=       -0.000015669287 Rises=F Damp=F
 DIIS: error= 1.52D-04 at cycle   9 NSaved=   9.
 NSaved= 9 IEnMin= 9 EnMin= -151.706399310797     IErMin= 9 ErrMin= 1.52D-04
 ErrMax= 1.52D-04  0.00D+00 EMaxC= 1.00D-01 BMatC= 2.41D-06 BMatP= 3.21D-06
 IDIUse=3 WtCom= 9.98D-01 WtEn= 1.52D-03
 Coeff-Com:  0.217D-02-0.289D-02-0.124D-02-0.691D-03 0.171D-01 0.473D-01
 Coeff-Com: -0.610D-01-0.369D+00 0.137D+01
 Coeff-En:   0.000D+00 0.000D+00 0.000D+00 0.000D+00 0.000D+00 0.000D+00
 Coeff-En:   0.000D+00 0.000D+00 0.100D+01
 Coeff:      0.217D-02-0.289D-02-0.124D-02-0.690D-03 0.171D-01 0.472D-01
 Coeff:     -0.609D-01-0.368D+00 0.137D+01
 Gap=     0.133 Goal=   None    Shift=    0.000
 Gap=     0.093 Goal=   None    Shift=    0.000
 RMSDP=7.88D-05 MaxDP=1.65D-03 DE=-1.57D-05 OVMax= 5.44D-03

 Cycle  10  Pass 1  IDiag  1:
 E= -151.706412732449     Delta-E=       -0.000013421651 Rises=F Damp=F
 DIIS: error= 1.48D-04 at cycle  10 NSaved=  10.
 NSaved=10 IEnMin=10 EnMin= -151.706412732449     IErMin=10 ErrMin= 1.48D-04
 ErrMax= 1.48D-04  0.00D+00 EMaxC= 1.00D-01 BMatC= 2.28D-06 BMatP= 2.41D-06
 IDIUse=3 WtCom= 9.99D-01 WtEn= 1.48D-03
 Coeff-Com:  0.951D-02-0.126D-01-0.101D-01-0.142D-01-0.352D-01 0.633D-01
 Coeff-Com:  0.506D+00-0.102D+01-0.183D+01 0.334D+01
 Coeff-En:   0.000D+00 0.000D+00 0.000D+00 0.000D+00 0.000D+00 0.000D+00
 Coeff-En:   0.000D+00 0.000D+00 0.000D+00 0.100D+01
 Coeff:      0.949D-02-0.126D-01-0.100D-01-0.142D-01-0.352D-01 0.632D-01
 Coeff:      0.505D+00-0.102D+01-0.183D+01 0.334D+01
 Gap=     0.133 Goal=   None    Shift=    0.000
 Gap=     0.093 Goal=   None    Shift=    0.000
 RMSDP=2.46D-04 MaxDP=5.18D-03 DE=-1.34D-05 OVMax= 1.70D-02

 Cycle  11  Pass 1  IDiag  1:
 E= -151.706453288276     Delta-E=       -0.000040555827 Rises=F Damp=F
 DIIS: error= 1.39D-04 at cycle  11 NSaved=  11.
 NSaved=11 IEnMin=11 EnMin= -151.706453288276     IErMin=11 ErrMin= 1.39D-04
 ErrMax= 1.39D-04  0.00D+00 EMaxC= 1.00D-01 BMatC= 2.18D-06 BMatP= 2.28D-06
 IDIUse=3 WtCom= 9.99D-01 WtEn= 1.39D-03
 Coeff-Com:  0.475D-02-0.583D-02-0.394D-02-0.816D-02-0.346D-01-0.104D+00
 Coeff-Com:  0.542D+00-0.114D+00-0.233D+01 0.762D+00 0.230D+01
 Coeff-En:   0.000D+00 0.000D+00 0.000D+00 0.000D+00 0.000D+00 0.000D+00
 Coeff-En:   0.000D+00 0.000D+00 0.000D+00 0.000D+00 0.100D+01
 Coeff:      0.474D-02-0.582D-02-0.393D-02-0.815D-02-0.345D-01-0.104D+00
 Coeff:      0.541D+00-0.114D+00-0.233D+01 0.761D+00 0.229D+01
 Gap=     0.134 Goal=   None    Shift=    0.000
 Gap=     0.094 Goal=   None    Shift=    0.000
 RMSDP=4.82D-04 MaxDP=9.96D-03 DE=-4.06D-05 OVMax= 3.30D-02

 Cycle  12  Pass 1  IDiag  1:
 E= -151.706521864010     Delta-E=       -0.000068575735 Rises=F Damp=F
 DIIS: error= 1.11D-04 at cycle  12 NSaved=  12.
 NSaved=12 IEnMin=12 EnMin= -151.706521864010     IErMin=12 ErrMin= 1.11D-04
 ErrMax= 1.11D-04  0.00D+00 EMaxC= 1.00D-01 BMatC= 2.23D-06 BMatP= 2.18D-06
 IDIUse=3 WtCom= 9.99D-01 WtEn= 1.11D-03
 Coeff-Com:  0.193D-02-0.141D-02 0.533D-02 0.127D-01 0.770D-01-0.176D+00
 Coeff-Com: -0.164D+00 0.462D+00 0.336D+01-0.412D+01-0.157D+00 0.171D+01
 Coeff-En:   0.000D+00 0.000D+00 0.000D+00 0.000D+00 0.000D+00 0.000D+00
 Coeff-En:   0.000D+00 0.000D+00 0.000D+00 0.000D+00 0.000D+00 0.100D+01
 Coeff:      0.193D-02-0.140D-02 0.532D-02 0.126D-01 0.769D-01-0.176D+00
 Coeff:     -0.164D+00 0.462D+00 0.335D+01-0.412D+01-0.156D+00 0.171D+01
 Gap=     0.134 Goal=   None    Shift=    0.000
 Gap=     0.094 Goal=   None    Shift=    0.000
 RMSDP=2.37D-04 MaxDP=4.50D-03 DE=-6.86D-05 OVMax= 1.56D-02

 Cycle  13  Pass 1  IDiag  1:
 E= -151.706547477192     Delta-E=       -0.000025613182 Rises=F Damp=F
 DIIS: error= 9.73D-05 at cycle  13 NSaved=  13.
 NSaved=13 IEnMin=13 EnMin= -151.706547477192     IErMin=13 ErrMin= 9.73D-05
 ErrMax= 9.73D-05  0.00D+00 EMaxC= 1.00D-01 BMatC= 1.25D-06 BMatP= 2.18D-06
 IDIUse=1 WtCom= 1.00D+00 WtEn= 0.00D+00
 Coeff-Com: -0.710D-02 0.884D-02 0.704D-02 0.702D-02 0.576D-01-0.424D-01
 Coeff-Com: -0.258D+00-0.364D-01 0.383D+01-0.265D+01-0.260D+01 0.840D+00
 Coeff-Com:  0.185D+01
 Coeff:     -0.710D-02 0.884D-02 0.704D-02 0.702D-02 0.576D-01-0.424D-01
 Coeff:     -0.258D+00-0.364D-01 0.383D+01-0.265D+01-0.260D+01 0.840D+00
 Coeff:      0.185D+01
 Gap=     0.135 Goal=   None    Shift=    0.000
 Gap=     0.095 Goal=   None    Shift=    0.000
 RMSDP=5.57D-04 MaxDP=1.06D-02 DE=-2.56D-05 OVMax= 3.65D-02

 Cycle  14  Pass 1  IDiag  1:
 E= -151.706576396546     Delta-E=       -0.000028919354 Rises=F Damp=F
 DIIS: error= 3.19D-05 at cycle  14 NSaved=  14.
 NSaved=14 IEnMin=14 EnMin= -151.706576396546     IErMin=14 ErrMin= 3.19D-05
 ErrMax= 3.19D-05  0.00D+00 EMaxC= 1.00D-01 BMatC= 3.07D-07 BMatP= 1.25D-06
 IDIUse=1 WtCom= 1.00D+00 WtEn= 0.00D+00
 Coeff-Com:  0.294D-02-0.393D-02-0.424D-02-0.276D-02-0.184D-03 0.604D-01
 Coeff-Com:  0.617D-01-0.492D+00-0.306D+00 0.161D+01-0.746D+00-0.414D+00
 Coeff-Com:  0.235D+00 0.100D+01
 Coeff:      0.294D-02-0.393D-02-0.424D-02-0.276D-02-0.184D-03 0.604D-01
 Coeff:      0.617D-01-0.492D+00-0.306D+00 0.161D+01-0.746D+00-0.414D+00
 Coeff:      0.235D+00 0.100D+01
 Gap=     0.135 Goal=   None    Shift=    0.000
 Gap=     0.095 Goal=   None    Shift=    0.000
 RMSDP=1.74D-04 MaxDP=3.56D-03 DE=-2.89D-05 OVMax= 1.19D-02

 Cycle  15  Pass 1  IDiag  1:
 E= -151.706573009472     Delta-E=        0.000003387074 Rises=F Damp=F
 DIIS: error= 4.42D-05 at cycle  15 NSaved=  15.
 NSaved=15 IEnMin=14 EnMin= -151.706576396546     IErMin=14 ErrMin= 3.19D-05
 ErrMax= 4.42D-05  0.00D+00 EMaxC= 1.00D-01 BMatC= 7.97D-07 BMatP= 3.07D-07
 IDIUse=1 WtCom= 1.00D+00 WtEn= 0.00D+00
 Coeff-Com: -0.266D-02 0.348D-02 0.465D-03-0.138D-02-0.133D-01 0.234D-02
 Coeff-Com:  0.414D-01 0.351D-01-0.691D+00 0.247D+00 0.622D+00-0.804D-01
 Coeff-Com: -0.492D+00 0.663D+00 0.666D+00
 Coeff:     -0.266D-02 0.348D-02 0.465D-03-0.138D-02-0.133D-01 0.234D-02
 Coeff:      0.414D-01 0.351D-01-0.691D+00 0.247D+00 0.622D+00-0.804D-01
 Coeff:     -0.492D+00 0.663D+00 0.666D+00
 Gap=     0.136 Goal=   None    Shift=    0.000
 Gap=     0.096 Goal=   None    Shift=    0.000
 RMSDP=2.16D-04 MaxDP=4.27D-03 DE= 3.39D-06 OVMax= 1.44D-02

 Cycle  16  Pass 1  IDiag  1:
 E= -151.706576555443     Delta-E=       -0.000003545971 Rises=F Damp=F
 DIIS: error= 2.04D-05 at cycle  16 NSaved=  16.
 NSaved=16 IEnMin=16 EnMin= -151.706576555443     IErMin=16 ErrMin= 2.04D-05
 ErrMax= 2.04D-05  0.00D+00 EMaxC= 1.00D-01 BMatC= 1.12D-07 BMatP= 3.07D-07
 IDIUse=1 WtCom= 1.00D+00 WtEn= 0.00D+00
 Coeff-Com:  0.280D-03-0.347D-03 0.243D-03-0.343D-04 0.591D-03-0.677D-02
 Coeff-Com: -0.812D-03 0.460D-01 0.194D-01-0.145D+00 0.143D+00-0.368D-01
 Coeff-Com: -0.460D-01-0.204D+00 0.258D+00 0.973D+00
 Coeff:      0.280D-03-0.347D-03 0.243D-03-0.343D-04 0.591D-03-0.677D-02
 Coeff:     -0.812D-03 0.460D-01 0.194D-01-0.145D+00 0.143D+00-0.368D-01
 Coeff:     -0.460D-01-0.204D+00 0.258D+00 0.973D+00
 Gap=     0.136 Goal=   None    Shift=    0.000
 Gap=     0.096 Goal=   None    Shift=    0.000
 RMSDP=4.80D-05 MaxDP=9.78D-04 DE=-3.55D-06 OVMax= 3.28D-03

 Cycle  17  Pass 1  IDiag  1:
 E= -151.706576776485     Delta-E=       -0.000000221042 Rises=F Damp=F
 DIIS: error= 4.37D-06 at cycle  17 NSaved=  17.
 NSaved=17 IEnMin=17 EnMin= -151.706576776485     IErMin=17 ErrMin= 4.37D-06
 ErrMax= 4.37D-06  0.00D+00 EMaxC= 1.00D-01 BMatC= 2.93D-09 BMatP= 1.12D-07
 IDIUse=1 WtCom= 1.00D+00 WtEn= 0.00D+00
 Coeff-Com:  0.147D-04-0.173D-04 0.269D-03 0.411D-03 0.170D-02-0.530D-02
 Coeff-Com: -0.869D-02 0.344D-01 0.112D+00-0.169D+00 0.286D-02 0.163D-01
 Coeff-Com:  0.554D-01-0.148D+00-0.114D+00 0.899D-01 0.113D+01
 Coeff:      0.147D-04-0.173D-04 0.269D-03 0.411D-03 0.170D-02-0.530D-02
 Coeff:     -0.869D-02 0.344D-01 0.112D+00-0.169D+00 0.286D-02 0.163D-01
 Coeff:      0.554D-01-0.148D+00-0.114D+00 0.899D-01 0.113D+01
 Gap=     0.136 Goal=   None    Shift=    0.000
 Gap=     0.096 Goal=   None    Shift=    0.000
 RMSDP=1.56D-05 MaxDP=2.98D-04 DE=-2.21D-07 OVMax= 1.03D-03

 Cycle  18  Pass 1  IDiag  1:
 E= -151.706576793095     Delta-E=       -0.000000016610 Rises=F Damp=F
 DIIS: error= 1.75D-06 at cycle  18 NSaved=  18.
 NSaved=18 IEnMin=18 EnMin= -151.706576793095     IErMin=18 ErrMin= 1.75D-06
 ErrMax= 1.75D-06  0.00D+00 EMaxC= 1.00D-01 BMatC= 9.11D-10 BMatP= 2.93D-09
 IDIUse=1 WtCom= 1.00D+00 WtEn= 0.00D+00
 Coeff-Com: -0.120D-03 0.157D-03 0.359D-04 0.130D-03 0.385D-03 0.540D-03
 Coeff-Com: -0.311D-02-0.273D-02 0.296D-01-0.189D-01-0.280D-01 0.133D-01
 Coeff-Com:  0.193D-01 0.211D-01-0.161D-01-0.154D+00 0.378D-01 0.110D+01
 Coeff:     -0.120D-03 0.157D-03 0.359D-04 0.130D-03 0.385D-03 0.540D-03
 Coeff:     -0.311D-02-0.273D-02 0.296D-01-0.189D-01-0.280D-01 0.133D-01
 Coeff:      0.193D-01 0.211D-01-0.161D-01-0.154D+00 0.378D-01 0.110D+01
 Gap=     0.136 Goal=   None    Shift=    0.000
 Gap=     0.096 Goal=   None    Shift=    0.000
 RMSDP=8.54D-07 MaxDP=1.58D-05 DE=-1.66D-08 OVMax= 5.47D-05

 Cycle  19  Pass 1  IDiag  1:
 E= -151.706576792634     Delta-E=        0.000000000460 Rises=F Damp=F
 DIIS: error= 1.28D-06 at cycle  19 NSaved=  19.
 NSaved=19 IEnMin=18 EnMin= -151.706576793095     IErMin=19 ErrMin= 1.28D-06
 ErrMax= 1.28D-06  0.00D+00 EMaxC= 1.00D-01 BMatC= 6.10D-10 BMatP= 9.11D-10
 IDIUse=1 WtCom= 1.00D+00 WtEn= 0.00D+00
 Coeff-Com:  0.197D-04-0.267D-04-0.693D-05-0.105D-04 0.114D-04 0.302D-03
 Coeff-Com: -0.633D-03-0.122D-02 0.982D-03 0.454D-02-0.352D-02 0.114D-03
 Coeff-Com:  0.746D-03 0.132D-02 0.268D-01-0.251D-01-0.110D+00-0.717D-01
 Coeff-Com:  0.118D+01
 Coeff:      0.197D-04-0.267D-04-0.693D-05-0.105D-04 0.114D-04 0.302D-03
 Coeff:     -0.633D-03-0.122D-02 0.982D-03 0.454D-02-0.352D-02 0.114D-03
 Coeff:      0.746D-03 0.132D-02 0.268D-01-0.251D-01-0.110D+00-0.717D-01
 Coeff:      0.118D+01
 Gap=     0.136 Goal=   None    Shift=    0.000
 Gap=     0.096 Goal=   None    Shift=    0.000
 RMSDP=5.73D-06 MaxDP=1.12D-04 DE= 4.60D-10 OVMax= 3.80D-04

 Cycle  20  Pass 1  IDiag  1:
 E= -151.706576794896     Delta-E=       -0.000000002262 Rises=F Damp=F
 DIIS: error= 3.95D-07 at cycle  20 NSaved=  20.
 NSaved=20 IEnMin=20 EnMin= -151.706576794896     IErMin=20 ErrMin= 3.95D-07
 ErrMax= 3.95D-07  0.00D+00 EMaxC= 1.00D-01 BMatC= 5.63D-11 BMatP= 6.10D-10
 IDIUse=1 WtCom= 1.00D+00 WtEn= 0.00D+00
 Coeff-Com: -0.777D-06 0.104D-05-0.173D-05-0.114D-04-0.206D-04-0.376D-05
 Coeff-Com:  0.278D-03-0.313D-03-0.106D-02 0.102D-02 0.922D-03-0.722D-03
 Coeff-Com: -0.129D-02 0.102D-02-0.555D-02 0.158D-01 0.170D-02-0.509D-01
 Coeff-Com: -0.559D-01 0.110D+01
 Coeff:     -0.777D-06 0.104D-05-0.173D-05-0.114D-04-0.206D-04-0.376D-05
 Coeff:      0.278D-03-0.313D-03-0.106D-02 0.102D-02 0.922D-03-0.722D-03
 Coeff:     -0.129D-02 0.102D-02-0.555D-02 0.158D-01 0.170D-02-0.509D-01
 Coeff:     -0.559D-01 0.110D+01
 Gap=     0.136 Goal=   None    Shift=    0.000
 Gap=     0.096 Goal=   None    Shift=    0.000
 RMSDP=1.34D-06 MaxDP=2.64D-05 DE=-2.26D-09 OVMax= 8.98D-05

 Cycle  21  Pass 1  IDiag  1:
 E= -151.706576795117     Delta-E=       -0.000000000221 Rises=F Damp=F
 DIIS: error= 1.76D-08 at cycle  21 NSaved=  20.
 NSaved=20 IEnMin=20 EnMin= -151.706576795117     IErMin=20 ErrMin= 1.76D-08
 ErrMax= 1.76D-08  0.00D+00 EMaxC= 1.00D-01 BMatC= 1.84D-14 BMatP= 5.63D-11
 IDIUse=1 WtCom= 1.00D+00 WtEn= 0.00D+00
 Coeff-Com:  0.168D-07 0.122D-05 0.293D-05 0.332D-05-0.898D-05-0.369D-04
 Coeff-Com:  0.176D-03 0.627D-04-0.364D-03 0.130D-03 0.808D-04 0.913D-04
 Coeff-Com: -0.305D-03 0.129D-03-0.115D-02 0.247D-02 0.753D-02-0.285D-01
 Coeff-Com: -0.167D+00 0.119D+01
 Coeff:      0.168D-07 0.122D-05 0.293D-05 0.332D-05-0.898D-05-0.369D-04
 Coeff:      0.176D-03 0.627D-04-0.364D-03 0.130D-03 0.808D-04 0.913D-04
 Coeff:     -0.305D-03 0.129D-03-0.115D-02 0.247D-02 0.753D-02-0.285D-01
 Coeff:     -0.167D+00 0.119D+01
 Gap=     0.136 Goal=   None    Shift=    0.000
 Gap=     0.096 Goal=   None    Shift=    0.000
 RMSDP=2.35D-08 MaxDP=4.44D-07 DE=-2.21D-10 OVMax= 1.51D-06

 Cycle  22  Pass 1  IDiag  1:
 E= -151.706576795118     Delta-E=       -0.000000000001 Rises=F Damp=F
 DIIS: error= 5.49D-09 at cycle  22 NSaved=  20.
 NSaved=20 IEnMin=20 EnMin= -151.706576795118     IErMin=20 ErrMin= 5.49D-09
 ErrMax= 5.49D-09  0.00D+00 EMaxC= 1.00D-01 BMatC= 1.57D-15 BMatP= 1.84D-14
 IDIUse=1 WtCom= 1.00D+00 WtEn= 0.00D+00
 Large coefficients: NSaved= 20 BigCof=    0.00 CofMax=   10.00 Det=-2.56D-15
 Inversion failed.  Reducing to 19 matrices.
 Large coefficients: NSaved= 19 BigCof=    0.00 CofMax=   10.00 Det=-3.43D-15
 Inversion failed.  Reducing to 18 matrices.
 Large coefficients: NSaved= 18 BigCof=    0.00 CofMax=   10.00 Det=-3.83D-15
 Inversion failed.  Reducing to 17 matrices.
 Large coefficients: NSaved= 17 BigCof=    0.00 CofMax=   10.00 Det=-4.75D-15
 Inversion failed.  Reducing to 16 matrices.
 Large coefficients: NSaved= 16 BigCof=    0.00 CofMax=   10.00 Det=-4.98D-15
 Inversion failed.  Reducing to 15 matrices.
 Coeff-Com: -0.159D-04 0.664D-04-0.278D-04-0.657D-04 0.346D-05 0.740D-04
 Coeff-Com: -0.588D-06 0.217D-04-0.334D-03-0.292D-04 0.194D-02 0.541D-03
 Coeff-Com: -0.113D-01-0.205D+00 0.121D+01
 Coeff:     -0.159D-04 0.664D-04-0.278D-04-0.657D-04 0.346D-05 0.740D-04
 Coeff:     -0.588D-06 0.217D-04-0.334D-03-0.292D-04 0.194D-02 0.541D-03
 Coeff:     -0.113D-01-0.205D+00 0.121D+01
 Gap=     0.136 Goal=   None    Shift=    0.000
 Gap=     0.096 Goal=   None    Shift=    0.000
 RMSDP=6.44D-09 MaxDP=1.23D-07 DE=-7.67D-13 OVMax= 4.07D-07

 SCF Done:  E(UB3LYP) =  -151.706576795     A.U. after   22 cycles
            NFock= 22  Conv=0.64D-08     -V/T= 2.0036
 <Sx>= 0.0000 <Sy>= 0.0000 <Sz>= 0.5000 <S**2>= 0.8252 S= 0.5369
 <L.S>= 0.000000000000E+00
 KE= 1.511579260185D+02 PE=-4.908313198202D+02 EE= 1.149372107678D+02
 Annihilation of the first spin contaminant:
 S**2 before annihilation     0.8252,   after     0.7506
 Leave Link  502 at Thu Jan 24 15:33:40 2019, MaxMem=    33554432 cpu:         8.9
 (Enter /apl/tryton/gaussian/09/d01/g09/l801.exe)
 DoSCS=F DFT=T ScalE2(SS,OS)=  1.000000  1.000000
 Range of M.O.s used for correlation:     1    88
 NBasis=    88 NAE=    12 NBE=    11 NFC=     0 NFV=     0
 NROrb=     88 NOA=    12 NOB=    11 NVA=    76 NVB=    77

 **** Warning!!: The largest alpha MO coefficient is  0.67207062D+02


 **** Warning!!: The largest beta MO coefficient is  0.69065698D+02


 **** Warning!!: The smallest beta delta epsilon is  0.95544980D-01

 Leave Link  801 at Thu Jan 24 15:33:40 2019, MaxMem=    33554432 cpu:         0.0
 (Enter /apl/tryton/gaussian/09/d01/g09/l1101.exe)
 Using compressed storage, NAtomX=     4.
 Will process      5 centers per pass.
 Leave Link 1101 at Thu Jan 24 15:33:40 2019, MaxMem=    33554432 cpu:         0.1
 (Enter /apl/tryton/gaussian/09/d01/g09/l1102.exe)
 Symmetrizing basis deriv contribution to polar:
 IMax=3 JMax=2 DiffMx= 0.00D+00
 Leave Link 1102 at Thu Jan 24 15:33:40 2019, MaxMem=    33554432 cpu:         0.0
 (Enter /apl/tryton/gaussian/09/d01/g09/l1110.exe)
 Forming Gx(P) for the SCF density, NAtomX=     4.
 Integral derivatives from FoFJK, PRISM(SPDF).
 Do as many integral derivatives as possible in FoFJK.
 G2DrvN: MDV=      33554296.
 G2DrvN: will do     5 centers at a time, making    1 passes.
 Calling FoFCou, ICntrl=  3107 FMM=F I1Cent=   0 AccDes= 0.00D+00.
 FoFJK:  IHMeth= 1 ICntrl=    3107 DoSepK=F KAlg= 0 I1Cent=   0 FoldK=F
 IRaf=         0 NMat=   1 IRICut=       1 DoRegI=T DoRafI=F ISym2E= 1.
 FoFCou: FMM=F IPFlag=           0 FMFlag=      100000 FMFlg1=           0
         NFxFlg=           0 DoJE=F BraDBF=F KetDBF=F FulRan=T
         wScrn=  0.000000 ICntrl=    3107 IOpCl=  1 I1Cent=           0 NGrid=           0
         NMat0=    1 NMatS0=      1 NMatT0=    0 NMatD0=    1 NMtDS0=    0 NMtDT0=    0
 Petite list used in FoFCou.
 End of G2Drv F.D. properties file   721 does not exist.
 End of G2Drv F.D. properties file   722 does not exist.
 End of G2Drv F.D. properties file   788 does not exist.
 Leave Link 1110 at Thu Jan 24 15:33:45 2019, MaxMem=    33554432 cpu:         5.5
 (Enter /apl/tryton/gaussian/09/d01/g09/l1002.exe)
 Minotr:  UHF open shell wavefunction.
          IDoAtm=1111
          Direct CPHF calculation.
          Differentiating once with respect to electric field.
                with respect to dipole field.
          Differentiating once with respect to nuclear coordinates.
          Using symmetry in CPHF.
          Requested convergence is 1.0D-08 RMS, and 1.0D-07 maximum.
          Secondary convergence is 1.0D-12 RMS, and 1.0D-12 maximum.
          NewPWx=T KeepS1=F KeepF1=F KeepIn=T MapXYZ=F SortEE=F KeepMc=T.
          MDV=      33554212 using IRadAn=       2.
 Generate precomputed XC quadrature information.
 Keep R1 and R2 ints in memory in symmetry-blocked form, NReq=11562634.
 FoFCou: FMM=F IPFlag=           0 FMFlag=           0 FMFlg1=           0
         NFxFlg=           0 DoJE=F BraDBF=F KetDBF=F FulRan=T
         wScrn=  0.000000 ICntrl=     600 IOpCl=  0 I1Cent=           0 NGrid=           0
         NMat0=    1 NMatS0=   3916 NMatT0=    0 NMatD0=    1 NMtDS0=    0 NMtDT0=    0
 Petite list used in FoFCou.
          Solving linear equations simultaneously, MaxMat=       0.
          There are    12 degrees of freedom in the 1st order CPHF.  IDoFFX=4 NUNeed=    12.
     12 vectors produced by pass  0 Test12= 1.47D-14 8.33D-09 XBig12= 2.98D+02 1.10D+01.
 AX will form    12 AO Fock derivatives at one time.
     12 vectors produced by pass  1 Test12= 1.47D-14 8.33D-09 XBig12= 7.94D+01 2.33D+00.
     12 vectors produced by pass  2 Test12= 1.47D-14 8.33D-09 XBig12= 4.31D+00 7.19D-01.
     12 vectors produced by pass  3 Test12= 1.47D-14 8.33D-09 XBig12= 1.39D-01 6.97D-02.
     12 vectors produced by pass  4 Test12= 1.47D-14 8.33D-09 XBig12= 2.77D-03 1.51D-02.
     12 vectors produced by pass  5 Test12= 1.47D-14 8.33D-09 XBig12= 6.06D-05 1.68D-03.
     12 vectors produced by pass  6 Test12= 1.47D-14 8.33D-09 XBig12= 6.89D-07 1.94D-04.
     11 vectors produced by pass  7 Test12= 1.47D-14 8.33D-09 XBig12= 3.70D-09 1.18D-05.
      6 vectors produced by pass  8 Test12= 1.47D-14 8.33D-09 XBig12= 1.56D-11 8.28D-07.
      2 vectors produced by pass  9 Test12= 1.47D-14 8.33D-09 XBig12= 6.63D-14 6.27D-08.
      1 vectors produced by pass 10 Test12= 1.47D-14 8.33D-09 XBig12= 4.06D-15 2.54D-08.
 InvSVY:  IOpt=1 It=  1 EMax= 1.78D-14
 Solved reduced A of dimension   104 with    12 vectors.
 FullF1:  Do perturbations    1 to    12.
 Isotropic polarizability for W=    0.000000       35.66 Bohr**3.
 End of Minotr F.D. properties file   721 does not exist.
 End of Minotr F.D. properties file   722 does not exist.
 End of Minotr F.D. properties file   788 does not exist.
 Leave Link 1002 at Thu Jan 24 15:34:06 2019, MaxMem=    33554432 cpu:        20.1
 (Enter /apl/tryton/gaussian/09/d01/g09/l601.exe)
 Copying SCF densities to generalized density rwf, IOpCl= 1 IROHF=0.

 **********************************************************************

            Population analysis using the SCF density.

 **********************************************************************

 Orbital symmetries:
 Alpha Orbitals:
       Occupied  (A') (A') (A') (A") (A') (A') (A") (A') (A") (A')
                 (A') (A')
       Virtual   (A') (A") (A") (A') (A') (A") (A') (A') (A') (A")
                 (A') (A') (A") (A") (A') (A') (A") (A') (A") (A')
                 (A") (A') (A") (A') (A') (A') (A") (A') (A") (A")
                 (A') (A') (A") (A') (A') (A') (A") (A') (A") (A')
                 (A') (A") (A') (A') (A") (A') (A") (A') (A') (A")
                 (A") (A') (A") (A") (A') (A') (A') (A') (A") (A")
                 (A') (A') (A") (A") (A') (A') (A') (A") (A') (A")
                 (A') (A") (A') (A') (A") (A')
 Beta  Orbitals:
       Occupied  (A') (A') (A') (A") (A') (A') (A") (A') (A") (A')
                 (A')
       Virtual   (A') (A') (A") (A") (A') (A') (A") (A') (A') (A')
                 (A") (A') (A') (A") (A") (A') (A') (A") (A') (A")
                 (A') (A") (A') (A") (A') (A') (A') (A") (A') (A")
                 (A") (A') (A') (A") (A') (A') (A') (A") (A") (A')
                 (A') (A') (A") (A') (A') (A") (A') (A") (A') (A')
                 (A") (A") (A') (A") (A") (A') (A') (A') (A") (A')
                 (A") (A') (A') (A") (A") (A') (A') (A') (A") (A')
                 (A") (A') (A") (A') (A') (A") (A')
 The electronic state is 2-A'.
 Alpha  occ. eigenvalues --  -10.62748 -10.61617 -10.60613 -10.60598  -1.32949
 Alpha  occ. eigenvalues --   -1.04168  -0.88845  -0.74535  -0.74054  -0.72747
 Alpha  occ. eigenvalues --   -0.60817  -0.59806
 Alpha virt. eigenvalues --   -0.46240  -0.40072  -0.35482  -0.25353  -0.15293
 Alpha virt. eigenvalues --   -0.14835  -0.12271  -0.11358  -0.09429  -0.08431
 Alpha virt. eigenvalues --   -0.06503  -0.05721  -0.05420  -0.04435  -0.03537
 Alpha virt. eigenvalues --   -0.00023   0.00205   0.00640   0.01720   0.01883
 Alpha virt. eigenvalues --    0.01895   0.06412   0.06671   0.07609   0.21592
 Alpha virt. eigenvalues --    0.25159   0.26464   0.26864   0.30465   0.30804
 Alpha virt. eigenvalues --    0.31221   0.34667   0.37423   0.37854   0.38475
 Alpha virt. eigenvalues --    0.40600   0.47734   0.56282   0.56373   0.64823
 Alpha virt. eigenvalues --    0.68368   0.70393   0.78223   0.88757   1.05715
 Alpha virt. eigenvalues --    1.12094   1.24124   1.33706   1.38819   1.40593
 Alpha virt. eigenvalues --    1.50550   1.54059   1.61881   1.62701   1.63616
 Alpha virt. eigenvalues --    1.64063   1.83842   1.86513   1.87922   1.93299
 Alpha virt. eigenvalues --    2.26251   2.43003   2.45264   2.46690   2.48597
 Alpha virt. eigenvalues --    2.56795   2.66421   2.90033   3.01091   3.12275
 Alpha virt. eigenvalues --    3.30677   3.49244  22.85333  23.36683  23.41602
 Alpha virt. eigenvalues --   23.80011
  Beta  occ. eigenvalues --  -10.61278 -10.61270 -10.60420 -10.60407  -1.32281
  Beta  occ. eigenvalues --   -1.02646  -0.87845  -0.73798  -0.73442  -0.66788
  Beta  occ. eigenvalues --   -0.57928
  Beta virt. eigenvalues --   -0.48373  -0.44952  -0.39859  -0.34166  -0.23650
  Beta virt. eigenvalues --   -0.15076  -0.14498  -0.12208  -0.10753  -0.09328
  Beta virt. eigenvalues --   -0.08088  -0.06300  -0.05633  -0.05410  -0.04126
  Beta virt. eigenvalues --   -0.03154   0.00369   0.00596   0.00685   0.01773
  Beta virt. eigenvalues --    0.02914   0.03364   0.06684   0.07056   0.08722
  Beta virt. eigenvalues --    0.21907   0.25411   0.26741   0.28122   0.30673
  Beta virt. eigenvalues --    0.30953   0.31605   0.35787   0.37840   0.38472
  Beta virt. eigenvalues --    0.40011   0.42331   0.48386   0.56748   0.57448
  Beta virt. eigenvalues --    0.65741   0.69328   0.70833   0.80822   0.89672
  Beta virt. eigenvalues --    1.06665   1.13924   1.25188   1.34228   1.40833
  Beta virt. eigenvalues --    1.42663   1.51000   1.55895   1.62890   1.63601
  Beta virt. eigenvalues --    1.65825   1.66526   1.85164   1.88822   1.89086
  Beta virt. eigenvalues --    1.95815   2.26782   2.43686   2.45380   2.47209
  Beta virt. eigenvalues --    2.49442   2.57374   2.67975   2.90955   3.04742
  Beta virt. eigenvalues --    3.12731   3.31958   3.50123  22.86018  23.37020
  Beta virt. eigenvalues --   23.41836  23.81224
          Condensed to atoms (all electrons):
               1          2          3          4
     1  C    4.902332   0.425547   0.135277   0.322274
     2  C    0.425547   4.849998   0.425547  -0.006104
     3  C    0.135277   0.425547   4.902332   0.322274
     4  C    0.322274  -0.006104   0.322274   5.095707
          Atomic-Atomic Spin Densities.
               1          2          3          4
     1  C    0.089503  -0.005983   0.017389   0.011335
     2  C   -0.005983   0.591109  -0.005983   0.022800
     3  C    0.017389  -0.005983   0.089503   0.011335
     4  C    0.011335   0.022800   0.011335   0.128097
 Mulliken charges and spin densities:
               1          2
     1  C    0.214570   0.112245
     2  C    0.305011   0.601943
     3  C    0.214570   0.112245
     4  C    0.265849   0.173567
 Sum of Mulliken charges =   1.00000   1.00000
 Mulliken charges and spin densities with hydrogens summed into heavy atoms:
               1          2
     1  C    0.214570   0.112245
     2  C    0.305011   0.601943
     3  C    0.214570   0.112245
     4  C    0.265849   0.173567
 APT charges:
               1
     1  C    0.214424
     2  C    0.206825
     3  C    0.214424
     4  C    0.364327
 Sum of APT charges =   1.00000
 APT charges with hydrogens summed into heavy atoms:
               1
     1  C    0.214424
     2  C    0.206825
     3  C    0.214424
     4  C    0.364327
 Electronic spatial extent (au):  <R**2>=            128.4670
 Charge=              1.0000 electrons
 Dipole moment (field-independent basis, Debye):
    X=             -0.1460    Y=              1.0537    Z=             -0.0000  Tot=              1.0638
 Quadrupole moment (field-independent basis, Debye-Ang):
   XX=            -17.9376   YY=            -17.1525   ZZ=            -19.0186
   XY=             -0.0118   XZ=             -0.0000   YZ=              0.0000
 Traceless Quadrupole moment (field-independent basis, Debye-Ang):
   XX=              0.0987   YY=              0.8837   ZZ=             -0.9824
   XY=             -0.0118   XZ=             -0.0000   YZ=              0.0000
 Octapole moment (field-independent basis, Debye-Ang**2):
  XXX=             -0.1140  YYY=              5.7441  ZZZ=              0.0000  XYY=             -0.5705
  XXY=              0.2834  XXZ=              0.0000  XZZ=             -0.0840  YZZ=              0.6035
  YYZ=              0.0000  XYZ=              0.0000
 Hexadecapole moment (field-independent basis, Debye-Ang**3):
 XXXX=            -17.1171 YYYY=           -107.2271 ZZZZ=            -60.4005 XXXY=              1.5439
 XXXZ=             -0.0000 YYYX=              2.0832 YYYZ=              0.0000 ZZZX=             -0.0000
 ZZZY=             -0.0000 XXYY=            -18.9884 XXZZ=            -12.4022 YYZZ=            -27.5621
 XXYZ=              0.0000 YYXZ=             -0.0000 ZZXY=              0.5838
 N-N= 7.302960623874D+01 E-N=-4.908313199633D+02  KE= 1.511579260185D+02
 Symmetry A'   KE= 1.126999910613D+02
 Symmetry A"   KE= 3.845793495720D+01
  Exact polarizability:  20.296  -1.416  52.640   0.000  -0.000  34.030
 Approx polarizability:  31.085  -0.771 116.218  -0.000   0.000  86.006
                          Isotropic Fermi Contact Couplings
        Atom                 a.u.       MegaHertz       Gauss      10(-4) cm-1
     1  C(13)              0.09029     101.50252      36.21862      33.85760
     2  C(13)              0.70582     793.47598     283.13195     264.67510
     3  C(13)              0.09029     101.50252      36.21862      33.85760
     4  C(13)             -0.01460     -16.41603      -5.85765      -5.47580
 --------------------------------------------------------
       Center         ----  Spin Dipole Couplings  ----
                      3XX-RR        3YY-RR        3ZZ-RR
 --------------------------------------------------------
     1   Atom       -0.099080      0.090958      0.008123
     2   Atom       -0.297168      0.678872     -0.381704
     3   Atom       -0.099080      0.090958      0.008123
     4   Atom       -0.150962      0.329538     -0.178577
 --------------------------------------------------------
                        XY            XZ            YZ
 --------------------------------------------------------
     1   Atom        0.000644      0.000148      0.086280
     2   Atom        0.036527     -0.000000     -0.000000
     3   Atom        0.000644     -0.000148     -0.086280
     4   Atom       -0.383930      0.000000     -0.000000
 --------------------------------------------------------


 ---------------------------------------------------------------------------------
              Anisotropic Spin Dipole Couplings in Principal Axis System
 ---------------------------------------------------------------------------------

       Atom             a.u.   MegaHertz   Gauss  10(-4) cm-1        Axes

              Baa    -0.0991   -13.296    -4.744    -4.435  1.0000 -0.0044  0.0021
     1 C(13)  Bbb    -0.0462    -6.195    -2.210    -2.066 -0.0041 -0.5325  0.8464
              Bcc     0.1452    19.491     6.955     6.501  0.0026  0.8464  0.5326
 
              Baa    -0.3817   -51.221   -18.277   -17.085  0.0000  0.0000  1.0000
     2 C(13)  Bbb    -0.2985   -40.060   -14.295   -13.363  0.9993 -0.0373  0.0000
              Bcc     0.6802    91.281    32.571    30.448  0.0373  0.9993 -0.0000
 
              Baa    -0.0991   -13.296    -4.744    -4.435  1.0000 -0.0044 -0.0021
     3 C(13)  Bbb    -0.0462    -6.195    -2.210    -2.066  0.0041  0.5325  0.8464
              Bcc     0.1452    19.491     6.955     6.501  0.0026  0.8464 -0.5326
 
              Baa    -0.3636   -48.794   -17.411   -16.276  0.8748  0.4845 -0.0000
     4 C(13)  Bbb    -0.1786   -23.963    -8.551    -7.993  0.0000  0.0000  1.0000
              Bcc     0.5422    72.757    25.962    24.269 -0.4845  0.8748 -0.0000
 

 ---------------------------------------------------------------------------------

 No NMR shielding tensors so no spin-rotation constants.
 Leave Link  601 at Thu Jan 24 15:34:06 2019, MaxMem=    33554432 cpu:         0.2
 (Enter /apl/tryton/gaussian/09/d01/g09/l701.exe)
 Compute integral second derivatives.
 ... and contract with generalized density number  0.
 Leave Link  701 at Thu Jan 24 15:34:06 2019, MaxMem=    33554432 cpu:         0.2
 (Enter /apl/tryton/gaussian/09/d01/g09/l702.exe)
 L702 exits ... SP integral derivatives will be done elsewhere.
 Leave Link  702 at Thu Jan 24 15:34:06 2019, MaxMem=    33554432 cpu:         0.0
 (Enter /apl/tryton/gaussian/09/d01/g09/l703.exe)
 Compute integral second derivatives, UseDBF=F ICtDFT=           0.
 Integral derivatives from FoFJK, PRISM(SPDF).
 Calling FoFJK, ICntrl=    100127 FMM=F ISym2X=1 I1Cent= 0 IOpClX= 1 NMat=1 NMatS=1 NMatT=0.
 FoFJK:  IHMeth= 1 ICntrl=  100127 DoSepK=F KAlg= 0 I1Cent=   0 FoldK=F
 IRaf=         0 NMat=   1 IRICut=       1 DoRegI=T DoRafI=F ISym2E= 1.
 FoFCou: FMM=F IPFlag=           0 FMFlag=      100000 FMFlg1=         800
         NFxFlg=           0 DoJE=F BraDBF=F KetDBF=F FulRan=T
         wScrn=  0.000000 ICntrl=  100127 IOpCl=  1 I1Cent=           0 NGrid=           0
         NMat0=    1 NMatS0=      1 NMatT0=    0 NMatD0=    1 NMtDS0=    0 NMtDT0=    0
 Petite list used in FoFCou.
 Leave Link  703 at Thu Jan 24 15:34:14 2019, MaxMem=    33554432 cpu:         8.2
 (Enter /apl/tryton/gaussian/09/d01/g09/l716.exe)
 Dipole        =-5.74554890D-02 4.14552370D-01-4.08801130D-15
 Polarizability= 2.02961605D+01-1.41600844D+00 5.26398275D+01
                 3.16587026D-07-8.49019511D-09 3.40301912D+01
 Full mass-weighted force constant matrix:
 Low frequencies ---   -8.3761   -0.0015    0.0003    0.0094    4.9105    7.1423
 Low frequencies ---  279.5361  409.2374  569.3170
 Diagonal vibrational polarizability:
        4.9823751       9.9327242       5.0813706
 Harmonic frequencies (cm**-1), IR intensities (KM/Mole), Raman scattering
 activities (A**4/AMU), depolarization ratios for plane and unpolarized
 incident light, reduced masses (AMU), force constants (mDyne/A),
 and normal coordinates:
                      1                      2                      3
                     A'                     A'                     A"
 Frequencies --    279.5360               409.2374               569.3170
 Red. masses --     12.0000                12.0000                12.0000
 Frc consts  --      0.5525                 1.1841                 2.2916
 IR Inten    --     19.9918                41.9249                61.1726
  Atom  AN      X      Y      Z        X      Y      Z        X      Y      Z
     1   6     0.48  -0.04   0.19    -0.14  -0.17   0.53     0.03  -0.22  -0.47
     2   6    -0.50   0.00  -0.00     0.16  -0.18   0.00    -0.00  -0.00   0.35
     3   6     0.48  -0.04  -0.19    -0.14  -0.17  -0.53    -0.03   0.22  -0.47
     4   6    -0.45   0.09  -0.00     0.11   0.52   0.00    -0.00  -0.00   0.59
                      4                      5                      6
                     A'                     A"                     A'
 Frequencies --   1109.2149              1202.7236              1286.2201
 Red. masses --     12.0000                12.0000                12.0000
 Frc consts  --      8.6989                10.2273                11.6967
 IR Inten    --     32.3462                 0.1250                36.0047
  Atom  AN      X      Y      Z        X      Y      Z        X      Y      Z
     1   6    -0.03   0.37   0.40    -0.01   0.54  -0.18    -0.03  -0.29   0.16
     2   6     0.01  -0.10  -0.00    -0.00  -0.00   0.56     0.03   0.84   0.00
     3   6    -0.03   0.37  -0.40     0.01  -0.54  -0.18    -0.03  -0.29  -0.16
     4   6     0.06  -0.63   0.00    -0.00   0.00  -0.20     0.04  -0.26  -0.00

 -------------------
 - Thermochemistry -
 -------------------
 Temperature   298.150 Kelvin.  Pressure   1.00000 Atm.
 Atom     1 has atomic number  6 and mass  12.00000
 Atom     2 has atomic number  6 and mass  12.00000
 Atom     3 has atomic number  6 and mass  12.00000
 Atom     4 has atomic number  6 and mass  12.00000
 Molecular mass:    48.00000 amu.
 Principal axes and moments of inertia in atomic units:
                           1         2         3
     Eigenvalues --    55.93857 120.61174 176.40383
           X           -0.03816   0.00000   0.99927
           Y            0.99927   0.00000   0.03816
           Z           -0.00000   1.00000   0.00000
 This molecule is an asymmetric top.
 Rotational symmetry number  1.
 Rotational temperatures (Kelvin)      1.54837     0.71812     0.49100
 Rotational constants (GHZ):          32.26291    14.96323    10.23074
 Zero-point vibrational energy      29046.8 (Joules/Mol)
                                    6.94236 (Kcal/Mol)
 Warning -- explicit consideration of   3 degrees of freedom as
           vibrations may cause significant error
 Vibrational temperatures:    402.19   588.80   819.12  1595.91  1730.45
          (Kelvin)           1850.58
 
 Zero-point correction=                           0.011063 (Hartree/Particle)
 Thermal correction to Energy=                    0.014873
 Thermal correction to Enthalpy=                  0.015817
 Thermal correction to Gibbs Free Energy=        -0.014455
 Sum of electronic and zero-point Energies=           -151.695513
 Sum of electronic and thermal Energies=              -151.691704
 Sum of electronic and thermal Enthalpies=            -151.690760
 Sum of electronic and thermal Free Energies=         -151.721031
 
                     E (Thermal)             CV                S
                      KCal/Mol        Cal/Mol-Kelvin    Cal/Mol-Kelvin
 Total                    9.333             10.851             63.712
 Electronic               0.000              0.000              1.377
 Translational            0.889              2.981             37.530
 Rotational               0.889              2.981             21.703
 Vibrational              7.555              4.889              3.101
 Vibration     1          0.680              1.711              1.537
 Vibration     2          0.774              1.450              0.929
 Vibration     3          0.925              1.098              0.506
                       Q            Log10(Q)             Ln(Q)
 Total Bot       0.445256D+07          6.648610         15.308990
 Total V=0       0.546244D+12         11.737386         27.026331
 Vib (Bot)       0.137915D-04         -4.860388        -11.191457
 Vib (Bot)    1  0.687957D+00         -0.162439         -0.374028
 Vib (Bot)    2  0.432568D+00         -0.363945         -0.838015
 Vib (Bot)    3  0.270516D+00         -0.567807         -1.307425
 Vib (V=0)       0.169195D+01          0.228388          0.525884
 Vib (V=0)    1  0.135046D+01          0.130482          0.300447
 Vib (V=0)    2  0.116115D+01          0.064887          0.149408
 Vib (V=0)    3  0.106849D+01          0.028770          0.066245
 Electronic      0.200000D+01          0.301030          0.693147
 Translational   0.130712D+08          7.116317         16.385926
 Rotational      0.123495D+05          4.091651          9.421374
 
                                                                 min
                                                             IR Spectrum
 
     1        1        1                                                                                                             
     2        2        1                                                    5               4            2                           
     8        0        0                                                    6               0            8                           
     6        3        9                                                    9               9            0                           
 
     X        X        X                                                    X               X            X                           
     X                 X                                                    X               X            X                           
     X                 X                                                    X               X            X                           
     X                 X                                                    X               X            X                           
     X                 X                                                    X               X            X                           
     X                 X                                                    X               X            X                           
     X                 X                                                    X               X            X                           
     X                 X                                                    X               X                                        
     X                 X                                                    X               X                                        
     X                 X                                                    X               X                                        
     X                 X                                                    X               X                                        
     X                                                                      X               X                                        
                                                                            X               X                                        
                                                                            X               X                                        
                                                                            X                                                        
                                                                            X                                                        
                                                                            X                                                        
                                                                            X                                                        
                                                                            X                                                        
                                                                            X                                                        
 
 ***** Axes restored to original set *****
 -------------------------------------------------------------------
 Center     Atomic                   Forces (Hartrees/Bohr)
 Number     Number              X              Y              Z
 -------------------------------------------------------------------
      1        6           0.000001029   -0.000011770   -0.000004950
      2        6          -0.000002678    0.000018260    0.000000000
      3        6           0.000001029   -0.000011770    0.000004950
      4        6           0.000000620    0.000005279    0.000000000
 -------------------------------------------------------------------
 Cartesian Forces:  Max     0.000018260 RMS     0.000007622
 Z-matrix is all fixed cartesians, so copy forces.
 Force constants in Cartesian coordinates: 
                1             2             3             4             5 
      1  0.115067D-01
      2 -0.892346D-02  0.339991D+00
      3 -0.152325D-01  0.756502D-02  0.181432D+00
      4 -0.122922D-01  0.116089D-01  0.119379D-01  0.134567D-01
      5  0.250244D-01 -0.200157D+00 -0.698783D-01 -0.338597D-01  0.538757D+00
      6  0.472381D-02 -0.186760D+00 -0.883258D-01  0.000000D+00  0.000000D+00
      7  0.112489D-01 -0.362036D-02 -0.972028D-02 -0.122922D-01  0.250243D-01
      8 -0.362036D-02 -0.596386D-01 -0.879707D-01  0.116089D-01 -0.200157D+00
      9  0.972028D-02  0.879707D-01 -0.761788D-01 -0.119379D-01  0.698784D-01
     10 -0.104633D-01  0.934953D-03  0.130149D-01  0.111277D-01 -0.161890D-01
     11 -0.124805D-01 -0.801954D-01  0.150284D+00  0.106419D-01 -0.138443D+00
     12  0.788331D-03  0.912240D-01 -0.169275D-01  0.000000D+00  0.000000D+00
                6             7             8             9            10 
      6  0.220873D+00
      7 -0.472380D-02  0.115067D-01
      8  0.186760D+00 -0.892346D-02  0.339991D+00
      9 -0.883258D-01  0.152325D-01 -0.756502D-02  0.181432D+00
     10  0.000000D+00 -0.104633D-01  0.934939D-03 -0.130148D-01  0.979895D-02
     11  0.000000D+00 -0.124805D-01 -0.801954D-01 -0.150284D+00  0.143191D-01
     12 -0.442213D-01 -0.788334D-03 -0.912240D-01 -0.169276D-01  0.000000D+00
               11            12 
     11  0.298834D+00
     12  0.000000D+00  0.780764D-01
 Leave Link  716 at Thu Jan 24 15:34:14 2019, MaxMem=    33554432 cpu:         0.0
 (Enter /apl/tryton/gaussian/09/d01/g09/l103.exe)

 GradGradGradGradGradGradGradGradGradGradGradGradGradGradGradGradGradGrad
 Berny optimization.
 Search for a local minimum.
 Step number   1 out of a maximum of    2
 All quantities printed in internal units (Hartrees-Bohrs-Radians)
 Second derivative matrix not updated -- analytic derivatives used.
 The second derivative matrix:
                          X1        Y1        Z1        X2        Y2
           X1           0.01151
           Y1          -0.00892   0.33999
           Z1          -0.01523   0.00757   0.18143
           X2          -0.01229   0.01161   0.01194   0.01346
           Y2           0.02502  -0.20016  -0.06988  -0.03386   0.53876
           Z2           0.00472  -0.18676  -0.08833  -0.00000  -0.00000
           X3           0.01125  -0.00362  -0.00972  -0.01229   0.02502
           Y3          -0.00362  -0.05964  -0.08797   0.01161  -0.20016
           Z3           0.00972   0.08797  -0.07618  -0.01194   0.06988
           X4          -0.01046   0.00093   0.01301   0.01113  -0.01619
           Y4          -0.01248  -0.08020   0.15028   0.01064  -0.13844
           Z4           0.00079   0.09122  -0.01693   0.00000   0.00000
                          Z2        X3        Y3        Z3        X4
           Z2           0.22087
           X3          -0.00472   0.01151
           Y3           0.18676  -0.00892   0.33999
           Z3          -0.08833   0.01523  -0.00757   0.18143
           X4          -0.00000  -0.01046   0.00093  -0.01301   0.00980
           Y4           0.00000  -0.01248  -0.08020  -0.15028   0.01432
           Z4          -0.04422  -0.00079  -0.09122  -0.01693   0.00000
                          Y4        Z4
           Y4           0.29883
           Z4           0.00000   0.07808
 ITU=  0
     Eigenvalues ---    0.03549   0.07605   0.14719   0.55873   0.65691
     Eigenvalues ---    0.75128
 Angle between quadratic step and forces=  55.53 degrees.
 ClnCor:  largest displacement from symmetrization is 2.38D-12 for atom     3.
 Linear search not attempted -- first point.
 ClnCor:  largest displacement from symmetrization is 1.33D-15 for atom     2.
 TrRot=  0.000000  0.000000  0.000000  0.000000  0.000000  0.000000
 Variable       Old X    -DE/DX   Delta X   Delta X   Delta X     New X
                                 (Linear)    (Quad)   (Total)
    X1        0.03903   0.00000   0.00000  -0.00001  -0.00001   0.03902
    Y1        0.06695  -0.00001   0.00000  -0.00004  -0.00004   0.06691
    Z1       -1.52569  -0.00000   0.00000  -0.00007  -0.00007  -1.52576
    X2       -0.04136  -0.00000   0.00000   0.00001   0.00001  -0.04135
    Y2        2.17213   0.00002   0.00000   0.00001   0.00001   2.17214
    Z2        0.00000   0.00000   0.00000   0.00000   0.00000   0.00000
    X3        0.03903   0.00000   0.00000  -0.00001  -0.00001   0.03902
    Y3        0.06695  -0.00001   0.00000  -0.00004  -0.00004   0.06691
    Z3        1.52569   0.00000   0.00000   0.00007   0.00007   1.52576
    X4       -0.03669   0.00000   0.00000   0.00001   0.00001  -0.03668
    Y4       -2.30602   0.00001   0.00000   0.00007   0.00007  -2.30595
    Z4       -0.00000   0.00000   0.00000   0.00000   0.00000  -0.00000
         Item               Value     Threshold  Converged?
 Maximum Force            0.000018     0.000450     YES
 RMS     Force            0.000008     0.000300     YES
 Maximum Displacement     0.000074     0.001800     YES
 RMS     Displacement     0.000041     0.001200     YES
 Predicted change in Energy=-1.053396D-09
 Optimization completed.
    -- Stationary point found.
 GradGradGradGradGradGradGradGradGradGradGradGradGradGradGradGradGradGrad

 Leave Link  103 at Thu Jan 24 15:34:14 2019, MaxMem=    33554432 cpu:         0.0
 (Enter /apl/tryton/gaussian/09/d01/g09/l9999.exe)
 1\1\ CITASK-GV0235\Freq\UB3LYP\6-311++G(d,p)\C4(1+,2)\EERD\24-Jan-2019
 \0\\#p b3lyp/6-311++g(d,p) freq\\min\\1,2\C,0.020653,0.035426,-0.80735
 9\C,-0.021888,1.149444,0.0000000146\C,0.020653,0.0354259795,0.80735900
 09\C,-0.019418,-1.220295,-0.0000000155\\Version=ES64L-G09RevD.01\State
 =2-A'\HF=-151.7065768\S2=0.825168\S2-1=0.\S2A=0.750596\RMSD=6.439e-09\
 RMSF=7.622e-06\ZeroPoint=0.0110633\Thermal=0.0148729\Dipole=0.0415947,
 0.4164429,0.\DipoleDeriv=0.4507419,-0.0093562,0.0337938,0.0611743,0.33
 86286,0.2552239,0.0609843,0.7830243,-0.1460987,0.1324475,0.0039674,0.,
 -0.1792322,-0.1008343,-0.0000002,-0.0000002,0.,0.5888629,0.4507417,-0.
 0093562,-0.0337938,0.0611743,0.3386287,-0.2552239,-0.0609841,-0.783024
 3,-0.1460987,-0.0339311,0.0147451,0.,0.0568837,0.4235771,0.,0.,0.,0.70
 33346\Polar=20.2352681,0.1785757,52.7007199,0.0000003,0.0000003,34.030
 1912\PG=CS [SG(C2),X(C2)]\NImag=0\\0.01150670,-0.00892346,0.33999075,-
 0.01523249,0.00756502,0.18143217,-0.01229221,0.01160888,0.01193792,0.0
 1345673,0.02502438,-0.20015676,-0.06987833,-0.03385968,0.53875703,0.00
 472381,-0.18675981,-0.08832584,-0.00000003,-0.00000007,0.22087308,0.01
 124885,-0.00362036,-0.00972028,-0.01229223,0.02502430,-0.00472380,0.01
 150670,-0.00362036,-0.05963858,-0.08797072,0.01160887,-0.20015681,0.18
 675981,-0.00892346,0.33999075,0.00972028,0.08797072,-0.07617885,-0.011
 93790,0.06987839,-0.08832583,0.01523249,-0.00756502,0.18143217,-0.0104
 6331,0.00093495,0.01301487,0.01112770,-0.01618900,-0.00000003,-0.01046
 334,0.00093494,-0.01301484,0.00979895,-0.01248054,-0.08019540,0.150284
 05,0.01064194,-0.13844344,0.00000002,-0.01248051,-0.08019538,-0.150284
 07,0.01431911,0.29883422,0.00078833,0.09122403,-0.01692755,0.,0.,-0.04
 422128,-0.00078833,-0.09122404,-0.01692755,0.,0.,0.07807638\\-0.000001
 03,0.00001177,0.00000495,0.00000268,-0.00001826,0.,-0.00000103,0.00001
 177,-0.00000495,-0.00000062,-0.00000528,0.\\\@


 TO DRY ONE'S EYES AND LAUGH AT A FALL
 AND BAFFLED, GET UP AND BEGIN AGAIN.
           R. BROWNING
 Job cpu time:       0 days  0 hours  0 minutes 44.1 seconds.
 File lengths (MBytes):  RWF=      9 Int=      0 D2E=      0 Chk=      2 Scr=      1
 Normal termination of Gaussian 09 at Thu Jan 24 15:34:14 2019.
