 Entering Gaussian System, Link 0=g09
 Initial command:
 /apl/tryton/gaussian/09/d01/g09/l1.exe "/users/work/eerd/M3C-outputs/ionized/4/Gau-579.inp" -scrdir="/users/work/eerd/M3C-outputs/ionized/4/"
 Entering Link 1 = /apl/tryton/gaussian/09/d01/g09/l1.exe PID=       580.
  
 Copyright (c) 1988,1990,1992,1993,1995,1998,2003,2009,2013,
            Gaussian, Inc.  All Rights Reserved.
  
 This is part of the Gaussian(R) 09 program.  It is based on
 the Gaussian(R) 03 system (copyright 2003, Gaussian, Inc.),
 the Gaussian(R) 98 system (copyright 1998, Gaussian, Inc.),
 the Gaussian(R) 94 system (copyright 1995, Gaussian, Inc.),
 the Gaussian 92(TM) system (copyright 1992, Gaussian, Inc.),
 the Gaussian 90(TM) system (copyright 1990, Gaussian, Inc.),
 the Gaussian 88(TM) system (copyright 1988, Gaussian, Inc.),
 the Gaussian 86(TM) system (copyright 1986, Carnegie Mellon
 University), and the Gaussian 82(TM) system (copyright 1983,
 Carnegie Mellon University). Gaussian is a federally registered
 trademark of Gaussian, Inc.
  
 This software contains proprietary and confidential information,
 including trade secrets, belonging to Gaussian, Inc.
  
 This software is provided under written license and may be
 used, copied, transmitted, or stored only in accord with that
 written license.
  
 The following legend is applicable only to US Government
 contracts under FAR:
  
                    RESTRICTED RIGHTS LEGEND
  
 Use, reproduction and disclosure by the US Government is
 subject to restrictions as set forth in subparagraphs (a)
 and (c) of the Commercial Computer Software - Restricted
 Rights clause in FAR 52.227-19.
  
 Gaussian, Inc.
 340 Quinnipiac St., Bldg. 40, Wallingford CT 06492
  
  
 ---------------------------------------------------------------
 Warning -- This program may not be used in any manner that
 competes with the business of Gaussian, Inc. or will provide
 assistance to any competitor of Gaussian, Inc.  The licensee
 of this program is prohibited from giving any competitor of
 Gaussian, Inc. access to this program.  By using this program,
 the user acknowledges that Gaussian, Inc. is engaged in the
 business of creating and licensing software in the field of
 computational chemistry and represents and warrants to the
 licensee that it is not a competitor of Gaussian, Inc. and that
 it will not use this program in any manner prohibited above.
 ---------------------------------------------------------------
  

 Cite this work as:
 Gaussian 09, Revision D.01,
 M. J. Frisch, G. W. Trucks, H. B. Schlegel, G. E. Scuseria, 
 M. A. Robb, J. R. Cheeseman, G. Scalmani, V. Barone, B. Mennucci, 
 G. A. Petersson, H. Nakatsuji, M. Caricato, X. Li, H. P. Hratchian, 
 A. F. Izmaylov, J. Bloino, G. Zheng, J. L. Sonnenberg, M. Hada, 
 M. Ehara, K. Toyota, R. Fukuda, J. Hasegawa, M. Ishida, T. Nakajima, 
 Y. Honda, O. Kitao, H. Nakai, T. Vreven, J. A. Montgomery, Jr., 
 J. E. Peralta, F. Ogliaro, M. Bearpark, J. J. Heyd, E. Brothers, 
 K. N. Kudin, V. N. Staroverov, T. Keith, R. Kobayashi, J. Normand, 
 K. Raghavachari, A. Rendell, J. C. Burant, S. S. Iyengar, J. Tomasi, 
 M. Cossi, N. Rega, J. M. Millam, M. Klene, J. E. Knox, J. B. Cross, 
 V. Bakken, C. Adamo, J. Jaramillo, R. Gomperts, R. E. Stratmann, 
 O. Yazyev, A. J. Austin, R. Cammi, C. Pomelli, J. W. Ochterski, 
 R. L. Martin, K. Morokuma, V. G. Zakrzewski, G. A. Voth, 
 P. Salvador, J. J. Dannenberg, S. Dapprich, A. D. Daniels, 
 O. Farkas, J. B. Foresman, J. V. Ortiz, J. Cioslowski, 
 and D. J. Fox, Gaussian, Inc., Wallingford CT, 2013.
 
 ******************************************
 Gaussian 09:  ES64L-G09RevD.01 24-Apr-2013
                24-Jan-2019 
 ******************************************
 ---------------------------
 #p b3lyp/6-311++g(d,p) freq
 ---------------------------
 1/10=4,30=1,38=1/1,3;
 2/12=2,17=6,18=5,40=1/2;
 3/5=4,6=6,7=1111,11=2,16=1,25=1,30=1,71=2,74=-5,140=1/1,2,3;
 4//1;
 5/5=2,38=5,98=1/2;
 8/6=4,10=90,11=11/1;
 11/6=1,8=1,9=11,15=111,16=1/1,2,10;
 10/6=1/2;
 6/7=2,8=2,9=2,10=2,18=1,28=1/1;
 7/8=1,10=1,25=1/1,2,3,16;
 1/10=4,30=1/3;
 99//99;
 Leave Link    1 at Thu Jan 24 15:33:30 2019, MaxMem=           0 cpu:         0.0
 (Enter /apl/tryton/gaussian/09/d01/g09/l101.exe)
 ---
 min
 ---
 Symbolic Z-matrix:
 Charge =  1 Multiplicity = 2
 C                     0.        0.        1.99575 
 C                     0.        0.        0.62894 
 C                     0.        0.       -0.62894 
 C                     0.        0.       -1.99575 
 
 NAtoms=      4 NQM=        4 NQMF=       0 NMMI=      0 NMMIF=      0
                NMic=       0 NMicF=      0.
                    Isotopes and Nuclear Properties:
 (Nuclear quadrupole moments (NQMom) in fm**2, nuclear magnetic moments (NMagM)
  in nuclear magnetons)

  Atom         1           2           3           4
 IAtWgt=          12          12          12          12
 AtmWgt=  12.0000000  12.0000000  12.0000000  12.0000000
 NucSpn=           0           0           0           0
 AtZEff=   0.0000000   0.0000000   0.0000000   0.0000000
 NQMom=    0.0000000   0.0000000   0.0000000   0.0000000
 NMagM=    0.0000000   0.0000000   0.0000000   0.0000000
 AtZNuc=   6.0000000   6.0000000   6.0000000   6.0000000
 Leave Link  101 at Thu Jan 24 15:33:30 2019, MaxMem=    33554432 cpu:         0.1
 (Enter /apl/tryton/gaussian/09/d01/g09/l103.exe)

 GradGradGradGradGradGradGradGradGradGradGradGradGradGradGradGradGradGrad
 Berny optimization.
 Initialization pass.
 Trust Radius=3.00D-01 FncErr=1.00D-07 GrdErr=1.00D-07
 Number of steps in this run=      2 maximum allowed number of steps=      2.
 GradGradGradGradGradGradGradGradGradGradGradGradGradGradGradGradGradGrad

 Leave Link  103 at Thu Jan 24 15:33:30 2019, MaxMem=    33554432 cpu:         0.0
 (Enter /apl/tryton/gaussian/09/d01/g09/l202.exe)
                          Input orientation:                          
 ---------------------------------------------------------------------
 Center     Atomic      Atomic             Coordinates (Angstroms)
 Number     Number       Type             X           Y           Z
 ---------------------------------------------------------------------
      1          6           0        0.000000    0.000000    1.995751
      2          6           0        0.000000    0.000000    0.628935
      3          6           0        0.000000    0.000000   -0.628935
      4          6           0        0.000000    0.000000   -1.995751
 ---------------------------------------------------------------------
                    Distance matrix (angstroms):
                    1          2          3          4
     1  C    0.000000
     2  C    1.366816   0.000000
     3  C    2.624686   1.257870   0.000000
     4  C    3.991502   2.624686   1.366816   0.000000
 Stoichiometry    C4(1+,2)
 Framework group  D*H[C*(CC.CC)]
 Deg. of freedom     2
 Full point group                 D*H     NOp   8
 Largest Abelian subgroup         D2H     NOp   8
 Largest concise Abelian subgroup C2      NOp   2
                         Standard orientation:                         
 ---------------------------------------------------------------------
 Center     Atomic      Atomic             Coordinates (Angstroms)
 Number     Number       Type             X           Y           Z
 ---------------------------------------------------------------------
      1          6           0        0.000000    0.000000    1.995751
      2          6           0        0.000000    0.000000    0.628935
      3          6           0        0.000000    0.000000   -0.628935
      4          6           0        0.000000    0.000000   -1.995751
 ---------------------------------------------------------------------
 Rotational constants (GHZ):      0.0000000      4.8091967      4.8091967
 Leave Link  202 at Thu Jan 24 15:33:30 2019, MaxMem=    33554432 cpu:         0.0
 (Enter /apl/tryton/gaussian/09/d01/g09/l301.exe)
 Standard basis: 6-311++G(d,p) (5D, 7F)
 Ernie: Thresh=  0.10000D-02 Tol=  0.10000D-05 Strict=F.
 There are    24 symmetry adapted cartesian basis functions of AG  symmetry.
 There are     2 symmetry adapted cartesian basis functions of B1G symmetry.
 There are    10 symmetry adapted cartesian basis functions of B2G symmetry.
 There are    10 symmetry adapted cartesian basis functions of B3G symmetry.
 There are     2 symmetry adapted cartesian basis functions of AU  symmetry.
 There are    24 symmetry adapted cartesian basis functions of B1U symmetry.
 There are    10 symmetry adapted cartesian basis functions of B2U symmetry.
 There are    10 symmetry adapted cartesian basis functions of B3U symmetry.
 There are    22 symmetry adapted basis functions of AG  symmetry.
 There are     2 symmetry adapted basis functions of B1G symmetry.
 There are    10 symmetry adapted basis functions of B2G symmetry.
 There are    10 symmetry adapted basis functions of B3G symmetry.
 There are     2 symmetry adapted basis functions of AU  symmetry.
 There are    22 symmetry adapted basis functions of B1U symmetry.
 There are    10 symmetry adapted basis functions of B2U symmetry.
 There are    10 symmetry adapted basis functions of B3U symmetry.
    88 basis functions,   144 primitive gaussians,    92 cartesian basis functions
    12 alpha electrons       11 beta electrons
       nuclear repulsion energy        62.3095550845 Hartrees.
 IExCor=  402 DFT=T Ex+Corr=B3LYP ExCW=0 ScaHFX=  0.200000
 ScaDFX=  0.800000  0.720000  1.000000  0.810000 ScalE2=  1.000000  1.000000
 IRadAn=      0 IRanWt=     -1 IRanGd=            0 ICorTp=0 IEmpDi=  4
 NAtoms=    4 NActive=    4 NUniq=    2 SFac= 4.00D+00 NAtFMM=   60 NAOKFM=F Big=F
 Integral buffers will be    131072 words long.
 Raffenetti 2 integral format.
 Two-electron integral symmetry is turned on.
 Leave Link  301 at Thu Jan 24 15:33:30 2019, MaxMem=    33554432 cpu:         0.0
 (Enter /apl/tryton/gaussian/09/d01/g09/l302.exe)
 NPDir=0 NMtPBC=     1 NCelOv=     1 NCel=       1 NClECP=     1 NCelD=      1
         NCelK=      1 NCelE2=     1 NClLst=     1 CellRange=     0.0.
 One-electron integrals computed using PRISM.
 One-electron integral symmetry used in STVInt
 NBasis=    88 RedAO= T EigKep=  4.40D-06  NBF=    22     2    10    10     2    22    10    10
 NBsUse=    87 1.00D-06 EigRej=  6.28D-08 NBFU=    22     2    10    10     2    21    10    10
 Precomputing XC quadrature grid using
 IXCGrd= 4 IRadAn=           0 IRanWt=          -1 IRanGd=           0 AccXCQ= 0.00D+00.
 Generated NRdTot=       0 NPtTot=           0 NUsed=           0 NTot=          32
 NSgBfM=    92    92    92    92    92 MxSgAt=     4 MxSgA2=     4.
 Leave Link  302 at Thu Jan 24 15:33:30 2019, MaxMem=    33554432 cpu:         0.1
 (Enter /apl/tryton/gaussian/09/d01/g09/l303.exe)
 DipDrv:  MaxL=1.
 Leave Link  303 at Thu Jan 24 15:33:30 2019, MaxMem=    33554432 cpu:         0.0
 (Enter /apl/tryton/gaussian/09/d01/g09/l401.exe)
 ExpMin= 4.38D-02 ExpMax= 4.56D+03 ExpMxC= 6.82D+02 IAcc=2 IRadAn=         4 AccDes= 0.00D+00
 Harris functional with IExCor=  402 and IRadAn=       4 diagonalized for initial guess.
 HarFok:  IExCor=  402 AccDes= 0.00D+00 IRadAn=         4 IDoV= 1 UseB2=F ITyADJ=14
 ICtDFT=  3500011 ScaDFX=  1.000000  1.000000  1.000000  1.000000
 FoFCou: FMM=F IPFlag=           0 FMFlag=      100000 FMFlg1=           0
         NFxFlg=           0 DoJE=T BraDBF=F KetDBF=T FulRan=T
         wScrn=  0.000000 ICntrl=     500 IOpCl=  0 I1Cent=   200000004 NGrid=           0
         NMat0=    1 NMatS0=      1 NMatT0=    0 NMatD0=    1 NMtDS0=    0 NMtDT0=    0
 Petite list used in FoFCou.
 Harris En= -151.820605452117    
 JPrj=0 DoOrth=F DoCkMO=F.
 Initial guess orbital symmetries:
 Alpha Orbitals:
       Occupied  (SGG) (SGU) (SGU) (SGG) (SGG) (SGU) (SGG) (PIU)
                 (PIU) (SGU) (SGG) (PIG)
       Virtual   (PIG) (PIU) (PIU) (SGG) (PIG) (PIG) (SGU) (PIU)
                 (PIU) (SGG) (PIG) (PIG) (SGU) (PIU) (PIU) (SGU)
                 (SGG) (PIG) (PIG) (SGG) (SGU) (SGG) (SGU) (PIU)
                 (PIU) (SGG) (PIG) (PIG) (PIU) (PIU) (SGU) (SGG)
                 (PIG) (PIG) (SGG) (SGU) (SGU) (SGG) (PIU) (PIU)
                 (DLTG) (DLTG) (DLTU) (DLTU) (SGU) (DLTG) (DLTG)
                 (PIG) (PIG) (DLTU) (DLTU) (PIU) (PIU) (SGG) (SGU)
                 (PIG) (PIG) (SGG) (PIU) (PIU) (SGU) (PIG) (PIG)
                 (PIU) (PIU) (PIG) (PIG) (SGG) (SGU) (SGG) (SGU)
                 (SGG) (SGU) (SGG) (SGU)
 Beta  Orbitals:
       Occupied  (SGG) (SGU) (SGU) (SGG) (SGG) (SGU) (SGG) (PIU)
                 (PIU) (SGU) (SGG)
       Virtual   (PIG) (PIG) (PIU) (PIU) (SGG) (PIG) (PIG) (SGU)
                 (PIU) (PIU) (SGG) (PIG) (PIG) (SGU) (PIU) (PIU)
                 (SGU) (SGG) (PIG) (PIG) (SGG) (SGU) (SGG) (SGU)
                 (PIU) (PIU) (SGG) (PIG) (PIG) (PIU) (PIU) (SGU)
                 (SGG) (PIG) (PIG) (SGG) (SGU) (SGU) (SGG) (PIU)
                 (PIU) (DLTG) (DLTG) (DLTU) (DLTU) (SGU) (DLTG)
                 (DLTG) (PIG) (PIG) (DLTU) (DLTU) (PIU) (PIU) (SGG)
                 (SGU) (PIG) (PIG) (SGG) (PIU) (PIU) (SGU) (PIG)
                 (PIG) (PIU) (PIU) (PIG) (PIG) (SGG) (SGU) (SGG)
                 (SGU) (SGG) (SGU) (SGG) (SGU)
 Initial guess <Sx>= 0.0000 <Sy>= 0.0000 <Sz>= 0.5000 <S**2>= 0.7500 S= 0.5000
 Leave Link  401 at Thu Jan 24 15:33:31 2019, MaxMem=    33554432 cpu:         0.2
 (Enter /apl/tryton/gaussian/09/d01/g09/l502.exe)
 UHF open shell SCF:
 Using DIIS extrapolation, IDIIS=  1040.
 Integral symmetry usage will be decided dynamically.
 Keep R1 and R2 ints in memory in symmetry-blocked form, NReq=8777982.
 IVT=       45450 IEndB=       45450 NGot=    33554432 MDV=    31395739
 LenX=    31395739 LenY=    31386834
 Requested convergence on RMS density matrix=1.00D-08 within 128 cycles.
 Requested convergence on MAX density matrix=1.00D-06.
 Requested convergence on             energy=1.00D-06.
 No special actions if energy rises.
 FoFCou: FMM=F IPFlag=           0 FMFlag=           0 FMFlg1=           0
         NFxFlg=           0 DoJE=F BraDBF=F KetDBF=F FulRan=T
         wScrn=  0.000000 ICntrl=     600 IOpCl=  0 I1Cent=           0 NGrid=           0
         NMat0=    1 NMatS0=   3916 NMatT0=    0 NMatD0=    1 NMtDS0=    0 NMtDT0=    0
 Petite list used in FoFCou.

 Cycle   1  Pass 1  IDiag  1:
 E= -151.681888541865    
 DIIS: error= 2.30D-02 at cycle   1 NSaved=   1.
 NSaved= 1 IEnMin= 1 EnMin= -151.681888541865     IErMin= 1 ErrMin= 2.30D-02
 ErrMax= 2.30D-02  0.00D+00 EMaxC= 1.00D-01 BMatC= 1.49D-01 BMatP= 1.49D-01
 IDIUse=3 WtCom= 7.70D-01 WtEn= 2.30D-01
 Coeff-Com:  0.100D+01
 Coeff-En:   0.100D+01
 Coeff:      0.100D+01
 Gap=     0.067 Goal=   None    Shift=    0.000
 Gap=     0.111 Goal=   None    Shift=    0.000
 GapD=    0.067 DampG=0.500 DampE=0.500 DampFc=0.2500 IDamp=-1.
 Damping current iteration by 2.50D-01
 RMSDP=1.81D-02 MaxDP=3.44D-01              OVMax= 1.87D-01

 Cycle   2  Pass 1  IDiag  1:
 E= -151.692190687121     Delta-E=       -0.010302145256 Rises=F Damp=T
 DIIS: error= 1.46D-02 at cycle   2 NSaved=   2.
 NSaved= 2 IEnMin= 2 EnMin= -151.692190687121     IErMin= 2 ErrMin= 1.46D-02
 ErrMax= 1.46D-02  0.00D+00 EMaxC= 1.00D-01 BMatC= 4.53D-02 BMatP= 1.49D-01
 IDIUse=3 WtCom= 8.54D-01 WtEn= 1.46D-01
 Coeff-Com: -0.707D+00 0.171D+01
 Coeff-En:   0.000D+00 0.100D+01
 Coeff:     -0.604D+00 0.160D+01
 Gap=     0.070 Goal=   None    Shift=    0.000
 Gap=     0.095 Goal=   None    Shift=    0.000
 RMSDP=1.05D-02 MaxDP=1.83D-01 DE=-1.03D-02 OVMax= 1.29D-01

 Cycle   3  Pass 1  IDiag  1:
 E= -151.712112603975     Delta-E=       -0.019921916854 Rises=F Damp=F
 DIIS: error= 1.26D-02 at cycle   3 NSaved=   3.
 NSaved= 3 IEnMin= 3 EnMin= -151.712112603975     IErMin= 3 ErrMin= 1.26D-02
 ErrMax= 1.26D-02  0.00D+00 EMaxC= 1.00D-01 BMatC= 1.50D-02 BMatP= 4.53D-02
 IDIUse=3 WtCom= 8.74D-01 WtEn= 1.26D-01
 Coeff-Com: -0.570D+00 0.818D+00 0.752D+00
 Coeff-En:   0.000D+00 0.000D+00 0.100D+01
 Coeff:     -0.498D+00 0.715D+00 0.783D+00
 Gap=     0.071 Goal=   None    Shift=    0.000
 Gap=     0.106 Goal=   None    Shift=    0.000
 RMSDP=3.46D-03 MaxDP=7.06D-02 DE=-1.99D-02 OVMax= 4.46D-02

 Cycle   4  Pass 1  IDiag  1:
 E= -151.716424460688     Delta-E=       -0.004311856712 Rises=F Damp=F
 DIIS: error= 3.60D-03 at cycle   4 NSaved=   4.
 NSaved= 4 IEnMin= 4 EnMin= -151.716424460688     IErMin= 4 ErrMin= 3.60D-03
 ErrMax= 3.60D-03  0.00D+00 EMaxC= 1.00D-01 BMatC= 1.38D-03 BMatP= 1.50D-02
 IDIUse=3 WtCom= 9.64D-01 WtEn= 3.60D-02
 Coeff-Com:  0.542D-01-0.764D-01 0.181D+00 0.841D+00
 Coeff-En:   0.000D+00 0.000D+00 0.600D-01 0.940D+00
 Coeff:      0.523D-01-0.737D-01 0.177D+00 0.844D+00
 Gap=     0.072 Goal=   None    Shift=    0.000
 Gap=     0.103 Goal=   None    Shift=    0.000
 RMSDP=7.74D-04 MaxDP=1.53D-02 DE=-4.31D-03 OVMax= 1.15D-02

 Cycle   5  Pass 1  IDiag  1:
 E= -151.716833838282     Delta-E=       -0.000409377594 Rises=F Damp=F
 DIIS: error= 3.39D-04 at cycle   5 NSaved=   5.
 NSaved= 5 IEnMin= 5 EnMin= -151.716833838282     IErMin= 5 ErrMin= 3.39D-04
 ErrMax= 3.39D-04  0.00D+00 EMaxC= 1.00D-01 BMatC= 7.96D-06 BMatP= 1.38D-03
 IDIUse=3 WtCom= 9.97D-01 WtEn= 3.39D-03
 Coeff-Com:  0.316D-01-0.472D-01-0.483D-01-0.415D-01 0.111D+01
 Coeff-En:   0.000D+00 0.000D+00 0.000D+00 0.000D+00 0.100D+01
 Coeff:      0.315D-01-0.471D-01-0.481D-01-0.414D-01 0.111D+01
 Gap=     0.072 Goal=   None    Shift=    0.000
 Gap=     0.103 Goal=   None    Shift=    0.000
 RMSDP=1.53D-04 MaxDP=3.53D-03 DE=-4.09D-04 OVMax= 3.15D-03

 Cycle   6  Pass 1  IDiag  1:
 E= -151.716843869100     Delta-E=       -0.000010030818 Rises=F Damp=F
 DIIS: error= 1.17D-04 at cycle   6 NSaved=   6.
 NSaved= 6 IEnMin= 6 EnMin= -151.716843869100     IErMin= 6 ErrMin= 1.17D-04
 ErrMax= 1.17D-04  0.00D+00 EMaxC= 1.00D-01 BMatC= 8.41D-07 BMatP= 7.96D-06
 IDIUse=3 WtCom= 9.99D-01 WtEn= 1.17D-03
 Coeff-Com: -0.660D-02 0.964D-02-0.183D-01-0.952D-01-0.290D-01 0.114D+01
 Coeff-En:   0.000D+00 0.000D+00 0.000D+00 0.000D+00 0.000D+00 0.100D+01
 Coeff:     -0.660D-02 0.963D-02-0.183D-01-0.951D-01-0.290D-01 0.114D+01
 Gap=     0.072 Goal=   None    Shift=    0.000
 Gap=     0.103 Goal=   None    Shift=    0.000
 RMSDP=7.27D-05 MaxDP=1.60D-03 DE=-1.00D-05 OVMax= 1.25D-03

 Cycle   7  Pass 1  IDiag  1:
 E= -151.716844941525     Delta-E=       -0.000001072425 Rises=F Damp=F
 DIIS: error= 1.75D-05 at cycle   7 NSaved=   7.
 NSaved= 7 IEnMin= 7 EnMin= -151.716844941525     IErMin= 7 ErrMin= 1.75D-05
 ErrMax= 1.75D-05  0.00D+00 EMaxC= 1.00D-01 BMatC= 3.33D-08 BMatP= 8.41D-07
 IDIUse=1 WtCom= 1.00D+00 WtEn= 0.00D+00
 Coeff-Com: -0.129D-02 0.184D-02-0.616D-03-0.560D-02-0.521D-01 0.101D+00
 Coeff-Com:  0.956D+00
 Coeff:     -0.129D-02 0.184D-02-0.616D-03-0.560D-02-0.521D-01 0.101D+00
 Coeff:      0.956D+00
 Gap=     0.072 Goal=   None    Shift=    0.000
 Gap=     0.103 Goal=   None    Shift=    0.000
 RMSDP=9.58D-06 MaxDP=2.20D-04 DE=-1.07D-06 OVMax= 1.54D-04

 Cycle   8  Pass 1  IDiag  1:
 E= -151.716844964391     Delta-E=       -0.000000022866 Rises=F Damp=F
 DIIS: error= 4.05D-06 at cycle   8 NSaved=   8.
 NSaved= 8 IEnMin= 8 EnMin= -151.716844964391     IErMin= 8 ErrMin= 4.05D-06
 ErrMax= 4.05D-06  0.00D+00 EMaxC= 1.00D-01 BMatC= 1.48D-09 BMatP= 3.33D-08
 IDIUse=1 WtCom= 1.00D+00 WtEn= 0.00D+00
 Coeff-Com:  0.394D-03-0.536D-03 0.951D-03 0.465D-02 0.255D-02-0.527D-01
 Coeff-Com: -0.148D-01 0.106D+01
 Coeff:      0.394D-03-0.536D-03 0.951D-03 0.465D-02 0.255D-02-0.527D-01
 Coeff:     -0.148D-01 0.106D+01
 Gap=     0.072 Goal=   None    Shift=    0.000
 Gap=     0.103 Goal=   None    Shift=    0.000
 RMSDP=1.79D-06 MaxDP=4.56D-05 DE=-2.29D-08 OVMax= 2.30D-05

 Cycle   9  Pass 1  IDiag  1:
 E= -151.716844965265     Delta-E=       -0.000000000874 Rises=F Damp=F
 DIIS: error= 8.50D-07 at cycle   9 NSaved=   9.
 NSaved= 9 IEnMin= 9 EnMin= -151.716844965265     IErMin= 9 ErrMin= 8.50D-07
 ErrMax= 8.50D-07  0.00D+00 EMaxC= 1.00D-01 BMatC= 5.65D-11 BMatP= 1.48D-09
 IDIUse=1 WtCom= 1.00D+00 WtEn= 0.00D+00
 Coeff-Com: -0.201D-04 0.231D-04-0.447D-04-0.421D-03 0.194D-02 0.256D-02
 Coeff-Com: -0.459D-01-0.129D+00 0.117D+01
 Coeff:     -0.201D-04 0.231D-04-0.447D-04-0.421D-03 0.194D-02 0.256D-02
 Coeff:     -0.459D-01-0.129D+00 0.117D+01
 Gap=     0.072 Goal=   None    Shift=    0.000
 Gap=     0.103 Goal=   None    Shift=    0.000
 RMSDP=4.64D-07 MaxDP=9.23D-06 DE=-8.74D-10 OVMax= 7.11D-06

 Cycle  10  Pass 1  IDiag  1:
 E= -151.716844965310     Delta-E=       -0.000000000045 Rises=F Damp=F
 DIIS: error= 1.80D-07 at cycle  10 NSaved=  10.
 NSaved=10 IEnMin=10 EnMin= -151.716844965310     IErMin=10 ErrMin= 1.80D-07
 ErrMax= 1.80D-07  0.00D+00 EMaxC= 1.00D-01 BMatC= 2.05D-12 BMatP= 5.65D-11
 IDIUse=1 WtCom= 1.00D+00 WtEn= 0.00D+00
 Coeff-Com: -0.444D-05 0.625D-05-0.166D-04-0.727D-05-0.231D-03 0.305D-03
 Coeff-Com:  0.628D-02 0.493D-02-0.179D+00 0.117D+01
 Coeff:     -0.444D-05 0.625D-05-0.166D-04-0.727D-05-0.231D-03 0.305D-03
 Coeff:      0.628D-02 0.493D-02-0.179D+00 0.117D+01
 Gap=     0.072 Goal=   None    Shift=    0.000
 Gap=     0.103 Goal=   None    Shift=    0.000
 RMSDP=4.87D-08 MaxDP=1.01D-06 DE=-4.52D-11 OVMax= 1.08D-06

 Cycle  11  Pass 1  IDiag  1:
 E= -151.716844965311     Delta-E=       -0.000000000002 Rises=F Damp=F
 DIIS: error= 1.87D-08 at cycle  11 NSaved=  11.
 NSaved=11 IEnMin=11 EnMin= -151.716844965311     IErMin=11 ErrMin= 1.87D-08
 ErrMax= 1.87D-08  0.00D+00 EMaxC= 1.00D-01 BMatC= 1.47D-14 BMatP= 2.05D-12
 IDIUse=1 WtCom= 1.00D+00 WtEn= 0.00D+00
 Coeff-Com:  0.169D-05-0.221D-05 0.329D-05 0.124D-04-0.590D-05-0.132D-03
 Coeff-Com:  0.882D-04 0.135D-02 0.332D-02-0.149D+00 0.114D+01
 Coeff:      0.169D-05-0.221D-05 0.329D-05 0.124D-04-0.590D-05-0.132D-03
 Coeff:      0.882D-04 0.135D-02 0.332D-02-0.149D+00 0.114D+01
 Gap=     0.072 Goal=   None    Shift=    0.000
 Gap=     0.103 Goal=   None    Shift=    0.000
 RMSDP=4.96D-09 MaxDP=9.26D-08 DE=-1.53D-12 OVMax= 1.53D-07

 SCF Done:  E(UB3LYP) =  -151.716844965     A.U. after   11 cycles
            NFock= 11  Conv=0.50D-08     -V/T= 2.0036
 <Sx>= 0.0000 <Sy>= 0.0000 <Sz>= 0.5000 <S**2>= 0.7669 S= 0.5084
 <L.S>= 0.000000000000E+00
 KE= 1.511711928193D+02 PE=-4.702950771619D+02 EE= 1.050974842928D+02
 Annihilation of the first spin contaminant:
 S**2 before annihilation     0.7669,   after     0.7501
 Leave Link  502 at Thu Jan 24 15:33:33 2019, MaxMem=    33554432 cpu:         2.3
 (Enter /apl/tryton/gaussian/09/d01/g09/l801.exe)
 DoSCS=F DFT=T ScalE2(SS,OS)=  1.000000  1.000000
 Range of M.O.s used for correlation:     1    87
 NBasis=    88 NAE=    12 NBE=    11 NFC=     0 NFV=     0
 NROrb=     87 NOA=    12 NOB=    11 NVA=    75 NVB=    76

 **** Warning!!: The largest alpha MO coefficient is  0.15675087D+03


 **** Warning!!: The smallest alpha delta epsilon is  0.72377215D-01


 **** Warning!!: The largest beta MO coefficient is  0.15413140D+03

 Leave Link  801 at Thu Jan 24 15:33:33 2019, MaxMem=    33554432 cpu:         0.0
 (Enter /apl/tryton/gaussian/09/d01/g09/l1101.exe)
 Using compressed storage, NAtomX=     4.
 Will process      5 centers per pass.
 Leave Link 1101 at Thu Jan 24 15:33:33 2019, MaxMem=    33554432 cpu:         0.1
 (Enter /apl/tryton/gaussian/09/d01/g09/l1102.exe)
 Symmetrizing basis deriv contribution to polar:
 IMax=3 JMax=2 DiffMx= 0.00D+00
 Leave Link 1102 at Thu Jan 24 15:33:33 2019, MaxMem=    33554432 cpu:         0.0
 (Enter /apl/tryton/gaussian/09/d01/g09/l1110.exe)
 Forming Gx(P) for the SCF density, NAtomX=     4.
 Integral derivatives from FoFJK, PRISM(SPDF).
 Do as many integral derivatives as possible in FoFJK.
 G2DrvN: MDV=      33554296.
 G2DrvN: will do     5 centers at a time, making    1 passes.
 Calling FoFCou, ICntrl=  3107 FMM=F I1Cent=   0 AccDes= 0.00D+00.
 FoFJK:  IHMeth= 1 ICntrl=    3107 DoSepK=F KAlg= 0 I1Cent=   0 FoldK=F
 IRaf=         0 NMat=   1 IRICut=       1 DoRegI=T DoRafI=F ISym2E= 1.
 FoFCou: FMM=F IPFlag=           0 FMFlag=      100000 FMFlg1=           0
         NFxFlg=           0 DoJE=F BraDBF=F KetDBF=F FulRan=T
         wScrn=  0.000000 ICntrl=    3107 IOpCl=  1 I1Cent=           0 NGrid=           0
         NMat0=    1 NMatS0=      1 NMatT0=    0 NMatD0=    1 NMtDS0=    0 NMtDT0=    0
 Petite list used in FoFCou.
 End of G2Drv F.D. properties file   721 does not exist.
 End of G2Drv F.D. properties file   722 does not exist.
 End of G2Drv F.D. properties file   788 does not exist.
 Leave Link 1110 at Thu Jan 24 15:33:36 2019, MaxMem=    33554432 cpu:         2.4
 (Enter /apl/tryton/gaussian/09/d01/g09/l1002.exe)
 Minotr:  UHF open shell wavefunction.
          IDoAtm=1111
          Direct CPHF calculation.
          Differentiating once with respect to electric field.
                with respect to dipole field.
          Differentiating once with respect to nuclear coordinates.
          Using symmetry in CPHF.
          Requested convergence is 1.0D-08 RMS, and 1.0D-07 maximum.
          Secondary convergence is 1.0D-12 RMS, and 1.0D-12 maximum.
          NewPWx=T KeepS1=F KeepF1=F KeepIn=T MapXYZ=F SortEE=F KeepMc=T.
          MDV=      33554214 using IRadAn=       2.
 Generate precomputed XC quadrature information.
 Keep R1 and R2 ints in memory in symmetry-blocked form, NReq=8735268.
 FoFCou: FMM=F IPFlag=           0 FMFlag=           0 FMFlg1=           0
         NFxFlg=           0 DoJE=F BraDBF=F KetDBF=F FulRan=T
         wScrn=  0.000000 ICntrl=     600 IOpCl=  0 I1Cent=           0 NGrid=           0
         NMat0=    1 NMatS0=   3916 NMatT0=    0 NMatD0=    1 NMtDS0=    0 NMtDT0=    0
 Petite list used in FoFCou.
          Solving linear equations simultaneously, MaxMat=       0.
          There are     9 degrees of freedom in the 1st order CPHF.  IDoFFX=4 NUNeed=     9.
      9 vectors produced by pass  0 Test12= 1.93D-14 1.11D-08 XBig12= 5.24D+02 1.27D+01.
 AX will form     9 AO Fock derivatives at one time.
      9 vectors produced by pass  1 Test12= 1.93D-14 1.11D-08 XBig12= 2.71D+02 4.39D+00.
      9 vectors produced by pass  2 Test12= 1.93D-14 1.11D-08 XBig12= 3.11D+01 2.17D+00.
      9 vectors produced by pass  3 Test12= 1.93D-14 1.11D-08 XBig12= 2.25D+00 8.28D-01.
      9 vectors produced by pass  4 Test12= 1.93D-14 1.11D-08 XBig12= 1.11D-01 1.42D-01.
      9 vectors produced by pass  5 Test12= 1.93D-14 1.11D-08 XBig12= 1.47D-03 1.07D-02.
      9 vectors produced by pass  6 Test12= 1.93D-14 1.11D-08 XBig12= 4.59D-05 2.45D-03.
      9 vectors produced by pass  7 Test12= 1.93D-14 1.11D-08 XBig12= 9.94D-07 3.66D-04.
      5 vectors produced by pass  8 Test12= 1.93D-14 1.11D-08 XBig12= 5.55D-09 2.08D-05.
      3 vectors produced by pass  9 Test12= 1.93D-14 1.11D-08 XBig12= 2.70D-11 9.66D-07.
      1 vectors produced by pass 10 Test12= 1.93D-14 1.11D-08 XBig12= 6.43D-13 2.44D-07.
      1 vectors produced by pass 11 Test12= 1.93D-14 1.11D-08 XBig12= 4.13D-15 1.78D-08.
 InvSVY:  IOpt=1 It=  1 EMax= 7.11D-15
 Solved reduced A of dimension    82 with     9 vectors.
 FullF1:  Do perturbations    1 to     9.
 Isotropic polarizability for W=    0.000000       40.46 Bohr**3.
 End of Minotr F.D. properties file   721 does not exist.
 End of Minotr F.D. properties file   722 does not exist.
 End of Minotr F.D. properties file   788 does not exist.
 Leave Link 1002 at Thu Jan 24 15:33:52 2019, MaxMem=    33554432 cpu:        16.7
 (Enter /apl/tryton/gaussian/09/d01/g09/l601.exe)
 Copying SCF densities to generalized density rwf, IOpCl= 1 IROHF=0.

 **********************************************************************

            Population analysis using the SCF density.

 **********************************************************************

 Orbital symmetries:
 Alpha Orbitals:
       Occupied  (SGU) (SGG) (SGG) (SGU) (SGG) (SGU) (SGG) (?A)
                 (?A) (SGU) (SGG) (PIG)
       Virtual   (PIG) (?A) (?A) (PIG) (SGG) (PIG) (SGU) (PIU)
                 (PIU) (SGG) (PIG) (PIG) (SGU) (SGU) (PIU) (PIU)
                 (SGG) (PIG) (PIG) (SGG) (SGU) (SGG) (PIU) (PIU)
                 (SGU) (SGG) (PIG) (PIG) (PIU) (PIU) (SGU) (SGG)
                 (PIG) (PIG) (SGG) (SGU) (SGU) (PIU) (PIU) (?B)
                 (?B) (?B) (DLTU) (DLTU) (SGU) (DLTG) (DLTG) (PIG)
                 (PIG) (DLTU) (DLTU) (PIU) (PIU) (SGG) (SGU) (PIG)
                 (PIG) (SGG) (PIU) (PIU) (SGU) (PIG) (PIG) (PIU)
                 (PIU) (PIG) (PIG) (SGG) (SGU) (SGG) (SGU) (SGG)
                 (SGU) (SGG) (SGU)
 Beta  Orbitals:
       Occupied  (SGU) (SGG) (SGG) (SGU) (SGG) (SGU) (SGG) (PIU)
                 (PIU) (SGU) (SGG)
       Virtual   (PIG) (PIG) (PIU) (PIU) (SGG) (PIG) (PIG) (SGU)
                 (PIU) (PIU) (SGG) (PIG) (PIG) (SGU) (SGU) (PIU)
                 (PIU) (SGG) (PIG) (PIG) (SGG) (SGU) (SGG) (PIU)
                 (PIU) (SGU) (SGG) (PIG) (PIG) (PIU) (PIU) (SGU)
                 (SGG) (PIG) (PIG) (SGG) (SGU) (SGU) (PIU) (?A)
                 (?A) (PIU) (?A) (DLTU) (DLTU) (SGU) (DLTG) (DLTG)
                 (PIG) (PIG) (DLTU) (DLTU) (PIU) (PIU) (SGG) (SGU)
                 (PIG) (PIG) (SGG) (PIU) (PIU) (SGU) (PIG) (PIU)
                 (PIG) (PIU) (PIG) (PIG) (SGG) (SGU) (SGG) (SGU)
                 (SGG) (SGU) (SGG) (SGU)
 Unable to determine electronic state:  an orbital has unidentified symmetry.
 Alpha  occ. eigenvalues --  -10.60297 -10.60296 -10.55203 -10.55055  -1.14991
 Alpha  occ. eigenvalues --   -1.07330  -0.97591  -0.68892  -0.67312  -0.62295
 Alpha  occ. eigenvalues --   -0.61028  -0.57612
 Alpha virt. eigenvalues --   -0.50374  -0.38530  -0.36052  -0.18347  -0.17774
 Alpha virt. eigenvalues --   -0.17189  -0.12741  -0.11255  -0.11190  -0.06978
 Alpha virt. eigenvalues --   -0.05826  -0.05635  -0.05092  -0.04109  -0.01083
 Alpha virt. eigenvalues --   -0.00992   0.01478   0.04983   0.05020   0.06894
 Alpha virt. eigenvalues --    0.09174   0.19315   0.26933   0.27039   0.29537
 Alpha virt. eigenvalues --    0.30227   0.32970   0.33566   0.36791   0.36988
 Alpha virt. eigenvalues --    0.39064   0.40666   0.44231   0.44279   0.58621
 Alpha virt. eigenvalues --    0.62124   0.70875   0.75572   0.75911   0.76102
 Alpha virt. eigenvalues --    0.76159   0.77106   0.91122   0.91298   1.03384
 Alpha virt. eigenvalues --    1.08828   1.09008   1.15906   1.16321   1.31855
 Alpha virt. eigenvalues --    1.31937   1.56181   1.56380   1.59134   1.70788
 Alpha virt. eigenvalues --    2.11040   2.11492   2.14390   2.31143   2.31725
 Alpha virt. eigenvalues --    2.51897   2.53407   2.54024   2.54552   2.55007
 Alpha virt. eigenvalues --    2.68693   2.68710   2.84473   2.87288   3.07318
 Alpha virt. eigenvalues --    3.48152  22.80544  23.16465  23.55460  24.64335
  Beta  occ. eigenvalues --  -10.59643 -10.59643 -10.55092 -10.54940  -1.14063
  Beta  occ. eigenvalues --   -1.04951  -0.96377  -0.67097  -0.65935  -0.60977
  Beta  occ. eigenvalues --   -0.59865
  Beta virt. eigenvalues --   -0.49545  -0.47389  -0.35374  -0.33375  -0.17639
  Beta virt. eigenvalues --   -0.16856  -0.15487  -0.12107  -0.11227  -0.10840
  Beta virt. eigenvalues --   -0.06919  -0.05532  -0.05096  -0.04688  -0.03772
  Beta virt. eigenvalues --   -0.01090  -0.00860   0.01646   0.05000   0.05205
  Beta virt. eigenvalues --    0.07402   0.09317   0.19743   0.27168   0.27995
  Beta virt. eigenvalues --    0.29754   0.30601   0.33888   0.35055   0.37158
  Beta virt. eigenvalues --    0.38117   0.39798   0.41162   0.44325   0.45137
  Beta virt. eigenvalues --    0.59160   0.62803   0.71595   0.76141   0.77224
  Beta virt. eigenvalues --    0.77225   0.77676   0.77704   0.93863   0.93865
  Beta virt. eigenvalues --    1.03760   1.11378   1.11382   1.16635   1.18410
  Beta virt. eigenvalues --    1.33276   1.33278   1.56588   1.58057   1.60216
  Beta virt. eigenvalues --    1.71768   2.11763   2.13268   2.14787   2.32012
  Beta virt. eigenvalues --    2.33341   2.52412   2.54524   2.55416   2.56188
  Beta virt. eigenvalues --    2.56949   2.68785   2.69829   2.85097   2.87941
  Beta virt. eigenvalues --    3.07641   3.48797  22.80966  23.17165  23.55959
  Beta virt. eigenvalues --   24.64538
          Condensed to atoms (all electrons):
               1          2          3          4
     1  C    8.530071  -2.620653  -1.128602   0.978046
     2  C   -2.620653   7.934209   1.556184  -1.128602
     3  C   -1.128602   1.556184   7.934209  -2.620653
     4  C    0.978046  -1.128602  -2.620653   8.530071
          Atomic-Atomic Spin Densities.
               1          2          3          4
     1  C    0.377072  -0.017558   0.004927   0.034865
     2  C   -0.017558   0.128026  -0.014699   0.004927
     3  C    0.004927  -0.014699   0.128026  -0.017558
     4  C    0.034865   0.004927  -0.017558   0.377072
 Mulliken charges and spin densities:
               1          2
     1  C    0.241138   0.399305
     2  C    0.258862   0.100695
     3  C    0.258862   0.100695
     4  C    0.241138   0.399305
 Sum of Mulliken charges =   1.00000   1.00000
 Mulliken charges and spin densities with hydrogens summed into heavy atoms:
               1          2
     1  C    0.241138   0.399305
     2  C    0.258862   0.100695
     3  C    0.258862   0.100695
     4  C    0.241138   0.399305
 APT charges:
               1
     1  C    0.610532
     2  C   -0.110532
     3  C   -0.110532
     4  C    0.610532
 Sum of APT charges =   1.00000
 APT charges with hydrogens summed into heavy atoms:
               1
     1  C    0.610532
     2  C   -0.110532
     3  C   -0.110532
     4  C    0.610532
 Electronic spatial extent (au):  <R**2>=            226.3218
 Charge=              1.0000 electrons
 Dipole moment (field-independent basis, Debye):
    X=              0.0000    Y=              0.0000    Z=             -0.0000  Tot=              0.0000
 Quadrupole moment (field-independent basis, Debye-Ang):
   XX=            -18.1224   YY=            -19.8020   ZZ=            -14.1115
   XY=             -0.0000   XZ=             -0.0000   YZ=              0.0000
 Traceless Quadrupole moment (field-independent basis, Debye-Ang):
   XX=             -0.7770   YY=             -2.4567   ZZ=              3.2338
   XY=             -0.0000   XZ=             -0.0000   YZ=              0.0000
 Octapole moment (field-independent basis, Debye-Ang**2):
  XXX=             -0.0000  YYY=             -0.0000  ZZZ=             -0.0000  XYY=             -0.0000
  XXY=             -0.0000  XXZ=             -0.0000  XZZ=             -0.0000  YZZ=             -0.0000
  YYZ=             -0.0000  XYZ=              0.0000
 Hexadecapole moment (field-independent basis, Debye-Ang**3):
 XXXX=            -17.6044 YYYY=            -20.3866 ZZZZ=           -327.9589 XXXY=             -0.0000
 XXXZ=              0.0000 YYYX=             -0.0000 YYYZ=             -0.0000 ZZZX=              0.0000
 ZZZY=             -0.0000 XXYY=             -6.3318 XXZZ=            -46.8691 YYZZ=            -52.2679
 XXYZ=             -0.0000 YYXZ=              0.0000 ZZXY=             -0.0000
 N-N= 6.230955508451D+01 E-N=-4.702950772593D+02  KE= 1.511711928193D+02
 Symmetry AG   KE= 7.444902231430D+01
 Symmetry B1G  KE= 2.150918596977D-34
 Symmetry B2G  KE= 8.096399241784D-32
 Symmetry B3G  KE= 1.292548538299D+00
 Symmetry AU   KE= 3.105679511958D-34
 Symmetry B1U  KE= 7.080136798356D+01
 Symmetry B2U  KE= 2.323237153671D+00
 Symmetry B3U  KE= 2.305016829456D+00
  Exact polarizability:  21.035  -0.000  21.822   0.000   0.000  78.536
 Approx polarizability:  31.810  -0.000  28.888  -0.000  -0.000 202.881
                          Isotropic Fermi Contact Couplings
        Atom                 a.u.       MegaHertz       Gauss      10(-4) cm-1
     1  C(13)              0.01677      18.84737       6.72521       6.28681
     2  C(13)             -0.00770      -8.65162      -3.08711      -2.88587
     3  C(13)             -0.00770      -8.65162      -3.08711      -2.88587
     4  C(13)              0.01677      18.84737       6.72521       6.28681
 --------------------------------------------------------
       Center         ----  Spin Dipole Couplings  ----
                      3XX-RR        3YY-RR        3ZZ-RR
 --------------------------------------------------------
     1   Atom       -0.289952      0.579247     -0.289295
     2   Atom       -0.097221      0.122887     -0.025666
     3   Atom       -0.097221      0.122887     -0.025666
     4   Atom       -0.289952      0.579247     -0.289295
 --------------------------------------------------------
                        XY            XZ            YZ
 --------------------------------------------------------
     1   Atom        0.000000     -0.000000      0.000000
     2   Atom        0.000000     -0.000000      0.000000
     3   Atom        0.000000     -0.000000      0.000000
     4   Atom        0.000000     -0.000000      0.000000
 --------------------------------------------------------


 ---------------------------------------------------------------------------------
              Anisotropic Spin Dipole Couplings in Principal Axis System
 ---------------------------------------------------------------------------------

       Atom             a.u.   MegaHertz   Gauss  10(-4) cm-1        Axes

              Baa    -0.2900   -38.909   -13.884   -12.979  1.0000  0.0000  0.0000
     1 C(13)  Bbb    -0.2893   -38.821   -13.852   -12.949  0.0000  0.0000  1.0000
              Bcc     0.5792    77.729    27.736    25.928  0.0000  1.0000 -0.0000
 
              Baa    -0.0972   -13.046    -4.655    -4.352  1.0000  0.0000  0.0000
     2 C(13)  Bbb    -0.0257    -3.444    -1.229    -1.149  0.0000  0.0000  1.0000
              Bcc     0.1229    16.490     5.884     5.501  0.0000  1.0000  0.0000
 
              Baa    -0.0972   -13.046    -4.655    -4.352  1.0000  0.0000  0.0000
     3 C(13)  Bbb    -0.0257    -3.444    -1.229    -1.149 -0.0000 -0.0000  1.0000
              Bcc     0.1229    16.490     5.884     5.501  0.0000  1.0000  0.0000
 
              Baa    -0.2900   -38.909   -13.884   -12.979  1.0000  0.0000  0.0000
     4 C(13)  Bbb    -0.2893   -38.821   -13.852   -12.949  0.0000  0.0000  1.0000
              Bcc     0.5792    77.729    27.736    25.928  0.0000  1.0000  0.0000
 

 ---------------------------------------------------------------------------------

 No NMR shielding tensors so no spin-rotation constants.
 Leave Link  601 at Thu Jan 24 15:33:53 2019, MaxMem=    33554432 cpu:         0.2
 (Enter /apl/tryton/gaussian/09/d01/g09/l701.exe)
 Compute integral second derivatives.
 ... and contract with generalized density number  0.
 Leave Link  701 at Thu Jan 24 15:33:53 2019, MaxMem=    33554432 cpu:         0.2
 (Enter /apl/tryton/gaussian/09/d01/g09/l702.exe)
 L702 exits ... SP integral derivatives will be done elsewhere.
 Leave Link  702 at Thu Jan 24 15:33:53 2019, MaxMem=    33554432 cpu:         0.0
 (Enter /apl/tryton/gaussian/09/d01/g09/l703.exe)
 Compute integral second derivatives, UseDBF=F ICtDFT=           0.
 Integral derivatives from FoFJK, PRISM(SPDF).
 Calling FoFJK, ICntrl=    100127 FMM=F ISym2X=1 I1Cent= 0 IOpClX= 1 NMat=1 NMatS=1 NMatT=0.
 FoFJK:  IHMeth= 1 ICntrl=  100127 DoSepK=F KAlg= 0 I1Cent=   0 FoldK=F
 IRaf=         0 NMat=   1 IRICut=       1 DoRegI=T DoRafI=F ISym2E= 1.
 FoFCou: FMM=F IPFlag=           0 FMFlag=      100000 FMFlg1=         800
         NFxFlg=           0 DoJE=F BraDBF=F KetDBF=F FulRan=T
         wScrn=  0.000000 ICntrl=  100127 IOpCl=  1 I1Cent=           0 NGrid=           0
         NMat0=    1 NMatS0=      1 NMatT0=    0 NMatD0=    1 NMtDS0=    0 NMtDT0=    0
 Petite list used in FoFCou.
 Leave Link  703 at Thu Jan 24 15:33:56 2019, MaxMem=    33554432 cpu:         3.1
 (Enter /apl/tryton/gaussian/09/d01/g09/l716.exe)
 Dipole        = 1.32263337D-16 7.39557099D-32 2.89369765D-14
 Polarizability= 2.10346565D+01-1.14474387D-08 2.18223541D+01
                 7.55043026D-08 7.88920719D-09 7.85355360D+01
 Full mass-weighted force constant matrix:
 Low frequencies ---   -4.1022   -3.8492   -0.0019    0.0011    0.0011  125.0401
 Low frequencies ---  142.1697  213.5054  284.6592
 Diagonal vibrational polarizability:
       21.3660001       8.8003232      10.0456063
 Harmonic frequencies (cm**-1), IR intensities (KM/Mole), Raman scattering
 activities (A**4/AMU), depolarization ratios for plane and unpolarized
 incident light, reduced masses (AMU), force constants (mDyne/A),
 and normal coordinates:
                      1                      2                      3
                     PIU                    PIU                    PIG
 Frequencies --    125.0401               142.1697               213.5035
 Red. masses --     12.0000                12.0000                12.0000
 Frc consts  --      0.1105                 0.1429                 0.3223
 IR Inten    --     12.4134                 6.6097                 0.0000
  Atom  AN      X      Y      Z        X      Y      Z        X      Y      Z
     1   6     0.50  -0.00  -0.00     0.00   0.50  -0.00    -0.21   0.00   0.00
     2   6    -0.50   0.00   0.00    -0.00  -0.50  -0.00     0.67  -0.00   0.00
     3   6    -0.50  -0.00   0.00     0.00  -0.50   0.00    -0.67  -0.00  -0.00
     4   6     0.50   0.00  -0.00    -0.00   0.50   0.00     0.21   0.00  -0.00
                      4                      5                      6
                     PIG                    SGG                    SGU
 Frequencies --    284.6582               888.7989              1324.5813
 Red. masses --     12.0000                12.0000                12.0000
 Frc consts  --      0.5729                 5.5852                12.4048
 IR Inten    --      0.0000                 0.0000               654.9381
  Atom  AN      X      Y      Z        X      Y      Z        X      Y      Z
     1   6    -0.00  -0.21  -0.00     0.00   0.00   0.68    -0.00   0.00  -0.50
     2   6     0.00   0.67   0.00    -0.00  -0.00   0.18     0.00  -0.00   0.50
     3   6     0.00  -0.67   0.00     0.00  -0.00  -0.18     0.00   0.00   0.50
     4   6    -0.00   0.21  -0.00    -0.00   0.00  -0.68    -0.00  -0.00  -0.50
                      7
                     SGG
 Frequencies --   2142.5447
 Red. masses --     12.0000
 Frc consts  --     32.4557
 IR Inten    --      0.0000
  Atom  AN      X      Y      Z
     1   6    -0.00   0.00  -0.18
     2   6     0.00  -0.00   0.68
     3   6    -0.00  -0.00  -0.68
     4   6     0.00   0.00   0.18

 -------------------
 - Thermochemistry -
 -------------------
 Temperature   298.150 Kelvin.  Pressure   1.00000 Atm.
 Atom     1 has atomic number  6 and mass  12.00000
 Atom     2 has atomic number  6 and mass  12.00000
 Atom     3 has atomic number  6 and mass  12.00000
 Atom     4 has atomic number  6 and mass  12.00000
 Molecular mass:    48.00000 amu.
 Principal axes and moments of inertia in atomic units:
                           1         2         3
     Eigenvalues --     0.00000 375.26875 375.26875
           X           -0.00000   1.00000  -0.00000
           Y            0.00000   0.00000   1.00000
           Z            1.00000   0.00000  -0.00000
 This molecule is a prolate symmetric top.
 Rotational symmetry number  2.
 Rotational temperature (Kelvin)      0.23080
 Rotational constant (GHZ):           4.809197
 Zero-point vibrational energy      30632.2 (Joules/Mol)
                                    7.32126 (Kcal/Mol)
 Warning -- explicit consideration of   4 degrees of freedom as
           vibrations may cause significant error
 Vibrational temperatures:    179.90   204.55   307.18   409.56  1278.78
          (Kelvin)           1905.77  3082.64
 
 Zero-point correction=                           0.011667 (Hartree/Particle)
 Thermal correction to Energy=                    0.016419
 Thermal correction to Enthalpy=                  0.017363
 Thermal correction to Gibbs Free Energy=        -0.012684
 Sum of electronic and zero-point Energies=           -151.705178
 Sum of electronic and thermal Energies=              -151.700426
 Sum of electronic and thermal Enthalpies=            -151.699482
 Sum of electronic and thermal Free Energies=         -151.729529
 
                     E (Thermal)             CV                S
                      KCal/Mol        Cal/Mol-Kelvin    Cal/Mol-Kelvin
 Total                   10.303             12.988             63.239
 Electronic               0.000              0.000              1.377
 Translational            0.889              2.981             37.530
 Rotational               0.592              1.987             14.846
 Vibrational              8.822              8.020              9.486
 Vibration     1          0.610              1.928              3.021
 Vibration     2          0.616              1.911              2.774
 Vibration     3          0.644              1.820              2.014
 Vibration     4          0.683              1.702              1.506
                       Q            Log10(Q)             Ln(Q)
 Total Bot       0.682678D+06          5.834216         13.433778
 Total V=0       0.158756D+12         11.200731         25.790636
 Vib (Bot)       0.404305D-04         -4.393291        -10.115927
 Vib (Bot)    1  0.163239D+01          0.212824          0.490045
 Vib (Bot)    2  0.142939D+01          0.155151          0.357248
 Vib (Bot)    3  0.928956D+00         -0.032005         -0.073694
 Vib (Bot)    4  0.673742D+00         -0.171506         -0.394908
 Vib (V=0)       0.940207D+01          0.973224          2.240930
 Vib (V=0)    1  0.220725D+01          0.343851          0.791746
 Vib (V=0)    2  0.201432D+01          0.304128          0.700280
 Vib (V=0)    3  0.155497D+01          0.191722          0.441456
 Vib (V=0)    4  0.133900D+01          0.126782          0.291926
 Electronic      0.200000D+01          0.301030          0.693147
 Translational   0.130712D+08          7.116317         16.385926
 Rotational      0.645892D+03          2.810160          6.470633
 
                                                                 min
                                                             IR Spectrum
 
      2                                               1                                                                              
      1                                               3                         8                                   2   2   11       
      4                                               2                         8                                   8   1   42       
      3                                               5                         9                                   5   4   25       
 
                                                      X                                                                     XX       
                                                      X                                                                              
                                                      X                                                                              
                                                      X                                                                              
                                                      X                                                                              
                                                      X                                                                              
                                                      X                                                                              
                                                      X                                                                              
                                                      X                                                                              
                                                      X                                                                              
                                                      X                                                                              
                                                      X                                                                              
                                                      X                                                                              
                                                      X                                                                              
                                                      X                                                                              
                                                      X                                                                              
                                                      X                                                                              
                                                      X                                                                              
                                                      X                                                                              
                                                      X                                                                              
 
 ***** Axes restored to original set *****
 -------------------------------------------------------------------
 Center     Atomic                   Forces (Hartrees/Bohr)
 Number     Number              X              Y              Z
 -------------------------------------------------------------------
      1        6           0.000000000    0.000000000    0.000153156
      2        6          -0.000000000    0.000000000   -0.000300601
      3        6           0.000000000    0.000000000    0.000300601
      4        6          -0.000000000   -0.000000000   -0.000153156
 -------------------------------------------------------------------
 Cartesian Forces:  Max     0.000300601 RMS     0.000137730
 Z-matrix is all fixed cartesians, so copy forces.
 Force constants in Cartesian coordinates: 
                1             2             3             4             5 
      1  0.268230D-02
      2  0.000000D+00  0.392584D-02
      3  0.000000D+00  0.000000D+00  0.437498D+00
      4 -0.470757D-02  0.000000D+00  0.000000D+00  0.112149D-01
      5  0.000000D+00 -0.753060D-02  0.000000D+00  0.000000D+00  0.190587D-01
      6  0.000000D+00  0.000000D+00 -0.416874D+00  0.000000D+00  0.000000D+00
      7  0.115746D-02  0.000000D+00  0.000000D+00 -0.766469D-02  0.000000D+00
      8  0.000000D+00  0.294119D-02  0.000000D+00  0.000000D+00 -0.144693D-01
      9  0.000000D+00  0.000000D+00  0.184923D-01  0.000000D+00  0.000000D+00
     10  0.867682D-03  0.000000D+00  0.000000D+00  0.115746D-02  0.000000D+00
     11  0.000000D+00  0.663572D-03  0.000000D+00  0.000000D+00  0.294119D-02
     12  0.000000D+00  0.000000D+00 -0.391155D-01  0.000000D+00  0.000000D+00
                6             7             8             9            10 
      6  0.118258D+01
      7  0.000000D+00  0.112149D-01
      8  0.000000D+00  0.000000D+00  0.190587D-01
      9 -0.784196D+00  0.000000D+00  0.000000D+00  0.118258D+01
     10  0.000000D+00 -0.470757D-02  0.000000D+00  0.000000D+00  0.268230D-02
     11  0.000000D+00  0.000000D+00 -0.753060D-02  0.000000D+00  0.000000D+00
     12  0.184923D-01  0.000000D+00  0.000000D+00 -0.416874D+00  0.000000D+00
               11            12 
     11  0.392584D-02
     12  0.000000D+00  0.437498D+00
 Leave Link  716 at Thu Jan 24 15:33:56 2019, MaxMem=    33554432 cpu:         0.0
 (Enter /apl/tryton/gaussian/09/d01/g09/l103.exe)

 GradGradGradGradGradGradGradGradGradGradGradGradGradGradGradGradGradGrad
 Berny optimization.
 Search for a local minimum.
 Step number   1 out of a maximum of    2
 All quantities printed in internal units (Hartrees-Bohrs-Radians)
 Second derivative matrix not updated -- analytic derivatives used.
 The second derivative matrix:
                          X1        Y1        Z1        X2        Y2
           X1           0.00268
           Y1           0.00000   0.00393
           Z1          -0.00000  -0.00000   0.43750
           X2          -0.00471   0.00000  -0.00000   0.01121
           Y2          -0.00000  -0.00753   0.00000  -0.00000   0.01906
           Z2           0.00000   0.00000  -0.41687   0.00000  -0.00000
           X3           0.00116   0.00000   0.00000  -0.00766   0.00000
           Y3           0.00000   0.00294  -0.00000  -0.00000  -0.01447
           Z3           0.00000  -0.00000   0.01849  -0.00000   0.00000
           X4           0.00087   0.00000   0.00000   0.00116  -0.00000
           Y4          -0.00000   0.00066   0.00000  -0.00000   0.00294
           Z4           0.00000  -0.00000  -0.03912   0.00000   0.00000
                          Z2        X3        Y3        Z3        X4
           Z2           1.18258
           X3          -0.00000   0.01121
           Y3          -0.00000   0.00000   0.01906
           Z3          -0.78420   0.00000   0.00000   1.18258
           X4           0.00000  -0.00471   0.00000   0.00000   0.00268
           Y4           0.00000  -0.00000  -0.00753  -0.00000  -0.00000
           Z4           0.01849  -0.00000  -0.00000  -0.41687  -0.00000
                          Y4        Z4
           Y4           0.00393
           Z4           0.00000   0.43750
 ITU=  0
     Eigenvalues ---    0.00710   0.00918   0.02070   0.03680   0.35874
     Eigenvalues ---    0.79676   2.08465
 Angle between quadratic step and forces=  38.79 degrees.
 ClnCor:  largest displacement from symmetrization is 8.06D-12 for atom     2.
 Linear search not attempted -- first point.
 ClnCor:  largest displacement from symmetrization is 4.04D-28 for atom     1.
 TrRot=  0.000000  0.000000  0.000000  0.000000  0.000000  0.000000
 Variable       Old X    -DE/DX   Delta X   Delta X   Delta X     New X
                                 (Linear)    (Quad)   (Total)
    X1        0.00000   0.00000   0.00000  -0.00000   0.00000   0.00000
    Y1        0.00000   0.00000   0.00000   0.00000   0.00000   0.00000
    Z1        3.77142   0.00015   0.00000   0.00023   0.00023   3.77165
    X2        0.00000  -0.00000   0.00000   0.00000   0.00000   0.00000
    Y2        0.00000   0.00000   0.00000   0.00000   0.00000   0.00000
    Z2        1.18851  -0.00030   0.00000  -0.00010  -0.00010   1.18841
    X3        0.00000   0.00000   0.00000  -0.00000  -0.00000   0.00000
    Y3        0.00000   0.00000   0.00000   0.00000   0.00000   0.00000
    Z3       -1.18851   0.00030   0.00000   0.00010   0.00010  -1.18841
    X4        0.00000  -0.00000   0.00000   0.00000   0.00000   0.00000
    Y4        0.00000  -0.00000   0.00000   0.00000   0.00000   0.00000
    Z4       -3.77142  -0.00015   0.00000  -0.00023  -0.00023  -3.77165
         Item               Value     Threshold  Converged?
 Maximum Force            0.000301     0.000450     YES
 RMS     Force            0.000138     0.000300     YES
 Maximum Displacement     0.000228     0.001800     YES
 RMS     Displacement     0.000102     0.001200     YES
 Predicted change in Energy=-6.567365D-08
 Optimization completed.
    -- Stationary point found.
 GradGradGradGradGradGradGradGradGradGradGradGradGradGradGradGradGradGrad

 Leave Link  103 at Thu Jan 24 15:33:56 2019, MaxMem=    33554432 cpu:         0.0
 (Enter /apl/tryton/gaussian/09/d01/g09/l9999.exe)
 1\1\ CITASK-GV0222\Freq\UB3LYP\6-311++G(d,p)\C4(1+,2)\EERD\24-Jan-2019
 \0\\#p b3lyp/6-311++g(d,p) freq\\min\\1,2\C,0.,0.,1.995751\C,0.,0.,0.6
 28935\C,0.,0.,-0.628935\C,0.,0.,-1.995751\\Version=ES64L-G09RevD.01\HF
 =-151.716845\S2=0.766888\S2-1=0.\S2A=0.750051\RMSD=4.959e-09\RMSF=1.37
 7e-04\ZeroPoint=0.0116672\Thermal=0.0164188\Dipole=0.,0.,0.\DipoleDeri
 v=0.0545527,0.,0.,0.,0.1073819,0.,0.,0.,1.6696626,0.4454472,0.,0.,0.,0
 .3926181,0.,0.,0.,-1.1696626,0.4454472,0.,0.,0.,0.3926181,0.,0.,0.,-1.
 1696626,0.0545528,0.,0.,0.,0.1073819,0.,0.,0.,1.6696626\Polar=21.03465
 65,0.,21.8223541,0.,0.,78.535536\PG=D*H [C*(C1C1.C1C1)]\NImag=0\\0.002
 68230,0.,0.00392584,0.,0.,0.43749773,-0.00470757,0.,0.,0.01121492,0.,-
 0.00753060,0.,0.,0.01905870,0.,0.,-0.41687450,0.,0.,1.18257779,0.00115
 746,0.,0.,-0.00766469,0.,0.,0.01121492,0.,0.00294119,0.,0.,-0.01446930
 ,0.,0.,0.01905870,0.,0.,0.01849230,0.,0.,-0.78419559,0.,0.,1.18257779,
 0.00086768,0.,0.,0.00115746,0.,0.,-0.00470757,0.,0.,0.00268230,0.,0.00
 066357,0.,0.,0.00294119,0.,0.,-0.00753060,0.,0.,0.00392584,0.,0.,-0.03
 911552,0.,0.,0.01849230,0.,0.,-0.41687450,0.,0.,0.43749773\\0.,0.,-0.0
 0015316,0.,0.,0.00030060,0.,0.,-0.00030060,0.,0.,0.00015316\\\@


 THE REAL VOYAGE OF DISCOVERY CONSISTS NOT IN SEEKING NEW LANDSCAPES 
 BUT IN HAVING NEW EYES.
                                                    -- MARCEL PROUST
 Job cpu time:       0 days  0 hours  0 minutes 26.0 seconds.
 File lengths (MBytes):  RWF=      8 Int=      0 D2E=      0 Chk=      2 Scr=      1
 Normal termination of Gaussian 09 at Thu Jan 24 15:33:56 2019.
