 Entering Gaussian System, Link 0=g09
 Initial command:
 /apl/tryton/gaussian/09/d01/g09/l1.exe "/users/work/eerd/M3C-outputs/ionized/9/Gau-3581.inp" -scrdir="/users/work/eerd/M3C-outputs/ionized/9/"
 Entering Link 1 = /apl/tryton/gaussian/09/d01/g09/l1.exe PID=      3582.
  
 Copyright (c) 1988,1990,1992,1993,1995,1998,2003,2009,2013,
            Gaussian, Inc.  All Rights Reserved.
  
 This is part of the Gaussian(R) 09 program.  It is based on
 the Gaussian(R) 03 system (copyright 2003, Gaussian, Inc.),
 the Gaussian(R) 98 system (copyright 1998, Gaussian, Inc.),
 the Gaussian(R) 94 system (copyright 1995, Gaussian, Inc.),
 the Gaussian 92(TM) system (copyright 1992, Gaussian, Inc.),
 the Gaussian 90(TM) system (copyright 1990, Gaussian, Inc.),
 the Gaussian 88(TM) system (copyright 1988, Gaussian, Inc.),
 the Gaussian 86(TM) system (copyright 1986, Carnegie Mellon
 University), and the Gaussian 82(TM) system (copyright 1983,
 Carnegie Mellon University). Gaussian is a federally registered
 trademark of Gaussian, Inc.
  
 This software contains proprietary and confidential information,
 including trade secrets, belonging to Gaussian, Inc.
  
 This software is provided under written license and may be
 used, copied, transmitted, or stored only in accord with that
 written license.
  
 The following legend is applicable only to US Government
 contracts under FAR:
  
                    RESTRICTED RIGHTS LEGEND
  
 Use, reproduction and disclosure by the US Government is
 subject to restrictions as set forth in subparagraphs (a)
 and (c) of the Commercial Computer Software - Restricted
 Rights clause in FAR 52.227-19.
  
 Gaussian, Inc.
 340 Quinnipiac St., Bldg. 40, Wallingford CT 06492
  
  
 ---------------------------------------------------------------
 Warning -- This program may not be used in any manner that
 competes with the business of Gaussian, Inc. or will provide
 assistance to any competitor of Gaussian, Inc.  The licensee
 of this program is prohibited from giving any competitor of
 Gaussian, Inc. access to this program.  By using this program,
 the user acknowledges that Gaussian, Inc. is engaged in the
 business of creating and licensing software in the field of
 computational chemistry and represents and warrants to the
 licensee that it is not a competitor of Gaussian, Inc. and that
 it will not use this program in any manner prohibited above.
 ---------------------------------------------------------------
  

 Cite this work as:
 Gaussian 09, Revision D.01,
 M. J. Frisch, G. W. Trucks, H. B. Schlegel, G. E. Scuseria, 
 M. A. Robb, J. R. Cheeseman, G. Scalmani, V. Barone, B. Mennucci, 
 G. A. Petersson, H. Nakatsuji, M. Caricato, X. Li, H. P. Hratchian, 
 A. F. Izmaylov, J. Bloino, G. Zheng, J. L. Sonnenberg, M. Hada, 
 M. Ehara, K. Toyota, R. Fukuda, J. Hasegawa, M. Ishida, T. Nakajima, 
 Y. Honda, O. Kitao, H. Nakai, T. Vreven, J. A. Montgomery, Jr., 
 J. E. Peralta, F. Ogliaro, M. Bearpark, J. J. Heyd, E. Brothers, 
 K. N. Kudin, V. N. Staroverov, T. Keith, R. Kobayashi, J. Normand, 
 K. Raghavachari, A. Rendell, J. C. Burant, S. S. Iyengar, J. Tomasi, 
 M. Cossi, N. Rega, J. M. Millam, M. Klene, J. E. Knox, J. B. Cross, 
 V. Bakken, C. Adamo, J. Jaramillo, R. Gomperts, R. E. Stratmann, 
 O. Yazyev, A. J. Austin, R. Cammi, C. Pomelli, J. W. Ochterski, 
 R. L. Martin, K. Morokuma, V. G. Zakrzewski, G. A. Voth, 
 P. Salvador, J. J. Dannenberg, S. Dapprich, A. D. Daniels, 
 O. Farkas, J. B. Foresman, J. V. Ortiz, J. Cioslowski, 
 and D. J. Fox, Gaussian, Inc., Wallingford CT, 2013.
 
 ******************************************
 Gaussian 09:  ES64L-G09RevD.01 24-Apr-2013
                24-Jan-2019 
 ******************************************
 ---------------------------
 #p b3lyp/6-311++g(d,p) freq
 ---------------------------
 1/10=4,30=1,38=1/1,3;
 2/12=2,17=6,18=5,40=1/2;
 3/5=4,6=6,7=1111,11=2,16=1,25=1,30=1,71=2,74=-5,140=1/1,2,3;
 4//1;
 5/5=2,38=5,98=1/2;
 8/6=4,10=90,11=11/1;
 11/6=1,8=1,9=11,15=111,16=1/1,2,10;
 10/6=1/2;
 6/7=2,8=2,9=2,10=2,18=1,28=1/1;
 7/8=1,10=1,25=1/1,2,3,16;
 1/10=4,30=1/3;
 99//99;
 Leave Link    1 at Thu Jan 24 16:10:07 2019, MaxMem=           0 cpu:         0.0
 (Enter /apl/tryton/gaussian/09/d01/g09/l101.exe)
 ---
 min
 ---
 Symbolic Z-matrix:
 Charge =  1 Multiplicity = 2
 O                     1.70375   0.7068    0.00216 
 C                    -0.72927  -0.17019  -0.00087 
 C                     0.76836  -0.01641   0.00054 
 C                     0.04555  -1.23425  -0.00149 
 C                    -1.94904   0.63365  -0.00092 
 H                     0.20766  -2.3079   -0.00262 
 H                    -1.97509   1.27302   0.88683 
 H                    -2.81428  -0.03714  -0.00243 
 H                    -1.97363   1.27512  -0.88721 
 
 NAtoms=      9 NQM=        9 NQMF=       0 NMMI=      0 NMMIF=      0
                NMic=       0 NMicF=      0.
                    Isotopes and Nuclear Properties:
 (Nuclear quadrupole moments (NQMom) in fm**2, nuclear magnetic moments (NMagM)
  in nuclear magnetons)

  Atom         1           2           3           4           5           6           7           8           9
 IAtWgt=          16          12          12          12          12           1           1           1           1
 AtmWgt=  15.9949146  12.0000000  12.0000000  12.0000000  12.0000000   1.0078250   1.0078250   1.0078250   1.0078250
 NucSpn=           0           0           0           0           0           1           1           1           1
 AtZEff=   0.0000000   0.0000000   0.0000000   0.0000000   0.0000000   0.0000000   0.0000000   0.0000000   0.0000000
 NQMom=    0.0000000   0.0000000   0.0000000   0.0000000   0.0000000   0.0000000   0.0000000   0.0000000   0.0000000
 NMagM=    0.0000000   0.0000000   0.0000000   0.0000000   0.0000000   2.7928460   2.7928460   2.7928460   2.7928460
 AtZNuc=   8.0000000   6.0000000   6.0000000   6.0000000   6.0000000   1.0000000   1.0000000   1.0000000   1.0000000
 Leave Link  101 at Thu Jan 24 16:10:07 2019, MaxMem=    33554432 cpu:         0.1
 (Enter /apl/tryton/gaussian/09/d01/g09/l103.exe)

 GradGradGradGradGradGradGradGradGradGradGradGradGradGradGradGradGradGrad
 Berny optimization.
 Initialization pass.
 Trust Radius=3.00D-01 FncErr=1.00D-07 GrdErr=1.00D-07
 Number of steps in this run=      2 maximum allowed number of steps=      2.
 GradGradGradGradGradGradGradGradGradGradGradGradGradGradGradGradGradGrad

 Leave Link  103 at Thu Jan 24 16:10:07 2019, MaxMem=    33554432 cpu:         0.0
 (Enter /apl/tryton/gaussian/09/d01/g09/l202.exe)
                          Input orientation:                          
 ---------------------------------------------------------------------
 Center     Atomic      Atomic             Coordinates (Angstroms)
 Number     Number       Type             X           Y           Z
 ---------------------------------------------------------------------
      1          8           0        1.703748    0.706803    0.002162
      2          6           0       -0.729272   -0.170195   -0.000870
      3          6           0        0.768358   -0.016409    0.000541
      4          6           0        0.045552   -1.234254   -0.001487
      5          6           0       -1.949043    0.633654   -0.000924
      6          1           0        0.207661   -2.307899   -0.002620
      7          1           0       -1.975091    1.273025    0.886829
      8          1           0       -2.814276   -0.037137   -0.002425
      9          1           0       -1.973634    1.275115   -0.887210
 ---------------------------------------------------------------------
                    Distance matrix (angstroms):
                    1          2          3          4          5
     1  O    0.000000
     2  C    2.586256   0.000000
     3  C    1.182368   1.505505   0.000000
     4  C    2.552906   1.316273   1.416191   0.000000
     5  C    3.653524   1.460826   2.794074   2.732670   0.000000
     6  H    3.365521   2.334015   2.359092   1.085815   3.647479
     7  H    3.825846   2.103083   3.158268   3.340442   1.094340
     8  H    4.578865   2.089246   3.582695   3.100275   1.094802
     9  H    3.825846   2.103083   3.158268   3.340442   1.094340
                    6          7          8          9
     6  H    0.000000
     7  H    4.287020   0.000000
     8  H    3.780008   1.792073   0.000000
     9  H    4.287020   1.774040   1.792073   0.000000
 Stoichiometry    C4H4O(1+,2)
 Framework group  CS[SG(C4H2O),X(H2)]
 Deg. of freedom    14
 Full point group                 CS      NOp   2
 Largest Abelian subgroup         CS      NOp   2
 Largest concise Abelian subgroup CS      NOp   2
                         Standard orientation:                         
 ---------------------------------------------------------------------
 Center     Atomic      Atomic             Coordinates (Angstroms)
 Number     Number       Type             X           Y           Z
 ---------------------------------------------------------------------
      1          8           0        0.075167   -1.937878    0.000000
      2          6           0        0.000000    0.647285   -0.000000
      3          6           0       -0.320555   -0.823698    0.000000
      4          6           0       -1.252525    0.242618    0.000000
      5          6           0        1.143922    1.555831   -0.000000
      6          1           0       -2.323228    0.423145    0.000000
      7          1           0        1.760342    1.380326    0.887020
      8          1           0        0.776151    2.587012   -0.000000
      9          1           0        1.760342    1.380326   -0.887020
 ---------------------------------------------------------------------
 Rotational constants (GHZ):     12.1473824      4.1110478      3.1319188
 Leave Link  202 at Thu Jan 24 16:10:07 2019, MaxMem=    33554432 cpu:         0.0
 (Enter /apl/tryton/gaussian/09/d01/g09/l301.exe)
 Standard basis: 6-311++G(d,p) (5D, 7F)
 Ernie: Thresh=  0.10000D-02 Tol=  0.10000D-05 Strict=F.
 There are   104 symmetry adapted cartesian basis functions of A'  symmetry.
 There are    39 symmetry adapted cartesian basis functions of A"  symmetry.
 There are    99 symmetry adapted basis functions of A'  symmetry.
 There are    39 symmetry adapted basis functions of A"  symmetry.
   138 basis functions,   216 primitive gaussians,   143 cartesian basis functions
    18 alpha electrons       17 beta electrons
       nuclear repulsion energy       146.8510055382 Hartrees.
 IExCor=  402 DFT=T Ex+Corr=B3LYP ExCW=0 ScaHFX=  0.200000
 ScaDFX=  0.800000  0.720000  1.000000  0.810000 ScalE2=  1.000000  1.000000
 IRadAn=      0 IRanWt=     -1 IRanGd=            0 ICorTp=0 IEmpDi=  4
 NAtoms=    9 NActive=    9 NUniq=    8 SFac= 1.27D+00 NAtFMM=   60 NAOKFM=F Big=F
 Integral buffers will be    131072 words long.
 Raffenetti 2 integral format.
 Two-electron integral symmetry is turned on.
 Leave Link  301 at Thu Jan 24 16:10:07 2019, MaxMem=    33554432 cpu:         0.0
 (Enter /apl/tryton/gaussian/09/d01/g09/l302.exe)
 NPDir=0 NMtPBC=     1 NCelOv=     1 NCel=       1 NClECP=     1 NCelD=      1
         NCelK=      1 NCelE2=     1 NClLst=     1 CellRange=     0.0.
 One-electron integrals computed using PRISM.
 One-electron integral symmetry used in STVInt
 NBasis=   138 RedAO= T EigKep=  1.03D-05  NBF=    99    39
 NBsUse=   138 1.00D-06 EigRej= -1.00D+00 NBFU=    99    39
 Precomputing XC quadrature grid using
 IXCGrd= 4 IRadAn=           0 IRanWt=          -1 IRanGd=           0 AccXCQ= 0.00D+00.
 Generated NRdTot=       0 NPtTot=           0 NUsed=           0 NTot=          32
 NSgBfM=   143   143   143   143   143 MxSgAt=     9 MxSgA2=     9.
 Leave Link  302 at Thu Jan 24 16:10:07 2019, MaxMem=    33554432 cpu:         0.2
 (Enter /apl/tryton/gaussian/09/d01/g09/l303.exe)
 DipDrv:  MaxL=1.
 Leave Link  303 at Thu Jan 24 16:10:07 2019, MaxMem=    33554432 cpu:         0.0
 (Enter /apl/tryton/gaussian/09/d01/g09/l401.exe)
 ExpMin= 3.60D-02 ExpMax= 8.59D+03 ExpMxC= 1.30D+03 IAcc=3 IRadAn=         5 AccDes= 0.00D+00
 Harris functional with IExCor=  402 and IRadAn=       5 diagonalized for initial guess.
 HarFok:  IExCor=  402 AccDes= 0.00D+00 IRadAn=         5 IDoV= 1 UseB2=F ITyADJ=14
 ICtDFT=  3500011 ScaDFX=  1.000000  1.000000  1.000000  1.000000
 FoFCou: FMM=F IPFlag=           0 FMFlag=      100000 FMFlg1=           0
         NFxFlg=           0 DoJE=T BraDBF=F KetDBF=T FulRan=T
         wScrn=  0.000000 ICntrl=     500 IOpCl=  0 I1Cent=   200000004 NGrid=           0
         NMat0=    1 NMatS0=      1 NMatT0=    0 NMatD0=    1 NMtDS0=    0 NMtDT0=    0
 Petite list used in FoFCou.
 Harris En= -229.767057447080    
 JPrj=0 DoOrth=F DoCkMO=F.
 Initial guess orbital symmetries:
 Alpha Orbitals:
       Occupied  (A') (A') (A') (A') (A') (A') (A') (A') (A') (A')
                 (A') (A') (A") (A') (A") (A') (A") (A')
       Virtual   (A") (A") (A') (A') (A') (A') (A") (A') (A') (A")
                 (A') (A') (A") (A') (A') (A') (A') (A") (A') (A")
                 (A") (A') (A') (A') (A') (A') (A') (A') (A') (A")
                 (A') (A') (A') (A') (A") (A') (A') (A') (A") (A')
                 (A") (A') (A") (A") (A') (A') (A') (A') (A') (A')
                 (A') (A') (A') (A") (A') (A') (A") (A") (A') (A')
                 (A") (A') (A') (A") (A") (A') (A") (A') (A') (A")
                 (A') (A") (A') (A') (A") (A') (A') (A") (A') (A')
                 (A') (A") (A') (A') (A") (A') (A') (A") (A") (A')
                 (A') (A') (A') (A") (A") (A') (A") (A') (A") (A')
                 (A') (A') (A') (A') (A') (A") (A') (A") (A') (A')
                 (A') (A') (A") (A') (A') (A') (A') (A') (A') (A')
 Beta  Orbitals:
       Occupied  (A') (A') (A') (A') (A') (A') (A') (A') (A') (A')
                 (A') (A') (A") (A') (A") (A') (A")
       Virtual   (A') (A") (A") (A') (A') (A') (A') (A") (A') (A')
                 (A") (A') (A') (A") (A') (A') (A') (A') (A") (A')
                 (A") (A") (A') (A') (A') (A') (A') (A') (A') (A')
                 (A") (A') (A') (A') (A') (A") (A') (A') (A') (A")
                 (A') (A") (A') (A") (A") (A') (A') (A') (A') (A')
                 (A') (A') (A') (A') (A") (A') (A') (A") (A") (A')
                 (A') (A") (A') (A') (A") (A") (A') (A") (A') (A')
                 (A") (A') (A") (A') (A') (A") (A') (A') (A") (A')
                 (A') (A') (A") (A') (A') (A") (A') (A') (A") (A")
                 (A') (A') (A') (A') (A") (A") (A') (A") (A') (A")
                 (A') (A') (A') (A') (A') (A') (A") (A') (A") (A')
                 (A') (A') (A') (A") (A') (A') (A') (A') (A') (A')
                 (A')
 The electronic state of the initial guess is 2-A'.
 Initial guess <Sx>= 0.0000 <Sy>= 0.0000 <Sz>= 0.5000 <S**2>= 0.7500 S= 0.5000
 Leave Link  401 at Thu Jan 24 16:10:09 2019, MaxMem=    33554432 cpu:         1.7
 (Enter /apl/tryton/gaussian/09/d01/g09/l502.exe)
 UHF open shell SCF:
 Using DIIS extrapolation, IDIIS=  1040.
 Integral symmetry usage will be decided dynamically.
 IVT=       82011 IEndB=       82011 NGot=    33554432 MDV=    33509654
 LenX=    33509654 LenY=    33488764
 Requested convergence on RMS density matrix=1.00D-08 within 128 cycles.
 Requested convergence on MAX density matrix=1.00D-06.
 Requested convergence on             energy=1.00D-06.
 No special actions if energy rises.
 Fock matrices will be formed incrementally for  20 cycles.

 Cycle   1  Pass 1  IDiag  1:
 FoFJK:  IHMeth= 1 ICntrl=       0 DoSepK=F KAlg= 0 I1Cent=   0 FoldK=F
 IRaf= 990000000 NMat=   1 IRICut=       1 DoRegI=T DoRafI=F ISym2E= 1.
 FoFCou: FMM=F IPFlag=           0 FMFlag=      100000 FMFlg1=           0
         NFxFlg=           0 DoJE=F BraDBF=F KetDBF=F FulRan=T
         wScrn=  0.000000 ICntrl=       0 IOpCl=  1 I1Cent=           0 NGrid=           0
         NMat0=    1 NMatS0=      1 NMatT0=    0 NMatD0=    1 NMtDS0=    0 NMtDT0=    0
 Petite list used in FoFCou.
 E= -229.621724400877    
 DIIS: error= 3.26D-02 at cycle   1 NSaved=   1.
 NSaved= 1 IEnMin= 1 EnMin= -229.621724400877     IErMin= 1 ErrMin= 3.26D-02
 ErrMax= 3.26D-02  0.00D+00 EMaxC= 1.00D-01 BMatC= 4.35D-01 BMatP= 4.35D-01
 IDIUse=3 WtCom= 6.74D-01 WtEn= 3.26D-01
 Coeff-Com:  0.100D+01
 Coeff-En:   0.100D+01
 Coeff:      0.100D+01
 Gap=     0.236 Goal=   None    Shift=    0.000
 Gap=     0.140 Goal=   None    Shift=    0.000
 GapD=    0.140 DampG=1.000 DampE=0.500 DampFc=0.5000 IDamp=-1.
 Damping current iteration by 5.00D-01
 RMSDP=9.88D-03 MaxDP=5.20D-01              OVMax= 1.94D-01

 Cycle   2  Pass 1  IDiag  1:
 RMSU=  4.43D-03    CP:  1.10D+00
 E= -229.645385177132     Delta-E=       -0.023660776256 Rises=F Damp=T
 DIIS: error= 1.77D-02 at cycle   2 NSaved=   2.
 NSaved= 2 IEnMin= 2 EnMin= -229.645385177132     IErMin= 2 ErrMin= 1.77D-02
 ErrMax= 1.77D-02  0.00D+00 EMaxC= 1.00D-01 BMatC= 8.64D-02 BMatP= 4.35D-01
 IDIUse=3 WtCom= 8.23D-01 WtEn= 1.77D-01
 Coeff-Com:  0.217D+00 0.783D+00
 Coeff-En:   0.340D+00 0.660D+00
 Coeff:      0.239D+00 0.761D+00
 Gap=     0.280 Goal=   None    Shift=    0.000
 Gap=     0.139 Goal=   None    Shift=    0.000
 RMSDP=3.26D-03 MaxDP=1.37D-01 DE=-2.37D-02 OVMax= 1.58D-01

 Cycle   3  Pass 1  IDiag  1:
 RMSU=  2.63D-03    CP:  1.17D+00  1.23D+00
 E= -229.689383400543     Delta-E=       -0.043998223410 Rises=F Damp=F
 DIIS: error= 1.78D-02 at cycle   3 NSaved=   3.
 NSaved= 3 IEnMin= 3 EnMin= -229.689383400543     IErMin= 2 ErrMin= 1.77D-02
 ErrMax= 1.78D-02  0.00D+00 EMaxC= 1.00D-01 BMatC= 9.61D-02 BMatP= 8.64D-02
 IDIUse=2 WtCom= 0.00D+00 WtEn= 1.00D+00
 Coeff-En:   0.000D+00 0.000D+00 0.100D+01
 Coeff:      0.000D+00 0.000D+00 0.100D+01
 Gap=     0.228 Goal=   None    Shift=    0.000
 Gap=     0.177 Goal=   None    Shift=    0.000
 RMSDP=3.85D-03 MaxDP=7.02D-02 DE=-4.40D-02 OVMax= 2.19D-01

 Cycle   4  Pass 1  IDiag  1:
 RMSU=  2.22D-03    CP:  1.17D+00  1.55D+00 -6.28D-02
 E= -229.570891571011     Delta-E=        0.118491829532 Rises=F Damp=F
 DIIS: error= 5.02D-02 at cycle   4 NSaved=   4.
 NSaved= 4 IEnMin= 3 EnMin= -229.689383400543     IErMin= 2 ErrMin= 1.77D-02
 ErrMax= 5.02D-02  0.00D+00 EMaxC= 1.00D-01 BMatC= 6.82D-01 BMatP= 8.64D-02
 IDIUse=2 WtCom= 0.00D+00 WtEn= 1.00D+00
 Coeff-En:   0.000D+00 0.000D+00 0.812D+00 0.188D+00
 Coeff:      0.000D+00 0.000D+00 0.812D+00 0.188D+00
 Gap=     0.249 Goal=   None    Shift=    0.000
 Gap=     0.159 Goal=   None    Shift=    0.000
 RMSDP=2.08D-03 MaxDP=4.59D-02 DE= 1.18D-01 OVMax= 8.95D-02

 Cycle   5  Pass 1  IDiag  1:
 RMSU=  5.66D-04    CP:  1.16D+00  1.34D+00  5.17D-01  5.96D-01
 E= -229.698130654566     Delta-E=       -0.127239083555 Rises=F Damp=F
 DIIS: error= 1.45D-02 at cycle   5 NSaved=   5.
 NSaved= 5 IEnMin= 5 EnMin= -229.698130654566     IErMin= 5 ErrMin= 1.45D-02
 ErrMax= 1.45D-02  0.00D+00 EMaxC= 1.00D-01 BMatC= 5.90D-02 BMatP= 8.64D-02
 IDIUse=3 WtCom= 8.55D-01 WtEn= 1.45D-01
 Coeff-Com: -0.167D-01 0.464D-01 0.278D+00-0.167D+00 0.859D+00
 Coeff-En:   0.000D+00 0.000D+00 0.402D+00 0.000D+00 0.598D+00
 Coeff:     -0.143D-01 0.397D-01 0.296D+00-0.143D+00 0.821D+00
 Gap=     0.258 Goal=   None    Shift=    0.000
 Gap=     0.154 Goal=   None    Shift=    0.000
 RMSDP=8.08D-04 MaxDP=1.60D-02 DE=-1.27D-01 OVMax= 3.89D-02

 Cycle   6  Pass 1  IDiag  1:
 RMSU=  1.22D-04    CP:  1.16D+00  1.28D+00  7.39D-01  3.83D-01  1.09D+00
 E= -229.710194675761     Delta-E=       -0.012064021195 Rises=F Damp=F
 DIIS: error= 4.19D-04 at cycle   6 NSaved=   6.
 NSaved= 6 IEnMin= 6 EnMin= -229.710194675761     IErMin= 6 ErrMin= 4.19D-04
 ErrMax= 4.19D-04  0.00D+00 EMaxC= 1.00D-01 BMatC= 6.05D-05 BMatP= 5.90D-02
 IDIUse=3 WtCom= 9.96D-01 WtEn= 4.19D-03
 Coeff-Com: -0.640D-02 0.257D-02 0.372D-01-0.495D-01 0.197D+00 0.819D+00
 Coeff-En:   0.000D+00 0.000D+00 0.000D+00 0.000D+00 0.000D+00 0.100D+01
 Coeff:     -0.637D-02 0.256D-02 0.371D-01-0.493D-01 0.197D+00 0.820D+00
 Gap=     0.257 Goal=   None    Shift=    0.000
 Gap=     0.153 Goal=   None    Shift=    0.000
 RMSDP=7.82D-05 MaxDP=2.53D-03 DE=-1.21D-02 OVMax= 3.70D-03

 Cycle   7  Pass 1  IDiag  1:
 RMSU=  5.49D-05    CP:  1.16D+00  1.28D+00  7.46D-01  3.89D-01  1.15D+00
                    CP:  1.24D+00
 E= -229.710220701310     Delta-E=       -0.000026025549 Rises=F Damp=F
 DIIS: error= 3.76D-04 at cycle   7 NSaved=   7.
 NSaved= 7 IEnMin= 7 EnMin= -229.710220701310     IErMin= 7 ErrMin= 3.76D-04
 ErrMax= 3.76D-04  0.00D+00 EMaxC= 1.00D-01 BMatC= 3.98D-05 BMatP= 6.05D-05
 IDIUse=3 WtCom= 9.96D-01 WtEn= 3.76D-03
 Coeff-Com:  0.132D-02-0.104D-01-0.481D-01 0.118D-01-0.106D+00 0.412D+00
 Coeff-Com:  0.739D+00
 Coeff-En:   0.000D+00 0.000D+00 0.000D+00 0.000D+00 0.000D+00 0.000D+00
 Coeff-En:   0.100D+01
 Coeff:      0.131D-02-0.104D-01-0.479D-01 0.117D-01-0.106D+00 0.411D+00
 Coeff:      0.740D+00
 Gap=     0.257 Goal=   None    Shift=    0.000
 Gap=     0.153 Goal=   None    Shift=    0.000
 RMSDP=5.84D-05 MaxDP=2.98D-03 DE=-2.60D-05 OVMax= 1.87D-03

 Cycle   8  Pass 1  IDiag  1:
 RMSU=  3.93D-05    CP:  1.16D+00  1.29D+00  7.53D-01  3.94D-01  1.19D+00
                    CP:  1.36D+00  9.54D-01
 E= -229.710232985338     Delta-E=       -0.000012284028 Rises=F Damp=F
 DIIS: error= 1.62D-04 at cycle   8 NSaved=   8.
 NSaved= 8 IEnMin= 8 EnMin= -229.710232985338     IErMin= 8 ErrMin= 1.62D-04
 ErrMax= 1.62D-04  0.00D+00 EMaxC= 1.00D-01 BMatC= 7.62D-06 BMatP= 3.98D-05
 IDIUse=3 WtCom= 9.98D-01 WtEn= 1.62D-03
 Coeff-Com:  0.204D-02-0.410D-02-0.358D-01 0.144D-01-0.961D-01-0.350D-01
 Coeff-Com:  0.426D+00 0.728D+00
 Coeff-En:   0.000D+00 0.000D+00 0.000D+00 0.000D+00 0.000D+00 0.000D+00
 Coeff-En:   0.000D+00 0.100D+01
 Coeff:      0.203D-02-0.409D-02-0.357D-01 0.144D-01-0.959D-01-0.350D-01
 Coeff:      0.426D+00 0.729D+00
 Gap=     0.257 Goal=   None    Shift=    0.000
 Gap=     0.153 Goal=   None    Shift=    0.000
 RMSDP=3.07D-05 MaxDP=1.63D-03 DE=-1.23D-05 OVMax= 1.12D-03

 Cycle   9  Pass 1  IDiag  1:
 RMSU=  1.50D-05    CP:  1.16D+00  1.28D+00  7.51D-01  3.94D-01  1.19D+00
                    CP:  1.46D+00  1.23D+00  8.19D-01
 E= -229.710235676316     Delta-E=       -0.000002690978 Rises=F Damp=F
 DIIS: error= 5.27D-05 at cycle   9 NSaved=   9.
 NSaved= 9 IEnMin= 9 EnMin= -229.710235676316     IErMin= 9 ErrMin= 5.27D-05
 ErrMax= 5.27D-05  0.00D+00 EMaxC= 1.00D-01 BMatC= 1.02D-06 BMatP= 7.62D-06
 IDIUse=1 WtCom= 1.00D+00 WtEn= 0.00D+00
 Coeff-Com:  0.554D-03-0.831D-04-0.860D-02 0.329D-02-0.228D-01-0.760D-01
 Coeff-Com:  0.116D+00 0.367D+00 0.621D+00
 Coeff:      0.554D-03-0.831D-04-0.860D-02 0.329D-02-0.228D-01-0.760D-01
 Coeff:      0.116D+00 0.367D+00 0.621D+00
 Gap=     0.257 Goal=   None    Shift=    0.000
 Gap=     0.153 Goal=   None    Shift=    0.000
 RMSDP=7.50D-06 MaxDP=4.39D-04 DE=-2.69D-06 OVMax= 2.72D-04

 Cycle  10  Pass 1  IDiag  1:
 RMSU=  5.16D-06    CP:  1.16D+00  1.28D+00  7.51D-01  3.94D-01  1.19D+00
                    CP:  1.46D+00  1.25D+00  9.22D-01  9.10D-01
 E= -229.710235972178     Delta-E=       -0.000000295862 Rises=F Damp=F
 DIIS: error= 1.27D-05 at cycle  10 NSaved=  10.
 NSaved=10 IEnMin=10 EnMin= -229.710235972178     IErMin=10 ErrMin= 1.27D-05
 ErrMax= 1.27D-05  0.00D+00 EMaxC= 1.00D-01 BMatC= 6.22D-08 BMatP= 1.02D-06
 IDIUse=1 WtCom= 1.00D+00 WtEn= 0.00D+00
 Coeff-Com: -0.107D-03 0.241D-03 0.380D-02-0.887D-03 0.838D-02-0.137D-01
 Coeff-Com: -0.392D-01-0.345D-01 0.155D+00 0.920D+00
 Coeff:     -0.107D-03 0.241D-03 0.380D-02-0.887D-03 0.838D-02-0.137D-01
 Coeff:     -0.392D-01-0.345D-01 0.155D+00 0.920D+00
 Gap=     0.257 Goal=   None    Shift=    0.000
 Gap=     0.153 Goal=   None    Shift=    0.000
 RMSDP=4.35D-06 MaxDP=2.51D-04 DE=-2.96D-07 OVMax= 1.14D-04

 Cycle  11  Pass 1  IDiag  1:
 RMSU=  1.63D-06    CP:  1.16D+00  1.28D+00  7.51D-01  3.94D-01  1.19D+00
                    CP:  1.46D+00  1.27D+00  9.38D-01  1.03D+00  1.21D+00
 E= -229.710236001619     Delta-E=       -0.000000029441 Rises=F Damp=F
 DIIS: error= 7.27D-06 at cycle  11 NSaved=  11.
 NSaved=11 IEnMin=11 EnMin= -229.710236001619     IErMin=11 ErrMin= 7.27D-06
 ErrMax= 7.27D-06  0.00D+00 EMaxC= 1.00D-01 BMatC= 6.58D-09 BMatP= 6.22D-08
 IDIUse=1 WtCom= 1.00D+00 WtEn= 0.00D+00
 Coeff-Com: -0.669D-04 0.150D-03 0.997D-03-0.429D-03 0.267D-02 0.349D-02
 Coeff-Com: -0.157D-01-0.341D-01-0.228D-01 0.194D+00 0.872D+00
 Coeff:     -0.669D-04 0.150D-03 0.997D-03-0.429D-03 0.267D-02 0.349D-02
 Coeff:     -0.157D-01-0.341D-01-0.228D-01 0.194D+00 0.872D+00
 Gap=     0.257 Goal=   None    Shift=    0.000
 Gap=     0.153 Goal=   None    Shift=    0.000
 RMSDP=1.15D-06 MaxDP=4.73D-05 DE=-2.94D-08 OVMax= 3.91D-05

 Cycle  12  Pass 1  IDiag  1:
 RMSU=  5.40D-07    CP:  1.16D+00  1.28D+00  7.51D-01  3.94D-01  1.18D+00
                    CP:  1.46D+00  1.27D+00  9.45D-01  1.05D+00  1.29D+00
                    CP:  1.14D+00
 E= -229.710236004636     Delta-E=       -0.000000003017 Rises=F Damp=F
 DIIS: error= 3.09D-06 at cycle  12 NSaved=  12.
 NSaved=12 IEnMin=12 EnMin= -229.710236004636     IErMin=12 ErrMin= 3.09D-06
 ErrMax= 3.09D-06  0.00D+00 EMaxC= 1.00D-01 BMatC= 1.08D-09 BMatP= 6.58D-09
 IDIUse=1 WtCom= 1.00D+00 WtEn= 0.00D+00
 Coeff-Com: -0.201D-05-0.309D-04-0.529D-04 0.166D-04-0.120D-03 0.342D-02
 Coeff-Com: -0.107D-02-0.792D-02-0.313D-01-0.725D-01 0.265D+00 0.845D+00
 Coeff:     -0.201D-05-0.309D-04-0.529D-04 0.166D-04-0.120D-03 0.342D-02
 Coeff:     -0.107D-02-0.792D-02-0.313D-01-0.725D-01 0.265D+00 0.845D+00
 Gap=     0.257 Goal=   None    Shift=    0.000
 Gap=     0.153 Goal=   None    Shift=    0.000
 RMSDP=4.91D-07 MaxDP=2.10D-05 DE=-3.02D-09 OVMax= 1.67D-05

 Cycle  13  Pass 1  IDiag  1:
 RMSU=  1.86D-07    CP:  1.16D+00  1.28D+00  7.51D-01  3.94D-01  1.18D+00
                    CP:  1.46D+00  1.27D+00  9.45D-01  1.06D+00  1.34D+00
                    CP:  1.24D+00  9.98D-01
 E= -229.710236005147     Delta-E=       -0.000000000511 Rises=F Damp=F
 DIIS: error= 7.62D-07 at cycle  13 NSaved=  13.
 NSaved=13 IEnMin=13 EnMin= -229.710236005147     IErMin=13 ErrMin= 7.62D-07
 ErrMax= 7.62D-07  0.00D+00 EMaxC= 1.00D-01 BMatC= 1.24D-10 BMatP= 1.08D-09
 IDIUse=1 WtCom= 1.00D+00 WtEn= 0.00D+00
 Coeff-Com:  0.835D-05-0.181D-04-0.186D-03 0.742D-04-0.461D-03 0.143D-03
 Coeff-Com:  0.230D-02 0.320D-02-0.206D-02-0.336D-01-0.606D-01 0.953D-01
 Coeff-Com:  0.996D+00
 Coeff:      0.835D-05-0.181D-04-0.186D-03 0.742D-04-0.461D-03 0.143D-03
 Coeff:      0.230D-02 0.320D-02-0.206D-02-0.336D-01-0.606D-01 0.953D-01
 Coeff:      0.996D+00
 Gap=     0.257 Goal=   None    Shift=    0.000
 Gap=     0.153 Goal=   None    Shift=    0.000
 RMSDP=1.20D-07 MaxDP=3.23D-06 DE=-5.11D-10 OVMax= 5.25D-06

 Cycle  14  Pass 1  IDiag  1:
 RMSU=  4.56D-08    CP:  1.16D+00  1.28D+00  7.51D-01  3.94D-01  1.18D+00
                    CP:  1.46D+00  1.27D+00  9.45D-01  1.06D+00  1.34D+00
                    CP:  1.27D+00  1.09D+00  1.17D+00
 E= -229.710236005199     Delta-E=       -0.000000000052 Rises=F Damp=F
 DIIS: error= 1.71D-07 at cycle  14 NSaved=  14.
 NSaved=14 IEnMin=14 EnMin= -229.710236005199     IErMin=14 ErrMin= 1.71D-07
 ErrMax= 1.71D-07  0.00D+00 EMaxC= 1.00D-01 BMatC= 6.46D-12 BMatP= 1.24D-10
 IDIUse=1 WtCom= 1.00D+00 WtEn= 0.00D+00
 Coeff-Com: -0.729D-06 0.211D-05-0.134D-05 0.559D-06 0.608D-06-0.112D-03
 Coeff-Com:  0.160D-03 0.349D-03 0.978D-03 0.415D-02-0.114D-01-0.501D-01
 Coeff-Com: -0.145D-02 0.106D+01
 Coeff:     -0.729D-06 0.211D-05-0.134D-05 0.559D-06 0.608D-06-0.112D-03
 Coeff:      0.160D-03 0.349D-03 0.978D-03 0.415D-02-0.114D-01-0.501D-01
 Coeff:     -0.145D-02 0.106D+01
 Gap=     0.257 Goal=   None    Shift=    0.000
 Gap=     0.153 Goal=   None    Shift=    0.000
 RMSDP=2.83D-08 MaxDP=1.12D-06 DE=-5.20D-11 OVMax= 1.37D-06

 Cycle  15  Pass 1  IDiag  1:
 RMSU=  1.08D-08    CP:  1.16D+00  1.28D+00  7.51D-01  3.94D-01  1.18D+00
                    CP:  1.46D+00  1.27D+00  9.45D-01  1.06D+00  1.34D+00
                    CP:  1.28D+00  1.09D+00  1.23D+00  1.10D+00
 E= -229.710236005202     Delta-E=       -0.000000000003 Rises=F Damp=F
 DIIS: error= 3.37D-08 at cycle  15 NSaved=  15.
 NSaved=15 IEnMin=15 EnMin= -229.710236005202     IErMin=15 ErrMin= 3.37D-08
 ErrMax= 3.37D-08  0.00D+00 EMaxC= 1.00D-01 BMatC= 1.72D-13 BMatP= 6.46D-12
 IDIUse=1 WtCom= 1.00D+00 WtEn= 0.00D+00
 Coeff-Com: -0.276D-06 0.623D-06 0.634D-05-0.231D-05 0.156D-04-0.765D-05
 Coeff-Com: -0.782D-04-0.125D-03 0.133D-03 0.127D-02 0.280D-02-0.449D-02
 Coeff-Com: -0.419D-01 0.564D-02 0.104D+01
 Coeff:     -0.276D-06 0.623D-06 0.634D-05-0.231D-05 0.156D-04-0.765D-05
 Coeff:     -0.782D-04-0.125D-03 0.133D-03 0.127D-02 0.280D-02-0.449D-02
 Coeff:     -0.419D-01 0.564D-02 0.104D+01
 Gap=     0.257 Goal=   None    Shift=    0.000
 Gap=     0.153 Goal=   None    Shift=    0.000
 RMSDP=8.32D-09 MaxDP=4.29D-07 DE=-3.47D-12 OVMax= 3.11D-07

 SCF Done:  E(UB3LYP) =  -229.710236005     A.U. after   15 cycles
            NFock= 15  Conv=0.83D-08     -V/T= 2.0040
 <Sx>= 0.0000 <Sy>= 0.0000 <Sz>= 0.5000 <S**2>= 0.7563 S= 0.5031
 <L.S>= 0.000000000000E+00
 KE= 2.288047427199D+02 PE=-8.205858637672D+02 EE= 2.152198795038D+02
 Annihilation of the first spin contaminant:
 S**2 before annihilation     0.7563,   after     0.7500
 Leave Link  502 at Thu Jan 24 16:10:51 2019, MaxMem=    33554432 cpu:        41.4
 (Enter /apl/tryton/gaussian/09/d01/g09/l801.exe)
 DoSCS=F DFT=T ScalE2(SS,OS)=  1.000000  1.000000
 Range of M.O.s used for correlation:     1   138
 NBasis=   138 NAE=    18 NBE=    17 NFC=     0 NFV=     0
 NROrb=    138 NOA=    18 NOB=    17 NVA=   120 NVB=   121

 **** Warning!!: The largest alpha MO coefficient is  0.14773203D+03


 **** Warning!!: The largest beta MO coefficient is  0.14187862D+03

 Leave Link  801 at Thu Jan 24 16:10:51 2019, MaxMem=    33554432 cpu:         0.0
 (Enter /apl/tryton/gaussian/09/d01/g09/l1101.exe)
 Using compressed storage, NAtomX=     9.
 Will process     10 centers per pass.
 Leave Link 1101 at Thu Jan 24 16:10:51 2019, MaxMem=    33554432 cpu:         0.2
 (Enter /apl/tryton/gaussian/09/d01/g09/l1102.exe)
 Symmetrizing basis deriv contribution to polar:
 IMax=3 JMax=2 DiffMx= 0.00D+00
 Leave Link 1102 at Thu Jan 24 16:10:51 2019, MaxMem=    33554432 cpu:         0.0
 (Enter /apl/tryton/gaussian/09/d01/g09/l1110.exe)
 Forming Gx(P) for the SCF density, NAtomX=     9.
 Integral derivatives from FoFJK, PRISM(SPDF).
 Do as many integral derivatives as possible in FoFJK.
 G2DrvN: MDV=      33554256.
 G2DrvN: will do    10 centers at a time, making    1 passes.
 Calling FoFCou, ICntrl=  3107 FMM=F I1Cent=   0 AccDes= 0.00D+00.
 FoFJK:  IHMeth= 1 ICntrl=    3107 DoSepK=F KAlg= 0 I1Cent=   0 FoldK=F
 IRaf=         0 NMat=   1 IRICut=       1 DoRegI=T DoRafI=F ISym2E= 1.
 FoFCou: FMM=F IPFlag=           0 FMFlag=      100000 FMFlg1=           0
         NFxFlg=           0 DoJE=F BraDBF=F KetDBF=F FulRan=T
         wScrn=  0.000000 ICntrl=    3107 IOpCl=  1 I1Cent=           0 NGrid=           0
         NMat0=    1 NMatS0=      1 NMatT0=    0 NMatD0=    1 NMtDS0=    0 NMtDT0=    0
 Petite list used in FoFCou.
 End of G2Drv F.D. properties file   721 does not exist.
 End of G2Drv F.D. properties file   722 does not exist.
 End of G2Drv F.D. properties file   788 does not exist.
 Leave Link 1110 at Thu Jan 24 16:11:31 2019, MaxMem=    33554432 cpu:        40.5
 (Enter /apl/tryton/gaussian/09/d01/g09/l1002.exe)
 Minotr:  UHF open shell wavefunction.
          IDoAtm=111111111
          Direct CPHF calculation.
          Differentiating once with respect to electric field.
                with respect to dipole field.
          Differentiating once with respect to nuclear coordinates.
          Using symmetry in CPHF.
          Requested convergence is 1.0D-08 RMS, and 1.0D-07 maximum.
          Secondary convergence is 1.0D-12 RMS, and 1.0D-12 maximum.
          NewPWx=T KeepS1=F KeepF1=F KeepIn=T MapXYZ=F SortEE=F KeepMc=T.
          MDV=      33554062 using IRadAn=       2.
 Generate precomputed XC quadrature information.
          Solving linear equations simultaneously, MaxMat=       0.
 FoFJK:  IHMeth= 1 ICntrl=       0 DoSepK=F KAlg= 0 I1Cent=   0 FoldK=F
 IRaf= 990000000 NMat=  27 IRICut=      67 DoRegI=T DoRafI=T ISym2E= 2.
 FoFCou: FMM=F IPFlag=           0 FMFlag=      100000 FMFlg1=           0
         NFxFlg=           0 DoJE=F BraDBF=F KetDBF=F FulRan=T
         wScrn=  0.000000 ICntrl=       0 IOpCl=  1 I1Cent=           0 NGrid=           0
         NMat0=   27 NMatS0=     27 NMatT0=    0 NMatD0=   27 NMtDS0=    0 NMtDT0=    0
 Integrals replicated using symmetry in FoFCou.
          There are    27 degrees of freedom in the 1st order CPHF.  IDoFFX=4 NUNeed=    27.
     27 vectors produced by pass  0 Test12= 1.56D-14 3.70D-09 XBig12= 1.47D+02 6.56D+00.
 AX will form    27 AO Fock derivatives at one time.
     27 vectors produced by pass  1 Test12= 1.56D-14 3.70D-09 XBig12= 5.83D+01 1.34D+00.
     27 vectors produced by pass  2 Test12= 1.56D-14 3.70D-09 XBig12= 1.78D+00 2.07D-01.
     27 vectors produced by pass  3 Test12= 1.56D-14 3.70D-09 XBig12= 1.65D-02 2.89D-02.
     27 vectors produced by pass  4 Test12= 1.56D-14 3.70D-09 XBig12= 2.29D-04 2.67D-03.
     27 vectors produced by pass  5 Test12= 1.56D-14 3.70D-09 XBig12= 1.04D-06 1.36D-04.
     21 vectors produced by pass  6 Test12= 1.56D-14 3.70D-09 XBig12= 4.35D-09 7.71D-06.
      7 vectors produced by pass  7 Test12= 1.56D-14 3.70D-09 XBig12= 1.65D-11 5.84D-07.
      2 vectors produced by pass  8 Test12= 1.56D-14 3.70D-09 XBig12= 2.46D-13 1.20D-07.
      2 vectors produced by pass  9 Test12= 1.56D-14 3.70D-09 XBig12= 7.75D-15 2.14D-08.
      2 vectors produced by pass 10 Test12= 1.56D-14 3.70D-09 XBig12= 6.61D-16 8.71D-09.
      1 vectors produced by pass 11 Test12= 1.56D-14 3.70D-09 XBig12= 4.35D-16 4.13D-09.
 InvSVY:  IOpt=1 It=  1 EMax= 1.78D-15
 Solved reduced A of dimension   197 with    27 vectors.
 FullF1:  Do perturbations    1 to    27.
 Isotropic polarizability for W=    0.000000       43.02 Bohr**3.
 End of Minotr F.D. properties file   721 does not exist.
 End of Minotr F.D. properties file   722 does not exist.
 End of Minotr F.D. properties file   788 does not exist.
 Leave Link 1002 at Thu Jan 24 16:14:06 2019, MaxMem=    33554432 cpu:       154.7
 (Enter /apl/tryton/gaussian/09/d01/g09/l601.exe)
 Copying SCF densities to generalized density rwf, IOpCl= 1 IROHF=0.

 **********************************************************************

            Population analysis using the SCF density.

 **********************************************************************

 Orbital symmetries:
 Alpha Orbitals:
       Occupied  (A') (A') (A') (A') (A') (A') (A') (A') (A') (A')
                 (A') (A") (A') (A') (A") (A') (A") (A')
       Virtual   (A") (A") (A') (A') (A') (A') (A") (A') (A') (A")
                 (A') (A") (A') (A') (A') (A') (A') (A") (A") (A')
                 (A') (A') (A") (A') (A') (A') (A') (A') (A') (A")
                 (A') (A') (A') (A') (A") (A') (A') (A') (A") (A")
                 (A') (A") (A') (A') (A") (A') (A') (A') (A') (A')
                 (A') (A') (A') (A") (A') (A') (A") (A") (A') (A")
                 (A') (A') (A') (A") (A') (A") (A") (A') (A") (A')
                 (A') (A") (A') (A') (A") (A') (A') (A') (A") (A')
                 (A') (A") (A') (A') (A") (A') (A') (A") (A') (A")
                 (A') (A') (A') (A") (A") (A') (A") (A') (A") (A')
                 (A') (A') (A') (A') (A') (A") (A') (A') (A") (A')
                 (A') (A') (A") (A') (A') (A') (A') (A') (A') (A')
 Beta  Orbitals:
       Occupied  (A') (A') (A') (A') (A') (A') (A') (A') (A') (A')
                 (A') (A") (A') (A') (A") (A') (A")
       Virtual   (A') (A") (A") (A') (A') (A') (A') (A") (A') (A')
                 (A") (A') (A") (A') (A') (A') (A') (A") (A') (A")
                 (A') (A') (A") (A') (A') (A') (A') (A') (A') (A')
                 (A") (A') (A') (A') (A') (A") (A') (A') (A') (A")
                 (A") (A') (A") (A') (A') (A") (A') (A') (A') (A')
                 (A') (A') (A') (A') (A") (A') (A') (A") (A") (A")
                 (A') (A') (A') (A') (A") (A') (A") (A") (A') (A")
                 (A') (A') (A") (A') (A') (A") (A') (A') (A") (A')
                 (A') (A') (A") (A') (A') (A") (A') (A') (A") (A')
                 (A") (A') (A') (A') (A") (A") (A") (A') (A') (A")
                 (A') (A') (A') (A') (A') (A') (A") (A') (A") (A')
                 (A') (A') (A') (A") (A') (A') (A') (A') (A') (A')
                 (A')
 The electronic state is 2-A'.
 Alpha  occ. eigenvalues --  -19.45291 -10.55524 -10.51977 -10.49662 -10.41273
 Alpha  occ. eigenvalues --   -1.37280  -1.20184  -0.99147  -0.84132  -0.79520
 Alpha  occ. eigenvalues --   -0.75188  -0.71948  -0.71541  -0.69129  -0.65307
 Alpha  occ. eigenvalues --   -0.63037  -0.57137  -0.52995
 Alpha virt. eigenvalues --   -0.27256  -0.23571  -0.17895  -0.13672  -0.12574
 Alpha virt. eigenvalues --   -0.11549  -0.11015  -0.09956  -0.08726  -0.07941
 Alpha virt. eigenvalues --   -0.07732  -0.05977  -0.05824  -0.04329  -0.03540
 Alpha virt. eigenvalues --   -0.02481  -0.01214  -0.01178  -0.00499  -0.00172
 Alpha virt. eigenvalues --    0.01664   0.02268   0.02741   0.03232   0.04317
 Alpha virt. eigenvalues --    0.05594   0.06005   0.08310   0.11909   0.12350
 Alpha virt. eigenvalues --    0.13423   0.16448   0.18399   0.22668   0.25386
 Alpha virt. eigenvalues --    0.25395   0.28767   0.31275   0.32159   0.35275
 Alpha virt. eigenvalues --    0.35298   0.38609   0.39646   0.42558   0.44588
 Alpha virt. eigenvalues --    0.47237   0.48308   0.51508   0.52708   0.56192
 Alpha virt. eigenvalues --    0.62586   0.64105   0.66538   0.71700   0.72125
 Alpha virt. eigenvalues --    0.73212   0.82401   0.84713   0.93124   0.94045
 Alpha virt. eigenvalues --    0.95111   0.95353   1.04170   1.10652   1.20589
 Alpha virt. eigenvalues --    1.22786   1.29612   1.30499   1.34524   1.35960
 Alpha virt. eigenvalues --    1.39792   1.42959   1.47068   1.48833   1.51080
 Alpha virt. eigenvalues --    1.52552   1.60855   1.70833   1.70997   1.77296
 Alpha virt. eigenvalues --    1.82093   1.87093   2.00744   2.08871   2.18903
 Alpha virt. eigenvalues --    2.23340   2.26344   2.31582   2.33576   2.34514
 Alpha virt. eigenvalues --    2.35119   2.38834   2.42606   2.44661   2.53711
 Alpha virt. eigenvalues --    2.54809   2.57521   2.58322   2.65227   2.72657
 Alpha virt. eigenvalues --    2.74225   2.80776   2.99996   3.07786   3.11456
 Alpha virt. eigenvalues --    3.17063   3.46471   3.57624   3.58343   3.69452
 Alpha virt. eigenvalues --    3.73577   4.01301   4.76541   4.85015   5.40310
 Alpha virt. eigenvalues --   23.27457  23.72167  23.85891  24.22778  49.70811
  Beta  occ. eigenvalues --  -19.43717 -10.55518 -10.51530 -10.49446 -10.41212
  Beta  occ. eigenvalues --   -1.34446  -1.18515  -0.98576  -0.82491  -0.77887
  Beta  occ. eigenvalues --   -0.73306  -0.71272  -0.68696  -0.66419  -0.64902
  Beta  occ. eigenvalues --   -0.61558  -0.56361
  Beta virt. eigenvalues --   -0.41058  -0.26774  -0.23195  -0.17691  -0.13404
  Beta virt. eigenvalues --   -0.12336  -0.11363  -0.10996  -0.09339  -0.08577
  Beta virt. eigenvalues --   -0.07915  -0.07305  -0.05974  -0.05237  -0.04145
  Beta virt. eigenvalues --   -0.03050  -0.01676  -0.01122  -0.00831  -0.00474
  Beta virt. eigenvalues --   -0.00094   0.01863   0.02772   0.02795   0.03406
  Beta virt. eigenvalues --    0.04549   0.05666   0.06307   0.08672   0.12172
  Beta virt. eigenvalues --    0.12505   0.13744   0.17048   0.18682   0.23149
  Beta virt. eigenvalues --    0.25459   0.25843   0.28985   0.31779   0.32192
  Beta virt. eigenvalues --    0.35300   0.35782   0.38813   0.40016   0.42958
  Beta virt. eigenvalues --    0.44636   0.47659   0.48753   0.51877   0.52951
  Beta virt. eigenvalues --    0.56768   0.63155   0.64458   0.66798   0.71879
  Beta virt. eigenvalues --    0.72649   0.73406   0.83102   0.85904   0.94679
  Beta virt. eigenvalues --    0.94718   0.95837   0.97326   1.05301   1.10878
  Beta virt. eigenvalues --    1.21774   1.22984   1.29933   1.31195   1.34884
  Beta virt. eigenvalues --    1.36365   1.40520   1.43515   1.47886   1.49579
  Beta virt. eigenvalues --    1.51387   1.53163   1.61484   1.71285   1.72137
  Beta virt. eigenvalues --    1.78036   1.82413   1.87429   2.01410   2.09714
  Beta virt. eigenvalues --    2.19152   2.23643   2.26856   2.31679   2.34228
  Beta virt. eigenvalues --    2.34643   2.35544   2.39732   2.43380   2.44889
  Beta virt. eigenvalues --    2.57025   2.57788   2.58656   2.60705   2.66667
  Beta virt. eigenvalues --    2.73698   2.74637   2.81824   3.01383   3.09221
  Beta virt. eigenvalues --    3.11814   3.17779   3.47451   3.58420   3.58702
  Beta virt. eigenvalues --    3.70793   3.74755   4.01878   4.78019   4.91198
  Beta virt. eigenvalues --    5.41589  23.27761  23.72243  23.86023  24.23106
  Beta virt. eigenvalues --   49.72387
          Condensed to atoms (all electrons):
               1          2          3          4          5          6
     1  O    7.782751   0.094983   0.183917  -0.081086   0.033627  -0.001327
     2  C    0.094983   6.135930  -0.362563  -0.985968   0.648093  -0.057787
     3  C    0.183917  -0.362563   5.681633   0.996612  -0.488767   0.012718
     4  C   -0.081086  -0.985968   0.996612   6.669731  -1.049827   0.425246
     5  C    0.033627   0.648093  -0.488767  -1.049827   6.320222  -0.035237
     6  H   -0.001327  -0.057787   0.012718   0.425246  -0.035237   0.376438
     7  H   -0.001132  -0.012229  -0.000434  -0.003121   0.377256   0.000423
     8  H    0.000531  -0.005114  -0.003795   0.015841   0.337337  -0.000829
     9  H   -0.001132  -0.012229  -0.000434  -0.003121   0.377256   0.000423
               7          8          9
     1  O   -0.001132   0.000531  -0.001132
     2  C   -0.012229  -0.005114  -0.012229
     3  C   -0.000434  -0.003795  -0.000434
     4  C   -0.003121   0.015841  -0.003121
     5  C    0.377256   0.337337   0.377256
     6  H    0.000423  -0.000829   0.000423
     7  H    0.464744  -0.021402  -0.034152
     8  H   -0.021402   0.461466  -0.021402
     9  H   -0.034152  -0.021402   0.464744
          Atomic-Atomic Spin Densities.
               1          2          3          4          5          6
     1  O    0.673193  -0.027958  -0.107676   0.028125  -0.004321   0.002281
     2  C   -0.027958   0.114815   0.108450   0.108546  -0.063239  -0.000082
     3  C   -0.107676   0.108450   0.038503  -0.069744   0.031687  -0.003123
     4  C    0.028125   0.108546  -0.069744  -0.086898   0.118114   0.000587
     5  C   -0.004321  -0.063239   0.031687   0.118114  -0.063862   0.001061
     6  H    0.002281  -0.000082  -0.003123   0.000587   0.001061   0.045291
     7  H   -0.000115  -0.000092  -0.000345  -0.001391   0.002967   0.000033
     8  H   -0.000119  -0.013967   0.002067   0.007173   0.004823   0.000647
     9  H   -0.000115  -0.000092  -0.000345  -0.001391   0.002967   0.000033
               7          8          9
     1  O   -0.000115  -0.000119  -0.000115
     2  C   -0.000092  -0.013967  -0.000092
     3  C   -0.000345   0.002067  -0.000345
     4  C   -0.001391   0.007173  -0.001391
     5  C    0.002967   0.004823   0.002967
     6  H    0.000033   0.000647   0.000033
     7  H   -0.000700  -0.000708   0.000148
     8  H   -0.000708   0.032005  -0.000708
     9  H    0.000148  -0.000708  -0.000700
 Mulliken charges and spin densities:
               1          2
     1  O   -0.011132   0.563298
     2  C    0.556887   0.226381
     3  C   -0.018886  -0.000528
     4  C    0.015695   0.103119
     5  C   -0.519958   0.030197
     6  H    0.279932   0.046728
     7  H    0.230047  -0.000204
     8  H    0.237368   0.031213
     9  H    0.230047  -0.000204
 Sum of Mulliken charges =   1.00000   1.00000
 Mulliken charges and spin densities with hydrogens summed into heavy atoms:
               1          2
     1  O   -0.011132   0.563298
     2  C    0.556887   0.226381
     3  C   -0.018886  -0.000528
     4  C    0.295627   0.149848
     5  C    0.177504   0.061002
 APT charges:
               1
     1  O   -0.128369
     2  C    0.540708
     3  C    0.223363
     4  C   -0.039745
     5  C   -0.197593
     6  H    0.243105
     7  H    0.124161
     8  H    0.110208
     9  H    0.124161
 Sum of APT charges =   1.00000
 APT charges with hydrogens summed into heavy atoms:
               1
     1  O   -0.128369
     2  C    0.540708
     3  C    0.223363
     4  C    0.203360
     5  C    0.160938
 Electronic spatial extent (au):  <R**2>=            381.7944
 Charge=              1.0000 electrons
 Dipole moment (field-independent basis, Debye):
    X=             -1.0883    Y=              2.9871    Z=             -0.0000  Tot=              3.1792
 Quadrupole moment (field-independent basis, Debye-Ang):
   XX=            -15.9928   YY=            -20.7608   ZZ=            -25.8297
   XY=              3.2099   XZ=             -0.0000   YZ=              0.0000
 Traceless Quadrupole moment (field-independent basis, Debye-Ang):
   XX=              4.8682   YY=              0.1003   ZZ=             -4.9686
   XY=              3.2099   XZ=             -0.0000   YZ=              0.0000
 Octapole moment (field-independent basis, Debye-Ang**2):
  XXX=             -9.6590  YYY=              8.4208  ZZZ=             -0.0000  XYY=              4.8242
  XXY=              5.8399  XXZ=             -0.0000  XZZ=              2.5811  YZZ=             -1.4569
  YYZ=             -0.0000  XYZ=             -0.0000
 Hexadecapole moment (field-independent basis, Debye-Ang**3):
 XXXX=           -104.0987 YYYY=           -252.7628 ZZZZ=            -29.5765 XXXY=            -33.2120
 XXXZ=             -0.0000 YYYX=            -22.1707 YYYZ=             -0.0000 ZZZX=              0.0000
 ZZZY=             -0.0000 XXYY=            -63.4167 XXZZ=            -26.8353 YYZZ=            -51.4882
 XXYZ=             -0.0000 YYXZ=             -0.0000 ZZXY=             -8.5923
 N-N= 1.468510055382D+02 E-N=-8.205858636891D+02  KE= 2.288047427199D+02
 Symmetry A'   KE= 2.200805183896D+02
 Symmetry A"   KE= 8.724224330371D+00
  Exact polarizability:  44.984   4.051  58.465   0.000  -0.000  25.625
 Approx polarizability:  68.440   0.512  99.296  -0.000  -0.000  36.690
                          Isotropic Fermi Contact Couplings
        Atom                 a.u.       MegaHertz       Gauss      10(-4) cm-1
     1  O(17)              0.03669     -22.24370      -7.93710      -7.41970
     2  C(13)              0.03908      43.93379      15.67667      14.65473
     3  C(13)             -0.05901     -66.33579     -23.67026     -22.12724
     4  C(13)              0.05763      64.78694      23.11759      21.61060
     5  C(13)              0.00586       6.59085       2.35178       2.19847
     6  H(1)               0.02479     110.82994      39.54688      36.96889
     7  H(1)               0.00030       1.33337       0.47578       0.44476
     8  H(1)               0.01621      72.45379      25.85331      24.16798
     9  H(1)               0.00030       1.33337       0.47578       0.44476
 --------------------------------------------------------
       Center         ----  Spin Dipole Couplings  ----
                      3XX-RR        3YY-RR        3ZZ-RR
 --------------------------------------------------------
     1   Atom        1.836411     -0.744272     -1.092139
     2   Atom       -0.153934      0.352744     -0.198811
     3   Atom        0.115325      0.025532     -0.140857
     4   Atom       -0.013163      0.134403     -0.121240
     5   Atom       -0.022023      0.060304     -0.038281
     6   Atom        0.019162     -0.005904     -0.013258
     7   Atom        0.002658     -0.000669     -0.001989
     8   Atom       -0.000451      0.008127     -0.007676
     9   Atom        0.002658     -0.000669     -0.001989
 --------------------------------------------------------
                        XY            XZ            YZ
 --------------------------------------------------------
     1   Atom        1.250487      0.000000      0.000000
     2   Atom       -0.140968      0.000000     -0.000000
     3   Atom        0.036702     -0.000000     -0.000000
     4   Atom       -0.132725     -0.000000      0.000000
     5   Atom        0.037262      0.000000      0.000000
     6   Atom       -0.000702     -0.000000      0.000000
     7   Atom        0.005370      0.007656      0.002866
     8   Atom       -0.003133      0.000000     -0.000000
     9   Atom        0.005370     -0.007656     -0.002866
 --------------------------------------------------------


 ---------------------------------------------------------------------------------
              Anisotropic Spin Dipole Couplings in Principal Axis System
 ---------------------------------------------------------------------------------

       Atom             a.u.   MegaHertz   Gauss  10(-4) cm-1        Axes

              Baa    -1.2508    90.506    32.295    30.190 -0.3754  0.9269 -0.0000
     1 O(17)  Bbb    -1.0921    79.026    28.199    26.360 -0.0000  0.0000  1.0000
              Bcc     2.3429  -169.533   -60.493   -56.550  0.9269  0.3754  0.0000
 
              Baa    -0.1988   -26.678    -9.520    -8.899 -0.0000 -0.0000  1.0000
     2 C(13)  Bbb    -0.1905   -25.565    -9.122    -8.528  0.9679  0.2512  0.0000
              Bcc     0.3893    52.244    18.642    17.427 -0.2512  0.9679 -0.0000
 
              Baa    -0.1409   -18.902    -6.745    -6.305  0.0000  0.0000  1.0000
     3 C(13)  Bbb     0.0124     1.669     0.596     0.557 -0.3360  0.9419 -0.0000
              Bcc     0.1284    17.232     6.149     5.748  0.9419  0.3360 -0.0000
 
              Baa    -0.1212   -16.269    -5.805    -5.427  0.0000  0.0000  1.0000
     4 C(13)  Bbb    -0.0912   -12.243    -4.369    -4.084  0.8619  0.5070  0.0000
              Bcc     0.2125    28.512    10.174     9.511 -0.5070  0.8619 -0.0000
 
              Baa    -0.0383    -5.137    -1.833    -1.714 -0.0000  0.0000  1.0000
     5 C(13)  Bbb    -0.0364    -4.882    -1.742    -1.629  0.9331 -0.3596  0.0000
              Bcc     0.0747    10.019     3.575     3.342  0.3596  0.9331  0.0000
 
              Baa    -0.0133    -7.074    -2.524    -2.359  0.0000  0.0000  1.0000
     6 H(1)   Bbb    -0.0059    -3.161    -1.128    -1.054  0.0280  0.9996 -0.0000
              Bcc     0.0192    10.234     3.652     3.414  0.9996 -0.0280  0.0000
 
              Baa    -0.0078    -4.178    -1.491    -1.393 -0.6382  0.1790  0.7487
     7 H(1)   Bbb    -0.0035    -1.884    -0.672    -0.628 -0.2438  0.8755 -0.4171
              Bcc     0.0114     6.061     2.163     2.022  0.7302  0.4487  0.5152
 
              Baa    -0.0077    -4.096    -1.461    -1.366 -0.0000 -0.0000  1.0000
     8 H(1)   Bbb    -0.0015    -0.786    -0.280    -0.262  0.9507  0.3102  0.0000
              Bcc     0.0091     4.882     1.742     1.628 -0.3102  0.9507 -0.0000
 
              Baa    -0.0078    -4.178    -1.491    -1.393  0.6382 -0.1790  0.7487
     9 H(1)   Bbb    -0.0035    -1.884    -0.672    -0.628 -0.2438  0.8755  0.4171
              Bcc     0.0114     6.061     2.163     2.022  0.7302  0.4487 -0.5152
 

 ---------------------------------------------------------------------------------

 No NMR shielding tensors so no spin-rotation constants.
 Leave Link  601 at Thu Jan 24 16:14:06 2019, MaxMem=    33554432 cpu:         0.3
 (Enter /apl/tryton/gaussian/09/d01/g09/l701.exe)
 Compute integral second derivatives.
 ... and contract with generalized density number  0.
 Leave Link  701 at Thu Jan 24 16:14:07 2019, MaxMem=    33554432 cpu:         0.2
 (Enter /apl/tryton/gaussian/09/d01/g09/l702.exe)
 L702 exits ... SP integral derivatives will be done elsewhere.
 Leave Link  702 at Thu Jan 24 16:14:07 2019, MaxMem=    33554432 cpu:         0.0
 (Enter /apl/tryton/gaussian/09/d01/g09/l703.exe)
 Compute integral second derivatives, UseDBF=F ICtDFT=           0.
 Integral derivatives from FoFJK, PRISM(SPDF).
 Calling FoFJK, ICntrl=    100127 FMM=F ISym2X=1 I1Cent= 0 IOpClX= 1 NMat=1 NMatS=1 NMatT=0.
 FoFJK:  IHMeth= 1 ICntrl=  100127 DoSepK=F KAlg= 0 I1Cent=   0 FoldK=F
 IRaf=         0 NMat=   1 IRICut=       1 DoRegI=T DoRafI=F ISym2E= 1.
 FoFCou: FMM=F IPFlag=           0 FMFlag=      100000 FMFlg1=         800
         NFxFlg=           0 DoJE=F BraDBF=F KetDBF=F FulRan=T
         wScrn=  0.000000 ICntrl=  100127 IOpCl=  1 I1Cent=           0 NGrid=           0
         NMat0=    1 NMatS0=      1 NMatT0=    0 NMatD0=    1 NMtDS0=    0 NMtDT0=    0
 Petite list used in FoFCou.
 Leave Link  703 at Thu Jan 24 16:14:51 2019, MaxMem=    33554432 cpu:        44.2
 (Enter /apl/tryton/gaussian/09/d01/g09/l716.exe)
 Dipole        =-4.28169975D-01 1.17521721D+00 3.32850067D-16
 Polarizability= 4.49842375D+01 4.05069445D+00 5.84653459D+01
                 6.60660321D-08-1.56038728D-07 2.56249884D+01
 Full mass-weighted force constant matrix:
 Low frequencies ---   -5.6467   -0.0007    0.0004    0.0009    2.1625   10.7056
 Low frequencies ---   87.9272  212.0917  330.4513
 Diagonal vibrational polarizability:
        4.1859707       5.8480226       9.2451972
 Harmonic frequencies (cm**-1), IR intensities (KM/Mole), Raman scattering
 activities (A**4/AMU), depolarization ratios for plane and unpolarized
 incident light, reduced masses (AMU), force constants (mDyne/A),
 and normal coordinates:
                      1                      2                      3
                     A"                     A'                     A"
 Frequencies --     87.9262               212.0916               330.4513
 Red. masses --      1.0653                 4.2505                 2.6391
 Frc consts  --      0.0049                 0.1127                 0.1698
 IR Inten    --      1.5210                 0.9777                 6.2477
  Atom  AN      X      Y      Z        X      Y      Z        X      Y      Z
     1   8     0.00   0.00   0.04     0.26   0.19  -0.00     0.00  -0.00  -0.09
     2   6    -0.00   0.00  -0.01    -0.17   0.06   0.00     0.00  -0.00   0.32
     3   6    -0.00  -0.00  -0.00    -0.13   0.04  -0.00    -0.00  -0.00   0.13
     4   6    -0.00   0.00  -0.05    -0.15   0.01  -0.00     0.00   0.00  -0.12
     5   6     0.00  -0.00   0.01     0.08  -0.27  -0.00    -0.00   0.00  -0.08
     6   1    -0.00   0.00  -0.09    -0.15   0.01   0.00     0.00   0.00  -0.61
     7   1     0.33  -0.37  -0.29     0.02  -0.49  -0.00     0.28   0.26  -0.23
     8   1     0.00  -0.00   0.57     0.46  -0.14  -0.00    -0.00   0.00  -0.29
     9   1    -0.33   0.37  -0.29     0.02  -0.49   0.00    -0.28  -0.26  -0.23
                      4                      5                      6
                     A'                     A'                     A"
 Frequencies --    428.7994               539.4356               541.3320
 Red. masses --      4.7550                 4.7484                 5.1848
 Frc consts  --      0.5151                 0.8141                 0.8952
 IR Inten    --     14.3160                32.2082                 1.3496
  Atom  AN      X      Y      Z        X      Y      Z        X      Y      Z
     1   8    -0.16   0.01  -0.00    -0.05  -0.11   0.00     0.00   0.00   0.19
     2   6    -0.13   0.02   0.00    -0.14   0.42   0.00     0.00  -0.00   0.26
     3   6     0.44   0.26   0.00    -0.07  -0.17  -0.00     0.00   0.00  -0.51
     4   6    -0.10  -0.10  -0.00     0.06  -0.21  -0.00    -0.00   0.00  -0.01
     5   6    -0.01  -0.09  -0.00     0.15   0.13   0.00    -0.00  -0.00   0.00
     6   1    -0.18  -0.63  -0.00     0.03  -0.39   0.00    -0.00   0.00   0.54
     7   1    -0.05  -0.29  -0.01     0.08  -0.12   0.01     0.25   0.24  -0.13
     8   1     0.27  -0.01  -0.00     0.61   0.31  -0.00    -0.00  -0.00  -0.24
     9   1    -0.05  -0.29   0.01     0.08  -0.12  -0.01    -0.25  -0.24  -0.13
                      7                      8                      9
                     A"                     A'                     A'
 Frequencies --    756.1426               834.1756               928.4437
 Red. masses --      1.4923                 2.8085                 5.5342
 Frc consts  --      0.5027                 1.1514                 2.8107
 IR Inten    --     39.2680                18.9181                27.8035
  Atom  AN      X      Y      Z        X      Y      Z        X      Y      Z
     1   8    -0.00   0.00   0.03     0.03  -0.11   0.00    -0.11   0.25  -0.00
     2   6     0.00  -0.00  -0.03    -0.04   0.16  -0.00     0.17   0.10   0.00
     3   6    -0.00   0.00  -0.10     0.12  -0.06  -0.00    -0.14   0.09   0.00
     4   6    -0.00  -0.00   0.18     0.12   0.15   0.00     0.33  -0.26   0.00
     5   6     0.00   0.00  -0.01    -0.22  -0.12  -0.00    -0.19  -0.19  -0.00
     6   1    -0.00  -0.00  -0.98     0.22   0.71  -0.00     0.31  -0.55  -0.00
     7   1    -0.03  -0.02   0.01    -0.25  -0.29  -0.01    -0.16  -0.07   0.01
     8   1     0.00   0.00   0.04     0.05  -0.02   0.00    -0.32  -0.22   0.00
     9   1     0.03   0.02   0.01    -0.25  -0.29   0.01    -0.16  -0.07  -0.01
                     10                     11                     12
                     A'                     A"                     A'
 Frequencies --   1016.7969              1031.0063              1033.9102
 Red. masses --      1.6177                 1.4972                 1.4991
 Frc consts  --      0.9854                 0.9377                 0.9442
 IR Inten    --     10.8060                 3.4835                38.5516
  Atom  AN      X      Y      Z        X      Y      Z        X      Y      Z
     1   8     0.02  -0.04   0.00    -0.00   0.00   0.01    -0.01  -0.00  -0.00
     2   6     0.01   0.05   0.00    -0.00   0.00   0.13    -0.07   0.10  -0.00
     3   6    -0.01  -0.06  -0.00     0.00   0.00  -0.02     0.05  -0.01   0.00
     4   6     0.02   0.20   0.00    -0.00  -0.00  -0.02    -0.02  -0.03   0.00
     5   6    -0.02  -0.06  -0.00     0.00  -0.00  -0.16     0.10  -0.13   0.00
     6   1    -0.17  -0.93  -0.00     0.00   0.00   0.01     0.02   0.24  -0.00
     7   1    -0.03   0.06   0.03    -0.53  -0.31   0.17     0.05   0.44   0.13
     8   1    -0.18  -0.11   0.00    -0.00  -0.00   0.39    -0.59  -0.34  -0.00
     9   1    -0.03   0.06  -0.03     0.53   0.31   0.17     0.05   0.44  -0.13
                     13                     14                     15
                     A'                     A"                     A'
 Frequencies --   1384.4749              1416.9213              1438.4042
 Red. masses --      1.1948                 1.0378                 1.0423
 Frc consts  --      1.3493                 1.2276                 1.2705
 IR Inten    --     20.0906                23.5924                20.3529
  Atom  AN      X      Y      Z        X      Y      Z        X      Y      Z
     1   8    -0.00   0.00  -0.00     0.00   0.00   0.00    -0.00   0.01   0.00
     2   6     0.00  -0.00  -0.00    -0.00  -0.00   0.02     0.00  -0.03  -0.00
     3   6    -0.00  -0.00   0.00    -0.00   0.00  -0.00    -0.00  -0.00  -0.00
     4   6     0.00  -0.00  -0.00     0.00  -0.00   0.00     0.01   0.01  -0.00
     5   6     0.10   0.08  -0.00     0.00   0.00   0.05     0.02  -0.04  -0.00
     6   1     0.01   0.01   0.00     0.00   0.00  -0.02     0.01  -0.01   0.00
     7   1    -0.40  -0.39   0.25    -0.03  -0.50  -0.05    -0.41   0.29   0.35
     8   1    -0.48  -0.13   0.00    -0.00  -0.00  -0.70     0.48   0.14   0.00
     9   1    -0.40  -0.39  -0.25     0.03   0.50  -0.05    -0.41   0.29  -0.35
                     16                     17                     18
                     A'                     A'                     A'
 Frequencies --   1652.1715              1878.1311              3022.1185
 Red. masses --     10.0546                 8.2605                 1.0322
 Frc consts  --     16.1706                17.1675                 5.5545
 IR Inten    --     39.9598                 7.0994                54.0233
  Atom  AN      X      Y      Z        X      Y      Z        X      Y      Z
     1   8     0.12  -0.35   0.00    -0.10   0.26   0.00     0.00   0.00  -0.00
     2   6     0.47   0.26   0.00     0.40   0.15  -0.00     0.00   0.00  -0.00
     3   6    -0.19   0.43  -0.00     0.21  -0.44  -0.00    -0.00  -0.00   0.00
     4   6    -0.30  -0.13  -0.00    -0.36  -0.03  -0.00     0.00  -0.00   0.00
     5   6    -0.08  -0.08  -0.00    -0.07  -0.03   0.00     0.03   0.04  -0.00
     6   1    -0.39  -0.00   0.00    -0.55   0.18   0.00    -0.01   0.00  -0.00
     7   1    -0.16  -0.01   0.09    -0.09  -0.07   0.02    -0.30   0.09  -0.44
     8   1    -0.06  -0.08   0.00     0.03   0.03  -0.00     0.22  -0.61  -0.00
     9   1    -0.16  -0.01  -0.09    -0.09  -0.07  -0.02    -0.30   0.09   0.44
                     19                     20                     21
                     A"                     A'                     A'
 Frequencies --   3103.0487              3105.4686              3196.9435
 Red. masses --      1.1009                 1.1034                 1.1234
 Frc consts  --      6.2456                 6.2695                 6.7651
 IR Inten    --     12.2414                20.9447               118.1607
  Atom  AN      X      Y      Z        X      Y      Z        X      Y      Z
     1   8     0.00   0.00  -0.00    -0.00   0.00  -0.00    -0.00   0.00  -0.00
     2   6     0.00   0.00   0.00    -0.00   0.00  -0.00     0.01   0.01   0.00
     3   6    -0.00  -0.00  -0.00     0.00  -0.00   0.00     0.00  -0.01   0.00
     4   6    -0.00   0.00   0.00    -0.00   0.00   0.00    -0.10   0.01   0.00
     5   6     0.00  -0.00   0.09    -0.06   0.07   0.00     0.00  -0.00  -0.00
     6   1     0.00  -0.00  -0.00     0.02  -0.00  -0.00     0.98  -0.16  -0.00
     7   1    -0.41   0.12  -0.56     0.25  -0.06   0.38    -0.01   0.00  -0.01
     8   1    -0.00   0.00   0.02     0.25  -0.71   0.00    -0.00   0.00   0.00
     9   1     0.41  -0.12  -0.56     0.25  -0.06  -0.38    -0.01   0.00   0.01

 -------------------
 - Thermochemistry -
 -------------------
 Temperature   298.150 Kelvin.  Pressure   1.00000 Atm.
 Atom     1 has atomic number  8 and mass  15.99491
 Atom     2 has atomic number  6 and mass  12.00000
 Atom     3 has atomic number  6 and mass  12.00000
 Atom     4 has atomic number  6 and mass  12.00000
 Atom     5 has atomic number  6 and mass  12.00000
 Atom     6 has atomic number  1 and mass   1.00783
 Atom     7 has atomic number  1 and mass   1.00783
 Atom     8 has atomic number  1 and mass   1.00783
 Atom     9 has atomic number  1 and mass   1.00783
 Molecular mass:    68.02621 amu.
 Principal axes and moments of inertia in atomic units:
                           1         2         3
     Eigenvalues --   148.57038 438.99787 576.24138
           X            0.31501   0.94909   0.00000
           Y            0.94909  -0.31501   0.00000
           Z           -0.00000  -0.00000   1.00000
 This molecule is an asymmetric top.
 Rotational symmetry number  1.
 Rotational temperatures (Kelvin)      0.58298     0.19730     0.15031
 Rotational constants (GHZ):          12.14738     4.11105     3.13192
 Zero-point vibrational energy     167107.5 (Joules/Mol)
                                   39.93965 (Kcal/Mol)
 Warning -- explicit consideration of   6 degrees of freedom as
           vibrations may cause significant error
 Vibrational temperatures:    126.51   305.15   475.45   616.95   776.13
          (Kelvin)            778.85  1087.92  1200.19  1335.82  1462.94
                             1483.39  1487.56  1991.95  2038.63  2069.54
                             2377.10  2702.21  4348.15  4464.59  4468.07
                             4599.68
 
 Zero-point correction=                           0.063648 (Hartree/Particle)
 Thermal correction to Energy=                    0.069172
 Thermal correction to Enthalpy=                  0.070116
 Thermal correction to Gibbs Free Energy=         0.034517
 Sum of electronic and zero-point Energies=           -229.646588
 Sum of electronic and thermal Energies=              -229.641064
 Sum of electronic and thermal Enthalpies=            -229.640120
 Sum of electronic and thermal Free Energies=         -229.675719
 
                     E (Thermal)             CV                S
                      KCal/Mol        Cal/Mol-Kelvin    Cal/Mol-Kelvin
 Total                   43.406             18.282             74.924
 Electronic               0.000              0.000              1.377
 Translational            0.889              2.981             38.570
 Rotational               0.889              2.981             25.133
 Vibrational             41.629             12.320              9.844
 Vibration     1          0.601              1.958              3.706
 Vibration     2          0.643              1.822              2.026
 Vibration     3          0.713              1.615              1.258
 Vibration     4          0.790              1.408              0.863
 Vibration     5          0.894              1.163              0.567
 Vibration     6          0.896              1.159              0.562
                       Q            Log10(Q)             Ln(Q)
 Total Bot       0.132802D-15        -15.876794        -36.557669
 Total V=0       0.250692D+14         13.399140         30.852660
 Vib (Bot)       0.433871D-28        -28.362639        -65.307391
 Vib (Bot)    1  0.233922D+01          0.369070          0.849816
 Vib (Bot)    2  0.935676D+00         -0.028874         -0.066486
 Vib (Bot)    3  0.565271D+00         -0.247744         -0.570451
 Vib (Bot)    4  0.406721D+00         -0.390703         -0.899627
 Vib (Bot)    5  0.293862D+00         -0.531857         -1.224646
 Vib (Bot)    6  0.292307D+00         -0.534160         -1.229949
 Vib (V=0)       0.819020D+01          0.913294          2.102938
 Vib (V=0)    1  0.289206D+01          0.461207          1.061968
 Vib (V=0)    2  0.156089D+01          0.193373          0.445257
 Vib (V=0)    3  0.125467D+01          0.098530          0.226875
 Vib (V=0)    4  0.114453D+01          0.058628          0.134996
 Vib (V=0)    5  0.107996D+01          0.033408          0.076925
 Vib (V=0)    6  0.107917D+01          0.033092          0.076197
 Electronic      0.200000D+01          0.301030          0.693147
 Translational   0.220531D+08          7.343470         16.908964
 Rotational      0.693978D+05          4.841346         11.147611
 
                                                                 min
                                                             IR Spectrum
 
     3  33  3                                             1        1       11 1           111                                        
     1  11  0                                             8        6       44 3           000   9  8  7       55   4   3    2        
     9  00  2                                             7        5       31 8           331   2  3  5       43   2   3    1    8   
     7  53  2                                             8        2       87 4           417   8  4  6       19   9   0    2    8   
 
     X  XX  X                                             X        X       XX X           XXX   X  X  X       XX   X   X    X    X   
     X  XX  X                                                      X       XX X           X X   X  X  X        X   X                 
     X  X   X                                                      X       XX X           X     X  X  X        X                     
     X  X   X                                                      X        X             X     X     X        X                     
     X      X                                                      X                      X     X     X        X                     
     X      X                                                      X                      X           X                              
     X      X                                                      X                      X           X                              
     X      X                                                                                                                        
     X      X                                                                                                                        
     X                                                                                                                               
     X                                                                                                                               
     X                                                                                                                               
     X                                                                                                                               
     X                                                                                                                               
     X                                                                                                                               
     X                                                                                                                               
     X                                                                                                                               
     X                                                                                                                               
     X                                                                                                                               
     X                                                                                                                               
 
 ***** Axes restored to original set *****
 -------------------------------------------------------------------
 Center     Atomic                   Forces (Hartrees/Bohr)
 Number     Number              X              Y              Z
 -------------------------------------------------------------------
      1        8          -0.000098000   -0.000061945   -0.000000153
      2        6          -0.000005465    0.000068745    0.000000077
      3        6           0.000231239    0.000014420    0.000000207
      4        6          -0.000153213    0.000009429   -0.000000115
      5        6          -0.000030098   -0.000067160   -0.000000104
      6        1           0.000045526    0.000038253    0.000000082
      7        1           0.000004673    0.000002447   -0.000005862
      8        1           0.000000674   -0.000006624   -0.000000007
      9        1           0.000004664    0.000002434    0.000005875
 -------------------------------------------------------------------
 Cartesian Forces:  Max     0.000231239 RMS     0.000062230
 Z-matrix is all fixed cartesians, so copy forces.
 Force constants in Cartesian coordinates: 
                1             2             3             4             5 
      1  0.527421D+00
      2  0.395197D+00  0.333391D+00
      3  0.877080D-03  0.686207D-03  0.264793D-01
      4 -0.704581D-01 -0.233370D-01 -0.967152D-04  0.527476D+00
      5 -0.684988D-01 -0.422436D-01 -0.122325D-03 -0.362527D+00  0.563925D+00
      6 -0.149934D-03 -0.852385D-04  0.138265D-01 -0.914687D-04  0.227021D-03
      7 -0.412576D+00 -0.309677D+00 -0.661193D-03 -0.511420D-01  0.760465D-01
      8 -0.344921D+00 -0.293242D+00 -0.567762D-03 -0.481751D-01  0.360299D-01
      9 -0.702725D-03 -0.538820D-03 -0.518067D-01 -0.689030D-04  0.147764D-03
     10 -0.508369D-01 -0.646391D-01 -0.130464D-03 -0.201515D+00  0.238468D+00
     11  0.134652D-01 -0.547029D-02 -0.133919D-04  0.340846D+00 -0.417303D+00
     12 -0.384257D-04 -0.775304D-04  0.152772D-01  0.262416D-03 -0.258266D-03
     13  0.684309D-02  0.143555D-02  0.103118D-04 -0.155627D+00  0.806648D-01
     14  0.985707D-02  0.111028D-01  0.254842D-04  0.723668D-01 -0.112885D+00
     15  0.202345D-04  0.185685D-04 -0.365393D-02  0.193647D-04  0.220261D-04
     16  0.315974D-02  0.278835D-02  0.679204D-05 -0.177360D-02  0.116864D-01
     17 -0.221678D-02 -0.530538D-03 -0.113779D-05 -0.519516D-02 -0.721139D-03
     18  0.000000D+00  0.297226D-05 -0.110986D-02 -0.121399D-04  0.220264D-05
     19 -0.169090D-02 -0.131298D-02  0.270661D-03 -0.725114D-02  0.183688D-01
     20 -0.119505D-03 -0.348059D-03 -0.405102D-03  0.630092D-02 -0.187586D-01
     21  0.545725D-04 -0.250988D-03  0.272422D-03  0.580456D-02  0.120023D-02
     22 -0.170872D-03  0.858115D-03  0.000000D+00 -0.325094D-01 -0.126392D-01
     23 -0.264307D-02 -0.230968D-02 -0.541291D-05  0.134265D-01  0.107425D-01
     24 -0.361746D-05 -0.253753D-05  0.441745D-03 -0.104162D-04  0.293752D-05
     25 -0.169036D-02 -0.131275D-02 -0.276980D-03 -0.720000D-02  0.184305D-01
     26 -0.120037D-03 -0.349599D-03  0.403439D-03  0.629333D-02 -0.187863D-01
     27 -0.580789D-04  0.247366D-03  0.273420D-03 -0.580670D-02 -0.122159D-02
                6             7             8             9            10 
      6  0.118641D+00
      7  0.774797D-04  0.534375D+00
      8  0.457536D-04  0.425930D+00  0.495374D+00
      9 -0.363677D-01  0.853357D-03  0.808119D-03  0.106425D+00
     10  0.141772D-03 -0.473281D-01 -0.277272D-01 -0.408171D-04  0.351878D+00
     11 -0.174193D-03 -0.188513D+00 -0.226011D+00 -0.377054D-03 -0.214277D+00
     12 -0.319575D-01 -0.230288D-03 -0.245017D-03 -0.374125D-01 -0.233306D-04
     13  0.291444D-04 -0.335514D-01  0.152866D-01 -0.181546D-04 -0.761214D-02
     14  0.152127D-04 -0.216297D-01 -0.142048D-01 -0.468652D-04  0.216130D-01
     15 -0.753641D-01 -0.616537D-04 -0.165500D-04  0.104919D-01  0.640220D-05
     16  0.775361D-05  0.211909D-02 -0.231466D-01 -0.322042D-04 -0.441337D-01
     17 -0.116615D-04  0.707885D-02 -0.355255D-02 -0.794181D-05  0.487199D-01
     18  0.555447D-02  0.341364D-05 -0.327631D-04  0.811999D-02  0.454272D-04
     19  0.253473D-01  0.382811D-02  0.185599D-02 -0.971701D-03 -0.165177D-02
     20 -0.129704D-01  0.745170D-03  0.221238D-02  0.119657D-02 -0.875346D-03
     21  0.312449D-02 -0.119022D-02  0.857157D-03  0.918821D-04 -0.241460D-02
     22 -0.411329D-04  0.450825D-03 -0.957630D-03 -0.106034D-05  0.285726D-02
     23  0.243426D-04  0.927486D-02  0.117684D-02  0.856965D-05 -0.401327D-03
     24 -0.558282D-03  0.109972D-04  0.000000D+00  0.368087D-03  0.297648D-05
     25 -0.253209D-01  0.382455D-02  0.185508D-02  0.982209D-03 -0.165776D-02
     26  0.129291D-01  0.744317D-03  0.221720D-02 -0.119034D-02 -0.880348D-03
     27  0.310101D-02  0.119810D-02 -0.849104D-03  0.906246D-04  0.241263D-02
               11            12            13            14            15 
     11  0.987309D+00
     12  0.901701D-03  0.728044D-01
     13 -0.117551D-01 -0.329181D-04  0.477198D+00
     14  0.704481D-03  0.000000D+00  0.408654D-01  0.520077D+00
     15 -0.272105D-04  0.156048D-01  0.553191D-05  0.229232D-04  0.529102D+00
     16  0.559034D-01  0.538916D-04  0.308459D-02  0.170786D-02  0.357877D-05
     17 -0.342979D+00 -0.329354D-03  0.498012D-03  0.156399D-02  0.000000D+00
     18 -0.323455D-03 -0.295388D-01  0.215321D-05  0.185856D-05  0.117729D-02
     19  0.117194D-02 -0.123375D-02 -0.429378D-01  0.276933D-02  0.263959D-02
     20  0.141328D-02  0.421201D-03  0.130322D-02 -0.129916D+00 -0.129402D+00
     21  0.427813D-03 -0.171917D-02  0.220682D-02 -0.129050D+00 -0.217939D+00
     22  0.198846D-02  0.579302D-05 -0.204467D+00 -0.130113D+00 -0.286678D-03
     23  0.920544D-03  0.233827D-05 -0.129394D+00 -0.145917D+00 -0.228620D-03
     24  0.430042D-05 -0.134319D-02 -0.285831D-03 -0.229211D-03 -0.420812D-01
     25  0.116972D-02  0.123661D-02 -0.429304D-01  0.256308D-02 -0.234638D-02
     26  0.141526D-02 -0.415262D-03  0.109538D-02 -0.130526D+00  0.129610D+00
     27 -0.418511D-03 -0.171516D-02 -0.191706D-02  0.129260D+00 -0.217337D+00
               16            17            18            19            20 
     16  0.386718D-01
     17 -0.486569D-01  0.346609D+00
     18 -0.381355D-04  0.350474D-03  0.152890D-01
     19 -0.482158D-03 -0.250136D-03 -0.857433D-03  0.476046D-01
     20  0.833250D-04 -0.165353D-03  0.835775D-04 -0.738707D-02  0.143700D+00
     21  0.464698D-05 -0.903549D-04  0.318075D-04 -0.467256D-02  0.139853D+00
     22 -0.162273D-03  0.274454D-03  0.000000D+00  0.259426D-02  0.163428D-02
     23 -0.449381D-03 -0.585991D-04  0.000000D+00 -0.135573D-01 -0.100226D-01
     24 -0.102651D-05  0.000000D+00  0.442881D-03 -0.198216D-01 -0.138977D-01
     25 -0.483557D-03 -0.252303D-03  0.855994D-03 -0.131453D-04 -0.168500D-02
     26  0.834742D-04 -0.165368D-03 -0.839071D-04 -0.165853D-02  0.118846D-01
     27 -0.529682D-05  0.894762D-04  0.332210D-04 -0.700527D-03  0.151215D-01
               21            22            23            24            25 
     21  0.234906D+00
     22 -0.522171D-03  0.228846D+00
     23  0.210326D-02  0.137344D+00  0.155518D+00
     24  0.949367D-03  0.316297D-03  0.248008D-03  0.407701D-01
     25  0.728949D-03  0.256087D-02 -0.136005D-01  0.197922D-01  0.475898D-01
     26 -0.150498D-01  0.161024D-02 -0.100503D-01  0.138744D-01 -0.716782D-02
     27 -0.197176D-01  0.528619D-03 -0.215153D-02  0.101047D-02  0.434830D-02
               26            27 
     26  0.144360D+00
     27 -0.140078D+00  0.234261D+00
 Leave Link  716 at Thu Jan 24 16:14:51 2019, MaxMem=    33554432 cpu:         0.0
 (Enter /apl/tryton/gaussian/09/d01/g09/l103.exe)

 GradGradGradGradGradGradGradGradGradGradGradGradGradGradGradGradGradGrad
 Berny optimization.
 Search for a local minimum.
 Step number   1 out of a maximum of    2
 All quantities printed in internal units (Hartrees-Bohrs-Radians)
 Second derivative matrix not updated -- analytic derivatives used.
 ITU=  0
     Eigenvalues ---    0.00038   0.00902   0.01283   0.02788   0.04900
     Eigenvalues ---    0.05775   0.07021   0.09057   0.09653   0.12789
     Eigenvalues ---    0.14690   0.18378   0.21022   0.23077   0.36028
     Eigenvalues ---    0.51874   0.69291   0.72313   0.76130   1.41938
     Eigenvalues ---    1.84620
 Angle between quadratic step and forces=  68.38 degrees.
 ClnCor:  largest displacement from symmetrization is 6.51D-10 for atom     9.
 Linear search not attempted -- first point.
 ClnCor:  largest displacement from symmetrization is 2.25D-15 for atom     8.
 TrRot=  0.000238 -0.000069  0.000000 -0.000046  0.000000 -0.000046
 Variable       Old X    -DE/DX   Delta X   Delta X   Delta X     New X
                                 (Linear)    (Quad)   (Total)
    X1        3.21962  -0.00010   0.00000   0.00121   0.00157   3.22118
    Y1        1.33566  -0.00006   0.00000  -0.00076  -0.00113   1.33454
    Z1        0.00408  -0.00000   0.00000   0.00000  -0.00000   0.00408
    X2       -1.37812  -0.00001   0.00000   0.00010   0.00031  -1.37781
    Y2       -0.32162   0.00007   0.00000   0.00123   0.00129  -0.32033
    Z2       -0.00164   0.00000   0.00000   0.00000   0.00000  -0.00164
    X3        1.45199   0.00023   0.00000   0.00132   0.00155   1.45354
    Y3       -0.03101   0.00001   0.00000  -0.00045  -0.00065  -0.03166
    Z3        0.00102   0.00000   0.00000   0.00000   0.00000   0.00102
    X4        0.08608  -0.00015   0.00000  -0.00075  -0.00072   0.08536
    Y4       -2.33240   0.00001   0.00000   0.00081   0.00073  -2.33167
    Z4       -0.00281  -0.00000   0.00000   0.00000   0.00000  -0.00281
    X5       -3.68316  -0.00003   0.00000  -0.00071  -0.00036  -3.68352
    Y5        1.19743  -0.00007   0.00000  -0.00025   0.00002   1.19745
    Z5       -0.00175  -0.00000   0.00000  -0.00000  -0.00000  -0.00175
    X6        0.39242   0.00005   0.00000  -0.00040  -0.00057   0.39185
    Y6       -4.36130   0.00004   0.00000   0.00094   0.00083  -4.36047
    Z6       -0.00495   0.00000   0.00000   0.00000   0.00000  -0.00495
    X7       -3.73238   0.00000   0.00000  -0.00163  -0.00117  -3.73355
    Y7        2.40567   0.00000   0.00000  -0.00021   0.00007   2.40573
    Z7        1.67586  -0.00001   0.00000  -0.00006  -0.00006   1.67580
    X8       -5.31821   0.00000   0.00000   0.00033   0.00056  -5.31765
    Y8       -0.07018  -0.00001   0.00000  -0.00164  -0.00122  -0.07140
    Z8       -0.00458  -0.00000   0.00000  -0.00000  -0.00000  -0.00458
    X9       -3.72963   0.00000   0.00000  -0.00163  -0.00117  -3.73080
    Y9        2.40962   0.00000   0.00000  -0.00021   0.00006   2.40968
    Z9       -1.67658   0.00001   0.00000   0.00006   0.00006  -1.67652
         Item               Value     Threshold  Converged?
 Maximum Force            0.000231     0.000450     YES
 RMS     Force            0.000062     0.000300     YES
 Maximum Displacement     0.001568     0.001800     YES
 RMS     Displacement     0.000748     0.001200     YES
 Predicted change in Energy=-2.425830D-07
 Optimization completed.
    -- Stationary point found.
 GradGradGradGradGradGradGradGradGradGradGradGradGradGradGradGradGradGrad

 Leave Link  103 at Thu Jan 24 16:14:51 2019, MaxMem=    33554432 cpu:         0.0
 (Enter /apl/tryton/gaussian/09/d01/g09/l9999.exe)
 1\1\ CITASK-GV0222\Freq\UB3LYP\6-311++G(d,p)\C4H4O1(1+,2)\EERD\24-Jan-
 2019\0\\#p b3lyp/6-311++g(d,p) freq\\min\\1,2\O,1.703747628,0.70680346
 5,0.0021615841\C,-0.729271883,-0.170194833,-0.0008698811\C,0.768357836
 ,-0.016409235,0.0005411977\C,0.045552027,-1.234253962,-0.0014874948\C,
 -1.949042606,0.633653565,-0.000924294\H,0.207661017,-2.307898976,-0.00
 26195671\H,-1.975091224,1.273024727,0.886828714\H,-2.814275932,-0.0371
 36902,-0.0024252928\H,-1.9736343809,1.2751152755,-0.8872095388\\Versio
 n=ES64L-G09RevD.01\State=2-A'\HF=-229.710236\S2=0.756272\S2-1=0.\S2A=0
 .750023\RMSD=8.323e-09\RMSF=6.223e-05\ZeroPoint=0.0636479\Thermal=0.06
 9172\Dipole=-0.9832765,-0.773065,-0.0017185\DipoleDeriv=-0.1607425,-0.
 0674875,-0.0001469,-0.1121405,-0.1456358,-0.0001709,-0.0001995,-0.0001
 343,-0.078729,1.165112,-0.4305745,0.0003632,-0.0057393,0.3519733,0.000
 2863,0.0008638,-0.0000626,0.1050397,0.0755025,0.1293816,-0.0000703,0.3
 461709,0.2479233,0.0001679,0.0001853,-0.0000101,0.3466637,-0.1680574,0
 .3048241,0.0001802,-0.2518793,-0.001129,-0.000267,-0.0004758,0.0001901
 ,0.0499517,-0.3842036,0.1328816,-0.0001445,-0.0385064,-0.1910289,-0.00
 02361,-0.0003465,-0.0000953,-0.0175453,0.1553901,-0.0838952,-0.0001572
 ,-0.0016399,0.3474649,0.0001413,-0.0000603,0.0000737,0.2264593,0.09164
 36,0.0097176,-0.0421837,-0.0385549,0.1691655,-0.0098693,-0.0640483,0.0
 000586,0.1116742,0.1338862,-0.004466,-0.0000141,0.1410113,0.0521245,0.
 0000068,0.0001574,-0.0001127,0.1446138,0.0914693,0.0096182,0.0421733,-
 0.038722,0.1691421,0.0099411,0.063924,0.0000925,0.111872\Polar=59.5550
 689,0.7277007,43.8944649,0.0287211,0.0221267,25.6250381\PG=CS [SG(C4H2
 O1),X(H2)]\NImag=0\\0.52742058,0.39519689,0.33339139,0.00087708,0.0006
 8621,0.02647930,-0.07045810,-0.02333702,-0.00009672,0.52747645,-0.0684
 9882,-0.04224357,-0.00012232,-0.36252664,0.56392476,-0.00014993,-0.000
 08524,0.01382646,-0.00009147,0.00022702,0.11864124,-0.41257633,-0.3096
 7709,-0.00066119,-0.05114196,0.07604653,0.00007748,0.53437516,-0.34492
 092,-0.29324247,-0.00056776,-0.04817511,0.03602993,0.00004575,0.425929
 84,0.49537410,-0.00070272,-0.00053882,-0.05180674,-0.00006890,0.000147
 76,-0.03636773,0.00085336,0.00080812,0.10642453,-0.05083685,-0.0646390
 6,-0.00013046,-0.20151535,0.23846760,0.00014177,-0.04732810,-0.0277272
 4,-0.00004082,0.35187839,0.01346517,-0.00547029,-0.00001339,0.34084638
 ,-0.41730257,-0.00017419,-0.18851278,-0.22601060,-0.00037705,-0.214277
 22,0.98730915,-0.00003843,-0.00007753,0.01527719,0.00026242,-0.0002582
 7,-0.03195753,-0.00023029,-0.00024502,-0.03741253,-0.00002333,0.000901
 70,0.07280435,0.00684309,0.00143555,0.00001031,-0.15562696,0.08066483,
 0.00002914,-0.03355136,0.01528658,-0.00001815,-0.00761214,-0.01175511,
 -0.00003292,0.47719754,0.00985707,0.01110281,0.00002548,0.07236682,-0.
 11288501,0.00001521,-0.02162969,-0.01420483,-0.00004687,0.02161299,0.0
 0070448,0.00000019,0.04086538,0.52007715,0.00002023,0.00001857,-0.0036
 5393,0.00001936,0.00002203,-0.07536414,-0.00006165,-0.00001655,0.01049
 189,0.00000640,-0.00002721,0.01560481,0.00000553,0.00002292,0.52910206
 ,0.00315974,0.00278835,0.00000679,-0.00177360,0.01168641,0.00000775,0.
 00211909,-0.02314659,-0.00003220,-0.04413367,0.05590343,0.00005389,0.0
 0308459,0.00170786,0.00000358,0.03867184,-0.00221678,-0.00053054,-0.00
 000114,-0.00519516,-0.00072114,-0.00001166,0.00707885,-0.00355255,-0.0
 0000794,0.04871994,-0.34297925,-0.00032935,0.00049801,0.00156399,0.000
 00086,-0.04865688,0.34660880,0.00000089,0.00000297,-0.00110986,-0.0000
 1214,0.00000220,0.00555447,0.00000341,-0.00003276,0.00811999,0.0000454
 3,-0.00032346,-0.02953878,0.00000215,0.00000186,0.00117729,-0.00003814
 ,0.00035047,0.01528898,-0.00169090,-0.00131298,0.00027066,-0.00725114,
 0.01836879,0.02534728,0.00382811,0.00185599,-0.00097170,-0.00165177,0.
 00117194,-0.00123375,-0.04293783,0.00276933,0.00263959,-0.00048216,-0.
 00025014,-0.00085743,0.04760457,-0.00011951,-0.00034806,-0.00040510,0.
 00630092,-0.01875860,-0.01297039,0.00074517,0.00221238,0.00119657,-0.0
 0087535,0.00141328,0.00042120,0.00130322,-0.12991617,-0.12940229,0.000
 08332,-0.00016535,0.00008358,-0.00738707,0.14370044,0.00005457,-0.0002
 5099,0.00027242,0.00580456,0.00120023,0.00312449,-0.00119022,0.0008571
 6,0.00009188,-0.00241460,0.00042781,-0.00171917,0.00220682,-0.12905001
 ,-0.21793945,0.00000465,-0.00009035,0.00003181,-0.00467256,0.13985267,
 0.23490630,-0.00017087,0.00085812,0.00000051,-0.03250936,-0.01263918,-
 0.00004113,0.00045083,-0.00095763,-0.00000106,0.00285726,0.00198846,0.
 00000579,-0.20446658,-0.13011285,-0.00028668,-0.00016227,0.00027445,-0
 .00000017,0.00259426,0.00163428,-0.00052217,0.22884587,-0.00264307,-0.
 00230968,-0.00000541,0.01342648,0.01074247,0.00002434,0.00927486,0.001
 17684,0.00000857,-0.00040133,0.00092054,0.00000234,-0.12939385,-0.1459
 1665,-0.00022862,-0.00044938,-0.00005860,-0.00000096,-0.01355733,-0.01
 002257,0.00210326,0.13734412,0.15551792,-0.00000362,-0.00000254,0.0004
 4174,-0.00001042,0.00000294,-0.00055828,0.00001100,0.00000017,0.000368
 09,0.00000298,0.00000430,-0.00134319,-0.00028583,-0.00022921,-0.042081
 22,-0.00000103,-0.00000037,0.00044288,-0.01982157,-0.01389774,0.000949
 37,0.00031630,0.00024801,0.04077013,-0.00169036,-0.00131275,-0.0002769
 8,-0.00720000,0.01843049,-0.02532090,0.00382455,0.00185508,0.00098221,
 -0.00165776,0.00116972,0.00123661,-0.04293035,0.00256308,-0.00234638,-
 0.00048356,-0.00025230,0.00085599,-0.00001315,-0.00168500,0.00072895,0
 .00256087,-0.01360051,0.01979219,0.04758976,-0.00012004,-0.00034960,0.
 00040344,0.00629333,-0.01878627,0.01292915,0.00074432,0.00221720,-0.00
 119034,-0.00088035,0.00141526,-0.00041526,0.00109538,-0.13052579,0.129
 61028,0.00008347,-0.00016537,-0.00008391,-0.00165853,0.01188464,-0.015
 04977,0.00161024,-0.01005028,0.01387444,-0.00716782,0.14436019,-0.0000
 5808,0.00024737,0.00027342,-0.00580670,-0.00122159,0.00310101,0.001198
 10,-0.00084910,0.00009062,0.00241263,-0.00041851,-0.00171516,-0.001917
 06,0.12926042,-0.21733731,-0.00000530,0.00008948,0.00003322,-0.0007005
 3,0.01512151,-0.01971764,0.00052862,-0.00215153,0.00101047,0.00434830,
 -0.14007804,0.23426136\\0.00009800,0.00006194,0.00000015,0.00000547,-0
 .00006874,-0.00000008,-0.00023124,-0.00001442,-0.00000021,0.00015321,-
 0.00000943,0.00000011,0.00003010,0.00006716,0.00000010,-0.00004553,-0.
 00003825,-0.00000008,-0.00000467,-0.00000245,0.00000586,-0.00000067,0.
 00000662,0.,-0.00000466,-0.00000243,-0.00000588\\\@


 LET US LEARN TO DREAM, GENTLEMEN, THEN PERHAPS WE SHALL
 DISCOVER THE TRUTH;  BUT LET US BEWARE OF PUBLISHING
 OUR DREAMS ABROAD BEFORE THEY HAVE BEEN SCRUTINIZED
 BY OUR VIGILANT INTELLECT ... LET US ALWAYS ALLOW
 THE FRUIT TO HANG UNTIL IT IS RIPE.  UNRIPE FRUIT
 BRINGS EVEN THE GROWER BUT LITTLE PROFIT; IT DAMAGES
 THE HEALTH OF THOSE WHO CONSUME IT; IT ENDANGERS
 PARTICULARLY THE YOUTH WHO CANNOT YET DISTINGUISH
 BETWEEN RIPE AND UNRIPE FRUIT.

                                  -- KEKULE, 1890
 Job cpu time:       0 days  0 hours  4 minutes 44.0 seconds.
 File lengths (MBytes):  RWF=     37 Int=      0 D2E=      0 Chk=      3 Scr=      1
 Normal termination of Gaussian 09 at Thu Jan 24 16:14:51 2019.
