 Entering Gaussian System, Link 0=g09
 Initial command:
 /apl/tryton/gaussian/09/d01/g09/l1.exe "/users/work/eerd/M3C-outputs/5/Gau-16311.inp" -scrdir="/users/work/eerd/M3C-outputs/5/"
 Entering Link 1 = /apl/tryton/gaussian/09/d01/g09/l1.exe PID=     16312.
  
 Copyright (c) 1988,1990,1992,1993,1995,1998,2003,2009,2013,
            Gaussian, Inc.  All Rights Reserved.
  
 This is part of the Gaussian(R) 09 program.  It is based on
 the Gaussian(R) 03 system (copyright 2003, Gaussian, Inc.),
 the Gaussian(R) 98 system (copyright 1998, Gaussian, Inc.),
 the Gaussian(R) 94 system (copyright 1995, Gaussian, Inc.),
 the Gaussian 92(TM) system (copyright 1992, Gaussian, Inc.),
 the Gaussian 90(TM) system (copyright 1990, Gaussian, Inc.),
 the Gaussian 88(TM) system (copyright 1988, Gaussian, Inc.),
 the Gaussian 86(TM) system (copyright 1986, Carnegie Mellon
 University), and the Gaussian 82(TM) system (copyright 1983,
 Carnegie Mellon University). Gaussian is a federally registered
 trademark of Gaussian, Inc.
  
 This software contains proprietary and confidential information,
 including trade secrets, belonging to Gaussian, Inc.
  
 This software is provided under written license and may be
 used, copied, transmitted, or stored only in accord with that
 written license.
  
 The following legend is applicable only to US Government
 contracts under FAR:
  
                    RESTRICTED RIGHTS LEGEND
  
 Use, reproduction and disclosure by the US Government is
 subject to restrictions as set forth in subparagraphs (a)
 and (c) of the Commercial Computer Software - Restricted
 Rights clause in FAR 52.227-19.
  
 Gaussian, Inc.
 340 Quinnipiac St., Bldg. 40, Wallingford CT 06492
  
  
 ---------------------------------------------------------------
 Warning -- This program may not be used in any manner that
 competes with the business of Gaussian, Inc. or will provide
 assistance to any competitor of Gaussian, Inc.  The licensee
 of this program is prohibited from giving any competitor of
 Gaussian, Inc. access to this program.  By using this program,
 the user acknowledges that Gaussian, Inc. is engaged in the
 business of creating and licensing software in the field of
 computational chemistry and represents and warrants to the
 licensee that it is not a competitor of Gaussian, Inc. and that
 it will not use this program in any manner prohibited above.
 ---------------------------------------------------------------
  

 Cite this work as:
 Gaussian 09, Revision D.01,
 M. J. Frisch, G. W. Trucks, H. B. Schlegel, G. E. Scuseria, 
 M. A. Robb, J. R. Cheeseman, G. Scalmani, V. Barone, B. Mennucci, 
 G. A. Petersson, H. Nakatsuji, M. Caricato, X. Li, H. P. Hratchian, 
 A. F. Izmaylov, J. Bloino, G. Zheng, J. L. Sonnenberg, M. Hada, 
 M. Ehara, K. Toyota, R. Fukuda, J. Hasegawa, M. Ishida, T. Nakajima, 
 Y. Honda, O. Kitao, H. Nakai, T. Vreven, J. A. Montgomery, Jr., 
 J. E. Peralta, F. Ogliaro, M. Bearpark, J. J. Heyd, E. Brothers, 
 K. N. Kudin, V. N. Staroverov, T. Keith, R. Kobayashi, J. Normand, 
 K. Raghavachari, A. Rendell, J. C. Burant, S. S. Iyengar, J. Tomasi, 
 M. Cossi, N. Rega, J. M. Millam, M. Klene, J. E. Knox, J. B. Cross, 
 V. Bakken, C. Adamo, J. Jaramillo, R. Gomperts, R. E. Stratmann, 
 O. Yazyev, A. J. Austin, R. Cammi, C. Pomelli, J. W. Ochterski, 
 R. L. Martin, K. Morokuma, V. G. Zakrzewski, G. A. Voth, 
 P. Salvador, J. J. Dannenberg, S. Dapprich, A. D. Daniels, 
 O. Farkas, J. B. Foresman, J. V. Ortiz, J. Cioslowski, 
 and D. J. Fox, Gaussian, Inc., Wallingford CT, 2013.
 
 ******************************************
 Gaussian 09:  ES64L-G09RevD.01 24-Apr-2013
                 4-Mar-2018 
 ******************************************
 ---------------------------
 #p b3lyp/6-311++g(d,p) freq
 ---------------------------
 1/10=4,30=1,38=1/1,3;
 2/12=2,17=6,18=5,40=1/2;
 3/5=4,6=6,7=1111,11=2,16=1,25=1,30=1,71=2,74=-5,140=1/1,2,3;
 4//1;
 5/5=2,38=5,98=1/2;
 8/6=4,10=90,11=11/1;
 11/6=1,8=1,9=11,15=111,16=1/1,2,10;
 10/6=1/2;
 6/7=2,8=2,9=2,10=2,18=1,28=1/1;
 7/8=1,10=1,25=1/1,2,3,16;
 1/10=4,30=1/3;
 99//99;
 Leave Link    1 at Sun Mar  4 21:12:59 2018, MaxMem=           0 cpu:         0.0
 (Enter /apl/tryton/gaussian/09/d01/g09/l101.exe)
 ---
 min
 ---
 Symbolic Z-matrix:
 Charge =  0 Multiplicity = 3
 C                    -0.13204  -0.00803   0.01347 
 C                    -1.07323   0.85504  -0.12031 
 C                     0.80956  -0.87069   0.14724 
 C                    -2.03161   1.73425  -0.2565 
 O                     1.66295  -1.65332   0.26849 
 
 NAtoms=      5 NQM=        5 NQMF=       0 NMMI=      0 NMMIF=      0
                NMic=       0 NMicF=      0.
                    Isotopes and Nuclear Properties:
 (Nuclear quadrupole moments (NQMom) in fm**2, nuclear magnetic moments (NMagM)
  in nuclear magnetons)

  Atom         1           2           3           4           5
 IAtWgt=          12          12          12          12          16
 AtmWgt=  12.0000000  12.0000000  12.0000000  12.0000000  15.9949146
 NucSpn=           0           0           0           0           0
 AtZEff=   0.0000000   0.0000000   0.0000000   0.0000000   0.0000000
 NQMom=    0.0000000   0.0000000   0.0000000   0.0000000   0.0000000
 NMagM=    0.0000000   0.0000000   0.0000000   0.0000000   0.0000000
 AtZNuc=   6.0000000   6.0000000   6.0000000   6.0000000   8.0000000
 Leave Link  101 at Sun Mar  4 21:12:59 2018, MaxMem=    33554432 cpu:         0.1
 (Enter /apl/tryton/gaussian/09/d01/g09/l103.exe)

 GradGradGradGradGradGradGradGradGradGradGradGradGradGradGradGradGradGrad
 Berny optimization.
 Initialization pass.
 Trust Radius=3.00D-01 FncErr=1.00D-07 GrdErr=1.00D-07
 Number of steps in this run=      2 maximum allowed number of steps=      2.
 GradGradGradGradGradGradGradGradGradGradGradGradGradGradGradGradGradGrad

 Leave Link  103 at Sun Mar  4 21:12:59 2018, MaxMem=    33554432 cpu:         0.0
 (Enter /apl/tryton/gaussian/09/d01/g09/l202.exe)
                          Input orientation:                          
 ---------------------------------------------------------------------
 Center     Atomic      Atomic             Coordinates (Angstroms)
 Number     Number       Type             X           Y           Z
 ---------------------------------------------------------------------
      1          6           0       -0.132039   -0.008026    0.013470
      2          6           0       -1.073234    0.855043   -0.120312
      3          6           0        0.809557   -0.870689    0.147235
      4          6           0       -2.031607    1.734249   -0.256499
      5          8           0        1.662954   -1.653318    0.268494
 ---------------------------------------------------------------------
                    Distance matrix (angstroms):
                    1          2          3          4          5
     1  C    0.000000
     2  C    1.283991   0.000000
     3  C    1.284011   2.568002   0.000000
     4  C    2.591672   1.307681   3.875683   0.000000
     5  O    2.448269   3.732261   1.164259   5.039941   0.000000
 Stoichiometry    C4O(3)
 Framework group  C*V[C*(OCCCC)]
 Deg. of freedom     4
 Full point group                 C*V     NOp   4
 Largest Abelian subgroup         C2V     NOp   4
 Largest concise Abelian subgroup C1      NOp   1
                         Standard orientation:                         
 ---------------------------------------------------------------------
 Center     Atomic      Atomic             Coordinates (Angstroms)
 Number     Number       Type             X           Y           Z
 ---------------------------------------------------------------------
      1          6           0       -0.000000    0.000000    0.126132
      2          6           0       -0.000000    0.000000    1.410124
      3          6           0        0.000000   -0.000000   -1.157878
      4          6           0       -0.000000    0.000000    2.717804
      5          8           0        0.000000   -0.000000   -2.322137
 ---------------------------------------------------------------------
 Rotational constants (GHZ):      0.0000000      2.3502971      2.3502971
 Leave Link  202 at Sun Mar  4 21:12:59 2018, MaxMem=    33554432 cpu:         0.0
 (Enter /apl/tryton/gaussian/09/d01/g09/l301.exe)
 Standard basis: 6-311++G(d,p) (5D, 7F)
 Ernie: Thresh=  0.10000D-02 Tol=  0.10000D-05 Strict=F.
 There are    60 symmetry adapted cartesian basis functions of A1  symmetry.
 There are     5 symmetry adapted cartesian basis functions of A2  symmetry.
 There are    25 symmetry adapted cartesian basis functions of B1  symmetry.
 There are    25 symmetry adapted cartesian basis functions of B2  symmetry.
 There are    55 symmetry adapted basis functions of A1  symmetry.
 There are     5 symmetry adapted basis functions of A2  symmetry.
 There are    25 symmetry adapted basis functions of B1  symmetry.
 There are    25 symmetry adapted basis functions of B2  symmetry.
   110 basis functions,   180 primitive gaussians,   115 cartesian basis functions
    17 alpha electrons       15 beta electrons
       nuclear repulsion energy       107.9631513494 Hartrees.
 IExCor=  402 DFT=T Ex+Corr=B3LYP ExCW=0 ScaHFX=  0.200000
 ScaDFX=  0.800000  0.720000  1.000000  0.810000 ScalE2=  1.000000  1.000000
 IRadAn=      0 IRanWt=     -1 IRanGd=            0 ICorTp=0 IEmpDi=  4
 NAtoms=    5 NActive=    5 NUniq=    5 SFac= 1.00D+00 NAtFMM=   60 NAOKFM=F Big=F
 Integral buffers will be    131072 words long.
 Raffenetti 2 integral format.
 Two-electron integral symmetry is turned on.
 Leave Link  301 at Sun Mar  4 21:12:59 2018, MaxMem=    33554432 cpu:         0.0
 (Enter /apl/tryton/gaussian/09/d01/g09/l302.exe)
 NPDir=0 NMtPBC=     1 NCelOv=     1 NCel=       1 NClECP=     1 NCelD=      1
         NCelK=      1 NCelE2=     1 NClLst=     1 CellRange=     0.0.
 One-electron integrals computed using PRISM.
 NBasis=   110 RedAO= T EigKep=  3.78D-06  NBF=    55     5    25    25
 NBsUse=   109 1.00D-06 EigRej=  7.67D-08 NBFU=    54     5    25    25
 Precomputing XC quadrature grid using
 IXCGrd= 4 IRadAn=           0 IRanWt=          -1 IRanGd=           0 AccXCQ= 0.00D+00.
 Generated NRdTot=       0 NPtTot=           0 NUsed=           0 NTot=          32
 NSgBfM=   115   115   115   115   115 MxSgAt=     5 MxSgA2=     5.
 Leave Link  302 at Sun Mar  4 21:13:00 2018, MaxMem=    33554432 cpu:         0.1
 (Enter /apl/tryton/gaussian/09/d01/g09/l303.exe)
 DipDrv:  MaxL=1.
 Leave Link  303 at Sun Mar  4 21:13:00 2018, MaxMem=    33554432 cpu:         0.0
 (Enter /apl/tryton/gaussian/09/d01/g09/l401.exe)
 ExpMin= 4.38D-02 ExpMax= 8.59D+03 ExpMxC= 1.30D+03 IAcc=2 IRadAn=         4 AccDes= 0.00D+00
 Harris functional with IExCor=  402 and IRadAn=       4 diagonalized for initial guess.
 HarFok:  IExCor=  402 AccDes= 0.00D+00 IRadAn=         4 IDoV= 1 UseB2=F ITyADJ=14
 ICtDFT=  3500011 ScaDFX=  1.000000  1.000000  1.000000  1.000000
 FoFCou: FMM=F IPFlag=           0 FMFlag=      100000 FMFlg1=           0
         NFxFlg=           0 DoJE=T BraDBF=F KetDBF=T FulRan=T
         wScrn=  0.000000 ICntrl=     500 IOpCl=  0 I1Cent=   200000004 NGrid=           0
         NMat0=    1 NMatS0=      1 NMatT0=    0 NMatD0=    1 NMtDS0=    0 NMtDT0=    0
 Petite list used in FoFCou.
 Harris En= -227.481825784608    
 JPrj=0 DoOrth=F DoCkMO=F.
 Initial guess orbital symmetries:
 Alpha Orbitals:
       Occupied  (SG) (SG) (SG) (SG) (SG) (SG) (SG) (SG) (SG) (SG)
                 (PI) (PI) (PI) (PI) (SG) (PI) (PI)
       Virtual   (PI) (PI) (SG) (SG) (PI) (PI) (SG) (PI) (PI) (SG)
                 (PI) (PI) (SG) (PI) (PI) (SG) (SG) (PI) (PI) (SG)
                 (SG) (PI) (PI) (SG) (SG) (SG) (SG) (PI) (PI) (PI)
                 (PI) (PI) (PI) (SG) (PI) (PI) (SG) (SG) (SG) (SG)
                 (SG) (DLTA) (DLTA) (PI) (PI) (SG) (PI) (PI) (DLTA)
                 (DLTA) (SG) (DLTA) (DLTA) (SG) (PI) (PI) (DLTA)
                 (DLTA) (PI) (PI) (SG) (SG) (SG) (PI) (PI) (PI)
                 (PI) (SG) (DLTA) (DLTA) (PI) (PI) (PI) (PI) (SG)
                 (PI) (PI) (SG) (SG) (SG) (PI) (PI) (SG) (SG) (PI)
                 (PI) (SG) (SG) (SG) (SG) (SG) (SG)
 Beta  Orbitals:
       Occupied  (SG) (SG) (SG) (SG) (SG) (SG) (SG) (SG) (SG) (SG)
                 (PI) (PI) (PI) (PI) (SG)
       Virtual   (PI) (PI) (PI) (PI) (SG) (SG) (PI) (PI) (SG) (PI)
                 (PI) (SG) (PI) (PI) (SG) (PI) (PI) (SG) (SG) (PI)
                 (PI) (SG) (SG) (PI) (PI) (SG) (SG) (SG) (SG) (PI)
                 (PI) (PI) (PI) (PI) (PI) (SG) (PI) (PI) (SG) (SG)
                 (SG) (SG) (SG) (DLTA) (DLTA) (PI) (PI) (SG) (PI)
                 (PI) (DLTA) (DLTA) (SG) (DLTA) (DLTA) (SG) (PI)
                 (PI) (DLTA) (DLTA) (PI) (PI) (SG) (SG) (SG) (PI)
                 (PI) (PI) (PI) (SG) (DLTA) (DLTA) (PI) (PI) (PI)
                 (PI) (SG) (PI) (PI) (SG) (SG) (SG) (PI) (PI) (SG)
                 (SG) (PI) (PI) (SG) (SG) (SG) (SG) (SG) (SG)
 The electronic state of the initial guess is 3-SG.
 Initial guess <Sx>= 0.0000 <Sy>= 0.0000 <Sz>= 1.0000 <S**2>= 2.0000 S= 1.0000
 Leave Link  401 at Sun Mar  4 21:13:00 2018, MaxMem=    33554432 cpu:         0.3
 (Enter /apl/tryton/gaussian/09/d01/g09/l502.exe)
 UHF open shell SCF:
 Using DIIS extrapolation, IDIIS=  1040.
 Integral symmetry usage will be decided dynamically.
 Keep R1 and R2 ints in memory in symmetry-blocked form, NReq=23803657.
 IVT=       59857 IEndB=       59857 NGot=    33554432 MDV=    23300386
 LenX=    23300386 LenY=    23286720
 Requested convergence on RMS density matrix=1.00D-08 within 128 cycles.
 Requested convergence on MAX density matrix=1.00D-06.
 Requested convergence on             energy=1.00D-06.
 No special actions if energy rises.
 FoFCou: FMM=F IPFlag=           0 FMFlag=           0 FMFlg1=           0
         NFxFlg=           0 DoJE=F BraDBF=F KetDBF=F FulRan=T
         wScrn=  0.000000 ICntrl=     600 IOpCl=  0 I1Cent=           0 NGrid=           0
         NMat0=    1 NMatS0=   6105 NMatT0=    0 NMatD0=    1 NMtDS0=    0 NMtDT0=    0
 Petite list used in FoFCou.

 Cycle   1  Pass 1  IDiag  1:
 E= -227.408202899158    
 DIIS: error= 2.51D-02 at cycle   1 NSaved=   1.
 NSaved= 1 IEnMin= 1 EnMin= -227.408202899158     IErMin= 1 ErrMin= 2.51D-02
 ErrMax= 2.51D-02  0.00D+00 EMaxC= 1.00D-01 BMatC= 3.60D-01 BMatP= 3.60D-01
 IDIUse=3 WtCom= 7.49D-01 WtEn= 2.51D-01
 Coeff-Com:  0.100D+01
 Coeff-En:   0.100D+01
 Coeff:      0.100D+01
 Gap=     0.204 Goal=   None    Shift=    0.000
 Gap=     0.071 Goal=   None    Shift=    0.000
 GapD=    0.071 DampG=0.500 DampE=0.500 DampFc=0.2500 IDamp=-1.
 Damping current iteration by 2.50D-01
 RMSDP=4.22D-02 MaxDP=1.50D+00              OVMax= 3.11D-01

 Cycle   2  Pass 1  IDiag  1:
 E= -227.434123779068     Delta-E=       -0.025920879910 Rises=F Damp=T
 DIIS: error= 1.62D-02 at cycle   2 NSaved=   2.
 NSaved= 2 IEnMin= 2 EnMin= -227.434123779068     IErMin= 2 ErrMin= 1.62D-02
 ErrMax= 1.62D-02  0.00D+00 EMaxC= 1.00D-01 BMatC= 9.56D-02 BMatP= 3.60D-01
 IDIUse=3 WtCom= 8.38D-01 WtEn= 1.62D-01
 Coeff-Com: -0.542D+00 0.154D+01
 Coeff-En:   0.000D+00 0.100D+01
 Coeff:     -0.454D+00 0.145D+01
 Gap=     0.241 Goal=   None    Shift=    0.000
 Gap=     0.140 Goal=   None    Shift=    0.000
 RMSDP=2.18D-02 MaxDP=8.24D-01 DE=-2.59D-02 OVMax= 3.00D-01

 Cycle   3  Pass 1  IDiag  1:
 E= -227.459528700908     Delta-E=       -0.025404921840 Rises=F Damp=F
 DIIS: error= 2.62D-02 at cycle   3 NSaved=   3.
 NSaved= 3 IEnMin= 3 EnMin= -227.459528700908     IErMin= 2 ErrMin= 1.62D-02
 ErrMax= 2.62D-02  0.00D+00 EMaxC= 1.00D-01 BMatC= 9.79D-02 BMatP= 9.56D-02
 IDIUse=3 WtCom= 7.38D-01 WtEn= 2.62D-01
 Coeff-Com: -0.437D+00 0.993D+00 0.444D+00
 Coeff-En:   0.000D+00 0.806D-01 0.919D+00
 Coeff:     -0.322D+00 0.754D+00 0.568D+00
 Gap=     0.223 Goal=   None    Shift=    0.000
 Gap=     0.088 Goal=   None    Shift=    0.000
 RMSDP=4.27D-03 MaxDP=1.17D-01 DE=-2.54D-02 OVMax= 1.87D-01

 Cycle   4  Pass 1  IDiag  1:
 E= -227.464201158104     Delta-E=       -0.004672457196 Rises=F Damp=F
 DIIS: error= 2.16D-02 at cycle   4 NSaved=   4.
 NSaved= 4 IEnMin= 4 EnMin= -227.464201158104     IErMin= 2 ErrMin= 1.62D-02
 ErrMax= 2.16D-02  0.00D+00 EMaxC= 1.00D-01 BMatC= 8.30D-02 BMatP= 9.56D-02
 IDIUse=3 WtCom= 7.84D-01 WtEn= 2.16D-01
 Coeff-Com: -0.172D+00 0.369D+00 0.447D+00 0.356D+00
 Coeff-En:   0.000D+00 0.000D+00 0.470D+00 0.530D+00
 Coeff:     -0.135D+00 0.289D+00 0.452D+00 0.393D+00
 Gap=     0.218 Goal=   None    Shift=    0.000
 Gap=     0.119 Goal=   None    Shift=    0.000
 RMSDP=3.95D-03 MaxDP=1.52D-01 DE=-4.67D-03 OVMax= 9.52D-02

 Cycle   5  Pass 1  IDiag  1:
 E= -227.489424721479     Delta-E=       -0.025223563375 Rises=F Damp=F
 DIIS: error= 2.95D-03 at cycle   5 NSaved=   5.
 NSaved= 5 IEnMin= 5 EnMin= -227.489424721479     IErMin= 5 ErrMin= 2.95D-03
 ErrMax= 2.95D-03  0.00D+00 EMaxC= 1.00D-01 BMatC= 1.89D-03 BMatP= 8.30D-02
 IDIUse=3 WtCom= 9.71D-01 WtEn= 2.95D-02
 Coeff-Com:  0.293D-01-0.522D-01 0.131D+00 0.205D+00 0.687D+00
 Coeff-En:   0.000D+00 0.000D+00 0.000D+00 0.000D+00 0.100D+01
 Coeff:      0.284D-01-0.507D-01 0.128D+00 0.199D+00 0.696D+00
 Gap=     0.215 Goal=   None    Shift=    0.000
 Gap=     0.119 Goal=   None    Shift=    0.000
 RMSDP=1.55D-03 MaxDP=8.05D-02 DE=-2.52D-02 OVMax= 1.03D-02

 Cycle   6  Pass 1  IDiag  1:
 E= -227.489704290297     Delta-E=       -0.000279568818 Rises=F Damp=F
 DIIS: error= 2.14D-03 at cycle   6 NSaved=   6.
 NSaved= 6 IEnMin= 6 EnMin= -227.489704290297     IErMin= 6 ErrMin= 2.14D-03
 ErrMax= 2.14D-03  0.00D+00 EMaxC= 1.00D-01 BMatC= 9.26D-04 BMatP= 1.89D-03
 IDIUse=3 WtCom= 9.79D-01 WtEn= 2.14D-02
 Coeff-Com:  0.287D-01-0.591D-01 0.393D-01 0.905D-01 0.505D+00 0.396D+00
 Coeff-En:   0.000D+00 0.000D+00 0.000D+00 0.000D+00 0.293D+00 0.707D+00
 Coeff:      0.280D-01-0.578D-01 0.385D-01 0.886D-01 0.501D+00 0.402D+00
 Gap=     0.216 Goal=   None    Shift=    0.000
 Gap=     0.118 Goal=   None    Shift=    0.000
 RMSDP=2.56D-04 MaxDP=1.16D-02 DE=-2.80D-04 OVMax= 6.32D-03

 Cycle   7  Pass 1  IDiag  1:
 E= -227.489915728381     Delta-E=       -0.000211438084 Rises=F Damp=F
 DIIS: error= 5.13D-04 at cycle   7 NSaved=   7.
 NSaved= 7 IEnMin= 7 EnMin= -227.489915728381     IErMin= 7 ErrMin= 5.13D-04
 ErrMax= 5.13D-04  0.00D+00 EMaxC= 1.00D-01 BMatC= 4.53D-05 BMatP= 9.26D-04
 IDIUse=3 WtCom= 9.95D-01 WtEn= 5.13D-03
 Coeff-Com:  0.561D-02-0.132D-01-0.186D-01-0.157D-01 0.767D-01 0.181D+00
 Coeff-Com:  0.784D+00
 Coeff-En:   0.000D+00 0.000D+00 0.000D+00 0.000D+00 0.000D+00 0.000D+00
 Coeff-En:   0.100D+01
 Coeff:      0.558D-02-0.131D-01-0.185D-01-0.157D-01 0.763D-01 0.180D+00
 Coeff:      0.785D+00
 Gap=     0.216 Goal=   None    Shift=    0.000
 Gap=     0.119 Goal=   None    Shift=    0.000
 RMSDP=2.35D-04 MaxDP=8.86D-03 DE=-2.11D-04 OVMax= 2.85D-03

 Cycle   8  Pass 1  IDiag  1:
 E= -227.489931588731     Delta-E=       -0.000015860350 Rises=F Damp=F
 DIIS: error= 2.48D-04 at cycle   8 NSaved=   8.
 NSaved= 8 IEnMin= 8 EnMin= -227.489931588731     IErMin= 8 ErrMin= 2.48D-04
 ErrMax= 2.48D-04  0.00D+00 EMaxC= 1.00D-01 BMatC= 1.39D-05 BMatP= 4.53D-05
 IDIUse=3 WtCom= 9.98D-01 WtEn= 2.48D-03
 Coeff-Com:  0.382D-03-0.108D-02-0.165D-01-0.195D-01-0.260D-01 0.539D-01
 Coeff-Com:  0.436D+00 0.573D+00
 Coeff-En:   0.000D+00 0.000D+00 0.000D+00 0.000D+00 0.000D+00 0.000D+00
 Coeff-En:   0.000D+00 0.100D+01
 Coeff:      0.381D-03-0.108D-02-0.164D-01-0.195D-01-0.259D-01 0.538D-01
 Coeff:      0.435D+00 0.574D+00
 Gap=     0.216 Goal=   None    Shift=    0.000
 Gap=     0.118 Goal=   None    Shift=    0.000
 RMSDP=8.94D-05 MaxDP=3.82D-03 DE=-1.59D-05 OVMax= 1.20D-03

 Cycle   9  Pass 1  IDiag  1:
 E= -227.489935786247     Delta-E=       -0.000004197516 Rises=F Damp=F
 DIIS: error= 9.17D-05 at cycle   9 NSaved=   9.
 NSaved= 9 IEnMin= 9 EnMin= -227.489935786247     IErMin= 9 ErrMin= 9.17D-05
 ErrMax= 9.17D-05  0.00D+00 EMaxC= 1.00D-01 BMatC= 1.87D-06 BMatP= 1.39D-05
 IDIUse=1 WtCom= 1.00D+00 WtEn= 0.00D+00
 Coeff-Com:  0.197D-04 0.681D-03 0.508D-04 0.416D-03-0.340D-01-0.257D-01
 Coeff-Com: -0.107D+00 0.202D+00 0.963D+00
 Coeff:      0.197D-04 0.681D-03 0.508D-04 0.416D-03-0.340D-01-0.257D-01
 Coeff:     -0.107D+00 0.202D+00 0.963D+00
 Gap=     0.216 Goal=   None    Shift=    0.000
 Gap=     0.118 Goal=   None    Shift=    0.000
 RMSDP=6.65D-05 MaxDP=3.06D-03 DE=-4.20D-06 OVMax= 5.89D-04

 Cycle  10  Pass 1  IDiag  1:
 E= -227.489936575058     Delta-E=       -0.000000788811 Rises=F Damp=F
 DIIS: error= 1.10D-05 at cycle  10 NSaved=  10.
 NSaved=10 IEnMin=10 EnMin= -227.489936575058     IErMin=10 ErrMin= 1.10D-05
 ErrMax= 1.10D-05  0.00D+00 EMaxC= 1.00D-01 BMatC= 3.49D-08 BMatP= 1.87D-06
 IDIUse=1 WtCom= 1.00D+00 WtEn= 0.00D+00
 Coeff-Com:  0.226D-03-0.354D-03 0.108D-02 0.134D-02 0.690D-03-0.659D-02
 Coeff-Com: -0.218D-01-0.325D-01 0.662D-02 0.105D+01
 Coeff:      0.226D-03-0.354D-03 0.108D-02 0.134D-02 0.690D-03-0.659D-02
 Coeff:     -0.218D-01-0.325D-01 0.662D-02 0.105D+01
 Gap=     0.216 Goal=   None    Shift=    0.000
 Gap=     0.118 Goal=   None    Shift=    0.000
 RMSDP=7.07D-06 MaxDP=2.90D-04 DE=-7.89D-07 OVMax= 8.96D-05

 Cycle  11  Pass 1  IDiag  1:
 E= -227.489936595550     Delta-E=       -0.000000020492 Rises=F Damp=F
 DIIS: error= 4.16D-06 at cycle  11 NSaved=  11.
 NSaved=11 IEnMin=11 EnMin= -227.489936595550     IErMin=11 ErrMin= 4.16D-06
 ErrMax= 4.16D-06  0.00D+00 EMaxC= 1.00D-01 BMatC= 4.04D-09 BMatP= 3.49D-08
 IDIUse=1 WtCom= 1.00D+00 WtEn= 0.00D+00
 Coeff-Com: -0.117D-04-0.113D-04-0.128D-03 0.265D-04 0.168D-02 0.164D-02
 Coeff-Com:  0.906D-02-0.592D-02-0.525D-01-0.994D-01 0.115D+01
 Coeff:     -0.117D-04-0.113D-04-0.128D-03 0.265D-04 0.168D-02 0.164D-02
 Coeff:      0.906D-02-0.592D-02-0.525D-01-0.994D-01 0.115D+01
 Gap=     0.216 Goal=   None    Shift=    0.000
 Gap=     0.118 Goal=   None    Shift=    0.000
 RMSDP=1.66D-06 MaxDP=3.42D-05 DE=-2.05D-08 OVMax= 2.50D-05

 Cycle  12  Pass 1  IDiag  1:
 E= -227.489936597866     Delta-E=       -0.000000002317 Rises=F Damp=F
 DIIS: error= 1.12D-06 at cycle  12 NSaved=  12.
 NSaved=12 IEnMin=12 EnMin= -227.489936597866     IErMin=12 ErrMin= 1.12D-06
 ErrMax= 1.12D-06  0.00D+00 EMaxC= 1.00D-01 BMatC= 4.31D-10 BMatP= 4.04D-09
 IDIUse=1 WtCom= 1.00D+00 WtEn= 0.00D+00
 Coeff-Com:  0.503D-06 0.263D-05-0.714D-04-0.925D-04-0.479D-03 0.425D-03
 Coeff-Com: -0.602D-03 0.563D-02 0.593D-02-0.518D-01-0.217D+00 0.126D+01
 Coeff:      0.503D-06 0.263D-05-0.714D-04-0.925D-04-0.479D-03 0.425D-03
 Coeff:     -0.602D-03 0.563D-02 0.593D-02-0.518D-01-0.217D+00 0.126D+01
 Gap=     0.216 Goal=   None    Shift=    0.000
 Gap=     0.118 Goal=   None    Shift=    0.000
 RMSDP=7.03D-07 MaxDP=2.73D-05 DE=-2.32D-09 OVMax= 9.00D-06

 Cycle  13  Pass 1  IDiag  1:
 E= -227.489936598104     Delta-E=       -0.000000000238 Rises=F Damp=F
 DIIS: error= 2.19D-07 at cycle  13 NSaved=  13.
 NSaved=13 IEnMin=13 EnMin= -227.489936598104     IErMin=13 ErrMin= 2.19D-07
 ErrMax= 2.19D-07  0.00D+00 EMaxC= 1.00D-01 BMatC= 1.68D-11 BMatP= 4.31D-10
 IDIUse=1 WtCom= 1.00D+00 WtEn= 0.00D+00
 Coeff-Com: -0.458D-06 0.218D-05 0.125D-04 0.941D-06-0.132D-03-0.273D-03
 Coeff-Com: -0.792D-03 0.626D-03 0.364D-02 0.134D-01-0.837D-01-0.873D-01
 Coeff-Com:  0.115D+01
 Coeff:     -0.458D-06 0.218D-05 0.125D-04 0.941D-06-0.132D-03-0.273D-03
 Coeff:     -0.792D-03 0.626D-03 0.364D-02 0.134D-01-0.837D-01-0.873D-01
 Coeff:      0.115D+01
 Gap=     0.216 Goal=   None    Shift=    0.000
 Gap=     0.118 Goal=   None    Shift=    0.000
 RMSDP=2.04D-07 MaxDP=9.47D-06 DE=-2.38D-10 OVMax= 2.43D-06

 Cycle  14  Pass 1  IDiag  1:
 E= -227.489936598116     Delta-E=       -0.000000000012 Rises=F Damp=F
 DIIS: error= 6.04D-08 at cycle  14 NSaved=  14.
 NSaved=14 IEnMin=14 EnMin= -227.489936598116     IErMin=14 ErrMin= 6.04D-08
 ErrMax= 6.04D-08  0.00D+00 EMaxC= 1.00D-01 BMatC= 1.06D-12 BMatP= 1.68D-11
 IDIUse=1 WtCom= 1.00D+00 WtEn= 0.00D+00
 Coeff-Com:  0.734D-06-0.100D-05 0.293D-05 0.506D-05-0.125D-05-0.482D-04
 Coeff-Com: -0.479D-04-0.298D-05 0.841D-04 0.237D-02-0.966D-03-0.511D-01
 Coeff-Com:  0.101D+00 0.949D+00
 Coeff:      0.734D-06-0.100D-05 0.293D-05 0.506D-05-0.125D-05-0.482D-04
 Coeff:     -0.479D-04-0.298D-05 0.841D-04 0.237D-02-0.966D-03-0.511D-01
 Coeff:      0.101D+00 0.949D+00
 Gap=     0.216 Goal=   None    Shift=    0.000
 Gap=     0.118 Goal=   None    Shift=    0.000
 RMSDP=1.92D-08 MaxDP=5.64D-07 DE=-1.18D-11 OVMax= 4.17D-07

 Cycle  15  Pass 1  IDiag  1:
 E= -227.489936598116     Delta-E=        0.000000000000 Rises=F Damp=F
 DIIS: error= 1.39D-08 at cycle  15 NSaved=  15.
 NSaved=15 IEnMin=14 EnMin= -227.489936598116     IErMin=15 ErrMin= 1.39D-08
 ErrMax= 1.39D-08  0.00D+00 EMaxC= 1.00D-01 BMatC= 5.50D-14 BMatP= 1.06D-12
 IDIUse=1 WtCom= 1.00D+00 WtEn= 0.00D+00
 Coeff-Com:  0.268D-06-0.418D-06-0.933D-06-0.246D-06 0.725D-05 0.194D-04
 Coeff-Com:  0.547D-04 0.458D-05-0.286D-03-0.121D-02 0.535D-02 0.114D-01
 Coeff-Com: -0.784D-01-0.136D+00 0.120D+01
 Coeff:      0.268D-06-0.418D-06-0.933D-06-0.246D-06 0.725D-05 0.194D-04
 Coeff:      0.547D-04 0.458D-05-0.286D-03-0.121D-02 0.535D-02 0.114D-01
 Coeff:     -0.784D-01-0.136D+00 0.120D+01
 Gap=     0.216 Goal=   None    Shift=    0.000
 Gap=     0.118 Goal=   None    Shift=    0.000
 RMSDP=8.93D-09 MaxDP=2.32D-07 DE= 0.00D+00 OVMax= 1.06D-07

 SCF Done:  E(UB3LYP) =  -227.489936598     A.U. after   15 cycles
            NFock= 15  Conv=0.89D-08     -V/T= 2.0036
 <Sx>= 0.0000 <Sy>= 0.0000 <Sz>= 1.0000 <S**2>= 2.0222 S= 1.0074
 <L.S>= 0.000000000000E+00
 KE= 2.266762275693D+02 PE=-7.463915184986D+02 EE= 1.842622029817D+02
 Annihilation of the first spin contaminant:
 S**2 before annihilation     2.0222,   after     2.0002
 Leave Link  502 at Sun Mar  4 21:13:08 2018, MaxMem=    33554432 cpu:         8.1
 (Enter /apl/tryton/gaussian/09/d01/g09/l801.exe)
 DoSCS=F DFT=T ScalE2(SS,OS)=  1.000000  1.000000
 Range of M.O.s used for correlation:     1   109
 NBasis=   110 NAE=    17 NBE=    15 NFC=     0 NFV=     0
 NROrb=    109 NOA=    17 NOB=    15 NVA=    92 NVB=    94

 **** Warning!!: The largest alpha MO coefficient is  0.19256820D+03


 **** Warning!!: The largest beta MO coefficient is  0.18541316D+03

 Leave Link  801 at Sun Mar  4 21:13:08 2018, MaxMem=    33554432 cpu:         0.0
 (Enter /apl/tryton/gaussian/09/d01/g09/l1101.exe)
 Using compressed storage, NAtomX=     5.
 Will process      6 centers per pass.
 Leave Link 1101 at Sun Mar  4 21:13:08 2018, MaxMem=    33554432 cpu:         0.1
 (Enter /apl/tryton/gaussian/09/d01/g09/l1102.exe)
 Symmetrizing basis deriv contribution to polar:
 IMax=3 JMax=2 DiffMx= 0.00D+00
 Leave Link 1102 at Sun Mar  4 21:13:08 2018, MaxMem=    33554432 cpu:         0.0
 (Enter /apl/tryton/gaussian/09/d01/g09/l1110.exe)
 Forming Gx(P) for the SCF density, NAtomX=     5.
 Integral derivatives from FoFJK, PRISM(SPDF).
 Do as many integral derivatives as possible in FoFJK.
 G2DrvN: MDV=      33554288.
 G2DrvN: will do     6 centers at a time, making    1 passes.
 Calling FoFCou, ICntrl=  3107 FMM=F I1Cent=   0 AccDes= 0.00D+00.
 FoFJK:  IHMeth= 1 ICntrl=    3107 DoSepK=F KAlg= 0 I1Cent=   0 FoldK=F
 IRaf=         0 NMat=   1 IRICut=       1 DoRegI=T DoRafI=F ISym2E= 1.
 FoFCou: FMM=F IPFlag=           0 FMFlag=      100000 FMFlg1=           0
         NFxFlg=           0 DoJE=F BraDBF=F KetDBF=F FulRan=T
         wScrn=  0.000000 ICntrl=    3107 IOpCl=  1 I1Cent=           0 NGrid=           0
         NMat0=    1 NMatS0=      1 NMatT0=    0 NMatD0=    1 NMtDS0=    0 NMtDT0=    0
 Petite list used in FoFCou.
 End of G2Drv F.D. properties file   721 does not exist.
 End of G2Drv F.D. properties file   722 does not exist.
 End of G2Drv F.D. properties file   788 does not exist.
 Leave Link 1110 at Sun Mar  4 21:13:18 2018, MaxMem=    33554432 cpu:         9.4
 (Enter /apl/tryton/gaussian/09/d01/g09/l1002.exe)
 Minotr:  UHF open shell wavefunction.
          IDoAtm=11111
          Direct CPHF calculation.
          Differentiating once with respect to electric field.
                with respect to dipole field.
          Differentiating once with respect to nuclear coordinates.
          Using symmetry in CPHF.
          Requested convergence is 1.0D-08 RMS, and 1.0D-07 maximum.
          Secondary convergence is 1.0D-12 RMS, and 1.0D-12 maximum.
          NewPWx=T KeepS1=F KeepF1=F KeepIn=T MapXYZ=F SortEE=F KeepMc=T.
          MDV=      33554160 using IRadAn=       2.
 Generate precomputed XC quadrature information.
 Keep R1 and R2 ints in memory in symmetry-blocked form, NReq=23746581.
 FoFCou: FMM=F IPFlag=           0 FMFlag=           0 FMFlg1=           0
         NFxFlg=           0 DoJE=F BraDBF=F KetDBF=F FulRan=T
         wScrn=  0.000000 ICntrl=     600 IOpCl=  0 I1Cent=           0 NGrid=           0
         NMat0=    1 NMatS0=   6105 NMatT0=    0 NMatD0=    1 NMtDS0=    0 NMtDT0=    0
 Petite list used in FoFCou.
          Solving linear equations simultaneously, MaxMat=       0.
          There are    18 degrees of freedom in the 1st order CPHF.  IDoFFX=6 NUNeed=     3.
     16 vectors produced by pass  0 Test12= 1.65D-14 5.56D-09 XBig12= 5.83D+02 1.21D+01.
 AX will form    16 AO Fock derivatives at one time.
     15 vectors produced by pass  1 Test12= 1.65D-14 5.56D-09 XBig12= 2.43D+02 5.27D+00.
     15 vectors produced by pass  2 Test12= 1.65D-14 5.56D-09 XBig12= 1.49D+01 1.04D+00.
     15 vectors produced by pass  3 Test12= 1.65D-14 5.56D-09 XBig12= 6.30D-01 1.51D-01.
     15 vectors produced by pass  4 Test12= 1.65D-14 5.56D-09 XBig12= 8.23D-03 1.30D-02.
     15 vectors produced by pass  5 Test12= 1.65D-14 5.56D-09 XBig12= 1.09D-04 1.72D-03.
     15 vectors produced by pass  6 Test12= 1.65D-14 5.56D-09 XBig12= 1.25D-06 1.77D-04.
      9 vectors produced by pass  7 Test12= 1.65D-14 5.56D-09 XBig12= 5.44D-09 1.28D-05.
      4 vectors produced by pass  8 Test12= 1.65D-14 5.56D-09 XBig12= 3.46D-11 9.72D-07.
      2 vectors produced by pass  9 Test12= 1.65D-14 5.56D-09 XBig12= 1.01D-12 2.25D-07.
      1 vectors produced by pass 10 Test12= 1.65D-14 5.56D-09 XBig12= 7.02D-14 9.55D-08.
 InvSVY:  IOpt=1 It=  1 EMax= 3.55D-15
 Solved reduced A of dimension   122 with    18 vectors.
 FullF1:  Do perturbations    1 to     3.
 Isotropic polarizability for W=    0.000000       54.94 Bohr**3.
 End of Minotr F.D. properties file   721 does not exist.
 End of Minotr F.D. properties file   722 does not exist.
 End of Minotr F.D. properties file   788 does not exist.
 Leave Link 1002 at Sun Mar  4 21:13:43 2018, MaxMem=    33554432 cpu:        25.4
 (Enter /apl/tryton/gaussian/09/d01/g09/l601.exe)
 Copying SCF densities to generalized density rwf, IOpCl= 1 IROHF=0.

 **********************************************************************

            Population analysis using the SCF density.

 **********************************************************************

 Orbital symmetries:
 Alpha Orbitals:
       Occupied  (SG) (SG) (SG) (SG) (SG) (SG) (SG) (SG) (SG) (SG)
                 (PI) (PI) (PI) (PI) (SG) (PI) (PI)
       Virtual   (PI) (PI) (SG) (SG) (PI) (PI) (SG) (PI) (PI) (SG)
                 (PI) (PI) (SG) (PI) (PI) (SG) (PI) (PI) (SG) (SG)
                 (PI) (PI) (SG) (SG) (SG) (SG) (PI) (PI) (SG) (PI)
                 (PI) (PI) (PI) (SG) (PI) (PI) (SG) (SG) (SG) (SG)
                 (DLTA) (DLTA) (SG) (PI) (PI) (SG) (PI) (PI) (DLTA)
                 (DLTA) (SG) (DLTA) (DLTA) (SG) (PI) (PI) (DLTA)
                 (DLTA) (PI) (PI) (SG) (SG) (SG) (PI) (PI) (PI)
                 (PI) (SG) (DLTA) (DLTA) (PI) (PI) (PI) (PI) (SG)
                 (PI) (PI) (SG) (SG) (SG) (PI) (PI) (SG) (SG) (PI)
                 (PI) (SG) (SG) (SG) (SG) (SG) (SG)
 Beta  Orbitals:
       Occupied  (SG) (SG) (SG) (SG) (SG) (SG) (SG) (SG) (SG) (SG)
                 (PI) (PI) (PI) (PI) (SG)
       Virtual   (PI) (PI) (PI) (PI) (SG) (SG) (PI) (PI) (SG) (PI)
                 (PI) (SG) (PI) (PI) (SG) (SG) (PI) (PI) (PI) (PI)
                 (SG) (SG) (PI) (PI) (SG) (SG) (SG) (SG) (PI) (PI)
                 (SG) (PI) (PI) (PI) (PI) (SG) (SG) (PI) (PI) (SG)
                 (SG) (SG) (DLTA) (DLTA) (SG) (PI) (PI) (SG) (PI)
                 (PI) (DLTA) (DLTA) (SG) (SG) (DLTA) (DLTA) (PI)
                 (PI) (DLTA) (DLTA) (PI) (PI) (SG) (SG) (SG) (PI)
                 (PI) (PI) (PI) (SG) (DLTA) (DLTA) (PI) (PI) (PI)
                 (PI) (SG) (PI) (PI) (SG) (SG) (SG) (PI) (PI) (SG)
                 (SG) (PI) (PI) (SG) (SG) (SG) (SG) (SG) (SG)
 The electronic state is 3-SG.
 Alpha  occ. eigenvalues --  -19.25485 -10.35438 -10.27280 -10.24986 -10.24774
 Alpha  occ. eigenvalues --   -1.18521  -0.88141  -0.80601  -0.68702  -0.57582
 Alpha  occ. eigenvalues --   -0.52755  -0.52755  -0.40340  -0.40340  -0.32900
 Alpha  occ. eigenvalues --   -0.28383  -0.28383
 Alpha virt. eigenvalues --   -0.06752  -0.06752  -0.01491   0.03162   0.03981
 Alpha virt. eigenvalues --    0.03981   0.06088   0.07410   0.07410   0.08876
 Alpha virt. eigenvalues --    0.11216   0.11216   0.12348   0.14367   0.14367
 Alpha virt. eigenvalues --    0.15842   0.18861   0.18861   0.20952   0.25239
 Alpha virt. eigenvalues --    0.27059   0.27059   0.27413   0.28471   0.38348
 Alpha virt. eigenvalues --    0.49709   0.49764   0.49764   0.50605   0.56967
 Alpha virt. eigenvalues --    0.56967   0.59349   0.59349   0.64832   0.68663
 Alpha virt. eigenvalues --    0.68663   0.68865   0.85114   0.86665   0.89844
 Alpha virt. eigenvalues --    1.00810   1.00810   1.02363   1.03427   1.03427
 Alpha virt. eigenvalues --    1.08883   1.11279   1.11279   1.14141   1.14141
 Alpha virt. eigenvalues --    1.17474   1.35376   1.35376   1.36648   1.44044
 Alpha virt. eigenvalues --    1.44044   1.59814   1.59814   1.85465   1.85465
 Alpha virt. eigenvalues --    1.89921   1.95653   2.34034   2.38832   2.38832
 Alpha virt. eigenvalues --    2.59494   2.59494   2.65329   2.74120   2.74120
 Alpha virt. eigenvalues --    2.83115   2.83115   2.85620   2.85620   2.89914
 Alpha virt. eigenvalues --    2.95983   2.95983   3.15662   3.35158   3.45749
 Alpha virt. eigenvalues --    3.49627   3.49627   3.72607   3.93139   4.97524
 Alpha virt. eigenvalues --    4.97524   5.66392  23.20450  23.68786  24.42778
 Alpha virt. eigenvalues --   25.27680  50.00866
  Beta  occ. eigenvalues --  -19.24454 -10.35157 -10.26625 -10.24604 -10.23723
  Beta  occ. eigenvalues --   -1.16781  -0.85762  -0.77019  -0.66713  -0.56198
  Beta  occ. eigenvalues --   -0.49743  -0.49743  -0.36822  -0.36822  -0.30508
  Beta virt. eigenvalues --   -0.18684  -0.18684  -0.02876  -0.02876  -0.01242
  Beta virt. eigenvalues --    0.03361   0.04202   0.04202   0.06312   0.07916
  Beta virt. eigenvalues --    0.07916   0.09041   0.12345   0.12345   0.13531
  Beta virt. eigenvalues --    0.16254   0.16624   0.16624   0.19170   0.19170
  Beta virt. eigenvalues --    0.21598   0.25879   0.27388   0.27388   0.27753
  Beta virt. eigenvalues --    0.28689   0.39352   0.50462   0.51116   0.51116
  Beta virt. eigenvalues --    0.51120   0.58217   0.58217   0.60972   0.60972
  Beta virt. eigenvalues --    0.66543   0.69267   0.69834   0.69834   0.86139
  Beta virt. eigenvalues --    0.87946   0.91197   1.03151   1.03151   1.03583
  Beta virt. eigenvalues --    1.05365   1.05365   1.09770   1.12723   1.12723
  Beta virt. eigenvalues --    1.17323   1.17323   1.18081   1.37468   1.38929
  Beta virt. eigenvalues --    1.38929   1.46309   1.46309   1.62634   1.62634
  Beta virt. eigenvalues --    1.87250   1.87250   1.90843   1.97533   2.35303
  Beta virt. eigenvalues --    2.40907   2.40907   2.61679   2.61679   2.66306
  Beta virt. eigenvalues --    2.77278   2.77278   2.84878   2.84878   2.88262
  Beta virt. eigenvalues --    2.88262   2.91127   2.97705   2.97705   3.16628
  Beta virt. eigenvalues --    3.36322   3.46679   3.51335   3.51335   3.73709
  Beta virt. eigenvalues --    3.94301   5.00046   5.00046   5.67310  23.21227
  Beta virt. eigenvalues --   23.69733  24.43325  25.28254  50.01892
          Condensed to atoms (all electrons):
               1          2          3          4          5
     1  C   18.235168   3.240092 -14.679387  -2.895138   0.686960
     2  C    3.240092  11.133927  -3.380784  -5.147027   0.027531
     3  C  -14.679387  -3.380784  22.845915   3.009808  -0.794037
     4  C   -2.895138  -5.147027   3.009808  11.482113  -0.018071
     5  O    0.686960   0.027531  -0.794037  -0.018071   8.202980
          Atomic-Atomic Spin Densities.
               1          2          3          4          5
     1  C    0.761433  -0.078208  -0.102472  -0.073136  -0.022783
     2  C   -0.078208   0.286093   0.016525  -0.013892  -0.000167
     3  C   -0.102472   0.016525   0.226192   0.130901  -0.116150
     4  C   -0.073136  -0.013892   0.130901   0.762374  -0.000357
     5  O   -0.022783  -0.000167  -0.116150  -0.000357   0.483385
 Mulliken charges and spin densities:
               1          2
     1  C    1.412304   0.484834
     2  C    0.126261   0.210351
     3  C   -1.001515   0.154996
     4  C   -0.431686   0.805891
     5  O   -0.105364   0.343929
 Sum of Mulliken charges =  -0.00000   2.00000
 Mulliken charges and spin densities with hydrogens summed into heavy atoms:
               1          2
     1  C    1.412304   0.484834
     2  C    0.126261   0.210351
     3  C   -1.001515   0.154996
     4  C   -0.431686   0.805891
     5  O   -0.105364   0.343929
 APT charges:
               1
     1  C   -0.395565
     2  C   -0.092408
     3  C    1.262048
     4  C    0.055367
     5  O   -0.829443
 Sum of APT charges =  -0.00000
 APT charges with hydrogens summed into heavy atoms:
               1
     1  C   -0.395565
     2  C   -0.092408
     3  C    1.262048
     4  C    0.055367
     5  O   -0.829443
 Electronic spatial extent (au):  <R**2>=            454.7608
 Charge=             -0.0000 electrons
 Dipole moment (field-independent basis, Debye):
    X=              0.0000    Y=             -0.0000    Z=             -2.5809  Tot=              2.5809
 Quadrupole moment (field-independent basis, Debye-Ang):
   XX=            -26.9804   YY=            -26.9804   ZZ=            -41.2312
   XY=              0.0000   XZ=              0.0000   YZ=             -0.0000
 Traceless Quadrupole moment (field-independent basis, Debye-Ang):
   XX=              4.7503   YY=              4.7503   ZZ=             -9.5005
   XY=              0.0000   XZ=              0.0000   YZ=             -0.0000
 Octapole moment (field-independent basis, Debye-Ang**2):
  XXX=              0.0000  YYY=             -0.0000  ZZZ=            -55.1970  XYY=              0.0000
  XXY=             -0.0000  XXZ=             -8.2324  XZZ=              0.0000  YZZ=             -0.0000
  YYZ=             -8.2324  XYZ=              0.0000
 Hexadecapole moment (field-independent basis, Debye-Ang**3):
 XXXX=            -29.0196 YYYY=            -29.0196 ZZZZ=           -777.7336 XXXY=              0.0000
 XXXZ=              0.0000 YYYX=              0.0000 YYYZ=             -0.0000 ZZZX=              0.0000
 ZZZY=             -0.0000 XXYY=             -9.6732 XXZZ=           -103.0237 YYZZ=           -103.0237
 XXYZ=             -0.0000 YYXZ=              0.0000 ZZXY=              0.0000
 N-N= 1.079631513494D+02 E-N=-7.463915185775D+02  KE= 2.266762275693D+02
 Symmetry A1   KE= 2.111685003742D+02
 Symmetry A2   KE= 3.160599940500D-32
 Symmetry B1   KE= 7.753863597588D+00
 Symmetry B2   KE= 7.753863597588D+00
  Exact polarizability:  24.731  -0.000  24.731  -0.000   0.000 115.370
 Approx polarizability:  31.164  -0.000  31.164  -0.000   0.000 247.804
                          Isotropic Fermi Contact Couplings
        Atom                 a.u.       MegaHertz       Gauss      10(-4) cm-1
     1  C(13)             -0.00153      -0.85997      -0.30686      -0.28686
     2  C(13)             -0.03184     -17.89442      -6.38517      -5.96893
     3  C(13)             -0.03878     -21.80059      -7.77899      -7.27189
     4  C(13)              0.03195      17.95710       6.40754       5.98984
     5  O(17)              0.03195      -9.68519      -3.45592      -3.23063
 --------------------------------------------------------
       Center         ----  Spin Dipole Couplings  ----
                      3XX-RR        3YY-RR        3ZZ-RR
 --------------------------------------------------------
     1   Atom        0.131596      0.131596     -0.263191
     2   Atom        0.020349      0.020349     -0.040699
     3   Atom        0.045141      0.045141     -0.090281
     4   Atom        0.268826      0.268826     -0.537651
     5   Atom        0.413043      0.413043     -0.826086
 --------------------------------------------------------
                        XY            XZ            YZ
 --------------------------------------------------------
     1   Atom        0.000000     -0.000000      0.000000
     2   Atom        0.000000     -0.000000      0.000000
     3   Atom        0.000000     -0.000000      0.000000
     4   Atom        0.000000      0.000000     -0.000000
     5   Atom       -0.000000     -0.000000      0.000000
 --------------------------------------------------------


 ---------------------------------------------------------------------------------
              Anisotropic Spin Dipole Couplings in Principal Axis System
 ---------------------------------------------------------------------------------

       Atom             a.u.   MegaHertz   Gauss  10(-4) cm-1        Axes

              Baa    -0.2632   -35.318   -12.602   -11.781  0.0000  0.0000  1.0000
     1 C(13)  Bbb     0.1316    17.659     6.301     5.890 -0.0014  1.0000  0.0000
              Bcc     0.1316    17.659     6.301     5.890  1.0000  0.0014  0.0000
 
              Baa    -0.0407    -5.461    -1.949    -1.822  0.0000  0.0000  1.0000
     2 C(13)  Bbb     0.0203     2.731     0.974     0.911  1.0000  0.0004  0.0000
              Bcc     0.0203     2.731     0.974     0.911 -0.0004  1.0000 -0.0000
 
              Baa    -0.0903   -12.115    -4.323    -4.041  0.0000 -0.0000  1.0000
     3 C(13)  Bbb     0.0451     6.057     2.161     2.021  1.0000  0.0002 -0.0000
              Bcc     0.0451     6.057     2.161     2.021 -0.0002  1.0000  0.0000
 
              Baa    -0.5377   -72.148   -25.744   -24.066  0.0000  0.0000  1.0000
     4 C(13)  Bbb     0.2688    36.074    12.872    12.033  1.0000 -0.0042  0.0000
              Bcc     0.2688    36.074    12.872    12.033  0.0042  1.0000 -0.0000
 
              Baa    -0.8261    59.775    21.329    19.939  0.0000  0.0000  1.0000
     5 O(17)  Bbb     0.4130   -29.888   -10.665    -9.969  0.0006  1.0000  0.0000
              Bcc     0.4130   -29.888   -10.665    -9.969  1.0000 -0.0006  0.0000
 

 ---------------------------------------------------------------------------------

 No NMR shielding tensors so no spin-rotation constants.
 Leave Link  601 at Sun Mar  4 21:13:43 2018, MaxMem=    33554432 cpu:         0.2
 (Enter /apl/tryton/gaussian/09/d01/g09/l701.exe)
 Compute integral second derivatives.
 ... and contract with generalized density number  0.
 Leave Link  701 at Sun Mar  4 21:13:44 2018, MaxMem=    33554432 cpu:         0.2
 (Enter /apl/tryton/gaussian/09/d01/g09/l702.exe)
 L702 exits ... SP integral derivatives will be done elsewhere.
 Leave Link  702 at Sun Mar  4 21:13:44 2018, MaxMem=    33554432 cpu:         0.0
 (Enter /apl/tryton/gaussian/09/d01/g09/l703.exe)
 Compute integral second derivatives, UseDBF=F ICtDFT=           0.
 Integral derivatives from FoFJK, PRISM(SPDF).
 Calling FoFJK, ICntrl=    100127 FMM=F ISym2X=1 I1Cent= 0 IOpClX= 1 NMat=1 NMatS=1 NMatT=0.
 FoFJK:  IHMeth= 1 ICntrl=  100127 DoSepK=F KAlg= 0 I1Cent=   0 FoldK=F
 IRaf=         0 NMat=   1 IRICut=       1 DoRegI=T DoRafI=F ISym2E= 1.
 FoFCou: FMM=F IPFlag=           0 FMFlag=      100000 FMFlg1=         800
         NFxFlg=           0 DoJE=F BraDBF=F KetDBF=F FulRan=T
         wScrn=  0.000000 ICntrl=  100127 IOpCl=  1 I1Cent=           0 NGrid=           0
         NMat0=    1 NMatS0=      1 NMatT0=    0 NMatD0=    1 NMtDS0=    0 NMtDT0=    0
 Petite list used in FoFCou.
 Leave Link  703 at Sun Mar  4 21:13:55 2018, MaxMem=    33554432 cpu:        11.5
 (Enter /apl/tryton/gaussian/09/d01/g09/l716.exe)
 Dipole        = 4.14868169D-17-1.33504588D-16-1.01540751D+00
 Polarizability= 2.47310510D+01-2.29841361D-06 2.47310511D+01
                -6.94416693D-06 8.24790717D-06 1.15370346D+02
 Full mass-weighted force constant matrix:
 Low frequencies ---    0.0007    0.0011    0.0011    4.2848    4.2848  135.8330
 Low frequencies ---  135.8331  352.2494  352.2497
 Diagonal vibrational polarizability:
       15.1129818      15.1129926       7.3075059
 Harmonic frequencies (cm**-1), IR intensities (KM/Mole), Raman scattering
 activities (A**4/AMU), depolarization ratios for plane and unpolarized
 incident light, reduced masses (AMU), force constants (mDyne/A),
 and normal coordinates:
                      1                      2                      3
                     PI                     PI                     PI
 Frequencies --    135.8328               135.8328               352.2493
 Red. masses --     12.5868                12.5868                12.0740
 Frc consts  --      0.1368                 0.1368                 0.8827
 IR Inten    --      8.8463                 8.8463                 4.7848
  Atom  AN      X      Y      Z        X      Y      Z        X      Y      Z
     1   6     0.47   0.47   0.00     0.47  -0.47  -0.00     0.19  -0.43  -0.00
     2   6     0.20   0.20  -0.00     0.20  -0.20   0.00    -0.32   0.72   0.00
     3   6     0.09   0.09   0.00     0.09  -0.09  -0.00     0.08  -0.17  -0.00
     4   6    -0.39  -0.40  -0.00    -0.40   0.39   0.00     0.13  -0.29   0.00
     5   8    -0.27  -0.27   0.00    -0.27   0.27  -0.00    -0.06   0.12  -0.00
                      4                      5                      6
                     PI                     PI                     PI
 Frequencies --    352.2496               519.9416               519.9416
 Red. masses --     12.0740                12.4274                12.4274
 Frc consts  --      0.8827                 1.9794                 1.9794
 IR Inten    --      4.7848                11.7766                11.7766
  Atom  AN      X      Y      Z        X      Y      Z        X      Y      Z
     1   6    -0.43  -0.19  -0.00    -0.40   0.16   0.00    -0.16  -0.40  -0.00
     2   6     0.72   0.32   0.00     0.02  -0.01  -0.00     0.01   0.02   0.00
     3   6    -0.17  -0.08  -0.00     0.78  -0.31   0.00     0.31   0.78  -0.00
     4   6    -0.29  -0.13   0.00    -0.00   0.00  -0.00    -0.00  -0.00   0.00
     5   8     0.12   0.06  -0.00    -0.30   0.12   0.00    -0.12  -0.30  -0.00
                      7                      8                      9
                     SG                     SG                     SG
 Frequencies --    772.2309              1467.7754              1984.9998
 Red. masses --     13.1070                12.5548                12.3789
 Frc consts  --      4.6052                15.9360                28.7377
 IR Inten    --      4.6227                12.0168               393.5526
  Atom  AN      X      Y      Z        X      Y      Z        X      Y      Z
     1   6    -0.00   0.00   0.01    -0.00  -0.00   0.61    -0.00   0.00  -0.42
     2   6    -0.00  -0.00   0.39     0.00   0.00   0.39    -0.00  -0.00   0.70
     3   6     0.00  -0.00  -0.36    -0.00   0.00   0.08     0.00  -0.00  -0.40
     4   6     0.00   0.00   0.67    -0.00  -0.00  -0.58     0.00   0.00  -0.29
     5   8    -0.00   0.00  -0.53     0.00   0.00  -0.37    -0.00  -0.00   0.31
                     10
                     SG
 Frequencies --   2301.1555
 Red. masses --     12.3466
 Frc consts  --     38.5204
 IR Inten    --    838.4131
  Atom  AN      X      Y      Z
     1   6    -0.00   0.00  -0.55
     2   6    -0.00  -0.00   0.25
     3   6     0.00  -0.00   0.74
     4   6     0.00   0.00  -0.05
     5   8    -0.00  -0.00  -0.29

 -------------------
 - Thermochemistry -
 -------------------
 Temperature   298.150 Kelvin.  Pressure   1.00000 Atm.
 Atom     1 has atomic number  6 and mass  12.00000
 Atom     2 has atomic number  6 and mass  12.00000
 Atom     3 has atomic number  6 and mass  12.00000
 Atom     4 has atomic number  6 and mass  12.00000
 Atom     5 has atomic number  8 and mass  15.99491
 Molecular mass:    63.99491 amu.
 Principal axes and moments of inertia in atomic units:
                           1         2         3
     Eigenvalues --     0.00000 767.87790 767.87790
           X           -0.00000  -0.26092   0.96536
           Y            0.00000   0.96536   0.26092
           Z            1.00000  -0.00000   0.00000
 This molecule is a prolate symmetric top.
 Rotational symmetry number  1.
 Warning -- assumption of classical behavior for rotation
           may cause significant error
 Rotational temperature (Kelvin)      0.11280
 Rotational constant (GHZ):           2.350297
 Zero-point vibrational energy      51093.8 (Joules/Mol)
                                   12.21170 (Kcal/Mol)
 Warning -- explicit consideration of   6 degrees of freedom as
           vibrations may cause significant error
 Vibrational temperatures:    195.43   195.43   506.81   506.81   748.08
          (Kelvin)            748.08  1111.07  2111.80  2855.97  3310.85
 
 Zero-point correction=                           0.019461 (Hartree/Particle)
 Thermal correction to Energy=                    0.024388
 Thermal correction to Enthalpy=                  0.025332
 Thermal correction to Gibbs Free Energy=        -0.006843
 Sum of electronic and zero-point Energies=           -227.470476
 Sum of electronic and thermal Energies=              -227.465549
 Sum of electronic and thermal Enthalpies=            -227.464604
 Sum of electronic and thermal Free Energies=         -227.496780
 
                     E (Thermal)             CV                S
                      KCal/Mol        Cal/Mol-Kelvin    Cal/Mol-Kelvin
 Total                   15.304             15.154             67.719
 Electronic               0.000              0.000              2.183
 Translational            0.889              2.981             38.388
 Rotational               0.592              1.987             17.646
 Vibrational             13.822             10.186              9.502
 Vibration     1          0.614              1.918              2.862
 Vibration     2          0.614              1.918              2.862
 Vibration     3          0.729              1.571              1.156
 Vibration     4          0.729              1.571              1.156
 Vibration     5          0.875              1.206              0.610
 Vibration     6          0.875              1.206              0.610
                       Q            Log10(Q)             Ln(Q)
 Total Bot       0.140504D+04          3.147689          7.247821
 Total V=0       0.125579D+13         12.098917         27.858787
 Vib (Bot)       0.880551D-08         -8.055246        -18.547888
 Vib (Bot)    1  0.149861D+01          0.175690          0.404541
 Vib (Bot)    2  0.149861D+01          0.175690          0.404541
 Vib (Bot)    3  0.523009D+00         -0.281491         -0.648156
 Vib (Bot)    4  0.523009D+00         -0.281491         -0.648157
 Vib (Bot)    5  0.310463D+00         -0.507991         -1.169691
 Vib (Bot)    6  0.310463D+00         -0.507991         -1.169691
 Vib (V=0)       0.787015D+01          0.895983          2.063077
 Vib (V=0)    1  0.207982D+01          0.318027          0.732284
 Vib (V=0)    2  0.207982D+01          0.318027          0.732283
 Vib (V=0)    3  0.122356D+01          0.087625          0.201764
 Vib (V=0)    4  0.122356D+01          0.087625          0.201764
 Vib (V=0)    5  0.108855D+01          0.036847          0.084843
 Vib (V=0)    6  0.108855D+01          0.036847          0.084843
 Electronic      0.300000D+01          0.477121          1.098612
 Translational   0.201221D+08          7.303673         16.817330
 Rotational      0.264326D+04          3.422140          7.879768
 
                                                                 min
                                                             IR Spectrum
 
     2                 1                           1                                                                                 
     3                 9                           4                                      7             5        3           1       
     0                 8                           6                                      7             2        5           3       
     1                 5                           8                                      2             0        2           6       
 
     X                 X                           X                                      X             X        X           X       
     X                 X                                                                                                             
     X                 X                                                                                                             
     X                 X                                                                                                             
     X                 X                                                                                                             
     X                 X                                                                                                             
     X                 X                                                                                                             
     X                 X                                                                                                             
     X                 X                                                                                                             
     X                                                                                                                               
     X                                                                                                                               
     X                                                                                                                               
     X                                                                                                                               
     X                                                                                                                               
     X                                                                                                                               
     X                                                                                                                               
     X                                                                                                                               
     X                                                                                                                               
     X                                                                                                                               
     X                                                                                                                               
 
 ***** Axes restored to original set *****
 -------------------------------------------------------------------
 Center     Atomic                   Forces (Hartrees/Bohr)
 Number     Number              X              Y              Z
 -------------------------------------------------------------------
      1        6          -0.000220861    0.000202494   -0.000031384
      2        6           0.000179418   -0.000164497    0.000025495
      3        6          -0.000052965    0.000048561   -0.000007526
      4        6           0.000012713   -0.000011656    0.000001806
      5        8           0.000081695   -0.000074902    0.000011609
 -------------------------------------------------------------------
 Cartesian Forces:  Max     0.000220861 RMS     0.000106022
 Z-matrix is all fixed cartesians, so copy forces.
 Force constants in Cartesian coordinates: 
                1             2             3             4             5 
      1  0.742468D+00
      2 -0.646570D+00  0.630051D+00
      3  0.100210D+00 -0.918766D-01  0.514909D-01
      4 -0.334428D+00  0.287875D+00 -0.446170D-01  0.643999D+00
      5  0.287875D+00 -0.284376D+00  0.409065D-01 -0.557581D+00  0.547054D+00
      6 -0.446172D-01  0.409067D-01 -0.267809D-01  0.864183D-01 -0.792316D-01
      7 -0.346458D+00  0.283830D+00 -0.439902D-01 -0.332309D-01  0.251281D-01
      8  0.283830D+00 -0.297110D+00  0.403319D-01  0.251280D-01 -0.288619D-01
      9 -0.439901D-01  0.403318D-01 -0.431340D-01 -0.389470D-02  0.357081D-02
     10 -0.274544D-01  0.302393D-01 -0.468675D-02 -0.289657D+00  0.251600D+00
     11  0.302395D-01 -0.221969D-01  0.429701D-02  0.251600D+00 -0.245912D+00
     12 -0.468665D-02  0.429692D-02  0.486179D-02 -0.389951D-01  0.357522D-01
     13 -0.341275D-01  0.446249D-01 -0.691629D-02  0.133169D-01 -0.702248D-02
     14  0.446248D-01 -0.263686D-01  0.634111D-02 -0.702247D-02  0.120958D-01
     15 -0.691636D-02  0.634117D-02  0.135623D-01  0.108844D-02 -0.997912D-03
                6             7             8             9            10 
      6  0.481221D-01
      7 -0.389455D-02  0.897374D+00
      8  0.357065D-02 -0.743449D+00  0.768113D+00
      9 -0.637700D-02  0.115226D+00 -0.105643D+00  0.102864D+00
     10 -0.389950D-01  0.877676D-02 -0.598515D-02  0.927650D-03  0.313594D+00
     11  0.357521D-01 -0.598518D-02  0.773616D-02 -0.850501D-03 -0.280111D+00
     12 -0.207762D-01  0.927619D-03 -0.850470D-03  0.238054D-02  0.434138D-01
     13  0.108842D-02 -0.526461D+00  0.440476D+00 -0.682684D-01 -0.525978D-02
     14 -0.997885D-03  0.440476D+00 -0.449878D+00  0.625911D-01  0.425621D-02
     15  0.581203D-02 -0.682684D-01  0.625911D-01 -0.557333D-01 -0.659667D-03
               11            12            13            14            15 
     11  0.264892D+00
     12 -0.398034D-01  0.142451D-01
     13  0.425620D-02 -0.659678D-03  0.552532D+00
     14 -0.451974D-02  0.604811D-03 -0.482334D+00  0.468670D+00
     15  0.604804D-03 -0.711242D-03  0.747560D-01 -0.685392D-01  0.370702D-01
 Leave Link  716 at Sun Mar  4 21:13:55 2018, MaxMem=    33554432 cpu:         0.0
 (Enter /apl/tryton/gaussian/09/d01/g09/l103.exe)

 GradGradGradGradGradGradGradGradGradGradGradGradGradGradGradGradGradGrad
 Berny optimization.
 Search for a local minimum.
 Step number   1 out of a maximum of    2
 All quantities printed in internal units (Hartrees-Bohrs-Radians)
 Second derivative matrix not updated -- analytic derivatives used.
 The second derivative matrix:
                          X1        Y1        Z1        X2        Y2
           X1           0.74247
           Y1          -0.64657   0.63005
           Z1           0.10021  -0.09188   0.05149
           X2          -0.33443   0.28788  -0.04462   0.64400
           Y2           0.28787  -0.28438   0.04091  -0.55758   0.54705
           Z2          -0.04462   0.04091  -0.02678   0.08642  -0.07923
           X3          -0.34646   0.28383  -0.04399  -0.03323   0.02513
           Y3           0.28383  -0.29711   0.04033   0.02513  -0.02886
           Z3          -0.04399   0.04033  -0.04313  -0.00389   0.00357
           X4          -0.02745   0.03024  -0.00469  -0.28966   0.25160
           Y4           0.03024  -0.02220   0.00430   0.25160  -0.24591
           Z4          -0.00469   0.00430   0.00486  -0.03900   0.03575
           X5          -0.03413   0.04462  -0.00692   0.01332  -0.00702
           Y5           0.04462  -0.02637   0.00634  -0.00702   0.01210
           Z5          -0.00692   0.00634   0.01356   0.00109  -0.00100
                          Z2        X3        Y3        Z3        X4
           Z2           0.04812
           X3          -0.00389   0.89737
           Y3           0.00357  -0.74345   0.76811
           Z3          -0.00638   0.11523  -0.10564   0.10286
           X4          -0.03900   0.00878  -0.00599   0.00093   0.31359
           Y4           0.03575  -0.00599   0.00774  -0.00085  -0.28011
           Z4          -0.02078   0.00093  -0.00085   0.00238   0.04341
           X5           0.00109  -0.52646   0.44048  -0.06827  -0.00526
           Y5          -0.00100   0.44048  -0.44988   0.06259   0.00426
           Z5           0.00581  -0.06827   0.06259  -0.05573  -0.00066
                          Y4        Z4        X5        Y5        Z5
           Y4           0.26489
           Z4          -0.03980   0.01425
           X5           0.00426  -0.00066   0.55253
           Y5          -0.00452   0.00060  -0.48233   0.46867
           Z5           0.00060  -0.00071   0.07476  -0.06854   0.03707
 ITU=  0
     Eigenvalues ---    0.00885   0.00885   0.05676   0.05676   0.12819
     Eigenvalues ---    0.12819   0.29634   1.02892   1.85586   2.50869
 Angle between quadratic step and forces=  38.41 degrees.
 ClnCor:  largest displacement from symmetrization is 5.14D-09 for atom     1.
 Linear search not attempted -- first point.
 ClnCor:  largest displacement from symmetrization is 1.02D-15 for atom     5.
 TrRot= -0.000001  0.000001 -0.000000  0.000000  0.000000  0.000000
 Variable       Old X    -DE/DX   Delta X   Delta X   Delta X     New X
                                 (Linear)    (Quad)   (Total)
    X1       -0.24916  -0.00022   0.00000  -0.00014  -0.00014  -0.24930
    Y1       -0.01478   0.00020   0.00000   0.00013   0.00013  -0.01465
    Z1        0.02544  -0.00003   0.00000  -0.00002  -0.00002   0.02542
    X2       -2.02790   0.00018   0.00000   0.00013   0.00013  -2.02777
    Y2        1.61604  -0.00016   0.00000  -0.00012  -0.00012   1.61592
    Z2       -0.22731   0.00003   0.00000   0.00002   0.00002  -0.22729
    X3        1.52961  -0.00005   0.00000  -0.00010  -0.00010   1.52951
    Y3       -1.64562   0.00005   0.00000   0.00009   0.00009  -1.64553
    Z3        0.27820  -0.00001   0.00000  -0.00001  -0.00001   0.27819
    X4       -3.83946   0.00001   0.00000   0.00013   0.00013  -3.83933
    Y4        3.27695  -0.00001   0.00000  -0.00012  -0.00012   3.27683
    Z4       -0.48473   0.00000   0.00000   0.00002   0.00002  -0.48471
    X5        3.14248   0.00008   0.00000  -0.00002  -0.00002   3.14246
    Y5       -3.12437  -0.00007   0.00000   0.00002   0.00002  -3.12434
    Z5        0.50739   0.00001   0.00000  -0.00000  -0.00000   0.50739
         Item               Value     Threshold  Converged?
 Maximum Force            0.000221     0.000450     YES
 RMS     Force            0.000106     0.000300     YES
 Maximum Displacement     0.000144     0.001800     YES
 RMS     Displacement     0.000091     0.001200     YES
 Predicted change in Energy=-5.671313D-08
 Optimization completed.
    -- Stationary point found.
 GradGradGradGradGradGradGradGradGradGradGradGradGradGradGradGradGradGrad

 Leave Link  103 at Sun Mar  4 21:13:55 2018, MaxMem=    33554432 cpu:         0.0
 (Enter /apl/tryton/gaussian/09/d01/g09/l9999.exe)
 1\1\ CITASK-GV1538\Freq\UB3LYP\6-311++G(d,p)\C4O1(3)\EERD\04-Mar-2018\
 0\\#p b3lyp/6-311++g(d,p) freq\\min\\0,3\C,-0.1318498647,-0.0078205748
 ,0.0134644155\C,-1.0731194593,0.8551715142,-0.1202888747\C,0.809433889
 5,-0.8708256457,0.1472197178\C,-2.0317552591,1.7340856065,-0.256509882
 \O,1.6629297702,-1.6533434251,0.2685004676\\Version=ES64L-G09RevD.01\S
 tate=3-SG\HF=-227.4899366\S2=2.022192\S2-1=0.\S2A=2.000239\RMSD=8.934e
 -09\RMSF=1.060e-04\ZeroPoint=0.0194606\Thermal=0.024388\Dipole=0.74437
 59,-0.6824724,0.1057749\DipoleDeriv=-0.5992919,0.491879,-0.0762371,0.4
 918793,-0.5137719,0.0698973,-0.076236,0.0698961,-0.0736313,-0.3021106,
 0.5063038,-0.0784693,0.5063028,-0.2140799,0.0719432,-0.0784709,0.07194
 51,0.2389675,1.8237272,-1.3561156,0.2101817,-1.3561152,1.587944,-0.192
 7025,0.2101821,-0.1927029,0.3744723,0.2980142,-0.5858448,0.0907986,-0.
 5858444,0.1961551,-0.0832474,0.090799,-0.083248,-0.3280671,-1.2203389,
 0.9437777,-0.1462739,0.9437774,-1.0562473,0.1341095,-0.1462742,0.13410
 98,-0.2117414\Polar=73.4413014,-44.6594304,65.6765298,6.9216765,-6.346
 0591,25.7146165\PG=C*V [C*(O1C1C1C1C1)]\NImag=0\\0.74246805,-0.6465696
 3,0.63005080,0.10021026,-0.09187658,0.05149089,-0.33442795,0.28787512,
 -0.04461699,0.64399885,0.28787491,-0.28437554,0.04090652,-0.55758104,0
 .54705359,-0.04461718,0.04090670,-0.02678095,0.08641834,-0.07923157,0.
 04812210,-0.34645821,0.28383031,-0.04399022,-0.03323088,0.02512814,-0.
 00389455,0.89737382,0.28383046,-0.29710971,0.04033194,0.02512799,-0.02
 886193,0.00357065,-0.74344912,0.76811303,-0.04399007,0.04033179,-0.043
 13402,-0.00389470,0.00357081,-0.00637700,0.11522556,-0.10564321,0.1028
 6374,-0.02745438,0.03023933,-0.00468675,-0.28965691,0.25160047,-0.0389
 9502,0.00877676,-0.00598515,0.00092765,0.31359431,0.03023945,-0.022196
 93,0.00429701,0.25160039,-0.24591191,0.03575210,-0.00598518,0.00773616
 ,-0.00085050,-0.28011086,0.26489243,-0.00468665,0.00429692,0.00486179,
 -0.03899508,0.03575216,-0.02077619,0.00092762,-0.00085047,0.00238054,0
 .04341379,-0.03980342,0.01424510,-0.03412752,0.04462487,-0.00691629,0.
 01331689,-0.00702248,0.00108842,-0.52646150,0.44047582,-0.06826843,-0.
 00525978,0.00425620,-0.00065968,0.55253191,0.04462482,-0.02636862,0.00
 634111,-0.00702247,0.01209578,-0.00099788,0.44047585,-0.44987755,0.062
 59112,0.00425621,-0.00451974,0.00060481,-0.48233441,0.46867013,-0.0069
 1636,0.00634117,0.01356229,0.00108844,-0.00099791,0.00581203,-0.068268
 40,0.06259109,-0.05573326,-0.00065967,0.00060480,-0.00071124,0.0747559
 8,-0.06853915,0.03707018\\0.00022086,-0.00020249,0.00003138,-0.0001794
 2,0.00016450,-0.00002550,0.00005297,-0.00004856,0.00000753,-0.00001271
 ,0.00001166,-0.00000181,-0.00008170,0.00007490,-0.00001161\\\@


 IF THE FACTS DO NOT CONFORM TO THE THEORY, THEY MUST BE DISPOSED OF.
 Job cpu time:       0 days  0 hours  0 minutes 56.0 seconds.
 File lengths (MBytes):  RWF=     17 Int=      0 D2E=      0 Chk=      2 Scr=      1
 Normal termination of Gaussian 09 at Sun Mar  4 21:13:55 2018.
