 Entering Gaussian System, Link 0=g09
 Initial command:
 /apl/tryton/gaussian/09/d01/g09/l1.exe "/users/work/eerd/M3C-outputs/3/Gau-10777.inp" -scrdir="/users/work/eerd/M3C-outputs/3/"
 Entering Link 1 = /apl/tryton/gaussian/09/d01/g09/l1.exe PID=     10778.
  
 Copyright (c) 1988,1990,1992,1993,1995,1998,2003,2009,2013,
            Gaussian, Inc.  All Rights Reserved.
  
 This is part of the Gaussian(R) 09 program.  It is based on
 the Gaussian(R) 03 system (copyright 2003, Gaussian, Inc.),
 the Gaussian(R) 98 system (copyright 1998, Gaussian, Inc.),
 the Gaussian(R) 94 system (copyright 1995, Gaussian, Inc.),
 the Gaussian 92(TM) system (copyright 1992, Gaussian, Inc.),
 the Gaussian 90(TM) system (copyright 1990, Gaussian, Inc.),
 the Gaussian 88(TM) system (copyright 1988, Gaussian, Inc.),
 the Gaussian 86(TM) system (copyright 1986, Carnegie Mellon
 University), and the Gaussian 82(TM) system (copyright 1983,
 Carnegie Mellon University). Gaussian is a federally registered
 trademark of Gaussian, Inc.
  
 This software contains proprietary and confidential information,
 including trade secrets, belonging to Gaussian, Inc.
  
 This software is provided under written license and may be
 used, copied, transmitted, or stored only in accord with that
 written license.
  
 The following legend is applicable only to US Government
 contracts under FAR:
  
                    RESTRICTED RIGHTS LEGEND
  
 Use, reproduction and disclosure by the US Government is
 subject to restrictions as set forth in subparagraphs (a)
 and (c) of the Commercial Computer Software - Restricted
 Rights clause in FAR 52.227-19.
  
 Gaussian, Inc.
 340 Quinnipiac St., Bldg. 40, Wallingford CT 06492
  
  
 ---------------------------------------------------------------
 Warning -- This program may not be used in any manner that
 competes with the business of Gaussian, Inc. or will provide
 assistance to any competitor of Gaussian, Inc.  The licensee
 of this program is prohibited from giving any competitor of
 Gaussian, Inc. access to this program.  By using this program,
 the user acknowledges that Gaussian, Inc. is engaged in the
 business of creating and licensing software in the field of
 computational chemistry and represents and warrants to the
 licensee that it is not a competitor of Gaussian, Inc. and that
 it will not use this program in any manner prohibited above.
 ---------------------------------------------------------------
  

 Cite this work as:
 Gaussian 09, Revision D.01,
 M. J. Frisch, G. W. Trucks, H. B. Schlegel, G. E. Scuseria, 
 M. A. Robb, J. R. Cheeseman, G. Scalmani, V. Barone, B. Mennucci, 
 G. A. Petersson, H. Nakatsuji, M. Caricato, X. Li, H. P. Hratchian, 
 A. F. Izmaylov, J. Bloino, G. Zheng, J. L. Sonnenberg, M. Hada, 
 M. Ehara, K. Toyota, R. Fukuda, J. Hasegawa, M. Ishida, T. Nakajima, 
 Y. Honda, O. Kitao, H. Nakai, T. Vreven, J. A. Montgomery, Jr., 
 J. E. Peralta, F. Ogliaro, M. Bearpark, J. J. Heyd, E. Brothers, 
 K. N. Kudin, V. N. Staroverov, T. Keith, R. Kobayashi, J. Normand, 
 K. Raghavachari, A. Rendell, J. C. Burant, S. S. Iyengar, J. Tomasi, 
 M. Cossi, N. Rega, J. M. Millam, M. Klene, J. E. Knox, J. B. Cross, 
 V. Bakken, C. Adamo, J. Jaramillo, R. Gomperts, R. E. Stratmann, 
 O. Yazyev, A. J. Austin, R. Cammi, C. Pomelli, J. W. Ochterski, 
 R. L. Martin, K. Morokuma, V. G. Zakrzewski, G. A. Voth, 
 P. Salvador, J. J. Dannenberg, S. Dapprich, A. D. Daniels, 
 O. Farkas, J. B. Foresman, J. V. Ortiz, J. Cioslowski, 
 and D. J. Fox, Gaussian, Inc., Wallingford CT, 2013.
 
 ******************************************
 Gaussian 09:  ES64L-G09RevD.01 24-Apr-2013
                 4-Mar-2018 
 ******************************************
 ---------------------------
 #p b3lyp/6-311++g(d,p) freq
 ---------------------------
 1/10=4,30=1,38=1/1,3;
 2/12=2,17=6,18=5,40=1/2;
 3/5=4,6=6,7=1111,11=2,16=1,25=1,30=1,71=2,74=-5,140=1/1,2,3;
 4//1;
 5/5=2,38=5,98=1/2;
 8/6=4,10=90,11=11/1;
 11/6=1,8=1,9=11,15=111,16=1/1,2,10;
 10/6=1/2;
 6/7=2,8=2,9=2,10=2,18=1,28=1/1;
 7/8=1,10=1,25=1/1,2,3,16;
 1/10=4,30=1/3;
 99//99;
 Leave Link    1 at Sun Mar  4 20:55:19 2018, MaxMem=           0 cpu:         0.0
 (Enter /apl/tryton/gaussian/09/d01/g09/l101.exe)
 ---
 min
 ---
 Symbolic Z-matrix:
 Charge =  0 Multiplicity = 3
 C                    -0.11209  -0.02217   0. 
 H                     0.64243   0.7503    0. 
 H                    -1.19174  -0.04178   0. 
 
 NAtoms=      3 NQM=        3 NQMF=       0 NMMI=      0 NMMIF=      0
                NMic=       0 NMicF=      0.
                    Isotopes and Nuclear Properties:
 (Nuclear quadrupole moments (NQMom) in fm**2, nuclear magnetic moments (NMagM)
  in nuclear magnetons)

  Atom         1           2           3
 IAtWgt=          12           1           1
 AtmWgt=  12.0000000   1.0078250   1.0078250
 NucSpn=           0           1           1
 AtZEff=   0.0000000   0.0000000   0.0000000
 NQMom=    0.0000000   0.0000000   0.0000000
 NMagM=    0.0000000   2.7928460   2.7928460
 AtZNuc=   6.0000000   1.0000000   1.0000000
 Leave Link  101 at Sun Mar  4 20:55:19 2018, MaxMem=    33554432 cpu:         0.1
 (Enter /apl/tryton/gaussian/09/d01/g09/l103.exe)

 GradGradGradGradGradGradGradGradGradGradGradGradGradGradGradGradGradGrad
 Berny optimization.
 Initialization pass.
 Trust Radius=3.00D-01 FncErr=1.00D-07 GrdErr=1.00D-07
 Number of steps in this run=      2 maximum allowed number of steps=      2.
 GradGradGradGradGradGradGradGradGradGradGradGradGradGradGradGradGradGrad

 Leave Link  103 at Sun Mar  4 20:55:19 2018, MaxMem=    33554432 cpu:         0.0
 (Enter /apl/tryton/gaussian/09/d01/g09/l202.exe)
                          Input orientation:                          
 ---------------------------------------------------------------------
 Center     Atomic      Atomic             Coordinates (Angstroms)
 Number     Number       Type             X           Y           Z
 ---------------------------------------------------------------------
      1          6           0       -0.112091   -0.022174    0.000000
      2          1           0        0.642433    0.750298    0.000000
      3          1           0       -1.191737   -0.041780    0.000000
 ---------------------------------------------------------------------
                    Distance matrix (angstroms):
                    1          2          3
     1  C    0.000000
     2  H    1.079825   0.000000
     3  H    1.079825   1.997892   0.000000
 Stoichiometry    CH2(3)
 Framework group  C2V[C2(C),SGV(H2)]
 Deg. of freedom     2
 Full point group                 C2V     NOp   4
 Largest Abelian subgroup         C2V     NOp   4
 Largest concise Abelian subgroup C2      NOp   2
                         Standard orientation:                         
 ---------------------------------------------------------------------
 Center     Atomic      Atomic             Coordinates (Angstroms)
 Number     Number       Type             X           Y           Z
 ---------------------------------------------------------------------
      1          6           0        0.000000    0.000000    0.102509
      2          1           0       -0.000000    0.998946   -0.307526
      3          1           0       -0.000000   -0.998946   -0.307526
 ---------------------------------------------------------------------
 Rotational constants (GHZ):   1741.7840715    251.2569290    219.5816928
 Leave Link  202 at Sun Mar  4 20:55:19 2018, MaxMem=    33554432 cpu:         0.0
 (Enter /apl/tryton/gaussian/09/d01/g09/l301.exe)
 Standard basis: 6-311++G(d,p) (5D, 7F)
 Ernie: Thresh=  0.10000D-02 Tol=  0.10000D-05 Strict=F.
 There are    18 symmetry adapted cartesian basis functions of A1  symmetry.
 There are     2 symmetry adapted cartesian basis functions of A2  symmetry.
 There are     6 symmetry adapted cartesian basis functions of B1  symmetry.
 There are    11 symmetry adapted cartesian basis functions of B2  symmetry.
 There are    17 symmetry adapted basis functions of A1  symmetry.
 There are     2 symmetry adapted basis functions of A2  symmetry.
 There are     6 symmetry adapted basis functions of B1  symmetry.
 There are    11 symmetry adapted basis functions of B2  symmetry.
    36 basis functions,    54 primitive gaussians,    37 cartesian basis functions
     5 alpha electrons        3 beta electrons
       nuclear repulsion energy         6.1455701324 Hartrees.
 IExCor=  402 DFT=T Ex+Corr=B3LYP ExCW=0 ScaHFX=  0.200000
 ScaDFX=  0.800000  0.720000  1.000000  0.810000 ScalE2=  1.000000  1.000000
 IRadAn=      0 IRanWt=     -1 IRanGd=            0 ICorTp=0 IEmpDi=  4
 NAtoms=    3 NActive=    3 NUniq=    2 SFac= 2.25D+00 NAtFMM=   60 NAOKFM=F Big=F
 Integral buffers will be    131072 words long.
 Raffenetti 2 integral format.
 Two-electron integral symmetry is turned on.
 Leave Link  301 at Sun Mar  4 20:55:19 2018, MaxMem=    33554432 cpu:         0.0
 (Enter /apl/tryton/gaussian/09/d01/g09/l302.exe)
 NPDir=0 NMtPBC=     1 NCelOv=     1 NCel=       1 NClECP=     1 NCelD=      1
         NCelK=      1 NCelE2=     1 NClLst=     1 CellRange=     0.0.
 One-electron integrals computed using PRISM.
 One-electron integral symmetry used in STVInt
 NBasis=    36 RedAO= T EigKep=  7.30D-03  NBF=    17     2     6    11
 NBsUse=    36 1.00D-06 EigRej= -1.00D+00 NBFU=    17     2     6    11
 Precomputing XC quadrature grid using
 IXCGrd= 4 IRadAn=           0 IRanWt=          -1 IRanGd=           0 AccXCQ= 0.00D+00.
 Generated NRdTot=       0 NPtTot=           0 NUsed=           0 NTot=          32
 NSgBfM=    37    37    37    37    37 MxSgAt=     3 MxSgA2=     3.
 Leave Link  302 at Sun Mar  4 20:55:19 2018, MaxMem=    33554432 cpu:         0.1
 (Enter /apl/tryton/gaussian/09/d01/g09/l303.exe)
 DipDrv:  MaxL=1.
 Leave Link  303 at Sun Mar  4 20:55:19 2018, MaxMem=    33554432 cpu:         0.0
 (Enter /apl/tryton/gaussian/09/d01/g09/l401.exe)
 ExpMin= 3.60D-02 ExpMax= 4.56D+03 ExpMxC= 6.82D+02 IAcc=3 IRadAn=         5 AccDes= 0.00D+00
 Harris functional with IExCor=  402 and IRadAn=       5 diagonalized for initial guess.
 HarFok:  IExCor=  402 AccDes= 0.00D+00 IRadAn=         5 IDoV= 1 UseB2=F ITyADJ=14
 ICtDFT=  3500011 ScaDFX=  1.000000  1.000000  1.000000  1.000000
 FoFCou: FMM=F IPFlag=           0 FMFlag=      100000 FMFlg1=           0
         NFxFlg=           0 DoJE=T BraDBF=F KetDBF=T FulRan=T
         wScrn=  0.000000 ICntrl=     500 IOpCl=  0 I1Cent=   200000004 NGrid=           0
         NMat0=    1 NMatS0=      1 NMatT0=    0 NMatD0=    1 NMtDS0=    0 NMtDT0=    0
 Petite list used in FoFCou.
 Harris En= -39.1078142504160    
 JPrj=0 DoOrth=F DoCkMO=F.
 Initial guess orbital symmetries:
 Alpha Orbitals:
       Occupied  (A1) (A1) (B2) (A1) (B1)
       Virtual   (A1) (B2) (A1) (B1) (A1) (B2) (A1) (B2) (A1) (B2)
                 (B1) (A1) (B2) (A1) (A2) (A1) (B1) (B2) (A1) (B1)
                 (B2) (A1) (A2) (B2) (B2) (A1) (A1) (B1) (A1) (B2)
                 (A1)
 Beta  Orbitals:
       Occupied  (A1) (A1) (B2)
       Virtual   (A1) (B1) (A1) (B2) (A1) (B1) (A1) (B2) (A1) (B2)
                 (A1) (B2) (B1) (A1) (B2) (A1) (A2) (A1) (B1) (B2)
                 (A1) (B1) (B2) (A1) (A2) (B2) (B2) (A1) (A1) (B1)
                 (A1) (B2) (A1)
 The electronic state of the initial guess is 3-B1.
 Initial guess <Sx>= 0.0000 <Sy>= 0.0000 <Sz>= 1.0000 <S**2>= 2.0000 S= 1.0000
 Leave Link  401 at Sun Mar  4 20:55:20 2018, MaxMem=    33554432 cpu:         0.2
 (Enter /apl/tryton/gaussian/09/d01/g09/l502.exe)
 UHF open shell SCF:
 Using DIIS extrapolation, IDIIS=  1040.
 Integral symmetry usage will be decided dynamically.
 Keep R1 and R2 ints in memory in symmetry-blocked form, NReq=1108108.
 IVT=       23255 IEndB=       23255 NGot=    33554432 MDV=    33404118
 LenX=    33404118 LenY=    33402308
 Requested convergence on RMS density matrix=1.00D-08 within 128 cycles.
 Requested convergence on MAX density matrix=1.00D-06.
 Requested convergence on             energy=1.00D-06.
 No special actions if energy rises.
 FoFCou: FMM=F IPFlag=           0 FMFlag=           0 FMFlg1=           0
         NFxFlg=           0 DoJE=F BraDBF=F KetDBF=F FulRan=T
         wScrn=  0.000000 ICntrl=     600 IOpCl=  0 I1Cent=           0 NGrid=           0
         NMat0=    1 NMatS0=    666 NMatT0=    0 NMatD0=    1 NMtDS0=    0 NMtDT0=    0
 Petite list used in FoFCou.

 Cycle   1  Pass 1  IDiag  1:
 E= -39.1483254377266    
 DIIS: error= 3.20D-02 at cycle   1 NSaved=   1.
 NSaved= 1 IEnMin= 1 EnMin= -39.1483254377266     IErMin= 1 ErrMin= 3.20D-02
 ErrMax= 3.20D-02  0.00D+00 EMaxC= 1.00D-01 BMatC= 6.61D-02 BMatP= 6.61D-02
 IDIUse=3 WtCom= 6.80D-01 WtEn= 3.20D-01
 Coeff-Com:  0.100D+01
 Coeff-En:   0.100D+01
 Coeff:      0.100D+01
 Gap=     0.208 Goal=   None    Shift=    0.000
 Gap=     0.359 Goal=   None    Shift=    0.000
 GapD=    0.208 DampG=1.000 DampE=0.500 DampFc=0.5000 IDamp=-1.
 Damping current iteration by 5.00D-01
 RMSDP=4.47D-03 MaxDP=9.42D-02              OVMax= 9.56D-02

 Cycle   2  Pass 1  IDiag  1:
 E= -39.1570752439631     Delta-E=       -0.008749806236 Rises=F Damp=T
 DIIS: error= 7.93D-03 at cycle   2 NSaved=   2.
 NSaved= 2 IEnMin= 2 EnMin= -39.1570752439631     IErMin= 2 ErrMin= 7.93D-03
 ErrMax= 7.93D-03  0.00D+00 EMaxC= 1.00D-01 BMatC= 5.66D-03 BMatP= 6.61D-02
 IDIUse=3 WtCom= 9.21D-01 WtEn= 7.93D-02
 Coeff-Com: -0.145D+00 0.115D+01
 Coeff-En:   0.000D+00 0.100D+01
 Coeff:     -0.134D+00 0.113D+01
 Gap=     0.251 Goal=   None    Shift=    0.000
 Gap=     0.344 Goal=   None    Shift=    0.000
 RMSDP=1.09D-03 MaxDP=1.48D-02 DE=-8.75D-03 OVMax= 5.89D-02

 Cycle   3  Pass 1  IDiag  1:
 E= -39.1658845572777     Delta-E=       -0.008809313315 Rises=F Damp=F
 DIIS: error= 3.60D-03 at cycle   3 NSaved=   3.
 NSaved= 3 IEnMin= 3 EnMin= -39.1658845572777     IErMin= 3 ErrMin= 3.60D-03
 ErrMax= 3.60D-03  0.00D+00 EMaxC= 1.00D-01 BMatC= 6.62D-04 BMatP= 5.66D-03
 IDIUse=3 WtCom= 9.64D-01 WtEn= 3.60D-02
 Coeff-Com: -0.106D+00 0.173D+00 0.933D+00
 Coeff-En:   0.000D+00 0.000D+00 0.100D+01
 Coeff:     -0.102D+00 0.166D+00 0.936D+00
 Gap=     0.248 Goal=   None    Shift=    0.000
 Gap=     0.347 Goal=   None    Shift=    0.000
 RMSDP=3.22D-04 MaxDP=8.07D-03 DE=-8.81D-03 OVMax= 1.05D-02

 Cycle   4  Pass 1  IDiag  1:
 E= -39.1661074864031     Delta-E=       -0.000222929125 Rises=F Damp=F
 DIIS: error= 6.55D-04 at cycle   4 NSaved=   4.
 NSaved= 4 IEnMin= 4 EnMin= -39.1661074864031     IErMin= 4 ErrMin= 6.55D-04
 ErrMax= 6.55D-04  0.00D+00 EMaxC= 1.00D-01 BMatC= 1.88D-05 BMatP= 6.62D-04
 IDIUse=3 WtCom= 9.93D-01 WtEn= 6.55D-03
 Coeff-Com:  0.109D-02-0.348D-01 0.195D-01 0.101D+01
 Coeff-En:   0.000D+00 0.000D+00 0.000D+00 0.100D+01
 Coeff:      0.108D-02-0.346D-01 0.193D-01 0.101D+01
 Gap=     0.249 Goal=   None    Shift=    0.000
 Gap=     0.347 Goal=   None    Shift=    0.000
 RMSDP=7.72D-05 MaxDP=1.27D-03 DE=-2.23D-04 OVMax= 1.67D-03

 Cycle   5  Pass 1  IDiag  1:
 E= -39.1661168001179     Delta-E=       -0.000009313715 Rises=F Damp=F
 DIIS: error= 1.55D-04 at cycle   5 NSaved=   5.
 NSaved= 5 IEnMin= 5 EnMin= -39.1661168001179     IErMin= 5 ErrMin= 1.55D-04
 ErrMax= 1.55D-04  0.00D+00 EMaxC= 1.00D-01 BMatC= 1.23D-06 BMatP= 1.88D-05
 IDIUse=3 WtCom= 9.98D-01 WtEn= 1.55D-03
 Coeff-Com:  0.838D-02-0.146D-01-0.712D-01 0.615D-01 0.102D+01
 Coeff-En:   0.000D+00 0.000D+00 0.000D+00 0.000D+00 0.100D+01
 Coeff:      0.836D-02-0.146D-01-0.711D-01 0.614D-01 0.102D+01
 Gap=     0.249 Goal=   None    Shift=    0.000
 Gap=     0.347 Goal=   None    Shift=    0.000
 RMSDP=2.32D-05 MaxDP=4.03D-04 DE=-9.31D-06 OVMax= 6.71D-04

 Cycle   6  Pass 1  IDiag  1:
 E= -39.1661175149461     Delta-E=       -0.000000714828 Rises=F Damp=F
 DIIS: error= 2.67D-05 at cycle   6 NSaved=   6.
 NSaved= 6 IEnMin= 6 EnMin= -39.1661175149461     IErMin= 6 ErrMin= 2.67D-05
 ErrMax= 2.67D-05  0.00D+00 EMaxC= 1.00D-01 BMatC= 4.09D-08 BMatP= 1.23D-06
 IDIUse=1 WtCom= 1.00D+00 WtEn= 0.00D+00
 Coeff-Com: -0.356D-03 0.240D-02 0.351D-02-0.484D-01-0.554D-01 0.110D+01
 Coeff:     -0.356D-03 0.240D-02 0.351D-02-0.484D-01-0.554D-01 0.110D+01
 Gap=     0.249 Goal=   None    Shift=    0.000
 Gap=     0.347 Goal=   None    Shift=    0.000
 RMSDP=4.53D-06 MaxDP=3.63D-05 DE=-7.15D-07 OVMax= 1.19D-04

 Cycle   7  Pass 1  IDiag  1:
 E= -39.1661175369103     Delta-E=       -0.000000021964 Rises=F Damp=F
 DIIS: error= 3.82D-06 at cycle   7 NSaved=   7.
 NSaved= 7 IEnMin= 7 EnMin= -39.1661175369103     IErMin= 7 ErrMin= 3.82D-06
 ErrMax= 3.82D-06  0.00D+00 EMaxC= 1.00D-01 BMatC= 7.90D-10 BMatP= 4.09D-08
 IDIUse=1 WtCom= 1.00D+00 WtEn= 0.00D+00
 Coeff-Com: -0.269D-03 0.361D-03 0.168D-02 0.113D-02-0.260D-01-0.617D-01
 Coeff-Com:  0.108D+01
 Coeff:     -0.269D-03 0.361D-03 0.168D-02 0.113D-02-0.260D-01-0.617D-01
 Coeff:      0.108D+01
 Gap=     0.249 Goal=   None    Shift=    0.000
 Gap=     0.347 Goal=   None    Shift=    0.000
 RMSDP=7.91D-07 MaxDP=8.22D-06 DE=-2.20D-08 OVMax= 1.76D-05

 Cycle   8  Pass 1  IDiag  1:
 E= -39.1661175374334     Delta-E=       -0.000000000523 Rises=F Damp=F
 DIIS: error= 4.81D-07 at cycle   8 NSaved=   8.
 NSaved= 8 IEnMin= 8 EnMin= -39.1661175374334     IErMin= 8 ErrMin= 4.81D-07
 ErrMax= 4.81D-07  0.00D+00 EMaxC= 1.00D-01 BMatC= 1.68D-11 BMatP= 7.90D-10
 IDIUse=1 WtCom= 1.00D+00 WtEn= 0.00D+00
 Coeff-Com:  0.661D-04-0.114D-03-0.395D-03 0.586D-03 0.447D-02 0.199D-02
 Coeff-Com: -0.237D+00 0.123D+01
 Coeff:      0.661D-04-0.114D-03-0.395D-03 0.586D-03 0.447D-02 0.199D-02
 Coeff:     -0.237D+00 0.123D+01
 Gap=     0.249 Goal=   None    Shift=    0.000
 Gap=     0.347 Goal=   None    Shift=    0.000
 RMSDP=1.32D-07 MaxDP=1.54D-06 DE=-5.23D-10 OVMax= 3.45D-06

 Cycle   9  Pass 1  IDiag  1:
 E= -39.1661175374462     Delta-E=       -0.000000000013 Rises=F Damp=F
 DIIS: error= 6.79D-08 at cycle   9 NSaved=   9.
 NSaved= 9 IEnMin= 9 EnMin= -39.1661175374462     IErMin= 9 ErrMin= 6.79D-08
 ErrMax= 6.79D-08  0.00D+00 EMaxC= 1.00D-01 BMatC= 3.19D-13 BMatP= 1.68D-11
 IDIUse=1 WtCom= 1.00D+00 WtEn= 0.00D+00
 Coeff-Com: -0.695D-05 0.136D-04 0.252D-04-0.728D-04-0.294D-03 0.443D-03
 Coeff-Com:  0.232D-01-0.231D+00 0.121D+01
 Coeff:     -0.695D-05 0.136D-04 0.252D-04-0.728D-04-0.294D-03 0.443D-03
 Coeff:      0.232D-01-0.231D+00 0.121D+01
 Gap=     0.249 Goal=   None    Shift=    0.000
 Gap=     0.347 Goal=   None    Shift=    0.000
 RMSDP=1.29D-08 MaxDP=1.29D-07 DE=-1.28D-11 OVMax= 4.13D-07

 Cycle  10  Pass 1  IDiag  1:
 E= -39.1661175374464     Delta-E=       -0.000000000000 Rises=F Damp=F
 DIIS: error= 3.99D-09 at cycle  10 NSaved=  10.
 NSaved=10 IEnMin=10 EnMin= -39.1661175374464     IErMin=10 ErrMin= 3.99D-09
 ErrMax= 3.99D-09  0.00D+00 EMaxC= 1.00D-01 BMatC= 8.06D-16 BMatP= 3.19D-13
 IDIUse=1 WtCom= 1.00D+00 WtEn= 0.00D+00
 Coeff-Com:  0.300D-06-0.628D-06 0.338D-06 0.236D-05-0.974D-06 0.253D-04
 Coeff-Com: -0.789D-03 0.136D-01-0.989D-01 0.109D+01
 Coeff:      0.300D-06-0.628D-06 0.338D-06 0.236D-05-0.974D-06 0.253D-04
 Coeff:     -0.789D-03 0.136D-01-0.989D-01 0.109D+01
 Gap=     0.249 Goal=   None    Shift=    0.000
 Gap=     0.347 Goal=   None    Shift=    0.000
 RMSDP=7.84D-10 MaxDP=9.27D-09 DE=-1.63D-13 OVMax= 1.50D-08

 SCF Done:  E(UB3LYP) =  -39.1661175374     A.U. after   10 cycles
            NFock= 10  Conv=0.78D-09     -V/T= 2.0045
 <Sx>= 0.0000 <Sy>= 0.0000 <Sz>= 1.0000 <S**2>= 2.0053 S= 1.0018
 <L.S>= 0.000000000000E+00
 KE= 3.899221451590D+01 PE=-1.029321573208D+02 EE= 1.862825513505D+01
 Annihilation of the first spin contaminant:
 S**2 before annihilation     2.0053,   after     2.0000
 Leave Link  502 at Sun Mar  4 20:55:20 2018, MaxMem=    33554432 cpu:         0.7
 (Enter /apl/tryton/gaussian/09/d01/g09/l801.exe)
 DoSCS=F DFT=T ScalE2(SS,OS)=  1.000000  1.000000
 Range of M.O.s used for correlation:     1    36
 NBasis=    36 NAE=     5 NBE=     3 NFC=     0 NFV=     0
 NROrb=     36 NOA=     5 NOB=     3 NVA=    31 NVB=    33
 Leave Link  801 at Sun Mar  4 20:55:20 2018, MaxMem=    33554432 cpu:         0.0
 (Enter /apl/tryton/gaussian/09/d01/g09/l1101.exe)
 Using compressed storage, NAtomX=     3.
 Will process      4 centers per pass.
 Leave Link 1101 at Sun Mar  4 20:55:21 2018, MaxMem=    33554432 cpu:         0.1
 (Enter /apl/tryton/gaussian/09/d01/g09/l1102.exe)
 Symmetrizing basis deriv contribution to polar:
 IMax=3 JMax=2 DiffMx= 0.00D+00
 Leave Link 1102 at Sun Mar  4 20:55:21 2018, MaxMem=    33554432 cpu:         0.0
 (Enter /apl/tryton/gaussian/09/d01/g09/l1110.exe)
 Forming Gx(P) for the SCF density, NAtomX=     3.
 Integral derivatives from FoFJK, PRISM(SPDF).
 Do as many integral derivatives as possible in FoFJK.
 G2DrvN: MDV=      33554304.
 G2DrvN: will do     4 centers at a time, making    1 passes.
 Calling FoFCou, ICntrl=  3107 FMM=F I1Cent=   0 AccDes= 0.00D+00.
 FoFJK:  IHMeth= 1 ICntrl=    3107 DoSepK=F KAlg= 0 I1Cent=   0 FoldK=F
 IRaf=         0 NMat=   1 IRICut=       1 DoRegI=T DoRafI=F ISym2E= 1.
 FoFCou: FMM=F IPFlag=           0 FMFlag=      100000 FMFlg1=           0
         NFxFlg=           0 DoJE=F BraDBF=F KetDBF=F FulRan=T
         wScrn=  0.000000 ICntrl=    3107 IOpCl=  1 I1Cent=           0 NGrid=           0
         NMat0=    1 NMatS0=      1 NMatT0=    0 NMatD0=    1 NMtDS0=    0 NMtDT0=    0
 Petite list used in FoFCou.
 End of G2Drv F.D. properties file   721 does not exist.
 End of G2Drv F.D. properties file   722 does not exist.
 End of G2Drv F.D. properties file   788 does not exist.
 Leave Link 1110 at Sun Mar  4 20:55:21 2018, MaxMem=    33554432 cpu:         0.5
 (Enter /apl/tryton/gaussian/09/d01/g09/l1002.exe)
 Minotr:  UHF open shell wavefunction.
          IDoAtm=111
          Direct CPHF calculation.
          Differentiating once with respect to electric field.
                with respect to dipole field.
          Differentiating once with respect to nuclear coordinates.
          Using symmetry in CPHF.
          Requested convergence is 1.0D-08 RMS, and 1.0D-07 maximum.
          Secondary convergence is 1.0D-12 RMS, and 1.0D-12 maximum.
          NewPWx=T KeepS1=F KeepF1=F KeepIn=T MapXYZ=F SortEE=F KeepMc=T.
          MDV=      33554326 using IRadAn=       2.
 Generate precomputed XC quadrature information.
 Keep R1 and R2 ints in memory in symmetry-blocked form, NReq=1084570.
 FoFCou: FMM=F IPFlag=           0 FMFlag=           0 FMFlg1=           0
         NFxFlg=           0 DoJE=F BraDBF=F KetDBF=F FulRan=T
         wScrn=  0.000000 ICntrl=     600 IOpCl=  0 I1Cent=           0 NGrid=           0
         NMat0=    1 NMatS0=    666 NMatT0=    0 NMatD0=    1 NMtDS0=    0 NMtDT0=    0
 Petite list used in FoFCou.
          Solving linear equations simultaneously, MaxMat=       0.
          There are     9 degrees of freedom in the 1st order CPHF.  IDoFFX=4 NUNeed=     9.
      9 vectors produced by pass  0 Test12= 2.82D-15 1.11D-08 XBig12= 1.39D+01 2.20D+00.
 AX will form     9 AO Fock derivatives at one time.
      9 vectors produced by pass  1 Test12= 2.82D-15 1.11D-08 XBig12= 8.22D-01 4.61D-01.
      9 vectors produced by pass  2 Test12= 2.82D-15 1.11D-08 XBig12= 9.07D-03 3.96D-02.
      9 vectors produced by pass  3 Test12= 2.82D-15 1.11D-08 XBig12= 5.55D-05 3.13D-03.
      9 vectors produced by pass  4 Test12= 2.82D-15 1.11D-08 XBig12= 3.64D-07 2.33D-04.
      9 vectors produced by pass  5 Test12= 2.82D-15 1.11D-08 XBig12= 8.18D-10 9.17D-06.
      4 vectors produced by pass  6 Test12= 2.82D-15 1.11D-08 XBig12= 3.13D-12 3.91D-07.
      1 vectors produced by pass  7 Test12= 2.82D-15 1.11D-08 XBig12= 3.72D-15 2.07D-08.
 InvSVY:  IOpt=1 It=  1 EMax= 4.44D-16
 Solved reduced A of dimension    59 with     9 vectors.
 FullF1:  Do perturbations    1 to     9.
 Isotropic polarizability for W=    0.000000       11.13 Bohr**3.
 End of Minotr F.D. properties file   721 does not exist.
 End of Minotr F.D. properties file   722 does not exist.
 End of Minotr F.D. properties file   788 does not exist.
 Leave Link 1002 at Sun Mar  4 20:55:23 2018, MaxMem=    33554432 cpu:         2.2
 (Enter /apl/tryton/gaussian/09/d01/g09/l601.exe)
 Copying SCF densities to generalized density rwf, IOpCl= 1 IROHF=0.

 **********************************************************************

            Population analysis using the SCF density.

 **********************************************************************

 Orbital symmetries:
 Alpha Orbitals:
       Occupied  (A1) (A1) (B2) (A1) (B1)
       Virtual   (A1) (B2) (A1) (B1) (A1) (B2) (A1) (B2) (A1) (B2)
                 (B1) (A1) (B2) (A1) (A2) (A1) (B1) (B2) (A1) (B1)
                 (B2) (A1) (A2) (B2) (B2) (A1) (A1) (B1) (A1) (B2)
                 (A1)
 Beta  Orbitals:
       Occupied  (A1) (A1) (B2)
       Virtual   (A1) (B1) (A1) (B2) (A1) (B1) (B2) (A1) (A1) (B2)
                 (A1) (B2) (B1) (A1) (B2) (A1) (A2) (A1) (B1) (B2)
                 (A1) (B1) (B2) (A1) (A2) (B2) (B2) (A1) (A1) (B1)
                 (A1) (B2) (A1)
 The electronic state is 3-B1.
 Alpha  occ. eigenvalues --  -10.21853  -0.68432  -0.46326  -0.28333  -0.24993
 Alpha virt. eigenvalues --   -0.00130   0.03160   0.06826   0.07084   0.10468
 Alpha virt. eigenvalues --    0.11314   0.13860   0.18783   0.41794   0.47993
 Alpha virt. eigenvalues --    0.52381   0.53168   0.64536   0.74390   1.00449
 Alpha virt. eigenvalues --    1.17580   1.19786   1.28871   1.47724   1.66904
 Alpha virt. eigenvalues --    1.78940   1.86928   2.00646   2.36694   2.49953
 Alpha virt. eigenvalues --    2.54391   2.63322   2.67934   2.88628   3.62875
 Alpha virt. eigenvalues --   23.76836
  Beta  occ. eigenvalues --  -10.18956  -0.60905  -0.44250
  Beta virt. eigenvalues --   -0.09525  -0.07222   0.00320   0.03163   0.08718
  Beta virt. eigenvalues --    0.09567   0.11484   0.11814   0.15290   0.19918
  Beta virt. eigenvalues --    0.43486   0.49921   0.59356   0.59679   0.66517
  Beta virt. eigenvalues --    0.79121   1.04257   1.25960   1.29546   1.30503
  Beta virt. eigenvalues --    1.54425   1.71146   1.82779   1.89404   2.05379
  Beta virt. eigenvalues --    2.37946   2.51546   2.55501   2.68476   2.76719
  Beta virt. eigenvalues --    2.95280   3.66180  23.80123
          Condensed to atoms (all electrons):
               1          2          3
     1  C    5.524568   0.370937   0.370937
     2  H    0.370937   0.527900  -0.032058
     3  H    0.370937  -0.032058   0.527900
          Atomic-Atomic Spin Densities.
               1          2          3
     1  C    2.126806  -0.025983  -0.025983
     2  H   -0.025983  -0.017753   0.006316
     3  H   -0.025983   0.006316  -0.017753
 Mulliken charges and spin densities:
               1          2
     1  C   -0.266442   2.074840
     2  H    0.133221  -0.037420
     3  H    0.133221  -0.037420
 Sum of Mulliken charges =  -0.00000   2.00000
 Mulliken charges and spin densities with hydrogens summed into heavy atoms:
               1          2
     1  C   -0.000000   2.000000
 APT charges:
               1
     1  C   -0.189649
     2  H    0.094824
     3  H    0.094824
 Sum of APT charges =   0.00000
 APT charges with hydrogens summed into heavy atoms:
               1
     1  C    0.000000
 Electronic spatial extent (au):  <R**2>=             24.5883
 Charge=             -0.0000 electrons
 Dipole moment (field-independent basis, Debye):
    X=             -0.0000    Y=              0.0000    Z=             -0.6899  Tot=              0.6899
 Quadrupole moment (field-independent basis, Debye-Ang):
   XX=             -8.4422   YY=             -5.9118   ZZ=             -7.9206
   XY=              0.0000   XZ=              0.0000   YZ=             -0.0000
 Traceless Quadrupole moment (field-independent basis, Debye-Ang):
   XX=             -1.0173   YY=              1.5131   ZZ=             -0.4957
   XY=              0.0000   XZ=              0.0000   YZ=             -0.0000
 Octapole moment (field-independent basis, Debye-Ang**2):
  XXX=              0.0000  YYY=              0.0000  ZZZ=             -1.1831  XYY=             -0.0000
  XXY=             -0.0000  XXZ=             -0.4122  XZZ=              0.0000  YZZ=             -0.0000
  YYZ=             -1.0284  XYZ=             -0.0000
 Hexadecapole moment (field-independent basis, Debye-Ang**3):
 XXXX=            -11.6678 YYYY=            -13.9630 ZZZZ=            -11.7224 XXXY=             -0.0000
 XXXZ=             -0.0000 YYYX=             -0.0000 YYYZ=             -0.0000 ZZZX=             -0.0000
 ZZZY=              0.0000 XXYY=             -4.8368 XXZZ=             -3.9103 YYZZ=             -4.4971
 XXYZ=              0.0000 YYXZ=              0.0000 ZZXY=             -0.0000
 N-N= 6.145570132429D+00 E-N=-1.029321573664D+02  KE= 3.899221451590D+01
 Symmetry A1   KE= 3.580746924850D+01
 Symmetry A2   KE= 7.182956827672D-35
 Symmetry B1   KE= 1.167158471298D+00
 Symmetry B2   KE= 2.017586796100D+00
  Exact polarizability:  10.207  -0.000  13.430  -0.000   0.000   9.767
 Approx polarizability:  10.522   0.000  15.413   0.000  -0.000  10.525
                          Isotropic Fermi Contact Couplings
        Atom                 a.u.       MegaHertz       Gauss      10(-4) cm-1
     1  C(13)              0.39056     219.53048      78.33393      73.22748
     2  H(1)              -0.00591     -13.21134      -4.71414      -4.40683
     3  H(1)              -0.00591     -13.21134      -4.71414      -4.40683
 --------------------------------------------------------
       Center         ----  Spin Dipole Couplings  ----
                      3XX-RR        3YY-RR        3ZZ-RR
 --------------------------------------------------------
     1   Atom        0.686999     -1.118081      0.431083
     2   Atom       -0.062954      0.118141     -0.055187
     3   Atom       -0.062954      0.118141     -0.055187
 --------------------------------------------------------
                        XY            XZ            YZ
 --------------------------------------------------------
     1   Atom        0.000000      0.000000     -0.000000
     2   Atom        0.000000      0.000000     -0.078314
     3   Atom        0.000000      0.000000      0.078314
 --------------------------------------------------------


 ---------------------------------------------------------------------------------
              Anisotropic Spin Dipole Couplings in Principal Axis System
 ---------------------------------------------------------------------------------

       Atom             a.u.   MegaHertz   Gauss  10(-4) cm-1        Axes

              Baa    -1.1181  -150.036   -53.537   -50.047 -0.0000  1.0000  0.0000
     1 C(13)  Bbb     0.4311    57.847    20.641    19.296 -0.0000 -0.0000  1.0000
              Bcc     0.6870    92.189    32.895    30.751  1.0000  0.0000  0.0000
 
              Baa    -0.0853   -45.528   -16.245   -15.186 -0.0000  0.3592  0.9333
     2 H(1)   Bbb    -0.0630   -33.589   -11.986   -11.204  1.0000  0.0000  0.0000
              Bcc     0.1483    79.117    28.231    26.391 -0.0000  0.9333 -0.3592
 
              Baa    -0.0853   -45.528   -16.245   -15.186 -0.0000 -0.3592  0.9333
     3 H(1)   Bbb    -0.0630   -33.589   -11.986   -11.204  1.0000 -0.0000  0.0000
              Bcc     0.1483    79.117    28.231    26.391  0.0000  0.9333  0.3592
 

 ---------------------------------------------------------------------------------

 No NMR shielding tensors so no spin-rotation constants.
 Leave Link  601 at Sun Mar  4 20:55:24 2018, MaxMem=    33554432 cpu:         0.2
 (Enter /apl/tryton/gaussian/09/d01/g09/l701.exe)
 Compute integral second derivatives.
 ... and contract with generalized density number  0.
 Leave Link  701 at Sun Mar  4 20:55:24 2018, MaxMem=    33554432 cpu:         0.1
 (Enter /apl/tryton/gaussian/09/d01/g09/l702.exe)
 L702 exits ... SP integral derivatives will be done elsewhere.
 Leave Link  702 at Sun Mar  4 20:55:24 2018, MaxMem=    33554432 cpu:         0.0
 (Enter /apl/tryton/gaussian/09/d01/g09/l703.exe)
 Compute integral second derivatives, UseDBF=F ICtDFT=           0.
 Integral derivatives from FoFJK, PRISM(SPDF).
 Calling FoFJK, ICntrl=    100127 FMM=F ISym2X=1 I1Cent= 0 IOpClX= 1 NMat=1 NMatS=1 NMatT=0.
 FoFJK:  IHMeth= 1 ICntrl=  100127 DoSepK=F KAlg= 0 I1Cent=   0 FoldK=F
 IRaf=         0 NMat=   1 IRICut=       1 DoRegI=T DoRafI=F ISym2E= 1.
 FoFCou: FMM=F IPFlag=           0 FMFlag=      100000 FMFlg1=         800
         NFxFlg=           0 DoJE=F BraDBF=F KetDBF=F FulRan=T
         wScrn=  0.000000 ICntrl=  100127 IOpCl=  1 I1Cent=           0 NGrid=           0
         NMat0=    1 NMatS0=      1 NMatT0=    0 NMatD0=    1 NMtDS0=    0 NMtDT0=    0
 Petite list used in FoFCou.
 Leave Link  703 at Sun Mar  4 20:55:25 2018, MaxMem=    33554432 cpu:         0.8
 (Enter /apl/tryton/gaussian/09/d01/g09/l716.exe)
 Dipole        =-2.16889990D-17-6.40112963D-16-2.71421303D-01
 Polarizability= 1.02069517D+01-4.18825404D-10 1.34299154D+01
                -6.93699922D-11 3.88628316D-09 9.76684309D+00
 Full mass-weighted force constant matrix:
 Low frequencies ---  -19.6028   -0.0007   -0.0001    0.0007    6.6745   29.9266
 Low frequencies --- 1040.1837 3119.1825 3363.2656
 Diagonal vibrational polarizability:
        0.0000000       0.0006760       0.3227733
 Harmonic frequencies (cm**-1), IR intensities (KM/Mole), Raman scattering
 activities (A**4/AMU), depolarization ratios for plane and unpolarized
 incident light, reduced masses (AMU), force constants (mDyne/A),
 and normal coordinates:
                      1                      2                      3
                     A1                     A1                     B2
 Frequencies --   1040.1837              3119.1825              3363.2656
 Red. masses --      1.1375                 1.0260                 1.1390
 Frc consts  --      0.7252                 5.8814                 7.5906
 IR Inten    --     12.9005                 0.6904                 0.2841
  Atom  AN      X      Y      Z        X      Y      Z        X      Y      Z
     1   6     0.00  -0.00   0.11     0.00   0.00   0.04     0.00   0.11   0.00
     2   1    -0.00  -0.28  -0.65     0.00   0.66  -0.24    -0.00  -0.65   0.27
     3   1    -0.00   0.28  -0.65    -0.00  -0.66  -0.24    -0.00  -0.65  -0.27

 -------------------
 - Thermochemistry -
 -------------------
 Temperature   298.150 Kelvin.  Pressure   1.00000 Atm.
 Atom     1 has atomic number  6 and mass  12.00000
 Atom     2 has atomic number  1 and mass   1.00783
 Atom     3 has atomic number  1 and mass   1.00783
 Molecular mass:    14.01565 amu.
 Principal axes and moments of inertia in atomic units:
                           1         2         3
     Eigenvalues --     1.03615   7.18285   8.21900
           X           -0.00000   0.00000   1.00000
           Y            1.00000   0.00000   0.00000
           Z           -0.00000   1.00000  -0.00000
 This molecule is an asymmetric top.
 Rotational symmetry number  2.
 Rotational temperatures (Kelvin)     83.59235    12.05842    10.53825
 Rotational constants (GHZ):        1741.78407   251.25693   219.58169
 Zero-point vibrational energy      44995.3 (Joules/Mol)
                                   10.75414 (Kcal/Mol)
 Vibrational temperatures:   1496.59  4487.80  4838.98
          (Kelvin)
 
 Zero-point correction=                           0.017138 (Hartree/Particle)
 Thermal correction to Energy=                    0.020002
 Thermal correction to Enthalpy=                  0.020946
 Thermal correction to Gibbs Free Energy=        -0.001212
 Sum of electronic and zero-point Energies=            -39.148980
 Sum of electronic and thermal Energies=               -39.146116
 Sum of electronic and thermal Enthalpies=             -39.145171
 Sum of electronic and thermal Free Energies=          -39.167330
 
                     E (Thermal)             CV                S
                      KCal/Mol        Cal/Mol-Kelvin    Cal/Mol-Kelvin
 Total                   12.551              6.297             46.636
 Electronic               0.000              0.000              2.183
 Translational            0.889              2.981             33.861
 Rotational               0.889              2.981             10.513
 Vibrational             10.774              0.335              0.080
                       Q            Log10(Q)             Ln(Q)
 Total Bot       0.361101D+01          0.557629          1.283987
 Total V=0       0.275715D+09          8.440460         19.434878
 Vib (Bot)       0.131840D-07         -7.879952        -18.144261
 Vib (V=0)       0.100665D+01          0.002879          0.006630
 Electronic      0.300000D+01          0.477121          1.098612
 Translational   0.206241D+07          6.314375         14.539386
 Rotational      0.442675D+02          1.646085          3.790250
 
                                                                 min
                                                             IR Spectrum
 
     3         3                                                                             1                                       
     3         1                                                                             0                                       
     6         1                                                                             4                                       
     3         9                                                                             0                                       
 
     X         X                                                                             X                                       
                                                                                             X                                       
                                                                                             X                                       
                                                                                             X                                       
                                                                                             X                                       
                                                                                             X                                       
                                                                                             X                                       
                                                                                             X                                       
                                                                                             X                                       
                                                                                             X                                       
                                                                                             X                                       
                                                                                             X                                       
                                                                                             X                                       
                                                                                             X                                       
                                                                                             X                                       
                                                                                             X                                       
                                                                                             X                                       
                                                                                             X                                       
                                                                                             X                                       
                                                                                             X                                       
 
 ***** Axes restored to original set *****
 -------------------------------------------------------------------
 Center     Atomic                   Forces (Hartrees/Bohr)
 Number     Number              X              Y              Z
 -------------------------------------------------------------------
      1        6           0.000000348   -0.000000806    0.000000000
      2        1           0.000006653    0.000003352    0.000000000
      3        1          -0.000007002   -0.000002545   -0.000000000
 -------------------------------------------------------------------
 Cartesian Forces:  Max     0.000007002 RMS     0.000003524
 Z-matrix is all fixed cartesians, so copy forces.
 Force constants in Cartesian coordinates: 
                1             2             3             4             5 
      1  0.567151D+00
      2  0.181612D+00  0.225031D+00
      3  0.000000D+00  0.000000D+00  0.584911D-04
      4 -0.197448D+00 -0.157721D+00  0.000000D+00  0.197622D+00
      5 -0.186137D+00 -0.198643D+00  0.000000D+00  0.176083D+00  0.190992D+00
      6  0.000000D+00  0.000000D+00 -0.292456D-04  0.000000D+00  0.000000D+00
      7 -0.369703D+00 -0.238907D-01  0.000000D+00 -0.173688D-03  0.100540D-01
      8  0.452483D-02 -0.263881D-01  0.000000D+00 -0.183615D-01  0.765116D-02
      9  0.000000D+00  0.000000D+00 -0.292455D-04  0.000000D+00  0.000000D+00
                6             7             8             9 
      6  0.729480D-05
      7  0.000000D+00  0.369877D+00
      8  0.000000D+00  0.138367D-01  0.187369D-01
      9  0.219507D-04  0.000000D+00  0.000000D+00  0.729480D-05
 Leave Link  716 at Sun Mar  4 20:55:25 2018, MaxMem=    33554432 cpu:         0.0
 (Enter /apl/tryton/gaussian/09/d01/g09/l103.exe)

 GradGradGradGradGradGradGradGradGradGradGradGradGradGradGradGradGradGrad
 Berny optimization.
 Search for a local minimum.
 Step number   1 out of a maximum of    2
 All quantities printed in internal units (Hartrees-Bohrs-Radians)
 Second derivative matrix not updated -- analytic derivatives used.
 The second derivative matrix:
                          X1        Y1        Z1        X2        Y2
           X1           0.56715
           Y1           0.18161   0.22503
           Z1          -0.00000   0.00000   0.00006
           X2          -0.19745  -0.15772   0.00000   0.19762
           Y2          -0.18614  -0.19864  -0.00000   0.17608   0.19099
           Z2           0.00000  -0.00000  -0.00003  -0.00000  -0.00000
           X3          -0.36970  -0.02389   0.00000  -0.00017   0.01005
           Y3           0.00452  -0.02639   0.00000  -0.01836   0.00765
           Z3           0.00000   0.00000  -0.00003  -0.00000  -0.00000
                          Z2        X3        Y3        Z3
           Z2           0.00001
           X3          -0.00000   0.36988
           Y3          -0.00000   0.01384   0.01874
           Z3           0.00002  -0.00000  -0.00000   0.00001
 ITU=  0
     Eigenvalues ---    0.07489   0.43324   0.84690
 Angle between quadratic step and forces=  44.12 degrees.
 ClnCor:  largest displacement from symmetrization is 3.86D-16 for atom     3.
 Linear search not attempted -- first point.
 ClnCor:  largest displacement from symmetrization is 8.99D-16 for atom     3.
 TrRot= -0.000004  0.000010 -0.000000  0.000000  0.000000  0.000000
 Variable       Old X    -DE/DX   Delta X   Delta X   Delta X     New X
                                 (Linear)    (Quad)   (Total)
    X1       -0.21182   0.00000   0.00000  -0.00001  -0.00001  -0.21183
    Y1       -0.04190  -0.00000   0.00000   0.00002   0.00003  -0.04187
    Z1       -0.00000   0.00000   0.00000   0.00000   0.00000  -0.00000
    X2        1.21402   0.00001   0.00000   0.00005   0.00004   1.21406
    Y2        1.41786   0.00000   0.00000  -0.00001   0.00000   1.41786
    Z2       -0.00000   0.00000   0.00000  -0.00000  -0.00000  -0.00000
    X3       -2.25206  -0.00001   0.00000  -0.00002  -0.00003  -2.25209
    Y3       -0.07895  -0.00000   0.00000  -0.00004  -0.00003  -0.07898
    Z3        0.00000  -0.00000   0.00000   0.00000   0.00000   0.00000
         Item               Value     Threshold  Converged?
 Maximum Force            0.000007     0.000450     YES
 RMS     Force            0.000004     0.000300     YES
 Maximum Displacement     0.000041     0.001800     YES
 RMS     Displacement     0.000022     0.001200     YES
 Predicted change in Energy=-2.621658D-10
 Optimization completed.
    -- Stationary point found.
 GradGradGradGradGradGradGradGradGradGradGradGradGradGradGradGradGradGrad

 Leave Link  103 at Sun Mar  4 20:55:25 2018, MaxMem=    33554432 cpu:         0.0
 (Enter /apl/tryton/gaussian/09/d01/g09/l9999.exe)
 1\1\ CITASK-GV1032\Freq\UB3LYP\6-311++G(d,p)\C1H2(3)\EERD\04-Mar-2018\
 0\\#p b3lyp/6-311++g(d,p) freq\\min\\0,3\C,-0.112091,-0.022174,0.\H,0.
 642433491,0.750298493,0.\H,-1.191737491,-0.041780493,0.\\Version=ES64L
 -G09RevD.01\State=3-B1\HF=-39.1661175\S2=2.0053\S2-1=0.\S2A=2.000007\R
 MSD=7.837e-10\RMSF=3.524e-06\ZeroPoint=0.0171378\Thermal=0.0200019\Dip
 ole=-0.107607,0.2491792,0.\DipoleDeriv=-0.0790061,0.032132,0.,0.032132
 ,-0.1395362,0.,0.,0.,-0.3504043,0.0653082,-0.0172908,0.,-0.0634528,0.0
 43963,0.,0.,0.,0.1752021,0.0136979,-0.0148412,0.,0.0313208,0.0955732,0
 .,0.,0.,0.1752021\Polar=12.8541594,1.3332445,10.3425991,0.,0.,10.20695
 17\PG=C02V [C2(C1),SGV(H2)]\NImag=0\\0.56715113,0.18161220,0.22503083,
 0.,0.,0.00005849,-0.19744824,-0.15772147,0.,0.19762193,-0.18613703,-0.
 19864274,0.,0.17608301,0.19099158,0.,0.,-0.00002925,0.,0.,0.00000729,-
 0.36970289,-0.02389074,0.,-0.00017369,0.01005402,0.,0.36987658,0.00452
 483,-0.02638809,0.,-0.01836155,0.00765116,0.,0.01383672,0.01873693,0.,
 0.,-0.00002925,0.,0.,0.00002195,0.,0.,0.00000729\\-0.00000035,0.000000
 81,0.,-0.00000665,-0.00000335,0.,0.00000700,0.00000255,0.\\\@


 LEARN FROM YESTERDAY,
 LIVE FOR TODAY,
 LOOK TO TOMORROW,
 REST THIS AFTERNOON.

           -- SNOOPY
 Job cpu time:       0 days  0 hours  0 minutes  5.6 seconds.
 File lengths (MBytes):  RWF=      5 Int=      0 D2E=      0 Chk=      1 Scr=      1
 Normal termination of Gaussian 09 at Sun Mar  4 20:55:25 2018.
