 Entering Gaussian System, Link 0=g09
 Initial command:
 /apl/tryton/gaussian/09/d01/g09/l1.exe "/users/work/eerd/M3C-outputs/3/Gau-20182.inp" -scrdir="/users/work/eerd/M3C-outputs/3/"
 Entering Link 1 = /apl/tryton/gaussian/09/d01/g09/l1.exe PID=     20183.
  
 Copyright (c) 1988,1990,1992,1993,1995,1998,2003,2009,2013,
            Gaussian, Inc.  All Rights Reserved.
  
 This is part of the Gaussian(R) 09 program.  It is based on
 the Gaussian(R) 03 system (copyright 2003, Gaussian, Inc.),
 the Gaussian(R) 98 system (copyright 1998, Gaussian, Inc.),
 the Gaussian(R) 94 system (copyright 1995, Gaussian, Inc.),
 the Gaussian 92(TM) system (copyright 1992, Gaussian, Inc.),
 the Gaussian 90(TM) system (copyright 1990, Gaussian, Inc.),
 the Gaussian 88(TM) system (copyright 1988, Gaussian, Inc.),
 the Gaussian 86(TM) system (copyright 1986, Carnegie Mellon
 University), and the Gaussian 82(TM) system (copyright 1983,
 Carnegie Mellon University). Gaussian is a federally registered
 trademark of Gaussian, Inc.
  
 This software contains proprietary and confidential information,
 including trade secrets, belonging to Gaussian, Inc.
  
 This software is provided under written license and may be
 used, copied, transmitted, or stored only in accord with that
 written license.
  
 The following legend is applicable only to US Government
 contracts under FAR:
  
                    RESTRICTED RIGHTS LEGEND
  
 Use, reproduction and disclosure by the US Government is
 subject to restrictions as set forth in subparagraphs (a)
 and (c) of the Commercial Computer Software - Restricted
 Rights clause in FAR 52.227-19.
  
 Gaussian, Inc.
 340 Quinnipiac St., Bldg. 40, Wallingford CT 06492
  
  
 ---------------------------------------------------------------
 Warning -- This program may not be used in any manner that
 competes with the business of Gaussian, Inc. or will provide
 assistance to any competitor of Gaussian, Inc.  The licensee
 of this program is prohibited from giving any competitor of
 Gaussian, Inc. access to this program.  By using this program,
 the user acknowledges that Gaussian, Inc. is engaged in the
 business of creating and licensing software in the field of
 computational chemistry and represents and warrants to the
 licensee that it is not a competitor of Gaussian, Inc. and that
 it will not use this program in any manner prohibited above.
 ---------------------------------------------------------------
  

 Cite this work as:
 Gaussian 09, Revision D.01,
 M. J. Frisch, G. W. Trucks, H. B. Schlegel, G. E. Scuseria, 
 M. A. Robb, J. R. Cheeseman, G. Scalmani, V. Barone, B. Mennucci, 
 G. A. Petersson, H. Nakatsuji, M. Caricato, X. Li, H. P. Hratchian, 
 A. F. Izmaylov, J. Bloino, G. Zheng, J. L. Sonnenberg, M. Hada, 
 M. Ehara, K. Toyota, R. Fukuda, J. Hasegawa, M. Ishida, T. Nakajima, 
 Y. Honda, O. Kitao, H. Nakai, T. Vreven, J. A. Montgomery, Jr., 
 J. E. Peralta, F. Ogliaro, M. Bearpark, J. J. Heyd, E. Brothers, 
 K. N. Kudin, V. N. Staroverov, T. Keith, R. Kobayashi, J. Normand, 
 K. Raghavachari, A. Rendell, J. C. Burant, S. S. Iyengar, J. Tomasi, 
 M. Cossi, N. Rega, J. M. Millam, M. Klene, J. E. Knox, J. B. Cross, 
 V. Bakken, C. Adamo, J. Jaramillo, R. Gomperts, R. E. Stratmann, 
 O. Yazyev, A. J. Austin, R. Cammi, C. Pomelli, J. W. Ochterski, 
 R. L. Martin, K. Morokuma, V. G. Zakrzewski, G. A. Voth, 
 P. Salvador, J. J. Dannenberg, S. Dapprich, A. D. Daniels, 
 O. Farkas, J. B. Foresman, J. V. Ortiz, J. Cioslowski, 
 and D. J. Fox, Gaussian, Inc., Wallingford CT, 2013.
 
 ******************************************
 Gaussian 09:  ES64L-G09RevD.01 24-Apr-2013
                 4-Mar-2018 
 ******************************************
 ---------------------------
 #p b3lyp/6-311++g(d,p) freq
 ---------------------------
 1/10=4,30=1,38=1/1,3;
 2/12=2,17=6,18=5,40=1/2;
 3/5=4,6=6,7=1111,11=2,16=1,25=1,30=1,71=2,74=-5,140=1/1,2,3;
 4//1;
 5/5=2,38=5,98=1/2;
 8/6=4,10=90,11=11/1;
 11/6=1,8=1,9=11,15=111,16=1/1,2,10;
 10/6=1/2;
 6/7=2,8=2,9=2,10=2,18=1,28=1/1;
 7/8=1,10=1,25=1/1,2,3,16;
 1/10=4,30=1/3;
 99//99;
 Leave Link    1 at Sun Mar  4 20:55:19 2018, MaxMem=           0 cpu:         0.0
 (Enter /apl/tryton/gaussian/09/d01/g09/l101.exe)
 ---
 min
 ---
 Symbolic Z-matrix:
 Charge =  0 Multiplicity = 3
 C                     0.0305   -0.00501   0. 
 H                     1.30266  -0.34292   0. 
 H                     1.21906   0.56061   0. 
 
 NAtoms=      3 NQM=        3 NQMF=       0 NMMI=      0 NMMIF=      0
                NMic=       0 NMicF=      0.
                    Isotopes and Nuclear Properties:
 (Nuclear quadrupole moments (NQMom) in fm**2, nuclear magnetic moments (NMagM)
  in nuclear magnetons)

  Atom         1           2           3
 IAtWgt=          12           1           1
 AtmWgt=  12.0000000   1.0078250   1.0078250
 NucSpn=           0           1           1
 AtZEff=   0.0000000   0.0000000   0.0000000
 NQMom=    0.0000000   0.0000000   0.0000000
 NMagM=    0.0000000   2.7928460   2.7928460
 AtZNuc=   6.0000000   1.0000000   1.0000000
 Leave Link  101 at Sun Mar  4 20:55:19 2018, MaxMem=    33554432 cpu:         0.1
 (Enter /apl/tryton/gaussian/09/d01/g09/l103.exe)

 GradGradGradGradGradGradGradGradGradGradGradGradGradGradGradGradGradGrad
 Berny optimization.
 Initialization pass.
 Trust Radius=3.00D-01 FncErr=1.00D-07 GrdErr=1.00D-07
 Number of steps in this run=      2 maximum allowed number of steps=      2.
 GradGradGradGradGradGradGradGradGradGradGradGradGradGradGradGradGradGrad

 Leave Link  103 at Sun Mar  4 20:55:19 2018, MaxMem=    33554432 cpu:         0.0
 (Enter /apl/tryton/gaussian/09/d01/g09/l202.exe)
                          Input orientation:                          
 ---------------------------------------------------------------------
 Center     Atomic      Atomic             Coordinates (Angstroms)
 Number     Number       Type             X           Y           Z
 ---------------------------------------------------------------------
      1          6           0        0.030496   -0.005006    0.000000
      2          1           0        1.302664   -0.342915    0.000000
      3          1           0        1.219056    0.560608    0.000000
 ---------------------------------------------------------------------
                    Distance matrix (angstroms):
                    1          2          3
     1  C    0.000000
     2  H    1.316280   0.000000
     3  H    1.316280   0.907383   0.000000
 Stoichiometry    CH2(3)
 Framework group  C2V[C2(C),SGV(H2)]
 Deg. of freedom     2
 Full point group                 C2V     NOp   4
 Largest Abelian subgroup         C2V     NOp   4
 Largest concise Abelian subgroup C2      NOp   2
                         Standard orientation:                         
 ---------------------------------------------------------------------
 Center     Atomic      Atomic             Coordinates (Angstroms)
 Number     Number       Type             X           Y           Z
 ---------------------------------------------------------------------
      1          6           0       -0.000000    0.000000    0.308905
      2          1           0        0.000000    0.453692   -0.926715
      3          1           0       -0.000000   -0.453692   -0.926715
 ---------------------------------------------------------------------
 Rotational constants (GHZ):   1218.0926378    191.8067394    165.7128026
 Leave Link  202 at Sun Mar  4 20:55:19 2018, MaxMem=    33554432 cpu:         0.0
 (Enter /apl/tryton/gaussian/09/d01/g09/l301.exe)
 Standard basis: 6-311++G(d,p) (5D, 7F)
 Ernie: Thresh=  0.10000D-02 Tol=  0.10000D-05 Strict=F.
 There are    18 symmetry adapted cartesian basis functions of A1  symmetry.
 There are     2 symmetry adapted cartesian basis functions of A2  symmetry.
 There are     6 symmetry adapted cartesian basis functions of B1  symmetry.
 There are    11 symmetry adapted cartesian basis functions of B2  symmetry.
 There are    17 symmetry adapted basis functions of A1  symmetry.
 There are     2 symmetry adapted basis functions of A2  symmetry.
 There are     6 symmetry adapted basis functions of B1  symmetry.
 There are    11 symmetry adapted basis functions of B2  symmetry.
    36 basis functions,    54 primitive gaussians,    37 cartesian basis functions
     5 alpha electrons        3 beta electrons
       nuclear repulsion energy         5.4074863513 Hartrees.
 IExCor=  402 DFT=T Ex+Corr=B3LYP ExCW=0 ScaHFX=  0.200000
 ScaDFX=  0.800000  0.720000  1.000000  0.810000 ScalE2=  1.000000  1.000000
 IRadAn=      0 IRanWt=     -1 IRanGd=            0 ICorTp=0 IEmpDi=  4
 NAtoms=    3 NActive=    3 NUniq=    2 SFac= 2.25D+00 NAtFMM=   60 NAOKFM=F Big=F
 Integral buffers will be    131072 words long.
 Raffenetti 2 integral format.
 Two-electron integral symmetry is turned on.
 Leave Link  301 at Sun Mar  4 20:55:19 2018, MaxMem=    33554432 cpu:         0.0
 (Enter /apl/tryton/gaussian/09/d01/g09/l302.exe)
 NPDir=0 NMtPBC=     1 NCelOv=     1 NCel=       1 NClECP=     1 NCelD=      1
         NCelK=      1 NCelE2=     1 NClLst=     1 CellRange=     0.0.
 One-electron integrals computed using PRISM.
 One-electron integral symmetry used in STVInt
 NBasis=    36 RedAO= T EigKep=  5.27D-03  NBF=    17     2     6    11
 NBsUse=    36 1.00D-06 EigRej= -1.00D+00 NBFU=    17     2     6    11
 Precomputing XC quadrature grid using
 IXCGrd= 4 IRadAn=           0 IRanWt=          -1 IRanGd=           0 AccXCQ= 0.00D+00.
 Generated NRdTot=       0 NPtTot=           0 NUsed=           0 NTot=          32
 NSgBfM=    37    37    37    37    37 MxSgAt=     3 MxSgA2=     3.
 Leave Link  302 at Sun Mar  4 20:55:19 2018, MaxMem=    33554432 cpu:         0.1
 (Enter /apl/tryton/gaussian/09/d01/g09/l303.exe)
 DipDrv:  MaxL=1.
 Leave Link  303 at Sun Mar  4 20:55:19 2018, MaxMem=    33554432 cpu:         0.0
 (Enter /apl/tryton/gaussian/09/d01/g09/l401.exe)
 ExpMin= 3.60D-02 ExpMax= 4.56D+03 ExpMxC= 6.82D+02 IAcc=3 IRadAn=         5 AccDes= 0.00D+00
 Harris functional with IExCor=  402 and IRadAn=       5 diagonalized for initial guess.
 HarFok:  IExCor=  402 AccDes= 0.00D+00 IRadAn=         5 IDoV= 1 UseB2=F ITyADJ=14
 ICtDFT=  3500011 ScaDFX=  1.000000  1.000000  1.000000  1.000000
 FoFCou: FMM=F IPFlag=           0 FMFlag=      100000 FMFlg1=           0
         NFxFlg=           0 DoJE=T BraDBF=F KetDBF=T FulRan=T
         wScrn=  0.000000 ICntrl=     500 IOpCl=  0 I1Cent=   200000004 NGrid=           0
         NMat0=    1 NMatS0=      1 NMatT0=    0 NMatD0=    1 NMtDS0=    0 NMtDT0=    0
 Petite list used in FoFCou.
 Harris En= -38.9942416357171    
 JPrj=0 DoOrth=F DoCkMO=F.
 Initial guess orbital symmetries:
 Alpha Orbitals:
       Occupied  (A1) (A1) (A1) (B2) (B1)
       Virtual   (A1) (B2) (A1) (A1) (B1) (B2) (A1) (B2) (A1) (B2)
                 (A1) (B1) (B2) (A1) (B1) (A1) (A2) (B2) (A1) (A1)
                 (B1) (A2) (A1) (B2) (B2) (B1) (B2) (A1) (B2) (A1)
                 (A1)
 Beta  Orbitals:
       Occupied  (A1) (A1) (A1)
       Virtual   (B2) (B1) (A1) (B2) (A1) (A1) (B1) (B2) (A1) (B2)
                 (A1) (B2) (A1) (B1) (B2) (A1) (B1) (A1) (A2) (B2)
                 (A1) (A1) (B1) (A2) (A1) (B2) (B2) (B1) (B2) (A1)
                 (B2) (A1) (A1)
 The electronic state of the initial guess is 3-A2.
 Initial guess <Sx>= 0.0000 <Sy>= 0.0000 <Sz>= 1.0000 <S**2>= 2.0000 S= 1.0000
 Leave Link  401 at Sun Mar  4 20:55:20 2018, MaxMem=    33554432 cpu:         0.2
 (Enter /apl/tryton/gaussian/09/d01/g09/l502.exe)
 UHF open shell SCF:
 Using DIIS extrapolation, IDIIS=  1040.
 Integral symmetry usage will be decided dynamically.
 Keep R1 and R2 ints in memory in symmetry-blocked form, NReq=1108108.
 IVT=       23255 IEndB=       23255 NGot=    33554432 MDV=    33404118
 LenX=    33404118 LenY=    33402308
 Requested convergence on RMS density matrix=1.00D-08 within 128 cycles.
 Requested convergence on MAX density matrix=1.00D-06.
 Requested convergence on             energy=1.00D-06.
 No special actions if energy rises.
 FoFCou: FMM=F IPFlag=           0 FMFlag=           0 FMFlg1=           0
         NFxFlg=           0 DoJE=F BraDBF=F KetDBF=F FulRan=T
         wScrn=  0.000000 ICntrl=     600 IOpCl=  0 I1Cent=           0 NGrid=           0
         NMat0=    1 NMatS0=    666 NMatT0=    0 NMatD0=    1 NMtDS0=    0 NMtDT0=    0
 Petite list used in FoFCou.

 Cycle   1  Pass 1  IDiag  1:
 E= -39.0335353047997    
 DIIS: error= 2.87D-02 at cycle   1 NSaved=   1.
 NSaved= 1 IEnMin= 1 EnMin= -39.0335353047997     IErMin= 1 ErrMin= 2.87D-02
 ErrMax= 2.87D-02  0.00D+00 EMaxC= 1.00D-01 BMatC= 4.31D-02 BMatP= 4.31D-02
 IDIUse=3 WtCom= 7.13D-01 WtEn= 2.87D-01
 Coeff-Com:  0.100D+01
 Coeff-En:   0.100D+01
 Coeff:      0.100D+01
 Gap=     0.185 Goal=   None    Shift=    0.000
 Gap=     0.177 Goal=   None    Shift=    0.000
 GapD=    0.177 DampG=1.000 DampE=0.500 DampFc=0.5000 IDamp=-1.
 Damping current iteration by 5.00D-01
 RMSDP=9.35D-03 MaxDP=1.27D-01              OVMax= 1.43D-01

 Cycle   2  Pass 1  IDiag  1:
 E= -39.0402012631069     Delta-E=       -0.006665958307 Rises=F Damp=T
 DIIS: error= 5.62D-03 at cycle   2 NSaved=   2.
 NSaved= 2 IEnMin= 2 EnMin= -39.0402012631069     IErMin= 2 ErrMin= 5.62D-03
 ErrMax= 5.62D-03  0.00D+00 EMaxC= 1.00D-01 BMatC= 4.18D-03 BMatP= 4.31D-02
 IDIUse=3 WtCom= 9.44D-01 WtEn= 5.62D-02
 Coeff-Com: -0.147D-01 0.101D+01
 Coeff-En:   0.000D+00 0.100D+01
 Coeff:     -0.139D-01 0.101D+01
 Gap=     0.217 Goal=   None    Shift=    0.000
 Gap=     0.186 Goal=   None    Shift=    0.000
 RMSDP=1.31D-03 MaxDP=2.34D-02 DE=-6.67D-03 OVMax= 7.41D-02

 Cycle   3  Pass 1  IDiag  1:
 E= -39.0482439647877     Delta-E=       -0.008042701681 Rises=F Damp=F
 DIIS: error= 2.99D-03 at cycle   3 NSaved=   3.
 NSaved= 3 IEnMin= 3 EnMin= -39.0482439647877     IErMin= 3 ErrMin= 2.99D-03
 ErrMax= 2.99D-03  0.00D+00 EMaxC= 1.00D-01 BMatC= 8.50D-04 BMatP= 4.18D-03
 IDIUse=3 WtCom= 9.70D-01 WtEn= 2.99D-02
 Coeff-Com: -0.121D+00 0.194D+00 0.927D+00
 Coeff-En:   0.000D+00 0.000D+00 0.100D+01
 Coeff:     -0.118D+00 0.188D+00 0.930D+00
 Gap=     0.214 Goal=   None    Shift=    0.000
 Gap=     0.183 Goal=   None    Shift=    0.000
 RMSDP=5.50D-04 MaxDP=1.11D-02 DE=-8.04D-03 OVMax= 9.86D-03

 Cycle   4  Pass 1  IDiag  1:
 E= -39.0485409340113     Delta-E=       -0.000296969224 Rises=F Damp=F
 DIIS: error= 8.70D-04 at cycle   4 NSaved=   4.
 NSaved= 4 IEnMin= 4 EnMin= -39.0485409340113     IErMin= 4 ErrMin= 8.70D-04
 ErrMax= 8.70D-04  0.00D+00 EMaxC= 1.00D-01 BMatC= 3.73D-05 BMatP= 8.50D-04
 IDIUse=3 WtCom= 9.91D-01 WtEn= 8.70D-03
 Coeff-Com: -0.331D-01 0.156D-01 0.223D+00 0.795D+00
 Coeff-En:   0.000D+00 0.000D+00 0.000D+00 0.100D+01
 Coeff:     -0.329D-01 0.155D-01 0.221D+00 0.797D+00
 Gap=     0.215 Goal=   None    Shift=    0.000
 Gap=     0.182 Goal=   None    Shift=    0.000
 RMSDP=1.23D-04 MaxDP=1.69D-03 DE=-2.97D-04 OVMax= 3.19D-03

 Cycle   5  Pass 1  IDiag  1:
 E= -39.0485569792895     Delta-E=       -0.000016045278 Rises=F Damp=F
 DIIS: error= 1.58D-04 at cycle   5 NSaved=   5.
 NSaved= 5 IEnMin= 5 EnMin= -39.0485569792895     IErMin= 5 ErrMin= 1.58D-04
 ErrMax= 1.58D-04  0.00D+00 EMaxC= 1.00D-01 BMatC= 2.07D-06 BMatP= 3.73D-05
 IDIUse=3 WtCom= 9.98D-01 WtEn= 1.58D-03
 Coeff-Com:  0.918D-02-0.144D-01-0.917D-01-0.701D-01 0.117D+01
 Coeff-En:   0.000D+00 0.000D+00 0.000D+00 0.000D+00 0.100D+01
 Coeff:      0.916D-02-0.144D-01-0.916D-01-0.700D-01 0.117D+01
 Gap=     0.215 Goal=   None    Shift=    0.000
 Gap=     0.183 Goal=   None    Shift=    0.000
 RMSDP=7.22D-05 MaxDP=9.02D-04 DE=-1.60D-05 OVMax= 1.47D-03

 Cycle   6  Pass 1  IDiag  1:
 E= -39.0485589881637     Delta-E=       -0.000002008874 Rises=F Damp=F
 DIIS: error= 4.28D-05 at cycle   6 NSaved=   6.
 NSaved= 6 IEnMin= 6 EnMin= -39.0485589881637     IErMin= 6 ErrMin= 4.28D-05
 ErrMax= 4.28D-05  0.00D+00 EMaxC= 1.00D-01 BMatC= 9.14D-08 BMatP= 2.07D-06
 IDIUse=1 WtCom= 1.00D+00 WtEn= 0.00D+00
 Coeff-Com: -0.719D-03 0.246D-02 0.113D-01-0.256D-01-0.213D+00 0.123D+01
 Coeff:     -0.719D-03 0.246D-02 0.113D-01-0.256D-01-0.213D+00 0.123D+01
 Gap=     0.215 Goal=   None    Shift=    0.000
 Gap=     0.183 Goal=   None    Shift=    0.000
 RMSDP=2.00D-05 MaxDP=2.82D-04 DE=-2.01D-06 OVMax= 4.07D-04

 Cycle   7  Pass 1  IDiag  1:
 E= -39.0485591083895     Delta-E=       -0.000000120226 Rises=F Damp=F
 DIIS: error= 1.23D-05 at cycle   7 NSaved=   7.
 NSaved= 7 IEnMin= 7 EnMin= -39.0485591083895     IErMin= 7 ErrMin= 1.23D-05
 ErrMax= 1.23D-05  0.00D+00 EMaxC= 1.00D-01 BMatC= 6.16D-09 BMatP= 9.14D-08
 IDIUse=1 WtCom= 1.00D+00 WtEn= 0.00D+00
 Coeff-Com: -0.584D-03 0.397D-03 0.513D-02 0.109D-01-0.520D-01-0.179D+00
 Coeff-Com:  0.122D+01
 Coeff:     -0.584D-03 0.397D-03 0.513D-02 0.109D-01-0.520D-01-0.179D+00
 Coeff:      0.122D+01
 Gap=     0.215 Goal=   None    Shift=    0.000
 Gap=     0.183 Goal=   None    Shift=    0.000
 RMSDP=5.34D-06 MaxDP=8.17D-05 DE=-1.20D-07 OVMax= 1.22D-04

 Cycle   8  Pass 1  IDiag  1:
 E= -39.0485591163611     Delta-E=       -0.000000007972 Rises=F Damp=F
 DIIS: error= 2.02D-06 at cycle   8 NSaved=   8.
 NSaved= 8 IEnMin= 8 EnMin= -39.0485591163611     IErMin= 8 ErrMin= 2.02D-06
 ErrMax= 2.02D-06  0.00D+00 EMaxC= 1.00D-01 BMatC= 2.21D-10 BMatP= 6.16D-09
 IDIUse=1 WtCom= 1.00D+00 WtEn= 0.00D+00
 Coeff-Com:  0.912D-04-0.123D-03-0.122D-02-0.104D-02 0.184D-01-0.305D-01
 Coeff-Com: -0.184D+00 0.120D+01
 Coeff:      0.912D-04-0.123D-03-0.122D-02-0.104D-02 0.184D-01-0.305D-01
 Coeff:     -0.184D+00 0.120D+01
 Gap=     0.215 Goal=   None    Shift=    0.000
 Gap=     0.183 Goal=   None    Shift=    0.000
 RMSDP=7.82D-07 MaxDP=1.04D-05 DE=-7.97D-09 OVMax= 1.65D-05

 Cycle   9  Pass 1  IDiag  1:
 E= -39.0485591165854     Delta-E=       -0.000000000224 Rises=F Damp=F
 DIIS: error= 4.41D-07 at cycle   9 NSaved=   9.
 NSaved= 9 IEnMin= 9 EnMin= -39.0485591165854     IErMin= 9 ErrMin= 4.41D-07
 ErrMax= 4.41D-07  0.00D+00 EMaxC= 1.00D-01 BMatC= 7.76D-12 BMatP= 2.21D-10
 IDIUse=1 WtCom= 1.00D+00 WtEn= 0.00D+00
 Coeff-Com:  0.199D-04-0.311D-04-0.454D-04-0.511D-04 0.184D-03 0.411D-02
 Coeff-Com: -0.846D-02-0.101D+00 0.111D+01
 Coeff:      0.199D-04-0.311D-04-0.454D-04-0.511D-04 0.184D-03 0.411D-02
 Coeff:     -0.846D-02-0.101D+00 0.111D+01
 Gap=     0.215 Goal=   None    Shift=    0.000
 Gap=     0.183 Goal=   None    Shift=    0.000
 RMSDP=7.55D-08 MaxDP=9.02D-07 DE=-2.24D-10 OVMax= 1.85D-06

 Cycle  10  Pass 1  IDiag  1:
 E= -39.0485591165894     Delta-E=       -0.000000000004 Rises=F Damp=F
 DIIS: error= 2.83D-08 at cycle  10 NSaved=  10.
 NSaved=10 IEnMin=10 EnMin= -39.0485591165894     IErMin=10 ErrMin= 2.83D-08
 ErrMax= 2.83D-08  0.00D+00 EMaxC= 1.00D-01 BMatC= 7.98D-14 BMatP= 7.76D-12
 IDIUse=1 WtCom= 1.00D+00 WtEn= 0.00D+00
 Coeff-Com: -0.356D-05 0.549D-05 0.222D-04 0.437D-04-0.385D-03 0.158D-03
 Coeff-Com:  0.416D-02-0.129D-01-0.130D+00 0.114D+01
 Coeff:     -0.356D-05 0.549D-05 0.222D-04 0.437D-04-0.385D-03 0.158D-03
 Coeff:      0.416D-02-0.129D-01-0.130D+00 0.114D+01
 Gap=     0.215 Goal=   None    Shift=    0.000
 Gap=     0.183 Goal=   None    Shift=    0.000
 RMSDP=9.82D-09 MaxDP=1.93D-07 DE=-3.99D-12 OVMax= 2.34D-07

 SCF Done:  E(UB3LYP) =  -39.0485591166     A.U. after   10 cycles
            NFock= 10  Conv=0.98D-08     -V/T= 2.0038
 <Sx>= 0.0000 <Sy>= 0.0000 <Sz>= 1.0000 <S**2>= 2.0064 S= 1.0021
 <L.S>= 0.000000000000E+00
 KE= 3.889960572200D+01 PE=-1.011694747751D+02 EE= 1.781382358520D+01
 Annihilation of the first spin contaminant:
 S**2 before annihilation     2.0064,   after     2.0000
 Leave Link  502 at Sun Mar  4 20:55:20 2018, MaxMem=    33554432 cpu:         0.7
 (Enter /apl/tryton/gaussian/09/d01/g09/l801.exe)
 DoSCS=F DFT=T ScalE2(SS,OS)=  1.000000  1.000000
 Range of M.O.s used for correlation:     1    36
 NBasis=    36 NAE=     5 NBE=     3 NFC=     0 NFV=     0
 NROrb=     36 NOA=     5 NOB=     3 NVA=    31 NVB=    33
 Leave Link  801 at Sun Mar  4 20:55:20 2018, MaxMem=    33554432 cpu:         0.0
 (Enter /apl/tryton/gaussian/09/d01/g09/l1101.exe)
 Using compressed storage, NAtomX=     3.
 Will process      4 centers per pass.
 Leave Link 1101 at Sun Mar  4 20:55:21 2018, MaxMem=    33554432 cpu:         0.1
 (Enter /apl/tryton/gaussian/09/d01/g09/l1102.exe)
 Symmetrizing basis deriv contribution to polar:
 IMax=3 JMax=2 DiffMx= 0.00D+00
 Leave Link 1102 at Sun Mar  4 20:55:21 2018, MaxMem=    33554432 cpu:         0.0
 (Enter /apl/tryton/gaussian/09/d01/g09/l1110.exe)
 Forming Gx(P) for the SCF density, NAtomX=     3.
 Integral derivatives from FoFJK, PRISM(SPDF).
 Do as many integral derivatives as possible in FoFJK.
 G2DrvN: MDV=      33554304.
 G2DrvN: will do     4 centers at a time, making    1 passes.
 Calling FoFCou, ICntrl=  3107 FMM=F I1Cent=   0 AccDes= 0.00D+00.
 FoFJK:  IHMeth= 1 ICntrl=    3107 DoSepK=F KAlg= 0 I1Cent=   0 FoldK=F
 IRaf=         0 NMat=   1 IRICut=       1 DoRegI=T DoRafI=F ISym2E= 1.
 FoFCou: FMM=F IPFlag=           0 FMFlag=      100000 FMFlg1=           0
         NFxFlg=           0 DoJE=F BraDBF=F KetDBF=F FulRan=T
         wScrn=  0.000000 ICntrl=    3107 IOpCl=  1 I1Cent=           0 NGrid=           0
         NMat0=    1 NMatS0=      1 NMatT0=    0 NMatD0=    1 NMtDS0=    0 NMtDT0=    0
 Petite list used in FoFCou.
 End of G2Drv F.D. properties file   721 does not exist.
 End of G2Drv F.D. properties file   722 does not exist.
 End of G2Drv F.D. properties file   788 does not exist.
 Leave Link 1110 at Sun Mar  4 20:55:21 2018, MaxMem=    33554432 cpu:         0.5
 (Enter /apl/tryton/gaussian/09/d01/g09/l1002.exe)
 Minotr:  UHF open shell wavefunction.
          IDoAtm=111
          Direct CPHF calculation.
          Differentiating once with respect to electric field.
                with respect to dipole field.
          Differentiating once with respect to nuclear coordinates.
          Using symmetry in CPHF.
          Requested convergence is 1.0D-08 RMS, and 1.0D-07 maximum.
          Secondary convergence is 1.0D-12 RMS, and 1.0D-12 maximum.
          NewPWx=T KeepS1=F KeepF1=F KeepIn=T MapXYZ=F SortEE=F KeepMc=T.
          MDV=      33554326 using IRadAn=       2.
 Generate precomputed XC quadrature information.
 Keep R1 and R2 ints in memory in symmetry-blocked form, NReq=1084570.
 FoFCou: FMM=F IPFlag=           0 FMFlag=           0 FMFlg1=           0
         NFxFlg=           0 DoJE=F BraDBF=F KetDBF=F FulRan=T
         wScrn=  0.000000 ICntrl=     600 IOpCl=  0 I1Cent=           0 NGrid=           0
         NMat0=    1 NMatS0=    666 NMatT0=    0 NMatD0=    1 NMtDS0=    0 NMtDT0=    0
 Petite list used in FoFCou.
          Solving linear equations simultaneously, MaxMat=       0.
          There are     9 degrees of freedom in the 1st order CPHF.  IDoFFX=4 NUNeed=     9.
      9 vectors produced by pass  0 Test12= 2.82D-15 1.11D-08 XBig12= 4.24D+01 3.29D+00.
 AX will form     9 AO Fock derivatives at one time.
      9 vectors produced by pass  1 Test12= 2.82D-15 1.11D-08 XBig12= 6.96D+00 1.10D+00.
      9 vectors produced by pass  2 Test12= 2.82D-15 1.11D-08 XBig12= 1.32D-01 1.97D-01.
      9 vectors produced by pass  3 Test12= 2.82D-15 1.11D-08 XBig12= 1.12D-03 1.07D-02.
      9 vectors produced by pass  4 Test12= 2.82D-15 1.11D-08 XBig12= 2.74D-06 7.38D-04.
      9 vectors produced by pass  5 Test12= 2.82D-15 1.11D-08 XBig12= 1.06D-08 3.48D-05.
      5 vectors produced by pass  6 Test12= 2.82D-15 1.11D-08 XBig12= 4.03D-11 1.86D-06.
      3 vectors produced by pass  7 Test12= 2.82D-15 1.11D-08 XBig12= 1.03D-13 1.11D-07.
 InvSVY:  IOpt=1 It=  1 EMax= 8.88D-16
 Solved reduced A of dimension    62 with     9 vectors.
 FullF1:  Do perturbations    1 to     9.
 Isotropic polarizability for W=    0.000000       16.79 Bohr**3.
 End of Minotr F.D. properties file   721 does not exist.
 End of Minotr F.D. properties file   722 does not exist.
 End of Minotr F.D. properties file   788 does not exist.
 Leave Link 1002 at Sun Mar  4 20:55:24 2018, MaxMem=    33554432 cpu:         2.3
 (Enter /apl/tryton/gaussian/09/d01/g09/l601.exe)
 Copying SCF densities to generalized density rwf, IOpCl= 1 IROHF=0.

 **********************************************************************

            Population analysis using the SCF density.

 **********************************************************************

 Orbital symmetries:
 Alpha Orbitals:
       Occupied  (A1) (A1) (A1) (B2) (B1)
       Virtual   (A1) (B2) (A1) (B1) (A1) (B2) (A1) (B2) (A1) (B2)
                 (B1) (A1) (B2) (A1) (B1) (A1) (A2) (B2) (A1) (A1)
                 (B1) (A2) (A1) (B2) (B2) (B1) (B2) (A1) (B2) (A1)
                 (A1)
 Beta  Orbitals:
       Occupied  (A1) (A1) (A1)
       Virtual   (B2) (B1) (A1) (B2) (A1) (A1) (B2) (B1) (A1) (B2)
                 (A1) (B2) (A1) (B1) (B2) (A1) (B1) (A1) (A2) (B2)
                 (A1) (A1) (B1) (A2) (A1) (B2) (B2) (B2) (B1) (A1)
                 (B2) (A1) (A1)
 The electronic state is 3-A2.
 Alpha  occ. eigenvalues --  -10.25536  -0.73840  -0.38297  -0.29853  -0.25329
 Alpha virt. eigenvalues --   -0.03847   0.02305   0.05808   0.06919   0.07387
 Alpha virt. eigenvalues --    0.07795   0.11102   0.13083   0.34108   0.41725
 Alpha virt. eigenvalues --    0.51893   0.54082   0.58574   0.70306   0.90262
 Alpha virt. eigenvalues --    1.17339   1.21089   1.32262   1.35316   1.49750
 Alpha virt. eigenvalues --    1.61755   1.71073   2.05494   2.11785   2.28992
 Alpha virt. eigenvalues --    2.64182   2.65580   2.70522   2.91872   3.21385
 Alpha virt. eigenvalues --   23.34976
  Beta  occ. eigenvalues --  -10.23111  -0.67189  -0.32961
  Beta virt. eigenvalues --   -0.14682  -0.08147  -0.02695   0.04288   0.07081
  Beta virt. eigenvalues --    0.08012   0.08828   0.09102   0.11785   0.16032
  Beta virt. eigenvalues --    0.35520   0.43903   0.55399   0.58260   0.63483
  Beta virt. eigenvalues --    0.74613   0.93753   1.25187   1.30588   1.37062
  Beta virt. eigenvalues --    1.38728   1.55590   1.66943   1.75465   2.08088
  Beta virt. eigenvalues --    2.15195   2.32410   2.69947   2.72347   2.73006
  Beta virt. eigenvalues --    2.97316   3.24092  23.37657
          Condensed to atoms (all electrons):
               1          2          3
     1  C    6.458125  -0.090801  -0.090801
     2  H   -0.090801   0.778951   0.173589
     3  H   -0.090801   0.173589   0.778951
          Atomic-Atomic Spin Densities.
               1          2          3
     1  C    1.614264   0.060594   0.060594
     2  H    0.060594   0.244017  -0.172336
     3  H    0.060594  -0.172336   0.244017
 Mulliken charges and spin densities:
               1          2
     1  C   -0.276523   1.735451
     2  H    0.138261   0.132274
     3  H    0.138261   0.132274
 Sum of Mulliken charges =  -0.00000   2.00000
 Mulliken charges and spin densities with hydrogens summed into heavy atoms:
               1          2
     1  C   -0.000000   2.000000
 APT charges:
               1
     1  C   -0.094874
     2  H    0.047437
     3  H    0.047437
 Sum of APT charges =  -0.00000
 APT charges with hydrogens summed into heavy atoms:
               1
     1  C   -0.000000
 Electronic spatial extent (au):  <R**2>=             27.9147
 Charge=             -0.0000 electrons
 Dipole moment (field-independent basis, Debye):
    X=             -0.0000    Y=              0.0000    Z=             -2.4532  Tot=              2.4532
 Quadrupole moment (field-independent basis, Debye-Ang):
   XX=             -9.0746   YY=             -8.0130   ZZ=             -7.4813
   XY=              0.0000   XZ=              0.0000   YZ=             -0.0000
 Traceless Quadrupole moment (field-independent basis, Debye-Ang):
   XX=             -0.8850   YY=              0.1766   ZZ=              0.7083
   XY=              0.0000   XZ=              0.0000   YZ=             -0.0000
 Octapole moment (field-independent basis, Debye-Ang**2):
  XXX=              0.0000  YYY=              0.0000  ZZZ=             -3.6030  XYY=              0.0000
  XXY=             -0.0000  XXZ=             -1.2973  XZZ=              0.0000  YZZ=              0.0000
  YYZ=             -1.3688  XYZ=             -0.0000
 Hexadecapole moment (field-independent basis, Debye-Ang**3):
 XXXX=            -12.8216 YYYY=            -12.8529 ZZZZ=            -22.3404 XXXY=             -0.0000
 XXXZ=             -0.0000 YYYX=             -0.0000 YYYZ=              0.0000 ZZZX=             -0.0000
 ZZZY=             -0.0000 XXYY=             -4.2940 XXZZ=             -6.1530 YYZZ=             -5.6086
 XXYZ=              0.0000 YYXZ=             -0.0000 ZZXY=             -0.0000
 N-N= 5.407486351266D+00 E-N=-1.011694743742D+02  KE= 3.889960572200D+01
 Symmetry A1   KE= 3.665760198139D+01
 Symmetry A2   KE= 2.842189498807D-36
 Symmetry B1   KE= 1.192069414159D+00
 Symmetry B2   KE= 1.049934326446D+00
  Exact polarizability:  12.937   0.000  15.170  -0.000   0.000  22.254
 Approx polarizability:  12.689   0.000  17.910   0.000  -0.000  31.536
                          Isotropic Fermi Contact Couplings
        Atom                 a.u.       MegaHertz       Gauss      10(-4) cm-1
     1  C(13)              0.08624      48.47574      17.29735      16.16977
     2  H(1)               0.03930      87.82495      31.33813      29.29525
     3  H(1)               0.03930      87.82495      31.33813      29.29525
 --------------------------------------------------------
       Center         ----  Spin Dipole Couplings  ----
                      3XX-RR        3YY-RR        3ZZ-RR
 --------------------------------------------------------
     1   Atom        0.797011      0.346204     -1.143215
     2   Atom       -0.059308     -0.057475      0.116783
     3   Atom       -0.059308     -0.057475      0.116783
 --------------------------------------------------------
                        XY            XZ            YZ
 --------------------------------------------------------
     1   Atom        0.000000      0.000000      0.000000
     2   Atom       -0.000000      0.000000     -0.029519
     3   Atom       -0.000000      0.000000      0.029519
 --------------------------------------------------------


 ---------------------------------------------------------------------------------
              Anisotropic Spin Dipole Couplings in Principal Axis System
 ---------------------------------------------------------------------------------

       Atom             a.u.   MegaHertz   Gauss  10(-4) cm-1        Axes

              Baa    -1.1432  -153.408   -54.740   -51.172 -0.0000 -0.0000  1.0000
     1 C(13)  Bbb     0.3462    46.457    16.577    15.496 -0.0000  1.0000  0.0000
              Bcc     0.7970   106.951    38.163    35.675  1.0000  0.0000  0.0000
 
              Baa    -0.0623   -33.262   -11.869   -11.095 -0.0000  0.9867  0.1626
     2 H(1)   Bbb    -0.0593   -31.644   -11.291   -10.555  1.0000  0.0000  0.0000
              Bcc     0.1216    64.906    23.160    21.650  0.0000 -0.1626  0.9867
 
              Baa    -0.0623   -33.262   -11.869   -11.095  0.0000  0.9867 -0.1626
     3 H(1)   Bbb    -0.0593   -31.644   -11.291   -10.555  1.0000 -0.0000  0.0000
              Bcc     0.1216    64.906    23.160    21.650  0.0000  0.1626  0.9867
 

 ---------------------------------------------------------------------------------

 No NMR shielding tensors so no spin-rotation constants.
 Leave Link  601 at Sun Mar  4 20:55:24 2018, MaxMem=    33554432 cpu:         0.2
 (Enter /apl/tryton/gaussian/09/d01/g09/l701.exe)
 Compute integral second derivatives.
 ... and contract with generalized density number  0.
 Leave Link  701 at Sun Mar  4 20:55:24 2018, MaxMem=    33554432 cpu:         0.2
 (Enter /apl/tryton/gaussian/09/d01/g09/l702.exe)
 L702 exits ... SP integral derivatives will be done elsewhere.
 Leave Link  702 at Sun Mar  4 20:55:24 2018, MaxMem=    33554432 cpu:         0.0
 (Enter /apl/tryton/gaussian/09/d01/g09/l703.exe)
 Compute integral second derivatives, UseDBF=F ICtDFT=           0.
 Integral derivatives from FoFJK, PRISM(SPDF).
 Calling FoFJK, ICntrl=    100127 FMM=F ISym2X=1 I1Cent= 0 IOpClX= 1 NMat=1 NMatS=1 NMatT=0.
 FoFJK:  IHMeth= 1 ICntrl=  100127 DoSepK=F KAlg= 0 I1Cent=   0 FoldK=F
 IRaf=         0 NMat=   1 IRICut=       1 DoRegI=T DoRafI=F ISym2E= 1.
 FoFCou: FMM=F IPFlag=           0 FMFlag=      100000 FMFlg1=         800
         NFxFlg=           0 DoJE=F BraDBF=F KetDBF=F FulRan=T
         wScrn=  0.000000 ICntrl=  100127 IOpCl=  1 I1Cent=           0 NGrid=           0
         NMat0=    1 NMatS0=      1 NMatT0=    0 NMatD0=    1 NMtDS0=    0 NMtDT0=    0
 Petite list used in FoFCou.
 Leave Link  703 at Sun Mar  4 20:55:25 2018, MaxMem=    33554432 cpu:         0.8
 (Enter /apl/tryton/gaussian/09/d01/g09/l716.exe)
 Dipole        =-1.67809552D-17 8.82974249D-16-9.65166400D-01
 Polarizability= 1.29369207D+01 1.40647346D-09 1.51704766D+01
                -1.96770979D-09 1.89367272D-09 2.22543712D+01
 Full mass-weighted force constant matrix:
 Low frequencies ---   -6.0970    0.0005    0.0007    0.0008   14.8208   17.7920
 Low frequencies ---  906.1378 1458.0371 2645.1729
 Diagonal vibrational polarizability:
        0.0000000       0.0005689       3.1518331
 Harmonic frequencies (cm**-1), IR intensities (KM/Mole), Raman scattering
 activities (A**4/AMU), depolarization ratios for plane and unpolarized
 incident light, reduced masses (AMU), force constants (mDyne/A),
 and normal coordinates:
                      1                      2                      3
                     A1                     B2                     A1
 Frequencies --    906.1378              1458.0370              2645.1729
 Red. masses --      1.1387                 1.0262                 1.0250
 Frc consts  --      0.5509                 1.2854                 4.2256
 IR Inten    --     88.8161                 0.0449                62.6271
  Atom  AN      X      Y      Z        X      Y      Z        X      Y      Z
     1   6     0.00   0.00   0.11     0.00   0.04  -0.00     0.00   0.00   0.04
     2   1    -0.00  -0.27  -0.65     0.00  -0.24   0.66     0.00   0.67  -0.24
     3   1     0.00   0.27  -0.65    -0.00  -0.24  -0.66    -0.00  -0.67  -0.24

 -------------------
 - Thermochemistry -
 -------------------
 Temperature   298.150 Kelvin.  Pressure   1.00000 Atm.
 Atom     1 has atomic number  6 and mass  12.00000
 Atom     2 has atomic number  1 and mass   1.00783
 Atom     3 has atomic number  1 and mass   1.00783
 Molecular mass:    14.01565 amu.
 Principal axes and moments of inertia in atomic units:
                           1         2         3
     Eigenvalues --     1.48161   9.40916  10.89078
           X            0.00000   0.00000   1.00000
           Y           -0.00000   1.00000  -0.00000
           Z            1.00000   0.00000  -0.00000
 This molecule is an asymmetric top.
 Rotational symmetry number  2.
 Rotational temperatures (Kelvin)     58.45916     9.20526     7.95295
 Rotational constants (GHZ):        1218.09264   191.80674   165.71280
 Zero-point vibrational energy      29962.6 (Joules/Mol)
                                    7.16122 (Kcal/Mol)
 Vibrational temperatures:   1303.73  2097.79  3805.81
          (Kelvin)
 
 Zero-point correction=                           0.011412 (Hartree/Particle)
 Thermal correction to Energy=                    0.014303
 Thermal correction to Enthalpy=                  0.015248
 Thermal correction to Gibbs Free Energy=        -0.007374
 Sum of electronic and zero-point Energies=            -39.037147
 Sum of electronic and thermal Energies=               -39.034256
 Sum of electronic and thermal Enthalpies=             -39.033312
 Sum of electronic and thermal Free Energies=          -39.055933
 
                     E (Thermal)             CV                S
                      KCal/Mol        Cal/Mol-Kelvin    Cal/Mol-Kelvin
 Total                    8.975              6.541             47.610
 Electronic               0.000              0.000              2.183
 Translational            0.889              2.981             33.861
 Rotational               0.889              2.981             11.416
 Vibrational              7.198              0.579              0.150
                       Q            Log10(Q)             Ln(Q)
 Total Bot       0.246420D+04          3.391677          7.809624
 Total V=0       0.437404D+09          8.640883         19.896368
 Vib (Bot)       0.571073D-05         -5.243308        -12.073164
 Vib (V=0)       0.101367D+01          0.005898          0.013580
 Electronic      0.300000D+01          0.477121          1.098612
 Translational   0.206241D+07          6.314375         14.539386
 Rotational      0.697411D+02          1.843489          4.244790
 
                                                                 min
                                                             IR Spectrum
 
      2                                                       1                                                                      
      6                                                       4                          9                                           
      4                                                       5                          0                                           
      5                                                       8                          6                                           
 
      X                                                                                  X                                           
      X                                                                                  X                                           
      X                                                                                  X                                           
      X                                                                                  X                                           
      X                                                                                  X                                           
      X                                                                                  X                                           
      X                                                                                  X                                           
      X                                                                                  X                                           
      X                                                                                  X                                           
      X                                                                                  X                                           
      X                                                                                  X                                           
      X                                                                                  X                                           
      X                                                                                  X                                           
      X                                                                                  X                                           
                                                                                         X                                           
                                                                                         X                                           
                                                                                         X                                           
                                                                                         X                                           
                                                                                         X                                           
                                                                                         X                                           
 
 ***** Axes restored to original set *****
 -------------------------------------------------------------------
 Center     Atomic                   Forces (Hartrees/Bohr)
 Number     Number              X              Y              Z
 -------------------------------------------------------------------
      1        6          -0.000011946   -0.000001105    0.000000000
      2        1           0.000005994    0.000000322    0.000000000
      3        1           0.000005951    0.000000784   -0.000000000
 -------------------------------------------------------------------
 Cartesian Forces:  Max     0.000011946 RMS     0.000004899
 Z-matrix is all fixed cartesians, so copy forces.
 Force constants in Cartesian coordinates: 
                1             2             3             4             5 
      1  0.104224D+00
      2  0.789228D-02  0.196648D-01
      3  0.000000D+00  0.000000D+00 -0.242779D-05
      4 -0.611375D-01  0.209561D-01  0.000000D+00  0.708054D-01
      5  0.678539D-01 -0.806709D-03  0.000000D+00 -0.540325D-01  0.113625D+00
      6  0.000000D+00  0.000000D+00  0.121389D-05  0.000000D+00  0.000000D+00
      7 -0.430861D-01 -0.288484D-01  0.000000D+00 -0.966786D-02 -0.138214D-01
      8 -0.757462D-01 -0.188581D-01  0.000000D+00  0.330764D-01 -0.112818D+00
      9  0.000000D+00  0.000000D+00  0.121391D-05  0.000000D+00  0.000000D+00
                6             7             8             9 
      6  0.542969D-05
      7  0.000000D+00  0.527540D-01
      8  0.000000D+00  0.426698D-01  0.131676D+00
      9 -0.664358D-05  0.000000D+00  0.000000D+00  0.542969D-05
 Leave Link  716 at Sun Mar  4 20:55:25 2018, MaxMem=    33554432 cpu:         0.0
 (Enter /apl/tryton/gaussian/09/d01/g09/l103.exe)

 GradGradGradGradGradGradGradGradGradGradGradGradGradGradGradGradGradGrad
 Berny optimization.
 Search for a local minimum.
 Step number   1 out of a maximum of    2
 All quantities printed in internal units (Hartrees-Bohrs-Radians)
 Second derivative matrix not updated -- analytic derivatives used.
 The second derivative matrix:
                          X1        Y1        Z1        X2        Y2
           X1           0.10422
           Y1           0.00789   0.01966
           Z1           0.00000   0.00000  -0.00000
           X2          -0.06114   0.02096   0.00000   0.07081
           Y2           0.06785  -0.00081  -0.00000  -0.05403   0.11362
           Z2          -0.00000  -0.00000   0.00000  -0.00000   0.00000
           X3          -0.04309  -0.02885  -0.00000  -0.00967  -0.01382
           Y3          -0.07575  -0.01886  -0.00000   0.03308  -0.11282
           Z3           0.00000   0.00000   0.00000   0.00000  -0.00000
                          Z2        X3        Y3        Z3
           Z2           0.00001
           X3          -0.00000   0.05275
           Y3          -0.00000   0.04267   0.13168
           Z3          -0.00001   0.00000   0.00000   0.00001
 ITU=  0
     Eigenvalues ---    0.05720   0.09203   0.30955
 Angle between quadratic step and forces=  35.83 degrees.
 ClnCor:  largest displacement from symmetrization is 3.33D-14 for atom     3.
 Linear search not attempted -- first point.
 ClnCor:  largest displacement from symmetrization is 1.40D-15 for atom     3.
 TrRot= -0.000042 -0.000004  0.000000  0.000000  0.000000  0.000000
 Variable       Old X    -DE/DX   Delta X   Delta X   Delta X     New X
                                 (Linear)    (Quad)   (Total)
    X1        0.05763  -0.00001   0.00000  -0.00009  -0.00013   0.05750
    Y1       -0.00946  -0.00000   0.00000  -0.00001  -0.00001  -0.00947
    Z1        0.00000   0.00000   0.00000   0.00000   0.00000   0.00000
    X2        2.46168   0.00001   0.00000   0.00010   0.00006   2.46174
    Y2       -0.64802   0.00000   0.00000   0.00007   0.00006  -0.64795
    Z2       -0.00000   0.00000   0.00000   0.00000   0.00000  -0.00000
    X3        2.30368   0.00001   0.00000   0.00011   0.00007   2.30375
    Y3        1.05940   0.00000   0.00000  -0.00005  -0.00005   1.05934
    Z3        0.00000  -0.00000   0.00000  -0.00000  -0.00000   0.00000
         Item               Value     Threshold  Converged?
 Maximum Force            0.000012     0.000450     YES
 RMS     Force            0.000005     0.000300     YES
 Maximum Displacement     0.000130     0.001800     YES
 RMS     Displacement     0.000060     0.001200     YES
 Predicted change in Energy=-1.163316D-09
 Optimization completed.
    -- Stationary point found.
 GradGradGradGradGradGradGradGradGradGradGradGradGradGradGradGradGradGrad

 Leave Link  103 at Sun Mar  4 20:55:25 2018, MaxMem=    33554432 cpu:         0.0
 (Enter /apl/tryton/gaussian/09/d01/g09/l9999.exe)
 1\1\ CITASK-GV1114\Freq\UB3LYP\6-311++G(d,p)\C1H2(3)\EERD\04-Mar-2018\
 0\\#p b3lyp/6-311++g(d,p) freq\\min\\0,3\C,0.030496,-0.0050059999,0.\H
 ,1.302664049,-0.342915178,0.\H,1.219055952,0.5606081777,0.\\Version=ES
 64L-G09RevD.01\State=3-A2\HF=-39.0485591\S2=2.006432\S2-1=0.\S2A=2.000
 002\RMSD=9.817e-09\RMSF=4.899e-06\ZeroPoint=0.0114121\Thermal=0.014303
 3\Dipole=0.9610605,0.0889323,0.\DipoleDeriv=0.4819949,0.0779547,0.,0.0
 779547,-0.3532209,0.,0.,0.,-0.4133967,-0.2560215,0.0317338,0.,0.051280
 4,0.1916345,0.,0.,0.,0.2066983,-0.2259734,-0.1096885,0.,-0.1292351,0.1
 615864,0.,0.,0.,0.2066983\Polar=22.194228,0.6499472,15.2306198,0.,0.,1
 2.9369207\PG=C02V [C2(C1),SGV(H2)]\NImag=0\\0.10422361,0.00789228,0.01
 966481,0.,0.,-0.00000243,-0.06113750,0.02095615,0.,0.07080536,0.067853
 89,-0.00080671,0.,-0.05403252,0.11362475,0.,0.,0.00000121,0.,0.,0.0000
 0543,-0.04308611,-0.02884843,0.,-0.00966786,-0.01382136,0.,0.05275397,
 -0.07574617,-0.01885810,0.,0.03307637,-0.11281804,0.,0.04266979,0.1316
 7614,0.,0.,0.00000121,0.,0.,-0.00000664,0.,0.,0.00000543\\0.00001195,0
 .00000111,0.,-0.00000599,-0.00000032,0.,-0.00000595,-0.00000078,0.\\\@


 LEARN FROM YESTERDAY,
 LIVE FOR TODAY,
 LOOK TO TOMORROW,
 REST THIS AFTERNOON.

           -- SNOOPY
 Job cpu time:       0 days  0 hours  0 minutes  5.8 seconds.
 File lengths (MBytes):  RWF=      5 Int=      0 D2E=      0 Chk=      1 Scr=      1
 Normal termination of Gaussian 09 at Sun Mar  4 20:55:25 2018.
