 Entering Gaussian System, Link 0=g09
 Initial command:
 /apl/tryton/gaussian/09/d01/g09/l1.exe "/users/work/eerd/M3C-outputs/4/Gau-19755.inp" -scrdir="/users/work/eerd/M3C-outputs/4/"
 Entering Link 1 = /apl/tryton/gaussian/09/d01/g09/l1.exe PID=     19756.
  
 Copyright (c) 1988,1990,1992,1993,1995,1998,2003,2009,2013,
            Gaussian, Inc.  All Rights Reserved.
  
 This is part of the Gaussian(R) 09 program.  It is based on
 the Gaussian(R) 03 system (copyright 2003, Gaussian, Inc.),
 the Gaussian(R) 98 system (copyright 1998, Gaussian, Inc.),
 the Gaussian(R) 94 system (copyright 1995, Gaussian, Inc.),
 the Gaussian 92(TM) system (copyright 1992, Gaussian, Inc.),
 the Gaussian 90(TM) system (copyright 1990, Gaussian, Inc.),
 the Gaussian 88(TM) system (copyright 1988, Gaussian, Inc.),
 the Gaussian 86(TM) system (copyright 1986, Carnegie Mellon
 University), and the Gaussian 82(TM) system (copyright 1983,
 Carnegie Mellon University). Gaussian is a federally registered
 trademark of Gaussian, Inc.
  
 This software contains proprietary and confidential information,
 including trade secrets, belonging to Gaussian, Inc.
  
 This software is provided under written license and may be
 used, copied, transmitted, or stored only in accord with that
 written license.
  
 The following legend is applicable only to US Government
 contracts under FAR:
  
                    RESTRICTED RIGHTS LEGEND
  
 Use, reproduction and disclosure by the US Government is
 subject to restrictions as set forth in subparagraphs (a)
 and (c) of the Commercial Computer Software - Restricted
 Rights clause in FAR 52.227-19.
  
 Gaussian, Inc.
 340 Quinnipiac St., Bldg. 40, Wallingford CT 06492
  
  
 ---------------------------------------------------------------
 Warning -- This program may not be used in any manner that
 competes with the business of Gaussian, Inc. or will provide
 assistance to any competitor of Gaussian, Inc.  The licensee
 of this program is prohibited from giving any competitor of
 Gaussian, Inc. access to this program.  By using this program,
 the user acknowledges that Gaussian, Inc. is engaged in the
 business of creating and licensing software in the field of
 computational chemistry and represents and warrants to the
 licensee that it is not a competitor of Gaussian, Inc. and that
 it will not use this program in any manner prohibited above.
 ---------------------------------------------------------------
  

 Cite this work as:
 Gaussian 09, Revision D.01,
 M. J. Frisch, G. W. Trucks, H. B. Schlegel, G. E. Scuseria, 
 M. A. Robb, J. R. Cheeseman, G. Scalmani, V. Barone, B. Mennucci, 
 G. A. Petersson, H. Nakatsuji, M. Caricato, X. Li, H. P. Hratchian, 
 A. F. Izmaylov, J. Bloino, G. Zheng, J. L. Sonnenberg, M. Hada, 
 M. Ehara, K. Toyota, R. Fukuda, J. Hasegawa, M. Ishida, T. Nakajima, 
 Y. Honda, O. Kitao, H. Nakai, T. Vreven, J. A. Montgomery, Jr., 
 J. E. Peralta, F. Ogliaro, M. Bearpark, J. J. Heyd, E. Brothers, 
 K. N. Kudin, V. N. Staroverov, T. Keith, R. Kobayashi, J. Normand, 
 K. Raghavachari, A. Rendell, J. C. Burant, S. S. Iyengar, J. Tomasi, 
 M. Cossi, N. Rega, J. M. Millam, M. Klene, J. E. Knox, J. B. Cross, 
 V. Bakken, C. Adamo, J. Jaramillo, R. Gomperts, R. E. Stratmann, 
 O. Yazyev, A. J. Austin, R. Cammi, C. Pomelli, J. W. Ochterski, 
 R. L. Martin, K. Morokuma, V. G. Zakrzewski, G. A. Voth, 
 P. Salvador, J. J. Dannenberg, S. Dapprich, A. D. Daniels, 
 O. Farkas, J. B. Foresman, J. V. Ortiz, J. Cioslowski, 
 and D. J. Fox, Gaussian, Inc., Wallingford CT, 2013.
 
 ******************************************
 Gaussian 09:  ES64L-G09RevD.01 24-Apr-2013
                 4-Mar-2018 
 ******************************************
 ---------------------------
 #p b3lyp/6-311++g(d,p) freq
 ---------------------------
 1/10=4,30=1,38=1/1,3;
 2/12=2,17=6,18=5,40=1/2;
 3/5=4,6=6,7=1111,11=2,16=1,25=1,30=1,71=2,74=-5,140=1/1,2,3;
 4//1;
 5/5=2,38=5,98=1/2;
 8/6=4,10=90,11=11/1;
 11/6=1,8=1,9=11,15=111,16=1/1,2,10;
 10/6=1/2;
 6/7=2,8=2,9=2,10=2,18=1,28=1/1;
 7/8=1,10=1,25=1/1,2,3,16;
 1/10=4,30=1/3;
 99//99;
 Leave Link    1 at Sun Mar  4 20:56:02 2018, MaxMem=           0 cpu:         0.0
 (Enter /apl/tryton/gaussian/09/d01/g09/l101.exe)
 ---
 min
 ---
 Symbolic Z-matrix:
 Charge =  0 Multiplicity = 3
 C                     0.61818   0.35687  -0.03604 
 C                    -0.27391  -0.62688  -0.01395 
 H                     0.63775   1.27885   0.55312 
 H                    -1.17616  -0.72145   0.59805 
 
 NAtoms=      4 NQM=        4 NQMF=       0 NMMI=      0 NMMIF=      0
                NMic=       0 NMicF=      0.
                    Isotopes and Nuclear Properties:
 (Nuclear quadrupole moments (NQMom) in fm**2, nuclear magnetic moments (NMagM)
  in nuclear magnetons)

  Atom         1           2           3           4
 IAtWgt=          12          12           1           1
 AtmWgt=  12.0000000  12.0000000   1.0078250   1.0078250
 NucSpn=           0           0           1           1
 AtZEff=   0.0000000   0.0000000   0.0000000   0.0000000
 NQMom=    0.0000000   0.0000000   0.0000000   0.0000000
 NMagM=    0.0000000   0.0000000   2.7928460   2.7928460
 AtZNuc=   6.0000000   6.0000000   1.0000000   1.0000000
 Leave Link  101 at Sun Mar  4 20:56:02 2018, MaxMem=    33554432 cpu:         0.1
 (Enter /apl/tryton/gaussian/09/d01/g09/l103.exe)

 GradGradGradGradGradGradGradGradGradGradGradGradGradGradGradGradGradGrad
 Berny optimization.
 Initialization pass.
 Trust Radius=3.00D-01 FncErr=1.00D-07 GrdErr=1.00D-07
 Number of steps in this run=      2 maximum allowed number of steps=      2.
 GradGradGradGradGradGradGradGradGradGradGradGradGradGradGradGradGradGrad

 Leave Link  103 at Sun Mar  4 20:56:02 2018, MaxMem=    33554432 cpu:         0.0
 (Enter /apl/tryton/gaussian/09/d01/g09/l202.exe)
                          Input orientation:                          
 ---------------------------------------------------------------------
 Center     Atomic      Atomic             Coordinates (Angstroms)
 Number     Number       Type             X           Y           Z
 ---------------------------------------------------------------------
      1          6           0        0.618175    0.356871   -0.036043
      2          6           0       -0.273914   -0.626880   -0.013947
      3          1           0        0.637755    1.278846    0.553121
      4          1           0       -1.176164   -0.721449    0.598049
 ---------------------------------------------------------------------
                    Distance matrix (angstroms):
                    1          2          3          4
     1  C    0.000000
     2  C    1.328185   0.000000
     3  H    1.094320   2.187350   0.000000
     4  H    2.187350   1.094320   2.700648   0.000000
 Stoichiometry    C2H2(3)
 Framework group  C2V[SGV(C2H2)]
 Deg. of freedom     3
 Full point group                 C2V     NOp   4
 Largest Abelian subgroup         C2V     NOp   4
 Largest concise Abelian subgroup C2      NOp   2
                         Standard orientation:                         
 ---------------------------------------------------------------------
 Center     Atomic      Atomic             Coordinates (Angstroms)
 Number     Number       Type             X           Y           Z
 ---------------------------------------------------------------------
      1          6           0       -0.000000    0.664093   -0.121775
      2          6           0        0.000000   -0.664093   -0.121775
      3          1           0       -0.000000    1.350324    0.730647
      4          1           0        0.000000   -1.350324    0.730647
 ---------------------------------------------------------------------
 Rotational constants (GHZ):    374.0384968     35.4409648     32.3735045
 Leave Link  202 at Sun Mar  4 20:56:02 2018, MaxMem=    33554432 cpu:         0.0
 (Enter /apl/tryton/gaussian/09/d01/g09/l301.exe)
 Standard basis: 6-311++G(d,p) (5D, 7F)
 Ernie: Thresh=  0.10000D-02 Tol=  0.10000D-05 Strict=F.
 There are    23 symmetry adapted cartesian basis functions of A1  symmetry.
 There are     7 symmetry adapted cartesian basis functions of A2  symmetry.
 There are     7 symmetry adapted cartesian basis functions of B1  symmetry.
 There are    23 symmetry adapted cartesian basis functions of B2  symmetry.
 There are    22 symmetry adapted basis functions of A1  symmetry.
 There are     7 symmetry adapted basis functions of A2  symmetry.
 There are     7 symmetry adapted basis functions of B1  symmetry.
 There are    22 symmetry adapted basis functions of B2  symmetry.
    58 basis functions,    90 primitive gaussians,    60 cartesian basis functions
     8 alpha electrons        6 beta electrons
       nuclear repulsion energy        23.2450289371 Hartrees.
 IExCor=  402 DFT=T Ex+Corr=B3LYP ExCW=0 ScaHFX=  0.200000
 ScaDFX=  0.800000  0.720000  1.000000  0.810000 ScalE2=  1.000000  1.000000
 IRadAn=      0 IRanWt=     -1 IRanGd=            0 ICorTp=0 IEmpDi=  4
 NAtoms=    4 NActive=    4 NUniq=    2 SFac= 4.00D+00 NAtFMM=   60 NAOKFM=F Big=F
 Integral buffers will be    131072 words long.
 Raffenetti 2 integral format.
 Two-electron integral symmetry is turned on.
 Leave Link  301 at Sun Mar  4 20:56:02 2018, MaxMem=    33554432 cpu:         0.0
 (Enter /apl/tryton/gaussian/09/d01/g09/l302.exe)
 NPDir=0 NMtPBC=     1 NCelOv=     1 NCel=       1 NClECP=     1 NCelD=      1
         NCelK=      1 NCelE2=     1 NClLst=     1 CellRange=     0.0.
 One-electron integrals computed using PRISM.
 One-electron integral symmetry used in STVInt
 NBasis=    58 RedAO= T EigKep=  1.78D-04  NBF=    22     7     7    22
 NBsUse=    58 1.00D-06 EigRej= -1.00D+00 NBFU=    22     7     7    22
 Precomputing XC quadrature grid using
 IXCGrd= 4 IRadAn=           0 IRanWt=          -1 IRanGd=           0 AccXCQ= 0.00D+00.
 Generated NRdTot=       0 NPtTot=           0 NUsed=           0 NTot=          32
 NSgBfM=    60    60    60    60    60 MxSgAt=     4 MxSgA2=     4.
 Leave Link  302 at Sun Mar  4 20:56:02 2018, MaxMem=    33554432 cpu:         0.1
 (Enter /apl/tryton/gaussian/09/d01/g09/l303.exe)
 DipDrv:  MaxL=1.
 Leave Link  303 at Sun Mar  4 20:56:02 2018, MaxMem=    33554432 cpu:         0.0
 (Enter /apl/tryton/gaussian/09/d01/g09/l401.exe)
 ExpMin= 3.60D-02 ExpMax= 4.56D+03 ExpMxC= 6.82D+02 IAcc=3 IRadAn=         5 AccDes= 0.00D+00
 Harris functional with IExCor=  402 and IRadAn=       5 diagonalized for initial guess.
 HarFok:  IExCor=  402 AccDes= 0.00D+00 IRadAn=         5 IDoV= 1 UseB2=F ITyADJ=14
 ICtDFT=  3500011 ScaDFX=  1.000000  1.000000  1.000000  1.000000
 FoFCou: FMM=F IPFlag=           0 FMFlag=      100000 FMFlg1=           0
         NFxFlg=           0 DoJE=T BraDBF=F KetDBF=T FulRan=T
         wScrn=  0.000000 ICntrl=     500 IOpCl=  0 I1Cent=   200000004 NGrid=           0
         NMat0=    1 NMatS0=      1 NMatT0=    0 NMatD0=    1 NMtDS0=    0 NMtDT0=    0
 Petite list used in FoFCou.
 Harris En= -77.1664803982587    
 JPrj=0 DoOrth=F DoCkMO=F.
 Initial guess orbital symmetries:
 Alpha Orbitals:
       Occupied  (A1) (B2) (A1) (B2) (A1) (B1) (A1) (B2)
       Virtual   (A2) (A1) (B2) (A1) (B1) (A1) (B2) (A2) (A1) (A1)
                 (B2) (B2) (B2) (B2) (A1) (A1) (B1) (A1) (A2) (B2)
                 (B2) (B2) (A1) (B2) (B1) (A1) (B1) (A2) (B2) (A1)
                 (A1) (B1) (B2) (A2) (A1) (B2) (A2) (B2) (A1) (A1)
                 (B2) (B1) (A1) (B2) (A2) (B2) (A1) (B2) (A1) (B2)
 Beta  Orbitals:
       Occupied  (A1) (B2) (A1) (B2) (A1) (B1)
       Virtual   (A1) (B2) (A2) (A1) (B2) (A1) (B1) (A1) (B2) (A2)
                 (A1) (A1) (B2) (B2) (B2) (B2) (A1) (A1) (B1) (A1)
                 (A2) (B2) (B2) (B2) (A1) (B2) (B1) (A1) (B1) (A2)
                 (B2) (A1) (A1) (B1) (B2) (A2) (A1) (B2) (A2) (B2)
                 (A1) (A1) (B2) (B1) (A1) (B2) (A2) (B2) (A1) (B2)
                 (A1) (B2)
 The electronic state of the initial guess is 3-B2.
 Initial guess <Sx>= 0.0000 <Sy>= 0.0000 <Sz>= 1.0000 <S**2>= 2.0000 S= 1.0000
 Leave Link  401 at Sun Mar  4 20:56:02 2018, MaxMem=    33554432 cpu:         0.2
 (Enter /apl/tryton/gaussian/09/d01/g09/l502.exe)
 UHF open shell SCF:
 Using DIIS extrapolation, IDIIS=  1040.
 Integral symmetry usage will be decided dynamically.
 Keep R1 and R2 ints in memory in symmetry-blocked form, NReq=2380748.
 IVT=       30294 IEndB=       30294 NGot=    33554432 MDV=    32728243
 LenX=    32728243 LenY=    32724202
 Requested convergence on RMS density matrix=1.00D-08 within 128 cycles.
 Requested convergence on MAX density matrix=1.00D-06.
 Requested convergence on             energy=1.00D-06.
 No special actions if energy rises.
 FoFCou: FMM=F IPFlag=           0 FMFlag=           0 FMFlg1=           0
         NFxFlg=           0 DoJE=F BraDBF=F KetDBF=F FulRan=T
         wScrn=  0.000000 ICntrl=     600 IOpCl=  0 I1Cent=           0 NGrid=           0
         NMat0=    1 NMatS0=   1711 NMatT0=    0 NMatD0=    1 NMtDS0=    0 NMtDT0=    0
 Petite list used in FoFCou.

 Cycle   1  Pass 1  IDiag  1:
 E= -77.1836376465889    
 DIIS: error= 2.90D-02 at cycle   1 NSaved=   1.
 NSaved= 1 IEnMin= 1 EnMin= -77.1836376465889     IErMin= 1 ErrMin= 2.90D-02
 ErrMax= 2.90D-02  0.00D+00 EMaxC= 1.00D-01 BMatC= 1.33D-01 BMatP= 1.33D-01
 IDIUse=3 WtCom= 7.10D-01 WtEn= 2.90D-01
 Coeff-Com:  0.100D+01
 Coeff-En:   0.100D+01
 Coeff:      0.100D+01
 Gap=     0.179 Goal=   None    Shift=    0.000
 Gap=     0.117 Goal=   None    Shift=    0.000
 GapD=    0.117 DampG=1.000 DampE=0.500 DampFc=0.5000 IDamp=-1.
 Damping current iteration by 5.00D-01
 RMSDP=4.75D-03 MaxDP=7.11D-02              OVMax= 1.32D-01

 Cycle   2  Pass 1  IDiag  1:
 E= -77.2006795949851     Delta-E=       -0.017041948396 Rises=F Damp=T
 DIIS: error= 4.95D-03 at cycle   2 NSaved=   2.
 NSaved= 2 IEnMin= 2 EnMin= -77.2006795949851     IErMin= 2 ErrMin= 4.95D-03
 ErrMax= 4.95D-03  0.00D+00 EMaxC= 1.00D-01 BMatC= 8.55D-03 BMatP= 1.33D-01
 IDIUse=3 WtCom= 9.50D-01 WtEn= 4.95D-02
 Coeff-Com: -0.106D+00 0.111D+01
 Coeff-En:   0.000D+00 0.100D+01
 Coeff:     -0.100D+00 0.110D+01
 Gap=     0.201 Goal=   None    Shift=    0.000
 Gap=     0.117 Goal=   None    Shift=    0.000
 RMSDP=1.54D-03 MaxDP=1.45D-02 DE=-1.70D-02 OVMax= 6.79D-02

 Cycle   3  Pass 1  IDiag  1:
 E= -77.2179319568256     Delta-E=       -0.017252361840 Rises=F Damp=F
 DIIS: error= 2.99D-03 at cycle   3 NSaved=   3.
 NSaved= 3 IEnMin= 3 EnMin= -77.2179319568256     IErMin= 3 ErrMin= 2.99D-03
 ErrMax= 2.99D-03  0.00D+00 EMaxC= 1.00D-01 BMatC= 1.05D-03 BMatP= 8.55D-03
 IDIUse=3 WtCom= 9.70D-01 WtEn= 2.99D-02
 Coeff-Com: -0.911D-01 0.172D+00 0.919D+00
 Coeff-En:   0.000D+00 0.000D+00 0.100D+01
 Coeff:     -0.884D-01 0.167D+00 0.922D+00
 Gap=     0.197 Goal=   None    Shift=    0.000
 Gap=     0.117 Goal=   None    Shift=    0.000
 RMSDP=3.11D-04 MaxDP=4.58D-03 DE=-1.73D-02 OVMax= 9.84D-03

 Cycle   4  Pass 1  IDiag  1:
 E= -77.2182616425750     Delta-E=       -0.000329685749 Rises=F Damp=F
 DIIS: error= 5.12D-04 at cycle   4 NSaved=   4.
 NSaved= 4 IEnMin= 4 EnMin= -77.2182616425750     IErMin= 4 ErrMin= 5.12D-04
 ErrMax= 5.12D-04  0.00D+00 EMaxC= 1.00D-01 BMatC= 3.24D-05 BMatP= 1.05D-03
 IDIUse=3 WtCom= 9.95D-01 WtEn= 5.12D-03
 Coeff-Com: -0.183D-01 0.974D-02 0.219D+00 0.789D+00
 Coeff-En:   0.000D+00 0.000D+00 0.000D+00 0.100D+01
 Coeff:     -0.182D-01 0.969D-02 0.218D+00 0.790D+00
 Gap=     0.198 Goal=   None    Shift=    0.000
 Gap=     0.117 Goal=   None    Shift=    0.000
 RMSDP=1.05D-04 MaxDP=7.90D-04 DE=-3.30D-04 OVMax= 1.83D-03

 Cycle   5  Pass 1  IDiag  1:
 E= -77.2182716995208     Delta-E=       -0.000010056946 Rises=F Damp=F
 DIIS: error= 9.84D-05 at cycle   5 NSaved=   5.
 NSaved= 5 IEnMin= 5 EnMin= -77.2182716995208     IErMin= 5 ErrMin= 9.84D-05
 ErrMax= 9.84D-05  0.00D+00 EMaxC= 1.00D-01 BMatC= 9.27D-07 BMatP= 3.24D-05
 IDIUse=1 WtCom= 1.00D+00 WtEn= 0.00D+00
 Coeff-Com:  0.414D-02-0.103D-01-0.393D-01 0.474D-01 0.998D+00
 Coeff:      0.414D-02-0.103D-01-0.393D-01 0.474D-01 0.998D+00
 Gap=     0.198 Goal=   None    Shift=    0.000
 Gap=     0.117 Goal=   None    Shift=    0.000
 RMSDP=1.44D-05 MaxDP=2.11D-04 DE=-1.01D-05 OVMax= 5.34D-04

 Cycle   6  Pass 1  IDiag  1:
 E= -77.2182722258971     Delta-E=       -0.000000526376 Rises=F Damp=F
 DIIS: error= 1.82D-05 at cycle   6 NSaved=   6.
 NSaved= 6 IEnMin= 6 EnMin= -77.2182722258971     IErMin= 6 ErrMin= 1.82D-05
 ErrMax= 1.82D-05  0.00D+00 EMaxC= 1.00D-01 BMatC= 4.21D-08 BMatP= 9.27D-07
 IDIUse=1 WtCom= 1.00D+00 WtEn= 0.00D+00
 Coeff-Com:  0.485D-03 0.531D-04-0.615D-02-0.284D-01 0.705D-02 0.103D+01
 Coeff:      0.485D-03 0.531D-04-0.615D-02-0.284D-01 0.705D-02 0.103D+01
 Gap=     0.198 Goal=   None    Shift=    0.000
 Gap=     0.117 Goal=   None    Shift=    0.000
 RMSDP=4.02D-06 MaxDP=3.82D-05 DE=-5.26D-07 OVMax= 7.66D-05

 Cycle   7  Pass 1  IDiag  1:
 E= -77.2182722480423     Delta-E=       -0.000000022145 Rises=F Damp=F
 DIIS: error= 4.61D-06 at cycle   7 NSaved=   7.
 NSaved= 7 IEnMin= 7 EnMin= -77.2182722480423     IErMin= 7 ErrMin= 4.61D-06
 ErrMax= 4.61D-06  0.00D+00 EMaxC= 1.00D-01 BMatC= 2.58D-09 BMatP= 4.21D-08
 IDIUse=1 WtCom= 1.00D+00 WtEn= 0.00D+00
 Coeff-Com: -0.265D-03 0.656D-03 0.216D-02-0.473D-02-0.518D-01-0.824D-03
 Coeff-Com:  0.105D+01
 Coeff:     -0.265D-03 0.656D-03 0.216D-02-0.473D-02-0.518D-01-0.824D-03
 Coeff:      0.105D+01
 Gap=     0.198 Goal=   None    Shift=    0.000
 Gap=     0.117 Goal=   None    Shift=    0.000
 RMSDP=8.38D-07 MaxDP=1.01D-05 DE=-2.21D-08 OVMax= 2.28D-05

 Cycle   8  Pass 1  IDiag  1:
 E= -77.2182722495525     Delta-E=       -0.000000001510 Rises=F Damp=F
 DIIS: error= 7.67D-07 at cycle   8 NSaved=   8.
 NSaved= 8 IEnMin= 8 EnMin= -77.2182722495525     IErMin= 8 ErrMin= 7.67D-07
 ErrMax= 7.67D-07  0.00D+00 EMaxC= 1.00D-01 BMatC= 9.90D-11 BMatP= 2.58D-09
 IDIUse=1 WtCom= 1.00D+00 WtEn= 0.00D+00
 Coeff-Com: -0.434D-04 0.451D-04 0.454D-03 0.953D-03-0.335D-02-0.451D-01
 Coeff-Com:  0.221D-01 0.102D+01
 Coeff:     -0.434D-04 0.451D-04 0.454D-03 0.953D-03-0.335D-02-0.451D-01
 Coeff:      0.221D-01 0.102D+01
 Gap=     0.198 Goal=   None    Shift=    0.000
 Gap=     0.117 Goal=   None    Shift=    0.000
 RMSDP=1.94D-07 MaxDP=2.28D-06 DE=-1.51D-09 OVMax= 5.02D-06

 Cycle   9  Pass 1  IDiag  1:
 E= -77.2182722496110     Delta-E=       -0.000000000059 Rises=F Damp=F
 DIIS: error= 1.68D-07 at cycle   9 NSaved=   9.
 NSaved= 9 IEnMin= 9 EnMin= -77.2182722496110     IErMin= 9 ErrMin= 1.68D-07
 ErrMax= 1.68D-07  0.00D+00 EMaxC= 1.00D-01 BMatC= 3.58D-12 BMatP= 9.90D-11
 IDIUse=1 WtCom= 1.00D+00 WtEn= 0.00D+00
 Coeff-Com:  0.150D-04-0.274D-04-0.127D-03 0.147D-03 0.183D-02 0.729D-02
 Coeff-Com: -0.415D-01-0.138D+00 0.117D+01
 Coeff:      0.150D-04-0.274D-04-0.127D-03 0.147D-03 0.183D-02 0.729D-02
 Coeff:     -0.415D-01-0.138D+00 0.117D+01
 Gap=     0.198 Goal=   None    Shift=    0.000
 Gap=     0.117 Goal=   None    Shift=    0.000
 RMSDP=7.31D-08 MaxDP=7.55D-07 DE=-5.85D-11 OVMax= 1.14D-06

 Cycle  10  Pass 1  IDiag  1:
 E= -77.2182722496135     Delta-E=       -0.000000000003 Rises=F Damp=F
 DIIS: error= 2.20D-08 at cycle  10 NSaved=  10.
 NSaved=10 IEnMin=10 EnMin= -77.2182722496135     IErMin=10 ErrMin= 2.20D-08
 ErrMax= 2.20D-08  0.00D+00 EMaxC= 1.00D-01 BMatC= 4.17D-14 BMatP= 3.58D-12
 IDIUse=1 WtCom= 1.00D+00 WtEn= 0.00D+00
 Coeff-Com: -0.112D-05 0.257D-05 0.711D-05-0.346D-04-0.167D-03-0.366D-03
 Coeff-Com:  0.541D-02 0.515D-03-0.177D+00 0.117D+01
 Coeff:     -0.112D-05 0.257D-05 0.711D-05-0.346D-04-0.167D-03-0.366D-03
 Coeff:      0.541D-02 0.515D-03-0.177D+00 0.117D+01
 Gap=     0.198 Goal=   None    Shift=    0.000
 Gap=     0.117 Goal=   None    Shift=    0.000
 RMSDP=8.10D-09 MaxDP=8.97D-08 DE=-2.52D-12 OVMax= 1.41D-07

 SCF Done:  E(UB3LYP) =  -77.2182722496     A.U. after   10 cycles
            NFock= 10  Conv=0.81D-08     -V/T= 2.0043
 <Sx>= 0.0000 <Sy>= 0.0000 <Sz>= 1.0000 <S**2>= 2.0023 S= 1.0008
 <L.S>= 0.000000000000E+00
 KE= 7.688500770408D+01 PE=-2.254735482036D+02 EE= 4.812523931280D+01
 Annihilation of the first spin contaminant:
 S**2 before annihilation     2.0023,   after     2.0000
 Leave Link  502 at Sun Mar  4 20:56:04 2018, MaxMem=    33554432 cpu:         1.5
 (Enter /apl/tryton/gaussian/09/d01/g09/l801.exe)
 DoSCS=F DFT=T ScalE2(SS,OS)=  1.000000  1.000000
 Range of M.O.s used for correlation:     1    58
 NBasis=    58 NAE=     8 NBE=     6 NFC=     0 NFV=     0
 NROrb=     58 NOA=     8 NOB=     6 NVA=    50 NVB=    52

 **** Warning!!: The largest alpha MO coefficient is  0.39495677D+02


 **** Warning!!: The largest beta MO coefficient is  0.38623970D+02

 Leave Link  801 at Sun Mar  4 20:56:04 2018, MaxMem=    33554432 cpu:         0.0
 (Enter /apl/tryton/gaussian/09/d01/g09/l1101.exe)
 Using compressed storage, NAtomX=     4.
 Will process      5 centers per pass.
 Leave Link 1101 at Sun Mar  4 20:56:04 2018, MaxMem=    33554432 cpu:         0.1
 (Enter /apl/tryton/gaussian/09/d01/g09/l1102.exe)
 Symmetrizing basis deriv contribution to polar:
 IMax=3 JMax=2 DiffMx= 0.00D+00
 Leave Link 1102 at Sun Mar  4 20:56:04 2018, MaxMem=    33554432 cpu:         0.0
 (Enter /apl/tryton/gaussian/09/d01/g09/l1110.exe)
 Forming Gx(P) for the SCF density, NAtomX=     4.
 Integral derivatives from FoFJK, PRISM(SPDF).
 Do as many integral derivatives as possible in FoFJK.
 G2DrvN: MDV=      33554296.
 G2DrvN: will do     5 centers at a time, making    1 passes.
 Calling FoFCou, ICntrl=  3107 FMM=F I1Cent=   0 AccDes= 0.00D+00.
 FoFJK:  IHMeth= 1 ICntrl=    3107 DoSepK=F KAlg= 0 I1Cent=   0 FoldK=F
 IRaf=         0 NMat=   1 IRICut=       1 DoRegI=T DoRafI=F ISym2E= 1.
 FoFCou: FMM=F IPFlag=           0 FMFlag=      100000 FMFlg1=           0
         NFxFlg=           0 DoJE=F BraDBF=F KetDBF=F FulRan=T
         wScrn=  0.000000 ICntrl=    3107 IOpCl=  1 I1Cent=           0 NGrid=           0
         NMat0=    1 NMatS0=      1 NMatT0=    0 NMatD0=    1 NMtDS0=    0 NMtDT0=    0
 Petite list used in FoFCou.
 End of G2Drv F.D. properties file   721 does not exist.
 End of G2Drv F.D. properties file   722 does not exist.
 End of G2Drv F.D. properties file   788 does not exist.
 Leave Link 1110 at Sun Mar  4 20:56:06 2018, MaxMem=    33554432 cpu:         1.5
 (Enter /apl/tryton/gaussian/09/d01/g09/l1002.exe)
 Minotr:  UHF open shell wavefunction.
          IDoAtm=1111
          Direct CPHF calculation.
          Differentiating once with respect to electric field.
                with respect to dipole field.
          Differentiating once with respect to nuclear coordinates.
          Using symmetry in CPHF.
          Requested convergence is 1.0D-08 RMS, and 1.0D-07 maximum.
          Secondary convergence is 1.0D-12 RMS, and 1.0D-12 maximum.
          NewPWx=T KeepS1=F KeepF1=F KeepIn=T MapXYZ=F SortEE=F KeepMc=T.
          MDV=      33554272 using IRadAn=       2.
 Generate precomputed XC quadrature information.
 Keep R1 and R2 ints in memory in symmetry-blocked form, NReq=2350726.
 FoFCou: FMM=F IPFlag=           0 FMFlag=           0 FMFlg1=           0
         NFxFlg=           0 DoJE=F BraDBF=F KetDBF=F FulRan=T
         wScrn=  0.000000 ICntrl=     600 IOpCl=  0 I1Cent=           0 NGrid=           0
         NMat0=    1 NMatS0=   1711 NMatT0=    0 NMatD0=    1 NMtDS0=    0 NMtDT0=    0
 Petite list used in FoFCou.
          Solving linear equations simultaneously, MaxMat=       0.
          There are     9 degrees of freedom in the 1st order CPHF.  IDoFFX=4 NUNeed=     9.
      9 vectors produced by pass  0 Test12= 7.91D-15 1.11D-08 XBig12= 7.48D+01 4.89D+00.
 AX will form     9 AO Fock derivatives at one time.
      9 vectors produced by pass  1 Test12= 7.91D-15 1.11D-08 XBig12= 2.91D+01 2.51D+00.
      9 vectors produced by pass  2 Test12= 7.91D-15 1.11D-08 XBig12= 1.90D+00 4.87D-01.
      9 vectors produced by pass  3 Test12= 7.91D-15 1.11D-08 XBig12= 3.52D-02 5.43D-02.
      9 vectors produced by pass  4 Test12= 7.91D-15 1.11D-08 XBig12= 7.43D-04 6.32D-03.
      9 vectors produced by pass  5 Test12= 7.91D-15 1.11D-08 XBig12= 7.26D-06 5.38D-04.
      9 vectors produced by pass  6 Test12= 7.91D-15 1.11D-08 XBig12= 2.70D-08 2.61D-05.
      4 vectors produced by pass  7 Test12= 7.91D-15 1.11D-08 XBig12= 9.16D-11 1.73D-06.
      2 vectors produced by pass  8 Test12= 7.91D-15 1.11D-08 XBig12= 3.57D-13 1.47D-07.
      1 vectors produced by pass  9 Test12= 7.91D-15 1.11D-08 XBig12= 3.62D-15 2.25D-08.
 InvSVY:  IOpt=1 It=  1 EMax= 2.66D-15
 Solved reduced A of dimension    70 with     9 vectors.
 FullF1:  Do perturbations    1 to     9.
 Isotropic polarizability for W=    0.000000       23.76 Bohr**3.
 End of Minotr F.D. properties file   721 does not exist.
 End of Minotr F.D. properties file   722 does not exist.
 End of Minotr F.D. properties file   788 does not exist.
 Leave Link 1002 at Sun Mar  4 20:56:13 2018, MaxMem=    33554432 cpu:         7.9
 (Enter /apl/tryton/gaussian/09/d01/g09/l601.exe)
 Copying SCF densities to generalized density rwf, IOpCl= 1 IROHF=0.

 **********************************************************************

            Population analysis using the SCF density.

 **********************************************************************

 Orbital symmetries:
 Alpha Orbitals:
       Occupied  (A1) (B2) (A1) (B2) (A1) (A1) (B1) (B2)
       Virtual   (A2) (A1) (B2) (A1) (B1) (A1) (B2) (A2) (A1) (B2)
                 (A1) (B2) (B2) (B2) (A1) (A1) (B1) (A1) (B2) (A2)
                 (B2) (B2) (A1) (B2) (B1) (A1) (B1) (A2) (B2) (A1)
                 (A1) (B1) (B2) (A2) (A1) (B2) (A2) (B2) (A1) (A1)
                 (B2) (B1) (A1) (B2) (A2) (B2) (A1) (B2) (A1) (B2)
 Beta  Orbitals:
       Occupied  (A1) (B2) (A1) (B2) (A1) (B1)
       Virtual   (A1) (B2) (A2) (A1) (B2) (B1) (A1) (A1) (B2) (A2)
                 (A1) (B2) (A1) (B2) (B2) (B2) (A1) (A1) (B1) (A1)
                 (A2) (B2) (B2) (B2) (A1) (B2) (B1) (A1) (B1) (A2)
                 (B2) (A1) (A1) (B1) (B2) (A2) (A1) (B2) (A2) (B2)
                 (A1) (A1) (B2) (B1) (B2) (A1) (A2) (B2) (A1) (B2)
                 (A1) (B2)
 The electronic state is 3-B2.
 Alpha  occ. eigenvalues --  -10.22878 -10.22789  -0.79031  -0.57756  -0.48799
 Alpha  occ. eigenvalues --   -0.35433  -0.30871  -0.22486
 Alpha virt. eigenvalues --   -0.02730  -0.00151   0.01854   0.05563   0.06446
 Alpha virt. eigenvalues --    0.08750   0.08962   0.11858   0.12703   0.13725
 Alpha virt. eigenvalues --    0.14416   0.16402   0.23565   0.34939   0.43272
 Alpha virt. eigenvalues --    0.46326   0.52647   0.53381   0.58022   0.58611
 Alpha virt. eigenvalues --    0.60532   0.69956   0.72325   0.85652   1.00931
 Alpha virt. eigenvalues --    1.09367   1.15198   1.21550   1.37674   1.39895
 Alpha virt. eigenvalues --    1.50073   1.73921   1.78420   1.79552   1.92183
 Alpha virt. eigenvalues --    1.95912   2.13795   2.30499   2.34415   2.54354
 Alpha virt. eigenvalues --    2.56606   2.66926   2.77287   2.79342   2.84093
 Alpha virt. eigenvalues --    3.01432   3.38808   3.95728  23.49331  24.18419
  Beta  occ. eigenvalues --  -10.21296 -10.21213  -0.74633  -0.53830  -0.46396
  Beta  occ. eigenvalues --   -0.28863
  Beta virt. eigenvalues --   -0.17174  -0.05165  -0.00524   0.00173   0.02099
  Beta virt. eigenvalues --    0.06523   0.06995   0.08852   0.10348   0.12379
  Beta virt. eigenvalues --    0.12834   0.14287   0.16064   0.16973   0.25271
  Beta virt. eigenvalues --    0.37683   0.45207   0.48701   0.53458   0.57094
  Beta virt. eigenvalues --    0.59873   0.61729   0.64457   0.72500   0.74802
  Beta virt. eigenvalues --    0.88576   1.02168   1.16327   1.21406   1.24652
  Beta virt. eigenvalues --    1.41925   1.43910   1.52239   1.75404   1.81506
  Beta virt. eigenvalues --    1.83836   1.96920   2.01235   2.16153   2.34603
  Beta virt. eigenvalues --    2.37017   2.56159   2.59039   2.68427   2.83479
  Beta virt. eigenvalues --    2.84310   2.85543   3.07894   3.40711   3.97597
  Beta virt. eigenvalues --   23.51141  24.20281
          Condensed to atoms (all electrons):
               1          2          3          4
     1  C    5.203445   0.643974   0.306683  -0.029939
     2  C    0.643974   5.203445  -0.029939   0.306683
     3  H    0.306683  -0.029939   0.631613  -0.032520
     4  H   -0.029939   0.306683  -0.032520   0.631613
          Atomic-Atomic Spin Densities.
               1          2          3          4
     1  C    1.057403  -0.049870  -0.067127  -0.013252
     2  C   -0.049870   1.057403  -0.013252  -0.067127
     3  H   -0.067127  -0.013252   0.192545  -0.039320
     4  H   -0.013252  -0.067127  -0.039320   0.192545
 Mulliken charges and spin densities:
               1          2
     1  C   -0.124162   0.927154
     2  C   -0.124162   0.927154
     3  H    0.124162   0.072846
     4  H    0.124162   0.072846
 Sum of Mulliken charges =  -0.00000   2.00000
 Mulliken charges and spin densities with hydrogens summed into heavy atoms:
               1          2
     1  C   -0.000000   1.000000
     2  C   -0.000000   1.000000
 APT charges:
               1
     1  C   -0.047773
     2  C   -0.047773
     3  H    0.047773
     4  H    0.047773
 Sum of APT charges =  -0.00000
 APT charges with hydrogens summed into heavy atoms:
               1
     1  C   -0.000000
     2  C    0.000000
 Electronic spatial extent (au):  <R**2>=             64.9230
 Charge=             -0.0000 electrons
 Dipole moment (field-independent basis, Debye):
    X=              0.0000    Y=             -0.0000    Z=              1.2972  Tot=              1.2972
 Quadrupole moment (field-independent basis, Debye-Ang):
   XX=            -14.3217   YY=            -11.5242   ZZ=            -12.5589
   XY=              0.0000   XZ=             -0.0000   YZ=              0.0000
 Traceless Quadrupole moment (field-independent basis, Debye-Ang):
   XX=             -1.5201   YY=              1.2774   ZZ=              0.2427
   XY=              0.0000   XZ=             -0.0000   YZ=              0.0000
 Octapole moment (field-independent basis, Debye-Ang**2):
  XXX=             -0.0000  YYY=             -0.0000  ZZZ=              2.4676  XYY=             -0.0000
  XXY=             -0.0000  XXZ=              0.7019  XZZ=             -0.0000  YZZ=             -0.0000
  YYZ=              3.2488  XYZ=             -0.0000
 Hexadecapole moment (field-independent basis, Debye-Ang**3):
 XXXX=            -18.7388 YYYY=            -58.6975 ZZZZ=            -21.3568 XXXY=              0.0000
 XXXZ=              0.0000 YYYX=              0.0000 YYYZ=              0.0000 ZZZX=             -0.0000
 ZZZY=              0.0000 XXYY=            -13.8979 XXZZ=             -6.8522 YYZZ=            -13.2210
 XXYZ=              0.0000 YYXZ=             -0.0000 ZZXY=              0.0000
 N-N= 2.324502893710D+01 E-N=-2.254735481368D+02  KE= 7.688500770408D+01
 Symmetry A1   KE= 3.883547307243D+01
 Symmetry A2   KE= 2.628347219974D-19
 Symmetry B1   KE= 2.163206680511D+00
 Symmetry B2   KE= 3.588632795114D+01
  Exact polarizability:  19.563  -0.000  33.656   0.000   0.000  18.054
 Approx polarizability:  20.949  -0.000  50.811  -0.000  -0.000  21.095
                          Isotropic Fermi Contact Couplings
        Atom                 a.u.       MegaHertz       Gauss      10(-4) cm-1
     1  C(13)              0.40384     226.99685      80.99812      75.71800
     2  C(13)              0.40384     226.99685      80.99812      75.71800
     3  H(1)               0.03565      79.67047      28.42841      26.57521
     4  H(1)               0.03565      79.67047      28.42841      26.57521
 --------------------------------------------------------
       Center         ----  Spin Dipole Couplings  ----
                      3XX-RR        3YY-RR        3ZZ-RR
 --------------------------------------------------------
     1   Atom       -0.576555     -0.060922      0.637477
     2   Atom       -0.576555     -0.060922      0.637477
     3   Atom       -0.067890      0.029861      0.038029
     4   Atom       -0.067890      0.029861      0.038029
 --------------------------------------------------------
                        XY            XZ            YZ
 --------------------------------------------------------
     1   Atom       -0.000000     -0.000000     -0.675883
     2   Atom       -0.000000     -0.000000      0.675883
     3   Atom       -0.000000     -0.000000      0.049748
     4   Atom       -0.000000      0.000000     -0.049748
 --------------------------------------------------------


 ---------------------------------------------------------------------------------
              Anisotropic Spin Dipole Couplings in Principal Axis System
 ---------------------------------------------------------------------------------

       Atom             a.u.   MegaHertz   Gauss  10(-4) cm-1        Axes

              Baa    -0.5766   -77.368   -27.607   -25.807  1.0000 -0.0000  0.0000
     1 C(13)  Bbb    -0.4725   -63.403   -22.624   -21.149  0.0000  0.8541  0.5201
              Bcc     1.0490   140.771    50.231    46.956 -0.0000 -0.5201  0.8541
 
              Baa    -0.5766   -77.368   -27.607   -25.807  1.0000  0.0000  0.0000
     2 C(13)  Bbb    -0.4725   -63.403   -22.624   -21.149 -0.0000  0.8541 -0.5201
              Bcc     1.0490   140.771    50.231    46.956 -0.0000  0.5201  0.8541
 
              Baa    -0.0679   -36.223   -12.925   -12.083  1.0000  0.0000  0.0000
     3 H(1)   Bbb    -0.0160    -8.521    -3.041    -2.842 -0.0000  0.7355 -0.6776
              Bcc     0.0839    44.744    15.966    14.925 -0.0000  0.6776  0.7355
 
              Baa    -0.0679   -36.223   -12.925   -12.083  1.0000  0.0000  0.0000
     4 H(1)   Bbb    -0.0160    -8.521    -3.041    -2.842 -0.0000  0.7355  0.6776
              Bcc     0.0839    44.744    15.966    14.925  0.0000 -0.6776  0.7355
 

 ---------------------------------------------------------------------------------

 No NMR shielding tensors so no spin-rotation constants.
 Leave Link  601 at Sun Mar  4 20:56:14 2018, MaxMem=    33554432 cpu:         0.2
 (Enter /apl/tryton/gaussian/09/d01/g09/l701.exe)
 Compute integral second derivatives.
 ... and contract with generalized density number  0.
 Leave Link  701 at Sun Mar  4 20:56:14 2018, MaxMem=    33554432 cpu:         0.2
 (Enter /apl/tryton/gaussian/09/d01/g09/l702.exe)
 L702 exits ... SP integral derivatives will be done elsewhere.
 Leave Link  702 at Sun Mar  4 20:56:14 2018, MaxMem=    33554432 cpu:         0.0
 (Enter /apl/tryton/gaussian/09/d01/g09/l703.exe)
 Compute integral second derivatives, UseDBF=F ICtDFT=           0.
 Integral derivatives from FoFJK, PRISM(SPDF).
 Calling FoFJK, ICntrl=    100127 FMM=F ISym2X=1 I1Cent= 0 IOpClX= 1 NMat=1 NMatS=1 NMatT=0.
 FoFJK:  IHMeth= 1 ICntrl=  100127 DoSepK=F KAlg= 0 I1Cent=   0 FoldK=F
 IRaf=         0 NMat=   1 IRICut=       1 DoRegI=T DoRafI=F ISym2E= 1.
 FoFCou: FMM=F IPFlag=           0 FMFlag=      100000 FMFlg1=         800
         NFxFlg=           0 DoJE=F BraDBF=F KetDBF=F FulRan=T
         wScrn=  0.000000 ICntrl=  100127 IOpCl=  1 I1Cent=           0 NGrid=           0
         NMat0=    1 NMatS0=      1 NMatT0=    0 NMatD0=    1 NMtDS0=    0 NMtDT0=    0
 Petite list used in FoFCou.
 Leave Link  703 at Sun Mar  4 20:56:16 2018, MaxMem=    33554432 cpu:         1.9
 (Enter /apl/tryton/gaussian/09/d01/g09/l716.exe)
 Dipole        = 1.73491215D-18 1.43938680D-15 5.10351270D-01
 Polarizability= 1.95632465D+01-7.85162561D-08 3.36557008D+01
                 1.19540833D-08 3.04624224D-07 1.80539179D+01
 Full mass-weighted force constant matrix:
 Low frequencies ---  -13.9617   -0.0008   -0.0006    0.0008   15.7489   18.4877
 Low frequencies ---  794.8701  818.0481 1088.5432
 Diagonal vibrational polarizability:
        0.0000000       0.4759856       0.1597337
 Harmonic frequencies (cm**-1), IR intensities (KM/Mole), Raman scattering
 activities (A**4/AMU), depolarization ratios for plane and unpolarized
 incident light, reduced masses (AMU), force constants (mDyne/A),
 and normal coordinates:
                      1                      2                      3
                     A2                     A1                     B2
 Frequencies --    794.8701               818.0481              1088.5432
 Red. masses --      1.3193                 1.0396                 1.4278
 Frc consts  --      0.4911                 0.4099                 0.9968
 IR Inten    --      0.0000                 2.0037                17.1766
  Atom  AN      X      Y      Z        X      Y      Z        X      Y      Z
     1   6     0.12  -0.00  -0.00     0.00   0.01   0.04    -0.00  -0.05   0.13
     2   6    -0.12   0.00  -0.00    -0.00  -0.01   0.04     0.00  -0.05  -0.13
     3   1    -0.70  -0.00   0.00    -0.00   0.57  -0.42     0.00   0.56  -0.41
     4   1     0.70   0.00   0.00     0.00  -0.57  -0.42    -0.00   0.56   0.41
                      4                      5                      6
                     A1                     B2                     A1
 Frequencies --   1627.1050              3027.7306              3068.4854
 Red. masses --      7.6329                 1.0786                 1.1056
 Frc consts  --     11.9062                 5.8256                 6.1332
 IR Inten    --      5.7568                29.2553                 7.2211
  Atom  AN      X      Y      Z        X      Y      Z        X      Y      Z
     1   6     0.00   0.55  -0.03     0.00   0.04   0.04    -0.00   0.05   0.05
     2   6    -0.00  -0.55  -0.03    -0.00   0.04  -0.04     0.00  -0.05   0.05
     3   1    -0.00   0.18   0.41    -0.00  -0.46  -0.53     0.00  -0.45  -0.54
     4   1     0.00  -0.18   0.41     0.00  -0.46   0.53    -0.00   0.45  -0.54

 -------------------
 - Thermochemistry -
 -------------------
 Temperature   298.150 Kelvin.  Pressure   1.00000 Atm.
 Atom     1 has atomic number  6 and mass  12.00000
 Atom     2 has atomic number  6 and mass  12.00000
 Atom     3 has atomic number  1 and mass   1.00783
 Atom     4 has atomic number  1 and mass   1.00783
 Molecular mass:    26.01565 amu.
 Principal axes and moments of inertia in atomic units:
                           1         2         3
     Eigenvalues --     4.82501  50.92246  55.74748
           X           -0.00000  -0.00000   1.00000
           Y            1.00000   0.00000   0.00000
           Z           -0.00000   1.00000   0.00000
 This molecule is an asymmetric top.
 Rotational symmetry number  2.
 Rotational temperatures (Kelvin)     17.95100     1.70090     1.55368
 Rotational constants (GHZ):         374.03850    35.44096    32.37350
 Zero-point vibrational energy      62354.0 (Joules/Mol)
                                   14.90297 (Kcal/Mol)
 Vibrational temperatures:   1143.64  1176.99  1566.17  2341.04  4356.22
          (Kelvin)           4414.86
 
 Zero-point correction=                           0.023749 (Hartree/Particle)
 Thermal correction to Energy=                    0.026764
 Thermal correction to Enthalpy=                  0.027708
 Thermal correction to Gibbs Free Energy=         0.001931
 Sum of electronic and zero-point Energies=            -77.194523
 Sum of electronic and thermal Energies=               -77.191508
 Sum of electronic and thermal Enthalpies=             -77.190564
 Sum of electronic and thermal Free Energies=          -77.216342
 
                     E (Thermal)             CV                S
                      KCal/Mol        Cal/Mol-Kelvin    Cal/Mol-Kelvin
 Total                   16.795              7.580             54.254
 Electronic               0.000              0.000              2.183
 Translational            0.889              2.981             35.704
 Rotational               0.889              2.981             15.890
 Vibrational             15.017              1.619              0.477
                       Q            Log10(Q)             Ln(Q)
 Total Bot       0.129422D+00         -0.887994         -2.044681
 Total V=0       0.108630D+11         10.035950         23.108628
 Vib (Bot)       0.124866D-10        -10.903555        -25.106363
 Vib (V=0)       0.104806D+01          0.020388          0.046945
 Electronic      0.300000D+01          0.477121          1.098612
 Translational   0.521564D+07          6.717307         15.467172
 Rotational      0.662419D+03          2.821133          6.495899
 
                                                                 min
                                                             IR Spectrum
 
     3 3                                                         1                     1                                             
     0 0                                                         6                     0           87                                
     6 2                                                         2                     8           19                                
     8 8                                                         7                     9           85                                
 
     X X                                                         X                     X           X                                 
     X X                                                         X                     X                                             
     X X                                                         X                     X                                             
     X X                                                         X                     X                                             
     X X                                                                               X                                             
       X                                                                               X                                             
       X                                                                               X                                             
       X                                                                               X                                             
       X                                                                               X                                             
       X                                                                               X                                             
       X                                                                               X                                             
       X                                                                               X                                             
       X                                                                                                                             
       X                                                                                                                             
       X                                                                                                                             
       X                                                                                                                             
       X                                                                                                                             
       X                                                                                                                             
       X                                                                                                                             
       X                                                                                                                             
 
 ***** Axes restored to original set *****
 -------------------------------------------------------------------
 Center     Atomic                   Forces (Hartrees/Bohr)
 Number     Number              X              Y              Z
 -------------------------------------------------------------------
      1        6          -0.000150503   -0.000142616    0.000019020
      2        6           0.000127611    0.000164075    0.000012132
      3        1           0.000001283   -0.000021937   -0.000015325
      4        1           0.000021609    0.000000478   -0.000015828
 -------------------------------------------------------------------
 Cartesian Forces:  Max     0.000164075 RMS     0.000085703
 Z-matrix is all fixed cartesians, so copy forces.
 Force constants in Cartesian coordinates: 
                1             2             3             4             5 
      1  0.341361D+00
      2  0.296617D+00  0.567983D+00
      3 -0.330745D-01  0.126163D+00  0.144348D+00
      4 -0.295521D+00 -0.291423D+00  0.223054D-02  0.502158D+00
      5 -0.259754D+00 -0.349804D+00 -0.108113D-01  0.309911D+00  0.401766D+00
      6  0.229701D-01  0.128436D-01 -0.457742D-01 -0.144474D+00  0.738041D-02
      7 -0.360368D-01 -0.199114D-02  0.120376D-01  0.126540D-01 -0.185385D-01
      8 -0.164675D-01 -0.228849D+00 -0.125667D+00 -0.134595D-02 -0.125446D-01
      9  0.255725D-02 -0.136480D+00 -0.109464D+00  0.324771D-02 -0.627522D-02
     10 -0.980373D-02 -0.320274D-02  0.188064D-01 -0.219291D+00 -0.316189D-01
     11 -0.203953D-01  0.106701D-01  0.103147D-01 -0.171425D-01 -0.394177D-01
     12  0.754721D-02 -0.252721D-02  0.108897D-01  0.138996D+00  0.970610D-02
                6             7             8             9            10 
      6  0.149768D+00
      7 -0.801146D-02  0.230644D-01
      8 -0.191171D-01  0.158546D-01  0.240214D+00
      9  0.116467D-01 -0.166877D-03  0.139615D+00  0.100497D+00
     10  0.129515D+00  0.318332D-03  0.195884D-02 -0.563808D-02  0.228777D+00
     11 -0.110690D-02  0.467508D-02  0.117912D-02  0.313964D-02  0.328628D-01
     12 -0.115641D+00 -0.385926D-02  0.516851D-02 -0.267988D-02 -0.142684D+00
               11            12 
     11  0.275684D-01
     12 -0.123474D-01  0.107431D+00
 Leave Link  716 at Sun Mar  4 20:56:16 2018, MaxMem=    33554432 cpu:         0.0
 (Enter /apl/tryton/gaussian/09/d01/g09/l103.exe)

 GradGradGradGradGradGradGradGradGradGradGradGradGradGradGradGradGradGrad
 Berny optimization.
 Search for a local minimum.
 Step number   1 out of a maximum of    2
 All quantities printed in internal units (Hartrees-Bohrs-Radians)
 Second derivative matrix not updated -- analytic derivatives used.
 The second derivative matrix:
                          X1        Y1        Z1        X2        Y2
           X1           0.34136
           Y1           0.29662   0.56798
           Z1          -0.03307   0.12616   0.14435
           X2          -0.29552  -0.29142   0.00223   0.50216
           Y2          -0.25975  -0.34980  -0.01081   0.30991   0.40177
           Z2           0.02297   0.01284  -0.04577  -0.14447   0.00738
           X3          -0.03604  -0.00199   0.01204   0.01265  -0.01854
           Y3          -0.01647  -0.22885  -0.12567  -0.00135  -0.01254
           Z3           0.00256  -0.13648  -0.10946   0.00325  -0.00628
           X4          -0.00980  -0.00320   0.01881  -0.21929  -0.03162
           Y4          -0.02040   0.01067   0.01031  -0.01714  -0.03942
           Z4           0.00755  -0.00253   0.01089   0.13900   0.00971
                          Z2        X3        Y3        Z3        X4
           Z2           0.14977
           X3          -0.00801   0.02306
           Y3          -0.01912   0.01585   0.24021
           Z3           0.01165  -0.00017   0.13962   0.10050
           X4           0.12952   0.00032   0.00196  -0.00564   0.22878
           Y4          -0.00111   0.00468   0.00118   0.00314   0.03286
           Z4          -0.11564  -0.00386   0.00517  -0.00268  -0.14268
                          Y4        Z4
           Y4           0.02757
           Z4          -0.01235   0.10743
 ITU=  0
     Eigenvalues ---    0.02959   0.07654   0.15685   0.41358   0.55788
     Eigenvalues ---    1.41210
 Angle between quadratic step and forces=  35.10 degrees.
 ClnCor:  largest displacement from symmetrization is 5.35D-14 for atom     4.
 Linear search not attempted -- first point.
 ClnCor:  largest displacement from symmetrization is 2.95D-15 for atom     3.
 TrRot= -0.000014  0.000014  0.000020 -0.000000  0.000000  0.000000
 Variable       Old X    -DE/DX   Delta X   Delta X   Delta X     New X
                                 (Linear)    (Quad)   (Total)
    X1        1.16818  -0.00015   0.00000  -0.00014  -0.00015   1.16803
    Y1        0.67439  -0.00014   0.00000  -0.00011  -0.00010   0.67429
    Z1       -0.06811   0.00002   0.00000   0.00003   0.00005  -0.06806
    X2       -0.51762   0.00013   0.00000   0.00010   0.00009  -0.51754
    Y2       -1.18463   0.00016   0.00000   0.00015   0.00016  -1.18447
    Z2       -0.02636   0.00001   0.00000   0.00002   0.00004  -0.02631
    X3        1.20518   0.00000   0.00000  -0.00004  -0.00005   1.20513
    Y3        2.41667  -0.00002   0.00000  -0.00014  -0.00013   2.41654
    Z3        1.04525  -0.00002   0.00000  -0.00006  -0.00004   1.04520
    X4       -2.22263   0.00002   0.00000   0.00014   0.00012  -2.22250
    Y4       -1.36334   0.00000   0.00000   0.00005   0.00007  -1.36328
    Z4        1.13015  -0.00002   0.00000  -0.00007  -0.00005   1.13010
         Item               Value     Threshold  Converged?
 Maximum Force            0.000164     0.000450     YES
 RMS     Force            0.000086     0.000300     YES
 Maximum Displacement     0.000165     0.001800     YES
 RMS     Displacement     0.000099     0.001200     YES
 Predicted change in Energy=-4.204216D-08
 Optimization completed.
    -- Stationary point found.
 GradGradGradGradGradGradGradGradGradGradGradGradGradGradGradGradGradGrad

 Leave Link  103 at Sun Mar  4 20:56:16 2018, MaxMem=    33554432 cpu:         0.0
 (Enter /apl/tryton/gaussian/09/d01/g09/l9999.exe)
 1\1\ CITASK-GV2521\Freq\UB3LYP\6-311++G(d,p)\C2H2(3)\EERD\04-Mar-2018\
 0\\#p b3lyp/6-311++g(d,p) freq\\min\\0,3\C,0.618175077,0.356870634,-0.
 036042879\C,-0.2739140769,-0.626879634,-0.013947121\H,0.6377545131,1.2
 788464879,0.5531209371\H,-1.1761635132,-0.7214494879,0.598049063\\Vers
 ion=ES64L-G09RevD.01\State=3-B2\HF=-77.2182722\S2=2.002335\S2-1=0.\S2A
 =2.000003\RMSD=8.104e-09\RMSF=8.570e-05\ZeroPoint=0.0237494\Thermal=0.
 0267642\Dipole=-0.2642305,0.247687,0.3595717\DipoleDeriv=-0.1593374,0.
 0631788,0.0423011,-0.0113708,0.0926234,0.1726868,-0.0065203,0.1170025,
 -0.0766038,0.0787301,0.0083124,-0.1714528,0.0828621,-0.1534683,-0.0588
 618,-0.1226314,-0.0031774,-0.0685796,0.1155279,0.0062858,0.0359134,-0.
 065338,-0.0473373,-0.0857324,-0.010992,-0.1392313,0.0751272,-0.0349206
 ,-0.077777,0.0932383,-0.0061532,0.1081822,-0.0280926,0.1401437,0.02540
 62,0.0700562\Polar=25.5161528,7.3899733,26.9387977,0.3931059,-0.689745
 6,18.8179147\PG=C02V [SGV(C2H2)]\NImag=0\\0.34136108,0.29661677,0.5679
 8289,-0.03307452,0.12616340,0.14434844,-0.29552055,-0.29142290,0.00223
 054,0.50215774,-0.25975396,-0.34980420,-0.01081128,0.30991135,0.401766
 47,0.02297006,0.01284360,-0.04577420,-0.14447398,0.00738041,0.14976821
 ,-0.03603681,-0.00199114,0.01203760,0.01265403,-0.01853854,-0.00801146
 ,0.02306445,-0.01646749,-0.22884883,-0.12566679,-0.00134595,-0.0125445
 7,-0.01911710,0.01585460,0.24021427,0.00255725,-0.13647979,-0.10946399
 ,0.00324771,-0.00627522,0.01164669,-0.00016688,0.13961538,0.10049717,-
 0.00980373,-0.00320274,0.01880638,-0.21929123,-0.03161886,0.12951538,0
 .00031833,0.00195884,-0.00563808,0.22877662,-0.02039533,0.01067014,0.0
 1031467,-0.01714251,-0.03941770,-0.00110690,0.00467508,0.00117912,0.00
 313964,0.03286276,0.02756843,0.00754721,-0.00252721,0.01088974,0.13899
 573,0.00970610,-0.11564070,-0.00385926,0.00516851,-0.00267988,-0.14268
 368,-0.01234740,0.10743084\\0.00015050,0.00014262,-0.00001902,-0.00012
 761,-0.00016407,-0.00001213,-0.00000128,0.00002194,0.00001532,-0.00002
 161,-0.00000048,0.00001583\\\@


 THE SCIENTIFIC THEORIST IS NOT TO BE ENVIED. FOR NATURE, OR MORE
 PRECISELY EXPERIMENT, IS AN INEXORABLE AND NOT VERY FRIENDLY JUDGE OF HIS
 WORK.  IT NEVER SAYS "YES" TO A THEORY. IN THE MOST FAVORABLE CASES
 IT SAYS "MAYBE", AND IN THE GREAT MAJORITY OF CASES SIMPLY "NO"...
 PROBABLY EVERY THEORY WILL SOME DAY EXPERIENCE ITS "NO" - MOST
 THEORIES, SOON AFTER CONCEPTION.  -- A.EINSTEIN, NOV 11, 1922.
 Job cpu time:       0 days  0 hours  0 minutes 14.2 seconds.
 File lengths (MBytes):  RWF=      5 Int=      0 D2E=      0 Chk=      1 Scr=      1
 Normal termination of Gaussian 09 at Sun Mar  4 20:56:16 2018.
