 Entering Gaussian System, Link 0=g09
 Initial command:
 /apl/tryton/gaussian/09/d01/g09/l1.exe "/users/work/eerd/M3C-outputs/ionized/5/Gau-1144.inp" -scrdir="/users/work/eerd/M3C-outputs/ionized/5/"
 Entering Link 1 = /apl/tryton/gaussian/09/d01/g09/l1.exe PID=      1145.
  
 Copyright (c) 1988,1990,1992,1993,1995,1998,2003,2009,2013,
            Gaussian, Inc.  All Rights Reserved.
  
 This is part of the Gaussian(R) 09 program.  It is based on
 the Gaussian(R) 03 system (copyright 2003, Gaussian, Inc.),
 the Gaussian(R) 98 system (copyright 1998, Gaussian, Inc.),
 the Gaussian(R) 94 system (copyright 1995, Gaussian, Inc.),
 the Gaussian 92(TM) system (copyright 1992, Gaussian, Inc.),
 the Gaussian 90(TM) system (copyright 1990, Gaussian, Inc.),
 the Gaussian 88(TM) system (copyright 1988, Gaussian, Inc.),
 the Gaussian 86(TM) system (copyright 1986, Carnegie Mellon
 University), and the Gaussian 82(TM) system (copyright 1983,
 Carnegie Mellon University). Gaussian is a federally registered
 trademark of Gaussian, Inc.
  
 This software contains proprietary and confidential information,
 including trade secrets, belonging to Gaussian, Inc.
  
 This software is provided under written license and may be
 used, copied, transmitted, or stored only in accord with that
 written license.
  
 The following legend is applicable only to US Government
 contracts under FAR:
  
                    RESTRICTED RIGHTS LEGEND
  
 Use, reproduction and disclosure by the US Government is
 subject to restrictions as set forth in subparagraphs (a)
 and (c) of the Commercial Computer Software - Restricted
 Rights clause in FAR 52.227-19.
  
 Gaussian, Inc.
 340 Quinnipiac St., Bldg. 40, Wallingford CT 06492
  
  
 ---------------------------------------------------------------
 Warning -- This program may not be used in any manner that
 competes with the business of Gaussian, Inc. or will provide
 assistance to any competitor of Gaussian, Inc.  The licensee
 of this program is prohibited from giving any competitor of
 Gaussian, Inc. access to this program.  By using this program,
 the user acknowledges that Gaussian, Inc. is engaged in the
 business of creating and licensing software in the field of
 computational chemistry and represents and warrants to the
 licensee that it is not a competitor of Gaussian, Inc. and that
 it will not use this program in any manner prohibited above.
 ---------------------------------------------------------------
  

 Cite this work as:
 Gaussian 09, Revision D.01,
 M. J. Frisch, G. W. Trucks, H. B. Schlegel, G. E. Scuseria, 
 M. A. Robb, J. R. Cheeseman, G. Scalmani, V. Barone, B. Mennucci, 
 G. A. Petersson, H. Nakatsuji, M. Caricato, X. Li, H. P. Hratchian, 
 A. F. Izmaylov, J. Bloino, G. Zheng, J. L. Sonnenberg, M. Hada, 
 M. Ehara, K. Toyota, R. Fukuda, J. Hasegawa, M. Ishida, T. Nakajima, 
 Y. Honda, O. Kitao, H. Nakai, T. Vreven, J. A. Montgomery, Jr., 
 J. E. Peralta, F. Ogliaro, M. Bearpark, J. J. Heyd, E. Brothers, 
 K. N. Kudin, V. N. Staroverov, T. Keith, R. Kobayashi, J. Normand, 
 K. Raghavachari, A. Rendell, J. C. Burant, S. S. Iyengar, J. Tomasi, 
 M. Cossi, N. Rega, J. M. Millam, M. Klene, J. E. Knox, J. B. Cross, 
 V. Bakken, C. Adamo, J. Jaramillo, R. Gomperts, R. E. Stratmann, 
 O. Yazyev, A. J. Austin, R. Cammi, C. Pomelli, J. W. Ochterski, 
 R. L. Martin, K. Morokuma, V. G. Zakrzewski, G. A. Voth, 
 P. Salvador, J. J. Dannenberg, S. Dapprich, A. D. Daniels, 
 O. Farkas, J. B. Foresman, J. V. Ortiz, J. Cioslowski, 
 and D. J. Fox, Gaussian, Inc., Wallingford CT, 2013.
 
 ******************************************
 Gaussian 09:  ES64L-G09RevD.01 24-Apr-2013
                24-Jan-2019 
 ******************************************
 ---------------------------
 #p b3lyp/6-311++g(d,p) freq
 ---------------------------
 1/10=4,30=1,38=1/1,3;
 2/12=2,17=6,18=5,40=1/2;
 3/5=4,6=6,7=1111,11=2,16=1,25=1,30=1,71=2,74=-5,140=1/1,2,3;
 4//1;
 5/5=2,38=5,98=1/2;
 8/6=4,10=90,11=11/1;
 11/6=1,8=1,9=11,15=111,16=1/1,2,10;
 10/6=1/2;
 6/7=2,8=2,9=2,10=2,18=1,28=1/1;
 7/8=1,10=1,25=1/1,2,3,16;
 1/10=4,30=1/3;
 99//99;
 Leave Link    1 at Thu Jan 24 15:36:35 2019, MaxMem=           0 cpu:         0.0
 (Enter /apl/tryton/gaussian/09/d01/g09/l101.exe)
 ---
 min
 ---
 Symbolic Z-matrix:
 Charge =  1 Multiplicity = 2
 C                     1.09731   0.27118  -0.71418 
 C                    -0.04615   0.29112  -0.23703 
 H                     2.0863    0.29427  -1.1343 
 H                    -1.69615   1.00259   0.36537 
 O                    -1.17613   0.17238   0.25634 
 
 NAtoms=      5 NQM=        5 NQMF=       0 NMMI=      0 NMMIF=      0
                NMic=       0 NMicF=      0.
                    Isotopes and Nuclear Properties:
 (Nuclear quadrupole moments (NQMom) in fm**2, nuclear magnetic moments (NMagM)
  in nuclear magnetons)

  Atom         1           2           3           4           5
 IAtWgt=          12          12           1           1          16
 AtmWgt=  12.0000000  12.0000000   1.0078250   1.0078250  15.9949146
 NucSpn=           0           0           1           1           0
 AtZEff=   0.0000000   0.0000000   0.0000000   0.0000000   0.0000000
 NQMom=    0.0000000   0.0000000   0.0000000   0.0000000   0.0000000
 NMagM=    0.0000000   0.0000000   2.7928460   2.7928460   0.0000000
 AtZNuc=   6.0000000   6.0000000   1.0000000   1.0000000   8.0000000
 Leave Link  101 at Thu Jan 24 15:36:35 2019, MaxMem=    33554432 cpu:         0.1
 (Enter /apl/tryton/gaussian/09/d01/g09/l103.exe)

 GradGradGradGradGradGradGradGradGradGradGradGradGradGradGradGradGradGrad
 Berny optimization.
 Initialization pass.
 Trust Radius=3.00D-01 FncErr=1.00D-07 GrdErr=1.00D-07
 Number of steps in this run=      2 maximum allowed number of steps=      2.
 GradGradGradGradGradGradGradGradGradGradGradGradGradGradGradGradGradGrad

 Leave Link  103 at Thu Jan 24 15:36:35 2019, MaxMem=    33554432 cpu:         0.0
 (Enter /apl/tryton/gaussian/09/d01/g09/l202.exe)
                          Input orientation:                          
 ---------------------------------------------------------------------
 Center     Atomic      Atomic             Coordinates (Angstroms)
 Number     Number       Type             X           Y           Z
 ---------------------------------------------------------------------
      1          6           0        1.097309    0.271182   -0.714181
      2          6           0       -0.046150    0.291124   -0.237031
      3          1           0        2.086298    0.294274   -1.134296
      4          1           0       -1.696150    1.002587    0.365366
      5          8           0       -1.176130    0.172384    0.256338
 ---------------------------------------------------------------------
                    Distance matrix (angstroms):
                    1          2          3          4          5
     1  C    0.000000
     2  C    1.239180   0.000000
     3  H    1.074769   2.313532   0.000000
     4  H    3.082821   1.895142   4.130086   0.000000
     5  O    2.473902   1.238696   3.548543   0.985670   0.000000
 Stoichiometry    C2H2O(1+,2)
 Framework group  C1[X(C2H2O)]
 Deg. of freedom     9
 Full point group                 C1      NOp   1
 Largest Abelian subgroup         C1      NOp   1
 Largest concise Abelian subgroup C1      NOp   1
                         Standard orientation:                         
 ---------------------------------------------------------------------
 Center     Atomic      Atomic             Coordinates (Angstroms)
 Number     Number       Type             X           Y           Z
 ---------------------------------------------------------------------
      1          6           0        1.323995    0.007505    0.000556
      2          6           0        0.084853    0.017126   -0.001139
      3          1           0        2.398270    0.040079    0.000132
      4          1           0       -1.675707    0.718545    0.000562
      5          8           0       -1.146956   -0.113301    0.000350
 ---------------------------------------------------------------------
 Rotational constants (GHZ):    727.6843982      9.9480928      9.8139358
 Leave Link  202 at Thu Jan 24 15:36:35 2019, MaxMem=    33554432 cpu:         0.0
 (Enter /apl/tryton/gaussian/09/d01/g09/l301.exe)
 Standard basis: 6-311++G(d,p) (5D, 7F)
 Ernie: Thresh=  0.10000D-02 Tol=  0.10000D-05 Strict=F.
 There are    83 symmetry adapted cartesian basis functions of A   symmetry.
 There are    80 symmetry adapted basis functions of A   symmetry.
    80 basis functions,   126 primitive gaussians,    83 cartesian basis functions
    11 alpha electrons       10 beta electrons
       nuclear repulsion energy        58.7945571370 Hartrees.
 IExCor=  402 DFT=T Ex+Corr=B3LYP ExCW=0 ScaHFX=  0.200000
 ScaDFX=  0.800000  0.720000  1.000000  0.810000 ScalE2=  1.000000  1.000000
 IRadAn=      0 IRanWt=     -1 IRanGd=            0 ICorTp=0 IEmpDi=  4
 NAtoms=    5 NActive=    5 NUniq=    5 SFac= 1.00D+00 NAtFMM=   60 NAOKFM=F Big=F
 Integral buffers will be    131072 words long.
 Raffenetti 2 integral format.
 Two-electron integral symmetry is turned on.
 Leave Link  301 at Thu Jan 24 15:36:35 2019, MaxMem=    33554432 cpu:         0.0
 (Enter /apl/tryton/gaussian/09/d01/g09/l302.exe)
 NPDir=0 NMtPBC=     1 NCelOv=     1 NCel=       1 NClECP=     1 NCelD=      1
         NCelK=      1 NCelE2=     1 NClLst=     1 CellRange=     0.0.
 One-electron integrals computed using PRISM.
 NBasis=    80 RedAO= T EigKep=  1.41D-05  NBF=    80
 NBsUse=    80 1.00D-06 EigRej= -1.00D+00 NBFU=    80
 Precomputing XC quadrature grid using
 IXCGrd= 4 IRadAn=           0 IRanWt=          -1 IRanGd=           0 AccXCQ= 0.00D+00.
 Generated NRdTot=       0 NPtTot=           0 NUsed=           0 NTot=          32
 NSgBfM=    83    83    83    83    83 MxSgAt=     5 MxSgA2=     5.
 Leave Link  302 at Thu Jan 24 15:36:35 2019, MaxMem=    33554432 cpu:         0.1
 (Enter /apl/tryton/gaussian/09/d01/g09/l303.exe)
 DipDrv:  MaxL=1.
 Leave Link  303 at Thu Jan 24 15:36:35 2019, MaxMem=    33554432 cpu:         0.0
 (Enter /apl/tryton/gaussian/09/d01/g09/l401.exe)
 ExpMin= 3.60D-02 ExpMax= 8.59D+03 ExpMxC= 1.30D+03 IAcc=3 IRadAn=         5 AccDes= 0.00D+00
 Harris functional with IExCor=  402 and IRadAn=       5 diagonalized for initial guess.
 HarFok:  IExCor=  402 AccDes= 0.00D+00 IRadAn=         5 IDoV= 1 UseB2=F ITyADJ=14
 ICtDFT=  3500011 ScaDFX=  1.000000  1.000000  1.000000  1.000000
 FoFCou: FMM=F IPFlag=           0 FMFlag=      100000 FMFlg1=           0
         NFxFlg=           0 DoJE=T BraDBF=F KetDBF=T FulRan=T
         wScrn=  0.000000 ICntrl=     500 IOpCl=  0 I1Cent=   200000004 NGrid=           0
         NMat0=    1 NMatS0=      1 NMatT0=    0 NMatD0=    1 NMtDS0=    0 NMtDT0=    0
 Petite list used in FoFCou.
 Harris En= -152.309560239947    
 JPrj=0 DoOrth=F DoCkMO=F.
 Initial guess <Sx>= 0.0000 <Sy>= 0.0000 <Sz>= 0.5000 <S**2>= 0.7500 S= 0.5000
 Leave Link  401 at Thu Jan 24 15:36:36 2019, MaxMem=    33554432 cpu:         1.0
 (Enter /apl/tryton/gaussian/09/d01/g09/l502.exe)
 UHF open shell SCF:
 Using DIIS extrapolation, IDIIS=  1040.
 Integral symmetry usage will be decided dynamically.
 Keep R1 and R2 ints in memory in canonical form, NReq=11443429.
 IVT=       40331 IEndB=       40331 NGot=    33554432 MDV=    23013262
 LenX=    23013262 LenY=    23005932
 Requested convergence on RMS density matrix=1.00D-08 within 128 cycles.
 Requested convergence on MAX density matrix=1.00D-06.
 Requested convergence on             energy=1.00D-06.
 No special actions if energy rises.
 FoFCou: FMM=F IPFlag=           0 FMFlag=           0 FMFlg1=           0
         NFxFlg=           0 DoJE=F BraDBF=F KetDBF=F FulRan=T
         wScrn=  0.000000 ICntrl=     600 IOpCl=  0 I1Cent=           0 NGrid=           0
         NMat0=    1 NMatS0=   3240 NMatT0=    0 NMatD0=    1 NMtDS0=    0 NMtDT0=    0
 Symmetry not used in FoFCou.

 Cycle   1  Pass 1  IDiag  1:
 E= -152.196973572491    
 DIIS: error= 2.14D-02 at cycle   1 NSaved=   1.
 NSaved= 1 IEnMin= 1 EnMin= -152.196973572491     IErMin= 1 ErrMin= 2.14D-02
 ErrMax= 2.14D-02  0.00D+00 EMaxC= 1.00D-01 BMatC= 1.65D-01 BMatP= 1.65D-01
 IDIUse=3 WtCom= 7.86D-01 WtEn= 2.14D-01
 Coeff-Com:  0.100D+01
 Coeff-En:   0.100D+01
 Coeff:      0.100D+01
 Gap=     0.313 Goal=   None    Shift=    0.000
 Gap=     0.108 Goal=   None    Shift=    0.000
 GapD=    0.108 DampG=1.000 DampE=0.500 DampFc=0.5000 IDamp=-1.
 Damping current iteration by 5.00D-01
 RMSDP=6.40D-03 MaxDP=1.03D-01              OVMax= 1.81D-01

 Cycle   2  Pass 1  IDiag  1:
 E= -152.207436055475     Delta-E=       -0.010462482984 Rises=F Damp=T
 DIIS: error= 7.02D-03 at cycle   2 NSaved=   2.
 NSaved= 2 IEnMin= 2 EnMin= -152.207436055475     IErMin= 2 ErrMin= 7.02D-03
 ErrMax= 7.02D-03  0.00D+00 EMaxC= 1.00D-01 BMatC= 2.71D-02 BMatP= 1.65D-01
 IDIUse=3 WtCom= 9.30D-01 WtEn= 7.02D-02
 Coeff-Com:  0.948D-01 0.905D+00
 Coeff-En:   0.272D+00 0.728D+00
 Coeff:      0.107D+00 0.893D+00
 Gap=     0.334 Goal=   None    Shift=    0.000
 Gap=     0.108 Goal=   None    Shift=    0.000
 RMSDP=2.94D-03 MaxDP=7.24D-02 DE=-1.05D-02 OVMax= 1.47D-01

 Cycle   3  Pass 1  IDiag  1:
 E= -152.223222514820     Delta-E=       -0.015786459346 Rises=F Damp=F
 DIIS: error= 8.80D-03 at cycle   3 NSaved=   3.
 NSaved= 3 IEnMin= 3 EnMin= -152.223222514820     IErMin= 2 ErrMin= 7.02D-03
 ErrMax= 8.80D-03  0.00D+00 EMaxC= 1.00D-01 BMatC= 2.77D-02 BMatP= 2.71D-02
 IDIUse=3 WtCom= 9.12D-01 WtEn= 8.80D-02
 Coeff-Com: -0.858D-01 0.539D+00 0.547D+00
 Coeff-En:   0.000D+00 0.000D+00 0.100D+01
 Coeff:     -0.783D-01 0.492D+00 0.586D+00
 Gap=     0.327 Goal=   None    Shift=    0.000
 Gap=     0.108 Goal=   None    Shift=    0.000
 RMSDP=9.72D-04 MaxDP=1.46D-02 DE=-1.58D-02 OVMax= 5.03D-02

 Cycle   4  Pass 1  IDiag  1:
 E= -152.228973442964     Delta-E=       -0.005750928144 Rises=F Damp=F
 DIIS: error= 4.74D-03 at cycle   4 NSaved=   4.
 NSaved= 4 IEnMin= 4 EnMin= -152.228973442964     IErMin= 4 ErrMin= 4.74D-03
 ErrMax= 4.74D-03  0.00D+00 EMaxC= 1.00D-01 BMatC= 4.71D-03 BMatP= 2.71D-02
 IDIUse=3 WtCom= 9.53D-01 WtEn= 4.74D-02
 Coeff-Com: -0.600D-01 0.198D+00 0.360D+00 0.502D+00
 Coeff-En:   0.000D+00 0.000D+00 0.129D+00 0.871D+00
 Coeff:     -0.571D-01 0.188D+00 0.349D+00 0.520D+00
 Gap=     0.329 Goal=   None    Shift=    0.000
 Gap=     0.109 Goal=   None    Shift=    0.000
 RMSDP=4.28D-04 MaxDP=5.30D-03 DE=-5.75D-03 OVMax= 1.55D-02

 Cycle   5  Pass 1  IDiag  1:
 E= -152.229823442368     Delta-E=       -0.000849999404 Rises=F Damp=F
 DIIS: error= 1.81D-03 at cycle   5 NSaved=   5.
 NSaved= 5 IEnMin= 5 EnMin= -152.229823442368     IErMin= 5 ErrMin= 1.81D-03
 ErrMax= 1.81D-03  0.00D+00 EMaxC= 1.00D-01 BMatC= 5.37D-04 BMatP= 4.71D-03
 IDIUse=3 WtCom= 9.82D-01 WtEn= 1.81D-02
 Coeff-Com: -0.197D-01 0.330D-01 0.119D+00 0.325D+00 0.543D+00
 Coeff-En:   0.000D+00 0.000D+00 0.000D+00 0.800D-01 0.920D+00
 Coeff:     -0.193D-01 0.324D-01 0.117D+00 0.321D+00 0.549D+00
 Gap=     0.328 Goal=   None    Shift=    0.000
 Gap=     0.109 Goal=   None    Shift=    0.000
 RMSDP=1.42D-04 MaxDP=2.11D-03 DE=-8.50D-04 OVMax= 8.37D-03

 Cycle   6  Pass 1  IDiag  1:
 E= -152.229942289967     Delta-E=       -0.000118847599 Rises=F Damp=F
 DIIS: error= 3.53D-04 at cycle   6 NSaved=   6.
 NSaved= 6 IEnMin= 6 EnMin= -152.229942289967     IErMin= 6 ErrMin= 3.53D-04
 ErrMax= 3.53D-04  0.00D+00 EMaxC= 1.00D-01 BMatC= 2.21D-05 BMatP= 5.37D-04
 IDIUse=3 WtCom= 9.96D-01 WtEn= 3.53D-03
 Coeff-Com:  0.528D-03-0.824D-02-0.148D-01 0.140D-01 0.173D+00 0.836D+00
 Coeff-En:   0.000D+00 0.000D+00 0.000D+00 0.000D+00 0.000D+00 0.100D+01
 Coeff:      0.526D-03-0.821D-02-0.147D-01 0.139D-01 0.172D+00 0.836D+00
 Gap=     0.328 Goal=   None    Shift=    0.000
 Gap=     0.109 Goal=   None    Shift=    0.000
 RMSDP=4.59D-05 MaxDP=6.69D-04 DE=-1.19D-04 OVMax= 1.94D-03

 Cycle   7  Pass 1  IDiag  1:
 E= -152.229951634953     Delta-E=       -0.000009344986 Rises=F Damp=F
 DIIS: error= 8.65D-05 at cycle   7 NSaved=   7.
 NSaved= 7 IEnMin= 7 EnMin= -152.229951634953     IErMin= 7 ErrMin= 8.65D-05
 ErrMax= 8.65D-05  0.00D+00 EMaxC= 1.00D-01 BMatC= 1.68D-06 BMatP= 2.21D-05
 IDIUse=1 WtCom= 1.00D+00 WtEn= 0.00D+00
 Coeff-Com:  0.273D-02-0.354D-02-0.190D-01-0.531D-01-0.911D-01-0.123D+00
 Coeff-Com:  0.129D+01
 Coeff:      0.273D-02-0.354D-02-0.190D-01-0.531D-01-0.911D-01-0.123D+00
 Coeff:      0.129D+01
 Gap=     0.329 Goal=   None    Shift=    0.000
 Gap=     0.109 Goal=   None    Shift=    0.000
 RMSDP=2.86D-05 MaxDP=5.49D-04 DE=-9.34D-06 OVMax= 1.92D-03

 Cycle   8  Pass 1  IDiag  1:
 E= -152.229954179066     Delta-E=       -0.000002544113 Rises=F Damp=F
 DIIS: error= 3.44D-05 at cycle   8 NSaved=   8.
 NSaved= 8 IEnMin= 8 EnMin= -152.229954179066     IErMin= 8 ErrMin= 3.44D-05
 ErrMax= 3.44D-05  0.00D+00 EMaxC= 1.00D-01 BMatC= 2.08D-07 BMatP= 1.68D-06
 IDIUse=1 WtCom= 1.00D+00 WtEn= 0.00D+00
 Coeff-Com: -0.495D-03 0.157D-02 0.540D-02 0.605D-02-0.122D-01-0.685D-01
 Coeff-Com: -0.237D+00 0.130D+01
 Coeff:     -0.495D-03 0.157D-02 0.540D-02 0.605D-02-0.122D-01-0.685D-01
 Coeff:     -0.237D+00 0.130D+01
 Gap=     0.329 Goal=   None    Shift=    0.000
 Gap=     0.109 Goal=   None    Shift=    0.000
 RMSDP=1.20D-05 MaxDP=2.41D-04 DE=-2.54D-06 OVMax= 8.32D-04

 Cycle   9  Pass 1  IDiag  1:
 E= -152.229954574950     Delta-E=       -0.000000395884 Rises=F Damp=F
 DIIS: error= 1.22D-05 at cycle   9 NSaved=   9.
 NSaved= 9 IEnMin= 9 EnMin= -152.229954574950     IErMin= 9 ErrMin= 1.22D-05
 ErrMax= 1.22D-05  0.00D+00 EMaxC= 1.00D-01 BMatC= 3.39D-08 BMatP= 2.08D-07
 IDIUse=1 WtCom= 1.00D+00 WtEn= 0.00D+00
 Coeff-Com: -0.300D-03 0.268D-03 0.232D-02 0.760D-02 0.927D-02 0.204D-01
 Coeff-Com: -0.153D+00-0.724D-01 0.119D+01
 Coeff:     -0.300D-03 0.268D-03 0.232D-02 0.760D-02 0.927D-02 0.204D-01
 Coeff:     -0.153D+00-0.724D-01 0.119D+01
 Gap=     0.329 Goal=   None    Shift=    0.000
 Gap=     0.109 Goal=   None    Shift=    0.000
 RMSDP=4.02D-06 MaxDP=8.23D-05 DE=-3.96D-07 OVMax= 2.96D-04

 Cycle  10  Pass 1  IDiag  1:
 E= -152.229954620276     Delta-E=       -0.000000045327 Rises=F Damp=F
 DIIS: error= 3.11D-06 at cycle  10 NSaved=  10.
 NSaved=10 IEnMin=10 EnMin= -152.229954620276     IErMin=10 ErrMin= 3.11D-06
 ErrMax= 3.11D-06  0.00D+00 EMaxC= 1.00D-01 BMatC= 2.28D-09 BMatP= 3.39D-08
 IDIUse=1 WtCom= 1.00D+00 WtEn= 0.00D+00
 Coeff-Com:  0.133D-03-0.272D-03-0.925D-03-0.197D-02-0.732D-03 0.106D-02
 Coeff-Com:  0.550D-01-0.147D+00-0.132D+00 0.123D+01
 Coeff:      0.133D-03-0.272D-03-0.925D-03-0.197D-02-0.732D-03 0.106D-02
 Coeff:      0.550D-01-0.147D+00-0.132D+00 0.123D+01
 Gap=     0.329 Goal=   None    Shift=    0.000
 Gap=     0.109 Goal=   None    Shift=    0.000
 RMSDP=1.05D-06 MaxDP=2.48D-05 DE=-4.53D-08 OVMax= 8.48D-05

 Cycle  11  Pass 1  IDiag  1:
 E= -152.229954623477     Delta-E=       -0.000000003201 Rises=F Damp=F
 DIIS: error= 7.83D-07 at cycle  11 NSaved=  11.
 NSaved=11 IEnMin=11 EnMin= -152.229954623477     IErMin=11 ErrMin= 7.83D-07
 ErrMax= 7.83D-07  0.00D+00 EMaxC= 1.00D-01 BMatC= 1.36D-10 BMatP= 2.28D-09
 IDIUse=1 WtCom= 1.00D+00 WtEn= 0.00D+00
 Coeff-Com:  0.263D-04-0.400D-04-0.187D-03-0.592D-03-0.796D-03-0.647D-03
 Coeff-Com:  0.114D-01-0.134D-02-0.856D-01 0.870D-01 0.991D+00
 Coeff:      0.263D-04-0.400D-04-0.187D-03-0.592D-03-0.796D-03-0.647D-03
 Coeff:      0.114D-01-0.134D-02-0.856D-01 0.870D-01 0.991D+00
 Gap=     0.329 Goal=   None    Shift=    0.000
 Gap=     0.109 Goal=   None    Shift=    0.000
 RMSDP=1.45D-07 MaxDP=2.92D-06 DE=-3.20D-09 OVMax= 9.21D-06

 Cycle  12  Pass 1  IDiag  1:
 E= -152.229954623554     Delta-E=       -0.000000000077 Rises=F Damp=F
 DIIS: error= 4.65D-07 at cycle  12 NSaved=  12.
 NSaved=12 IEnMin=12 EnMin= -152.229954623554     IErMin=12 ErrMin= 4.65D-07
 ErrMax= 4.65D-07  0.00D+00 EMaxC= 1.00D-01 BMatC= 2.43D-11 BMatP= 1.36D-10
 IDIUse=1 WtCom= 1.00D+00 WtEn= 0.00D+00
 Coeff-Com: -0.913D-05 0.181D-04 0.532D-04 0.142D-03-0.691D-04 0.565D-04
 Coeff-Com: -0.379D-02 0.109D-01 0.806D-02-0.848D-01-0.915D-02 0.108D+01
 Coeff:     -0.913D-05 0.181D-04 0.532D-04 0.142D-03-0.691D-04 0.565D-04
 Coeff:     -0.379D-02 0.109D-01 0.806D-02-0.848D-01-0.915D-02 0.108D+01
 Gap=     0.329 Goal=   None    Shift=    0.000
 Gap=     0.109 Goal=   None    Shift=    0.000
 RMSDP=5.56D-08 MaxDP=1.20D-06 DE=-7.71D-11 OVMax= 1.96D-06

 Cycle  13  Pass 1  IDiag  1:
 E= -152.229954623564     Delta-E=       -0.000000000010 Rises=F Damp=F
 DIIS: error= 8.80D-08 at cycle  13 NSaved=  13.
 NSaved=13 IEnMin=13 EnMin= -152.229954623564     IErMin=13 ErrMin= 8.80D-08
 ErrMax= 8.80D-08  0.00D+00 EMaxC= 1.00D-01 BMatC= 1.00D-12 BMatP= 2.43D-11
 IDIUse=1 WtCom= 1.00D+00 WtEn= 0.00D+00
 Coeff-Com: -0.380D-06 0.314D-06 0.125D-04 0.292D-04 0.290D-04-0.699D-04
 Coeff-Com: -0.309D-03-0.384D-03 0.516D-02 0.333D-03-0.815D-01-0.102D+00
 Coeff-Com:  0.118D+01
 Coeff:     -0.380D-06 0.314D-06 0.125D-04 0.292D-04 0.290D-04-0.699D-04
 Coeff:     -0.309D-03-0.384D-03 0.516D-02 0.333D-03-0.815D-01-0.102D+00
 Coeff:      0.118D+01
 Gap=     0.329 Goal=   None    Shift=    0.000
 Gap=     0.109 Goal=   None    Shift=    0.000
 RMSDP=1.46D-08 MaxDP=2.29D-07 DE=-9.61D-12 OVMax= 1.25D-06

 Cycle  14  Pass 1  IDiag  1:
 E= -152.229954623565     Delta-E=       -0.000000000001 Rises=F Damp=F
 DIIS: error= 2.09D-08 at cycle  14 NSaved=  14.
 NSaved=14 IEnMin=14 EnMin= -152.229954623565     IErMin=14 ErrMin= 2.09D-08
 ErrMax= 2.09D-08  0.00D+00 EMaxC= 1.00D-01 BMatC= 8.85D-14 BMatP= 1.00D-12
 IDIUse=1 WtCom= 1.00D+00 WtEn= 0.00D+00
 Coeff-Com:  0.392D-06-0.752D-06-0.194D-05-0.478D-05-0.526D-05 0.258D-05
 Coeff-Com:  0.153D-03-0.385D-03-0.391D-03 0.285D-02 0.209D-02-0.439D-01
 Coeff-Com: -0.404D-01 0.108D+01
 Coeff:      0.392D-06-0.752D-06-0.194D-05-0.478D-05-0.526D-05 0.258D-05
 Coeff:      0.153D-03-0.385D-03-0.391D-03 0.285D-02 0.209D-02-0.439D-01
 Coeff:     -0.404D-01 0.108D+01
 Gap=     0.329 Goal=   None    Shift=    0.000
 Gap=     0.109 Goal=   None    Shift=    0.000
 RMSDP=5.61D-09 MaxDP=8.22D-08 DE=-1.02D-12 OVMax= 8.24D-07

 SCF Done:  E(UB3LYP) =  -152.229954624     A.U. after   14 cycles
            NFock= 14  Conv=0.56D-08     -V/T= 2.0035
 <Sx>= 0.0000 <Sy>= 0.0000 <Sz>= 0.5000 <S**2>= 0.7541 S= 0.5020
 <L.S>= 0.000000000000E+00
 KE= 1.517049869366D+02 PE=-4.676133730105D+02 EE= 1.048838743133D+02
 Annihilation of the first spin contaminant:
 S**2 before annihilation     0.7541,   after     0.7500
 Leave Link  502 at Thu Jan 24 15:36:46 2019, MaxMem=    33554432 cpu:        10.1
 (Enter /apl/tryton/gaussian/09/d01/g09/l801.exe)
 DoSCS=F DFT=T ScalE2(SS,OS)=  1.000000  1.000000
 Range of M.O.s used for correlation:     1    80
 NBasis=    80 NAE=    11 NBE=    10 NFC=     0 NFV=     0
 NROrb=     80 NOA=    11 NOB=    10 NVA=    69 NVB=    70

 **** Warning!!: The largest alpha MO coefficient is  0.10400706D+03


 **** Warning!!: The largest beta MO coefficient is  0.10661865D+03

 Leave Link  801 at Thu Jan 24 15:36:46 2019, MaxMem=    33554432 cpu:         0.0
 (Enter /apl/tryton/gaussian/09/d01/g09/l1101.exe)
 Using compressed storage, NAtomX=     5.
 Will process      6 centers per pass.
 Leave Link 1101 at Thu Jan 24 15:36:46 2019, MaxMem=    33554432 cpu:         0.1
 (Enter /apl/tryton/gaussian/09/d01/g09/l1102.exe)
 Symmetrizing basis deriv contribution to polar:
 IMax=3 JMax=2 DiffMx= 0.00D+00
 Leave Link 1102 at Thu Jan 24 15:36:46 2019, MaxMem=    33554432 cpu:         0.0
 (Enter /apl/tryton/gaussian/09/d01/g09/l1110.exe)
 Forming Gx(P) for the SCF density, NAtomX=     5.
 Integral derivatives from FoFJK, PRISM(SPDF).
 Do as many integral derivatives as possible in FoFJK.
 G2DrvN: MDV=      33554288.
 G2DrvN: will do     6 centers at a time, making    1 passes.
 Calling FoFCou, ICntrl=  3107 FMM=F I1Cent=   0 AccDes= 0.00D+00.
 FoFJK:  IHMeth= 1 ICntrl=    3107 DoSepK=F KAlg= 0 I1Cent=   0 FoldK=F
 IRaf=         0 NMat=   1 IRICut=       1 DoRegI=T DoRafI=F ISym2E= 0.
 FoFCou: FMM=F IPFlag=           0 FMFlag=      100000 FMFlg1=           0
         NFxFlg=           0 DoJE=F BraDBF=F KetDBF=F FulRan=T
         wScrn=  0.000000 ICntrl=    3107 IOpCl=  1 I1Cent=           0 NGrid=           0
         NMat0=    1 NMatS0=      1 NMatT0=    0 NMatD0=    1 NMtDS0=    0 NMtDT0=    0
 Symmetry not used in FoFCou.
 End of G2Drv F.D. properties file   721 does not exist.
 End of G2Drv F.D. properties file   722 does not exist.
 End of G2Drv F.D. properties file   788 does not exist.
 Leave Link 1110 at Thu Jan 24 15:36:57 2019, MaxMem=    33554432 cpu:        10.8
 (Enter /apl/tryton/gaussian/09/d01/g09/l1002.exe)
 Minotr:  UHF open shell wavefunction.
          IDoAtm=11111
          Direct CPHF calculation.
          Differentiating once with respect to electric field.
                with respect to dipole field.
          Differentiating once with respect to nuclear coordinates.
          Requested convergence is 1.0D-08 RMS, and 1.0D-07 maximum.
          Secondary convergence is 1.0D-12 RMS, and 1.0D-12 maximum.
          NewPWx=T KeepS1=F KeepF1=F KeepIn=T MapXYZ=F SortEE=F KeepMc=T.
          MDV=      33554218 using IRadAn=       2.
 Generate precomputed XC quadrature information.
 Keep R1 and R2 ints in memory in canonical form, NReq=11403579.
 FoFCou: FMM=F IPFlag=           0 FMFlag=           0 FMFlg1=           0
         NFxFlg=           0 DoJE=F BraDBF=F KetDBF=F FulRan=T
         wScrn=  0.000000 ICntrl=     600 IOpCl=  0 I1Cent=           0 NGrid=           0
         NMat0=    1 NMatS0=   3240 NMatT0=    0 NMatD0=    1 NMtDS0=    0 NMtDT0=    0
 Symmetry not used in FoFCou.
          Solving linear equations simultaneously, MaxMat=       0.
          There are    18 degrees of freedom in the 1st order CPHF.  IDoFFX=6 NUNeed=     3.
     16 vectors produced by pass  0 Test12= 8.11D-15 5.56D-09 XBig12= 8.85D+01 4.50D+00.
 AX will form    16 AO Fock derivatives at one time.
     15 vectors produced by pass  1 Test12= 8.11D-15 5.56D-09 XBig12= 2.68D+01 1.07D+00.
     15 vectors produced by pass  2 Test12= 8.11D-15 5.56D-09 XBig12= 1.04D+00 3.74D-01.
     15 vectors produced by pass  3 Test12= 8.11D-15 5.56D-09 XBig12= 7.58D-03 2.60D-02.
     15 vectors produced by pass  4 Test12= 8.11D-15 5.56D-09 XBig12= 6.87D-05 1.90D-03.
     15 vectors produced by pass  5 Test12= 8.11D-15 5.56D-09 XBig12= 3.86D-07 1.12D-04.
     10 vectors produced by pass  6 Test12= 8.11D-15 5.56D-09 XBig12= 1.22D-09 4.78D-06.
      4 vectors produced by pass  7 Test12= 8.11D-15 5.56D-09 XBig12= 4.09D-12 3.60D-07.
      1 vectors produced by pass  8 Test12= 8.11D-15 5.56D-09 XBig12= 1.94D-14 2.44D-08.
 InvSVY:  IOpt=1 It=  1 EMax= 1.78D-15
 Solved reduced A of dimension   106 with    18 vectors.
 FullF1:  Do perturbations    1 to     3.
 Isotropic polarizability for W=    0.000000       20.40 Bohr**3.
 End of Minotr F.D. properties file   721 does not exist.
 End of Minotr F.D. properties file   722 does not exist.
 End of Minotr F.D. properties file   788 does not exist.
 Leave Link 1002 at Thu Jan 24 15:37:11 2019, MaxMem=    33554432 cpu:        14.0
 (Enter /apl/tryton/gaussian/09/d01/g09/l601.exe)
 Copying SCF densities to generalized density rwf, IOpCl= 1 IROHF=0.

 **********************************************************************

            Population analysis using the SCF density.

 **********************************************************************

 Orbital symmetries:
 Alpha Orbitals:
       Occupied  (A) (A) (A) (A) (A) (A) (A) (A) (A) (A) (A)
       Virtual   (A) (A) (A) (A) (A) (A) (A) (A) (A) (A) (A) (A)
                 (A) (A) (A) (A) (A) (A) (A) (A) (A) (A) (A) (A)
                 (A) (A) (A) (A) (A) (A) (A) (A) (A) (A) (A) (A)
                 (A) (A) (A) (A) (A) (A) (A) (A) (A) (A) (A) (A)
                 (A) (A) (A) (A) (A) (A) (A) (A) (A) (A) (A) (A)
                 (A) (A) (A) (A) (A) (A) (A) (A) (A)
 Beta  Orbitals:
       Occupied  (A) (A) (A) (A) (A) (A) (A) (A) (A) (A)
       Virtual   (A) (A) (A) (A) (A) (A) (A) (A) (A) (A) (A) (A)
                 (A) (A) (A) (A) (A) (A) (A) (A) (A) (A) (A) (A)
                 (A) (A) (A) (A) (A) (A) (A) (A) (A) (A) (A) (A)
                 (A) (A) (A) (A) (A) (A) (A) (A) (A) (A) (A) (A)
                 (A) (A) (A) (A) (A) (A) (A) (A) (A) (A) (A) (A)
                 (A) (A) (A) (A) (A) (A) (A) (A) (A) (A)
 The electronic state is 2-A.
 Alpha  occ. eigenvalues --  -19.52954 -10.57980 -10.52440  -1.44685  -1.09356
 Alpha  occ. eigenvalues --   -0.95811  -0.82034  -0.77898  -0.76995  -0.59318
 Alpha  occ. eigenvalues --   -0.58307
 Alpha virt. eigenvalues --   -0.25448  -0.24882  -0.23370  -0.15358  -0.13580
 Alpha virt. eigenvalues --   -0.10843  -0.10831  -0.08865  -0.06794  -0.05369
 Alpha virt. eigenvalues --   -0.02899  -0.01245   0.00354   0.01988   0.06288
 Alpha virt. eigenvalues --    0.06645   0.08094   0.11737   0.15651   0.25793
 Alpha virt. eigenvalues --    0.26835   0.27354   0.30671   0.34444   0.37274
 Alpha virt. eigenvalues --    0.44869   0.47337   0.58594   0.64756   0.74508
 Alpha virt. eigenvalues --    0.76374   0.81104   0.81878   0.83902   0.85316
 Alpha virt. eigenvalues --    0.88594   0.97689   1.08999   1.19855   1.23114
 Alpha virt. eigenvalues --    1.26381   1.31822   1.39417   1.42466   1.66183
 Alpha virt. eigenvalues --    1.72274   1.88890   1.98321   2.25921   2.30405
 Alpha virt. eigenvalues --    2.34371   2.36071   2.40096   2.57198   2.63432
 Alpha virt. eigenvalues --    2.70719   2.93321   2.96766   3.01099   3.09280
 Alpha virt. eigenvalues --    3.20991   3.52567   3.67201   4.65959   4.93954
 Alpha virt. eigenvalues --    5.39753  23.23768  24.71167  49.65489
  Beta  occ. eigenvalues --  -19.52309 -10.57753 -10.51433  -1.43494  -1.06040
  Beta  occ. eigenvalues --   -0.95022  -0.80962  -0.77317  -0.72918  -0.57224
  Beta virt. eigenvalues --   -0.46284  -0.24872  -0.22946  -0.20002  -0.14767
  Beta virt. eigenvalues --   -0.13115  -0.10627  -0.10282  -0.08498  -0.06720
  Beta virt. eigenvalues --   -0.04684  -0.02735  -0.01082   0.00632   0.02046
  Beta virt. eigenvalues --    0.06436   0.07040   0.08304   0.11808   0.15868
  Beta virt. eigenvalues --    0.25918   0.27353   0.29377   0.31084   0.36825
  Beta virt. eigenvalues --    0.37509   0.45425   0.47826   0.59400   0.65342
  Beta virt. eigenvalues --    0.75670   0.78420   0.81579   0.84422   0.86670
  Beta virt. eigenvalues --    0.87369   0.88935   0.98457   1.10333   1.21473
  Beta virt. eigenvalues --    1.25339   1.27484   1.33306   1.39485   1.43304
  Beta virt. eigenvalues --    1.67014   1.72608   1.91564   1.98769   2.25995
  Beta virt. eigenvalues --    2.31080   2.34780   2.40142   2.40817   2.60535
  Beta virt. eigenvalues --    2.64022   2.72561   2.94208   2.97872   3.02512
  Beta virt. eigenvalues --    3.11489   3.21515   3.52961   3.68306   4.68606
  Beta virt. eigenvalues --    4.94492   5.40311  23.24474  24.71949  49.66130
          Condensed to atoms (all electrons):
               1          2          3          4          5
     1  C    5.036307   0.500856   0.337163   0.048367  -0.146552
     2  C    0.500856   5.160655   0.022329  -0.049965   0.210928
     3  H    0.337163   0.022329   0.340363   0.001441  -0.005508
     4  H    0.048367  -0.049965   0.001441   0.349255   0.268489
     5  O   -0.146552   0.210928  -0.005508   0.268489   7.738327
          Atomic-Atomic Spin Densities.
               1          2          3          4          5
     1  C    0.560954   0.103973  -0.005742  -0.000958  -0.003547
     2  C    0.103973   0.127145   0.001003   0.001261  -0.072898
     3  H   -0.005742   0.001003  -0.022936  -0.000032   0.000317
     4  H   -0.000958   0.001261  -0.000032  -0.008360   0.000084
     5  O   -0.003547  -0.072898   0.000317   0.000084   0.296277
 Mulliken charges and spin densities:
               1          2
     1  C    0.223860   0.654680
     2  C    0.155197   0.160484
     3  H    0.304212  -0.027391
     4  H    0.382414  -0.008005
     5  O   -0.065683   0.220232
 Sum of Mulliken charges =   1.00000   1.00000
 Mulliken charges and spin densities with hydrogens summed into heavy atoms:
               1          2
     1  C    0.528072   0.627289
     2  C    0.155197   0.160484
     5  O    0.316730   0.212227
 APT charges:
               1
     1  C    0.063179
     2  C    0.588323
     3  H    0.314554
     4  H    0.501996
     5  O   -0.468052
 Sum of APT charges =   1.00000
 APT charges with hydrogens summed into heavy atoms:
               1
     1  C    0.377733
     2  C    0.588323
     5  O    0.033944
 Electronic spatial extent (au):  <R**2>=            131.0241
 Charge=              1.0000 electrons
 Dipole moment (field-independent basis, Debye):
    X=              0.8035    Y=              1.7546    Z=             -0.0006  Tot=              1.9299
 Quadrupole moment (field-independent basis, Debye-Ang):
   XX=             -1.1299   YY=            -14.8363   ZZ=            -14.8849
   XY=             -3.1221   XZ=              0.0002   YZ=              0.0019
 Traceless Quadrupole moment (field-independent basis, Debye-Ang):
   XX=              9.1538   YY=             -4.5526   ZZ=             -4.6012
   XY=             -3.1221   XZ=              0.0002   YZ=              0.0019
 Octapole moment (field-independent basis, Debye-Ang**2):
  XXX=              6.1601  YYY=              1.3600  ZZZ=              0.0014  XYY=             -4.9880
  XXY=              6.0558  XXZ=              0.0078  XZZ=             -1.6488  YZZ=              0.1737
  YYZ=              0.0017  XYZ=             -0.0015
 Hexadecapole moment (field-independent basis, Debye-Ang**3):
 XXXX=            -53.5693 YYYY=            -15.3230 ZZZZ=            -12.6213 XXXY=             -9.8074
 XXXZ=             -0.0075 YYYX=             -3.1774 YYYZ=              0.0019 ZZZX=             -0.0014
 ZZZY=              0.0012 XXYY=            -21.0564 XXZZ=            -23.0866 YYZZ=             -4.8014
 XXYZ=              0.0039 YYXZ=             -0.0019 ZZXY=             -0.4762
 N-N= 5.879455713700D+01 E-N=-4.676133732713D+02  KE= 1.517049869366D+02
  Exact polarizability:  37.469  -0.915  12.734   0.008  -0.002  11.011
 Approx polarizability:  63.689  -0.715  16.093   0.028  -0.003  14.030
                          Isotropic Fermi Contact Couplings
        Atom                 a.u.       MegaHertz       Gauss      10(-4) cm-1
     1  C(13)              0.02864      32.19538      11.48811      10.73922
     2  C(13)             -0.03906     -43.91091     -15.66850     -14.64710
     3  H(1)              -0.01239     -55.36595     -19.75595     -18.46809
     4  H(1)              -0.00488     -21.79445      -7.77680      -7.26985
     5  O(17)              0.02548     -15.44882      -5.51252      -5.15317
 --------------------------------------------------------
       Center         ----  Spin Dipole Couplings  ----
                      3XX-RR        3YY-RR        3ZZ-RR
 --------------------------------------------------------
     1   Atom       -0.406916     -0.387958      0.794874
     2   Atom       -0.068833     -0.236735      0.305568
     3   Atom        0.060269     -0.047970     -0.012298
     4   Atom       -0.002281      0.016956     -0.014675
     5   Atom       -0.507292     -0.526541      1.033833
 --------------------------------------------------------
                        XY            XZ            YZ
 --------------------------------------------------------
     1   Atom       -0.000902     -0.001513      0.000602
     2   Atom        0.004239     -0.000293      0.000247
     3   Atom        0.002692     -0.000012      0.000019
     4   Atom       -0.034986      0.000011      0.000024
     5   Atom       -0.015083      0.001753      0.000746
 --------------------------------------------------------


 ---------------------------------------------------------------------------------
              Anisotropic Spin Dipole Couplings in Principal Axis System
 ---------------------------------------------------------------------------------

       Atom             a.u.   MegaHertz   Gauss  10(-4) cm-1        Axes

              Baa    -0.4070   -54.610   -19.486   -18.216  0.9989  0.0474  0.0012
     1 C(13)  Bbb    -0.3879   -52.054   -18.574   -17.364 -0.0474  0.9989 -0.0006
              Bcc     0.7949   106.665    38.061    35.580 -0.0013  0.0005  1.0000
 
              Baa    -0.2368   -31.782   -11.341   -10.601 -0.0252  0.9997 -0.0005
     2 C(13)  Bbb    -0.0687    -9.222    -3.291    -3.076  0.9997  0.0252  0.0008
              Bcc     0.3056    41.004    14.631    13.678 -0.0008  0.0004  1.0000
 
              Baa    -0.0480   -25.630    -9.146    -8.549 -0.0248  0.9997 -0.0005
     3 H(1)   Bbb    -0.0123    -6.562    -2.341    -2.189  0.0001  0.0005  1.0000
              Bcc     0.0603    32.192    11.487    10.738  0.9997  0.0248 -0.0002
 
              Baa    -0.0289   -15.445    -5.511    -5.152  0.7953  0.6062 -0.0017
     4 H(1)   Bbb    -0.0147    -7.830    -2.794    -2.612  0.0014  0.0008  1.0000
              Bcc     0.0436    23.274     8.305     7.763 -0.6062  0.7953  0.0002
 
              Baa    -0.5348    38.699    13.809    12.908  0.4807  0.8769 -0.0010
     5 O(17)  Bbb    -0.4990    36.109    12.885    12.045  0.8769 -0.4807 -0.0008
              Bcc     1.0338   -74.808   -26.693   -24.953  0.0011  0.0005  1.0000
 

 ---------------------------------------------------------------------------------

 No NMR shielding tensors so no spin-rotation constants.
 Leave Link  601 at Thu Jan 24 15:37:12 2019, MaxMem=    33554432 cpu:         0.2
 (Enter /apl/tryton/gaussian/09/d01/g09/l701.exe)
 Compute integral second derivatives.
 ... and contract with generalized density number  0.
 Leave Link  701 at Thu Jan 24 15:37:12 2019, MaxMem=    33554432 cpu:         0.2
 (Enter /apl/tryton/gaussian/09/d01/g09/l702.exe)
 L702 exits ... SP integral derivatives will be done elsewhere.
 Leave Link  702 at Thu Jan 24 15:37:12 2019, MaxMem=    33554432 cpu:         0.0
 (Enter /apl/tryton/gaussian/09/d01/g09/l703.exe)
 Compute integral second derivatives, UseDBF=F ICtDFT=           0.
 Integral derivatives from FoFJK, PRISM(SPDF).
 Calling FoFJK, ICntrl=    100127 FMM=F ISym2X=0 I1Cent= 0 IOpClX= 1 NMat=1 NMatS=1 NMatT=0.
 FoFJK:  IHMeth= 1 ICntrl=  100127 DoSepK=F KAlg= 0 I1Cent=   0 FoldK=F
 IRaf=         0 NMat=   1 IRICut=       1 DoRegI=T DoRafI=F ISym2E= 0.
 FoFCou: FMM=F IPFlag=           0 FMFlag=      100000 FMFlg1=         800
         NFxFlg=           0 DoJE=F BraDBF=F KetDBF=F FulRan=T
         wScrn=  0.000000 ICntrl=  100127 IOpCl=  1 I1Cent=           0 NGrid=           0
         NMat0=    1 NMatS0=      1 NMatT0=    0 NMatD0=    1 NMtDS0=    0 NMtDT0=    0
 Symmetry not used in FoFCou.
 Leave Link  703 at Thu Jan 24 15:37:28 2019, MaxMem=    33554432 cpu:        15.7
 (Enter /apl/tryton/gaussian/09/d01/g09/l716.exe)
 Dipole        = 3.16133743D-01 6.90321751D-01-2.23122128D-04
 Polarizability= 3.74690509D+01-9.14682022D-01 1.27344406D+01
                 7.59882504D-03-1.98700046D-03 1.10112948D+01
 Full mass-weighted force constant matrix:
 Low frequencies ---  -32.8588  -10.6440   -5.1800    0.0006    0.0007    0.0009
 Low frequencies ---  379.8920  449.5218  612.9923
 Diagonal vibrational polarizability:
        8.5366890       5.4183244       1.9353307
 Harmonic frequencies (cm**-1), IR intensities (KM/Mole), Raman scattering
 activities (A**4/AMU), depolarization ratios for plane and unpolarized
 incident light, reduced masses (AMU), force constants (mDyne/A),
 and normal coordinates:
                      1                      2                      3
                      A                      A                      A
 Frequencies --    379.8776               449.5201               612.9919
 Red. masses --      5.5980                 3.5743                 1.1529
 Frc consts  --      0.4760                 0.4255                 0.2553
 IR Inten    --     13.2266                 7.1907                62.5201
  Atom  AN      X      Y      Z        X      Y      Z        X      Y      Z
     1   6     0.01   0.28  -0.00     0.00  -0.00  -0.13    -0.00   0.11   0.00
     2   6     0.02  -0.55   0.00    -0.00   0.00   0.43     0.00   0.01  -0.00
     3   1     0.01   0.16  -0.00     0.00  -0.00  -0.76     0.03  -0.99  -0.00
     4   1     0.53   0.53   0.01    -0.00  -0.00  -0.44    -0.06  -0.07   0.00
     5   8    -0.06   0.16  -0.00    -0.00  -0.00  -0.15     0.00  -0.03  -0.00
                      4                      5                      6
                      A                      A                      A
 Frequencies --    627.3274              1160.0284              1210.5502
 Red. masses --      1.3917                 1.2938                 5.4700
 Frc consts  --      0.3227                 1.0258                 4.7228
 IR Inten    --     14.2834               227.4768                38.0966
  Atom  AN      X      Y      Z        X      Y      Z        X      Y      Z
     1   6    -0.00  -0.00   0.16     0.02  -0.00  -0.00     0.43   0.00   0.00
     2   6    -0.00  -0.00  -0.09     0.01   0.08  -0.00     0.10   0.01  -0.00
     3   1    -0.00   0.00  -0.98     0.02  -0.05   0.00     0.52   0.03   0.00
     4   1     0.00   0.00   0.06     0.85   0.51  -0.00    -0.60  -0.12   0.00
     5   8     0.00   0.00   0.00    -0.07  -0.09   0.00    -0.39  -0.00   0.00
                      7                      8                      9
                      A                      A                      A
 Frequencies --   2203.7581              3358.2696              3541.8388
 Red. masses --      6.8730                 1.1523                 1.0674
 Frc consts  --     19.6663                 7.6567                 7.8894
 IR Inten    --     36.8194               272.2279               423.9260
  Atom  AN      X      Y      Z        X      Y      Z        X      Y      Z
     1   6    -0.32  -0.00  -0.00    -0.11  -0.00  -0.00     0.00   0.00   0.00
     2   6     0.62   0.01   0.00     0.03   0.00   0.00    -0.00   0.00  -0.00
     3   1    -0.65   0.01  -0.00     0.99   0.03  -0.00    -0.04  -0.00   0.00
     4   1    -0.22  -0.03   0.00     0.02  -0.04  -0.00     0.55  -0.84  -0.00
     5   8    -0.17  -0.01   0.00    -0.00   0.00   0.00    -0.04   0.05   0.00

 -------------------
 - Thermochemistry -
 -------------------
 Temperature   298.150 Kelvin.  Pressure   1.00000 Atm.
 Atom     1 has atomic number  6 and mass  12.00000
 Atom     2 has atomic number  6 and mass  12.00000
 Atom     3 has atomic number  1 and mass   1.00783
 Atom     4 has atomic number  1 and mass   1.00783
 Atom     5 has atomic number  8 and mass  15.99491
 Molecular mass:    42.01056 amu.
 Principal axes and moments of inertia in atomic units:
                           1         2         3
     Eigenvalues --     2.48012 181.41580 183.89576
           X            0.99977  -0.02168  -0.00003
           Y            0.02168   0.99976   0.00062
           Z            0.00001  -0.00062   1.00000
 This molecule is an asymmetric top.
 Rotational symmetry number  1.
 Rotational temperatures (Kelvin)     34.92330     0.47743     0.47099
 Rotational constants (GHZ):         727.68440     9.94809     9.81394
 Zero-point vibrational energy      81012.1 (Joules/Mol)
                                   19.36235 (Kcal/Mol)
 Warning -- explicit consideration of   3 degrees of freedom as
           vibrations may cause significant error
 Vibrational temperatures:    546.56   646.76   881.96   902.58  1669.02
          (Kelvin)           1741.71  3170.71  4831.79  5095.91
 
 Zero-point correction=                           0.030856 (Hartree/Particle)
 Thermal correction to Energy=                    0.034617
 Thermal correction to Enthalpy=                  0.035561
 Thermal correction to Gibbs Free Energy=         0.006899
 Sum of electronic and zero-point Energies=           -152.199099
 Sum of electronic and thermal Energies=              -152.195338
 Sum of electronic and thermal Enthalpies=            -152.194394
 Sum of electronic and thermal Free Energies=         -152.223055
 
                     E (Thermal)             CV                S
                      KCal/Mol        Cal/Mol-Kelvin    Cal/Mol-Kelvin
 Total                   21.722             11.251             60.323
 Electronic               0.000              0.000              1.377
 Translational            0.889              2.981             37.133
 Rotational               0.889              2.981             19.054
 Vibrational             19.945              5.290              2.759
 Vibration     1          0.750              1.513              1.040
 Vibration     2          0.808              1.362              0.797
 Vibration     3          0.972              1.004              0.428
                       Q            Log10(Q)             Ln(Q)
 Total Bot       0.670685D-03         -3.173481         -7.307211
 Total V=0       0.104521D+12         11.019204         25.372655
 Vib (Bot)       0.962254D-14        -14.016710        -32.274668
 Vib (Bot)    1  0.475998D+00         -0.322395         -0.742341
 Vib (Bot)    2  0.381638D+00         -0.418348         -0.963282
 Vib (Bot)    3  0.240331D+00         -0.619189         -1.425736
 Vib (V=0)       0.149960D+01          0.175975          0.405198
 Vib (V=0)    1  0.119034D+01          0.075672          0.174242
 Vib (V=0)    2  0.112901D+01          0.052696          0.121337
 Vib (V=0)    3  0.105476D+01          0.023154          0.053314
 Electronic      0.200000D+01          0.301030          0.693147
 Translational   0.107027D+08          7.029493         16.186006
 Rotational      0.325616D+04          3.512706          8.088304
 
                                                                 min
                                                             IR Spectrum
 
     3      3                                        2                                   1 1                                         
     5      3                                        2                                   2 1                  66    4  3             
     4      5                                        0                                   1 6                  21    5  8             
     2      8                                        4                                   1 0                  73    0  0             
 
     X      X                                        X                                   X X                  XX    X  X             
     X      X                                        X                                   X X                   X                     
     X      X                                                                              X                   X                     
     X      X                                                                              X                                         
     X      X                                                                              X                                         
     X      X                                                                              X                                         
     X      X                                                                              X                                         
     X      X                                                                              X                                         
     X      X                                                                              X                                         
     X      X                                                                              X                                         
     X      X                                                                              X                                         
     X      X                                                                                                                        
     X      X                                                                                                                        
     X                                                                                                                               
     X                                                                                                                               
     X                                                                                                                               
     X                                                                                                                               
     X                                                                                                                               
     X                                                                                                                               
     X                                                                                                                               
 
 ***** Axes restored to original set *****
 -------------------------------------------------------------------
 Center     Atomic                   Forces (Hartrees/Bohr)
 Number     Number              X              Y              Z
 -------------------------------------------------------------------
      1        6          -0.000066665   -0.000004818   -0.000123807
      2        6           0.000173399   -0.000022530    0.000165012
      3        1           0.000023850    0.000005276    0.000011040
      4        1          -0.000039000   -0.000021813    0.000000663
      5        8          -0.000091584    0.000043885   -0.000052908
 -------------------------------------------------------------------
 Cartesian Forces:  Max     0.000173399 RMS     0.000078921
 Z-matrix is all fixed cartesians, so copy forces.
 Force constants in Cartesian coordinates: 
                1             2             3             4             5 
      1  0.112909D+01
      2  0.567186D-02  0.330850D-01
      3 -0.455951D+00 -0.576581D-03  0.238537D+00
      4 -0.756253D+00  0.294919D-02  0.300440D+00  0.133753D+01
      5  0.362133D-02 -0.205410D-01 -0.414382D-02  0.173410D-01  0.827474D-01
      6  0.300282D+00 -0.386882D-02 -0.165669D+00 -0.536083D+00 -0.902239D-02
      7 -0.339125D+00 -0.707698D-02  0.136204D+00  0.597560D-02 -0.661291D-03
      8 -0.108072D-01 -0.158990D-01  0.424595D-02  0.595110D-02 -0.448344D-02
      9  0.136879D+00  0.267654D-02 -0.762635D-01 -0.228628D-02  0.125712D-02
     10  0.340850D-02  0.457870D-03 -0.294227D-03 -0.417247D-01  0.279010D-01
     11 -0.292428D-02 -0.616315D-03  0.168546D-02 -0.864024D-02  0.130467D-01
     12  0.155137D-03  0.227781D-03  0.275371D-02  0.164176D-01 -0.142407D-01
     13 -0.371156D-01 -0.200195D-02  0.196016D-01 -0.545532D+00 -0.482021D-01
     14  0.443827D-02  0.397137D-02 -0.121101D-02 -0.176011D-01 -0.707696D-01
     15  0.186346D-01  0.154108D-02  0.641044D-03  0.221512D+00  0.261498D-01
                6             7             8             9            10 
      6  0.296581D+00
      7 -0.118675D-02  0.328411D+00
      8 -0.152439D-02  0.727427D-02  0.125543D-01
      9  0.362814D-02 -0.134490D+00 -0.318170D-02  0.688373D-01
     10  0.115379D-01 -0.843594D-03 -0.981512D-03  0.502674D-03  0.157135D+00
     11  0.116600D-02  0.706286D-03  0.102195D-03 -0.303379D-03 -0.185516D+00
     12 -0.106299D-01  0.275473D-03  0.418867D-03 -0.137408D-03 -0.414891D-01
     13  0.225449D+00  0.558238D-02 -0.143668D-02 -0.605054D-03 -0.117976D+00
     14  0.132496D-01 -0.242291D-03  0.772602D-02 -0.448582D-03  0.158138D+00
     15 -0.123910D+00 -0.802532D-03  0.412716D-04  0.393547D-02  0.297427D-01
               11            12            13            14            15 
     11  0.324870D+00
     12  0.351105D-01  0.132680D-01
     13  0.196374D+00  0.246409D-01  0.695041D+00
     14 -0.337403D+00 -0.215164D-01 -0.144733D+00  0.396475D+00
     15 -0.376586D-01 -0.525441D-02 -0.269086D+00  0.992641D-02  0.124588D+00
 Leave Link  716 at Thu Jan 24 15:37:28 2019, MaxMem=    33554432 cpu:         0.0
 (Enter /apl/tryton/gaussian/09/d01/g09/l103.exe)

 GradGradGradGradGradGradGradGradGradGradGradGradGradGradGradGradGradGrad
 Berny optimization.
 Search for a local minimum.
 Step number   1 out of a maximum of    2
 All quantities printed in internal units (Hartrees-Bohrs-Radians)
 Second derivative matrix not updated -- analytic derivatives used.
 The second derivative matrix:
                          X1        Y1        Z1        X2        Y2
           X1           1.12909
           Y1           0.00567   0.03309
           Z1          -0.45595  -0.00058   0.23854
           X2          -0.75625   0.00295   0.30044   1.33753
           Y2           0.00362  -0.02054  -0.00414   0.01734   0.08275
           Z2           0.30028  -0.00387  -0.16567  -0.53608  -0.00902
           X3          -0.33913  -0.00708   0.13620   0.00598  -0.00066
           Y3          -0.01081  -0.01590   0.00425   0.00595  -0.00448
           Z3           0.13688   0.00268  -0.07626  -0.00229   0.00126
           X4           0.00341   0.00046  -0.00029  -0.04172   0.02790
           Y4          -0.00292  -0.00062   0.00169  -0.00864   0.01305
           Z4           0.00016   0.00023   0.00275   0.01642  -0.01424
           X5          -0.03712  -0.00200   0.01960  -0.54553  -0.04820
           Y5           0.00444   0.00397  -0.00121  -0.01760  -0.07077
           Z5           0.01863   0.00154   0.00064   0.22151   0.02615
                          Z2        X3        Y3        Z3        X4
           Z2           0.29658
           X3          -0.00119   0.32841
           Y3          -0.00152   0.00727   0.01255
           Z3           0.00363  -0.13449  -0.00318   0.06884
           X4           0.01154  -0.00084  -0.00098   0.00050   0.15714
           Y4           0.00117   0.00071   0.00010  -0.00030  -0.18552
           Z4          -0.01063   0.00028   0.00042  -0.00014  -0.04149
           X5           0.22545   0.00558  -0.00144  -0.00061  -0.11798
           Y5           0.01325  -0.00024   0.00773  -0.00045   0.15814
           Z5          -0.12391  -0.00080   0.00004   0.00394   0.02974
                          Y4        Z4        X5        Y5        Z5
           Y4           0.32487
           Z4           0.03511   0.01327
           X5           0.19637   0.02464   0.69504
           Y5          -0.33740  -0.02152  -0.14473   0.39648
           Z5          -0.03766  -0.00525  -0.26909   0.00993   0.12459
 ITU=  0
     Eigenvalues ---    0.02099   0.02596   0.04181   0.10754   0.14661
     Eigenvalues ---    0.32726   0.69686   1.19612   2.48594
 Angle between quadratic step and forces=  25.10 degrees.
 Linear search not attempted -- first point.
 TrRot=  0.000036  0.000021  0.000031 -0.000007  0.000003 -0.000007
 Variable       Old X    -DE/DX   Delta X   Delta X   Delta X     New X
                                 (Linear)    (Quad)   (Total)
    X1        2.07361  -0.00007   0.00000  -0.00032  -0.00028   2.07333
    Y1        0.51246  -0.00000   0.00000  -0.00001  -0.00002   0.51244
    Z1       -1.34961  -0.00012   0.00000  -0.00098  -0.00095  -1.35056
    X2       -0.08721   0.00017   0.00000   0.00093   0.00097  -0.08624
    Y2        0.55014  -0.00002   0.00000  -0.00004  -0.00001   0.55013
    Z2       -0.44792   0.00017   0.00000   0.00199   0.00202  -0.44590
    X3        3.94253   0.00002   0.00000   0.00006   0.00010   3.94263
    Y3        0.55610   0.00001   0.00000  -0.00005  -0.00008   0.55602
    Z3       -2.14351   0.00001   0.00000  -0.00021  -0.00019  -2.14369
    X4       -3.20526  -0.00004   0.00000  -0.00054  -0.00047  -3.20573
    Y4        1.89461  -0.00002   0.00000  -0.00010  -0.00003   1.89458
    Z4        0.69044   0.00000   0.00000  -0.00024  -0.00020   0.69024
    X5       -2.22256  -0.00009   0.00000  -0.00036  -0.00031  -2.22288
    Y5        0.32576   0.00004   0.00000   0.00009   0.00014   0.32590
    Z5        0.48441  -0.00005   0.00000  -0.00072  -0.00068   0.48373
         Item               Value     Threshold  Converged?
 Maximum Force            0.000173     0.000450     YES
 RMS     Force            0.000079     0.000300     YES
 Maximum Displacement     0.002019     0.001800     NO 
 RMS     Displacement     0.000678     0.001200     YES
 Predicted change in Energy=-3.638984D-07
 GradGradGradGradGradGradGradGradGradGradGradGradGradGradGradGradGradGrad

 Leave Link  103 at Thu Jan 24 15:37:28 2019, MaxMem=    33554432 cpu:         0.0
 (Enter /apl/tryton/gaussian/09/d01/g09/l9999.exe)
 1\1\ CITASK-GV0222\Freq\UB3LYP\6-311++G(d,p)\C2H2O1(1+,2)\EERD\24-Jan-
 2019\0\\#p b3lyp/6-311++g(d,p) freq\\min\\1,2\C,1.097309,0.271182,-0.7
 14181\C,-0.04615,0.291124,-0.237031\H,2.086298,0.294274,-1.134296\H,-1
 .69615,1.002587,0.365366\O,-1.17613,0.172384,0.256338\\Version=ES64L-G
 09RevD.01\State=2-A\HF=-152.2299546\S2=0.75407\S2-1=0.\S2A=0.750012\RM
 SD=5.613e-09\RMSF=7.892e-05\ZeroPoint=0.0308559\Thermal=0.0346165\Dipo
 le=0.2643043,0.682453,-0.2022024\DipoleDeriv=-0.0527983,-0.0130826,0.1
 047423,-0.0028299,0.096111,0.0139708,0.1031216,0.01813,0.1462242,1.043
 1763,0.0426928,-0.2841223,0.1237141,0.217065,-0.0301255,-0.2965692,0.0
 040553,0.5047278,0.4547416,-0.0065977,-0.1181145,-0.0035984,0.2652095,
 -0.0108575,-0.11811,-0.0095414,0.2237108,0.6086984,-0.1092105,-0.04982
 18,-0.1809622,0.4309081,0.0797612,-0.0404412,0.0495593,0.4663818,-1.05
 38179,0.0861979,0.3473163,0.0636764,-0.0092936,-0.0527491,0.3519989,-0
 .0622031,-0.3410446\Polar=33.5744844,-1.1129453,12.7258576,-9.3485893,
 0.2388826,14.9144443\PG=C01 [X(C2H2O1)]\NImag=0\\1.12908556,0.00567186
 ,0.03308501,-0.45595122,-0.00057658,0.23853744,-0.75625333,0.00294919,
 0.30043957,1.33753437,0.00362133,-0.02054102,-0.00414382,0.01734100,0.
 08274738,0.30028240,-0.00386882,-0.16566866,-0.53608257,-0.00902239,0.
 29658064,-0.33912518,-0.00707698,0.13620428,0.00597560,-0.00066129,-0.
 00118675,0.32841079,-0.01080719,-0.01589905,0.00424595,0.00595110,-0.0
 0448344,-0.00152439,0.00727427,0.01255427,0.13687914,0.00267654,-0.076
 26354,-0.00228628,0.00125712,0.00362814,-0.13449048,-0.00318170,0.0688
 3733,0.00340850,0.00045787,-0.00029423,-0.04172467,0.02790105,0.011537
 94,-0.00084359,-0.00098151,0.00050267,0.15713532,-0.00292428,-0.000616
 32,0.00168546,-0.00864024,0.01304671,0.00116600,0.00070629,0.00010220,
 -0.00030338,-0.18551555,0.32487021,0.00015514,0.00022778,0.00275371,0.
 01641760,-0.01424074,-0.01062986,0.00027547,0.00041887,-0.00013741,-0.
 04148912,0.03511052,0.01326797,-0.03711555,-0.00200195,0.01960160,-0.5
 4553197,-0.04820208,0.22544898,0.00558238,-0.00143668,-0.00060505,-0.1
 1797556,0.19637378,0.02464091,0.69504071,0.00443827,0.00397137,-0.0012
 1101,-0.01760106,-0.07076964,0.01324961,-0.00024229,0.00772602,-0.0004
 4858,0.15813814,-0.33740279,-0.02151643,-0.14473307,0.39647504,0.01863
 455,0.00154108,0.00064104,0.22151168,0.02614983,-0.12391026,-0.0008025
 3,0.00004127,0.00393547,0.02974273,-0.03765860,-0.00525441,-0.26908643
 ,0.00992641,0.12458816\\0.00006667,0.00000482,0.00012381,-0.00017340,0
 .00002253,-0.00016501,-0.00002385,-0.00000528,-0.00001104,0.00003900,0
 .00002181,-0.00000066,0.00009158,-0.00004389,0.00005291\\\@


 10 WHATSOEVER THY HAND FINDETH TO DO, DO IT WITH THY  
 MIGHT. FOR THERE IS NO WORK, NOR DEVICE, NOR KNOWLEDGE, NOR  
 WISDOM, IN THE GRAVE, WHITHER THOU GOEST.                    
 11 I RETURNED AND SAW UNDER THE SUN, THAT THE RACE IS NOT TO 
 THE SWIFT, NOR THE BATTLE TO THE STRONG, NEITHER YET BREAD TO
 THE WISE, NOR YET RICHES TO MEN OF UNDERSTANDING, NOR YET    
 FAVOR TO MEN OF SKILL. BUT TIME AND CHANCE HAPPEN TO THEM ALL.
 12 FOR MAN ALSO KNOWETH NOT HIS TIME. AS THE FISHES   
 THAT ARE TAKEN IN AN EVIL NET, AND AS THE BIRDS THAT ARE     
 CAUGHT IN THE SNARE. SO ARE THE SONS OF MEN SNARED IN AN EVIL
 TIME, WHEN IT FALLETH SUDDENLY UPON THEM.
                                         ECCLESIASTES 9
 Job cpu time:       0 days  0 hours  0 minutes 52.9 seconds.
 File lengths (MBytes):  RWF=     11 Int=      0 D2E=      0 Chk=      2 Scr=      1
 Normal termination of Gaussian 09 at Thu Jan 24 15:37:28 2019.
