 Entering Gaussian System, Link 0=g09
 Initial command:
 /apl/tryton/gaussian/09/d01/g09/l1.exe "/users/work/eerd/M3C-outputs/ionized/6/Gau-7236.inp" -scrdir="/users/work/eerd/M3C-outputs/ionized/6/"
 Entering Link 1 = /apl/tryton/gaussian/09/d01/g09/l1.exe PID=      7237.
  
 Copyright (c) 1988,1990,1992,1993,1995,1998,2003,2009,2013,
            Gaussian, Inc.  All Rights Reserved.
  
 This is part of the Gaussian(R) 09 program.  It is based on
 the Gaussian(R) 03 system (copyright 2003, Gaussian, Inc.),
 the Gaussian(R) 98 system (copyright 1998, Gaussian, Inc.),
 the Gaussian(R) 94 system (copyright 1995, Gaussian, Inc.),
 the Gaussian 92(TM) system (copyright 1992, Gaussian, Inc.),
 the Gaussian 90(TM) system (copyright 1990, Gaussian, Inc.),
 the Gaussian 88(TM) system (copyright 1988, Gaussian, Inc.),
 the Gaussian 86(TM) system (copyright 1986, Carnegie Mellon
 University), and the Gaussian 82(TM) system (copyright 1983,
 Carnegie Mellon University). Gaussian is a federally registered
 trademark of Gaussian, Inc.
  
 This software contains proprietary and confidential information,
 including trade secrets, belonging to Gaussian, Inc.
  
 This software is provided under written license and may be
 used, copied, transmitted, or stored only in accord with that
 written license.
  
 The following legend is applicable only to US Government
 contracts under FAR:
  
                    RESTRICTED RIGHTS LEGEND
  
 Use, reproduction and disclosure by the US Government is
 subject to restrictions as set forth in subparagraphs (a)
 and (c) of the Commercial Computer Software - Restricted
 Rights clause in FAR 52.227-19.
  
 Gaussian, Inc.
 340 Quinnipiac St., Bldg. 40, Wallingford CT 06492
  
  
 ---------------------------------------------------------------
 Warning -- This program may not be used in any manner that
 competes with the business of Gaussian, Inc. or will provide
 assistance to any competitor of Gaussian, Inc.  The licensee
 of this program is prohibited from giving any competitor of
 Gaussian, Inc. access to this program.  By using this program,
 the user acknowledges that Gaussian, Inc. is engaged in the
 business of creating and licensing software in the field of
 computational chemistry and represents and warrants to the
 licensee that it is not a competitor of Gaussian, Inc. and that
 it will not use this program in any manner prohibited above.
 ---------------------------------------------------------------
  

 Cite this work as:
 Gaussian 09, Revision D.01,
 M. J. Frisch, G. W. Trucks, H. B. Schlegel, G. E. Scuseria, 
 M. A. Robb, J. R. Cheeseman, G. Scalmani, V. Barone, B. Mennucci, 
 G. A. Petersson, H. Nakatsuji, M. Caricato, X. Li, H. P. Hratchian, 
 A. F. Izmaylov, J. Bloino, G. Zheng, J. L. Sonnenberg, M. Hada, 
 M. Ehara, K. Toyota, R. Fukuda, J. Hasegawa, M. Ishida, T. Nakajima, 
 Y. Honda, O. Kitao, H. Nakai, T. Vreven, J. A. Montgomery, Jr., 
 J. E. Peralta, F. Ogliaro, M. Bearpark, J. J. Heyd, E. Brothers, 
 K. N. Kudin, V. N. Staroverov, T. Keith, R. Kobayashi, J. Normand, 
 K. Raghavachari, A. Rendell, J. C. Burant, S. S. Iyengar, J. Tomasi, 
 M. Cossi, N. Rega, J. M. Millam, M. Klene, J. E. Knox, J. B. Cross, 
 V. Bakken, C. Adamo, J. Jaramillo, R. Gomperts, R. E. Stratmann, 
 O. Yazyev, A. J. Austin, R. Cammi, C. Pomelli, J. W. Ochterski, 
 R. L. Martin, K. Morokuma, V. G. Zakrzewski, G. A. Voth, 
 P. Salvador, J. J. Dannenberg, S. Dapprich, A. D. Daniels, 
 O. Farkas, J. B. Foresman, J. V. Ortiz, J. Cioslowski, 
 and D. J. Fox, Gaussian, Inc., Wallingford CT, 2013.
 
 ******************************************
 Gaussian 09:  ES64L-G09RevD.01 24-Apr-2013
                24-Jan-2019 
 ******************************************
 ---------------------------
 #p b3lyp/6-311++g(d,p) freq
 ---------------------------
 1/10=4,30=1,38=1/1,3;
 2/12=2,17=6,18=5,40=1/2;
 3/5=4,6=6,7=1111,11=2,16=1,25=1,30=1,71=2,74=-5,140=1/1,2,3;
 4//1;
 5/5=2,38=5,98=1/2;
 8/6=4,10=90,11=11/1;
 11/6=1,8=1,9=11,15=111,16=1/1,2,10;
 10/6=1/2;
 6/7=2,8=2,9=2,10=2,18=1,28=1/1;
 7/8=1,10=1,25=1/1,2,3,16;
 1/10=4,30=1/3;
 99//99;
 Leave Link    1 at Thu Jan 24 15:41:13 2019, MaxMem=           0 cpu:         0.0
 (Enter /apl/tryton/gaussian/09/d01/g09/l101.exe)
 ---
 min
 ---
 Symbolic Z-matrix:
 Charge =  1 Multiplicity = 4
 C                     1.57112  -0.41278  -0.00002 
 C                     0.5965    0.5513   -0.00001 
 C                    -0.72414   0.15818   0. 
 C                    -1.86734  -0.31321   0.00002 
 H                     1.63378  -1.49709  -0.00001 
 H                     0.85025   1.61231  -0.00002 
 
 NAtoms=      6 NQM=        6 NQMF=       0 NMMI=      0 NMMIF=      0
                NMic=       0 NMicF=      0.
                    Isotopes and Nuclear Properties:
 (Nuclear quadrupole moments (NQMom) in fm**2, nuclear magnetic moments (NMagM)
  in nuclear magnetons)

  Atom         1           2           3           4           5           6
 IAtWgt=          12          12          12          12           1           1
 AtmWgt=  12.0000000  12.0000000  12.0000000  12.0000000   1.0078250   1.0078250
 NucSpn=           0           0           0           0           1           1
 AtZEff=   0.0000000   0.0000000   0.0000000   0.0000000   0.0000000   0.0000000
 NQMom=    0.0000000   0.0000000   0.0000000   0.0000000   0.0000000   0.0000000
 NMagM=    0.0000000   0.0000000   0.0000000   0.0000000   2.7928460   2.7928460
 AtZNuc=   6.0000000   6.0000000   6.0000000   6.0000000   1.0000000   1.0000000
 Leave Link  101 at Thu Jan 24 15:41:13 2019, MaxMem=    33554432 cpu:         0.1
 (Enter /apl/tryton/gaussian/09/d01/g09/l103.exe)

 GradGradGradGradGradGradGradGradGradGradGradGradGradGradGradGradGradGrad
 Berny optimization.
 Initialization pass.
 Trust Radius=3.00D-01 FncErr=1.00D-07 GrdErr=1.00D-07
 Number of steps in this run=      2 maximum allowed number of steps=      2.
 GradGradGradGradGradGradGradGradGradGradGradGradGradGradGradGradGradGrad

 Leave Link  103 at Thu Jan 24 15:41:14 2019, MaxMem=    33554432 cpu:         0.0
 (Enter /apl/tryton/gaussian/09/d01/g09/l202.exe)
                          Input orientation:                          
 ---------------------------------------------------------------------
 Center     Atomic      Atomic             Coordinates (Angstroms)
 Number     Number       Type             X           Y           Z
 ---------------------------------------------------------------------
      1          6           0        1.571121   -0.412783   -0.000019
      2          6           0        0.596502    0.551300   -0.000014
      3          6           0       -0.724136    0.158182    0.000003
      4          6           0       -1.867337   -0.313209    0.000018
      5          1           0        1.633775   -1.497085   -0.000013
      6          1           0        0.850253    1.612305   -0.000023
 ---------------------------------------------------------------------
                    Distance matrix (angstroms):
                    1          2          3          4          5
     1  C    0.000000
     2  C    1.370890   0.000000
     3  C    2.365207   1.377907   0.000000
     4  C    3.439899   2.611107   1.236575   0.000000
     5  H    1.086111   2.296044   2.880912   3.695855   0.000000
     6  H    2.149566   1.090927   2.143169   3.330600   3.206589
                    6
     6  H    0.000000
 Stoichiometry    C4H2(1+,4)
 Framework group  C1[X(C4H2)]
 Deg. of freedom    12
 Full point group                 C1      NOp   1
 Largest Abelian subgroup         C1      NOp   1
 Largest concise Abelian subgroup C1      NOp   1
                         Standard orientation:                         
 ---------------------------------------------------------------------
 Center     Atomic      Atomic             Coordinates (Angstroms)
 Number     Number       Type             X           Y           Z
 ---------------------------------------------------------------------
      1          6           0       -1.575342   -0.405916    0.000015
      2          6           0       -0.596148    0.553520    0.000010
      3          6           0        0.722605    0.154125   -0.000007
      4          6           0        1.863551   -0.322698   -0.000022
      5          1           0       -1.643153   -1.489907    0.000009
      6          1           0       -0.844849    1.615720    0.000019
 ---------------------------------------------------------------------
 Rotational constants (GHZ):     41.9722969      5.9233999      5.1908358
 Leave Link  202 at Thu Jan 24 15:41:14 2019, MaxMem=    33554432 cpu:         0.0
 (Enter /apl/tryton/gaussian/09/d01/g09/l301.exe)
 Standard basis: 6-311++G(d,p) (5D, 7F)
 Ernie: Thresh=  0.10000D-02 Tol=  0.10000D-05 Strict=F.
 There are   106 symmetry adapted cartesian basis functions of A   symmetry.
 There are   102 symmetry adapted basis functions of A   symmetry.
   102 basis functions,   162 primitive gaussians,   106 cartesian basis functions
    14 alpha electrons       11 beta electrons
       nuclear repulsion energy        77.2707809805 Hartrees.
 IExCor=  402 DFT=T Ex+Corr=B3LYP ExCW=0 ScaHFX=  0.200000
 ScaDFX=  0.800000  0.720000  1.000000  0.810000 ScalE2=  1.000000  1.000000
 IRadAn=      0 IRanWt=     -1 IRanGd=            0 ICorTp=0 IEmpDi=  4
 NAtoms=    6 NActive=    6 NUniq=    6 SFac= 1.00D+00 NAtFMM=   60 NAOKFM=F Big=F
 Integral buffers will be    131072 words long.
 Raffenetti 2 integral format.
 Two-electron integral symmetry is turned on.
 Leave Link  301 at Thu Jan 24 15:41:14 2019, MaxMem=    33554432 cpu:         0.0
 (Enter /apl/tryton/gaussian/09/d01/g09/l302.exe)
 NPDir=0 NMtPBC=     1 NCelOv=     1 NCel=       1 NClECP=     1 NCelD=      1
         NCelK=      1 NCelE2=     1 NClLst=     1 CellRange=     0.0.
 One-electron integrals computed using PRISM.
 NBasis=   102 RedAO= T EigKep=  2.76D-06  NBF=   102
 NBsUse=   102 1.00D-06 EigRej= -1.00D+00 NBFU=   102
 Precomputing XC quadrature grid using
 IXCGrd= 4 IRadAn=           0 IRanWt=          -1 IRanGd=           0 AccXCQ= 0.00D+00.
 Generated NRdTot=       0 NPtTot=           0 NUsed=           0 NTot=          32
 NSgBfM=   106   106   106   106   106 MxSgAt=     6 MxSgA2=     6.
 Leave Link  302 at Thu Jan 24 15:41:14 2019, MaxMem=    33554432 cpu:         0.1
 (Enter /apl/tryton/gaussian/09/d01/g09/l303.exe)
 DipDrv:  MaxL=1.
 Leave Link  303 at Thu Jan 24 15:41:14 2019, MaxMem=    33554432 cpu:         0.0
 (Enter /apl/tryton/gaussian/09/d01/g09/l401.exe)
 ExpMin= 3.60D-02 ExpMax= 4.56D+03 ExpMxC= 6.82D+02 IAcc=3 IRadAn=         5 AccDes= 0.00D+00
 Harris functional with IExCor=  402 and IRadAn=       5 diagonalized for initial guess.
 HarFok:  IExCor=  402 AccDes= 0.00D+00 IRadAn=         5 IDoV= 1 UseB2=F ITyADJ=14
 ICtDFT=  3500011 ScaDFX=  1.000000  1.000000  1.000000  1.000000
 FoFCou: FMM=F IPFlag=           0 FMFlag=      100000 FMFlg1=           0
         NFxFlg=           0 DoJE=T BraDBF=F KetDBF=T FulRan=T
         wScrn=  0.000000 ICntrl=     500 IOpCl=  0 I1Cent=   200000004 NGrid=           0
         NMat0=    1 NMatS0=      1 NMatT0=    0 NMatD0=    1 NMtDS0=    0 NMtDT0=    0
 Petite list used in FoFCou.
 Harris En= -153.020607970048    
 JPrj=0 DoOrth=F DoCkMO=F.
 Initial guess <Sx>= 0.0000 <Sy>= 0.0000 <Sz>= 1.5000 <S**2>= 3.7500 S= 1.5000
 Leave Link  401 at Thu Jan 24 15:41:15 2019, MaxMem=    33554432 cpu:         1.6
 (Enter /apl/tryton/gaussian/09/d01/g09/l502.exe)
 UHF open shell SCF:
 Using DIIS extrapolation, IDIIS=  1040.
 Integral symmetry usage will be decided dynamically.
 Keep R1 and R2 ints in memory in canonical form, NReq=28580046.
 IVT=       53678 IEndB=       53678 NGot=    33554432 MDV=     5901493
 LenX=     5901493 LenY=     5889816
 Requested convergence on RMS density matrix=1.00D-08 within 128 cycles.
 Requested convergence on MAX density matrix=1.00D-06.
 Requested convergence on             energy=1.00D-06.
 No special actions if energy rises.
 FoFCou: FMM=F IPFlag=           0 FMFlag=           0 FMFlg1=           0
         NFxFlg=           0 DoJE=F BraDBF=F KetDBF=F FulRan=T
         wScrn=  0.000000 ICntrl=     600 IOpCl=  0 I1Cent=           0 NGrid=           0
         NMat0=    1 NMatS0=   5253 NMatT0=    0 NMatD0=    1 NMtDS0=    0 NMtDT0=    0
 Symmetry not used in FoFCou.

 Cycle   1  Pass 1  IDiag  1:
 E= -152.966431278208    
 DIIS: error= 2.73D-02 at cycle   1 NSaved=   1.
 NSaved= 1 IEnMin= 1 EnMin= -152.966431278208     IErMin= 1 ErrMin= 2.73D-02
 ErrMax= 2.73D-02  0.00D+00 EMaxC= 1.00D-01 BMatC= 2.06D-01 BMatP= 2.06D-01
 IDIUse=3 WtCom= 7.27D-01 WtEn= 2.73D-01
 Coeff-Com:  0.100D+01
 Coeff-En:   0.100D+01
 Coeff:      0.100D+01
 Gap=     0.199 Goal=   None    Shift=    0.000
 Gap=     0.042 Goal=   None    Shift=    0.000
 GapD=    0.042 DampG=0.250 DampE=0.500 DampFc=0.2500 IDamp=-1.
 Damping current iteration by 2.50D-01
 RMSDP=1.87D-02 MaxDP=9.55D-01              OVMax= 2.53D-01

 Cycle   2  Pass 1  IDiag  1:
 E= -152.981133323329     Delta-E=       -0.014702045121 Rises=F Damp=T
 DIIS: error= 1.22D-02 at cycle   2 NSaved=   2.
 NSaved= 2 IEnMin= 2 EnMin= -152.981133323329     IErMin= 2 ErrMin= 1.22D-02
 ErrMax= 1.22D-02  0.00D+00 EMaxC= 1.00D-01 BMatC= 5.72D-02 BMatP= 2.06D-01
 IDIUse=3 WtCom= 8.78D-01 WtEn= 1.22D-01
 Coeff-Com: -0.480D+00 0.148D+01
 Coeff-En:   0.000D+00 0.100D+01
 Coeff:     -0.422D+00 0.142D+01
 Gap=     0.186 Goal=   None    Shift=    0.000
 Gap=     0.095 Goal=   None    Shift=    0.000
 RMSDP=8.40D-03 MaxDP=3.86D-01 DE=-1.47D-02 OVMax= 2.53D-01

 Cycle   3  Pass 1  IDiag  1:
 E= -153.008506029936     Delta-E=       -0.027372706607 Rises=F Damp=F
 DIIS: error= 1.25D-02 at cycle   3 NSaved=   3.
 NSaved= 3 IEnMin= 3 EnMin= -153.008506029936     IErMin= 2 ErrMin= 1.22D-02
 ErrMax= 1.25D-02  0.00D+00 EMaxC= 1.00D-01 BMatC= 3.10D-02 BMatP= 5.72D-02
 IDIUse=3 WtCom= 8.75D-01 WtEn= 1.25D-01
 Coeff-Com: -0.475D+00 0.822D+00 0.653D+00
 Coeff-En:   0.000D+00 0.000D+00 0.100D+01
 Coeff:     -0.415D+00 0.719D+00 0.697D+00
 Gap=     0.184 Goal=   None    Shift=    0.000
 Gap=     0.119 Goal=   None    Shift=    0.000
 RMSDP=2.77D-03 MaxDP=1.38D-01 DE=-2.74D-02 OVMax= 6.53D-02

 Cycle   4  Pass 1  IDiag  1:
 E= -153.014497712885     Delta-E=       -0.005991682949 Rises=F Damp=F
 DIIS: error= 8.15D-03 at cycle   4 NSaved=   4.
 NSaved= 4 IEnMin= 4 EnMin= -153.014497712885     IErMin= 4 ErrMin= 8.15D-03
 ErrMax= 8.15D-03  0.00D+00 EMaxC= 1.00D-01 BMatC= 9.74D-03 BMatP= 3.10D-02
 IDIUse=3 WtCom= 9.18D-01 WtEn= 8.15D-02
 Coeff-Com: -0.171D+00 0.261D+00 0.434D+00 0.476D+00
 Coeff-En:   0.000D+00 0.000D+00 0.289D+00 0.711D+00
 Coeff:     -0.157D+00 0.240D+00 0.422D+00 0.496D+00
 Gap=     0.193 Goal=   None    Shift=    0.000
 Gap=     0.110 Goal=   None    Shift=    0.000
 RMSDP=1.35D-03 MaxDP=6.10D-02 DE=-5.99D-03 OVMax= 5.42D-02

 Cycle   5  Pass 1  IDiag  1:
 E= -153.017630235375     Delta-E=       -0.003132522491 Rises=F Damp=F
 DIIS: error= 2.41D-03 at cycle   5 NSaved=   5.
 NSaved= 5 IEnMin= 5 EnMin= -153.017630235375     IErMin= 5 ErrMin= 2.41D-03
 ErrMax= 2.41D-03  0.00D+00 EMaxC= 1.00D-01 BMatC= 9.87D-04 BMatP= 9.74D-03
 IDIUse=3 WtCom= 9.76D-01 WtEn= 2.41D-02
 Coeff-Com:  0.292D-01-0.648D-01 0.828D-01 0.303D+00 0.650D+00
 Coeff-En:   0.000D+00 0.000D+00 0.000D+00 0.280D-01 0.972D+00
 Coeff:      0.285D-01-0.632D-01 0.808D-01 0.297D+00 0.657D+00
 Gap=     0.190 Goal=   None    Shift=    0.000
 Gap=     0.112 Goal=   None    Shift=    0.000
 RMSDP=5.25D-04 MaxDP=3.22D-02 DE=-3.13D-03 OVMax= 1.44D-02

 Cycle   6  Pass 1  IDiag  1:
 E= -153.018076819641     Delta-E=       -0.000446584266 Rises=F Damp=F
 DIIS: error= 5.86D-04 at cycle   6 NSaved=   6.
 NSaved= 6 IEnMin= 6 EnMin= -153.018076819641     IErMin= 6 ErrMin= 5.86D-04
 ErrMax= 5.86D-04  0.00D+00 EMaxC= 1.00D-01 BMatC= 6.79D-05 BMatP= 9.87D-04
 IDIUse=3 WtCom= 9.94D-01 WtEn= 5.86D-03
 Coeff-Com:  0.297D-01-0.454D-01-0.426D-01 0.929D-03 0.128D+00 0.929D+00
 Coeff-En:   0.000D+00 0.000D+00 0.000D+00 0.000D+00 0.000D+00 0.100D+01
 Coeff:      0.295D-01-0.452D-01-0.424D-01 0.923D-03 0.128D+00 0.930D+00
 Gap=     0.189 Goal=   None    Shift=    0.000
 Gap=     0.113 Goal=   None    Shift=    0.000
 RMSDP=3.08D-04 MaxDP=1.19D-02 DE=-4.47D-04 OVMax= 1.72D-02

 Cycle   7  Pass 1  IDiag  1:
 E= -153.018195924784     Delta-E=       -0.000119105143 Rises=F Damp=F
 DIIS: error= 4.60D-04 at cycle   7 NSaved=   7.
 NSaved= 7 IEnMin= 7 EnMin= -153.018195924784     IErMin= 7 ErrMin= 4.60D-04
 ErrMax= 4.60D-04  0.00D+00 EMaxC= 1.00D-01 BMatC= 4.21D-05 BMatP= 6.79D-05
 IDIUse=3 WtCom= 9.95D-01 WtEn= 4.60D-03
 Coeff-Com: -0.499D-04 0.498D-02-0.444D-01-0.843D-01-0.126D+00 0.437D+00
 Coeff-Com:  0.812D+00
 Coeff-En:   0.000D+00 0.000D+00 0.000D+00 0.000D+00 0.000D+00 0.000D+00
 Coeff-En:   0.100D+01
 Coeff:     -0.496D-04 0.496D-02-0.442D-01-0.839D-01-0.125D+00 0.435D+00
 Coeff:      0.813D+00
 Gap=     0.190 Goal=   None    Shift=    0.000
 Gap=     0.114 Goal=   None    Shift=    0.000
 RMSDP=2.44D-04 MaxDP=5.89D-03 DE=-1.19D-04 OVMax= 1.67D-02

 Cycle   8  Pass 1  IDiag  1:
 E= -153.018275414469     Delta-E=       -0.000079489685 Rises=F Damp=F
 DIIS: error= 3.94D-04 at cycle   8 NSaved=   8.
 NSaved= 8 IEnMin= 8 EnMin= -153.018275414469     IErMin= 8 ErrMin= 3.94D-04
 ErrMax= 3.94D-04  0.00D+00 EMaxC= 1.00D-01 BMatC= 2.45D-05 BMatP= 4.21D-05
 IDIUse=3 WtCom= 9.96D-01 WtEn= 3.94D-03
 Coeff-Com: -0.216D-01 0.337D-01-0.275D-02-0.391D-01-0.110D+00-0.202D+00
 Coeff-Com:  0.393D+00 0.948D+00
 Coeff-En:   0.000D+00 0.000D+00 0.000D+00 0.000D+00 0.000D+00 0.000D+00
 Coeff-En:   0.000D+00 0.100D+01
 Coeff:     -0.215D-01 0.336D-01-0.274D-02-0.389D-01-0.109D+00-0.201D+00
 Coeff:      0.392D+00 0.948D+00
 Gap=     0.189 Goal=   None    Shift=    0.000
 Gap=     0.114 Goal=   None    Shift=    0.000
 RMSDP=2.62D-04 MaxDP=8.74D-03 DE=-7.95D-05 OVMax= 1.77D-02

 Cycle   9  Pass 1  IDiag  1:
 E= -153.018338416793     Delta-E=       -0.000063002324 Rises=F Damp=F
 DIIS: error= 2.19D-04 at cycle   9 NSaved=   9.
 NSaved= 9 IEnMin= 9 EnMin= -153.018338416793     IErMin= 9 ErrMin= 2.19D-04
 ErrMax= 2.19D-04  0.00D+00 EMaxC= 1.00D-01 BMatC= 1.03D-05 BMatP= 2.45D-05
 IDIUse=3 WtCom= 9.98D-01 WtEn= 2.19D-03
 Coeff-Com: -0.727D-02 0.859D-02 0.192D-01 0.400D-01 0.722D-01-0.177D+00
 Coeff-Com: -0.449D+00-0.391D+00 0.188D+01
 Coeff-En:   0.000D+00 0.000D+00 0.000D+00 0.000D+00 0.000D+00 0.000D+00
 Coeff-En:   0.000D+00 0.000D+00 0.100D+01
 Coeff:     -0.726D-02 0.857D-02 0.192D-01 0.399D-01 0.721D-01-0.177D+00
 Coeff:     -0.448D+00-0.390D+00 0.188D+01
 Gap=     0.189 Goal=   None    Shift=    0.000
 Gap=     0.114 Goal=   None    Shift=    0.000
 RMSDP=3.86D-04 MaxDP=1.29D-02 DE=-6.30D-05 OVMax= 2.75D-02

 Cycle  10  Pass 1  IDiag  1:
 E= -153.018398271798     Delta-E=       -0.000059855005 Rises=F Damp=F
 DIIS: error= 1.18D-04 at cycle  10 NSaved=  10.
 NSaved=10 IEnMin=10 EnMin= -153.018398271798     IErMin=10 ErrMin= 1.18D-04
 ErrMax= 1.18D-04  0.00D+00 EMaxC= 1.00D-01 BMatC= 2.45D-06 BMatP= 1.03D-05
 IDIUse=3 WtCom= 9.99D-01 WtEn= 1.18D-03
 Coeff-Com:  0.855D-02-0.124D-01-0.324D-02 0.434D-02 0.496D-01 0.152D+00
 Coeff-Com: -0.130D+00-0.511D+00-0.720D-01 0.151D+01
 Coeff-En:   0.000D+00 0.000D+00 0.000D+00 0.000D+00 0.000D+00 0.000D+00
 Coeff-En:   0.000D+00 0.000D+00 0.000D+00 0.100D+01
 Coeff:      0.854D-02-0.124D-01-0.324D-02 0.433D-02 0.496D-01 0.152D+00
 Coeff:     -0.130D+00-0.511D+00-0.719D-01 0.151D+01
 Gap=     0.189 Goal=   None    Shift=    0.000
 Gap=     0.115 Goal=   None    Shift=    0.000
 RMSDP=2.69D-04 MaxDP=6.38D-03 DE=-5.99D-05 OVMax= 1.96D-02

 Cycle  11  Pass 1  IDiag  1:
 E= -153.018417272012     Delta-E=       -0.000019000214 Rises=F Damp=F
 DIIS: error= 4.73D-05 at cycle  11 NSaved=  11.
 NSaved=11 IEnMin=11 EnMin= -153.018417272012     IErMin=11 ErrMin= 4.73D-05
 ErrMax= 4.73D-05  0.00D+00 EMaxC= 1.00D-01 BMatC= 3.84D-07 BMatP= 2.45D-06
 IDIUse=1 WtCom= 1.00D+00 WtEn= 0.00D+00
 Coeff-Com:  0.118D-02-0.125D-02-0.338D-02-0.628D-02-0.591D-02 0.464D-01
 Coeff-Com:  0.435D-01 0.121D-01-0.249D+00-0.697D-01 0.123D+01
 Coeff:      0.118D-02-0.125D-02-0.338D-02-0.628D-02-0.591D-02 0.464D-01
 Coeff:      0.435D-01 0.121D-01-0.249D+00-0.697D-01 0.123D+01
 Gap=     0.189 Goal=   None    Shift=    0.000
 Gap=     0.115 Goal=   None    Shift=    0.000
 RMSDP=1.01D-04 MaxDP=3.49D-03 DE=-1.90D-05 OVMax= 7.02D-03

 Cycle  12  Pass 1  IDiag  1:
 E= -153.018419682370     Delta-E=       -0.000002410358 Rises=F Damp=F
 DIIS: error= 1.83D-05 at cycle  12 NSaved=  12.
 NSaved=12 IEnMin=12 EnMin= -153.018419682370     IErMin=12 ErrMin= 1.83D-05
 ErrMax= 1.83D-05  0.00D+00 EMaxC= 1.00D-01 BMatC= 9.04D-08 BMatP= 3.84D-07
 IDIUse=1 WtCom= 1.00D+00 WtEn= 0.00D+00
 Coeff-Com: -0.150D-02 0.223D-02 0.325D-03-0.393D-04-0.103D-01-0.228D-01
 Coeff-Com:  0.267D-01 0.578D-01 0.406D-01-0.289D+00-0.492D-01 0.125D+01
 Coeff:     -0.150D-02 0.223D-02 0.325D-03-0.393D-04-0.103D-01-0.228D-01
 Coeff:      0.267D-01 0.578D-01 0.406D-01-0.289D+00-0.492D-01 0.125D+01
 Gap=     0.189 Goal=   None    Shift=    0.000
 Gap=     0.115 Goal=   None    Shift=    0.000
 RMSDP=4.08D-05 MaxDP=1.10D-03 DE=-2.41D-06 OVMax= 2.92D-03

 Cycle  13  Pass 1  IDiag  1:
 E= -153.018420020873     Delta-E=       -0.000000338503 Rises=F Damp=F
 DIIS: error= 6.48D-06 at cycle  13 NSaved=  13.
 NSaved=13 IEnMin=13 EnMin= -153.018420020873     IErMin=13 ErrMin= 6.48D-06
 ErrMax= 6.48D-06  0.00D+00 EMaxC= 1.00D-01 BMatC= 1.09D-08 BMatP= 9.04D-08
 IDIUse=1 WtCom= 1.00D+00 WtEn= 0.00D+00
 Coeff-Com:  0.156D-03-0.262D-03 0.266D-03 0.482D-03 0.536D-03 0.453D-03
 Coeff-Com: -0.235D-02-0.131D-01 0.125D-01 0.826D-01-0.169D+00-0.295D+00
 Coeff-Com:  0.138D+01
 Coeff:      0.156D-03-0.262D-03 0.266D-03 0.482D-03 0.536D-03 0.453D-03
 Coeff:     -0.235D-02-0.131D-01 0.125D-01 0.826D-01-0.169D+00-0.295D+00
 Coeff:      0.138D+01
 Gap=     0.189 Goal=   None    Shift=    0.000
 Gap=     0.115 Goal=   None    Shift=    0.000
 RMSDP=6.86D-06 MaxDP=2.06D-04 DE=-3.39D-07 OVMax= 4.45D-04

 Cycle  14  Pass 1  IDiag  1:
 E= -153.018420043303     Delta-E=       -0.000000022429 Rises=F Damp=F
 DIIS: error= 1.84D-06 at cycle  14 NSaved=  14.
 NSaved=14 IEnMin=14 EnMin= -153.018420043303     IErMin=14 ErrMin= 1.84D-06
 ErrMax= 1.84D-06  0.00D+00 EMaxC= 1.00D-01 BMatC= 8.35D-10 BMatP= 1.09D-08
 IDIUse=1 WtCom= 1.00D+00 WtEn= 0.00D+00
 Coeff-Com:  0.886D-04-0.123D-03-0.663D-04-0.255D-04 0.305D-03 0.200D-02
 Coeff-Com: -0.311D-03-0.352D-02-0.745D-02 0.213D-01 0.108D-01-0.105D+00
 Coeff-Com:  0.704D-02 0.108D+01
 Coeff:      0.886D-04-0.123D-03-0.663D-04-0.255D-04 0.305D-03 0.200D-02
 Coeff:     -0.311D-03-0.352D-02-0.745D-02 0.213D-01 0.108D-01-0.105D+00
 Coeff:      0.704D-02 0.108D+01
 Gap=     0.189 Goal=   None    Shift=    0.000
 Gap=     0.115 Goal=   None    Shift=    0.000
 RMSDP=1.36D-06 MaxDP=3.20D-05 DE=-2.24D-08 OVMax= 9.81D-05

 Cycle  15  Pass 1  IDiag  1:
 E= -153.018420044278     Delta-E=       -0.000000000975 Rises=F Damp=F
 DIIS: error= 3.58D-07 at cycle  15 NSaved=  15.
 NSaved=15 IEnMin=15 EnMin= -153.018420044278     IErMin=15 ErrMin= 3.58D-07
 ErrMax= 3.58D-07  0.00D+00 EMaxC= 1.00D-01 BMatC= 5.71D-11 BMatP= 8.35D-10
 IDIUse=1 WtCom= 1.00D+00 WtEn= 0.00D+00
 Coeff-Com:  0.497D-05-0.699D-05-0.214D-04 0.226D-04 0.740D-06 0.122D-03
 Coeff-Com: -0.175D-03-0.180D-03-0.158D-03-0.390D-02 0.925D-02 0.133D-01
 Coeff-Com: -0.902D-01 0.659D-01 0.101D+01
 Coeff:      0.497D-05-0.699D-05-0.214D-04 0.226D-04 0.740D-06 0.122D-03
 Coeff:     -0.175D-03-0.180D-03-0.158D-03-0.390D-02 0.925D-02 0.133D-01
 Coeff:     -0.902D-01 0.659D-01 0.101D+01
 Gap=     0.189 Goal=   None    Shift=    0.000
 Gap=     0.115 Goal=   None    Shift=    0.000
 RMSDP=5.91D-07 MaxDP=2.17D-05 DE=-9.75D-10 OVMax= 3.95D-05

 Cycle  16  Pass 1  IDiag  1:
 E= -153.018420044343     Delta-E=       -0.000000000065 Rises=F Damp=F
 DIIS: error= 2.21D-07 at cycle  16 NSaved=  16.
 NSaved=16 IEnMin=16 EnMin= -153.018420044343     IErMin=16 ErrMin= 2.21D-07
 ErrMax= 2.21D-07  0.00D+00 EMaxC= 1.00D-01 BMatC= 5.67D-12 BMatP= 5.71D-11
 IDIUse=1 WtCom= 1.00D+00 WtEn= 0.00D+00
 Coeff-Com:  0.157D-05-0.203D-05 0.175D-04 0.236D-04 0.128D-04-0.132D-03
 Coeff-Com: -0.225D-03 0.101D-03 0.118D-02-0.404D-03-0.385D-02 0.501D-02
 Coeff-Com:  0.175D-01-0.818D-01-0.192D+00 0.125D+01
 Coeff:      0.157D-05-0.203D-05 0.175D-04 0.236D-04 0.128D-04-0.132D-03
 Coeff:     -0.225D-03 0.101D-03 0.118D-02-0.404D-03-0.385D-02 0.501D-02
 Coeff:      0.175D-01-0.818D-01-0.192D+00 0.125D+01
 Gap=     0.189 Goal=   None    Shift=    0.000
 Gap=     0.115 Goal=   None    Shift=    0.000
 RMSDP=7.51D-08 MaxDP=1.88D-06 DE=-6.50D-11 OVMax= 3.19D-06

 Cycle  17  Pass 1  IDiag  1:
 E= -153.018420044345     Delta-E=       -0.000000000002 Rises=F Damp=F
 DIIS: error= 5.03D-08 at cycle  17 NSaved=  17.
 NSaved=17 IEnMin=17 EnMin= -153.018420044345     IErMin=17 ErrMin= 5.03D-08
 ErrMax= 5.03D-08  0.00D+00 EMaxC= 1.00D-01 BMatC= 4.42D-13 BMatP= 5.67D-12
 IDIUse=1 WtCom= 1.00D+00 WtEn= 0.00D+00
 Coeff-Com:  0.354D-06-0.563D-06-0.321D-05-0.477D-05-0.181D-05 0.377D-04
 Coeff-Com:  0.514D-04-0.477D-04-0.285D-03 0.280D-03 0.631D-03-0.109D-02
 Coeff-Com:  0.182D-04 0.200D-02-0.165D-01-0.251D-01 0.104D+01
 Coeff:      0.354D-06-0.563D-06-0.321D-05-0.477D-05-0.181D-05 0.377D-04
 Coeff:      0.514D-04-0.477D-04-0.285D-03 0.280D-03 0.631D-03-0.109D-02
 Coeff:      0.182D-04 0.200D-02-0.165D-01-0.251D-01 0.104D+01
 Gap=     0.189 Goal=   None    Shift=    0.000
 Gap=     0.115 Goal=   None    Shift=    0.000
 RMSDP=2.61D-08 MaxDP=8.02D-07 DE=-1.82D-12 OVMax= 1.56D-06

 Cycle  18  Pass 1  IDiag  1:
 E= -153.018420044346     Delta-E=       -0.000000000001 Rises=F Damp=F
 DIIS: error= 1.21D-08 at cycle  18 NSaved=  18.
 NSaved=18 IEnMin=18 EnMin= -153.018420044346     IErMin=18 ErrMin= 1.21D-08
 ErrMax= 1.21D-08  0.00D+00 EMaxC= 1.00D-01 BMatC= 1.83D-14 BMatP= 4.42D-13
 IDIUse=1 WtCom= 1.00D+00 WtEn= 0.00D+00
 Coeff-Com: -0.196D-06 0.261D-06-0.113D-06-0.109D-06-0.222D-05-0.927D-06
 Coeff-Com:  0.577D-05 0.690D-05-0.748D-05-0.313D-04 0.501D-04-0.199D-03
 Coeff-Com:  0.471D-05 0.250D-02 0.952D-03-0.522D-01 0.636D-01 0.985D+00
 Coeff:     -0.196D-06 0.261D-06-0.113D-06-0.109D-06-0.222D-05-0.927D-06
 Coeff:      0.577D-05 0.690D-05-0.748D-05-0.313D-04 0.501D-04-0.199D-03
 Coeff:      0.471D-05 0.250D-02 0.952D-03-0.522D-01 0.636D-01 0.985D+00
 Gap=     0.189 Goal=   None    Shift=    0.000
 Gap=     0.115 Goal=   None    Shift=    0.000
 RMSDP=6.66D-09 MaxDP=2.39D-07 DE=-9.09D-13 OVMax= 2.91D-07

 SCF Done:  E(UB3LYP) =  -153.018420044     A.U. after   18 cycles
            NFock= 18  Conv=0.67D-08     -V/T= 2.0040
 <Sx>= 0.0000 <Sy>= 0.0000 <Sz>= 1.5000 <S**2>= 3.8009 S= 1.5127
 <L.S>= 0.000000000000E+00
 KE= 1.524095042405D+02 PE=-5.030525753216D+02 EE= 1.203538700563D+02
 Annihilation of the first spin contaminant:
 S**2 before annihilation     3.8009,   after     3.7508
 Leave Link  502 at Thu Jan 24 15:41:38 2019, MaxMem=    33554432 cpu:        22.0
 (Enter /apl/tryton/gaussian/09/d01/g09/l801.exe)
 DoSCS=F DFT=T ScalE2(SS,OS)=  1.000000  1.000000
 Range of M.O.s used for correlation:     1   102
 NBasis=   102 NAE=    14 NBE=    11 NFC=     0 NFV=     0
 NROrb=    102 NOA=    14 NOB=    11 NVA=    88 NVB=    91

 **** Warning!!: The largest alpha MO coefficient is  0.27194307D+03


 **** Warning!!: The largest beta MO coefficient is  0.27733351D+03

 Leave Link  801 at Thu Jan 24 15:41:38 2019, MaxMem=    33554432 cpu:         0.0
 (Enter /apl/tryton/gaussian/09/d01/g09/l1101.exe)
 Using compressed storage, NAtomX=     6.
 Will process      7 centers per pass.
 Leave Link 1101 at Thu Jan 24 15:41:38 2019, MaxMem=    33554432 cpu:         0.1
 (Enter /apl/tryton/gaussian/09/d01/g09/l1102.exe)
 Symmetrizing basis deriv contribution to polar:
 IMax=3 JMax=2 DiffMx= 0.00D+00
 Leave Link 1102 at Thu Jan 24 15:41:38 2019, MaxMem=    33554432 cpu:         0.0
 (Enter /apl/tryton/gaussian/09/d01/g09/l1110.exe)
 Forming Gx(P) for the SCF density, NAtomX=     6.
 Integral derivatives from FoFJK, PRISM(SPDF).
 Do as many integral derivatives as possible in FoFJK.
 G2DrvN: MDV=      33554280.
 G2DrvN: will do     7 centers at a time, making    1 passes.
 Calling FoFCou, ICntrl=  3107 FMM=F I1Cent=   0 AccDes= 0.00D+00.
 FoFJK:  IHMeth= 1 ICntrl=    3107 DoSepK=F KAlg= 0 I1Cent=   0 FoldK=F
 IRaf=         0 NMat=   1 IRICut=       1 DoRegI=T DoRafI=F ISym2E= 0.
 FoFCou: FMM=F IPFlag=           0 FMFlag=      100000 FMFlg1=           0
         NFxFlg=           0 DoJE=F BraDBF=F KetDBF=F FulRan=T
         wScrn=  0.000000 ICntrl=    3107 IOpCl=  1 I1Cent=           0 NGrid=           0
         NMat0=    1 NMatS0=      1 NMatT0=    0 NMatD0=    1 NMtDS0=    0 NMtDT0=    0
 Symmetry not used in FoFCou.
 End of G2Drv F.D. properties file   721 does not exist.
 End of G2Drv F.D. properties file   722 does not exist.
 End of G2Drv F.D. properties file   788 does not exist.
 Leave Link 1110 at Thu Jan 24 15:42:01 2019, MaxMem=    33554432 cpu:        23.5
 (Enter /apl/tryton/gaussian/09/d01/g09/l1002.exe)
 Minotr:  UHF open shell wavefunction.
          IDoAtm=111111
          Direct CPHF calculation.
          Differentiating once with respect to electric field.
                with respect to dipole field.
          Differentiating once with respect to nuclear coordinates.
          Requested convergence is 1.0D-08 RMS, and 1.0D-07 maximum.
          Secondary convergence is 1.0D-12 RMS, and 1.0D-12 maximum.
          NewPWx=T KeepS1=F KeepF1=F KeepIn=T MapXYZ=F SortEE=F KeepMc=T.
          MDV=      33554164 using IRadAn=       2.
 Generate precomputed XC quadrature information.
 Keep R1 and R2 ints in memory in canonical form, NReq=28527310.
 FoFCou: FMM=F IPFlag=           0 FMFlag=           0 FMFlg1=           0
         NFxFlg=           0 DoJE=F BraDBF=F KetDBF=F FulRan=T
         wScrn=  0.000000 ICntrl=     600 IOpCl=  0 I1Cent=           0 NGrid=           0
         NMat0=    1 NMatS0=   5253 NMatT0=    0 NMatD0=    1 NMtDS0=    0 NMtDT0=    0
 Symmetry not used in FoFCou.
          Solving linear equations simultaneously, MaxMat=       0.
          There are    21 degrees of freedom in the 1st order CPHF.  IDoFFX=6 NUNeed=     3.
     18 vectors produced by pass  0 Test12= 1.06D-14 4.76D-09 XBig12= 2.58D+02 1.10D+01.
 AX will form    18 AO Fock derivatives at one time.
     18 vectors produced by pass  1 Test12= 1.06D-14 4.76D-09 XBig12= 6.34D+01 1.91D+00.
     18 vectors produced by pass  2 Test12= 1.06D-14 4.76D-09 XBig12= 2.70D+00 5.90D-01.
     18 vectors produced by pass  3 Test12= 1.06D-14 4.76D-09 XBig12= 4.29D-02 4.28D-02.
     18 vectors produced by pass  4 Test12= 1.06D-14 4.76D-09 XBig12= 4.89D-04 3.50D-03.
     18 vectors produced by pass  5 Test12= 1.06D-14 4.76D-09 XBig12= 2.24D-06 3.45D-04.
     18 vectors produced by pass  6 Test12= 1.06D-14 4.76D-09 XBig12= 8.37D-09 1.07D-05.
      9 vectors produced by pass  7 Test12= 1.06D-14 4.76D-09 XBig12= 2.37D-11 7.00D-07.
      4 vectors produced by pass  8 Test12= 1.06D-14 4.76D-09 XBig12= 5.66D-13 3.85D-07.
      3 vectors produced by pass  9 Test12= 1.06D-14 4.76D-09 XBig12= 2.65D-14 5.33D-08.
      2 vectors produced by pass 10 Test12= 1.06D-14 4.76D-09 XBig12= 8.20D-16 8.35D-09.
 InvSVY:  IOpt=1 It=  1 EMax= 7.11D-15
 Solved reduced A of dimension   144 with    21 vectors.
 FullF1:  Do perturbations    1 to     3.
 Isotropic polarizability for W=    0.000000       40.35 Bohr**3.
 End of Minotr F.D. properties file   721 does not exist.
 End of Minotr F.D. properties file   722 does not exist.
 End of Minotr F.D. properties file   788 does not exist.
 Leave Link 1002 at Thu Jan 24 15:42:34 2019, MaxMem=    33554432 cpu:        32.8
 (Enter /apl/tryton/gaussian/09/d01/g09/l601.exe)
 Copying SCF densities to generalized density rwf, IOpCl= 1 IROHF=0.

 **********************************************************************

            Population analysis using the SCF density.

 **********************************************************************

 Orbital symmetries:
 Alpha Orbitals:
       Occupied  (A) (A) (A) (A) (A) (A) (A) (A) (A) (A) (A) (A)
                 (A) (A)
       Virtual   (A) (A) (A) (A) (A) (A) (A) (A) (A) (A) (A) (A)
                 (A) (A) (A) (A) (A) (A) (A) (A) (A) (A) (A) (A)
                 (A) (A) (A) (A) (A) (A) (A) (A) (A) (A) (A) (A)
                 (A) (A) (A) (A) (A) (A) (A) (A) (A) (A) (A) (A)
                 (A) (A) (A) (A) (A) (A) (A) (A) (A) (A) (A) (A)
                 (A) (A) (A) (A) (A) (A) (A) (A) (A) (A) (A) (A)
                 (A) (A) (A) (A) (A) (A) (A) (A) (A) (A) (A) (A)
                 (A) (A) (A) (A)
 Beta  Orbitals:
       Occupied  (A) (A) (A) (A) (A) (A) (A) (A) (A) (A) (A)
       Virtual   (A) (A) (A) (A) (A) (A) (A) (A) (A) (A) (A) (A)
                 (A) (A) (A) (A) (A) (A) (A) (A) (A) (A) (A) (A)
                 (A) (A) (A) (A) (A) (A) (A) (A) (A) (A) (A) (A)
                 (A) (A) (A) (A) (A) (A) (A) (A) (A) (A) (A) (A)
                 (A) (A) (A) (A) (A) (A) (A) (A) (A) (A) (A) (A)
                 (A) (A) (A) (A) (A) (A) (A) (A) (A) (A) (A) (A)
                 (A) (A) (A) (A) (A) (A) (A) (A) (A) (A) (A) (A)
                 (A) (A) (A) (A) (A) (A) (A)
 The electronic state is 4-A.
 Alpha  occ. eigenvalues --  -10.54118 -10.51732 -10.49870 -10.48858  -1.11107
 Alpha  occ. eigenvalues --   -1.04044  -0.89640  -0.79025  -0.72659  -0.66787
 Alpha  occ. eigenvalues --   -0.64210  -0.57695  -0.55454  -0.52697
 Alpha virt. eigenvalues --   -0.33763  -0.24067  -0.17584  -0.15889  -0.14544
 Alpha virt. eigenvalues --   -0.10806  -0.10162  -0.08280  -0.07505  -0.07081
 Alpha virt. eigenvalues --   -0.05364  -0.04438  -0.03664  -0.03240  -0.01700
 Alpha virt. eigenvalues --   -0.01208   0.00720   0.00978   0.02346   0.03596
 Alpha virt. eigenvalues --    0.05908   0.08356   0.09302   0.13265   0.14169
 Alpha virt. eigenvalues --    0.26376   0.29213   0.29214   0.30083   0.32926
 Alpha virt. eigenvalues --    0.34016   0.35159   0.36762   0.36786   0.42268
 Alpha virt. eigenvalues --    0.42859   0.45318   0.46647   0.50527   0.53315
 Alpha virt. eigenvalues --    0.58573   0.65056   0.69870   0.74707   0.75890
 Alpha virt. eigenvalues --    0.78300   0.88951   0.88967   0.95022   0.98289
 Alpha virt. eigenvalues --    1.11371   1.17970   1.24885   1.28196   1.28636
 Alpha virt. eigenvalues --    1.37413   1.38985   1.48512   1.54642   1.65399
 Alpha virt. eigenvalues --    1.65992   1.72497   1.81026   1.84052   1.94348
 Alpha virt. eigenvalues --    2.07857   2.12769   2.30799   2.37780   2.37954
 Alpha virt. eigenvalues --    2.41342   2.42586   2.47308   2.54839   2.60880
 Alpha virt. eigenvalues --    2.62261   2.66042   2.66243   2.79280   2.86231
 Alpha virt. eigenvalues --    3.08771   3.21897   3.54511   3.73139  23.02304
 Alpha virt. eigenvalues --   23.44149  23.80538  24.48867
  Beta  occ. eigenvalues --  -10.51097 -10.49708 -10.49490 -10.48573  -1.08861
  Beta  occ. eigenvalues --   -0.99204  -0.85966  -0.77242  -0.71213  -0.60137
  Beta  occ. eigenvalues --   -0.55036
  Beta virt. eigenvalues --   -0.43540  -0.43358  -0.34366  -0.27284  -0.20659
  Beta virt. eigenvalues --   -0.15591  -0.13796  -0.13432  -0.09956  -0.09580
  Beta virt. eigenvalues --   -0.07744  -0.07136  -0.05674  -0.04501  -0.03675
  Beta virt. eigenvalues --   -0.03123  -0.02643  -0.01079  -0.00928   0.00939
  Beta virt. eigenvalues --    0.01413   0.02700   0.04810   0.06498   0.08783
  Beta virt. eigenvalues --    0.10343   0.13985   0.16126   0.27752   0.30254
  Beta virt. eigenvalues --    0.30924   0.32180   0.35182   0.36224   0.37400
  Beta virt. eigenvalues --    0.38417   0.40985   0.43673   0.44330   0.47702
  Beta virt. eigenvalues --    0.50314   0.51752   0.54581   0.60539   0.66408
  Beta virt. eigenvalues --    0.72509   0.76648   0.78579   0.81756   0.92141
  Beta virt. eigenvalues --    0.92673   1.01915   1.03438   1.14721   1.22821
  Beta virt. eigenvalues --    1.28933   1.31574   1.32301   1.40678   1.41717
  Beta virt. eigenvalues --    1.51145   1.57704   1.67984   1.68936   1.77674
  Beta virt. eigenvalues --    1.83556   1.87011   1.97858   2.11909   2.14546
  Beta virt. eigenvalues --    2.32906   2.38928   2.41034   2.43054   2.44461
  Beta virt. eigenvalues --    2.51239   2.56511   2.64727   2.65065   2.68794
  Beta virt. eigenvalues --    2.69295   2.83667   2.88816   3.11696   3.23308
  Beta virt. eigenvalues --    3.55660   3.75064  23.04359  23.46057  23.81871
  Beta virt. eigenvalues --   24.50366
          Condensed to atoms (all electrons):
               1          2          3          4          5          6
     1  C    4.995837   0.697391   0.099493  -0.277057   0.400288  -0.005482
     2  C    0.697391   8.569991  -0.017233  -3.421265  -0.021885   0.320849
     3  C    0.099493  -0.017233   6.523214  -1.101857   0.001385   0.004081
     4  C   -0.277057  -3.421265  -1.101857  10.791195  -0.035050   0.030278
     5  H    0.400288  -0.021885   0.001385  -0.035050   0.401346  -0.002011
     6  H   -0.005482   0.320849   0.004081   0.030278  -0.002011   0.374567
          Atomic-Atomic Spin Densities.
               1          2          3          4          5          6
     1  C    1.358270   0.190207  -0.035593  -0.203309   0.022170   0.005993
     2  C    0.190207   0.091228   0.037191  -0.155589   0.005975   0.019906
     3  C   -0.035593   0.037191   0.489551  -0.238342  -0.016266  -0.028069
     4  C   -0.203309  -0.155589  -0.238342   1.872230  -0.030902   0.004598
     5  H    0.022170   0.005975  -0.016266  -0.030902   0.011623  -0.000531
     6  H    0.005993   0.019906  -0.028069   0.004598  -0.000531   0.022222
 Mulliken charges and spin densities:
               1          2
     1  C    0.089529   1.337738
     2  C   -0.127848   0.188916
     3  C    0.490917   0.208472
     4  C    0.013755   1.248685
     5  H    0.255928  -0.007931
     6  H    0.277719   0.024119
 Sum of Mulliken charges =   1.00000   3.00000
 Mulliken charges and spin densities with hydrogens summed into heavy atoms:
               1          2
     1  C    0.345457   1.329807
     2  C    0.149870   0.213036
     3  C    0.490917   0.208472
     4  C    0.013755   1.248685
 APT charges:
               1
     1  C    0.296540
     2  C   -0.106502
     3  C    0.073671
     4  C    0.351887
     5  H    0.204810
     6  H    0.179593
 Sum of APT charges =   1.00000
 APT charges with hydrogens summed into heavy atoms:
               1
     1  C    0.501350
     2  C    0.073091
     3  C    0.073671
     4  C    0.351887
 Electronic spatial extent (au):  <R**2>=            222.3635
 Charge=              1.0000 electrons
 Dipole moment (field-independent basis, Debye):
    X=             -0.3409    Y=             -0.4949    Z=              0.0000  Tot=              0.6010
 Quadrupole moment (field-independent basis, Debye-Ang):
   XX=             -8.5576   YY=            -15.9236   ZZ=            -20.8482
   XY=              0.4025   XZ=             -0.0001   YZ=              0.0000
 Traceless Quadrupole moment (field-independent basis, Debye-Ang):
   XX=              6.5522   YY=             -0.8138   ZZ=             -5.7384
   XY=              0.4025   XZ=             -0.0001   YZ=              0.0000
 Octapole moment (field-independent basis, Debye-Ang**2):
  XXX=              9.2148  YYY=              0.9435  ZZZ=              0.0000  XYY=             -7.6947
  XXY=             -7.1610  XXZ=             -0.0001  XZZ=             -0.1619  YZZ=             -0.1926
  YYZ=              0.0001  XYZ=              0.0000
 Hexadecapole moment (field-independent basis, Debye-Ang**3):
 XXXX=           -189.1389 YYYY=            -39.7844 ZZZZ=            -21.1060 XXXY=              0.7927
 XXXZ=              0.0007 YYYX=              3.8939 YYYZ=             -0.0000 ZZZX=              0.0011
 ZZZY=             -0.0001 XXYY=            -38.7223 XXZZ=            -41.1881 YYZZ=            -13.0044
 XXYZ=              0.0000 YYXZ=              0.0003 ZZXY=              0.2552
 N-N= 7.727078098047D+01 E-N=-5.030525753863D+02  KE= 1.524095042405D+02
  Exact polarizability:  65.998  -2.714  36.067  -0.001   0.000  18.985
 Approx polarizability: 120.392  -9.105  46.938  -0.001   0.000  25.655
                          Isotropic Fermi Contact Couplings
        Atom                 a.u.       MegaHertz       Gauss      10(-4) cm-1
     1  C(13)              0.32882     123.21984      43.96790      41.10172
     2  C(13)              0.02072       7.76433       2.77051       2.58990
     3  C(13)              0.23555      88.26860      31.49643      29.44324
     4  C(13)              1.13361     424.79946     151.57901     141.69785
     5  H(1)               0.00099       1.47945       0.52791       0.49349
     6  H(1)               0.01149      17.11305       6.10636       5.70830
 --------------------------------------------------------
       Center         ----  Spin Dipole Couplings  ----
                      3XX-RR        3YY-RR        3ZZ-RR
 --------------------------------------------------------
     1   Atom        0.589580     -0.533635     -0.055946
     2   Atom       -0.000549     -0.071506      0.072056
     3   Atom        0.225070     -0.229877      0.004808
     4   Atom        0.383135     -0.487352      0.104217
     5   Atom       -0.037800      0.110171     -0.072371
     6   Atom       -0.013881      0.036166     -0.022286
 --------------------------------------------------------
                        XY            XZ            YZ
 --------------------------------------------------------
     1   Atom       -0.679978     -0.000011      0.000005
     2   Atom        0.028713      0.000001     -0.000001
     3   Atom       -0.268805     -0.000004      0.000002
     4   Atom       -0.239528     -0.000004     -0.000001
     5   Atom        0.023837     -0.000000      0.000001
     6   Atom        0.012079     -0.000000      0.000000
 --------------------------------------------------------


 ---------------------------------------------------------------------------------
              Anisotropic Spin Dipole Couplings in Principal Axis System
 ---------------------------------------------------------------------------------

       Atom             a.u.   MegaHertz   Gauss  10(-4) cm-1        Axes

              Baa    -0.8539  -114.591   -40.889   -38.223  0.4261  0.9047  0.0000
     1 C(13)  Bbb    -0.0559    -7.507    -2.679    -2.504  0.0000 -0.0000  1.0000
              Bcc     0.9099   122.098    43.568    40.728  0.9047 -0.4261 -0.0000
 
              Baa    -0.0817   -10.959    -3.911    -3.656 -0.3337  0.9427  0.0000
     2 C(13)  Bbb     0.0096     1.290     0.460     0.430  0.9427  0.3337 -0.0000
              Bcc     0.0721     9.669     3.450     3.225  0.0000 -0.0000  1.0000
 
              Baa    -0.3545   -47.576   -16.976   -15.870  0.4207  0.9072  0.0000
     3 C(13)  Bbb     0.0048     0.645     0.230     0.215  0.0000 -0.0000  1.0000
              Bcc     0.3497    46.931    16.746    15.654  0.9072 -0.4207 -0.0000
 
              Baa    -0.5489   -73.658   -26.283   -24.570  0.2489  0.9685  0.0000
     4 C(13)  Bbb     0.1042    13.985     4.990     4.665  0.0000 -0.0000  1.0000
              Bcc     0.4447    59.673    21.293    19.905  0.9685 -0.2489 -0.0000
 
              Baa    -0.0724   -38.614   -13.778   -12.880  0.0000 -0.0000  1.0000
     5 H(1)   Bbb    -0.0415   -22.166    -7.910    -7.394  0.9879 -0.1552 -0.0000
              Bcc     0.1139    60.780    21.688    20.274  0.1552  0.9879  0.0000
 
              Baa    -0.0223   -11.891    -4.243    -3.966  0.0000 -0.0000  1.0000
     6 H(1)   Bbb    -0.0166    -8.880    -3.169    -2.962  0.9748 -0.2230 -0.0000
              Bcc     0.0389    20.771     7.411     6.928  0.2230  0.9748  0.0000
 

 ---------------------------------------------------------------------------------

 No NMR shielding tensors so no spin-rotation constants.
 Leave Link  601 at Thu Jan 24 15:42:34 2019, MaxMem=    33554432 cpu:         0.2
 (Enter /apl/tryton/gaussian/09/d01/g09/l701.exe)
 Compute integral second derivatives.
 ... and contract with generalized density number  0.
 Leave Link  701 at Thu Jan 24 15:42:34 2019, MaxMem=    33554432 cpu:         0.2
 (Enter /apl/tryton/gaussian/09/d01/g09/l702.exe)
 L702 exits ... SP integral derivatives will be done elsewhere.
 Leave Link  702 at Thu Jan 24 15:42:35 2019, MaxMem=    33554432 cpu:         0.0
 (Enter /apl/tryton/gaussian/09/d01/g09/l703.exe)
 Compute integral second derivatives, UseDBF=F ICtDFT=           0.
 Integral derivatives from FoFJK, PRISM(SPDF).
 Calling FoFJK, ICntrl=    100127 FMM=F ISym2X=0 I1Cent= 0 IOpClX= 1 NMat=1 NMatS=1 NMatT=0.
 FoFJK:  IHMeth= 1 ICntrl=  100127 DoSepK=F KAlg= 0 I1Cent=   0 FoldK=F
 IRaf=         0 NMat=   1 IRICut=       1 DoRegI=T DoRafI=F ISym2E= 0.
 FoFCou: FMM=F IPFlag=           0 FMFlag=      100000 FMFlg1=         800
         NFxFlg=           0 DoJE=F BraDBF=F KetDBF=F FulRan=T
         wScrn=  0.000000 ICntrl=  100127 IOpCl=  1 I1Cent=           0 NGrid=           0
         NMat0=    1 NMatS0=      1 NMatT0=    0 NMatD0=    1 NMtDS0=    0 NMtDT0=    0
 Symmetry not used in FoFCou.
 Leave Link  703 at Thu Jan 24 15:43:07 2019, MaxMem=    33554432 cpu:        32.6
 (Enter /apl/tryton/gaussian/09/d01/g09/l716.exe)
 Dipole        =-1.34122390D-01-1.94725596D-01 3.08850813D-07
 Polarizability= 6.59981134D+01-2.71435931D+00 3.60672941D+01
                -5.30675150D-04 1.31521097D-04 1.89850444D+01
 Full mass-weighted force constant matrix:
 Low frequencies ---   -0.0005    0.0004    0.0010    3.6042    4.9863   15.8902
 Low frequencies ---  166.6083  367.9784  436.2401
 Diagonal vibrational polarizability:
        4.0589940       1.3253886       2.0574461
 Harmonic frequencies (cm**-1), IR intensities (KM/Mole), Raman scattering
 activities (A**4/AMU), depolarization ratios for plane and unpolarized
 incident light, reduced masses (AMU), force constants (mDyne/A),
 and normal coordinates:
                      1                      2                      3
                      A                      A                      A
 Frequencies --    166.6073               367.9782               436.2401
 Red. masses --      5.5317                 4.1003                 3.4912
 Frc consts  --      0.0905                 0.3271                 0.3915
 IR Inten    --      0.4316                 1.5690                16.1298
  Atom  AN      X      Y      Z        X      Y      Z        X      Y      Z
     1   6     0.26  -0.16  -0.00    -0.00   0.00  -0.10     0.19   0.00  -0.00
     2   6    -0.05   0.15   0.00    -0.00   0.00  -0.07    -0.01   0.20   0.00
     3   6     0.01   0.35   0.00     0.00  -0.00   0.44    -0.20  -0.31   0.00
     4   6    -0.25  -0.33   0.00    -0.00   0.00  -0.26    -0.06   0.09   0.00
     5   1     0.67  -0.19  -0.00     0.00  -0.00   0.51     0.84  -0.04  -0.00
     6   1    -0.31   0.09   0.00    -0.00   0.00  -0.68     0.12   0.22  -0.00
                      4                      5                      6
                      A                      A                      A
 Frequencies --    780.8765               829.3063               847.7363
 Red. masses --      1.8779                 1.5161                 1.1822
 Frc consts  --      0.6747                 0.6143                 0.5006
 IR Inten    --      5.4021                23.5612                40.2496
  Atom  AN      X      Y      Z        X      Y      Z        X      Y      Z
     1   6     0.00  -0.00   0.17     0.18  -0.04  -0.00     0.00  -0.00   0.03
     2   6    -0.00   0.00  -0.20     0.03   0.04  -0.00     0.00  -0.00   0.12
     3   6     0.00  -0.00   0.11    -0.06  -0.03   0.00    -0.00   0.00  -0.03
     4   6    -0.00   0.00  -0.03    -0.06   0.03   0.00     0.00  -0.00   0.00
     5   1    -0.00   0.00  -0.93    -0.97   0.05   0.00    -0.00   0.00  -0.52
     6   1     0.00  -0.00   0.25    -0.10   0.01   0.00    -0.00   0.00  -0.84
                      7                      8                      9
                      A                      A                      A
 Frequencies --   1066.2392              1253.1504              1426.6147
 Red. masses --      4.2136                 1.3451                 4.7186
 Frc consts  --      2.8224                 1.2445                 5.6581
 IR Inten    --      1.5684                 3.2043                88.9028
  Atom  AN      X      Y      Z        X      Y      Z        X      Y      Z
     1   6     0.05   0.10   0.00     0.06   0.13   0.00    -0.25  -0.20   0.00
     2   6     0.28  -0.28  -0.00     0.02  -0.09  -0.00     0.41   0.23  -0.00
     3   6    -0.12   0.09   0.00    -0.01  -0.03  -0.00     0.03  -0.05  -0.00
     4   6    -0.30   0.11   0.00    -0.01   0.00   0.00    -0.12   0.05   0.00
     5   1     0.28   0.09  -0.00     0.16   0.14  -0.00    -0.06  -0.30  -0.00
     6   1     0.77  -0.19  -0.00    -0.91  -0.32   0.00    -0.75  -0.04   0.00
                     10                     11                     12
                      A                      A                      A
 Frequencies --   2059.0046              3120.6693              3209.2662
 Red. masses --     11.8559                 1.0880                 1.0996
 Frc consts  --     29.6142                 6.2426                 6.6725
 IR Inten    --     31.5380                58.2945                51.3946
  Atom  AN      X      Y      Z        X      Y      Z        X      Y      Z
     1   6     0.03   0.02  -0.00    -0.00  -0.00   0.00    -0.01  -0.09  -0.00
     2   6    -0.24   0.02   0.00    -0.02   0.08   0.00     0.01   0.01  -0.00
     3   6     0.74  -0.25  -0.00     0.00   0.00  -0.00    -0.00   0.00   0.00
     4   6    -0.53   0.20   0.00     0.00  -0.00  -0.00     0.00  -0.00  -0.00
     5   1     0.02   0.06   0.00    -0.01   0.00   0.00     0.07   0.99   0.00
     6   1     0.04   0.09   0.00     0.23  -0.97  -0.00    -0.00   0.01   0.00

 -------------------
 - Thermochemistry -
 -------------------
 Temperature   298.150 Kelvin.  Pressure   1.00000 Atm.
 Atom     1 has atomic number  6 and mass  12.00000
 Atom     2 has atomic number  6 and mass  12.00000
 Atom     3 has atomic number  6 and mass  12.00000
 Atom     4 has atomic number  6 and mass  12.00000
 Atom     5 has atomic number  1 and mass   1.00783
 Atom     6 has atomic number  1 and mass   1.00783
 Molecular mass:    50.01565 amu.
 Principal axes and moments of inertia in atomic units:
                           1         2         3
     Eigenvalues --    42.99839 304.67996 347.67835
           X            0.99989   0.01458   0.00001
           Y           -0.01458   0.99989  -0.00001
           Z           -0.00001   0.00001   1.00000
 This molecule is an asymmetric top.
 Rotational symmetry number  1.
 Rotational temperatures (Kelvin)      2.01435     0.28428     0.24912
 Rotational constants (GHZ):          41.97230     5.92340     5.19084
 Zero-point vibrational energy      93091.5 (Joules/Mol)
                                   22.24941 (Kcal/Mol)
 Warning -- explicit consideration of   3 degrees of freedom as
           vibrations may cause significant error
 Vibrational temperatures:    239.71   529.44   627.65  1123.51  1193.19
          (Kelvin)           1219.70  1534.08  1803.00  2052.58  2962.44
                             4489.94  4617.41
 
 Zero-point correction=                           0.035457 (Hartree/Particle)
 Thermal correction to Energy=                    0.039791
 Thermal correction to Enthalpy=                  0.040735
 Thermal correction to Gibbs Free Energy=         0.008167
 Sum of electronic and zero-point Energies=           -152.982963
 Sum of electronic and thermal Energies=              -152.978629
 Sum of electronic and thermal Enthalpies=            -152.977685
 Sum of electronic and thermal Free Energies=         -153.010253
 
                     E (Thermal)             CV                S
                      KCal/Mol        Cal/Mol-Kelvin    Cal/Mol-Kelvin
 Total                   24.969             13.225             68.546
 Electronic               0.000              0.000              2.755
 Translational            0.889              2.981             37.653
 Rotational               0.889              2.981             23.037
 Vibrational             23.192              7.264              5.102
 Vibration     1          0.624              1.884              2.473
 Vibration     2          0.741              1.538              1.088
 Vibration     3          0.797              1.391              0.839
                       Q            Log10(Q)             Ln(Q)
 Total Bot       0.175212D-03         -3.756435         -8.649512
 Total V=0       0.356842D+13         12.552476         28.903145
 Vib (Bot)       0.130409D-15        -15.884693        -36.575856
 Vib (Bot)    1  0.121091D+01          0.083113          0.191375
 Vib (Bot)    2  0.495437D+00         -0.305012         -0.702316
 Vib (Bot)    3  0.397458D+00         -0.400708         -0.922665
 Vib (V=0)       0.265594D+01          0.424219          0.976800
 Vib (V=0)    1  0.181008D+01          0.257698          0.593372
 Vib (V=0)    2  0.120389D+01          0.080586          0.185556
 Vib (V=0)    3  0.113873D+01          0.056420          0.129912
 Electronic      0.400000D+01          0.602060          1.386294
 Translational   0.139032D+08          7.143114         16.447628
 Rotational      0.241592D+05          4.383083         10.092422
 
                                                                 min
                                                             IR Spectrum
 
     3   3                                         2                        1      1      1                                          
     2   1                                         0                        4      2      0        88 7            4  3       1      
     0   2                                         5                        2      5      6        42 8            3  6       6      
     9   1                                         9                        7      3      6        89 1            6  8       7      
 
     X   X                                         X                        X      X      X        XX X            X  X       X      
     X   X                                         X                        X                      XX              X                 
     X   X                                         X                        X                      XX              X                 
     X   X                                         X                        X                      XX              X                 
     X   X                                         X                        X                      XX                                
     X   X                                         X                        X                      X                                 
     X   X                                         X                        X                      X                                 
     X   X                                                                  X                      X                                 
     X   X                                                                  X                      X                                 
     X   X                                                                  X                                                        
     X   X                                                                  X                                                        
     X   X                                                                  X                                                        
         X                                                                  X                                                        
                                                                            X                                                        
                                                                            X                                                        
                                                                            X                                                        
                                                                            X                                                        
                                                                            X                                                        
                                                                            X                                                        
                                                                            X                                                        
 
 ***** Axes restored to original set *****
 -------------------------------------------------------------------
 Center     Atomic                   Forces (Hartrees/Bohr)
 Number     Number              X              Y              Z
 -------------------------------------------------------------------
      1        6           0.000032274    0.000074264   -0.000000000
      2        6          -0.000116758   -0.000173176    0.000000003
      3        6           0.000061664    0.000093399   -0.000000002
      4        6          -0.000008191   -0.000003517    0.000000000
      5        1           0.000005197    0.000015874   -0.000000000
      6        1           0.000025814   -0.000006845   -0.000000001
 -------------------------------------------------------------------
 Cartesian Forces:  Max     0.000173176 RMS     0.000059524
 Z-matrix is all fixed cartesians, so copy forces.
 Force constants in Cartesian coordinates: 
                1             2             3             4             5 
      1  0.279662D+00
      2 -0.219346D+00  0.632552D+00
      3 -0.119802D-05 -0.101638D-05  0.524034D-01
      4 -0.214198D+00  0.182253D+00  0.000000D+00  0.642657D+00
      5  0.170264D+00 -0.260783D+00  0.000000D+00 -0.579776D-02  0.646870D+00
      6  0.000000D+00  0.000000D+00 -0.458655D-01 -0.574650D-05 -0.308134D-05
      7 -0.300692D-01  0.231720D-02  0.000000D+00 -0.372618D+00 -0.848348D-01
      8  0.200388D-01  0.230573D-02  0.000000D+00 -0.104629D+00 -0.702473D-01
      9  0.000000D+00  0.000000D+00  0.223932D-01  0.407587D-05  0.100810D-05
     10 -0.159988D-01  0.810759D-02  0.000000D+00  0.454541D-02 -0.402169D-01
     11 -0.839839D-02  0.423052D-02  0.000000D+00  0.418863D-02 -0.101715D-01
     12  0.000000D+00  0.000000D+00 -0.265775D-02  0.000000D+00  0.000000D+00
     13 -0.262380D-01  0.214851D-02  0.000000D+00  0.258267D-02  0.241594D-01
     14  0.345564D-01 -0.359728D+00  0.158037D-05 -0.120087D-01  0.126984D-02
     15  0.000000D+00  0.193662D-05 -0.273034D-01  0.000000D+00  0.000000D+00
     16  0.684240D-02  0.245197D-01  0.000000D+00 -0.629690D-01 -0.635743D-01
     17  0.288502D-02 -0.185775D-01  0.000000D+00 -0.640060D-01 -0.306939D+00
     18  0.000000D+00  0.000000D+00  0.102990D-02  0.000000D+00  0.231477D-05
                6             7             8             9            10 
      6  0.115685D+00
      7  0.395739D-05  0.110822D+01
      8  0.122305D-05  0.352462D+00  0.175091D+00
      9 -0.573530D-01 -0.135856D-04 -0.454491D-05  0.614840D-01
     10  0.000000D+00 -0.703886D+00 -0.241411D+00  0.887881D-05  0.722200D+00
     11  0.000000D+00 -0.264079D+00 -0.103441D+00  0.335757D-05  0.270603D+00
     12  0.128850D-01  0.901210D-05  0.311019D-05 -0.264327D-01 -0.939083D-05
     13  0.000000D+00  0.420556D-02 -0.909022D-03  0.000000D+00 -0.358658D-04
     14  0.000000D+00  0.127492D-02  0.534335D-03  0.000000D+00  0.353596D-04
     15  0.919667D-02  0.000000D+00  0.000000D+00 -0.738784D-02  0.000000D+00
     16  0.000000D+00 -0.585636D-02 -0.255515D-01  0.000000D+00 -0.682520D-02
     17  0.231968D-05 -0.713992D-02 -0.424266D-02  0.000000D+00  0.288139D-02
     18 -0.345486D-01  0.000000D+00  0.000000D+00  0.729627D-02  0.000000D+00
               11            12            13            14            15 
     11  0.107834D+00
     12 -0.353012D-05  0.137430D-01
     13  0.718271D-04  0.000000D+00  0.217738D-01
     14 -0.242428D-04  0.000000D+00 -0.254757D-01  0.357923D+00
     15  0.000000D+00  0.118563D-02  0.000000D+00 -0.172805D-05  0.173842D-01
     16 -0.238617D-02  0.000000D+00 -0.228810D-02  0.161777D-02  0.000000D+00
     17  0.157247D-02  0.000000D+00  0.497023D-05  0.251365D-04  0.000000D+00
     18  0.000000D+00  0.127676D-02  0.000000D+00  0.000000D+00  0.692466D-02
               16            17            18 
     16  0.710963D-01
     17  0.653745D-01  0.328161D+00
     18  0.000000D+00 -0.255840D-05  0.180210D-01
 Leave Link  716 at Thu Jan 24 15:43:07 2019, MaxMem=    33554432 cpu:         0.0
 (Enter /apl/tryton/gaussian/09/d01/g09/l103.exe)

 GradGradGradGradGradGradGradGradGradGradGradGradGradGradGradGradGradGrad
 Berny optimization.
 Search for a local minimum.
 Step number   1 out of a maximum of    2
 All quantities printed in internal units (Hartrees-Bohrs-Radians)
 Second derivative matrix not updated -- analytic derivatives used.
 The second derivative matrix:
                          X1        Y1        Z1        X2        Y2
           X1           0.27966
           Y1          -0.21935   0.63255
           Z1          -0.00000  -0.00000   0.05240
           X2          -0.21420   0.18225   0.00000   0.64266
           Y2           0.17026  -0.26078  -0.00000  -0.00580   0.64687
           Z2           0.00000  -0.00000  -0.04587  -0.00001  -0.00000
           X3          -0.03007   0.00232   0.00000  -0.37262  -0.08483
           Y3           0.02004   0.00231  -0.00000  -0.10463  -0.07025
           Z3           0.00000   0.00000   0.02239   0.00000   0.00000
           X4          -0.01600   0.00811   0.00000   0.00455  -0.04022
           Y4          -0.00840   0.00423   0.00000   0.00419  -0.01017
           Z4           0.00000  -0.00000  -0.00266   0.00000   0.00000
           X5          -0.02624   0.00215  -0.00000   0.00258   0.02416
           Y5           0.03456  -0.35973   0.00000  -0.01201   0.00127
           Z5          -0.00000   0.00000  -0.02730   0.00000  -0.00000
           X6           0.00684   0.02452  -0.00000  -0.06297  -0.06357
           Y6           0.00289  -0.01858   0.00000  -0.06401  -0.30694
           Z6          -0.00000  -0.00000   0.00103   0.00000   0.00000
                          Z2        X3        Y3        Z3        X4
           Z2           0.11569
           X3           0.00000   1.10822
           Y3           0.00000   0.35246   0.17509
           Z3          -0.05735  -0.00001  -0.00000   0.06148
           X4           0.00000  -0.70389  -0.24141   0.00001   0.72220
           Y4           0.00000  -0.26408  -0.10344   0.00000   0.27060
           Z4           0.01288   0.00001   0.00000  -0.02643  -0.00001
           X5          -0.00000   0.00421  -0.00091  -0.00000  -0.00004
           Y5           0.00000   0.00127   0.00053  -0.00000   0.00004
           Z5           0.00920  -0.00000  -0.00000  -0.00739   0.00000
           X6           0.00000  -0.00586  -0.02555   0.00000  -0.00683
           Y6           0.00000  -0.00714  -0.00424   0.00000   0.00288
           Z6          -0.03455   0.00000   0.00000   0.00730   0.00000
                          Y4        Z4        X5        Y5        Z5
           Y4           0.10783
           Z4          -0.00000   0.01374
           X5           0.00007   0.00000   0.02177
           Y5          -0.00002   0.00000  -0.02548   0.35792
           Z5           0.00000   0.00119   0.00000  -0.00000   0.01738
           X6          -0.00239   0.00000  -0.00229   0.00162   0.00000
           Y6           0.00157  -0.00000   0.00000   0.00003   0.00000
           Z6           0.00000   0.00128   0.00000   0.00000   0.00692
                          X6        Y6        Z6
           X6           0.07110
           Y6           0.06537   0.32816
           Z6          -0.00000  -0.00000   0.01802
 ITU=  0
     Eigenvalues ---    0.00601   0.03017   0.03753   0.04499   0.09222
     Eigenvalues ---    0.13049   0.17539   0.28866   0.53234   0.79562
     Eigenvalues ---    1.18313   1.92794
 Angle between quadratic step and forces=  73.97 degrees.
 Linear search not attempted -- first point.
 TrRot= -0.000338  0.000161  0.000000 -0.000066 -0.000000 -0.000066
 Variable       Old X    -DE/DX   Delta X   Delta X   Delta X     New X
                                 (Linear)    (Quad)   (Total)
    X1        2.96899   0.00003   0.00000   0.00104   0.00060   2.96959
    Y1       -0.78005   0.00007   0.00000   0.00035   0.00012  -0.77993
    Z1       -0.00004  -0.00000   0.00000  -0.00000   0.00000  -0.00004
    X2        1.12723  -0.00012   0.00000  -0.00051  -0.00071   1.12651
    Y2        1.04181  -0.00017   0.00000  -0.00136  -0.00135   1.04046
    Z2       -0.00003   0.00000   0.00000   0.00000   0.00000  -0.00003
    X3       -1.36842   0.00006   0.00000  -0.00065  -0.00095  -1.36936
    Y3        0.29892   0.00009   0.00000  -0.00010   0.00024   0.29916
    Z3        0.00001  -0.00000   0.00000   0.00000   0.00000   0.00001
    X4       -3.52876  -0.00001   0.00000  -0.00126  -0.00168  -3.53043
    Y4       -0.59188  -0.00000   0.00000   0.00143   0.00205  -0.58982
    Z4        0.00003   0.00000   0.00000   0.00000   0.00000   0.00003
    X5        3.08739   0.00001   0.00000   0.00374   0.00303   3.09042
    Y5       -2.82908   0.00002   0.00000   0.00055   0.00031  -2.82877
    Z5       -0.00003  -0.00000   0.00000  -0.00000  -0.00000  -0.00003
    X6        1.60675   0.00003   0.00000  -0.00036  -0.00030   1.60645
    Y6        3.04681  -0.00001   0.00000  -0.00132  -0.00137   3.04544
    Z6       -0.00004  -0.00000   0.00000   0.00000   0.00000  -0.00004
         Item               Value     Threshold  Converged?
 Maximum Force            0.000173     0.000450     YES
 RMS     Force            0.000060     0.000300     YES
 Maximum Displacement     0.003035     0.001800     NO 
 RMS     Displacement     0.001105     0.001200     YES
 Predicted change in Energy=-1.684835D-07
 GradGradGradGradGradGradGradGradGradGradGradGradGradGradGradGradGradGrad

 Leave Link  103 at Thu Jan 24 15:43:07 2019, MaxMem=    33554432 cpu:         0.0
 (Enter /apl/tryton/gaussian/09/d01/g09/l9999.exe)
 1\1\ CITASK-GV0245\Freq\UB3LYP\6-311++G(d,p)\C4H2(1+,4)\EERD\24-Jan-20
 19\0\\#p b3lyp/6-311++g(d,p) freq\\min\\1,4\C,1.571121,-0.412783,-0.00
 0019\C,0.596502,0.5513,-0.000014\C,-0.724136,0.158182,0.00000281\C,-1.
 867337,-0.313209,0.000018135\H,1.633775,-1.497085,-0.000013285\H,0.850
 253,1.612305,-0.000023049\\Version=ES64L-G09RevD.01\State=4-A\HF=-153.
 01842\S2=3.800915\S2-1=0.\S2A=3.750772\RMSD=6.659e-09\RMSF=5.952e-05\Z
 eroPoint=0.0354567\Thermal=0.0397911\Dipole=0.1331946,-0.1953614,-0.00
 00003\DipoleDeriv=0.5917246,0.0890096,-0.0000052,-0.3764506,0.1308855,
 0.0000043,-0.0000024,-0.0000008,0.1670099,-0.2516777,0.0908108,0.00000
 3,0.3021604,-0.1404915,-0.000002,0.0000018,0.0000003,0.0726633,-0.3425
 67,0.1611723,0.000004,-0.0080024,0.4580587,-0.000002,0.000005,-0.00000
 38,0.1055213,0.6810879,-0.2383332,-0.0000026,0.093084,0.0602427,0.0000
 005,-0.0000046,0.0000041,0.3143318,0.1980882,-0.0860193,0.0000002,-0.0
 717399,0.2423398,0.0000004,0.0000002,0.0000005,0.174003,0.1233441,-0.0
 166402,0.0000006,0.0609486,0.2489649,-0.0000012,0.,-0.0000003,0.166470
 8\Polar=66.0232585,2.5718672,36.042149,-0.0005313,-0.000129,18.9850444
 \PG=C01 [X(C4H2)]\NImag=0\\0.27966182,-0.21934624,0.63255191,-0.000001
 20,-0.00000102,0.05240343,-0.21419821,0.18225327,0.00000077,0.64265670
 ,0.17026441,-0.26078282,-0.00000060,-0.00579776,0.64687043,0.00000084,
 -0.00000073,-0.04586547,-0.00000575,-0.00000308,0.11568541,-0.03006921
 ,0.00231720,0.00000056,-0.37261756,-0.08483477,0.00000396,1.10822335,0
 .02003881,0.00230573,-0.00000010,-0.10462942,-0.07024727,0.00000122,0.
 35246191,0.17509104,0.00000046,0.00000009,0.02239325,0.00000408,0.0000
 0101,-0.05735303,-0.00001359,-0.00000454,0.06148400,-0.01599876,0.0081
 0759,0.00000010,0.00454541,-0.04021695,0.00000033,-0.70388578,-0.24141
 082,0.00000888,0.72220020,-0.00839839,0.00423052,0.00000005,0.00418863
 ,-0.01017148,0.00000009,-0.26407934,-0.10344118,0.00000336,0.27060343,
 0.10783391,0.00000020,-0.00000013,-0.00265775,0.00000007,0.00000058,0.
 01288499,0.00000901,0.00000311,-0.02643265,-0.00000939,-0.00000353,0.0
 1374302,-0.02623804,0.00214851,-0.00000003,0.00258267,0.02415942,-0.00
 000007,0.00420556,-0.00090902,-0.00000012,-0.00003587,0.00007183,0.000
 00001,0.02177377,0.03455639,-0.35972784,0.00000158,-0.01200873,0.00126
 984,0.00000018,0.00127492,0.00053434,-0.00000006,0.00003536,-0.0000242
 4,0.,-0.02547570,0.35792277,-0.00000022,0.00000194,-0.02730335,0.00000
 014,-0.00000022,0.00919667,-0.00000013,-0.00000004,-0.00738784,0.00000
 001,0.,0.00118563,0.00000010,-0.00000173,0.01738423,0.00684240,0.02451
 968,-0.00000021,-0.06296902,-0.06357435,0.00000069,-0.00585636,-0.0255
 5145,0.00000030,-0.00682520,-0.00238617,0.00000010,-0.00228810,0.00161
 777,0.00000009,0.07109628,0.00288502,-0.01857751,0.00000008,-0.0640059
 8,-0.30693870,0.00000232,-0.00713992,-0.00424266,0.00000015,0.00288139
 ,0.00157247,-0.00000003,0.00000497,0.00002514,0.00000004,0.06537452,0.
 32816128,-0.00000008,-0.00000015,0.00102990,0.00000069,0.00000231,-0.0
 3454858,0.00000019,0.00000035,0.00729627,0.00000007,0.00000002,0.00127
 676,0.00000010,0.00000002,0.00692466,-0.00000097,-0.00000256,0.0180209
 9\\-0.00003227,-0.00007426,0.,0.00011676,0.00017318,0.,-0.00006166,-0.
 00009340,0.,0.00000819,0.00000352,0.,-0.00000520,-0.00001587,0.,-0.000
 02581,0.00000684,0.\\\@


 FROM AN ANONYMOUS WRITER, ON PERSPECTIVE:

 MAN, DESPITE HIS ARTISTIC PRETENSIONS, HIS SOPHISTICATION AND MANY 
 ACCOMPLISHMENTS, OWES THE FACT OF HIS EXISTENCE TO A SIX-INCH LAYER OF 
 TOPSOIL AND THE FACT THAT IT RAINS.
 Job cpu time:       0 days  0 hours  1 minutes 53.8 seconds.
 File lengths (MBytes):  RWF=     16 Int=      0 D2E=      0 Chk=      2 Scr=      1
 Normal termination of Gaussian 09 at Thu Jan 24 15:43:07 2019.
