 Entering Gaussian System, Link 0=g09
 Initial command:
 /apl/tryton/gaussian/09/d01/g09/l1.exe "/users/work/eerd/M3C-outputs/ionized/7/Gau-28851.inp" -scrdir="/users/work/eerd/M3C-outputs/ionized/7/"
 Entering Link 1 = /apl/tryton/gaussian/09/d01/g09/l1.exe PID=     28852.
  
 Copyright (c) 1988,1990,1992,1993,1995,1998,2003,2009,2013,
            Gaussian, Inc.  All Rights Reserved.
  
 This is part of the Gaussian(R) 09 program.  It is based on
 the Gaussian(R) 03 system (copyright 2003, Gaussian, Inc.),
 the Gaussian(R) 98 system (copyright 1998, Gaussian, Inc.),
 the Gaussian(R) 94 system (copyright 1995, Gaussian, Inc.),
 the Gaussian 92(TM) system (copyright 1992, Gaussian, Inc.),
 the Gaussian 90(TM) system (copyright 1990, Gaussian, Inc.),
 the Gaussian 88(TM) system (copyright 1988, Gaussian, Inc.),
 the Gaussian 86(TM) system (copyright 1986, Carnegie Mellon
 University), and the Gaussian 82(TM) system (copyright 1983,
 Carnegie Mellon University). Gaussian is a federally registered
 trademark of Gaussian, Inc.
  
 This software contains proprietary and confidential information,
 including trade secrets, belonging to Gaussian, Inc.
  
 This software is provided under written license and may be
 used, copied, transmitted, or stored only in accord with that
 written license.
  
 The following legend is applicable only to US Government
 contracts under FAR:
  
                    RESTRICTED RIGHTS LEGEND
  
 Use, reproduction and disclosure by the US Government is
 subject to restrictions as set forth in subparagraphs (a)
 and (c) of the Commercial Computer Software - Restricted
 Rights clause in FAR 52.227-19.
  
 Gaussian, Inc.
 340 Quinnipiac St., Bldg. 40, Wallingford CT 06492
  
  
 ---------------------------------------------------------------
 Warning -- This program may not be used in any manner that
 competes with the business of Gaussian, Inc. or will provide
 assistance to any competitor of Gaussian, Inc.  The licensee
 of this program is prohibited from giving any competitor of
 Gaussian, Inc. access to this program.  By using this program,
 the user acknowledges that Gaussian, Inc. is engaged in the
 business of creating and licensing software in the field of
 computational chemistry and represents and warrants to the
 licensee that it is not a competitor of Gaussian, Inc. and that
 it will not use this program in any manner prohibited above.
 ---------------------------------------------------------------
  

 Cite this work as:
 Gaussian 09, Revision D.01,
 M. J. Frisch, G. W. Trucks, H. B. Schlegel, G. E. Scuseria, 
 M. A. Robb, J. R. Cheeseman, G. Scalmani, V. Barone, B. Mennucci, 
 G. A. Petersson, H. Nakatsuji, M. Caricato, X. Li, H. P. Hratchian, 
 A. F. Izmaylov, J. Bloino, G. Zheng, J. L. Sonnenberg, M. Hada, 
 M. Ehara, K. Toyota, R. Fukuda, J. Hasegawa, M. Ishida, T. Nakajima, 
 Y. Honda, O. Kitao, H. Nakai, T. Vreven, J. A. Montgomery, Jr., 
 J. E. Peralta, F. Ogliaro, M. Bearpark, J. J. Heyd, E. Brothers, 
 K. N. Kudin, V. N. Staroverov, T. Keith, R. Kobayashi, J. Normand, 
 K. Raghavachari, A. Rendell, J. C. Burant, S. S. Iyengar, J. Tomasi, 
 M. Cossi, N. Rega, J. M. Millam, M. Klene, J. E. Knox, J. B. Cross, 
 V. Bakken, C. Adamo, J. Jaramillo, R. Gomperts, R. E. Stratmann, 
 O. Yazyev, A. J. Austin, R. Cammi, C. Pomelli, J. W. Ochterski, 
 R. L. Martin, K. Morokuma, V. G. Zakrzewski, G. A. Voth, 
 P. Salvador, J. J. Dannenberg, S. Dapprich, A. D. Daniels, 
 O. Farkas, J. B. Foresman, J. V. Ortiz, J. Cioslowski, 
 and D. J. Fox, Gaussian, Inc., Wallingford CT, 2013.
 
 ******************************************
 Gaussian 09:  ES64L-G09RevD.01 24-Apr-2013
                24-Jan-2019 
 ******************************************
 ---------------------------
 #p b3lyp/6-311++g(d,p) freq
 ---------------------------
 1/10=4,30=1,38=1/1,3;
 2/12=2,17=6,18=5,40=1/2;
 3/5=4,6=6,7=1111,11=2,16=1,25=1,30=1,71=2,74=-5,140=1/1,2,3;
 4//1;
 5/5=2,38=5,98=1/2;
 8/6=4,10=90,11=11/1;
 11/6=1,8=1,9=11,15=111,16=1/1,2,10;
 10/6=1/2;
 6/7=2,8=2,9=2,10=2,18=1,28=1/1;
 7/8=1,10=1,25=1/1,2,3,16;
 1/10=4,30=1/3;
 99//99;
 Leave Link    1 at Thu Jan 24 15:47:26 2019, MaxMem=           0 cpu:         0.0
 (Enter /apl/tryton/gaussian/09/d01/g09/l101.exe)
 ---
 min
 ---
 Symbolic Z-matrix:
 Charge =  1 Multiplicity = 1
 C                    -0.30315  -0.00199  0. 
 C                    -0.39198   1.34288  -0.0005 
 C                    -1.36793  -0.82329   0.00028 
 C                     1.26988  -0.31797   0.00014 
 H                     1.82259   0.62709  -0.00019 
 H                     1.45796  -0.87072   0.92013 
 H                     1.458    -0.87139  -0.91943 
 
 NAtoms=      7 NQM=        7 NQMF=       0 NMMI=      0 NMMIF=      0
                NMic=       0 NMicF=      0.
                    Isotopes and Nuclear Properties:
 (Nuclear quadrupole moments (NQMom) in fm**2, nuclear magnetic moments (NMagM)
  in nuclear magnetons)

  Atom         1           2           3           4           5           6           7
 IAtWgt=          12          12          12          12           1           1           1
 AtmWgt=  12.0000000  12.0000000  12.0000000  12.0000000   1.0078250   1.0078250   1.0078250
 NucSpn=           0           0           0           0           1           1           1
 AtZEff=   0.0000000   0.0000000   0.0000000   0.0000000   0.0000000   0.0000000   0.0000000
 NQMom=    0.0000000   0.0000000   0.0000000   0.0000000   0.0000000   0.0000000   0.0000000
 NMagM=    0.0000000   0.0000000   0.0000000   0.0000000   2.7928460   2.7928460   2.7928460
 AtZNuc=   6.0000000   6.0000000   6.0000000   6.0000000   1.0000000   1.0000000   1.0000000
 Leave Link  101 at Thu Jan 24 15:47:26 2019, MaxMem=    33554432 cpu:         0.1
 (Enter /apl/tryton/gaussian/09/d01/g09/l103.exe)

 GradGradGradGradGradGradGradGradGradGradGradGradGradGradGradGradGradGrad
 Berny optimization.
 Initialization pass.
 Trust Radius=3.00D-01 FncErr=1.00D-07 GrdErr=1.00D-07
 Number of steps in this run=      2 maximum allowed number of steps=      2.
 GradGradGradGradGradGradGradGradGradGradGradGradGradGradGradGradGradGrad

 Leave Link  103 at Thu Jan 24 15:47:26 2019, MaxMem=    33554432 cpu:         0.0
 (Enter /apl/tryton/gaussian/09/d01/g09/l202.exe)
                          Input orientation:                          
 ---------------------------------------------------------------------
 Center     Atomic      Atomic             Coordinates (Angstroms)
 Number     Number       Type             X           Y           Z
 ---------------------------------------------------------------------
      1          6           0       -0.303147   -0.001986   -0.000004
      2          6           0       -0.391976    1.342882   -0.000499
      3          6           0       -1.367927   -0.823294    0.000276
      4          6           0        1.269878   -0.317966    0.000143
      5          1           0        1.822592    0.627087   -0.000192
      6          1           0        1.457961   -0.870715    0.920126
      7          1           0        1.457998   -0.871390   -0.919426
 ---------------------------------------------------------------------
                    Distance matrix (angstroms):
                    1          2          3          4          5
     1  C    0.000000
     2  C    1.347798   0.000000
     3  C    1.344732   2.375879   0.000000
     4  C    1.604447   2.349505   2.685772   0.000000
     5  H    2.216867   2.327375   3.504714   1.094814   0.000000
     6  H    2.168601   3.028173   2.972207   1.089621   1.795370
     7  H    2.168601   3.028173   2.972207   1.089621   1.795370
                    6          7
     6  H    0.000000
     7  H    1.839552   0.000000
 Stoichiometry    C4H3(1+)
 Framework group  CS[SG(C4H),X(H2)]
 Deg. of freedom    10
 Full point group                 CS      NOp   2
 Largest Abelian subgroup         CS      NOp   2
 Largest concise Abelian subgroup CS      NOp   2
                         Standard orientation:                         
 ---------------------------------------------------------------------
 Center     Atomic      Atomic             Coordinates (Angstroms)
 Number     Number       Type             X           Y           Z
 ---------------------------------------------------------------------
      1          6           0        0.000000    0.302431   -0.000000
      2          6           0        1.346164    0.368779   -0.000000
      3          6           0       -0.803405    1.380783    0.000000
      4          6           0       -0.342216   -1.265096    0.000000
      5          1           0        0.593471   -1.833521   -0.000000
      6          1           0       -0.898368   -1.443931    0.919776
      7          1           0       -0.898368   -1.443931   -0.919776
 ---------------------------------------------------------------------
 Rotational constants (GHZ):     14.6375058      9.4095586      5.9579028
 Leave Link  202 at Thu Jan 24 15:47:26 2019, MaxMem=    33554432 cpu:         0.0
 (Enter /apl/tryton/gaussian/09/d01/g09/l301.exe)
 Standard basis: 6-311++G(d,p) (5D, 7F)
 Ernie: Thresh=  0.10000D-02 Tol=  0.10000D-05 Strict=F.
 There are    81 symmetry adapted cartesian basis functions of A'  symmetry.
 There are    32 symmetry adapted cartesian basis functions of A"  symmetry.
 There are    77 symmetry adapted basis functions of A'  symmetry.
 There are    32 symmetry adapted basis functions of A"  symmetry.
   109 basis functions,   171 primitive gaussians,   113 cartesian basis functions
    13 alpha electrons       13 beta electrons
       nuclear repulsion energy        83.8633797553 Hartrees.
 IExCor=  402 DFT=T Ex+Corr=B3LYP ExCW=0 ScaHFX=  0.200000
 ScaDFX=  0.800000  0.720000  1.000000  0.810000 ScalE2=  1.000000  1.000000
 IRadAn=      0 IRanWt=     -1 IRanGd=            0 ICorTp=0 IEmpDi=  4
 NAtoms=    7 NActive=    7 NUniq=    6 SFac= 1.36D+00 NAtFMM=   60 NAOKFM=F Big=F
 Integral buffers will be    131072 words long.
 Raffenetti 2 integral format.
 Two-electron integral symmetry is turned on.
 Leave Link  301 at Thu Jan 24 15:47:26 2019, MaxMem=    33554432 cpu:         0.0
 (Enter /apl/tryton/gaussian/09/d01/g09/l302.exe)
 NPDir=0 NMtPBC=     1 NCelOv=     1 NCel=       1 NClECP=     1 NCelD=      1
         NCelK=      1 NCelE2=     1 NClLst=     1 CellRange=     0.0.
 One-electron integrals computed using PRISM.
 One-electron integral symmetry used in STVInt
 NBasis=   109 RedAO= T EigKep=  3.55D-05  NBF=    77    32
 NBsUse=   109 1.00D-06 EigRej= -1.00D+00 NBFU=    77    32
 Precomputing XC quadrature grid using
 IXCGrd= 4 IRadAn=           0 IRanWt=          -1 IRanGd=           0 AccXCQ= 0.00D+00.
 Generated NRdTot=       0 NPtTot=           0 NUsed=           0 NTot=          32
 NSgBfM=   113   113   113   113   113 MxSgAt=     7 MxSgA2=     7.
 Leave Link  302 at Thu Jan 24 15:47:26 2019, MaxMem=    33554432 cpu:         0.2
 (Enter /apl/tryton/gaussian/09/d01/g09/l303.exe)
 DipDrv:  MaxL=1.
 Leave Link  303 at Thu Jan 24 15:47:26 2019, MaxMem=    33554432 cpu:         0.0
 (Enter /apl/tryton/gaussian/09/d01/g09/l401.exe)
 ExpMin= 3.60D-02 ExpMax= 4.56D+03 ExpMxC= 6.82D+02 IAcc=3 IRadAn=         5 AccDes= 0.00D+00
 Harris functional with IExCor=  402 and IRadAn=       5 diagonalized for initial guess.
 HarFok:  IExCor=  402 AccDes= 0.00D+00 IRadAn=         5 IDoV= 1 UseB2=F ITyADJ=14
 ICtDFT=  3500011 ScaDFX=  1.000000  1.000000  1.000000  1.000000
 FoFCou: FMM=F IPFlag=           0 FMFlag=      100000 FMFlg1=           0
         NFxFlg=           0 DoJE=T BraDBF=F KetDBF=T FulRan=T
         wScrn=  0.000000 ICntrl=     500 IOpCl=  0 I1Cent=   200000004 NGrid=           0
         NMat0=    1 NMatS0=      1 NMatT0=    0 NMatD0=    1 NMtDS0=    0 NMtDT0=    0
 Petite list used in FoFCou.
 Harris En= -153.732111755106    
 JPrj=0 DoOrth=F DoCkMO=F.
 Initial guess orbital symmetries:
       Occupied  (A') (A') (A') (A') (A') (A') (A') (A") (A') (A')
                 (A") (A') (A')
       Virtual   (A') (A") (A') (A") (A') (A') (A") (A') (A') (A')
                 (A') (A") (A') (A") (A') (A') (A") (A') (A') (A")
                 (A') (A") (A') (A') (A') (A') (A') (A') (A') (A")
                 (A') (A') (A') (A") (A") (A') (A') (A") (A") (A')
                 (A') (A') (A') (A') (A') (A') (A') (A") (A') (A")
                 (A') (A") (A') (A') (A") (A") (A") (A') (A") (A')
                 (A') (A') (A') (A") (A') (A") (A') (A') (A') (A')
                 (A") (A") (A') (A') (A") (A') (A') (A") (A') (A")
                 (A') (A") (A') (A") (A') (A') (A') (A') (A') (A')
                 (A") (A') (A') (A') (A') (A')
 The electronic state of the initial guess is 1-A'.
 Leave Link  401 at Thu Jan 24 15:47:27 2019, MaxMem=    33554432 cpu:         1.1
 (Enter /apl/tryton/gaussian/09/d01/g09/l502.exe)
 Closed shell SCF:
 Using DIIS extrapolation, IDIIS=  1040.
 Integral symmetry usage will be decided dynamically.
 Keep R1 ints in memory in symmetry-blocked form, NReq=27317595.
 IVT=       58527 IEndB=       58527 NGot=    33554432 MDV=    24209957
 LenX=    24209957 LenY=    24196747
 Requested convergence on RMS density matrix=1.00D-08 within 128 cycles.
 Requested convergence on MAX density matrix=1.00D-06.
 Requested convergence on             energy=1.00D-06.
 No special actions if energy rises.
 FoFCou: FMM=F IPFlag=           0 FMFlag=           0 FMFlg1=           0
         NFxFlg=           0 DoJE=F BraDBF=F KetDBF=F FulRan=T
         wScrn=  0.000000 ICntrl=     600 IOpCl=  0 I1Cent=           0 NGrid=           0
         NMat0=    1 NMatS0=   5995 NMatT0=    0 NMatD0=    1 NMtDS0=    0 NMtDT0=    0
 Petite list used in FoFCou.

 Cycle   1  Pass 1  IDiag  1:
 E= -153.557900121951    
 DIIS: error= 2.99D-02 at cycle   1 NSaved=   1.
 NSaved= 1 IEnMin= 1 EnMin= -153.557900121951     IErMin= 1 ErrMin= 2.99D-02
 ErrMax= 2.99D-02  0.00D+00 EMaxC= 1.00D-01 BMatC= 7.80D-02 BMatP= 7.80D-02
 IDIUse=3 WtCom= 7.01D-01 WtEn= 2.99D-01
 Coeff-Com:  0.100D+01
 Coeff-En:   0.100D+01
 Coeff:      0.100D+01
 Gap=     0.147 Goal=   None    Shift=    0.000
 GapD=    0.147 DampG=1.000 DampE=0.500 DampFc=0.5000 IDamp=-1.
 Damping current iteration by 5.00D-01
 RMSDP=8.80D-03 MaxDP=2.02D-01              OVMax= 2.42D-01

 Cycle   2  Pass 1  IDiag  1:
 E= -153.569523421717     Delta-E=       -0.011623299766 Rises=F Damp=T
 DIIS: error= 1.23D-02 at cycle   2 NSaved=   2.
 NSaved= 2 IEnMin= 2 EnMin= -153.569523421717     IErMin= 2 ErrMin= 1.23D-02
 ErrMax= 1.23D-02  0.00D+00 EMaxC= 1.00D-01 BMatC= 1.35D-02 BMatP= 7.80D-02
 IDIUse=3 WtCom= 8.77D-01 WtEn= 1.23D-01
 Coeff-Com:  0.210D+00 0.790D+00
 Coeff-En:   0.423D+00 0.577D+00
 Coeff:      0.236D+00 0.764D+00
 Gap=     0.239 Goal=   None    Shift=    0.000
 RMSDP=3.57D-03 MaxDP=1.01D-01 DE=-1.16D-02 OVMax= 1.95D-01

 Cycle   3  Pass 1  IDiag  1:
 E= -153.626842205307     Delta-E=       -0.057318783589 Rises=F Damp=F
 DIIS: error= 7.62D-03 at cycle   3 NSaved=   3.
 NSaved= 3 IEnMin= 3 EnMin= -153.626842205307     IErMin= 3 ErrMin= 7.62D-03
 ErrMax= 7.62D-03  0.00D+00 EMaxC= 1.00D-01 BMatC= 4.65D-03 BMatP= 1.35D-02
 IDIUse=3 WtCom= 9.24D-01 WtEn= 7.62D-02
 Coeff-Com: -0.263D-01 0.345D+00 0.681D+00
 Coeff-En:   0.000D+00 0.000D+00 0.100D+01
 Coeff:     -0.243D-01 0.319D+00 0.705D+00
 Gap=     0.174 Goal=   None    Shift=    0.000
 RMSDP=1.57D-03 MaxDP=4.52D-02 DE=-5.73D-02 OVMax= 6.05D-02

 Cycle   4  Pass 1  IDiag  1:
 E= -153.627476919574     Delta-E=       -0.000634714267 Rises=F Damp=F
 DIIS: error= 1.01D-02 at cycle   4 NSaved=   4.
 NSaved= 4 IEnMin= 4 EnMin= -153.627476919574     IErMin= 3 ErrMin= 7.62D-03
 ErrMax= 1.01D-02  0.00D+00 EMaxC= 1.00D-01 BMatC= 3.80D-03 BMatP= 4.65D-03
 IDIUse=3 WtCom= 8.99D-01 WtEn= 1.01D-01
 Coeff-Com: -0.371D-01 0.185D+00 0.524D+00 0.328D+00
 Coeff-En:   0.000D+00 0.000D+00 0.473D+00 0.527D+00
 Coeff:     -0.333D-01 0.167D+00 0.518D+00 0.348D+00
 Gap=     0.176 Goal=   None    Shift=    0.000
 RMSDP=7.25D-04 MaxDP=1.53D-02 DE=-6.35D-04 OVMax= 4.43D-02

 Cycle   5  Pass 1  IDiag  1:
 E= -153.632028729260     Delta-E=       -0.004551809687 Rises=F Damp=F
 DIIS: error= 2.55D-03 at cycle   5 NSaved=   5.
 NSaved= 5 IEnMin= 5 EnMin= -153.632028729260     IErMin= 5 ErrMin= 2.55D-03
 ErrMax= 2.55D-03  0.00D+00 EMaxC= 1.00D-01 BMatC= 2.89D-04 BMatP= 3.80D-03
 IDIUse=3 WtCom= 9.75D-01 WtEn= 2.55D-02
 Coeff-Com: -0.149D-01 0.424D-01 0.196D+00 0.234D+00 0.543D+00
 Coeff-En:   0.000D+00 0.000D+00 0.000D+00 0.872D-01 0.913D+00
 Coeff:     -0.145D-01 0.413D-01 0.191D+00 0.230D+00 0.553D+00
 Gap=     0.172 Goal=   None    Shift=    0.000
 RMSDP=2.11D-04 MaxDP=4.65D-03 DE=-4.55D-03 OVMax= 9.84D-03

 Cycle   6  Pass 1  IDiag  1:
 E= -153.632369684983     Delta-E=       -0.000340955722 Rises=F Damp=F
 DIIS: error= 3.71D-04 at cycle   6 NSaved=   6.
 NSaved= 6 IEnMin= 6 EnMin= -153.632369684983     IErMin= 6 ErrMin= 3.71D-04
 ErrMax= 3.71D-04  0.00D+00 EMaxC= 1.00D-01 BMatC= 1.29D-05 BMatP= 2.89D-04
 IDIUse=3 WtCom= 9.96D-01 WtEn= 3.71D-03
 Coeff-Com: -0.464D-02 0.535D-02 0.525D-01 0.799D-01 0.271D+00 0.596D+00
 Coeff-En:   0.000D+00 0.000D+00 0.000D+00 0.000D+00 0.000D+00 0.100D+01
 Coeff:     -0.462D-02 0.533D-02 0.523D-01 0.796D-01 0.270D+00 0.598D+00
 Gap=     0.172 Goal=   None    Shift=    0.000
 RMSDP=3.55D-05 MaxDP=8.83D-04 DE=-3.41D-04 OVMax= 1.58D-03

 Cycle   7  Pass 1  IDiag  1:
 E= -153.632382408392     Delta-E=       -0.000012723409 Rises=F Damp=F
 DIIS: error= 1.24D-04 at cycle   7 NSaved=   7.
 NSaved= 7 IEnMin= 7 EnMin= -153.632382408392     IErMin= 7 ErrMin= 1.24D-04
 ErrMax= 1.24D-04  0.00D+00 EMaxC= 1.00D-01 BMatC= 7.59D-07 BMatP= 1.29D-05
 IDIUse=3 WtCom= 9.99D-01 WtEn= 1.24D-03
 Coeff-Com: -0.291D-03-0.177D-02 0.383D-02 0.111D-01 0.599D-01 0.259D+00
 Coeff-Com:  0.668D+00
 Coeff-En:   0.000D+00 0.000D+00 0.000D+00 0.000D+00 0.000D+00 0.000D+00
 Coeff-En:   0.100D+01
 Coeff:     -0.291D-03-0.177D-02 0.382D-02 0.111D-01 0.598D-01 0.259D+00
 Coeff:      0.669D+00
 Gap=     0.172 Goal=   None    Shift=    0.000
 RMSDP=1.40D-05 MaxDP=3.45D-04 DE=-1.27D-05 OVMax= 3.65D-04

 Cycle   8  Pass 1  IDiag  1:
 E= -153.632383164866     Delta-E=       -0.000000756474 Rises=F Damp=F
 DIIS: error= 9.09D-06 at cycle   8 NSaved=   8.
 NSaved= 8 IEnMin= 8 EnMin= -153.632383164866     IErMin= 8 ErrMin= 9.09D-06
 ErrMax= 9.09D-06  0.00D+00 EMaxC= 1.00D-01 BMatC= 9.46D-09 BMatP= 7.59D-07
 IDIUse=1 WtCom= 1.00D+00 WtEn= 0.00D+00
 Coeff-Com:  0.961D-04-0.416D-03-0.687D-03-0.841D-03 0.438D-03 0.249D-01
 Coeff-Com:  0.130D+00 0.847D+00
 Coeff:      0.961D-04-0.416D-03-0.687D-03-0.841D-03 0.438D-03 0.249D-01
 Coeff:      0.130D+00 0.847D+00
 Gap=     0.172 Goal=   None    Shift=    0.000
 RMSDP=2.94D-06 MaxDP=4.06D-05 DE=-7.56D-07 OVMax= 9.73D-05

 Cycle   9  Pass 1  IDiag  1:
 E= -153.632383180314     Delta-E=       -0.000000015448 Rises=F Damp=F
 DIIS: error= 3.73D-06 at cycle   9 NSaved=   9.
 NSaved= 9 IEnMin= 9 EnMin= -153.632383180314     IErMin= 9 ErrMin= 3.73D-06
 ErrMax= 3.73D-06  0.00D+00 EMaxC= 1.00D-01 BMatC= 8.29D-10 BMatP= 9.46D-09
 IDIUse=1 WtCom= 1.00D+00 WtEn= 0.00D+00
 Coeff-Com:  0.557D-05 0.196D-05-0.368D-03-0.687D-03-0.209D-02-0.559D-02
 Coeff-Com: -0.636D-02 0.190D+00 0.825D+00
 Coeff:      0.557D-05 0.196D-05-0.368D-03-0.687D-03-0.209D-02-0.559D-02
 Coeff:     -0.636D-02 0.190D+00 0.825D+00
 Gap=     0.172 Goal=   None    Shift=    0.000
 RMSDP=7.53D-07 MaxDP=1.60D-05 DE=-1.54D-08 OVMax= 1.98D-05

 Cycle  10  Pass 1  IDiag  1:
 E= -153.632383181569     Delta-E=       -0.000000001255 Rises=F Damp=F
 DIIS: error= 8.36D-07 at cycle  10 NSaved=  10.
 NSaved=10 IEnMin=10 EnMin= -153.632383181569     IErMin=10 ErrMin= 8.36D-07
 ErrMax= 8.36D-07  0.00D+00 EMaxC= 1.00D-01 BMatC= 3.37D-11 BMatP= 8.29D-10
 IDIUse=1 WtCom= 1.00D+00 WtEn= 0.00D+00
 Coeff-Com: -0.973D-05 0.206D-04-0.615D-04-0.123D-03-0.431D-03-0.229D-02
 Coeff-Com: -0.689D-02 0.189D-01 0.195D+00 0.796D+00
 Coeff:     -0.973D-05 0.206D-04-0.615D-04-0.123D-03-0.431D-03-0.229D-02
 Coeff:     -0.689D-02 0.189D-01 0.195D+00 0.796D+00
 Gap=     0.172 Goal=   None    Shift=    0.000
 RMSDP=1.24D-07 MaxDP=2.75D-06 DE=-1.25D-09 OVMax= 4.56D-06

 Cycle  11  Pass 1  IDiag  1:
 E= -153.632383181618     Delta-E=       -0.000000000049 Rises=F Damp=F
 DIIS: error= 1.59D-07 at cycle  11 NSaved=  11.
 NSaved=11 IEnMin=11 EnMin= -153.632383181618     IErMin=11 ErrMin= 1.59D-07
 ErrMax= 1.59D-07  0.00D+00 EMaxC= 1.00D-01 BMatC= 1.79D-12 BMatP= 3.37D-11
 IDIUse=1 WtCom= 1.00D+00 WtEn= 0.00D+00
 Coeff-Com: -0.194D-05 0.456D-05 0.231D-05 0.926D-05 0.199D-04-0.220D-03
 Coeff-Com: -0.145D-02-0.972D-02-0.261D-01 0.148D+00 0.889D+00
 Coeff:     -0.194D-05 0.456D-05 0.231D-05 0.926D-05 0.199D-04-0.220D-03
 Coeff:     -0.145D-02-0.972D-02-0.261D-01 0.148D+00 0.889D+00
 Gap=     0.172 Goal=   None    Shift=    0.000
 RMSDP=3.25D-08 MaxDP=3.78D-07 DE=-4.90D-11 OVMax= 1.59D-06

 Cycle  12  Pass 1  IDiag  1:
 E= -153.632383181624     Delta-E=       -0.000000000006 Rises=F Damp=F
 DIIS: error= 3.02D-08 at cycle  12 NSaved=  12.
 NSaved=12 IEnMin=12 EnMin= -153.632383181624     IErMin=12 ErrMin= 3.02D-08
 ErrMax= 3.02D-08  0.00D+00 EMaxC= 1.00D-01 BMatC= 4.84D-14 BMatP= 1.79D-12
 IDIUse=1 WtCom= 1.00D+00 WtEn= 0.00D+00
 Coeff-Com:  0.142D-06-0.261D-06 0.456D-05 0.918D-05 0.201D-04 0.751D-04
 Coeff-Com:  0.253D-03-0.476D-03-0.674D-02-0.281D-01-0.605D-02 0.104D+01
 Coeff:      0.142D-06-0.261D-06 0.456D-05 0.918D-05 0.201D-04 0.751D-04
 Coeff:      0.253D-03-0.476D-03-0.674D-02-0.281D-01-0.605D-02 0.104D+01
 Gap=     0.172 Goal=   None    Shift=    0.000
 RMSDP=7.71D-09 MaxDP=1.45D-07 DE=-5.77D-12 OVMax= 4.10D-07

 SCF Done:  E(RB3LYP) =  -153.632383182     A.U. after   12 cycles
            NFock= 12  Conv=0.77D-08     -V/T= 2.0042
 KE= 1.529876854453D+02 PE=-5.168309615568D+02 EE= 1.263475131746D+02
 Leave Link  502 at Thu Jan 24 15:47:35 2019, MaxMem=    33554432 cpu:         8.3
 (Enter /apl/tryton/gaussian/09/d01/g09/l801.exe)
 DoSCS=F DFT=T ScalE2(SS,OS)=  1.000000  1.000000
 Range of M.O.s used for correlation:     1   109
 NBasis=   109 NAE=    13 NBE=    13 NFC=     0 NFV=     0
 NROrb=    109 NOA=    13 NOB=    13 NVA=    96 NVB=    96

 **** Warning!!: The largest alpha MO coefficient is  0.95214784D+02

 Leave Link  801 at Thu Jan 24 15:47:36 2019, MaxMem=    33554432 cpu:         0.0
 (Enter /apl/tryton/gaussian/09/d01/g09/l1101.exe)
 Using compressed storage, NAtomX=     7.
 Will process      8 centers per pass.
 Leave Link 1101 at Thu Jan 24 15:47:36 2019, MaxMem=    33554432 cpu:         0.1
 (Enter /apl/tryton/gaussian/09/d01/g09/l1102.exe)
 Symmetrizing basis deriv contribution to polar:
 IMax=3 JMax=2 DiffMx= 0.00D+00
 Leave Link 1102 at Thu Jan 24 15:47:36 2019, MaxMem=    33554432 cpu:         0.0
 (Enter /apl/tryton/gaussian/09/d01/g09/l1110.exe)
 Forming Gx(P) for the SCF density, NAtomX=     7.
 Integral derivatives from FoFJK, PRISM(SPDF).
 Do as many integral derivatives as possible in FoFJK.
 G2DrvN: MDV=      33554272.
 G2DrvN: will do     8 centers at a time, making    1 passes.
 Calling FoFCou, ICntrl=  3107 FMM=F I1Cent=   0 AccDes= 0.00D+00.
 FoFJK:  IHMeth= 1 ICntrl=    3107 DoSepK=F KAlg= 0 I1Cent=   0 FoldK=F
 IRaf=         0 NMat=   1 IRICut=       1 DoRegI=T DoRafI=F ISym2E= 1.
 FoFCou: FMM=F IPFlag=           0 FMFlag=      100000 FMFlg1=           0
         NFxFlg=           0 DoJE=F BraDBF=F KetDBF=F FulRan=T
         wScrn=  0.000000 ICntrl=    3107 IOpCl=  0 I1Cent=           0 NGrid=           0
         NMat0=    1 NMatS0=      1 NMatT0=    0 NMatD0=    1 NMtDS0=    0 NMtDT0=    0
 Petite list used in FoFCou.
 End of G2Drv F.D. properties file   721 does not exist.
 End of G2Drv F.D. properties file   722 does not exist.
 End of G2Drv F.D. properties file   788 does not exist.
 Leave Link 1110 at Thu Jan 24 15:47:49 2019, MaxMem=    33554432 cpu:        13.4
 (Enter /apl/tryton/gaussian/09/d01/g09/l1002.exe)
 Minotr:  Closed shell wavefunction.
          IDoAtm=1111111
          Direct CPHF calculation.
          Differentiating once with respect to electric field.
                with respect to dipole field.
          Differentiating once with respect to nuclear coordinates.
          Using symmetry in CPHF.
          Requested convergence is 1.0D-08 RMS, and 1.0D-07 maximum.
          Secondary convergence is 1.0D-12 RMS, and 1.0D-12 maximum.
          NewPWx=T KeepS1=F KeepF1=F KeepIn=T MapXYZ=F SortEE=F KeepMc=T.
          MDV=      33554249 using IRadAn=       2.
 Generate precomputed XC quadrature information.
 Keep R1 ints in memory in symmetry-blocked form, NReq=27261860.
 FoFCou: FMM=F IPFlag=           0 FMFlag=           0 FMFlg1=           0
         NFxFlg=           0 DoJE=F BraDBF=F KetDBF=F FulRan=T
         wScrn=  0.000000 ICntrl=     600 IOpCl=  0 I1Cent=           0 NGrid=           0
         NMat0=    1 NMatS0=   5995 NMatT0=    0 NMatD0=    1 NMtDS0=    0 NMtDT0=    0
 Petite list used in FoFCou.
          Solving linear equations simultaneously, MaxMat=       0.
          There are    21 degrees of freedom in the 1st order CPHF.  IDoFFX=4 NUNeed=    21.
     21 vectors produced by pass  0 Test12= 5.94D-15 4.76D-09 XBig12= 9.65D+01 6.46D+00.
 AX will form    21 AO Fock derivatives at one time.
     21 vectors produced by pass  1 Test12= 5.94D-15 4.76D-09 XBig12= 4.35D+01 1.93D+00.
     21 vectors produced by pass  2 Test12= 5.94D-15 4.76D-09 XBig12= 4.33D-01 1.30D-01.
     21 vectors produced by pass  3 Test12= 5.94D-15 4.76D-09 XBig12= 3.22D-03 1.17D-02.
     21 vectors produced by pass  4 Test12= 5.94D-15 4.76D-09 XBig12= 4.15D-06 3.84D-04.
     18 vectors produced by pass  5 Test12= 5.94D-15 4.76D-09 XBig12= 3.93D-09 1.18D-05.
      5 vectors produced by pass  6 Test12= 5.94D-15 4.76D-09 XBig12= 9.86D-12 5.96D-07.
      3 vectors produced by pass  7 Test12= 5.94D-15 4.76D-09 XBig12= 3.17D-14 6.52D-08.
      3 vectors produced by pass  8 Test12= 5.94D-15 4.76D-09 XBig12= 4.64D-16 7.77D-09.
      1 vectors produced by pass  9 Test12= 5.94D-15 4.76D-09 XBig12= 4.88D-16 8.71D-09.
 InvSVY:  IOpt=1 It=  1 EMax= 3.55D-15
 Solved reduced A of dimension   135 with    21 vectors.
 FullF1:  Do perturbations    1 to    21.
 Isotropic polarizability for W=    0.000000       39.72 Bohr**3.
 End of Minotr F.D. properties file   721 does not exist.
 End of Minotr F.D. properties file   722 does not exist.
 End of Minotr F.D. properties file   788 does not exist.
 Leave Link 1002 at Thu Jan 24 15:48:18 2019, MaxMem=    33554432 cpu:        28.7
 (Enter /apl/tryton/gaussian/09/d01/g09/l601.exe)
 Copying SCF densities to generalized density rwf, IOpCl= 0 IROHF=0.

 **********************************************************************

            Population analysis using the SCF density.

 **********************************************************************

 Orbital symmetries:
       Occupied  (A') (A') (A') (A') (A') (A') (A') (A') (A") (A')
                 (A') (A") (A')
       Virtual   (A") (A') (A') (A") (A') (A') (A") (A') (A') (A')
                 (A") (A') (A") (A') (A') (A") (A') (A') (A") (A')
                 (A') (A") (A') (A') (A') (A') (A') (A') (A') (A")
                 (A') (A') (A") (A') (A") (A') (A') (A') (A") (A")
                 (A') (A') (A') (A') (A') (A') (A') (A") (A') (A")
                 (A') (A") (A') (A") (A') (A") (A") (A') (A') (A")
                 (A') (A') (A") (A') (A') (A") (A') (A') (A') (A")
                 (A') (A") (A') (A') (A') (A") (A') (A") (A') (A")
                 (A') (A") (A') (A') (A") (A') (A') (A') (A') (A')
                 (A") (A') (A') (A') (A') (A')
 The electronic state is 1-A'.
 Alpha  occ. eigenvalues --  -10.59080 -10.58454 -10.48691 -10.46994  -1.14671
 Alpha  occ. eigenvalues --   -0.98027  -0.94492  -0.71582  -0.70246  -0.67141
 Alpha  occ. eigenvalues --   -0.61223  -0.60679  -0.58270
 Alpha virt. eigenvalues --   -0.41066  -0.41000  -0.37654  -0.21710  -0.16728
 Alpha virt. eigenvalues --   -0.11911  -0.11491  -0.11038  -0.10446  -0.09335
 Alpha virt. eigenvalues --   -0.08247  -0.06907  -0.06344  -0.05576  -0.04022
 Alpha virt. eigenvalues --   -0.02021  -0.01990  -0.00975  -0.00034  -0.00008
 Alpha virt. eigenvalues --    0.00607   0.01886   0.01892   0.04488   0.07058
 Alpha virt. eigenvalues --    0.07922   0.11069   0.14204   0.18625   0.23855
 Alpha virt. eigenvalues --    0.24868   0.30114   0.31560   0.31666   0.35254
 Alpha virt. eigenvalues --    0.36032   0.37437   0.38924   0.39184   0.42226
 Alpha virt. eigenvalues --    0.42459   0.43728   0.45169   0.47738   0.53790
 Alpha virt. eigenvalues --    0.57085   0.65916   0.69576   0.70090   0.81930
 Alpha virt. eigenvalues --    0.96921   0.97975   1.04380   1.06075   1.08644
 Alpha virt. eigenvalues --    1.17546   1.21115   1.26241   1.28222   1.30159
 Alpha virt. eigenvalues --    1.31970   1.42206   1.44556   1.44700   1.57921
 Alpha virt. eigenvalues --    1.66117   1.66585   1.71207   1.78434   1.81840
 Alpha virt. eigenvalues --    1.84546   2.01364   2.08206   2.21498   2.24563
 Alpha virt. eigenvalues --    2.26532   2.28559   2.30108   2.37015   2.38110
 Alpha virt. eigenvalues --    2.50312   2.50618   2.61171   2.64583   2.65280
 Alpha virt. eigenvalues --    2.72896   2.82447   2.99293   3.40704   3.51840
 Alpha virt. eigenvalues --    3.55175   3.74295  22.93565  23.51861  23.62766
 Alpha virt. eigenvalues --   23.90516
          Condensed to atoms (all electrons):
               1          2          3          4          5          6
     1  C    5.233877   0.422710   0.251587   0.136547  -0.061032  -0.008556
     2  C    0.422710   5.144744  -0.051223   0.133426   0.028809  -0.008074
     3  C    0.251587  -0.051223   5.626035  -0.361594   0.013597   0.016109
     4  C    0.136547   0.133426  -0.361594   5.579969   0.354434   0.374785
     5  H   -0.061032   0.028809   0.013597   0.354434   0.459842  -0.018557
     6  H   -0.008556  -0.008074   0.016109   0.374785  -0.018557   0.428225
     7  H   -0.008556  -0.008074   0.016109   0.374785  -0.018557  -0.029133
               7
     1  C   -0.008556
     2  C   -0.008074
     3  C    0.016109
     4  C    0.374785
     5  H   -0.018557
     6  H   -0.029133
     7  H    0.428225
 Mulliken charges:
               1
     1  C    0.033423
     2  C    0.337683
     3  C    0.489381
     4  C   -0.592353
     5  H    0.241465
     6  H    0.245200
     7  H    0.245200
 Sum of Mulliken charges =   1.00000
 Mulliken charges with hydrogens summed into heavy atoms:
               1
     1  C    0.033423
     2  C    0.337683
     3  C    0.489381
     4  C    0.139513
 APT charges:
               1
     1  C   -0.655075
     2  C    0.581748
     3  C    0.556671
     4  C    0.230900
     5  H    0.123849
     6  H    0.080954
     7  H    0.080954
 Sum of APT charges =   1.00000
 APT charges with hydrogens summed into heavy atoms:
               1
     1  C   -0.655075
     2  C    0.581748
     3  C    0.556671
     4  C    0.516657
 Electronic spatial extent (au):  <R**2>=            216.7466
 Charge=              1.0000 electrons
 Dipole moment (field-independent basis, Debye):
    X=             -0.4504    Y=             -1.1138    Z=             -0.0000  Tot=              1.2014
 Quadrupole moment (field-independent basis, Debye-Ang):
   XX=            -20.0100   YY=            -15.3129   ZZ=            -20.6339
   XY=              1.7749   XZ=              0.0000   YZ=              0.0000
 Traceless Quadrupole moment (field-independent basis, Debye-Ang):
   XX=             -1.3577   YY=              3.3394   ZZ=             -1.9817
   XY=              1.7749   XZ=              0.0000   YZ=              0.0000
 Octapole moment (field-independent basis, Debye-Ang**2):
  XXX=             -5.2223  YYY=            -12.2596  ZZZ=             -0.0000  XYY=              1.4443
  XXY=             -3.9636  XXZ=             -0.0000  XZZ=             -2.1574  YZZ=             -3.0556
  YYZ=             -0.0000  XYZ=             -0.0000
 Hexadecapole moment (field-independent basis, Debye-Ang**3):
 XXXX=           -121.5471 YYYY=           -154.4628 ZZZZ=            -26.5883 XXXY=              3.0100
 XXXZ=              0.0000 YYYX=              9.0037 YYYZ=             -0.0000 ZZZX=              0.0000
 ZZZY=              0.0000 XXYY=            -44.2969 XXZZ=            -21.3622 YYZZ=            -29.1897
 XXYZ=              0.0000 YYXZ=              0.0000 ZZXY=              2.9988
 N-N= 8.386337975534D+01 E-N=-5.168309610565D+02  KE= 1.529876854453D+02
 Symmetry A'   KE= 1.485980969823D+02
 Symmetry A"   KE= 4.389588462981D+00
  Exact polarizability:  45.577  -2.437  45.555   0.000   0.000  28.019
 Approx polarizability: 103.281 -16.458  77.204   0.000   0.000  41.113
 No NMR shielding tensors so no spin-rotation constants.
 Leave Link  601 at Thu Jan 24 15:48:18 2019, MaxMem=    33554432 cpu:         0.1
 (Enter /apl/tryton/gaussian/09/d01/g09/l701.exe)
 Compute integral second derivatives.
 ... and contract with generalized density number  0.
 Leave Link  701 at Thu Jan 24 15:48:18 2019, MaxMem=    33554432 cpu:         0.2
 (Enter /apl/tryton/gaussian/09/d01/g09/l702.exe)
 L702 exits ... SP integral derivatives will be done elsewhere.
 Leave Link  702 at Thu Jan 24 15:48:18 2019, MaxMem=    33554432 cpu:         0.0
 (Enter /apl/tryton/gaussian/09/d01/g09/l703.exe)
 Compute integral second derivatives, UseDBF=F ICtDFT=           0.
 Integral derivatives from FoFJK, PRISM(SPDF).
 Calling FoFJK, ICntrl=    100127 FMM=F ISym2X=1 I1Cent= 0 IOpClX= 0 NMat=1 NMatS=1 NMatT=0.
 FoFJK:  IHMeth= 1 ICntrl=  100127 DoSepK=F KAlg= 0 I1Cent=   0 FoldK=F
 IRaf=         0 NMat=   1 IRICut=       1 DoRegI=T DoRafI=F ISym2E= 1.
 FoFCou: FMM=F IPFlag=           0 FMFlag=      100000 FMFlg1=         800
         NFxFlg=           0 DoJE=F BraDBF=F KetDBF=F FulRan=T
         wScrn=  0.000000 ICntrl=  100127 IOpCl=  0 I1Cent=           0 NGrid=           0
         NMat0=    1 NMatS0=      1 NMatT0=    0 NMatD0=    1 NMtDS0=    0 NMtDT0=    0
 Petite list used in FoFCou.
 Leave Link  703 at Thu Jan 24 15:48:36 2019, MaxMem=    33554432 cpu:        17.7
 (Enter /apl/tryton/gaussian/09/d01/g09/l716.exe)
 Dipole        =-1.77185120D-01-4.38217277D-01 1.01264483D-16
 Polarizability= 4.55772663D+01-2.43672536D+00 4.55546943D+01
                 7.28814211D-09 2.05994446D-08 2.80187931D+01
 Full mass-weighted force constant matrix:
 Low frequencies ---   -5.1155    0.0007    0.0010    0.0011    4.9939    7.6872
 Low frequencies ---  122.1490  164.5505  269.6252
 Diagonal vibrational polarizability:
        5.4634552      15.1721722       1.4252843
 Harmonic frequencies (cm**-1), IR intensities (KM/Mole), Raman scattering
 activities (A**4/AMU), depolarization ratios for plane and unpolarized
 incident light, reduced masses (AMU), force constants (mDyne/A),
 and normal coordinates:
                      1                      2                      3
                     A'                     A"                     A'
 Frequencies --    122.1473               164.5498               269.6251
 Red. masses --      4.9999                 1.1639                 9.1994
 Frc consts  --      0.0440                 0.0186                 0.3940
 IR Inten    --      4.9047                 0.1633                 6.1890
  Atom  AN      X      Y      Z        X      Y      Z        X      Y      Z
     1   6     0.23  -0.07   0.00    -0.00   0.00   0.07    -0.20  -0.27  -0.00
     2   6     0.21   0.33  -0.00    -0.00  -0.00   0.05    -0.22   0.45   0.00
     3   6    -0.05  -0.26  -0.00    -0.00   0.00  -0.09     0.47   0.23   0.00
     4   6    -0.29  -0.01  -0.00     0.00  -0.00  -0.02    -0.03  -0.33   0.00
     5   1    -0.46  -0.24  -0.00     0.00   0.00  -0.62    -0.02  -0.26  -0.00
     6   1    -0.39   0.19  -0.02     0.47  -0.16   0.24    -0.06  -0.30  -0.01
     7   1    -0.39   0.19   0.02    -0.47   0.16   0.24    -0.06  -0.30   0.01
                      4                      5                      6
                     A"                     A'                     A"
 Frequencies --    301.4574               678.4764               976.7730
 Red. masses --      5.3340                 9.0441                 1.2103
 Frc consts  --      0.2856                 2.4529                 0.6803
 IR Inten    --      2.7718                22.7807                 5.9178
  Atom  AN      X      Y      Z        X      Y      Z        X      Y      Z
     1   6    -0.00  -0.00   0.55     0.15   0.43  -0.00    -0.00  -0.00   0.06
     2   6    -0.00   0.00  -0.22     0.15  -0.03   0.00    -0.00  -0.00   0.00
     3   6     0.00   0.00  -0.20    -0.20   0.28   0.00    -0.00   0.00   0.00
     4   6     0.00  -0.00  -0.08    -0.09  -0.61   0.00     0.00  -0.00  -0.12
     5   1     0.00  -0.00   0.16     0.04  -0.36   0.00    -0.00  -0.00   0.30
     6   1    -0.35  -0.24  -0.33    -0.11  -0.23   0.05     0.25   0.60   0.15
     7   1     0.35   0.24  -0.33    -0.11  -0.23  -0.05    -0.25  -0.60   0.15
                      7                      8                      9
                     A'                     A'                     A'
 Frequencies --   1010.4218              1210.0567              1411.1301
 Red. masses --      1.2009                 2.9809                 1.4940
 Frc consts  --      0.7224                 2.5717                 1.7528
 IR Inten    --     22.9600                83.7052                 9.3538
  Atom  AN      X      Y      Z        X      Y      Z        X      Y      Z
     1   6     0.00  -0.01   0.00    -0.10  -0.19  -0.00     0.07   0.11  -0.00
     2   6     0.06   0.01  -0.00     0.24   0.01   0.00    -0.11  -0.00   0.00
     3   6     0.01   0.00  -0.00    -0.15   0.20   0.00     0.05  -0.06  -0.00
     4   6    -0.11   0.02  -0.00     0.06   0.09  -0.00     0.05   0.07  -0.00
     5   1     0.27   0.63   0.00    -0.33  -0.57   0.00    -0.20  -0.34   0.00
     6   1     0.14  -0.49   0.05    -0.11  -0.38  -0.18    -0.25  -0.51  -0.28
     7   1     0.14  -0.49  -0.05    -0.11  -0.38   0.18    -0.25  -0.51   0.28
                     10                     11                     12
                     A'                     A"                     A'
 Frequencies --   1422.0944              1447.5207              1685.5277
 Red. masses --      1.0773                 1.0474                10.9631
 Frc consts  --      1.2836                 1.2931                18.3508
 IR Inten    --     26.0497                16.7375               572.1685
  Atom  AN      X      Y      Z        X      Y      Z        X      Y      Z
     1   6    -0.02  -0.03  -0.00    -0.00  -0.00  -0.01     0.65  -0.38  -0.00
     2   6     0.03  -0.01   0.00     0.00   0.00   0.00    -0.39  -0.02   0.00
     3   6    -0.01   0.01  -0.00    -0.00   0.00  -0.00    -0.25   0.35   0.00
     4   6     0.06  -0.03  -0.00    -0.00  -0.00  -0.06    -0.02   0.02   0.00
     5   1     0.31   0.42   0.00     0.00   0.00   0.72     0.11   0.28   0.00
     6   1    -0.50   0.11  -0.31     0.31  -0.38   0.07     0.03   0.01   0.02
     7   1    -0.50   0.11   0.31    -0.31   0.38   0.07     0.03   0.01  -0.02
                     13                     14                     15
                     A'                     A'                     A"
 Frequencies --   3029.5593              3128.0959              3183.1488
 Red. masses --      1.0289                 1.1001                 1.1132
 Frc consts  --      5.5637                 6.3421                 6.6457
 IR Inten    --     27.1269                18.2452                22.7013
  Atom  AN      X      Y      Z        X      Y      Z        X      Y      Z
     1   6     0.00   0.00   0.00    -0.00   0.00  -0.00    -0.00  -0.00   0.00
     2   6    -0.00   0.00   0.00     0.00  -0.00   0.00     0.00  -0.00  -0.00
     3   6    -0.00   0.00  -0.00    -0.00  -0.00  -0.00    -0.00   0.00  -0.00
     4   6    -0.01   0.04  -0.00     0.09  -0.01  -0.00     0.00   0.00   0.10
     5   1     0.64  -0.38  -0.00    -0.55   0.34  -0.00    -0.00   0.00   0.02
     6   1    -0.25  -0.07   0.39    -0.26  -0.09   0.46     0.36   0.11  -0.59
     7   1    -0.25  -0.07  -0.39    -0.26  -0.09  -0.46    -0.36  -0.11  -0.59

 -------------------
 - Thermochemistry -
 -------------------
 Temperature   298.150 Kelvin.  Pressure   1.00000 Atm.
 Atom     1 has atomic number  6 and mass  12.00000
 Atom     2 has atomic number  6 and mass  12.00000
 Atom     3 has atomic number  6 and mass  12.00000
 Atom     4 has atomic number  6 and mass  12.00000
 Atom     5 has atomic number  1 and mass   1.00783
 Atom     6 has atomic number  1 and mass   1.00783
 Atom     7 has atomic number  1 and mass   1.00783
 Molecular mass:    51.02348 amu.
 Principal axes and moments of inertia in atomic units:
                           1         2         3
     Eigenvalues --   123.29568 191.79871 302.91552
           X           -0.03918   0.99923   0.00000
           Y            0.99923   0.03918   0.00000
           Z           -0.00000  -0.00000   1.00000
 This molecule is an asymmetric top.
 Rotational symmetry number  1.
 Rotational temperatures (Kelvin)      0.70249     0.45159     0.28593
 Rotational constants (GHZ):          14.63751     9.40956     5.95790
 Zero-point vibrational energy     119869.3 (Joules/Mol)
                                   28.64945 (Kcal/Mol)
 Warning -- explicit consideration of   4 degrees of freedom as
           vibrations may cause significant error
 Vibrational temperatures:    175.74   236.75   387.93   433.73   976.18
          (Kelvin)           1405.36  1453.77  1741.00  2030.30  2046.07
                             2082.66  2425.10  4358.85  4500.63  4579.84
 
 Zero-point correction=                           0.045656 (Hartree/Particle)
 Thermal correction to Energy=                    0.050913
 Thermal correction to Enthalpy=                  0.051858
 Thermal correction to Gibbs Free Energy=         0.018414
 Sum of electronic and zero-point Energies=           -153.586727
 Sum of electronic and thermal Energies=              -153.581470
 Sum of electronic and thermal Enthalpies=            -153.580526
 Sum of electronic and thermal Free Energies=         -153.613969
 
                     E (Thermal)             CV                S
                      KCal/Mol        Cal/Mol-Kelvin    Cal/Mol-Kelvin
 Total                   31.949             15.346             70.387
 Electronic               0.000              0.000              0.000
 Translational            0.889              2.981             37.712
 Rotational               0.889              2.981             23.486
 Vibrational             30.171              9.384              9.189
 Vibration     1          0.610              1.931              3.066
 Vibration     2          0.623              1.886              2.497
 Vibration     3          0.674              1.729              1.599
 Vibration     4          0.693              1.671              1.409
                       Q            Log10(Q)             Ln(Q)
 Total Bot       0.338882D-08         -8.469952        -19.502785
 Total V=0       0.339015D+13         12.530219         28.851894
 Vib (Bot)       0.780789D-20        -20.107466        -46.299152
 Vib (Bot)    1  0.167220D+01          0.223289          0.514141
 Vib (Bot)    2  0.122686D+01          0.088794          0.204456
 Vib (Bot)    3  0.716916D+00         -0.144532         -0.332797
 Vib (Bot)    4  0.630340D+00         -0.200425         -0.461497
 Vib (V=0)       0.781096D+01          0.892704          2.055528
 Vib (V=0)    1  0.224535D+01          0.351285          0.808863
 Vib (V=0)    2  0.182483D+01          0.261223          0.601488
 Vib (V=0)    3  0.137405D+01          0.138003          0.317764
 Vib (V=0)    4  0.130457D+01          0.115466          0.265871
 Electronic      0.100000D+01          0.000000          0.000000
 Translational   0.143255D+08          7.156110         16.477553
 Rotational      0.302973D+05          4.481404         10.318814
 
                                                                 min
                                                             IR Spectrum
 
     3  3   3                                                    1        111       1       1                                        
     1  1   0                                                    6        444       2       0 9          6              3 2   1 1    
     8  2   3                                                    8        421       1       1 7          7              0 7   6 2    
     3  8   0                                                    6        821       0       0 7          8              1 0   5 2    
 
     X  X   X                                                    X        XXX       X       X X          X              X X   X X    
                                                                 X                  X                                                
                                                                 X                  X                                                
                                                                 X                                                                   
                                                                 X                                                                   
                                                                 X                                                                   
                                                                 X                                                                   
                                                                 X                                                                   
                                                                 X                                                                   
                                                                 X                                                                   
                                                                 X                                                                   
                                                                 X                                                                   
                                                                 X                                                                   
                                                                 X                                                                   
                                                                 X                                                                   
                                                                 X                                                                   
                                                                 X                                                                   
                                                                 X                                                                   
                                                                 X                                                                   
                                                                 X                                                                   
 
 ***** Axes restored to original set *****
 -------------------------------------------------------------------
 Center     Atomic                   Forces (Hartrees/Bohr)
 Number     Number              X              Y              Z
 -------------------------------------------------------------------
      1        6           0.000068783   -0.000018534    0.000000008
      2        6          -0.000040543   -0.000010271    0.000000003
      3        6          -0.000023727    0.000024488   -0.000000009
      4        6           0.000015838   -0.000016479    0.000000006
      5        1          -0.000008054   -0.000006315    0.000000002
      6        1          -0.000006149    0.000013553   -0.000006643
      7        1          -0.000006149    0.000013558    0.000006633
 -------------------------------------------------------------------
 Cartesian Forces:  Max     0.000068783 RMS     0.000020868
 Z-matrix is all fixed cartesians, so copy forces.
 Force constants in Cartesian coordinates: 
                1             2             3             4             5 
      1  0.447573D+00
      2  0.210333D+00  0.677385D+00
      3 -0.690985D-04 -0.226771D-03  0.474506D-01
      4 -0.758356D-02  0.289962D-01 -0.105877D-04  0.127628D-01
      5 -0.169857D-02 -0.481030D+00  0.172752D-03 -0.223178D-01  0.503386D+00
      6  0.000000D+00  0.173368D-03 -0.982447D-02  0.833967D-05 -0.183204D-03
      7 -0.305399D+00 -0.239746D+00  0.819890D-04  0.371979D-03 -0.120328D-02
      8 -0.229012D+00 -0.178483D+00  0.571228D-04 -0.104535D-01 -0.163801D-01
      9  0.780530D-04  0.569075D-04 -0.101729D-01  0.376738D-05  0.732029D-05
     10 -0.618687D-01 -0.226948D-01  0.757543D-05  0.490939D-02  0.399163D-01
     11 -0.316023D-02 -0.291307D-01  0.157319D-05  0.158625D-01 -0.698089D-02
     12  0.000000D+00  0.118129D-05 -0.246674D-01 -0.564863D-05  0.209161D-05
     13 -0.250882D-01 -0.824024D-02  0.255393D-05 -0.650689D-02 -0.500258D-02
     14  0.141734D-01  0.106516D-01 -0.427404D-05 -0.562708D-02  0.156830D-03
     15 -0.566489D-05 -0.472383D-05 -0.177987D-02  0.192110D-05  0.000000D+00
     16 -0.238166D-01  0.156697D-01 -0.177644D-01 -0.197682D-02 -0.484734D-02
     17  0.468366D-02  0.304854D-03  0.143447D-02 -0.323089D-02  0.425104D-03
     18  0.299803D-02  0.147411D-02 -0.504349D-03 -0.188458D-02  0.962843D-03
     19 -0.238172D-01  0.156828D-01  0.177520D-01 -0.197693D-02 -0.484674D-02
     20  0.468152D-02  0.302721D-03 -0.143488D-02 -0.322947D-02  0.423723D-03
     21 -0.300240D-02 -0.147408D-02 -0.501624D-03  0.188678D-02 -0.961860D-03
                6             7             8             9            10 
      6  0.499271D-02
      7  0.000000D+00  0.326766D+00
      8  0.713475D-05  0.242532D+00  0.199591D+00
      9  0.364897D-02 -0.824718D-04 -0.665985D-04  0.469945D-02
     10 -0.144690D-04 -0.260417D-01 -0.122334D-01  0.395766D-05  0.267871D+00
     11  0.160899D-05  0.275998D-02 -0.493963D-02  0.197174D-05  0.586346D-01
     12 -0.346111D-02 -0.154035D-05  0.167092D-05  0.286599D-03 -0.276643D-04
     13  0.169211D-05  0.788370D-03 -0.542865D-03  0.000000D+00 -0.104171D+00
     14  0.000000D+00 -0.211069D-02  0.695904D-03  0.000000D+00 -0.114165D+00
     15  0.584307D-03  0.000000D+00  0.000000D+00 -0.200652D-03  0.406594D-04
     16 -0.757522D-03  0.175715D-02  0.485489D-02 -0.120183D-02 -0.403482D-01
     17  0.921386D-03 -0.111573D-02 -0.242627D-03 -0.351346D-03  0.252549D-01
     18  0.202905D-02 -0.320229D-03 -0.192098D-02  0.870050D-03 -0.379438D-01
     19  0.760916D-03  0.175709D-02  0.485569D-02  0.119830D-02 -0.403513D-01
     20 -0.920338D-03 -0.111551D-02 -0.240960D-03  0.352116D-03  0.252876D-01
     21  0.203054D-02  0.321083D-03  0.192198D-02  0.868444D-03  0.379337D-01
               11            12            13            14            15 
     11  0.532029D+00
     12  0.169556D-04  0.575059D+00
     13 -0.118679D+00  0.423145D-04  0.124411D+00
     14 -0.249061D+00  0.728392D-04  0.123292D+00  0.261716D+00
     15  0.727486D-04 -0.441744D-01 -0.435662D-04 -0.779166D-04  0.424829D-01
     16  0.222736D-01 -0.408911D-01  0.528272D-02 -0.777609D-02  0.143488D-01
     17 -0.120870D+00  0.121028D+00  0.458572D-02 -0.120726D-01  0.211677D-01
     18  0.119851D+00 -0.251611D+00  0.850663D-04 -0.253260D-02  0.153730D-02
     19  0.223084D-01  0.408833D-01  0.528330D-02 -0.778671D-02 -0.143429D-01
     20 -0.121046D+00 -0.121123D+00  0.458651D-02 -0.120862D-01 -0.211575D-01
     21 -0.119946D+00 -0.251432D+00 -0.882797D-04  0.254227D-02  0.155038D-02
               16            17            18            19            20 
     16  0.561829D-01
     17 -0.250262D-01  0.121592D+00
     18  0.416636D-01 -0.131009D+00  0.260574D+00
     19  0.291884D-02 -0.515143D-02 -0.459808D-02  0.561863D-01
     20 -0.514859D-02  0.108633D-01  0.131741D-01 -0.250620D-01  0.121784D+00
     21  0.460250D-02 -0.131918D-01 -0.128945D-01 -0.416534D-01  0.131110D+00
               21 
     21  0.260378D+00
 Leave Link  716 at Thu Jan 24 15:48:36 2019, MaxMem=    33554432 cpu:         0.0
 (Enter /apl/tryton/gaussian/09/d01/g09/l103.exe)

 GradGradGradGradGradGradGradGradGradGradGradGradGradGradGradGradGradGrad
 Berny optimization.
 Search for a local minimum.
 Step number   1 out of a maximum of    2
 All quantities printed in internal units (Hartrees-Bohrs-Radians)
 Second derivative matrix not updated -- analytic derivatives used.
 ITU=  0
     Eigenvalues ---    0.00179   0.00405   0.02489   0.02562   0.05932
     Eigenvalues ---    0.07922   0.09894   0.10237   0.11135   0.18871
     Eigenvalues ---    0.45374   0.73730   0.75100   0.76871   1.28592
 Angle between quadratic step and forces=  47.86 degrees.
 ClnCor:  largest displacement from symmetrization is 4.91D-12 for atom     7.
 Linear search not attempted -- first point.
 ClnCor:  largest displacement from symmetrization is 3.37D-15 for atom     7.
 TrRot= -0.000112  0.000055 -0.000000  0.000011  0.000000  0.000011
 Variable       Old X    -DE/DX   Delta X   Delta X   Delta X     New X
                                 (Linear)    (Quad)   (Total)
    X1       -0.57286   0.00007   0.00000   0.00073   0.00062  -0.57224
    Y1       -0.00375  -0.00002   0.00000  -0.00018  -0.00014  -0.00389
    Z1       -0.00001   0.00000   0.00000   0.00000   0.00000  -0.00001
    X2       -0.74073  -0.00004   0.00000  -0.00157  -0.00174  -0.74246
    Y2        2.53768  -0.00001   0.00000  -0.00026  -0.00022   2.53746
    Z2       -0.00094   0.00000   0.00000   0.00000   0.00000  -0.00094
    X3       -2.58501  -0.00002   0.00000  -0.00026  -0.00034  -2.58534
    Y3       -1.55580   0.00002   0.00000   0.00104   0.00104  -1.55476
    Z3        0.00052  -0.00000   0.00000  -0.00000  -0.00000   0.00052
    X4        2.39972   0.00002   0.00000   0.00058   0.00048   2.40020
    Y4       -0.60087  -0.00002   0.00000  -0.00023  -0.00012  -0.60099
    Z4        0.00027   0.00000   0.00000   0.00000   0.00000   0.00027
    X5        3.44420  -0.00001   0.00000   0.00060   0.00046   3.44466
    Y5        1.18502  -0.00001   0.00000  -0.00035  -0.00022   1.18480
    Z5       -0.00036   0.00000   0.00000   0.00000   0.00000  -0.00036
    X6        2.75515  -0.00001   0.00000   0.00033   0.00025   2.75540
    Y6       -1.64541   0.00001   0.00000  -0.00029  -0.00017  -1.64558
    Z6        1.73879  -0.00001   0.00000  -0.00003  -0.00003   1.73876
    X7        2.75522  -0.00001   0.00000   0.00033   0.00025   2.75547
    Y7       -1.64669   0.00001   0.00000  -0.00029  -0.00017  -1.64686
    Z7       -1.73746   0.00001   0.00000   0.00003   0.00003  -1.73744
         Item               Value     Threshold  Converged?
 Maximum Force            0.000069     0.000450     YES
 RMS     Force            0.000021     0.000300     YES
 Maximum Displacement     0.001735     0.001800     YES
 RMS     Displacement     0.000505     0.001200     YES
 Predicted change in Energy=-7.603379D-08
 Optimization completed.
    -- Stationary point found.
 GradGradGradGradGradGradGradGradGradGradGradGradGradGradGradGradGradGrad

 Leave Link  103 at Thu Jan 24 15:48:36 2019, MaxMem=    33554432 cpu:         0.0
 (Enter /apl/tryton/gaussian/09/d01/g09/l9999.exe)
 1\1\ CITASK-GV0235\Freq\RB3LYP\6-311++G(d,p)\C4H3(1+)\EERD\24-Jan-2019
 \0\\#p b3lyp/6-311++g(d,p) freq\\min\\1,1\C,-0.303147,-0.001985996,-0.
 000003933\C,-0.391975999,1.342881989,-0.0004988649\C,-1.367926998,-0.8
 23294036,0.000275868\C,1.269877998,-0.317965968,0.000143496\H,1.822591
 997,0.627087054,-0.0001919554\H,1.457961043,-0.870715198,0.920126092\H
 ,1.4579979531,-0.8713897433,-0.919425929\\Version=ES64L-G09RevD.01\Sta
 te=1-A'\HF=-153.6323832\RMSD=7.714e-09\RMSF=2.087e-05\ZeroPoint=0.0456
 558\Thermal=0.0509134\Dipole=0.4411163,-0.1698393,0.0000711\DipoleDeri
 v=-1.0013204,-0.5547134,0.000175,-0.8237599,-1.376915,0.0006398,0.0002
 737,0.0006452,0.4130091,0.2130529,-0.1159304,0.0000446,-0.0936045,1.42
 17817,-0.0004827,0.0000364,-0.0004832,0.1104087,0.9152373,0.7973384,-0
 .0002762,0.7625507,0.6460237,-0.0001817,-0.0002634,-0.000181,0.1087513
 ,0.7153101,-0.1969955,0.0000873,-0.0004418,0.0137703,-0.0000184,0.0000
 152,-0.0000223,-0.0363801,0.1623141,0.0186306,-0.0000063,0.0837304,0.0
 72367,0.0000253,-0.0000302,0.000024,0.1368651,-0.0023,0.0258447,0.0234
 495,0.0358096,0.11147,0.0050506,0.1286984,-0.0488471,0.1336921,-0.0022
 939,0.0258255,-0.0234739,0.0357155,0.1115021,-0.0050328,-0.1287301,0.0
 488644,0.1336538\Polar=45.4732932,2.434988,45.6586651,-0.0005427,-0.00
 64195,28.0187955\PG=CS [SG(C4H1),X(H2)]\NImag=0\\0.44757344,0.21033276
 ,0.67738536,-0.00006910,-0.00022677,0.04745057,-0.00758356,0.02899622,
 -0.00001059,0.01276284,-0.00169857,-0.48103039,0.00017275,-0.02231782,
 0.50338572,0.00000067,0.00017337,-0.00982447,0.00000834,-0.00018320,0.
 00499271,-0.30539910,-0.23974646,0.00008199,0.00037198,-0.00120328,0.0
 0000038,0.32676621,-0.22901250,-0.17848342,0.00005712,-0.01045349,-0.0
 1638009,0.00000713,0.24253170,0.19959083,0.00007805,0.00005691,-0.0101
 7287,0.00000377,0.00000732,0.00364897,-0.00008247,-0.00006660,0.004699
 45,-0.06186873,-0.02269481,0.00000758,0.00490939,0.03991633,-0.0000144
 7,-0.02604171,-0.01223344,0.00000396,0.26787126,-0.00316023,-0.0291306
 8,0.00000157,0.01586252,-0.00698089,0.00000161,0.00275998,-0.00493963,
 0.00000197,0.05863456,0.53202853,0.00000041,0.00000118,-0.02466739,-0.
 00000565,0.00000209,-0.00346111,-0.00000154,0.00000167,0.00028660,-0.0
 0002766,0.00001696,0.57505936,-0.02508817,-0.00824024,0.00000255,-0.00
 650689,-0.00500258,0.00000169,0.00078837,-0.00054287,0.00000022,-0.104
 17068,-0.11867882,0.00004231,0.12441136,0.01417335,0.01065156,-0.00000
 427,-0.00562708,0.00015683,0.00000004,-0.00211069,0.00069590,-0.000000
 37,-0.11416506,-0.24906124,0.00007284,0.12329228,0.26171570,-0.0000056
 6,-0.00000472,-0.00177987,0.00000192,0.00000006,0.00058431,0.00000079,
 -0.00000034,-0.00020065,0.00004066,0.00007275,-0.04417436,-0.00004357,
 -0.00007792,0.04248290,-0.02381664,0.01566973,-0.01776439,-0.00197682,
 -0.00484734,-0.00075752,0.00175715,0.00485489,-0.00120183,-0.04034818,
 0.02227360,-0.04089113,0.00528272,-0.00777609,0.01434878,0.05618294,0.
 00468366,0.00030485,0.00143447,-0.00323089,0.00042510,0.00092139,-0.00
 111573,-0.00024263,-0.00035135,0.02525487,-0.12086969,0.12102840,0.004
 58572,-0.01207255,0.02116772,-0.02502621,0.12159164,0.00299803,0.00147
 411,-0.00050435,-0.00188458,0.00096284,0.00202905,-0.00032023,-0.00192
 098,0.00087005,-0.03794380,0.11985133,-0.25161149,0.00008507,-0.002532
 60,0.00153730,0.04166359,-0.13100886,0.26057393,-0.02381723,0.01568281
 ,0.01775196,-0.00197693,-0.00484674,0.00076092,0.00175709,0.00485569,0
 .00119830,-0.04035134,0.02230840,0.04088325,0.00528330,-0.00778671,-0.
 01434293,0.00291884,-0.00515143,-0.00459808,0.05618628,0.00468152,0.00
 030272,-0.00143488,-0.00322947,0.00042372,-0.00092034,-0.00111551,-0.0
 0024096,0.00035212,0.02528755,-0.12104641,-0.12112314,0.00458651,-0.01
 208621,-0.02115755,-0.00514859,0.01086327,0.01317414,-0.02506202,0.121
 78387,-0.00300240,-0.00147408,-0.00050162,0.00188678,-0.00096186,0.002
 03054,0.00032108,0.00192198,0.00086844,0.03793374,-0.11994619,-0.25143
 160,-0.00008828,0.00254227,0.00155038,0.00460250,-0.01319177,-0.012894
 49,-0.04165342,0.13110964,0.26037836\\-0.00006878,0.00001853,0.,0.0000
 4054,0.00001027,0.,0.00002373,-0.00002449,0.,-0.00001584,0.00001648,0.
 ,0.00000805,0.00000632,0.,0.00000615,-0.00001355,0.00000664,0.00000615
 ,-0.00001356,-0.00000663\\\@


 REFRAIN FROM ILLUSIONS, INSIST ON WORK AND NOT WORDS,
 PATIENTLY SEEK DIVINE AND SCIENTIFIC TRUTH.
 LAST WORDS OF MARIA MENDELEEVA TO HER SON DMITRI, C. 1850
 Job cpu time:       0 days  0 hours  1 minutes 10.6 seconds.
 File lengths (MBytes):  RWF=     11 Int=      0 D2E=      0 Chk=      2 Scr=      1
 Normal termination of Gaussian 09 at Thu Jan 24 15:48:36 2019.
