 Entering Gaussian System, Link 0=g09
 Initial command:
 /apl/tryton/gaussian/09/d01/g09/l1.exe "/users/work/eerd/M3C-outputs/5/Gau-15539.inp" -scrdir="/users/work/eerd/M3C-outputs/5/"
 Entering Link 1 = /apl/tryton/gaussian/09/d01/g09/l1.exe PID=     15540.
  
 Copyright (c) 1988,1990,1992,1993,1995,1998,2003,2009,2013,
            Gaussian, Inc.  All Rights Reserved.
  
 This is part of the Gaussian(R) 09 program.  It is based on
 the Gaussian(R) 03 system (copyright 2003, Gaussian, Inc.),
 the Gaussian(R) 98 system (copyright 1998, Gaussian, Inc.),
 the Gaussian(R) 94 system (copyright 1995, Gaussian, Inc.),
 the Gaussian 92(TM) system (copyright 1992, Gaussian, Inc.),
 the Gaussian 90(TM) system (copyright 1990, Gaussian, Inc.),
 the Gaussian 88(TM) system (copyright 1988, Gaussian, Inc.),
 the Gaussian 86(TM) system (copyright 1986, Carnegie Mellon
 University), and the Gaussian 82(TM) system (copyright 1983,
 Carnegie Mellon University). Gaussian is a federally registered
 trademark of Gaussian, Inc.
  
 This software contains proprietary and confidential information,
 including trade secrets, belonging to Gaussian, Inc.
  
 This software is provided under written license and may be
 used, copied, transmitted, or stored only in accord with that
 written license.
  
 The following legend is applicable only to US Government
 contracts under FAR:
  
                    RESTRICTED RIGHTS LEGEND
  
 Use, reproduction and disclosure by the US Government is
 subject to restrictions as set forth in subparagraphs (a)
 and (c) of the Commercial Computer Software - Restricted
 Rights clause in FAR 52.227-19.
  
 Gaussian, Inc.
 340 Quinnipiac St., Bldg. 40, Wallingford CT 06492
  
  
 ---------------------------------------------------------------
 Warning -- This program may not be used in any manner that
 competes with the business of Gaussian, Inc. or will provide
 assistance to any competitor of Gaussian, Inc.  The licensee
 of this program is prohibited from giving any competitor of
 Gaussian, Inc. access to this program.  By using this program,
 the user acknowledges that Gaussian, Inc. is engaged in the
 business of creating and licensing software in the field of
 computational chemistry and represents and warrants to the
 licensee that it is not a competitor of Gaussian, Inc. and that
 it will not use this program in any manner prohibited above.
 ---------------------------------------------------------------
  

 Cite this work as:
 Gaussian 09, Revision D.01,
 M. J. Frisch, G. W. Trucks, H. B. Schlegel, G. E. Scuseria, 
 M. A. Robb, J. R. Cheeseman, G. Scalmani, V. Barone, B. Mennucci, 
 G. A. Petersson, H. Nakatsuji, M. Caricato, X. Li, H. P. Hratchian, 
 A. F. Izmaylov, J. Bloino, G. Zheng, J. L. Sonnenberg, M. Hada, 
 M. Ehara, K. Toyota, R. Fukuda, J. Hasegawa, M. Ishida, T. Nakajima, 
 Y. Honda, O. Kitao, H. Nakai, T. Vreven, J. A. Montgomery, Jr., 
 J. E. Peralta, F. Ogliaro, M. Bearpark, J. J. Heyd, E. Brothers, 
 K. N. Kudin, V. N. Staroverov, T. Keith, R. Kobayashi, J. Normand, 
 K. Raghavachari, A. Rendell, J. C. Burant, S. S. Iyengar, J. Tomasi, 
 M. Cossi, N. Rega, J. M. Millam, M. Klene, J. E. Knox, J. B. Cross, 
 V. Bakken, C. Adamo, J. Jaramillo, R. Gomperts, R. E. Stratmann, 
 O. Yazyev, A. J. Austin, R. Cammi, C. Pomelli, J. W. Ochterski, 
 R. L. Martin, K. Morokuma, V. G. Zakrzewski, G. A. Voth, 
 P. Salvador, J. J. Dannenberg, S. Dapprich, A. D. Daniels, 
 O. Farkas, J. B. Foresman, J. V. Ortiz, J. Cioslowski, 
 and D. J. Fox, Gaussian, Inc., Wallingford CT, 2013.
 
 ******************************************
 Gaussian 09:  ES64L-G09RevD.01 24-Apr-2013
                 4-Mar-2018 
 ******************************************
 ---------------------------
 #p b3lyp/6-311++g(d,p) freq
 ---------------------------
 1/10=4,30=1,38=1/1,3;
 2/12=2,17=6,18=5,40=1/2;
 3/5=4,6=6,7=1111,11=2,16=1,25=1,30=1,71=2,74=-5,140=1/1,2,3;
 4//1;
 5/5=2,38=5,98=1/2;
 8/6=4,10=90,11=11/1;
 11/6=1,8=1,9=11,15=111,16=1/1,2,10;
 10/6=1/2;
 6/7=2,8=2,9=2,10=2,18=1,28=1/1;
 7/8=1,10=1,25=1/1,2,3,16;
 1/10=4,30=1/3;
 99//99;
 Leave Link    1 at Sun Mar  4 21:13:00 2018, MaxMem=           0 cpu:         0.0
 (Enter /apl/tryton/gaussian/09/d01/g09/l101.exe)
 ---
 min
 ---
 Symbolic Z-matrix:
 Charge =  0 Multiplicity = 2
 C                    -0.44422  -0.30807  -0.74193 
 H                     0.97711   0.82592  -0.12209 
 H                    -1.02972   0.53303  -1.09373 
 H                    -0.88383  -1.28092  -0.58201 
 O                     0.66411  -0.07248   0.02188 
 
 NAtoms=      5 NQM=        5 NQMF=       0 NMMI=      0 NMMIF=      0
                NMic=       0 NMicF=      0.
                    Isotopes and Nuclear Properties:
 (Nuclear quadrupole moments (NQMom) in fm**2, nuclear magnetic moments (NMagM)
  in nuclear magnetons)

  Atom         1           2           3           4           5
 IAtWgt=          12           1           1           1          16
 AtmWgt=  12.0000000   1.0078250   1.0078250   1.0078250  15.9949146
 NucSpn=           0           1           1           1           0
 AtZEff=   0.0000000   0.0000000   0.0000000   0.0000000   0.0000000
 NQMom=    0.0000000   0.0000000   0.0000000   0.0000000   0.0000000
 NMagM=    0.0000000   2.7928460   2.7928460   2.7928460   0.0000000
 AtZNuc=   6.0000000   1.0000000   1.0000000   1.0000000   8.0000000
 Leave Link  101 at Sun Mar  4 21:13:00 2018, MaxMem=    33554432 cpu:         0.1
 (Enter /apl/tryton/gaussian/09/d01/g09/l103.exe)

 GradGradGradGradGradGradGradGradGradGradGradGradGradGradGradGradGradGrad
 Berny optimization.
 Initialization pass.
 Trust Radius=3.00D-01 FncErr=1.00D-07 GrdErr=1.00D-07
 Number of steps in this run=      2 maximum allowed number of steps=      2.
 GradGradGradGradGradGradGradGradGradGradGradGradGradGradGradGradGradGrad

 Leave Link  103 at Sun Mar  4 21:13:00 2018, MaxMem=    33554432 cpu:         0.0
 (Enter /apl/tryton/gaussian/09/d01/g09/l202.exe)
                          Input orientation:                          
 ---------------------------------------------------------------------
 Center     Atomic      Atomic             Coordinates (Angstroms)
 Number     Number       Type             X           Y           Z
 ---------------------------------------------------------------------
      1          6           0       -0.444218   -0.308069   -0.741930
      2          1           0        0.977111    0.825916   -0.122094
      3          1           0       -1.029720    0.533030   -1.093732
      4          1           0       -0.883833   -1.280923   -0.582011
      5          8           0        0.664107   -0.072478    0.021879
 ---------------------------------------------------------------------
                    Distance matrix (angstroms):
                    1          2          3          4          5
     1  C    0.000000
     2  H    1.921014   0.000000
     3  H    1.083524   2.248829   0.000000
     4  H    1.079482   2.848404   1.890388   0.000000
     5  O    1.366489   0.962191   2.116667   2.054541   0.000000
 Stoichiometry    CH3O(2)
 Framework group  C1[X(CH3O)]
 Deg. of freedom     9
 Full point group                 C1      NOp   1
 Largest Abelian subgroup         C1      NOp   1
 Largest concise Abelian subgroup C1      NOp   1
                         Standard orientation:                         
 ---------------------------------------------------------------------
 Center     Atomic      Atomic             Coordinates (Angstroms)
 Number     Number       Type             X           Y           Z
 ---------------------------------------------------------------------
      1          6           0       -0.685140    0.027783   -0.058839
      2          1           0        1.103037    0.729710   -0.062873
      3          1           0       -1.119016    0.996914    0.156942
      4          1           0       -1.236011   -0.888642    0.089441
      5          8           0        0.670354   -0.125585    0.021191
 ---------------------------------------------------------------------
 Rotational constants (GHZ):    193.5633273     29.8638812     26.0767732
 Leave Link  202 at Sun Mar  4 21:13:00 2018, MaxMem=    33554432 cpu:         0.0
 (Enter /apl/tryton/gaussian/09/d01/g09/l301.exe)
 Standard basis: 6-311++G(d,p) (5D, 7F)
 Ernie: Thresh=  0.10000D-02 Tol=  0.10000D-05 Strict=F.
 There are    67 symmetry adapted cartesian basis functions of A   symmetry.
 There are    65 symmetry adapted basis functions of A   symmetry.
    65 basis functions,    99 primitive gaussians,    67 cartesian basis functions
     9 alpha electrons        8 beta electrons
       nuclear repulsion energy        35.2739064085 Hartrees.
 IExCor=  402 DFT=T Ex+Corr=B3LYP ExCW=0 ScaHFX=  0.200000
 ScaDFX=  0.800000  0.720000  1.000000  0.810000 ScalE2=  1.000000  1.000000
 IRadAn=      0 IRanWt=     -1 IRanGd=            0 ICorTp=0 IEmpDi=  4
 NAtoms=    5 NActive=    5 NUniq=    5 SFac= 1.00D+00 NAtFMM=   60 NAOKFM=F Big=F
 Integral buffers will be    131072 words long.
 Raffenetti 2 integral format.
 Two-electron integral symmetry is turned on.
 Leave Link  301 at Sun Mar  4 21:13:00 2018, MaxMem=    33554432 cpu:         0.0
 (Enter /apl/tryton/gaussian/09/d01/g09/l302.exe)
 NPDir=0 NMtPBC=     1 NCelOv=     1 NCel=       1 NClECP=     1 NCelD=      1
         NCelK=      1 NCelE2=     1 NClLst=     1 CellRange=     0.0.
 One-electron integrals computed using PRISM.
 NBasis=    65 RedAO= T EigKep=  1.84D-03  NBF=    65
 NBsUse=    65 1.00D-06 EigRej= -1.00D+00 NBFU=    65
 Precomputing XC quadrature grid using
 IXCGrd= 4 IRadAn=           0 IRanWt=          -1 IRanGd=           0 AccXCQ= 0.00D+00.
 Generated NRdTot=       0 NPtTot=           0 NUsed=           0 NTot=          32
 NSgBfM=    67    67    67    67    67 MxSgAt=     5 MxSgA2=     5.
 Leave Link  302 at Sun Mar  4 21:13:00 2018, MaxMem=    33554432 cpu:         0.1
 (Enter /apl/tryton/gaussian/09/d01/g09/l303.exe)
 DipDrv:  MaxL=1.
 Leave Link  303 at Sun Mar  4 21:13:00 2018, MaxMem=    33554432 cpu:         0.0
 (Enter /apl/tryton/gaussian/09/d01/g09/l401.exe)
 ExpMin= 3.60D-02 ExpMax= 8.59D+03 ExpMxC= 1.30D+03 IAcc=3 IRadAn=         5 AccDes= 0.00D+00
 Harris functional with IExCor=  402 and IRadAn=       5 diagonalized for initial guess.
 HarFok:  IExCor=  402 AccDes= 0.00D+00 IRadAn=         5 IDoV= 1 UseB2=F ITyADJ=14
 ICtDFT=  3500011 ScaDFX=  1.000000  1.000000  1.000000  1.000000
 FoFCou: FMM=F IPFlag=           0 FMFlag=      100000 FMFlg1=           0
         NFxFlg=           0 DoJE=T BraDBF=F KetDBF=T FulRan=T
         wScrn=  0.000000 ICntrl=     500 IOpCl=  0 I1Cent=   200000004 NGrid=           0
         NMat0=    1 NMatS0=      1 NMatT0=    0 NMatD0=    1 NMtDS0=    0 NMtDT0=    0
 Petite list used in FoFCou.
 Harris En= -115.099032146541    
 JPrj=0 DoOrth=F DoCkMO=F.
 Initial guess <Sx>= 0.0000 <Sy>= 0.0000 <Sz>= 0.5000 <S**2>= 0.7500 S= 0.5000
 Leave Link  401 at Sun Mar  4 21:13:01 2018, MaxMem=    33554432 cpu:         0.8
 (Enter /apl/tryton/gaussian/09/d01/g09/l502.exe)
 UHF open shell SCF:
 Using DIIS extrapolation, IDIIS=  1040.
 Integral symmetry usage will be decided dynamically.
 Keep R1 and R2 ints in memory in canonical form, NReq=5521809.
 IVT=       32923 IEndB=       32923 NGot=    33554432 MDV=    28918340
 LenX=    28918340 LenY=    28913410
 Requested convergence on RMS density matrix=1.00D-08 within 128 cycles.
 Requested convergence on MAX density matrix=1.00D-06.
 Requested convergence on             energy=1.00D-06.
 No special actions if energy rises.
 FoFCou: FMM=F IPFlag=           0 FMFlag=           0 FMFlg1=           0
         NFxFlg=           0 DoJE=F BraDBF=F KetDBF=F FulRan=T
         wScrn=  0.000000 ICntrl=     600 IOpCl=  0 I1Cent=           0 NGrid=           0
         NMat0=    1 NMatS0=   2145 NMatT0=    0 NMatD0=    1 NMtDS0=    0 NMtDT0=    0
 Symmetry not used in FoFCou.

 Cycle   1  Pass 1  IDiag  1:
 E= -115.044627613370    
 DIIS: error= 3.25D-02 at cycle   1 NSaved=   1.
 NSaved= 1 IEnMin= 1 EnMin= -115.044627613370     IErMin= 1 ErrMin= 3.25D-02
 ErrMax= 3.25D-02  0.00D+00 EMaxC= 1.00D-01 BMatC= 2.95D-01 BMatP= 2.95D-01
 IDIUse=3 WtCom= 6.75D-01 WtEn= 3.25D-01
 Coeff-Com:  0.100D+01
 Coeff-En:   0.100D+01
 Coeff:      0.100D+01
 Gap=     0.096 Goal=   None    Shift=    0.000
 Gap=     0.309 Goal=   None    Shift=    0.000
 GapD=    0.096 DampG=0.500 DampE=0.500 DampFc=0.2500 IDamp=-1.
 Damping current iteration by 2.50D-01
 RMSDP=6.66D-03 MaxDP=8.50D-02              OVMax= 1.64D-01

 Cycle   2  Pass 1  IDiag  1:
 E= -115.065201658977     Delta-E=       -0.020574045607 Rises=F Damp=T
 DIIS: error= 1.38D-02 at cycle   2 NSaved=   2.
 NSaved= 2 IEnMin= 2 EnMin= -115.065201658977     IErMin= 2 ErrMin= 1.38D-02
 ErrMax= 1.38D-02  0.00D+00 EMaxC= 1.00D-01 BMatC= 6.67D-02 BMatP= 2.95D-01
 IDIUse=3 WtCom= 8.62D-01 WtEn= 1.38D-01
 Coeff-Com: -0.744D+00 0.174D+01
 Coeff-En:   0.000D+00 0.100D+01
 Coeff:     -0.641D+00 0.164D+01
 Gap=     0.157 Goal=   None    Shift=    0.000
 Gap=     0.342 Goal=   None    Shift=    0.000
 RMSDP=1.69D-03 MaxDP=3.50D-02 DE=-2.06D-02 OVMax= 9.95D-02

 Cycle   3  Pass 1  IDiag  1:
 E= -115.100436566301     Delta-E=       -0.035234907324 Rises=F Damp=F
 DIIS: error= 7.20D-03 at cycle   3 NSaved=   3.
 NSaved= 3 IEnMin= 3 EnMin= -115.100436566301     IErMin= 3 ErrMin= 7.20D-03
 ErrMax= 7.20D-03  0.00D+00 EMaxC= 1.00D-01 BMatC= 9.73D-03 BMatP= 6.67D-02
 IDIUse=3 WtCom= 9.28D-01 WtEn= 7.20D-02
 Coeff-Com: -0.365D+00 0.769D+00 0.595D+00
 Coeff-En:   0.000D+00 0.000D+00 0.100D+01
 Coeff:     -0.338D+00 0.714D+00 0.624D+00
 Gap=     0.174 Goal=   None    Shift=    0.000
 Gap=     0.309 Goal=   None    Shift=    0.000
 RMSDP=6.50D-04 MaxDP=1.44D-02 DE=-3.52D-02 OVMax= 2.35D-02

 Cycle   4  Pass 1  IDiag  1:
 E= -115.102010793522     Delta-E=       -0.001574227221 Rises=F Damp=F
 DIIS: error= 3.51D-03 at cycle   4 NSaved=   4.
 NSaved= 4 IEnMin= 4 EnMin= -115.102010793522     IErMin= 4 ErrMin= 3.51D-03
 ErrMax= 3.51D-03  0.00D+00 EMaxC= 1.00D-01 BMatC= 2.27D-03 BMatP= 9.73D-03
 IDIUse=3 WtCom= 9.65D-01 WtEn= 3.51D-02
 Coeff-Com: -0.909D-01 0.168D+00 0.338D+00 0.585D+00
 Coeff-En:   0.000D+00 0.000D+00 0.181D+00 0.819D+00
 Coeff:     -0.877D-01 0.162D+00 0.333D+00 0.593D+00
 Gap=     0.168 Goal=   None    Shift=    0.000
 Gap=     0.310 Goal=   None    Shift=    0.000
 RMSDP=2.38D-04 MaxDP=6.39D-03 DE=-1.57D-03 OVMax= 9.61D-03

 Cycle   5  Pass 1  IDiag  1:
 E= -115.102521427207     Delta-E=       -0.000510633685 Rises=F Damp=F
 DIIS: error= 3.82D-04 at cycle   5 NSaved=   5.
 NSaved= 5 IEnMin= 5 EnMin= -115.102521427207     IErMin= 5 ErrMin= 3.82D-04
 ErrMax= 3.82D-04  0.00D+00 EMaxC= 1.00D-01 BMatC= 3.62D-05 BMatP= 2.27D-03
 IDIUse=3 WtCom= 9.96D-01 WtEn= 3.82D-03
 Coeff-Com:  0.846D-02-0.254D-01 0.137D-01 0.115D+00 0.889D+00
 Coeff-En:   0.000D+00 0.000D+00 0.000D+00 0.000D+00 0.100D+01
 Coeff:      0.843D-02-0.253D-01 0.137D-01 0.114D+00 0.889D+00
 Gap=     0.169 Goal=   None    Shift=    0.000
 Gap=     0.310 Goal=   None    Shift=    0.000
 RMSDP=6.04D-05 MaxDP=1.18D-03 DE=-5.11D-04 OVMax= 2.35D-03

 Cycle   6  Pass 1  IDiag  1:
 E= -115.102533591121     Delta-E=       -0.000012163914 Rises=F Damp=F
 DIIS: error= 7.93D-05 at cycle   6 NSaved=   6.
 NSaved= 6 IEnMin= 6 EnMin= -115.102533591121     IErMin= 6 ErrMin= 7.93D-05
 ErrMax= 7.93D-05  0.00D+00 EMaxC= 1.00D-01 BMatC= 1.36D-06 BMatP= 3.62D-05
 IDIUse=1 WtCom= 1.00D+00 WtEn= 0.00D+00
 Coeff-Com:  0.348D-02-0.465D-02-0.226D-01-0.494D-01-0.155D+00 0.123D+01
 Coeff:      0.348D-02-0.465D-02-0.226D-01-0.494D-01-0.155D+00 0.123D+01
 Gap=     0.169 Goal=   None    Shift=    0.000
 Gap=     0.311 Goal=   None    Shift=    0.000
 RMSDP=2.15D-05 MaxDP=3.85D-04 DE=-1.22D-05 OVMax= 8.68D-04

 Cycle   7  Pass 1  IDiag  1:
 E= -115.102534796869     Delta-E=       -0.000001205748 Rises=F Damp=F
 DIIS: error= 2.39D-05 at cycle   7 NSaved=   7.
 NSaved= 7 IEnMin= 7 EnMin= -115.102534796869     IErMin= 7 ErrMin= 2.39D-05
 ErrMax= 2.39D-05  0.00D+00 EMaxC= 1.00D-01 BMatC= 1.22D-07 BMatP= 1.36D-06
 IDIUse=1 WtCom= 1.00D+00 WtEn= 0.00D+00
 Coeff-Com: -0.854D-03 0.181D-02-0.256D-02-0.690D-02-0.537D-01 0.511D-01
 Coeff-Com:  0.101D+01
 Coeff:     -0.854D-03 0.181D-02-0.256D-02-0.690D-02-0.537D-01 0.511D-01
 Coeff:      0.101D+01
 Gap=     0.169 Goal=   None    Shift=    0.000
 Gap=     0.311 Goal=   None    Shift=    0.000
 RMSDP=4.57D-06 MaxDP=6.55D-05 DE=-1.21D-06 OVMax= 1.32D-04

 Cycle   8  Pass 1  IDiag  1:
 E= -115.102534849065     Delta-E=       -0.000000052196 Rises=F Damp=F
 DIIS: error= 4.35D-06 at cycle   8 NSaved=   8.
 NSaved= 8 IEnMin= 8 EnMin= -115.102534849065     IErMin= 8 ErrMin= 4.35D-06
 ErrMax= 4.35D-06  0.00D+00 EMaxC= 1.00D-01 BMatC= 5.67D-09 BMatP= 1.22D-07
 IDIUse=1 WtCom= 1.00D+00 WtEn= 0.00D+00
 Coeff-Com: -0.380D-03 0.573D-03 0.161D-02 0.327D-02 0.810D-02-0.884D-01
 Coeff-Com:  0.903D-01 0.985D+00
 Coeff:     -0.380D-03 0.573D-03 0.161D-02 0.327D-02 0.810D-02-0.884D-01
 Coeff:      0.903D-01 0.985D+00
 Gap=     0.169 Goal=   None    Shift=    0.000
 Gap=     0.311 Goal=   None    Shift=    0.000
 RMSDP=1.17D-06 MaxDP=1.60D-05 DE=-5.22D-08 OVMax= 2.45D-05

 Cycle   9  Pass 1  IDiag  1:
 E= -115.102534851598     Delta-E=       -0.000000002534 Rises=F Damp=F
 DIIS: error= 1.14D-06 at cycle   9 NSaved=   9.
 NSaved= 9 IEnMin= 9 EnMin= -115.102534851598     IErMin= 9 ErrMin= 1.14D-06
 ErrMax= 1.14D-06  0.00D+00 EMaxC= 1.00D-01 BMatC= 3.73D-10 BMatP= 5.67D-09
 IDIUse=1 WtCom= 1.00D+00 WtEn= 0.00D+00
 Coeff-Com:  0.633D-04-0.116D-03 0.231D-03 0.486D-03 0.347D-02-0.467D-02
 Coeff-Com: -0.590D-01 0.667D-01 0.993D+00
 Coeff:      0.633D-04-0.116D-03 0.231D-03 0.486D-03 0.347D-02-0.467D-02
 Coeff:     -0.590D-01 0.667D-01 0.993D+00
 Gap=     0.169 Goal=   None    Shift=    0.000
 Gap=     0.311 Goal=   None    Shift=    0.000
 RMSDP=2.21D-07 MaxDP=3.27D-06 DE=-2.53D-09 OVMax= 5.18D-06

 Cycle  10  Pass 1  IDiag  1:
 E= -115.102534851745     Delta-E=       -0.000000000147 Rises=F Damp=F
 DIIS: error= 2.72D-07 at cycle  10 NSaved=  10.
 NSaved=10 IEnMin=10 EnMin= -115.102534851745     IErMin=10 ErrMin= 2.72D-07
 ErrMax= 2.72D-07  0.00D+00 EMaxC= 1.00D-01 BMatC= 1.87D-11 BMatP= 3.73D-10
 IDIUse=1 WtCom= 1.00D+00 WtEn= 0.00D+00
 Coeff-Com:  0.162D-04-0.235D-04-0.724D-04-0.117D-03-0.384D-03 0.397D-02
 Coeff-Com: -0.617D-02-0.463D-01 0.229D-01 0.103D+01
 Coeff:      0.162D-04-0.235D-04-0.724D-04-0.117D-03-0.384D-03 0.397D-02
 Coeff:     -0.617D-02-0.463D-01 0.229D-01 0.103D+01
 Gap=     0.169 Goal=   None    Shift=    0.000
 Gap=     0.311 Goal=   None    Shift=    0.000
 RMSDP=7.39D-08 MaxDP=1.09D-06 DE=-1.47D-10 OVMax= 1.58D-06

 Cycle  11  Pass 1  IDiag  1:
 E= -115.102534851754     Delta-E=       -0.000000000009 Rises=F Damp=F
 DIIS: error= 8.11D-08 at cycle  11 NSaved=  11.
 NSaved=11 IEnMin=11 EnMin= -115.102534851754     IErMin=11 ErrMin= 8.11D-08
 ErrMax= 8.11D-08  0.00D+00 EMaxC= 1.00D-01 BMatC= 1.09D-12 BMatP= 1.87D-11
 IDIUse=1 WtCom= 1.00D+00 WtEn= 0.00D+00
 Coeff-Com: -0.317D-05 0.526D-05-0.187D-04-0.351D-04-0.213D-03 0.542D-03
 Coeff-Com:  0.326D-02-0.741D-02-0.625D-01 0.218D-01 0.104D+01
 Coeff:     -0.317D-05 0.526D-05-0.187D-04-0.351D-04-0.213D-03 0.542D-03
 Coeff:      0.326D-02-0.741D-02-0.625D-01 0.218D-01 0.104D+01
 Gap=     0.169 Goal=   None    Shift=    0.000
 Gap=     0.311 Goal=   None    Shift=    0.000
 RMSDP=1.51D-08 MaxDP=2.47D-07 DE=-9.15D-12 OVMax= 4.40D-07

 Cycle  12  Pass 1  IDiag  1:
 E= -115.102534851755     Delta-E=       -0.000000000000 Rises=F Damp=F
 DIIS: error= 1.77D-08 at cycle  12 NSaved=  12.
 NSaved=12 IEnMin=12 EnMin= -115.102534851755     IErMin=12 ErrMin= 1.77D-08
 ErrMax= 1.77D-08  0.00D+00 EMaxC= 1.00D-01 BMatC= 5.78D-14 BMatP= 1.09D-12
 IDIUse=1 WtCom= 1.00D+00 WtEn= 0.00D+00
 Coeff-Com: -0.941D-06 0.124D-05 0.235D-05 0.266D-05 0.174D-04-0.163D-03
 Coeff-Com:  0.275D-03 0.208D-02-0.146D-03-0.531D-01-0.271D-01 0.108D+01
 Coeff:     -0.941D-06 0.124D-05 0.235D-05 0.266D-05 0.174D-04-0.163D-03
 Coeff:      0.275D-03 0.208D-02-0.146D-03-0.531D-01-0.271D-01 0.108D+01
 Gap=     0.169 Goal=   None    Shift=    0.000
 Gap=     0.311 Goal=   None    Shift=    0.000
 RMSDP=3.67D-09 MaxDP=5.73D-08 DE=-4.83D-13 OVMax= 1.14D-07

 SCF Done:  E(UB3LYP) =  -115.102534852     A.U. after   12 cycles
            NFock= 12  Conv=0.37D-08     -V/T= 2.0035
 <Sx>= 0.0000 <Sy>= 0.0000 <Sz>= 0.5000 <S**2>= 0.7536 S= 0.5018
 <L.S>= 0.000000000000E+00
 KE= 1.146988744116D+02 PE=-3.407681958954D+02 EE= 7.569288022355D+01
 Annihilation of the first spin contaminant:
 S**2 before annihilation     0.7536,   after     0.7500
 Leave Link  502 at Sun Mar  4 21:13:08 2018, MaxMem=    33554432 cpu:         6.8
 (Enter /apl/tryton/gaussian/09/d01/g09/l801.exe)
 DoSCS=F DFT=T ScalE2(SS,OS)=  1.000000  1.000000
 Range of M.O.s used for correlation:     1    65
 NBasis=    65 NAE=     9 NBE=     8 NFC=     0 NFV=     0
 NROrb=     65 NOA=     9 NOB=     8 NVA=    56 NVB=    57

 **** Warning!!: The largest alpha MO coefficient is  0.10636335D+02


 **** Warning!!: The largest beta MO coefficient is  0.10584434D+02

 Leave Link  801 at Sun Mar  4 21:13:08 2018, MaxMem=    33554432 cpu:         0.0
 (Enter /apl/tryton/gaussian/09/d01/g09/l1101.exe)
 Using compressed storage, NAtomX=     5.
 Will process      6 centers per pass.
 Leave Link 1101 at Sun Mar  4 21:13:08 2018, MaxMem=    33554432 cpu:         0.1
 (Enter /apl/tryton/gaussian/09/d01/g09/l1102.exe)
 Symmetrizing basis deriv contribution to polar:
 IMax=3 JMax=2 DiffMx= 0.00D+00
 Leave Link 1102 at Sun Mar  4 21:13:08 2018, MaxMem=    33554432 cpu:         0.0
 (Enter /apl/tryton/gaussian/09/d01/g09/l1110.exe)
 Forming Gx(P) for the SCF density, NAtomX=     5.
 Integral derivatives from FoFJK, PRISM(SPDF).
 Do as many integral derivatives as possible in FoFJK.
 G2DrvN: MDV=      33554288.
 G2DrvN: will do     6 centers at a time, making    1 passes.
 Calling FoFCou, ICntrl=  3107 FMM=F I1Cent=   0 AccDes= 0.00D+00.
 FoFJK:  IHMeth= 1 ICntrl=    3107 DoSepK=F KAlg= 0 I1Cent=   0 FoldK=F
 IRaf=         0 NMat=   1 IRICut=       1 DoRegI=T DoRafI=F ISym2E= 0.
 FoFCou: FMM=F IPFlag=           0 FMFlag=      100000 FMFlg1=           0
         NFxFlg=           0 DoJE=F BraDBF=F KetDBF=F FulRan=T
         wScrn=  0.000000 ICntrl=    3107 IOpCl=  1 I1Cent=           0 NGrid=           0
         NMat0=    1 NMatS0=      1 NMatT0=    0 NMatD0=    1 NMtDS0=    0 NMtDT0=    0
 Symmetry not used in FoFCou.
 End of G2Drv F.D. properties file   721 does not exist.
 End of G2Drv F.D. properties file   722 does not exist.
 End of G2Drv F.D. properties file   788 does not exist.
 Leave Link 1110 at Sun Mar  4 21:13:16 2018, MaxMem=    33554432 cpu:         7.7
 (Enter /apl/tryton/gaussian/09/d01/g09/l1002.exe)
 Minotr:  UHF open shell wavefunction.
          IDoAtm=11111
          Direct CPHF calculation.
          Differentiating once with respect to electric field.
                with respect to dipole field.
          Differentiating once with respect to nuclear coordinates.
          Requested convergence is 1.0D-08 RMS, and 1.0D-07 maximum.
          Secondary convergence is 1.0D-12 RMS, and 1.0D-12 maximum.
          NewPWx=T KeepS1=F KeepF1=F KeepIn=T MapXYZ=F SortEE=F KeepMc=T.
          MDV=      33554248 using IRadAn=       2.
 Generate precomputed XC quadrature information.
 Keep R1 and R2 ints in memory in canonical form, NReq=5489229.
 FoFCou: FMM=F IPFlag=           0 FMFlag=           0 FMFlg1=           0
         NFxFlg=           0 DoJE=F BraDBF=F KetDBF=F FulRan=T
         wScrn=  0.000000 ICntrl=     600 IOpCl=  0 I1Cent=           0 NGrid=           0
         NMat0=    1 NMatS0=   2145 NMatT0=    0 NMatD0=    1 NMtDS0=    0 NMtDT0=    0
 Symmetry not used in FoFCou.
          Solving linear equations simultaneously, MaxMat=       0.
          There are    18 degrees of freedom in the 1st order CPHF.  IDoFFX=6 NUNeed=     3.
     15 vectors produced by pass  0 Test12= 5.33D-15 5.56D-09 XBig12= 2.55D+01 2.21D+00.
 AX will form    15 AO Fock derivatives at one time.
     15 vectors produced by pass  1 Test12= 5.33D-15 5.56D-09 XBig12= 3.28D+00 6.91D-01.
     15 vectors produced by pass  2 Test12= 5.33D-15 5.56D-09 XBig12= 5.43D-02 5.29D-02.
     15 vectors produced by pass  3 Test12= 5.33D-15 5.56D-09 XBig12= 3.30D-04 3.26D-03.
     15 vectors produced by pass  4 Test12= 5.33D-15 5.56D-09 XBig12= 1.56D-06 2.43D-04.
     15 vectors produced by pass  5 Test12= 5.33D-15 5.56D-09 XBig12= 7.24D-09 1.28D-05.
      8 vectors produced by pass  6 Test12= 5.33D-15 5.56D-09 XBig12= 1.79D-11 6.14D-07.
      3 vectors produced by pass  7 Test12= 5.33D-15 5.56D-09 XBig12= 5.20D-14 3.79D-08.
 InvSVY:  IOpt=1 It=  1 EMax= 1.11D-15
 Solved reduced A of dimension   101 with    15 vectors.
 FullF1:  Do perturbations    1 to     3.
 Isotropic polarizability for W=    0.000000       18.70 Bohr**3.
 End of Minotr F.D. properties file   721 does not exist.
 End of Minotr F.D. properties file   722 does not exist.
 End of Minotr F.D. properties file   788 does not exist.
 Leave Link 1002 at Sun Mar  4 21:13:26 2018, MaxMem=    33554432 cpu:        10.2
 (Enter /apl/tryton/gaussian/09/d01/g09/l601.exe)
 Copying SCF densities to generalized density rwf, IOpCl= 1 IROHF=0.

 **********************************************************************

            Population analysis using the SCF density.

 **********************************************************************

 Orbital symmetries:
 Alpha Orbitals:
       Occupied  (A) (A) (A) (A) (A) (A) (A) (A) (A)
       Virtual   (A) (A) (A) (A) (A) (A) (A) (A) (A) (A) (A) (A)
                 (A) (A) (A) (A) (A) (A) (A) (A) (A) (A) (A) (A)
                 (A) (A) (A) (A) (A) (A) (A) (A) (A) (A) (A) (A)
                 (A) (A) (A) (A) (A) (A) (A) (A) (A) (A) (A) (A)
                 (A) (A) (A) (A) (A) (A) (A) (A)
 Beta  Orbitals:
       Occupied  (A) (A) (A) (A) (A) (A) (A) (A)
       Virtual   (A) (A) (A) (A) (A) (A) (A) (A) (A) (A) (A) (A)
                 (A) (A) (A) (A) (A) (A) (A) (A) (A) (A) (A) (A)
                 (A) (A) (A) (A) (A) (A) (A) (A) (A) (A) (A) (A)
                 (A) (A) (A) (A) (A) (A) (A) (A) (A) (A) (A) (A)
                 (A) (A) (A) (A) (A) (A) (A) (A) (A)
 The electronic state is 2-A.
 Alpha  occ. eigenvalues --  -19.16671 -10.22022  -1.07055  -0.68266  -0.54062
 Alpha  occ. eigenvalues --   -0.46228  -0.41066  -0.36705  -0.18484
 Alpha virt. eigenvalues --   -0.01603   0.01244   0.03428   0.06375   0.07565
 Alpha virt. eigenvalues --    0.09782   0.11592   0.14724   0.16006   0.18869
 Alpha virt. eigenvalues --    0.19874   0.21193   0.24782   0.26266   0.32989
 Alpha virt. eigenvalues --    0.46313   0.48448   0.50994   0.52635   0.62399
 Alpha virt. eigenvalues --    0.64789   0.79527   0.99715   1.01194   1.02300
 Alpha virt. eigenvalues --    1.13170   1.20355   1.37672   1.38482   1.40599
 Alpha virt. eigenvalues --    1.50045   1.55105   1.62328   1.73980   1.81151
 Alpha virt. eigenvalues --    1.93792   2.04286   2.07733   2.39723   2.47496
 Alpha virt. eigenvalues --    2.49098   2.63489   2.63653   2.69259   3.02385
 Alpha virt. eigenvalues --    3.08823   3.15482   3.36665   3.71787   3.79468
 Alpha virt. eigenvalues --    3.95169   4.93013   5.32110   5.63565  23.81980
 Alpha virt. eigenvalues --   49.84525
  Beta  occ. eigenvalues --  -19.16123 -10.20708  -1.05825  -0.65747  -0.52970
  Beta  occ. eigenvalues --   -0.45325  -0.37326  -0.35485
  Beta virt. eigenvalues --   -0.04432  -0.01520   0.01398   0.03413   0.07441
  Beta virt. eigenvalues --    0.08030   0.09867   0.12084   0.15178   0.16552
  Beta virt. eigenvalues --    0.19167   0.20291   0.21533   0.25187   0.27055
  Beta virt. eigenvalues --    0.33227   0.47292   0.49186   0.51288   0.57512
  Beta virt. eigenvalues --    0.63337   0.65541   0.81929   1.00183   1.02771
  Beta virt. eigenvalues --    1.04250   1.13990   1.22538   1.38024   1.39712
  Beta virt. eigenvalues --    1.40991   1.52066   1.56301   1.64472   1.74446
  Beta virt. eigenvalues --    1.84135   1.95797   2.05062   2.08242   2.39939
  Beta virt. eigenvalues --    2.47993   2.49377   2.64050   2.67016   2.72431
  Beta virt. eigenvalues --    3.03689   3.10536   3.17958   3.37258   3.73568
  Beta virt. eigenvalues --    3.80443   3.95890   4.95249   5.32718   5.64248
  Beta virt. eigenvalues --   23.83453  49.85065
          Condensed to atoms (all electrons):
               1          2          3          4          5
     1  C    5.359034  -0.015687   0.381384   0.421463   0.141195
     2  H   -0.015687   0.493461  -0.023684   0.015143   0.271730
     3  H    0.381384  -0.023684   0.603302  -0.052641  -0.025605
     4  H    0.421463   0.015143  -0.052641   0.548800  -0.071215
     5  O    0.141195   0.271730  -0.025605  -0.071215   7.911235
          Atomic-Atomic Spin Densities.
               1          2          3          4          5
     1  C    1.243145  -0.001529  -0.009449   0.000552  -0.249940
     2  H   -0.001529  -0.004961   0.000464  -0.000908   0.001936
     3  H   -0.009449   0.000464  -0.028201   0.001581  -0.002111
     4  H    0.000552  -0.000908   0.001581  -0.040935  -0.001904
     5  O   -0.249940   0.001936  -0.002111  -0.001904   0.353567
 Mulliken charges and spin densities:
               1          2
     1  C   -0.287389   0.982779
     2  H    0.259036  -0.004997
     3  H    0.117244  -0.037716
     4  H    0.138450  -0.041613
     5  O   -0.227340   0.101548
 Sum of Mulliken charges =  -0.00000   1.00000
 Mulliken charges and spin densities with hydrogens summed into heavy atoms:
               1          2
     1  C   -0.031695   0.903449
     5  O    0.031695   0.096551
 APT charges:
               1
     1  C    0.242007
     2  H    0.284283
     3  H    0.024634
     4  H    0.047378
     5  O   -0.598302
 Sum of APT charges =   0.00000
 APT charges with hydrogens summed into heavy atoms:
               1
     1  C    0.314018
     5  O   -0.314018
 Electronic spatial extent (au):  <R**2>=             74.3529
 Charge=             -0.0000 electrons
 Dipole moment (field-independent basis, Debye):
    X=             -0.0231    Y=              1.6056    Z=              0.2382  Tot=              1.6233
 Quadrupole moment (field-independent basis, Debye-Ang):
   XX=            -12.0024   YY=            -11.2195   ZZ=            -14.7478
   XY=              2.2864   XZ=             -0.6748   YZ=             -0.0116
 Traceless Quadrupole moment (field-independent basis, Debye-Ang):
   XX=              0.6542   YY=              1.4370   ZZ=             -2.0912
   XY=              2.2864   XZ=             -0.6748   YZ=             -0.0116
 Octapole moment (field-independent basis, Debye-Ang**2):
  XXX=              5.2056  YYY=              1.2227  ZZZ=              0.8799  XYY=              1.2163
  XXY=              2.1988  XXZ=              0.4628  XZZ=              2.4356  YZZ=              0.1185
  YYZ=              0.3893  XYZ=             -0.2095
 Hexadecapole moment (field-independent basis, Debye-Ang**3):
 XXXX=            -57.0291 YYYY=            -20.3400 ZZZZ=            -18.3684 XXXY=              4.1207
 XXXZ=             -1.3114 YYYX=              2.3588 YYYZ=              0.0597 ZZZX=             -1.0127
 ZZZY=              0.0713 XXYY=            -11.1699 XXZZ=            -14.7230 YYZZ=             -6.9319
 XXYZ=             -0.0723 YYXZ=             -0.5833 ZZXY=              0.5755
 N-N= 3.527390640852D+01 E-N=-3.407681953781D+02  KE= 1.146988744116D+02
  Exact polarizability:  21.668   0.424  17.356   0.149  -0.064  17.066
 Approx polarizability:  25.765   0.452  21.437   0.068  -0.148  18.968
                          Isotropic Fermi Contact Couplings
        Atom                 a.u.       MegaHertz       Gauss      10(-4) cm-1
     1  C(13)              0.10524     118.31212      42.21670      39.46467
     2  H(1)              -0.00242     -10.83134      -3.86489      -3.61295
     3  H(1)              -0.00894     -39.97003     -14.26230     -13.33257
     4  H(1)              -0.01068     -47.75401     -17.03982     -15.92902
     5  O(17)              0.02601     -15.76849      -5.62659      -5.25980
 --------------------------------------------------------
       Center         ----  Spin Dipole Couplings  ----
                      3XX-RR        3YY-RR        3ZZ-RR
 --------------------------------------------------------
     1   Atom       -0.532296     -0.524094      1.056390
     2   Atom        0.000901      0.017223     -0.018125
     3   Atom       -0.046300      0.044859      0.001441
     4   Atom       -0.032801      0.033753     -0.000952
     5   Atom       -0.461861     -0.454522      0.916383
 --------------------------------------------------------
                        XY            XZ            YZ
 --------------------------------------------------------
     1   Atom       -0.001927      0.079571     -0.063949
     2   Atom        0.034754      0.002310      0.000338
     3   Atom       -0.048014     -0.006156      0.014265
     4   Atom        0.058012     -0.004309     -0.012737
     5   Atom        0.015262      0.092294      0.017119
 --------------------------------------------------------


 ---------------------------------------------------------------------------------
              Anisotropic Spin Dipole Couplings in Principal Axis System
 ---------------------------------------------------------------------------------

       Atom             a.u.   MegaHertz   Gauss  10(-4) cm-1        Axes

              Baa    -0.5364   -71.985   -25.686   -24.011  0.9902 -0.1285 -0.0546
     1 C(13)  Bbb    -0.5265   -70.652   -25.210   -23.567  0.1304  0.9909  0.0335
              Bcc     1.0629   142.637    50.896    47.579  0.0498 -0.0403  0.9979
 
              Baa    -0.0269   -14.368    -5.127    -4.793  0.7737 -0.6076 -0.1797
     2 H(1)   Bbb    -0.0179    -9.539    -3.404    -3.182  0.1243 -0.1325  0.9834
              Bcc     0.0448    23.907     8.531     7.975  0.6213  0.7831  0.0270
 
              Baa    -0.0669   -35.707   -12.741   -11.911  0.9188  0.3946  0.0004
     3 H(1)   Bbb    -0.0021    -1.136    -0.405    -0.379  0.0880 -0.2059  0.9746
              Bcc     0.0691    36.843    13.147    12.290 -0.3847  0.8955  0.2240
 
              Baa    -0.0665   -35.488   -12.663   -11.838  0.8625 -0.5043 -0.0413
     4 H(1)   Bbb    -0.0033    -1.760    -0.628    -0.587  0.1276  0.1378  0.9822
              Bcc     0.0698    37.248    13.291    12.425  0.4896  0.8525 -0.1832
 
              Baa    -0.4770    34.512    12.315    11.512  0.8429 -0.5358 -0.0492
     5 O(17)  Bbb    -0.4458    32.259    11.511    10.760  0.5339  0.8442 -0.0468
              Bcc     0.9228   -66.771   -23.826   -22.272  0.0666  0.0131  0.9977
 

 ---------------------------------------------------------------------------------

 No NMR shielding tensors so no spin-rotation constants.
 Leave Link  601 at Sun Mar  4 21:13:26 2018, MaxMem=    33554432 cpu:         0.2
 (Enter /apl/tryton/gaussian/09/d01/g09/l701.exe)
 Compute integral second derivatives.
 ... and contract with generalized density number  0.
 Leave Link  701 at Sun Mar  4 21:13:26 2018, MaxMem=    33554432 cpu:         0.1
 (Enter /apl/tryton/gaussian/09/d01/g09/l702.exe)
 L702 exits ... SP integral derivatives will be done elsewhere.
 Leave Link  702 at Sun Mar  4 21:13:26 2018, MaxMem=    33554432 cpu:         0.0
 (Enter /apl/tryton/gaussian/09/d01/g09/l703.exe)
 Compute integral second derivatives, UseDBF=F ICtDFT=           0.
 Integral derivatives from FoFJK, PRISM(SPDF).
 Calling FoFJK, ICntrl=    100127 FMM=F ISym2X=0 I1Cent= 0 IOpClX= 1 NMat=1 NMatS=1 NMatT=0.
 FoFJK:  IHMeth= 1 ICntrl=  100127 DoSepK=F KAlg= 0 I1Cent=   0 FoldK=F
 IRaf=         0 NMat=   1 IRICut=       1 DoRegI=T DoRafI=F ISym2E= 0.
 FoFCou: FMM=F IPFlag=           0 FMFlag=      100000 FMFlg1=         800
         NFxFlg=           0 DoJE=F BraDBF=F KetDBF=F FulRan=T
         wScrn=  0.000000 ICntrl=  100127 IOpCl=  1 I1Cent=           0 NGrid=           0
         NMat0=    1 NMatS0=      1 NMatT0=    0 NMatD0=    1 NMtDS0=    0 NMtDT0=    0
 Symmetry not used in FoFCou.
 Leave Link  703 at Sun Mar  4 21:13:37 2018, MaxMem=    33554432 cpu:        10.5
 (Enter /apl/tryton/gaussian/09/d01/g09/l716.exe)
 Dipole        =-9.08700214D-03 6.31681261D-01 9.36967572D-02
 Polarizability= 2.16678941D+01 4.24033315D-01 1.73559723D+01
                 1.49015770D-01-6.38338653D-02 1.70656210D+01
 Full mass-weighted force constant matrix:
 Low frequencies ---  -35.1933  -13.7683    0.0009    0.0016    0.0019    5.1475
 Low frequencies ---  402.8270  526.7405 1049.9328
 Diagonal vibrational polarizability:
        3.9397344       1.2998653      18.1817168
 Harmonic frequencies (cm**-1), IR intensities (KM/Mole), Raman scattering
 activities (A**4/AMU), depolarization ratios for plane and unpolarized
 incident light, reduced masses (AMU), force constants (mDyne/A),
 and normal coordinates:
                      1                      2                      3
                      A                      A                      A
 Frequencies --    402.7999               526.7404              1049.9328
 Red. masses --      1.1540                 1.1984                 1.0770
 Frc consts  --      0.1103                 0.1959                 0.6995
 IR Inten    --     34.6301               140.6826                48.5887
  Atom  AN      X      Y      Z        X      Y      Z        X      Y      Z
     1   6     0.00  -0.02   0.08     0.01   0.00   0.13     0.00   0.06   0.01
     2   1    -0.04   0.10   0.76     0.01  -0.04  -0.40     0.56  -0.30   0.07
     3   1     0.00   0.12  -0.61    -0.10   0.06  -0.43    -0.50  -0.14  -0.08
     4   1    -0.06   0.04   0.10    -0.08  -0.07  -0.78     0.51  -0.23   0.07
     5   8     0.01  -0.00  -0.07     0.00   0.00   0.00    -0.04  -0.01  -0.01
                      4                      5                      6
                      A                      A                      A
 Frequencies --   1198.5053              1350.1998              1479.8562
 Red. masses --      5.4676                 1.2805                 1.1469
 Frc consts  --      4.6273                 1.3754                 1.4799
 IR Inten    --    115.4254                26.1842                 8.0742
  Atom  AN      X      Y      Z        X      Y      Z        X      Y      Z
     1   6     0.43  -0.08   0.02     0.06   0.10   0.00    -0.11   0.01  -0.00
     2   1    -0.07  -0.12   0.01    -0.75   0.30  -0.06    -0.04   0.02  -0.00
     3   1     0.72   0.03  -0.00    -0.37  -0.07  -0.05     0.61   0.33  -0.04
     4   1     0.34  -0.02  -0.05     0.40  -0.09   0.04     0.58  -0.41  -0.07
     5   8    -0.39   0.07  -0.02    -0.00  -0.09   0.00     0.01  -0.01   0.01
                      7                      8                      9
                      A                      A                      A
 Frequencies --   3127.6118              3274.4727              3844.6193
 Red. masses --      1.0464                 1.1239                 1.0667
 Frc consts  --      6.0307                 7.0999                 9.2893
 IR Inten    --     20.9752                10.7545                62.1128
  Atom  AN      X      Y      Z        X      Y      Z        X      Y      Z
     1   6     0.05  -0.02  -0.02     0.02   0.10   0.00     0.00  -0.00   0.00
     2   1    -0.00   0.00   0.00     0.00   0.02  -0.01     0.46   0.88  -0.08
     3   1    -0.32   0.75   0.14     0.22  -0.49  -0.11     0.00   0.01   0.00
     4   1    -0.28  -0.48   0.06    -0.42  -0.70   0.11     0.01   0.02  -0.00
     5   8    -0.00   0.00  -0.00    -0.00  -0.00   0.00    -0.03  -0.05   0.01

 -------------------
 - Thermochemistry -
 -------------------
 Temperature   298.150 Kelvin.  Pressure   1.00000 Atm.
 Atom     1 has atomic number  6 and mass  12.00000
 Atom     2 has atomic number  1 and mass   1.00783
 Atom     3 has atomic number  1 and mass   1.00783
 Atom     4 has atomic number  1 and mass   1.00783
 Atom     5 has atomic number  8 and mass  15.99491
 Molecular mass:    31.01839 amu.
 Principal axes and moments of inertia in atomic units:
                           1         2         3
     Eigenvalues --     9.32378  60.43224  69.20876
           X            0.99840   0.05253  -0.02116
           Y           -0.05237   0.99860   0.00796
           Z            0.02155  -0.00684   0.99974
 This molecule is an asymmetric top.
 Rotational symmetry number  1.
 Rotational temperatures (Kelvin)      9.28956     1.43324     1.25149
 Rotational constants (GHZ):         193.56333    29.86388    26.07677
 Zero-point vibrational energy      97224.9 (Joules/Mol)
                                   23.23731 (Kcal/Mol)
 Warning -- explicit consideration of   2 degrees of freedom as
           vibrations may cause significant error
 Vibrational temperatures:    579.54   757.86  1510.62  1724.38  1942.63
          (Kelvin)           2129.18  4499.93  4711.23  5531.54
 
 Zero-point correction=                           0.037031 (Hartree/Particle)
 Thermal correction to Energy=                    0.040437
 Thermal correction to Enthalpy=                  0.041381
 Thermal correction to Gibbs Free Energy=         0.014008
 Sum of electronic and zero-point Energies=           -115.065504
 Sum of electronic and thermal Energies=              -115.062098
 Sum of electronic and thermal Enthalpies=            -115.061154
 Sum of electronic and thermal Free Energies=         -115.088527
 
                     E (Thermal)             CV                S
                      KCal/Mol        Cal/Mol-Kelvin    Cal/Mol-Kelvin
 Total                   25.375              9.354             57.613
 Electronic               0.000              0.000              1.377
 Translational            0.889              2.981             36.229
 Rotational               0.889              2.981             18.307
 Vibrational             23.597              3.392              1.700
 Vibration     1          0.768              1.464              0.952
 Vibration     2          0.882              1.191              0.595
                       Q            Log10(Q)             Ln(Q)
 Total Bot       0.360581D-06         -6.442997        -14.835550
 Total V=0       0.389092D+11         10.590052         24.384497
 Vib (Bot)       0.118777D-16        -16.925269        -38.971871
 Vib (Bot)    1  0.441585D+00         -0.354986         -0.817385
 Vib (Bot)    2  0.304541D+00         -0.516354         -1.188950
 Vib (V=0)       0.128168D+01          0.107781          0.248175
 Vib (V=0)    1  0.116708D+01          0.067101          0.154506
 Vib (V=0)    2  0.108544D+01          0.035608          0.081990
 Electronic      0.200000D+01          0.301030          0.693147
 Translational   0.679022D+07          6.831884         15.730994
 Rotational      0.223541D+04          3.349357          7.712180
 
                                                                 min
                                                             IR Spectrum
 
     3                  3    3                                                      1   1    1    1                                  
     8                  2    1                                                      4   3    1    0                5   4             
     4                  7    2                                                      8   5    9    5                2   0             
     5                  4    8                                                      0   0    9    0                7   3             
 
     X                  X    X                                                      X   X    X    X                X   X             
     X                  X    X                                                          X    X    X                X   X             
     X                       X                                                          X    X    X                X   X             
     X                                                                                  X    X    X                X   X             
     X                                                                                       X    X                X   X             
     X                                                                                       X    X                X                 
     X                                                                                       X    X                X                 
     X                                                                                       X                     X                 
     X                                                                                       X                     X                 
                                                                                             X                     X                 
                                                                                             X                     X                 
                                                                                             X                     X                 
                                                                                             X                     X                 
                                                                                             X                     X                 
                                                                                             X                     X                 
                                                                                             X                     X                 
                                                                                                                   X                 
                                                                                                                   X                 
                                                                                                                   X                 
                                                                                                                   X                 
 
 ***** Axes restored to original set *****
 -------------------------------------------------------------------
 Center     Atomic                   Forces (Hartrees/Bohr)
 Number     Number              X              Y              Z
 -------------------------------------------------------------------
      1        6           0.000143271    0.000156632   -0.000055055
      2        1           0.000006687    0.000093028   -0.000039453
      3        1          -0.000101157   -0.000070756   -0.000008825
      4        1          -0.000059778   -0.000002172    0.000015411
      5        8           0.000010976   -0.000176732    0.000087922
 -------------------------------------------------------------------
 Cartesian Forces:  Max     0.000176732 RMS     0.000088153
 Z-matrix is all fixed cartesians, so copy forces.
 Force constants in Cartesian coordinates: 
                1             2             3             4             5 
      1  0.446677D+00
      2  0.595626D-01  0.651571D+00
      3  0.224427D+00 -0.116666D+00  0.198809D+00
      4 -0.159895D-01 -0.372156D-01  0.379107D-02  0.905825D-01
      5  0.274316D-02 -0.815396D-02  0.455393D-02  0.158936D+00  0.462748D+00
      6 -0.115163D-01 -0.273902D-01 -0.372742D-03 -0.170724D-02 -0.729604D-01
      7 -0.117248D+00  0.112060D+00 -0.684706D-01  0.126632D-02  0.218148D-02
      8  0.113394D+00 -0.243443D+00  0.853758D-01  0.587855D-03  0.321142D-02
      9 -0.610350D-01  0.648847D-01 -0.452504D-01  0.200254D-02  0.172765D-03
     10 -0.839441D-01 -0.107072D+00 -0.431620D-03 -0.351087D-02 -0.949435D-03
     11 -0.108627D+00 -0.298489D+00  0.494123D-01 -0.148984D-03  0.249691D-02
     12  0.549725D-02  0.718962D-01 -0.313133D-01 -0.517170D-02 -0.869423D-03
     13 -0.229496D+00 -0.273352D-01 -0.159316D+00 -0.723484D-01 -0.162912D+00
     14 -0.670728D-01 -0.101485D+00 -0.226758D-01 -0.122160D+00 -0.460303D+00
     15 -0.157373D+00  0.727561D-02 -0.121872D+00  0.108532D-02  0.691031D-01
                6             7             8             9            10 
      6  0.342059D-01
      7  0.257972D-04  0.128844D+00
      8  0.435439D-03 -0.120612D+00  0.238025D+00
      9 -0.257019D-03  0.748528D-01 -0.822025D-01  0.505798D-01
     10 -0.393041D-02  0.868700D-02  0.150528D-01 -0.136270D-02  0.961442D-01
     11  0.568713D-03 -0.997828D-02 -0.969240D-02  0.275575D-02  0.120905D+00
     12  0.139131D-03  0.562276D-02  0.387575D-02  0.461748D-03  0.301981D-02
     13  0.171281D-01 -0.215501D-01 -0.842302D-02 -0.144576D-01 -0.173762D-01
     14  0.993464D-01  0.163484D-01  0.118993D-01  0.143892D-01 -0.279366D-01
     15 -0.337153D-01 -0.120308D-01 -0.748457D-02 -0.553413D-02  0.270492D-02
               11            12            13            14            15 
     11  0.306654D+00
     12 -0.519012D-01  0.293986D-01
     13 -0.215095D-02 -0.896812D-02  0.340771D+00
     14 -0.969570D-03 -0.230013D-01  0.200821D+00  0.550858D+00
     15 -0.835585D-03  0.131381D-02  0.165613D+00 -0.680586D-01  0.159808D+00
 Leave Link  716 at Sun Mar  4 21:13:37 2018, MaxMem=    33554432 cpu:         0.0
 (Enter /apl/tryton/gaussian/09/d01/g09/l103.exe)

 GradGradGradGradGradGradGradGradGradGradGradGradGradGradGradGradGradGrad
 Berny optimization.
 Search for a local minimum.
 Step number   1 out of a maximum of    2
 All quantities printed in internal units (Hartrees-Bohrs-Radians)
 Second derivative matrix not updated -- analytic derivatives used.
 The second derivative matrix:
                          X1        Y1        Z1        X2        Y2
           X1           0.44668
           Y1           0.05956   0.65157
           Z1           0.22443  -0.11667   0.19881
           X2          -0.01599  -0.03722   0.00379   0.09058
           Y2           0.00274  -0.00815   0.00455   0.15894   0.46275
           Z2          -0.01152  -0.02739  -0.00037  -0.00171  -0.07296
           X3          -0.11725   0.11206  -0.06847   0.00127   0.00218
           Y3           0.11339  -0.24344   0.08538   0.00059   0.00321
           Z3          -0.06104   0.06488  -0.04525   0.00200   0.00017
           X4          -0.08394  -0.10707  -0.00043  -0.00351  -0.00095
           Y4          -0.10863  -0.29849   0.04941  -0.00015   0.00250
           Z4           0.00550   0.07190  -0.03131  -0.00517  -0.00087
           X5          -0.22950  -0.02734  -0.15932  -0.07235  -0.16291
           Y5          -0.06707  -0.10149  -0.02268  -0.12216  -0.46030
           Z5          -0.15737   0.00728  -0.12187   0.00109   0.06910
                          Z2        X3        Y3        Z3        X4
           Z2           0.03421
           X3           0.00003   0.12884
           Y3           0.00044  -0.12061   0.23802
           Z3          -0.00026   0.07485  -0.08220   0.05058
           X4          -0.00393   0.00869   0.01505  -0.00136   0.09614
           Y4           0.00057  -0.00998  -0.00969   0.00276   0.12091
           Z4           0.00014   0.00562   0.00388   0.00046   0.00302
           X5           0.01713  -0.02155  -0.00842  -0.01446  -0.01738
           Y5           0.09935   0.01635   0.01190   0.01439  -0.02794
           Z5          -0.03372  -0.01203  -0.00748  -0.00553   0.00270
                          Y4        Z4        X5        Y5        Z5
           Y4           0.30665
           Z4          -0.05190   0.02940
           X5          -0.00215  -0.00897   0.34077
           Y5          -0.00097  -0.02300   0.20082   0.55086
           Z5          -0.00084   0.00131   0.16561  -0.06806   0.15981
 ITU=  0
     Eigenvalues ---    0.01060   0.02848   0.05036   0.10425   0.15801
     Eigenvalues ---    0.36576   0.75762   0.87876   1.05669
 Angle between quadratic step and forces=  62.33 degrees.
 Linear search not attempted -- first point.
 TrRot= -0.000118  0.000023 -0.000071  0.000015 -0.000333  0.000015
 MatCor failed.
 Variable       Old X    -DE/DX   Delta X   Delta X   Delta X     New X
                                 (Linear)    (Quad)   (Total)
    X1       -0.83945   0.00014   0.00000   0.00117   0.00154  -0.83791
    Y1       -0.58217   0.00016   0.00000   0.00003   0.00003  -0.58214
    Z1       -1.40204  -0.00006   0.00000  -0.00156  -0.00191  -1.40396
    X2        1.84647   0.00001   0.00000   0.00076   0.00067   1.84715
    Y2        1.56076   0.00009   0.00000  -0.00039  -0.00031   1.56045
    Z2       -0.23072  -0.00004   0.00000  -0.00071  -0.00017  -0.23089
    X3       -1.94589  -0.00010   0.00000  -0.00200  -0.00146  -1.94735
    Y3        1.00728  -0.00007   0.00000  -0.00069  -0.00073   1.00655
    Z3       -2.06685  -0.00001   0.00000   0.00148   0.00076  -2.06609
    X4       -1.67020  -0.00006   0.00000  -0.00057  -0.00025  -1.67046
    Y4       -2.42059  -0.00000   0.00000   0.00095   0.00093  -2.41967
    Z4       -1.09984   0.00002   0.00000   0.00080   0.00017  -1.09967
    X5        1.25498   0.00001   0.00000  -0.00038  -0.00050   1.25448
    Y5       -0.13696  -0.00018   0.00000   0.00002   0.00008  -0.13688
    Z5        0.04135   0.00009   0.00000   0.00080   0.00115   0.04249
         Item               Value     Threshold  Converged?
 Maximum Force            0.000177     0.000450     YES
 RMS     Force            0.000088     0.000300     YES
 Maximum Displacement     0.001914     0.001800     NO 
 RMS     Displacement     0.000909     0.001200     YES
 Predicted change in Energy=-3.012770D-07
 GradGradGradGradGradGradGradGradGradGradGradGradGradGradGradGradGradGrad

 Leave Link  103 at Sun Mar  4 21:13:37 2018, MaxMem=    33554432 cpu:         0.0
 (Enter /apl/tryton/gaussian/09/d01/g09/l9999.exe)
 1\1\ CITASK-GV1324\Freq\UB3LYP\6-311++G(d,p)\C1H3O1(2)\EERD\04-Mar-201
 8\0\\#p b3lyp/6-311++g(d,p) freq\\min\\0,2\C,-0.444218,-0.308069,-0.74
 193\H,0.977111,0.825916,-0.122094\H,-1.02972,0.53303,-1.093732\H,-0.88
 3833,-1.280923,-0.582011\O,0.664107,-0.072478,0.021879\\Version=ES64L-
 G09RevD.01\State=2-A\HF=-115.1025349\S2=0.753619\S2-1=0.\S2A=0.750009\
 RMSD=3.666e-09\RMSF=8.815e-05\ZeroPoint=0.037031\Thermal=0.040437\Dipo
 le=-0.1273957,0.6107184,-0.1366608\DipoleDeriv=0.5123668,0.1572401,0.5
 511403,0.1726425,0.2282047,0.0102923,0.5222226,0.0037083,-0.0145499,0.
 3216234,0.0013874,-0.0414435,0.0058389,0.2212913,0.070809,-0.0284832,0
 .0736426,0.3099352,-0.003419,0.0271825,-0.1007575,0.0675165,-0.0691291
 ,0.0547146,-0.0927054,0.001289,0.146449,0.0376807,-0.0458299,-0.063423
 5,-0.0655313,-0.022748,0.0449509,-0.0300505,0.0902601,0.1271999,-0.868
 2519,-0.1399801,-0.3455157,-0.1804666,-0.3576188,-0.1807668,-0.3709835
 ,-0.1689,-0.5690342\Polar=20.0728268,1.3575551,17.8510923,1.7700687,0.
 6538566,18.1655682\PG=C01 [X(C1H3O1)]\NImag=0\\0.44667743,0.05956256,0
 .65157089,0.22442689,-0.11666631,0.19880870,-0.01598952,-0.03721560,0.
 00379107,0.09058249,0.00274316,-0.00815396,0.00455393,0.15893649,0.462
 74825,-0.01151626,-0.02739019,-0.00037274,-0.00170724,-0.07296041,0.03
 420588,-0.11724772,0.11206030,-0.06847057,0.00126632,0.00218148,0.0000
 2580,0.12884449,0.11339427,-0.24344292,0.08537584,0.00058785,0.0032114
 2,0.00043544,-0.12061192,0.23802464,-0.06103504,0.06488473,-0.04525039
 ,0.00200254,0.00017277,-0.00025702,0.07485279,-0.08220246,0.05057979,-
 0.08394408,-0.10707211,-0.00043162,-0.00351087,-0.00094944,-0.00393041
 ,0.00868700,0.01505282,-0.00136270,0.09614418,-0.10862715,-0.29848875,
 0.04941231,-0.00014898,0.00249691,0.00056871,-0.00997828,-0.00969240,0
 .00275575,0.12090536,0.30665381,0.00549725,0.07189615,-0.03131331,-0.0
 0517170,-0.00086942,0.00013913,0.00562276,0.00387575,0.00046175,0.0030
 1981,-0.05190118,0.02939862,-0.22949610,-0.02733516,-0.15931577,-0.072
 34842,-0.16291169,0.01712810,-0.02155010,-0.00842302,-0.01445760,-0.01
 737623,-0.00215095,-0.00896812,0.34077085,-0.06707284,-0.10148526,-0.0
 2267577,-0.12215977,-0.46030261,0.09934644,0.01634841,0.01189927,0.014
 38922,-0.02793663,-0.00096957,-0.02300130,0.20082082,0.55085817,-0.157
 37284,0.00727561,-0.12187225,0.00108532,0.06910313,-0.03371525,-0.0120
 3078,-0.00748457,-0.00553413,0.00270492,-0.00083558,0.00131381,0.16561
 338,-0.06805859,0.15980783\\-0.00014327,-0.00015663,0.00005505,-0.0000
 0669,-0.00009303,0.00003945,0.00010116,0.00007076,0.00000883,0.0000597
 8,0.00000217,-0.00001541,-0.00001098,0.00017673,-0.00008792\\\@


 TO DRY ONE'S EYES AND LAUGH AT A FALL
 AND BAFFLED, GET UP AND BEGIN AGAIN.
           R. BROWNING
 Job cpu time:       0 days  0 hours  0 minutes 37.3 seconds.
 File lengths (MBytes):  RWF=      9 Int=      0 D2E=      0 Chk=      1 Scr=      1
 Normal termination of Gaussian 09 at Sun Mar  4 21:13:37 2018.
