 Entering Gaussian System, Link 0=g09
 Initial command:
 /apl/tryton/gaussian/09/d01/g09/l1.exe "/users/work/eerd/M3C-outputs/5/Gau-6685.inp" -scrdir="/users/work/eerd/M3C-outputs/5/"
 Entering Link 1 = /apl/tryton/gaussian/09/d01/g09/l1.exe PID=      6686.
  
 Copyright (c) 1988,1990,1992,1993,1995,1998,2003,2009,2013,
            Gaussian, Inc.  All Rights Reserved.
  
 This is part of the Gaussian(R) 09 program.  It is based on
 the Gaussian(R) 03 system (copyright 2003, Gaussian, Inc.),
 the Gaussian(R) 98 system (copyright 1998, Gaussian, Inc.),
 the Gaussian(R) 94 system (copyright 1995, Gaussian, Inc.),
 the Gaussian 92(TM) system (copyright 1992, Gaussian, Inc.),
 the Gaussian 90(TM) system (copyright 1990, Gaussian, Inc.),
 the Gaussian 88(TM) system (copyright 1988, Gaussian, Inc.),
 the Gaussian 86(TM) system (copyright 1986, Carnegie Mellon
 University), and the Gaussian 82(TM) system (copyright 1983,
 Carnegie Mellon University). Gaussian is a federally registered
 trademark of Gaussian, Inc.
  
 This software contains proprietary and confidential information,
 including trade secrets, belonging to Gaussian, Inc.
  
 This software is provided under written license and may be
 used, copied, transmitted, or stored only in accord with that
 written license.
  
 The following legend is applicable only to US Government
 contracts under FAR:
  
                    RESTRICTED RIGHTS LEGEND
  
 Use, reproduction and disclosure by the US Government is
 subject to restrictions as set forth in subparagraphs (a)
 and (c) of the Commercial Computer Software - Restricted
 Rights clause in FAR 52.227-19.
  
 Gaussian, Inc.
 340 Quinnipiac St., Bldg. 40, Wallingford CT 06492
  
  
 ---------------------------------------------------------------
 Warning -- This program may not be used in any manner that
 competes with the business of Gaussian, Inc. or will provide
 assistance to any competitor of Gaussian, Inc.  The licensee
 of this program is prohibited from giving any competitor of
 Gaussian, Inc. access to this program.  By using this program,
 the user acknowledges that Gaussian, Inc. is engaged in the
 business of creating and licensing software in the field of
 computational chemistry and represents and warrants to the
 licensee that it is not a competitor of Gaussian, Inc. and that
 it will not use this program in any manner prohibited above.
 ---------------------------------------------------------------
  

 Cite this work as:
 Gaussian 09, Revision D.01,
 M. J. Frisch, G. W. Trucks, H. B. Schlegel, G. E. Scuseria, 
 M. A. Robb, J. R. Cheeseman, G. Scalmani, V. Barone, B. Mennucci, 
 G. A. Petersson, H. Nakatsuji, M. Caricato, X. Li, H. P. Hratchian, 
 A. F. Izmaylov, J. Bloino, G. Zheng, J. L. Sonnenberg, M. Hada, 
 M. Ehara, K. Toyota, R. Fukuda, J. Hasegawa, M. Ishida, T. Nakajima, 
 Y. Honda, O. Kitao, H. Nakai, T. Vreven, J. A. Montgomery, Jr., 
 J. E. Peralta, F. Ogliaro, M. Bearpark, J. J. Heyd, E. Brothers, 
 K. N. Kudin, V. N. Staroverov, T. Keith, R. Kobayashi, J. Normand, 
 K. Raghavachari, A. Rendell, J. C. Burant, S. S. Iyengar, J. Tomasi, 
 M. Cossi, N. Rega, J. M. Millam, M. Klene, J. E. Knox, J. B. Cross, 
 V. Bakken, C. Adamo, J. Jaramillo, R. Gomperts, R. E. Stratmann, 
 O. Yazyev, A. J. Austin, R. Cammi, C. Pomelli, J. W. Ochterski, 
 R. L. Martin, K. Morokuma, V. G. Zakrzewski, G. A. Voth, 
 P. Salvador, J. J. Dannenberg, S. Dapprich, A. D. Daniels, 
 O. Farkas, J. B. Foresman, J. V. Ortiz, J. Cioslowski, 
 and D. J. Fox, Gaussian, Inc., Wallingford CT, 2013.
 
 ******************************************
 Gaussian 09:  ES64L-G09RevD.01 24-Apr-2013
                 4-Mar-2018 
 ******************************************
 ---------------------------
 #p b3lyp/6-311++g(d,p) freq
 ---------------------------
 1/10=4,30=1,38=1/1,3;
 2/12=2,17=6,18=5,40=1/2;
 3/5=4,6=6,7=1111,11=2,16=1,25=1,30=1,71=2,74=-5,140=1/1,2,3;
 4//1;
 5/5=2,38=5,98=1/2;
 8/6=4,10=90,11=11/1;
 11/6=1,8=1,9=11,15=111,16=1/1,2,10;
 10/6=1/2;
 6/7=2,8=2,9=2,10=2,18=1,28=1/1;
 7/8=1,10=1,25=1/1,2,3,16;
 1/10=4,30=1/3;
 99//99;
 Leave Link    1 at Sun Mar  4 21:13:00 2018, MaxMem=           0 cpu:         0.0
 (Enter /apl/tryton/gaussian/09/d01/g09/l101.exe)
 ---
 min
 ---
 Symbolic Z-matrix:
 Charge =  0 Multiplicity = 2
 C                    -0.12951  -0.20503  -0.42511 
 H                    -0.49764   0.54503   0.29064 
 H                    -0.45246   0.13552  -1.43017 
 H                    -0.60003  -1.18623  -0.26308 
 O                     1.23309  -0.26544  -0.48818 
 
 NAtoms=      5 NQM=        5 NQMF=       0 NMMI=      0 NMMIF=      0
                NMic=       0 NMicF=      0.
                    Isotopes and Nuclear Properties:
 (Nuclear quadrupole moments (NQMom) in fm**2, nuclear magnetic moments (NMagM)
  in nuclear magnetons)

  Atom         1           2           3           4           5
 IAtWgt=          12           1           1           1          16
 AtmWgt=  12.0000000   1.0078250   1.0078250   1.0078250  15.9949146
 NucSpn=           0           1           1           1           0
 AtZEff=   0.0000000   0.0000000   0.0000000   0.0000000   0.0000000
 NQMom=    0.0000000   0.0000000   0.0000000   0.0000000   0.0000000
 NMagM=    0.0000000   2.7928460   2.7928460   2.7928460   0.0000000
 AtZNuc=   6.0000000   1.0000000   1.0000000   1.0000000   8.0000000
 Leave Link  101 at Sun Mar  4 21:13:00 2018, MaxMem=    33554432 cpu:         0.1
 (Enter /apl/tryton/gaussian/09/d01/g09/l103.exe)

 GradGradGradGradGradGradGradGradGradGradGradGradGradGradGradGradGradGrad
 Berny optimization.
 Initialization pass.
 Trust Radius=3.00D-01 FncErr=1.00D-07 GrdErr=1.00D-07
 Number of steps in this run=      2 maximum allowed number of steps=      2.
 GradGradGradGradGradGradGradGradGradGradGradGradGradGradGradGradGradGrad

 Leave Link  103 at Sun Mar  4 21:13:00 2018, MaxMem=    33554432 cpu:         0.0
 (Enter /apl/tryton/gaussian/09/d01/g09/l202.exe)
                          Input orientation:                          
 ---------------------------------------------------------------------
 Center     Atomic      Atomic             Coordinates (Angstroms)
 Number     Number       Type             X           Y           Z
 ---------------------------------------------------------------------
      1          6           0       -0.129505   -0.205031   -0.425108
      2          1           0       -0.497642    0.545026    0.290637
      3          1           0       -0.452460    0.135525   -1.430173
      4          1           0       -0.600025   -1.186235   -0.263084
      5          8           0        1.233091   -0.265438   -0.488185
 ---------------------------------------------------------------------
                    Distance matrix (angstroms):
                    1          2          3          4          5
     1  C    0.000000
     2  H    1.100182   0.000000
     3  H    1.109249   1.769440   0.000000
     4  H    1.100182   1.820537   1.769440   0.000000
     5  O    1.365392   2.063699   1.972104   2.063699   0.000000
 Stoichiometry    CH3O(2)
 Framework group  CS[SG(CHO),X(H2)]
 Deg. of freedom     6
 Full point group                 CS      NOp   2
 Largest Abelian subgroup         CS      NOp   2
 Largest concise Abelian subgroup CS      NOp   2
                         Standard orientation:                         
 ---------------------------------------------------------------------
 Center     Atomic      Atomic             Coordinates (Angstroms)
 Number     Number       Type             X           Y           Z
 ---------------------------------------------------------------------
      1          6           0        0.011177   -0.574409   -0.000000
      2          1           0        0.451378   -1.008040    0.910268
      3          1           0       -1.059240   -0.865338    0.000000
      4          1           0        0.451378   -1.008040   -0.910268
      5          8           0        0.011177    0.790984    0.000000
 ---------------------------------------------------------------------
 Rotational constants (GHZ):    157.2384854     27.9974094     27.8030345
 Leave Link  202 at Sun Mar  4 21:13:00 2018, MaxMem=    33554432 cpu:         0.0
 (Enter /apl/tryton/gaussian/09/d01/g09/l301.exe)
 Standard basis: 6-311++G(d,p) (5D, 7F)
 Ernie: Thresh=  0.10000D-02 Tol=  0.10000D-05 Strict=F.
 There are    47 symmetry adapted cartesian basis functions of A'  symmetry.
 There are    20 symmetry adapted cartesian basis functions of A"  symmetry.
 There are    45 symmetry adapted basis functions of A'  symmetry.
 There are    20 symmetry adapted basis functions of A"  symmetry.
    65 basis functions,    99 primitive gaussians,    67 cartesian basis functions
     9 alpha electrons        8 beta electrons
       nuclear repulsion energy        34.3755179679 Hartrees.
 IExCor=  402 DFT=T Ex+Corr=B3LYP ExCW=0 ScaHFX=  0.200000
 ScaDFX=  0.800000  0.720000  1.000000  0.810000 ScalE2=  1.000000  1.000000
 IRadAn=      0 IRanWt=     -1 IRanGd=            0 ICorTp=0 IEmpDi=  4
 NAtoms=    5 NActive=    5 NUniq=    4 SFac= 1.56D+00 NAtFMM=   60 NAOKFM=F Big=F
 Integral buffers will be    131072 words long.
 Raffenetti 2 integral format.
 Two-electron integral symmetry is turned on.
 Leave Link  301 at Sun Mar  4 21:13:00 2018, MaxMem=    33554432 cpu:         0.0
 (Enter /apl/tryton/gaussian/09/d01/g09/l302.exe)
 NPDir=0 NMtPBC=     1 NCelOv=     1 NCel=       1 NClECP=     1 NCelD=      1
         NCelK=      1 NCelE2=     1 NClLst=     1 CellRange=     0.0.
 One-electron integrals computed using PRISM.
 One-electron integral symmetry used in STVInt
 NBasis=    65 RedAO= T EigKep=  1.51D-03  NBF=    45    20
 NBsUse=    65 1.00D-06 EigRej= -1.00D+00 NBFU=    45    20
 Precomputing XC quadrature grid using
 IXCGrd= 4 IRadAn=           0 IRanWt=          -1 IRanGd=           0 AccXCQ= 0.00D+00.
 Generated NRdTot=       0 NPtTot=           0 NUsed=           0 NTot=          32
 NSgBfM=    67    67    67    67    67 MxSgAt=     5 MxSgA2=     5.
 Leave Link  302 at Sun Mar  4 21:13:00 2018, MaxMem=    33554432 cpu:         0.1
 (Enter /apl/tryton/gaussian/09/d01/g09/l303.exe)
 DipDrv:  MaxL=1.
 Leave Link  303 at Sun Mar  4 21:13:00 2018, MaxMem=    33554432 cpu:         0.0
 (Enter /apl/tryton/gaussian/09/d01/g09/l401.exe)
 ExpMin= 3.60D-02 ExpMax= 8.59D+03 ExpMxC= 1.30D+03 IAcc=3 IRadAn=         5 AccDes= 0.00D+00
 Harris functional with IExCor=  402 and IRadAn=       5 diagonalized for initial guess.
 HarFok:  IExCor=  402 AccDes= 0.00D+00 IRadAn=         5 IDoV= 1 UseB2=F ITyADJ=14
 ICtDFT=  3500011 ScaDFX=  1.000000  1.000000  1.000000  1.000000
 FoFCou: FMM=F IPFlag=           0 FMFlag=      100000 FMFlg1=           0
         NFxFlg=           0 DoJE=T BraDBF=F KetDBF=T FulRan=T
         wScrn=  0.000000 ICntrl=     500 IOpCl=  0 I1Cent=   200000004 NGrid=           0
         NMat0=    1 NMatS0=      1 NMatT0=    0 NMatD0=    1 NMtDS0=    0 NMtDT0=    0
 Petite list used in FoFCou.
 Harris En= -115.074558032355    
 JPrj=0 DoOrth=F DoCkMO=F.
 Initial guess orbital symmetries:
 Alpha Orbitals:
       Occupied  (A') (A') (A') (A') (A") (A') (A') (A") (A')
       Virtual   (A') (A') (A") (A') (A') (A") (A') (A') (A') (A")
                 (A') (A') (A") (A') (A') (A') (A") (A') (A') (A")
                 (A') (A') (A') (A") (A') (A") (A') (A") (A') (A")
                 (A') (A') (A") (A') (A') (A') (A") (A') (A") (A')
                 (A") (A') (A') (A") (A') (A') (A') (A") (A') (A")
                 (A') (A") (A') (A') (A') (A')
 Beta  Orbitals:
       Occupied  (A') (A') (A') (A') (A") (A') (A') (A")
       Virtual   (A') (A') (A') (A") (A') (A') (A") (A') (A') (A')
                 (A") (A') (A') (A") (A') (A') (A') (A") (A') (A')
                 (A") (A') (A') (A') (A") (A') (A") (A') (A") (A')
                 (A") (A') (A') (A") (A') (A') (A') (A") (A') (A")
                 (A') (A") (A') (A') (A") (A') (A') (A') (A") (A')
                 (A") (A') (A") (A') (A') (A') (A')
 The electronic state of the initial guess is 2-A'.
 Initial guess <Sx>= 0.0000 <Sy>= 0.0000 <Sz>= 0.5000 <S**2>= 0.7500 S= 0.5000
 Leave Link  401 at Sun Mar  4 21:13:00 2018, MaxMem=    33554432 cpu:         0.5
 (Enter /apl/tryton/gaussian/09/d01/g09/l502.exe)
 UHF open shell SCF:
 Using DIIS extrapolation, IDIIS=  1040.
 Integral symmetry usage will be decided dynamically.
 Keep R1 and R2 ints in memory in symmetry-blocked form, NReq=3581390.
 IVT=       33019 IEndB=       33019 NGot=    33554432 MDV=    31154193
 LenX=    31154193 LenY=    31149263
 Requested convergence on RMS density matrix=1.00D-08 within 128 cycles.
 Requested convergence on MAX density matrix=1.00D-06.
 Requested convergence on             energy=1.00D-06.
 No special actions if energy rises.
 FoFCou: FMM=F IPFlag=           0 FMFlag=           0 FMFlg1=           0
         NFxFlg=           0 DoJE=F BraDBF=F KetDBF=F FulRan=T
         wScrn=  0.000000 ICntrl=     600 IOpCl=  0 I1Cent=           0 NGrid=           0
         NMat0=    1 NMatS0=   2145 NMatT0=    0 NMatD0=    1 NMtDS0=    0 NMtDT0=    0
 Petite list used in FoFCou.

 Cycle   1  Pass 1  IDiag  1:
 E= -115.047967761321    
 DIIS: error= 3.24D-02 at cycle   1 NSaved=   1.
 NSaved= 1 IEnMin= 1 EnMin= -115.047967761321     IErMin= 1 ErrMin= 3.24D-02
 ErrMax= 3.24D-02  0.00D+00 EMaxC= 1.00D-01 BMatC= 1.90D-01 BMatP= 1.90D-01
 IDIUse=3 WtCom= 6.76D-01 WtEn= 3.24D-01
 Coeff-Com:  0.100D+01
 Coeff-En:   0.100D+01
 Coeff:      0.100D+01
 Gap=     0.221 Goal=   None    Shift=    0.000
 Gap=     0.120 Goal=   None    Shift=    0.000
 GapD=    0.120 DampG=1.000 DampE=0.500 DampFc=0.5000 IDamp=-1.
 Damping current iteration by 5.00D-01
 RMSDP=4.94D-03 MaxDP=8.51D-02              OVMax= 1.64D-01

 Cycle   2  Pass 1  IDiag  1:
 E= -115.067854284120     Delta-E=       -0.019886522799 Rises=F Damp=T
 DIIS: error= 7.44D-03 at cycle   2 NSaved=   2.
 NSaved= 2 IEnMin= 2 EnMin= -115.067854284120     IErMin= 2 ErrMin= 7.44D-03
 ErrMax= 7.44D-03  0.00D+00 EMaxC= 1.00D-01 BMatC= 1.46D-02 BMatP= 1.90D-01
 IDIUse=3 WtCom= 9.26D-01 WtEn= 7.44D-02
 Coeff-Com:  0.206D-01 0.979D+00
 Coeff-En:   0.290D-01 0.971D+00
 Coeff:      0.212D-01 0.979D+00
 Gap=     0.296 Goal=   None    Shift=    0.000
 Gap=     0.123 Goal=   None    Shift=    0.000
 RMSDP=9.29D-04 MaxDP=1.82D-02 DE=-1.99D-02 OVMax= 7.33D-02

 Cycle   3  Pass 1  IDiag  1:
 E= -115.090966633886     Delta-E=       -0.023112349766 Rises=F Damp=F
 DIIS: error= 5.63D-03 at cycle   3 NSaved=   3.
 NSaved= 3 IEnMin= 3 EnMin= -115.090966633886     IErMin= 3 ErrMin= 5.63D-03
 ErrMax= 5.63D-03  0.00D+00 EMaxC= 1.00D-01 BMatC= 5.82D-03 BMatP= 1.46D-02
 IDIUse=3 WtCom= 9.44D-01 WtEn= 5.63D-02
 Coeff-Com: -0.580D-01 0.360D+00 0.698D+00
 Coeff-En:   0.000D+00 0.000D+00 0.100D+01
 Coeff:     -0.547D-01 0.340D+00 0.715D+00
 Gap=     0.283 Goal=   None    Shift=    0.000
 Gap=     0.124 Goal=   None    Shift=    0.000
 RMSDP=4.62D-04 MaxDP=9.79D-03 DE=-2.31D-02 OVMax= 3.39D-02

 Cycle   4  Pass 1  IDiag  1:
 E= -115.091673515403     Delta-E=       -0.000706881517 Rises=F Damp=F
 DIIS: error= 3.83D-03 at cycle   4 NSaved=   4.
 NSaved= 4 IEnMin= 4 EnMin= -115.091673515403     IErMin= 4 ErrMin= 3.83D-03
 ErrMax= 3.83D-03  0.00D+00 EMaxC= 1.00D-01 BMatC= 2.82D-03 BMatP= 5.82D-03
 IDIUse=3 WtCom= 9.62D-01 WtEn= 3.83D-02
 Coeff-Com: -0.358D-01 0.752D-01 0.444D+00 0.516D+00
 Coeff-En:   0.000D+00 0.000D+00 0.294D+00 0.706D+00
 Coeff:     -0.344D-01 0.723D-01 0.439D+00 0.524D+00
 Gap=     0.288 Goal=   None    Shift=    0.000
 Gap=     0.125 Goal=   None    Shift=    0.000
 RMSDP=2.66D-04 MaxDP=4.49D-03 DE=-7.07D-04 OVMax= 8.04D-03

 Cycle   5  Pass 1  IDiag  1:
 E= -115.092228676197     Delta-E=       -0.000555160794 Rises=F Damp=F
 DIIS: error= 6.67D-04 at cycle   5 NSaved=   5.
 NSaved= 5 IEnMin= 5 EnMin= -115.092228676197     IErMin= 5 ErrMin= 6.67D-04
 ErrMax= 6.67D-04  0.00D+00 EMaxC= 1.00D-01 BMatC= 4.52D-05 BMatP= 2.82D-03
 IDIUse=3 WtCom= 9.93D-01 WtEn= 6.67D-03
 Coeff-Com: -0.240D-02-0.268D-01 0.373D-01 0.116D+00 0.876D+00
 Coeff-En:   0.000D+00 0.000D+00 0.000D+00 0.000D+00 0.100D+01
 Coeff:     -0.239D-02-0.266D-01 0.370D-01 0.115D+00 0.877D+00
 Gap=     0.288 Goal=   None    Shift=    0.000
 Gap=     0.126 Goal=   None    Shift=    0.000
 RMSDP=4.82D-05 MaxDP=8.51D-04 DE=-5.55D-04 OVMax= 3.43D-03

 Cycle   6  Pass 1  IDiag  1:
 E= -115.092243699291     Delta-E=       -0.000015023094 Rises=F Damp=F
 DIIS: error= 1.28D-04 at cycle   6 NSaved=   6.
 NSaved= 6 IEnMin= 6 EnMin= -115.092243699291     IErMin= 6 ErrMin= 1.28D-04
 ErrMax= 1.28D-04  0.00D+00 EMaxC= 1.00D-01 BMatC= 1.61D-06 BMatP= 4.52D-05
 IDIUse=3 WtCom= 9.99D-01 WtEn= 1.28D-03
 Coeff-Com:  0.243D-02-0.319D-02-0.285D-01-0.464D-01-0.526D-01 0.113D+01
 Coeff-En:   0.000D+00 0.000D+00 0.000D+00 0.000D+00 0.000D+00 0.100D+01
 Coeff:      0.242D-02-0.318D-02-0.285D-01-0.463D-01-0.526D-01 0.113D+01
 Gap=     0.289 Goal=   None    Shift=    0.000
 Gap=     0.126 Goal=   None    Shift=    0.000
 RMSDP=1.56D-05 MaxDP=2.21D-04 DE=-1.50D-05 OVMax= 1.07D-03

 Cycle   7  Pass 1  IDiag  1:
 E= -115.092244688943     Delta-E=       -0.000000989651 Rises=F Damp=F
 DIIS: error= 2.39D-05 at cycle   7 NSaved=   7.
 NSaved= 7 IEnMin= 7 EnMin= -115.092244688943     IErMin= 7 ErrMin= 2.39D-05
 ErrMax= 2.39D-05  0.00D+00 EMaxC= 1.00D-01 BMatC= 5.94D-08 BMatP= 1.61D-06
 IDIUse=1 WtCom= 1.00D+00 WtEn= 0.00D+00
 Coeff-Com:  0.845D-04 0.516D-03-0.134D-03-0.378D-02-0.216D-01-0.333D-01
 Coeff-Com:  0.106D+01
 Coeff:      0.845D-04 0.516D-03-0.134D-03-0.378D-02-0.216D-01-0.333D-01
 Coeff:      0.106D+01
 Gap=     0.289 Goal=   None    Shift=    0.000
 Gap=     0.126 Goal=   None    Shift=    0.000
 RMSDP=3.00D-06 MaxDP=4.16D-05 DE=-9.90D-07 OVMax= 1.20D-04

 Cycle   8  Pass 1  IDiag  1:
 E= -115.092244715559     Delta-E=       -0.000000026616 Rises=F Damp=F
 DIIS: error= 6.52D-06 at cycle   8 NSaved=   8.
 NSaved= 8 IEnMin= 8 EnMin= -115.092244715559     IErMin= 8 ErrMin= 6.52D-06
 ErrMax= 6.52D-06  0.00D+00 EMaxC= 1.00D-01 BMatC= 5.00D-09 BMatP= 5.94D-08
 IDIUse=1 WtCom= 1.00D+00 WtEn= 0.00D+00
 Coeff-Com: -0.186D-03 0.359D-03 0.187D-02 0.348D-02 0.260D-02-0.793D-01
 Coeff-Com:  0.849D-01 0.986D+00
 Coeff:     -0.186D-03 0.359D-03 0.187D-02 0.348D-02 0.260D-02-0.793D-01
 Coeff:      0.849D-01 0.986D+00
 Gap=     0.289 Goal=   None    Shift=    0.000
 Gap=     0.126 Goal=   None    Shift=    0.000
 RMSDP=7.87D-07 MaxDP=1.05D-05 DE=-2.66D-08 OVMax= 3.47D-05

 Cycle   9  Pass 1  IDiag  1:
 E= -115.092244717514     Delta-E=       -0.000000001955 Rises=F Damp=F
 DIIS: error= 6.94D-07 at cycle   9 NSaved=   9.
 NSaved= 9 IEnMin= 9 EnMin= -115.092244717514     IErMin= 9 ErrMin= 6.94D-07
 ErrMax= 6.94D-07  0.00D+00 EMaxC= 1.00D-01 BMatC= 1.26D-10 BMatP= 5.00D-09
 IDIUse=1 WtCom= 1.00D+00 WtEn= 0.00D+00
 Coeff-Com:  0.841D-05-0.388D-04-0.743D-04 0.136D-04 0.548D-03 0.385D-02
 Coeff-Com: -0.372D-01-0.570D-01 0.109D+01
 Coeff:      0.841D-05-0.388D-04-0.743D-04 0.136D-04 0.548D-03 0.385D-02
 Coeff:     -0.372D-01-0.570D-01 0.109D+01
 Gap=     0.289 Goal=   None    Shift=    0.000
 Gap=     0.126 Goal=   None    Shift=    0.000
 RMSDP=1.51D-07 MaxDP=1.85D-06 DE=-1.96D-09 OVMax= 7.49D-06

 Cycle  10  Pass 1  IDiag  1:
 E= -115.092244717592     Delta-E=       -0.000000000078 Rises=F Damp=F
 DIIS: error= 2.71D-07 at cycle  10 NSaved=  10.
 NSaved=10 IEnMin=10 EnMin= -115.092244717592     IErMin=10 ErrMin= 2.71D-07
 ErrMax= 2.71D-07  0.00D+00 EMaxC= 1.00D-01 BMatC= 9.12D-12 BMatP= 1.26D-10
 IDIUse=1 WtCom= 1.00D+00 WtEn= 0.00D+00
 Coeff-Com:  0.103D-04-0.211D-04-0.103D-03-0.173D-03-0.124D-03 0.412D-02
 Coeff-Com: -0.654D-02-0.521D-01 0.630D-01 0.992D+00
 Coeff:      0.103D-04-0.211D-04-0.103D-03-0.173D-03-0.124D-03 0.412D-02
 Coeff:     -0.654D-02-0.521D-01 0.630D-01 0.992D+00
 Gap=     0.289 Goal=   None    Shift=    0.000
 Gap=     0.126 Goal=   None    Shift=    0.000
 RMSDP=4.10D-08 MaxDP=4.50D-07 DE=-7.80D-11 OVMax= 2.49D-06

 Cycle  11  Pass 1  IDiag  1:
 E= -115.092244717598     Delta-E=       -0.000000000006 Rises=F Damp=F
 DIIS: error= 1.03D-07 at cycle  11 NSaved=  11.
 NSaved=11 IEnMin=11 EnMin= -115.092244717598     IErMin=11 ErrMin= 1.03D-07
 ErrMax= 1.03D-07  0.00D+00 EMaxC= 1.00D-01 BMatC= 1.70D-12 BMatP= 9.12D-12
 IDIUse=1 WtCom= 1.00D+00 WtEn= 0.00D+00
 Coeff-Com: -0.557D-06 0.337D-05-0.207D-05-0.617D-05-0.345D-04-0.425D-04
 Coeff-Com:  0.245D-02 0.533D-02-0.117D+00 0.111D+00 0.998D+00
 Coeff:     -0.557D-06 0.337D-05-0.207D-05-0.617D-05-0.345D-04-0.425D-04
 Coeff:      0.245D-02 0.533D-02-0.117D+00 0.111D+00 0.998D+00
 Gap=     0.289 Goal=   None    Shift=    0.000
 Gap=     0.126 Goal=   None    Shift=    0.000
 RMSDP=1.54D-08 MaxDP=2.11D-07 DE=-6.48D-12 OVMax= 1.05D-06

 Cycle  12  Pass 1  IDiag  1:
 E= -115.092244717599     Delta-E=       -0.000000000001 Rises=F Damp=F
 DIIS: error= 2.49D-08 at cycle  12 NSaved=  12.
 NSaved=12 IEnMin=12 EnMin= -115.092244717599     IErMin=12 ErrMin= 2.49D-08
 ErrMax= 2.49D-08  0.00D+00 EMaxC= 1.00D-01 BMatC= 9.97D-14 BMatP= 1.70D-12
 IDIUse=1 WtCom= 1.00D+00 WtEn= 0.00D+00
 Coeff-Com: -0.959D-06 0.206D-05 0.896D-05 0.135D-04 0.817D-05-0.395D-03
 Coeff-Com:  0.706D-03 0.600D-02-0.187D-01-0.567D-01 0.500D-01 0.102D+01
 Coeff:     -0.959D-06 0.206D-05 0.896D-05 0.135D-04 0.817D-05-0.395D-03
 Coeff:      0.706D-03 0.600D-02-0.187D-01-0.567D-01 0.500D-01 0.102D+01
 Gap=     0.289 Goal=   None    Shift=    0.000
 Gap=     0.126 Goal=   None    Shift=    0.000
 RMSDP=4.00D-09 MaxDP=5.44D-08 DE=-5.12D-13 OVMax= 3.10D-07

 SCF Done:  E(UB3LYP) =  -115.092244718     A.U. after   12 cycles
            NFock= 12  Conv=0.40D-08     -V/T= 2.0036
 <Sx>= 0.0000 <Sy>= 0.0000 <Sz>= 0.5000 <S**2>= 0.7535 S= 0.5017
 <L.S>= 0.000000000000E+00
 KE= 1.146792140167D+02 PE=-3.389984506398D+02 EE= 7.485147393759D+01
 Annihilation of the first spin contaminant:
 S**2 before annihilation     0.7535,   after     0.7500
 Leave Link  502 at Sun Mar  4 21:13:04 2018, MaxMem=    33554432 cpu:         3.9
 (Enter /apl/tryton/gaussian/09/d01/g09/l801.exe)
 DoSCS=F DFT=T ScalE2(SS,OS)=  1.000000  1.000000
 Range of M.O.s used for correlation:     1    65
 NBasis=    65 NAE=     9 NBE=     8 NFC=     0 NFV=     0
 NROrb=     65 NOA=     9 NOB=     8 NVA=    56 NVB=    57

 **** Warning!!: The largest alpha MO coefficient is  0.13076897D+02


 **** Warning!!: The largest beta MO coefficient is  0.13194996D+02

 Leave Link  801 at Sun Mar  4 21:13:05 2018, MaxMem=    33554432 cpu:         0.0
 (Enter /apl/tryton/gaussian/09/d01/g09/l1101.exe)
 Using compressed storage, NAtomX=     5.
 Will process      6 centers per pass.
 Leave Link 1101 at Sun Mar  4 21:13:05 2018, MaxMem=    33554432 cpu:         0.1
 (Enter /apl/tryton/gaussian/09/d01/g09/l1102.exe)
 Symmetrizing basis deriv contribution to polar:
 IMax=3 JMax=2 DiffMx= 0.00D+00
 Leave Link 1102 at Sun Mar  4 21:13:05 2018, MaxMem=    33554432 cpu:         0.0
 (Enter /apl/tryton/gaussian/09/d01/g09/l1110.exe)
 Forming Gx(P) for the SCF density, NAtomX=     5.
 Integral derivatives from FoFJK, PRISM(SPDF).
 Do as many integral derivatives as possible in FoFJK.
 G2DrvN: MDV=      33554288.
 G2DrvN: will do     6 centers at a time, making    1 passes.
 Calling FoFCou, ICntrl=  3107 FMM=F I1Cent=   0 AccDes= 0.00D+00.
 FoFJK:  IHMeth= 1 ICntrl=    3107 DoSepK=F KAlg= 0 I1Cent=   0 FoldK=F
 IRaf=         0 NMat=   1 IRICut=       1 DoRegI=T DoRafI=F ISym2E= 1.
 FoFCou: FMM=F IPFlag=           0 FMFlag=      100000 FMFlg1=           0
         NFxFlg=           0 DoJE=F BraDBF=F KetDBF=F FulRan=T
         wScrn=  0.000000 ICntrl=    3107 IOpCl=  1 I1Cent=           0 NGrid=           0
         NMat0=    1 NMatS0=      1 NMatT0=    0 NMatD0=    1 NMtDS0=    0 NMtDT0=    0
 Petite list used in FoFCou.
 End of G2Drv F.D. properties file   721 does not exist.
 End of G2Drv F.D. properties file   722 does not exist.
 End of G2Drv F.D. properties file   788 does not exist.
 Leave Link 1110 at Sun Mar  4 21:13:09 2018, MaxMem=    33554432 cpu:         4.2
 (Enter /apl/tryton/gaussian/09/d01/g09/l1002.exe)
 Minotr:  UHF open shell wavefunction.
          IDoAtm=11111
          Direct CPHF calculation.
          Differentiating once with respect to electric field.
                with respect to dipole field.
          Differentiating once with respect to nuclear coordinates.
          Using symmetry in CPHF.
          Requested convergence is 1.0D-08 RMS, and 1.0D-07 maximum.
          Secondary convergence is 1.0D-12 RMS, and 1.0D-12 maximum.
          NewPWx=T KeepS1=F KeepF1=F KeepIn=T MapXYZ=F SortEE=F KeepMc=T.
          MDV=      33554248 using IRadAn=       2.
 Generate precomputed XC quadrature information.
 Keep R1 and R2 ints in memory in symmetry-blocked form, NReq=3550486.
 FoFCou: FMM=F IPFlag=           0 FMFlag=           0 FMFlg1=           0
         NFxFlg=           0 DoJE=F BraDBF=F KetDBF=F FulRan=T
         wScrn=  0.000000 ICntrl=     600 IOpCl=  0 I1Cent=           0 NGrid=           0
         NMat0=    1 NMatS0=   2145 NMatT0=    0 NMatD0=    1 NMtDS0=    0 NMtDT0=    0
 Petite list used in FoFCou.
          Solving linear equations simultaneously, MaxMat=       0.
          There are    15 degrees of freedom in the 1st order CPHF.  IDoFFX=4 NUNeed=    15.
     15 vectors produced by pass  0 Test12= 6.40D-15 6.67D-09 XBig12= 2.89D+01 3.33D+00.
 AX will form    15 AO Fock derivatives at one time.
     15 vectors produced by pass  1 Test12= 6.40D-15 6.67D-09 XBig12= 5.96D+00 7.05D-01.
     15 vectors produced by pass  2 Test12= 6.40D-15 6.67D-09 XBig12= 1.01D-01 6.85D-02.
     15 vectors produced by pass  3 Test12= 6.40D-15 6.67D-09 XBig12= 5.10D-04 4.23D-03.
     15 vectors produced by pass  4 Test12= 6.40D-15 6.67D-09 XBig12= 3.88D-06 4.57D-04.
     15 vectors produced by pass  5 Test12= 6.40D-15 6.67D-09 XBig12= 2.06D-08 4.36D-05.
      7 vectors produced by pass  6 Test12= 6.40D-15 6.67D-09 XBig12= 6.68D-11 1.52D-06.
      3 vectors produced by pass  7 Test12= 6.40D-15 6.67D-09 XBig12= 1.49D-13 7.65D-08.
      1 vectors produced by pass  8 Test12= 6.40D-15 6.67D-09 XBig12= 1.00D-15 6.69D-09.
 InvSVY:  IOpt=1 It=  1 EMax= 6.22D-15
 Solved reduced A of dimension   101 with    15 vectors.
 FullF1:  Do perturbations    1 to    15.
 Isotropic polarizability for W=    0.000000       18.37 Bohr**3.
 End of Minotr F.D. properties file   721 does not exist.
 End of Minotr F.D. properties file   722 does not exist.
 End of Minotr F.D. properties file   788 does not exist.
 Leave Link 1002 at Sun Mar  4 21:13:22 2018, MaxMem=    33554432 cpu:        13.0
 (Enter /apl/tryton/gaussian/09/d01/g09/l601.exe)
 Copying SCF densities to generalized density rwf, IOpCl= 1 IROHF=0.

 **********************************************************************

            Population analysis using the SCF density.

 **********************************************************************

 Orbital symmetries:
 Alpha Orbitals:
       Occupied  (A') (A') (A') (A') (A') (A") (A') (A') (A")
       Virtual   (A') (A') (A") (A') (A') (A") (A') (A') (A') (A")
                 (A') (A') (A") (A') (A') (A') (A") (A') (A') (A")
                 (A') (A') (A') (A") (A') (A') (A") (A") (A') (A")
                 (A') (A') (A") (A') (A') (A') (A") (A') (A") (A')
                 (A') (A") (A') (A") (A') (A') (A') (A") (A') (A")
                 (A') (A') (A") (A') (A') (A')
 Beta  Orbitals:
       Occupied  (A') (A') (A') (A') (A") (A') (A') (A")
       Virtual   (A') (A') (A') (A") (A') (A') (A") (A') (A') (A')
                 (A") (A') (A') (A") (A') (A') (A') (A") (A') (A')
                 (A") (A') (A') (A") (A') (A') (A") (A') (A") (A')
                 (A") (A') (A') (A") (A') (A') (A') (A") (A') (A")
                 (A') (A") (A') (A') (A") (A') (A') (A') (A") (A')
                 (A") (A') (A") (A') (A') (A') (A')
 The electronic state is 2-A'.
 Alpha  occ. eigenvalues --  -19.17597 -10.23424  -1.03924  -0.68367  -0.49435
 Alpha  occ. eigenvalues --   -0.47299  -0.44736  -0.34119  -0.29838
 Alpha virt. eigenvalues --   -0.00965   0.02876   0.03068   0.03215   0.08605
 Alpha virt. eigenvalues --    0.09425   0.11333   0.15873   0.16568   0.17378
 Alpha virt. eigenvalues --    0.20486   0.21363   0.22180   0.24925   0.34507
 Alpha virt. eigenvalues --    0.39976   0.42426   0.57372   0.60625   0.61638
 Alpha virt. eigenvalues --    0.63460   0.84126   0.95332   0.97992   1.03695
 Alpha virt. eigenvalues --    1.12852   1.12899   1.41067   1.46137   1.50734
 Alpha virt. eigenvalues --    1.51238   1.60378   1.63839   1.69138   1.98434
 Alpha virt. eigenvalues --    2.07398   2.08731   2.35905   2.40557   2.43185
 Alpha virt. eigenvalues --    2.46172   2.46683   2.77181   2.79356   2.83488
 Alpha virt. eigenvalues --    3.01614   3.09529   3.21952   3.75042   3.77486
 Alpha virt. eigenvalues --    3.97023   4.92500   4.98158   5.51922  23.86938
 Alpha virt. eigenvalues --   49.80390
  Beta  occ. eigenvalues --  -19.15238 -10.23478  -0.98726  -0.66548  -0.46720
  Beta  occ. eigenvalues --   -0.45005  -0.42590  -0.27747
  Beta virt. eigenvalues --   -0.15145  -0.00881   0.03008   0.03068   0.03413
  Beta virt. eigenvalues --    0.08913   0.09511   0.11431   0.16304   0.16812
  Beta virt. eigenvalues --    0.17464   0.22126   0.22355   0.22397   0.25257
  Beta virt. eigenvalues --    0.35110   0.40865   0.42730   0.57931   0.61014
  Beta virt. eigenvalues --    0.61648   0.64002   0.84151   0.98524   0.98830
  Beta virt. eigenvalues --    1.05025   1.13712   1.16561   1.41835   1.48864
  Beta virt. eigenvalues --    1.51103   1.52013   1.61221   1.64383   1.70197
  Beta virt. eigenvalues --    1.99371   2.08397   2.09430   2.37083   2.41191
  Beta virt. eigenvalues --    2.44325   2.46986   2.47464   2.81368   2.86261
  Beta virt. eigenvalues --    2.87389   3.03397   3.15390   3.23064   3.76596
  Beta virt. eigenvalues --    3.77715   3.98892   5.00184   5.02761   5.53909
  Beta virt. eigenvalues --   23.86884  49.82802
          Condensed to atoms (all electrons):
               1          2          3          4          5
     1  C    4.950071   0.390283   0.370305   0.390283   0.184584
     2  H    0.390283   0.619230  -0.033599  -0.064042  -0.056152
     3  H    0.370305  -0.033599   0.557241  -0.033599  -0.034320
     4  H    0.390283  -0.064042  -0.033599   0.619230  -0.056152
     5  O    0.184584  -0.056152  -0.034320  -0.056152   8.139048
          Atomic-Atomic Spin Densities.
               1          2          3          4          5
     1  C   -0.046415   0.007212   0.032276   0.007212  -0.054079
     2  H    0.007212   0.022577  -0.015654   0.009852  -0.002364
     3  H    0.032276  -0.015654   0.144592  -0.015654  -0.033396
     4  H    0.007212   0.009852  -0.015654   0.022577  -0.002364
     5  O   -0.054079  -0.002364  -0.033396  -0.002364   0.990589
 Mulliken charges and spin densities:
               1          2
     1  C   -0.285526  -0.053795
     2  H    0.144281   0.021622
     3  H    0.173972   0.112164
     4  H    0.144281   0.021622
     5  O   -0.177007   0.898385
 Sum of Mulliken charges =   0.00000   1.00000
 Mulliken charges and spin densities with hydrogens summed into heavy atoms:
               1          2
     1  C    0.177007   0.101615
     5  O   -0.177007   0.898385
 APT charges:
               1
     1  C    0.122332
     2  H    0.001364
     3  H    0.113551
     4  H    0.001364
     5  O   -0.238611
 Sum of APT charges =   0.00000
 APT charges with hydrogens summed into heavy atoms:
               1
     1  C    0.238611
     5  O   -0.238611
 Electronic spatial extent (au):  <R**2>=             74.9180
 Charge=             -0.0000 electrons
 Dipole moment (field-independent basis, Debye):
    X=             -0.2281    Y=             -2.2277    Z=              0.0000  Tot=              2.2393
 Quadrupole moment (field-independent basis, Debye-Ang):
   XX=            -11.7265   YY=            -13.9076   ZZ=            -12.9105
   XY=              0.2392   XZ=              0.0000   YZ=             -0.0000
 Traceless Quadrupole moment (field-independent basis, Debye-Ang):
   XX=              1.1217   YY=             -1.0594   ZZ=             -0.0623
   XY=              0.2392   XZ=              0.0000   YZ=             -0.0000
 Octapole moment (field-independent basis, Debye-Ang**2):
  XXX=             -1.0705  YYY=              0.4323  ZZZ=              0.0000  XYY=             -0.1514
  XXY=              0.4788  XXZ=             -0.0000  XZZ=              0.5327  YZZ=             -0.3440
  YYZ=             -0.0000  XYZ=              0.0000
 Hexadecapole moment (field-independent basis, Debye-Ang**3):
 XXXX=            -17.2127 YYYY=            -58.0209 ZZZZ=            -19.9350 XXXY=              1.1019
 XXXZ=              0.0000 YYYX=              0.1996 YYYZ=             -0.0000 ZZZX=             -0.0000
 ZZZY=             -0.0000 XXYY=            -11.8911 XXZZ=             -6.3964 YYZZ=            -13.0980
 XXYZ=             -0.0000 YYXZ=              0.0000 ZZXY=             -0.5351
 N-N= 3.437551796785D+01 E-N=-3.389984507046D+02  KE= 1.146792140167D+02
 Symmetry A'   KE= 1.078532349833D+02
 Symmetry A"   KE= 6.825979033416D+00
  Exact polarizability:  15.599   0.090  21.073  -0.000   0.000  18.437
 Approx polarizability:  19.280   0.578  27.400   0.000  -0.000  19.917
                          Isotropic Fermi Contact Couplings
        Atom                 a.u.       MegaHertz       Gauss      10(-4) cm-1
     1  C(13)             -0.03416     -38.39965     -13.70195     -12.80875
     2  H(1)               0.01063      47.52867      16.95941      15.85386
     3  H(1)               0.05556     248.36357      88.62229      82.84517
     4  H(1)               0.01063      47.52867      16.95941      15.85386
     5  O(17)              0.05849     -35.45919     -12.65272     -11.82791
 --------------------------------------------------------
       Center         ----  Spin Dipole Couplings  ----
                      3XX-RR        3YY-RR        3ZZ-RR
 --------------------------------------------------------
     1   Atom        0.027152      0.025982     -0.053134
     2   Atom       -0.011410      0.010377      0.001033
     3   Atom        0.007447      0.009865     -0.017313
     4   Atom       -0.011410      0.010377      0.001033
     5   Atom        3.553874     -1.774199     -1.779675
 --------------------------------------------------------
                        XY            XZ            YZ
 --------------------------------------------------------
     1   Atom       -0.002576     -0.000000     -0.000000
     2   Atom       -0.006054      0.003131     -0.013920
     3   Atom        0.014735     -0.000000     -0.000000
     4   Atom       -0.006054     -0.003131      0.013920
     5   Atom        0.161285     -0.000000      0.000000
 --------------------------------------------------------


 ---------------------------------------------------------------------------------
              Anisotropic Spin Dipole Couplings in Principal Axis System
 ---------------------------------------------------------------------------------

       Atom             a.u.   MegaHertz   Gauss  10(-4) cm-1        Axes

              Baa    -0.0531    -7.130    -2.544    -2.378  0.0000  0.0000  1.0000
     1 C(13)  Bbb     0.0239     3.211     1.146     1.071  0.6239  0.7815 -0.0000
              Bcc     0.0292     3.919     1.399     1.307  0.7815 -0.6239  0.0000
 
              Baa    -0.0130    -6.944    -2.478    -2.316  0.9529  0.2930  0.0779
     2 H(1)   Bbb    -0.0087    -4.666    -1.665    -1.556 -0.2284  0.5247  0.8201
              Bcc     0.0218    11.610     4.143     3.873 -0.1994  0.7993 -0.5669
 
              Baa    -0.0173    -9.237    -3.296    -3.081  0.0000 -0.0000  1.0000
     3 H(1)   Bbb    -0.0061    -3.269    -1.167    -1.091  0.7355 -0.6776 -0.0000
              Bcc     0.0234    12.507     4.463     4.172  0.6776  0.7355 -0.0000
 
              Baa    -0.0130    -6.944    -2.478    -2.316  0.9529  0.2930 -0.0779
     4 H(1)   Bbb    -0.0087    -4.666    -1.665    -1.556  0.2284 -0.5247  0.8201
              Bcc     0.0218    11.610     4.143     3.873 -0.1994  0.7993  0.5669
 
              Baa    -1.7797   128.776    45.950    42.955  0.0000 -0.0000  1.0000
     5 O(17)  Bbb    -1.7791   128.733    45.935    42.941 -0.0302  0.9995  0.0000
              Bcc     3.5588  -257.509   -91.886   -85.896  0.9995  0.0302 -0.0000
 

 ---------------------------------------------------------------------------------

 No NMR shielding tensors so no spin-rotation constants.
 Leave Link  601 at Sun Mar  4 21:13:22 2018, MaxMem=    33554432 cpu:         0.2
 (Enter /apl/tryton/gaussian/09/d01/g09/l701.exe)
 Compute integral second derivatives.
 ... and contract with generalized density number  0.
 Leave Link  701 at Sun Mar  4 21:13:22 2018, MaxMem=    33554432 cpu:         0.2
 (Enter /apl/tryton/gaussian/09/d01/g09/l702.exe)
 L702 exits ... SP integral derivatives will be done elsewhere.
 Leave Link  702 at Sun Mar  4 21:13:22 2018, MaxMem=    33554432 cpu:         0.0
 (Enter /apl/tryton/gaussian/09/d01/g09/l703.exe)
 Compute integral second derivatives, UseDBF=F ICtDFT=           0.
 Integral derivatives from FoFJK, PRISM(SPDF).
 Calling FoFJK, ICntrl=    100127 FMM=F ISym2X=1 I1Cent= 0 IOpClX= 1 NMat=1 NMatS=1 NMatT=0.
 FoFJK:  IHMeth= 1 ICntrl=  100127 DoSepK=F KAlg= 0 I1Cent=   0 FoldK=F
 IRaf=         0 NMat=   1 IRICut=       1 DoRegI=T DoRafI=F ISym2E= 1.
 FoFCou: FMM=F IPFlag=           0 FMFlag=      100000 FMFlg1=         800
         NFxFlg=           0 DoJE=F BraDBF=F KetDBF=F FulRan=T
         wScrn=  0.000000 ICntrl=  100127 IOpCl=  1 I1Cent=           0 NGrid=           0
         NMat0=    1 NMatS0=      1 NMatT0=    0 NMatD0=    1 NMtDS0=    0 NMtDT0=    0
 Petite list used in FoFCou.
 Leave Link  703 at Sun Mar  4 21:13:27 2018, MaxMem=    33554432 cpu:         5.0
 (Enter /apl/tryton/gaussian/09/d01/g09/l716.exe)
 Dipole        =-8.97394398D-02-8.76432203D-01 4.38190111D-16
 Polarizability= 1.55990733D+01 8.99763354D-02 2.10725217D+01
                -2.10716493D-07 8.66970223D-07 1.84369022D+01
 Full mass-weighted force constant matrix:
 Low frequencies ---  -23.0486  -20.8002   -0.0004    0.0007    0.0011   25.8607
 Low frequencies ---  686.3855  957.8351 1104.0630
 Diagonal vibrational polarizability:
        0.3126075       0.4969946       5.3012490
 Harmonic frequencies (cm**-1), IR intensities (KM/Mole), Raman scattering
 activities (A**4/AMU), depolarization ratios for plane and unpolarized
 incident light, reduced masses (AMU), force constants (mDyne/A),
 and normal coordinates:
                      1                      2                      3
                     A"                     A'                     A'
 Frequencies --    686.3686               957.8351              1104.0630
 Red. masses --      1.3269                 1.5400                 3.9822
 Frc consts  --      0.3683                 0.8324                 2.8600
 IR Inten    --     86.8693                 0.8991                10.0333
  Atom  AN      X      Y      Z        X      Y      Z        X      Y      Z
     1   6    -0.00  -0.00   0.16     0.14   0.10   0.00    -0.09   0.37   0.00
     2   1     0.25  -0.44  -0.21    -0.29  -0.24   0.06     0.05   0.46   0.03
     3   1     0.00  -0.00  -0.60    -0.11   0.81  -0.00     0.12  -0.56  -0.00
     4   1    -0.25   0.44  -0.21    -0.29  -0.24  -0.06     0.05   0.46  -0.03
     5   8     0.00   0.00  -0.05    -0.06  -0.10  -0.00     0.05  -0.30  -0.00
                      4                      5                      6
                     A"                     A'                     A'
 Frequencies --   1353.6581              1364.9727              1510.2518
 Red. masses --      1.0268                 1.0926                 1.1084
 Frc consts  --      1.1085                 1.1994                 1.4896
 IR Inten    --     16.9155                24.3818                 6.4835
  Atom  AN      X      Y      Z        X      Y      Z        X      Y      Z
     1   6     0.00   0.00  -0.01    -0.05  -0.05   0.00     0.05  -0.08  -0.00
     2   1     0.33   0.49   0.03     0.43   0.32  -0.07    -0.32   0.47   0.41
     3   1     0.00   0.00  -0.54    -0.20   0.60   0.00     0.01   0.02   0.00
     4   1    -0.33  -0.49   0.03     0.43   0.32   0.07    -0.32   0.47  -0.41
     5   8     0.00  -0.00   0.04    -0.00  -0.04  -0.00     0.01   0.00  -0.00
                      7                      8                      9
                     A'                     A'                     A"
 Frequencies --   2892.9448              2965.5246              3007.7139
 Red. masses --      1.0462                 1.0691                 1.1012
 Frc consts  --      5.1587                 5.5393                 5.8695
 IR Inten    --      0.2503                43.2181                30.4224
  Atom  AN      X      Y      Z        X      Y      Z        X      Y      Z
     1   6    -0.05  -0.03   0.00    -0.07   0.03  -0.00    -0.00   0.00   0.09
     2   1    -0.12   0.09  -0.21     0.25  -0.25   0.56    -0.30   0.27  -0.57
     3   1     0.89   0.25   0.00     0.32   0.10  -0.00    -0.00  -0.00   0.05
     4   1    -0.12   0.09   0.21     0.25  -0.25  -0.56     0.30  -0.27  -0.57
     5   8    -0.00  -0.01   0.00    -0.00   0.00  -0.00     0.00   0.00   0.00

 -------------------
 - Thermochemistry -
 -------------------
 Temperature   298.150 Kelvin.  Pressure   1.00000 Atm.
 Atom     1 has atomic number  6 and mass  12.00000
 Atom     2 has atomic number  1 and mass   1.00783
 Atom     3 has atomic number  1 and mass   1.00783
 Atom     4 has atomic number  1 and mass   1.00783
 Atom     5 has atomic number  8 and mass  15.99491
 Molecular mass:    31.01839 amu.
 Principal axes and moments of inertia in atomic units:
                           1         2         3
     Eigenvalues --    11.47773  64.46101  64.91166
           X            0.00379   0.00000   0.99999
           Y            0.99999   0.00000  -0.00379
           Z           -0.00000   1.00000  -0.00000
 This molecule is an asymmetric top.
 Rotational symmetry number  1.
 Rotational temperatures (Kelvin)      7.54625     1.34366     1.33433
 Rotational constants (GHZ):         157.23849    27.99741    27.80303
 Zero-point vibrational energy      94764.2 (Joules/Mol)
                                   22.64918 (Kcal/Mol)
 Vibrational temperatures:    987.53  1378.11  1588.50  1947.61  1963.89
          (Kelvin)           2172.91  4162.30  4266.72  4327.42
 
 Zero-point correction=                           0.036094 (Hartree/Particle)
 Thermal correction to Energy=                    0.039135
 Thermal correction to Enthalpy=                  0.040079
 Thermal correction to Gibbs Free Energy=         0.013154
 Sum of electronic and zero-point Energies=           -115.056151
 Sum of electronic and thermal Energies=              -115.053110
 Sum of electronic and thermal Enthalpies=            -115.052166
 Sum of electronic and thermal Free Energies=         -115.079091
 
                     E (Thermal)             CV                S
                      KCal/Mol        Cal/Mol-Kelvin    Cal/Mol-Kelvin
 Total                   24.557              7.835             56.668
 Electronic               0.000              0.000              1.377
 Translational            0.889              2.981             36.229
 Rotational               0.889              2.981             18.513
 Vibrational             22.780              1.874              0.549
                       Q            Log10(Q)             Ln(Q)
 Total Bot       0.890444D-06         -6.050393        -13.931546
 Total V=0       0.356083D+11         10.551552         24.295846
 Vib (Bot)       0.264307D-16        -16.577892        -38.172007
 Vib (V=0)       0.105695D+01          0.024053          0.055385
 Electronic      0.200000D+01          0.301030          0.693147
 Translational   0.679022D+07          6.831884         15.730994
 Rotational      0.248076D+04          3.394584          7.816319
 
                                                                 min
                                                             IR Spectrum
 
     3 2  2                                                          1    11          1                                              
     0 9  8                                                          5    33          1     9           6                            
     0 6  9                                                          1    65          0     5           8                            
     8 6  3                                                          0    54          4     8           6                            
 
     X X  X                                                          X    XX          X     X           X                            
     X X                                                                  XX          X                 X                            
     X X                                                                  XX                            X                            
     X X                                                                  XX                            X                            
     X X                                                                  X                             X                            
     X X                                                                  X                             X                            
     X X                                                                                                X                            
       X                                                                                                X                            
       X                                                                                                X                            
       X                                                                                                X                            
                                                                                                        X                            
                                                                                                        X                            
                                                                                                        X                            
                                                                                                        X                            
                                                                                                        X                            
                                                                                                        X                            
                                                                                                        X                            
                                                                                                        X                            
                                                                                                        X                            
                                                                                                        X                            
 
 ***** Axes restored to original set *****
 -------------------------------------------------------------------
 Center     Atomic                   Forces (Hartrees/Bohr)
 Number     Number              X              Y              Z
 -------------------------------------------------------------------
      1        6           0.000049980   -0.000125129    0.000381987
      2        1          -0.000091650    0.000050568   -0.000130975
      3        1          -0.000211148    0.000043180   -0.000095964
      4        1          -0.000091999    0.000044676   -0.000132859
      5        8           0.000344816   -0.000013295   -0.000022189
 -------------------------------------------------------------------
 Cartesian Forces:  Max     0.000381987 RMS     0.000162382
 Z-matrix is all fixed cartesians, so copy forces.
 Force constants in Cartesian coordinates: 
                1             2             3             4             5 
      1  0.429808D+00
      2  0.169893D-01  0.430364D+00
      3 -0.532126D-01 -0.647030D-02  0.459368D+00
      4 -0.598644D-01  0.548189D-01  0.531873D-01  0.817461D-01
      5  0.333727D-01 -0.144952D+00 -0.103130D+00 -0.575985D-01  0.168459D+00
      6  0.488814D-01 -0.123468D+00 -0.154155D+00 -0.552605D-01  0.125444D+00
      7 -0.472056D-01  0.225054D-01 -0.610732D-01  0.441911D-02 -0.235233D-02
      8  0.161496D-01 -0.221508D-01  0.758037D-01 -0.102536D-01 -0.207463D-02
      9 -0.412012D-01  0.746286D-01 -0.222666D+00 -0.742857D-02  0.387429D-02
     10 -0.746203D-01 -0.930837D-01  0.156518D-01  0.758398D-02  0.984907D-02
     11 -0.738103D-01 -0.239115D+00  0.319470D-01 -0.827588D-02 -0.196095D-01
     12  0.267513D-01  0.518829D-01 -0.452367D-01 -0.118224D-01 -0.244358D-01
     13 -0.248118D+00 -0.122987D-02  0.454467D-01 -0.338848D-01  0.167291D-01
     14  0.729876D-02 -0.241467D-01  0.184979D-02  0.213091D-01 -0.182306D-02
     15  0.187811D-01  0.342673D-02 -0.373101D-01  0.213243D-01 -0.175217D-02
                6             7             8             9            10 
      6  0.159333D+00
      7  0.729751D-02  0.678834D-01
      8 -0.150706D-01 -0.246298D-01  0.514723D-01
      9 -0.186825D-01  0.691866D-01 -0.763816D-01  0.251608D+00
     10 -0.420759D-02  0.562107D-02  0.113130D-01 -0.515687D-03  0.997474D-01
     11  0.630282D-02 -0.429315D-02 -0.138938D-01  0.349524D-03  0.974538D-01
     12  0.736651D-02  0.884833D-02  0.178698D-01 -0.806527D-02 -0.171688D-01
     13  0.328921D-02 -0.307179D-01  0.742074D-02 -0.200411D-01 -0.383322D-01
     14  0.679174D-02  0.876985D-02 -0.133531D-01 -0.247078D-02 -0.255322D-01
     15  0.613821D-02 -0.242592D-01 -0.222133D-02 -0.219394D-02  0.624030D-02
               11            12            13            14            15 
     11  0.264973D+00
     12 -0.381437D-01  0.448175D-01
     13 -0.110745D-01 -0.660834D-02  0.351053D+00
     14  0.764470D-02 -0.717315D-02 -0.118455D-01  0.316782D-01
     15 -0.455629D-03  0.111790D-02 -0.220865D-01  0.100240D-02  0.322479D-01
 Leave Link  716 at Sun Mar  4 21:13:28 2018, MaxMem=    33554432 cpu:         0.0
 (Enter /apl/tryton/gaussian/09/d01/g09/l103.exe)

 GradGradGradGradGradGradGradGradGradGradGradGradGradGradGradGradGradGrad
 Berny optimization.
 Search for a local minimum.
 Step number   1 out of a maximum of    2
 All quantities printed in internal units (Hartrees-Bohrs-Radians)
 Second derivative matrix not updated -- analytic derivatives used.
 The second derivative matrix:
                          X1        Y1        Z1        X2        Y2
           X1           0.42981
           Y1           0.01699   0.43036
           Z1          -0.05321  -0.00647   0.45937
           X2          -0.05986   0.05482   0.05319   0.08175
           Y2           0.03337  -0.14495  -0.10313  -0.05760   0.16846
           Z2           0.04888  -0.12347  -0.15416  -0.05526   0.12544
           X3          -0.04721   0.02251  -0.06107   0.00442  -0.00235
           Y3           0.01615  -0.02215   0.07580  -0.01025  -0.00207
           Z3          -0.04120   0.07463  -0.22267  -0.00743   0.00387
           X4          -0.07462  -0.09308   0.01565   0.00758   0.00985
           Y4          -0.07381  -0.23911   0.03195  -0.00828  -0.01961
           Z4           0.02675   0.05188  -0.04524  -0.01182  -0.02444
           X5          -0.24812  -0.00123   0.04545  -0.03388   0.01673
           Y5           0.00730  -0.02415   0.00185   0.02131  -0.00182
           Z5           0.01878   0.00343  -0.03731   0.02132  -0.00175
                          Z2        X3        Y3        Z3        X4
           Z2           0.15933
           X3           0.00730   0.06788
           Y3          -0.01507  -0.02463   0.05147
           Z3          -0.01868   0.06919  -0.07638   0.25161
           X4          -0.00421   0.00562   0.01131  -0.00052   0.09975
           Y4           0.00630  -0.00429  -0.01389   0.00035   0.09745
           Z4           0.00737   0.00885   0.01787  -0.00807  -0.01717
           X5           0.00329  -0.03072   0.00742  -0.02004  -0.03833
           Y5           0.00679   0.00877  -0.01335  -0.00247  -0.02553
           Z5           0.00614  -0.02426  -0.00222  -0.00219   0.00624
                          Y4        Z4        X5        Y5        Z5
           Y4           0.26497
           Z4          -0.03814   0.04482
           X5          -0.01107  -0.00661   0.35105
           Y5           0.00764  -0.00717  -0.01185   0.03168
           Z5          -0.00046   0.00112  -0.02209   0.00100   0.03225
 ITU=  0
     Eigenvalues ---    0.04056   0.06944   0.08460   0.10925   0.12493
     Eigenvalues ---    0.34282   0.57392   0.64163   0.71124
 Angle between quadratic step and forces=  45.29 degrees.
 ClnCor:  largest displacement from symmetrization is 4.52D-11 for atom     4.
 Linear search not attempted -- first point.
 ClnCor:  largest displacement from symmetrization is 1.46D-15 for atom     4.
 TrRot=  0.000465 -0.000099  0.000220 -0.000002 -0.000015 -0.000002
 Variable       Old X    -DE/DX   Delta X   Delta X   Delta X     New X
                                 (Linear)    (Quad)   (Total)
    X1       -0.24473   0.00005   0.00000   0.00051   0.00098  -0.24375
    Y1       -0.38745  -0.00013   0.00000  -0.00025  -0.00035  -0.38780
    Z1       -0.80334   0.00038   0.00000   0.00068   0.00090  -0.80244
    X2       -0.94041  -0.00009   0.00000  -0.00088  -0.00042  -0.94083
    Y2        1.02995   0.00005   0.00000   0.00075   0.00065   1.03060
    Z2        0.54922  -0.00013   0.00000  -0.00122  -0.00101   0.54821
    X3       -0.85502  -0.00021   0.00000  -0.00199  -0.00149  -0.85651
    Y3        0.25610   0.00004   0.00000  -0.00013  -0.00023   0.25588
    Z3       -2.70264  -0.00010   0.00000   0.00078   0.00099  -2.70164
    X4       -1.13388  -0.00009   0.00000  -0.00091  -0.00045  -1.13433
    Y4       -2.24166   0.00004   0.00000   0.00020   0.00010  -2.24156
    Z4       -0.49716  -0.00013   0.00000  -0.00139  -0.00119  -0.49835
    X5        2.33020   0.00034   0.00000   0.00090   0.00137   2.33158
    Y5       -0.50160  -0.00001   0.00000  -0.00007  -0.00018  -0.50179
    Z5       -0.92254  -0.00002   0.00000   0.00006   0.00031  -0.92222
         Item               Value     Threshold  Converged?
 Maximum Force            0.000382     0.000450     YES
 RMS     Force            0.000162     0.000300     YES
 Maximum Displacement     0.001487     0.001800     YES
 RMS     Displacement     0.000833     0.001200     YES
 Predicted change in Energy=-7.606819D-07
 Optimization completed.
    -- Stationary point found.
 GradGradGradGradGradGradGradGradGradGradGradGradGradGradGradGradGradGrad

 Leave Link  103 at Sun Mar  4 21:13:28 2018, MaxMem=    33554432 cpu:         0.0
 (Enter /apl/tryton/gaussian/09/d01/g09/l9999.exe)
 1\1\ CITASK-GV1323\Freq\UB3LYP\6-311++G(d,p)\C1H3O1(2)\EERD\04-Mar-201
 8\0\\#p b3lyp/6-311++g(d,p) freq\\min\\0,2\C,-0.129505257,-0.205030790
 2,-0.4251083461\H,-0.49764201,0.545026472,0.29063658\H,-0.452459739,0.
 1355247798,-1.4301732197\H,-0.6000250099,-1.1862345277,-0.2630844209\O
 ,1.233091177,-0.26543764,-0.488184674\\Version=ES64L-G09RevD.01\State=
 2-A'\HF=-115.0922447\S2=0.753497\S2-1=0.\S2A=0.750009\RMSD=4.001e-09\R
 MSF=1.624e-04\ZeroPoint=0.0360938\Thermal=0.0391348\Dipole=-0.8773722,
 0.0662463,-0.0448992\DipoleDeriv=0.1931057,0.0546616,-0.2239481,0.0688
 782,-0.0677681,-0.0940386,-0.2683986,-0.09141,0.241657,-0.0092744,0.10
 21074,0.0598074,0.0227109,0.0460781,-0.0916351,0.1147614,-0.1567067,-0
 .0327118,0.1026063,0.002136,0.0253295,-0.0021073,0.2471813,0.0896076,0
 .0385968,0.0888229,-0.0091335,-0.0287775,-0.1214272,-0.0010769,-0.0907
 36,-0.075495,0.0488984,0.096251,0.1049644,0.1083644,-0.2576601,-0.0374
 779,0.1398881,0.0012541,-0.1499964,0.0471678,0.0187893,0.0543293,-0.30
 81761\Polar=21.0645756,-0.1174982,18.1785532,-0.1184846,0.8294779,15.8
 653683\PG=CS [SG(C1H1O1),X(H2)]\NImag=0\\0.42980801,0.01698927,0.43036
 397,-0.05321256,-0.00647030,0.45936824,-0.05986438,0.05481889,0.053187
 27,0.08174607,0.03337266,-0.14495178,-0.10313022,-0.05759853,0.1684589
 3,0.04888141,-0.12346789,-0.15415542,-0.05526054,0.12544393,0.15933321
 ,-0.04720563,0.02250541,-0.06107320,0.00441911,-0.00235233,0.00729751,
 0.06788335,0.01614962,-0.02215080,0.07580374,-0.01025356,-0.00207463,-
 0.01507059,-0.02462978,0.05147231,-0.04120124,0.07462855,-0.22266605,-
 0.00742857,0.00387429,-0.01868251,0.06918659,-0.07638158,0.25160776,-0
 .07462027,-0.09308370,0.01565179,0.00758398,0.00984907,-0.00420759,0.0
 0562107,0.01131299,-0.00051569,0.09974745,-0.07381031,-0.23911465,0.03
 194699,-0.00827588,-0.01960946,0.00630282,-0.00429315,-0.01389383,0.00
 034952,0.09745383,0.26497324,0.02675125,0.05188291,-0.04523667,-0.0118
 2243,-0.02443582,0.00736651,0.00884833,0.01786976,-0.00806527,-0.01716
 882,-0.03814370,0.04481753,-0.24811773,-0.00122987,0.04544670,-0.03388
 478,0.01672911,0.00328921,-0.03071790,0.00742074,-0.02004109,-0.038332
 22,-0.01107448,-0.00660834,0.35105264,0.00729876,-0.02414674,0.0018497
 9,0.02130908,-0.00182306,0.00679174,0.00876985,-0.01335305,-0.00247078
 ,-0.02553219,0.00764470,-0.00717315,-0.01184550,0.03167817,0.01878114,
 0.00342673,-0.03731011,0.02132427,-0.00175217,0.00613821,-0.02425923,-
 0.00222133,-0.00219394,0.00624030,-0.00045563,0.00111790,-0.02208649,0
 .00100240,0.03224794\\-0.00004998,0.00012513,-0.00038199,0.00009165,-0
 .00005057,0.00013097,0.00021115,-0.00004318,0.00009596,0.00009200,-0.0
 0004468,0.00013286,-0.00034482,0.00001329,0.00002219\\\@


 NO MATTER HOW THIN YOU SLICE IT, IT'S STILL BALONEY

                                   -- ALFRED E. SMITH
 Job cpu time:       0 days  0 hours  0 minutes 27.9 seconds.
 File lengths (MBytes):  RWF=      7 Int=      0 D2E=      0 Chk=      1 Scr=      1
 Normal termination of Gaussian 09 at Sun Mar  4 21:13:28 2018.
