 Entering Gaussian System, Link 0=g09
 Initial command:
 /apl/tryton/gaussian/09/d01/g09/l1.exe "/users/work/eerd/M3C-outputs/ionized/4/Gau-770.inp" -scrdir="/users/work/eerd/M3C-outputs/ionized/4/"
 Entering Link 1 = /apl/tryton/gaussian/09/d01/g09/l1.exe PID=       771.
  
 Copyright (c) 1988,1990,1992,1993,1995,1998,2003,2009,2013,
            Gaussian, Inc.  All Rights Reserved.
  
 This is part of the Gaussian(R) 09 program.  It is based on
 the Gaussian(R) 03 system (copyright 2003, Gaussian, Inc.),
 the Gaussian(R) 98 system (copyright 1998, Gaussian, Inc.),
 the Gaussian(R) 94 system (copyright 1995, Gaussian, Inc.),
 the Gaussian 92(TM) system (copyright 1992, Gaussian, Inc.),
 the Gaussian 90(TM) system (copyright 1990, Gaussian, Inc.),
 the Gaussian 88(TM) system (copyright 1988, Gaussian, Inc.),
 the Gaussian 86(TM) system (copyright 1986, Carnegie Mellon
 University), and the Gaussian 82(TM) system (copyright 1983,
 Carnegie Mellon University). Gaussian is a federally registered
 trademark of Gaussian, Inc.
  
 This software contains proprietary and confidential information,
 including trade secrets, belonging to Gaussian, Inc.
  
 This software is provided under written license and may be
 used, copied, transmitted, or stored only in accord with that
 written license.
  
 The following legend is applicable only to US Government
 contracts under FAR:
  
                    RESTRICTED RIGHTS LEGEND
  
 Use, reproduction and disclosure by the US Government is
 subject to restrictions as set forth in subparagraphs (a)
 and (c) of the Commercial Computer Software - Restricted
 Rights clause in FAR 52.227-19.
  
 Gaussian, Inc.
 340 Quinnipiac St., Bldg. 40, Wallingford CT 06492
  
  
 ---------------------------------------------------------------
 Warning -- This program may not be used in any manner that
 competes with the business of Gaussian, Inc. or will provide
 assistance to any competitor of Gaussian, Inc.  The licensee
 of this program is prohibited from giving any competitor of
 Gaussian, Inc. access to this program.  By using this program,
 the user acknowledges that Gaussian, Inc. is engaged in the
 business of creating and licensing software in the field of
 computational chemistry and represents and warrants to the
 licensee that it is not a competitor of Gaussian, Inc. and that
 it will not use this program in any manner prohibited above.
 ---------------------------------------------------------------
  

 Cite this work as:
 Gaussian 09, Revision D.01,
 M. J. Frisch, G. W. Trucks, H. B. Schlegel, G. E. Scuseria, 
 M. A. Robb, J. R. Cheeseman, G. Scalmani, V. Barone, B. Mennucci, 
 G. A. Petersson, H. Nakatsuji, M. Caricato, X. Li, H. P. Hratchian, 
 A. F. Izmaylov, J. Bloino, G. Zheng, J. L. Sonnenberg, M. Hada, 
 M. Ehara, K. Toyota, R. Fukuda, J. Hasegawa, M. Ishida, T. Nakajima, 
 Y. Honda, O. Kitao, H. Nakai, T. Vreven, J. A. Montgomery, Jr., 
 J. E. Peralta, F. Ogliaro, M. Bearpark, J. J. Heyd, E. Brothers, 
 K. N. Kudin, V. N. Staroverov, T. Keith, R. Kobayashi, J. Normand, 
 K. Raghavachari, A. Rendell, J. C. Burant, S. S. Iyengar, J. Tomasi, 
 M. Cossi, N. Rega, J. M. Millam, M. Klene, J. E. Knox, J. B. Cross, 
 V. Bakken, C. Adamo, J. Jaramillo, R. Gomperts, R. E. Stratmann, 
 O. Yazyev, A. J. Austin, R. Cammi, C. Pomelli, J. W. Ochterski, 
 R. L. Martin, K. Morokuma, V. G. Zakrzewski, G. A. Voth, 
 P. Salvador, J. J. Dannenberg, S. Dapprich, A. D. Daniels, 
 O. Farkas, J. B. Foresman, J. V. Ortiz, J. Cioslowski, 
 and D. J. Fox, Gaussian, Inc., Wallingford CT, 2013.
 
 ******************************************
 Gaussian 09:  ES64L-G09RevD.01 24-Apr-2013
                24-Jan-2019 
 ******************************************
 ---------------------------
 #p b3lyp/6-311++g(d,p) freq
 ---------------------------
 1/10=4,30=1,38=1/1,3;
 2/12=2,17=6,18=5,40=1/2;
 3/5=4,6=6,7=1111,11=2,16=1,25=1,30=1,71=2,74=-5,140=1/1,2,3;
 4//1;
 5/5=2,38=5,98=1/2;
 8/6=4,10=90,11=11/1;
 11/6=1,8=1,9=11,15=111,16=1/1,2,10;
 10/6=1/2;
 6/7=2,8=2,9=2,10=2,18=1,28=1/1;
 7/8=1,10=1,25=1/1,2,3,16;
 1/10=4,30=1/3;
 99//99;
 Leave Link    1 at Thu Jan 24 15:35:02 2019, MaxMem=           0 cpu:         0.0
 (Enter /apl/tryton/gaussian/09/d01/g09/l101.exe)
 ---
 min
 ---
 Symbolic Z-matrix:
 Charge =  1 Multiplicity = 2
 H                     1.31297  -0.33334  -0.05061 
 H                    -0.79474   0.04364  -0.35657 
 H                     0.17318  -0.04397  -0.00667 
 H                    -0.69141   0.33367   0.41385 
 
 NAtoms=      4 NQM=        4 NQMF=       0 NMMI=      0 NMMIF=      0
                NMic=       0 NMicF=      0.
                    Isotopes and Nuclear Properties:
 (Nuclear quadrupole moments (NQMom) in fm**2, nuclear magnetic moments (NMagM)
  in nuclear magnetons)

  Atom         1           2           3           4
 IAtWgt=           1           1           1           1
 AtmWgt=   1.0078250   1.0078250   1.0078250   1.0078250
 NucSpn=           1           1           1           1
 AtZEff=   0.0000000   0.0000000   0.0000000   0.0000000
 NQMom=    0.0000000   0.0000000   0.0000000   0.0000000
 NMagM=    2.7928460   2.7928460   2.7928460   2.7928460
 AtZNuc=   1.0000000   1.0000000   1.0000000   1.0000000
 Leave Link  101 at Thu Jan 24 15:35:02 2019, MaxMem=    33554432 cpu:         0.0
 (Enter /apl/tryton/gaussian/09/d01/g09/l103.exe)

 GradGradGradGradGradGradGradGradGradGradGradGradGradGradGradGradGradGrad
 Berny optimization.
 Initialization pass.
 Trust Radius=3.00D-01 FncErr=1.00D-07 GrdErr=1.00D-07
 Number of steps in this run=      2 maximum allowed number of steps=      2.
 GradGradGradGradGradGradGradGradGradGradGradGradGradGradGradGradGradGrad

 Leave Link  103 at Thu Jan 24 15:35:02 2019, MaxMem=    33554432 cpu:         0.0
 (Enter /apl/tryton/gaussian/09/d01/g09/l202.exe)
                          Input orientation:                          
 ---------------------------------------------------------------------
 Center     Atomic      Atomic             Coordinates (Angstroms)
 Number     Number       Type             X           Y           Z
 ---------------------------------------------------------------------
      1          1           0        1.312971   -0.333345   -0.050606
      2          1           0       -0.794737    0.043644   -0.356567
      3          1           0        0.173176   -0.043967   -0.006675
      4          1           0       -0.691410    0.333667    0.413848
 ---------------------------------------------------------------------
                    Distance matrix (angstroms):
                    1          2          3          4
     1  H    0.000000
     2  H    2.162907   0.000000
     3  H    1.176776   1.032936   0.000000
     4  H    2.162907   0.829655   1.032936   0.000000
 Stoichiometry    H4(1+,2)
 Framework group  C2V[C2(HH),SGV(H2)]
 Deg. of freedom     3
 Full point group                 C2V     NOp   4
 Largest Abelian subgroup         C2V     NOp   4
 Largest concise Abelian subgroup C2      NOp   2
                         Standard orientation:                         
 ---------------------------------------------------------------------
 Center     Atomic      Atomic             Coordinates (Angstroms)
 Number     Number       Type             X           Y           Z
 ---------------------------------------------------------------------
      1          1           0       -0.000000    0.000000    1.355571
      2          1           0        0.000000    0.414828   -0.767183
      3          1           0       -0.000000    0.000000    0.178795
      4          1           0       -0.000000   -0.414828   -0.767183
 ---------------------------------------------------------------------
 Rotational constants (GHZ):   1457.0246663    164.5906217    147.8850116
 Leave Link  202 at Thu Jan 24 15:35:02 2019, MaxMem=    33554432 cpu:         0.0
 (Enter /apl/tryton/gaussian/09/d01/g09/l301.exe)
 Standard basis: 6-311++G(d,p) (5D, 7F)
 Ernie: Thresh=  0.10000D-02 Tol=  0.10000D-05 Strict=F.
 There are    16 symmetry adapted cartesian basis functions of A1  symmetry.
 There are     1 symmetry adapted cartesian basis functions of A2  symmetry.
 There are     3 symmetry adapted cartesian basis functions of B1  symmetry.
 There are     8 symmetry adapted cartesian basis functions of B2  symmetry.
 There are    16 symmetry adapted basis functions of A1  symmetry.
 There are     1 symmetry adapted basis functions of A2  symmetry.
 There are     3 symmetry adapted basis functions of B1  symmetry.
 There are     8 symmetry adapted basis functions of B2  symmetry.
    28 basis functions,    36 primitive gaussians,    28 cartesian basis functions
     2 alpha electrons        1 beta electrons
       nuclear repulsion energy         2.6014401275 Hartrees.
 IExCor=  402 DFT=T Ex+Corr=B3LYP ExCW=0 ScaHFX=  0.200000
 ScaDFX=  0.800000  0.720000  1.000000  0.810000 ScalE2=  1.000000  1.000000
 IRadAn=      0 IRanWt=     -1 IRanGd=            0 ICorTp=0 IEmpDi=  4
 NAtoms=    4 NActive=    4 NUniq=    3 SFac= 1.78D+00 NAtFMM=   60 NAOKFM=F Big=F
 Integral buffers will be    131072 words long.
 Raffenetti 2 integral format.
 Two-electron integral symmetry is turned on.
 Leave Link  301 at Thu Jan 24 15:35:02 2019, MaxMem=    33554432 cpu:         0.0
 (Enter /apl/tryton/gaussian/09/d01/g09/l302.exe)
 NPDir=0 NMtPBC=     1 NCelOv=     1 NCel=       1 NClECP=     1 NCelD=      1
         NCelK=      1 NCelE2=     1 NClLst=     1 CellRange=     0.0.
 One-electron integrals computed using PRISM.
 One-electron integral symmetry used in STVInt
 NBasis=    28 RedAO= T EigKep=  5.02D-03  NBF=    16     1     3     8
 NBsUse=    28 1.00D-06 EigRej= -1.00D+00 NBFU=    16     1     3     8
 Precomputing XC quadrature grid using
 IXCGrd= 4 IRadAn=           0 IRanWt=          -1 IRanGd=           0 AccXCQ= 0.00D+00.
 Generated NRdTot=       0 NPtTot=           0 NUsed=           0 NTot=          32
 NSgBfM=    28    28    28    28    28 MxSgAt=     4 MxSgA2=     4.
 Leave Link  302 at Thu Jan 24 15:35:03 2019, MaxMem=    33554432 cpu:         0.1
 (Enter /apl/tryton/gaussian/09/d01/g09/l303.exe)
 DipDrv:  MaxL=1.
 Leave Link  303 at Thu Jan 24 15:35:03 2019, MaxMem=    33554432 cpu:         0.0
 (Enter /apl/tryton/gaussian/09/d01/g09/l401.exe)
 ExpMin= 3.60D-02 ExpMax= 3.39D+01 ExpMxC= 3.39D+01 IAcc=3 IRadAn=         5 AccDes= 0.00D+00
 Harris functional with IExCor=  402 and IRadAn=       5 diagonalized for initial guess.
 HarFok:  IExCor=  402 AccDes= 0.00D+00 IRadAn=         5 IDoV= 1 UseB2=F ITyADJ=14
 ICtDFT=  3500011 ScaDFX=  1.000000  1.000000  1.000000  1.000000
 FoFCou: FMM=F IPFlag=           0 FMFlag=      100000 FMFlg1=           0
         NFxFlg=           0 DoJE=T BraDBF=F KetDBF=T FulRan=T
         wScrn=  0.000000 ICntrl=     500 IOpCl=  0 I1Cent=   200000004 NGrid=           0
         NMat0=    1 NMatS0=      1 NMatT0=    0 NMatD0=    1 NMtDS0=    0 NMtDT0=    0
 Petite list used in FoFCou.
 Harris En= -1.96134040753641    
 JPrj=0 DoOrth=F DoCkMO=F.
 Initial guess orbital symmetries:
 Alpha Orbitals:
       Occupied  (A1) (A1)
       Virtual   (B2) (A1) (A1) (A1) (B2) (A1) (A1) (A1) (A1) (B2)
                 (B1) (B2) (A1) (B1) (B2) (A1) (B1) (A2) (A1) (B2)
                 (B2) (A1) (A1) (A1) (B2) (A1)
 Beta  Orbitals:
       Occupied  (A1)
       Virtual   (A1) (B2) (A1) (A1) (A1) (B2) (A1) (A1) (A1) (A1)
                 (B2) (B1) (B2) (A1) (B1) (B2) (A1) (B1) (A2) (A1)
                 (B2) (B2) (A1) (A1) (A1) (B2) (A1)
 The electronic state of the initial guess is 2-A1.
 Initial guess <Sx>= 0.0000 <Sy>= 0.0000 <Sz>= 0.5000 <S**2>= 0.7500 S= 0.5000
 Leave Link  401 at Thu Jan 24 15:35:03 2019, MaxMem=    33554432 cpu:         0.2
 (Enter /apl/tryton/gaussian/09/d01/g09/l502.exe)
 UHF open shell SCF:
 Using DIIS extrapolation, IDIIS=  1040.
 Integral symmetry usage will be decided dynamically.
 Keep R1 and R2 ints in memory in symmetry-blocked form, NReq=965513.
 IVT=       21394 IEndB=       21394 NGot=    33554432 MDV=    33477127
 LenX=    33477127 LenY=    33475902
 Requested convergence on RMS density matrix=1.00D-08 within 128 cycles.
 Requested convergence on MAX density matrix=1.00D-06.
 Requested convergence on             energy=1.00D-06.
 No special actions if energy rises.
 FoFCou: FMM=F IPFlag=           0 FMFlag=           0 FMFlg1=           0
         NFxFlg=           0 DoJE=F BraDBF=F KetDBF=F FulRan=T
         wScrn=  0.000000 ICntrl=     600 IOpCl=  0 I1Cent=           0 NGrid=           0
         NMat0=    1 NMatS0=    406 NMatT0=    0 NMatD0=    1 NMtDS0=    0 NMtDT0=    0
 Petite list used in FoFCou.

 Cycle   1  Pass 1  IDiag  1:
 E= -1.85538879166241    
 DIIS: error= 1.69D-02 at cycle   1 NSaved=   1.
 NSaved= 1 IEnMin= 1 EnMin= -1.85538879166241     IErMin= 1 ErrMin= 1.69D-02
 ErrMax= 1.69D-02  0.00D+00 EMaxC= 1.00D-01 BMatC= 1.65D-02 BMatP= 1.65D-02
 IDIUse=3 WtCom= 8.31D-01 WtEn= 1.69D-01
 Coeff-Com:  0.100D+01
 Coeff-En:   0.100D+01
 Coeff:      0.100D+01
 Gap=     0.407 Goal=   None    Shift=    0.000
 Gap=     0.432 Goal=   None    Shift=    0.000
 GapD=    0.407 DampG=2.000 DampE=0.500 DampFc=1.0000 IDamp=-1.
 RMSDP=4.22D-03 MaxDP=7.08D-02              OVMax= 1.01D-01

 Cycle   2  Pass 1  IDiag  1:
 E= -1.86542622623045     Delta-E=       -0.010037434568 Rises=F Damp=F
 DIIS: error= 3.30D-03 at cycle   2 NSaved=   2.
 NSaved= 2 IEnMin= 2 EnMin= -1.86542622623045     IErMin= 2 ErrMin= 3.30D-03
 ErrMax= 3.30D-03  0.00D+00 EMaxC= 1.00D-01 BMatC= 6.65D-04 BMatP= 1.65D-02
 IDIUse=3 WtCom= 9.67D-01 WtEn= 3.30D-02
 Coeff-Com:  0.410D-01 0.959D+00
 Coeff-En:   0.000D+00 0.100D+01
 Coeff:      0.396D-01 0.960D+00
 Gap=     0.388 Goal=   None    Shift=    0.000
 Gap=     0.443 Goal=   None    Shift=    0.000
 RMSDP=5.72D-04 MaxDP=5.86D-03 DE=-1.00D-02 OVMax= 2.09D-02

 Cycle   3  Pass 1  IDiag  1:
 E= -1.86577391914072     Delta-E=       -0.000347692910 Rises=F Damp=F
 DIIS: error= 1.53D-03 at cycle   3 NSaved=   3.
 NSaved= 3 IEnMin= 3 EnMin= -1.86577391914072     IErMin= 3 ErrMin= 1.53D-03
 ErrMax= 1.53D-03  0.00D+00 EMaxC= 1.00D-01 BMatC= 7.61D-05 BMatP= 6.65D-04
 IDIUse=3 WtCom= 9.85D-01 WtEn= 1.53D-02
 Coeff-Com: -0.320D-01 0.168D+00 0.864D+00
 Coeff-En:   0.000D+00 0.000D+00 0.100D+01
 Coeff:     -0.315D-01 0.165D+00 0.866D+00
 Gap=     0.392 Goal=   None    Shift=    0.000
 Gap=     0.444 Goal=   None    Shift=    0.000
 RMSDP=1.61D-04 MaxDP=2.78D-03 DE=-3.48D-04 OVMax= 4.07D-03

 Cycle   4  Pass 1  IDiag  1:
 E= -1.86580704324834     Delta-E=       -0.000033124108 Rises=F Damp=F
 DIIS: error= 2.33D-04 at cycle   4 NSaved=   4.
 NSaved= 4 IEnMin= 4 EnMin= -1.86580704324834     IErMin= 4 ErrMin= 2.33D-04
 ErrMax= 2.33D-04  0.00D+00 EMaxC= 1.00D-01 BMatC= 1.01D-06 BMatP= 7.61D-05
 IDIUse=3 WtCom= 9.98D-01 WtEn= 2.33D-03
 Coeff-Com: -0.271D-02-0.157D-01 0.304D-01 0.988D+00
 Coeff-En:   0.000D+00 0.000D+00 0.000D+00 0.100D+01
 Coeff:     -0.270D-02-0.156D-01 0.303D-01 0.988D+00
 Gap=     0.392 Goal=   None    Shift=    0.000
 Gap=     0.445 Goal=   None    Shift=    0.000
 RMSDP=1.69D-05 MaxDP=1.16D-04 DE=-3.31D-05 OVMax= 9.59D-04

 Cycle   5  Pass 1  IDiag  1:
 E= -1.86580767073690     Delta-E=       -0.000000627489 Rises=F Damp=F
 DIIS: error= 2.12D-05 at cycle   5 NSaved=   5.
 NSaved= 5 IEnMin= 5 EnMin= -1.86580767073690     IErMin= 5 ErrMin= 2.12D-05
 ErrMax= 2.12D-05  0.00D+00 EMaxC= 1.00D-01 BMatC= 3.27D-08 BMatP= 1.01D-06
 IDIUse=1 WtCom= 1.00D+00 WtEn= 0.00D+00
 Coeff-Com:  0.375D-03-0.496D-02-0.200D-01 0.623D-01 0.962D+00
 Coeff:      0.375D-03-0.496D-02-0.200D-01 0.623D-01 0.962D+00
 Gap=     0.392 Goal=   None    Shift=    0.000
 Gap=     0.445 Goal=   None    Shift=    0.000
 RMSDP=5.43D-06 MaxDP=7.85D-05 DE=-6.27D-07 OVMax= 1.53D-04

 Cycle   6  Pass 1  IDiag  1:
 E= -1.86580768970026     Delta-E=       -0.000000018963 Rises=F Damp=F
 DIIS: error= 3.84D-06 at cycle   6 NSaved=   6.
 NSaved= 6 IEnMin= 6 EnMin= -1.86580768970026     IErMin= 6 ErrMin= 3.84D-06
 ErrMax= 3.84D-06  0.00D+00 EMaxC= 1.00D-01 BMatC= 6.49D-10 BMatP= 3.27D-08
 IDIUse=1 WtCom= 1.00D+00 WtEn= 0.00D+00
 Coeff-Com:  0.457D-04 0.538D-03 0.811D-03-0.282D-01-0.171D-01 0.104D+01
 Coeff:      0.457D-04 0.538D-03 0.811D-03-0.282D-01-0.171D-01 0.104D+01
 Gap=     0.392 Goal=   None    Shift=    0.000
 Gap=     0.445 Goal=   None    Shift=    0.000
 RMSDP=4.63D-07 MaxDP=5.73D-06 DE=-1.90D-08 OVMax= 1.64D-05

 Cycle   7  Pass 1  IDiag  1:
 E= -1.86580769002911     Delta-E=       -0.000000000329 Rises=F Damp=F
 DIIS: error= 4.00D-07 at cycle   7 NSaved=   7.
 NSaved= 7 IEnMin= 7 EnMin= -1.86580769002911     IErMin= 7 ErrMin= 4.00D-07
 ErrMax= 4.00D-07  0.00D+00 EMaxC= 1.00D-01 BMatC= 7.52D-12 BMatP= 6.49D-10
 IDIUse=1 WtCom= 1.00D+00 WtEn= 0.00D+00
 Coeff-Com: -0.876D-05-0.615D-04 0.985D-04 0.364D-02-0.745D-02-0.161D+00
 Coeff-Com:  0.116D+01
 Coeff:     -0.876D-05-0.615D-04 0.985D-04 0.364D-02-0.745D-02-0.161D+00
 Coeff:      0.116D+01
 Gap=     0.392 Goal=   None    Shift=    0.000
 Gap=     0.445 Goal=   None    Shift=    0.000
 RMSDP=6.11D-08 MaxDP=7.03D-07 DE=-3.29D-10 OVMax= 2.20D-06

 Cycle   8  Pass 1  IDiag  1:
 E= -1.86580769003514     Delta-E=       -0.000000000006 Rises=F Damp=F
 DIIS: error= 1.27D-07 at cycle   8 NSaved=   8.
 NSaved= 8 IEnMin= 8 EnMin= -1.86580769003514     IErMin= 8 ErrMin= 1.27D-07
 ErrMax= 1.27D-07  0.00D+00 EMaxC= 1.00D-01 BMatC= 4.96D-13 BMatP= 7.52D-12
 IDIUse=1 WtCom= 1.00D+00 WtEn= 0.00D+00
 Coeff-Com:  0.339D-05 0.168D-04-0.355D-04-0.150D-02 0.406D-02 0.595D-01
 Coeff-Com: -0.556D+00 0.149D+01
 Coeff:      0.339D-05 0.168D-04-0.355D-04-0.150D-02 0.406D-02 0.595D-01
 Coeff:     -0.556D+00 0.149D+01
 Gap=     0.392 Goal=   None    Shift=    0.000
 Gap=     0.445 Goal=   None    Shift=    0.000
 RMSDP=2.44D-08 MaxDP=2.28D-07 DE=-6.02D-12 OVMax= 7.07D-07

 Cycle   9  Pass 1  IDiag  1:
 E= -1.86580769003559     Delta-E=       -0.000000000000 Rises=F Damp=F
 DIIS: error= 5.66D-09 at cycle   9 NSaved=   9.
 NSaved= 9 IEnMin= 9 EnMin= -1.86580769003559     IErMin= 9 ErrMin= 5.66D-09
 ErrMax= 5.66D-09  0.00D+00 EMaxC= 1.00D-01 BMatC= 1.88D-15 BMatP= 4.96D-13
 IDIUse=1 WtCom= 1.00D+00 WtEn= 0.00D+00
 Coeff-Com: -0.310D-06-0.103D-05 0.602D-05 0.125D-03-0.538D-03-0.428D-02
 Coeff-Com:  0.493D-01-0.178D+00 0.113D+01
 Coeff:     -0.310D-06-0.103D-05 0.602D-05 0.125D-03-0.538D-03-0.428D-02
 Coeff:      0.493D-01-0.178D+00 0.113D+01
 Gap=     0.392 Goal=   None    Shift=    0.000
 Gap=     0.445 Goal=   None    Shift=    0.000
 RMSDP=1.23D-09 MaxDP=9.51D-09 DE=-4.57D-13 OVMax= 4.25D-08

 SCF Done:  E(UB3LYP) =  -1.86580769004     A.U. after    9 cycles
            NFock=  9  Conv=0.12D-08     -V/T= 2.0283
 <Sx>= 0.0000 <Sy>= 0.0000 <Sz>= 0.5000 <S**2>= 0.7520 S= 0.5010
 <L.S>= 0.000000000000E+00
 KE= 1.814520790492D+00 PE=-7.545540400540D+00 EE= 1.263771792472D+00
 Annihilation of the first spin contaminant:
 S**2 before annihilation     0.7520,   after     0.7500
 Leave Link  502 at Thu Jan 24 15:35:03 2019, MaxMem=    33554432 cpu:         0.6
 (Enter /apl/tryton/gaussian/09/d01/g09/l801.exe)
 DoSCS=F DFT=T ScalE2(SS,OS)=  1.000000  1.000000
 Range of M.O.s used for correlation:     1    28
 NBasis=    28 NAE=     2 NBE=     1 NFC=     0 NFV=     0
 NROrb=     28 NOA=     2 NOB=     1 NVA=    26 NVB=    27

 **** Warning!!: The largest alpha MO coefficient is  0.11250859D+02


 **** Warning!!: The largest beta MO coefficient is  0.10774998D+02

 Leave Link  801 at Thu Jan 24 15:35:04 2019, MaxMem=    33554432 cpu:         0.0
 (Enter /apl/tryton/gaussian/09/d01/g09/l1101.exe)
 Using compressed storage, NAtomX=     4.
 Will process      5 centers per pass.
 Leave Link 1101 at Thu Jan 24 15:35:04 2019, MaxMem=    33554432 cpu:         0.1
 (Enter /apl/tryton/gaussian/09/d01/g09/l1102.exe)
 Symmetrizing basis deriv contribution to polar:
 IMax=3 JMax=2 DiffMx= 0.00D+00
 Leave Link 1102 at Thu Jan 24 15:35:04 2019, MaxMem=    33554432 cpu:         0.0
 (Enter /apl/tryton/gaussian/09/d01/g09/l1110.exe)
 Forming Gx(P) for the SCF density, NAtomX=     4.
 Integral derivatives from FoFJK, PRISM(SPDF).
 Do as many integral derivatives as possible in FoFJK.
 G2DrvN: MDV=      33554296.
 G2DrvN: will do     5 centers at a time, making    1 passes.
 Calling FoFCou, ICntrl=  3107 FMM=F I1Cent=   0 AccDes= 0.00D+00.
 FoFJK:  IHMeth= 1 ICntrl=    3107 DoSepK=F KAlg= 0 I1Cent=   0 FoldK=F
 IRaf=         0 NMat=   1 IRICut=       1 DoRegI=T DoRafI=F ISym2E= 1.
 FoFCou: FMM=F IPFlag=           0 FMFlag=      100000 FMFlg1=           0
         NFxFlg=           0 DoJE=F BraDBF=F KetDBF=F FulRan=T
         wScrn=  0.000000 ICntrl=    3107 IOpCl=  1 I1Cent=           0 NGrid=           0
         NMat0=    1 NMatS0=      1 NMatT0=    0 NMatD0=    1 NMtDS0=    0 NMtDT0=    0
 Petite list used in FoFCou.
 End of G2Drv F.D. properties file   721 does not exist.
 End of G2Drv F.D. properties file   722 does not exist.
 End of G2Drv F.D. properties file   788 does not exist.
 Leave Link 1110 at Thu Jan 24 15:35:04 2019, MaxMem=    33554432 cpu:         0.5
 (Enter /apl/tryton/gaussian/09/d01/g09/l1002.exe)
 Minotr:  UHF open shell wavefunction.
          IDoAtm=1111
          Direct CPHF calculation.
          Differentiating once with respect to electric field.
                with respect to dipole field.
          Differentiating once with respect to nuclear coordinates.
          Using symmetry in CPHF.
          Requested convergence is 1.0D-08 RMS, and 1.0D-07 maximum.
          Secondary convergence is 1.0D-12 RMS, and 1.0D-12 maximum.
          NewPWx=T KeepS1=F KeepF1=F KeepIn=T MapXYZ=F SortEE=F KeepMc=T.
          MDV=      33554332 using IRadAn=       2.
 Generate precomputed XC quadrature information.
 Keep R1 and R2 ints in memory in symmetry-blocked form, NReq=944019.
 FoFCou: FMM=F IPFlag=           0 FMFlag=           0 FMFlg1=           0
         NFxFlg=           0 DoJE=F BraDBF=F KetDBF=F FulRan=T
         wScrn=  0.000000 ICntrl=     600 IOpCl=  0 I1Cent=           0 NGrid=           0
         NMat0=    1 NMatS0=    406 NMatT0=    0 NMatD0=    1 NMtDS0=    0 NMtDT0=    0
 Petite list used in FoFCou.
          Solving linear equations simultaneously, MaxMat=       0.
          There are    12 degrees of freedom in the 1st order CPHF.  IDoFFX=4 NUNeed=    12.
     12 vectors produced by pass  0 Test12= 6.58D-16 8.33D-09 XBig12= 1.94D+01 3.67D+00.
 AX will form    12 AO Fock derivatives at one time.
     12 vectors produced by pass  1 Test12= 6.58D-16 8.33D-09 XBig12= 2.82D-01 2.21D-01.
     12 vectors produced by pass  2 Test12= 6.58D-16 8.33D-09 XBig12= 3.40D-03 2.72D-02.
      8 vectors produced by pass  3 Test12= 6.58D-16 8.33D-09 XBig12= 1.41D-05 1.69D-03.
      6 vectors produced by pass  4 Test12= 6.58D-16 8.33D-09 XBig12= 1.45D-08 5.12D-05.
      2 vectors produced by pass  5 Test12= 6.58D-16 8.33D-09 XBig12= 9.04D-12 9.98D-07.
      1 vectors produced by pass  6 Test12= 6.58D-16 8.33D-09 XBig12= 7.02D-15 2.93D-08.
 InvSVY:  IOpt=1 It=  1 EMax= 8.88D-16
 Solved reduced A of dimension    53 with    12 vectors.
 FullF1:  Do perturbations    1 to    12.
 Isotropic polarizability for W=    0.000000        7.09 Bohr**3.
 End of Minotr F.D. properties file   721 does not exist.
 End of Minotr F.D. properties file   722 does not exist.
 End of Minotr F.D. properties file   788 does not exist.
 Leave Link 1002 at Thu Jan 24 15:35:06 2019, MaxMem=    33554432 cpu:         1.6
 (Enter /apl/tryton/gaussian/09/d01/g09/l601.exe)
 Copying SCF densities to generalized density rwf, IOpCl= 1 IROHF=0.

 **********************************************************************

            Population analysis using the SCF density.

 **********************************************************************

 Orbital symmetries:
 Alpha Orbitals:
       Occupied  (A1) (A1)
       Virtual   (B2) (A1) (A1) (A1) (B2) (A1) (A1) (A1) (A1) (B2)
                 (B1) (B2) (A1) (B1) (B2) (A1) (B1) (A2) (A1) (B2)
                 (B2) (A1) (A1) (A1) (A1) (B2)
 Beta  Orbitals:
       Occupied  (A1)
       Virtual   (A1) (B2) (A1) (A1) (A1) (B2) (A1) (A1) (A1) (B2)
                 (A1) (B1) (B2) (A1) (B1) (A1) (B2) (A2) (B1) (A1)
                 (B2) (B2) (A1) (A1) (A1) (B2) (A1)
 The electronic state is 2-A1.
 Alpha  occ. eigenvalues --   -0.96675  -0.68064
 Alpha virt. eigenvalues --   -0.28869  -0.27425  -0.14559  -0.10967  -0.07198
 Alpha virt. eigenvalues --   -0.05308   0.09681   0.15593   0.21380   0.23012
 Alpha virt. eigenvalues --    0.49881   0.76583   0.82545   0.84532   1.10290
 Alpha virt. eigenvalues --    1.13391   1.32881   1.36119   1.47077   1.75327
 Alpha virt. eigenvalues --    1.98474   2.02174   2.14837   2.41455   2.61835
 Alpha virt. eigenvalues --    2.64182
  Beta  occ. eigenvalues --   -0.93259
  Beta virt. eigenvalues --   -0.48755  -0.27790  -0.22052  -0.13010  -0.09437
  Beta virt. eigenvalues --   -0.06930  -0.04549   0.10427   0.19432   0.24011
  Beta virt. eigenvalues --    0.24413   0.51790   0.83524   0.89295   0.94891
  Beta virt. eigenvalues --    1.15305   1.18223   1.37818   1.38546   1.55749
  Beta virt. eigenvalues --    1.77527   2.01559   2.10846   2.23994   2.47269
  Beta virt. eigenvalues --    2.66370   2.66485
          Condensed to atoms (all electrons):
               1          2          3          4
     1  H    0.579364  -0.023957   0.174037  -0.023957
     2  H   -0.023957   0.414139   0.084163   0.258982
     3  H    0.174037   0.084163   0.485495   0.084163
     4  H   -0.023957   0.258982   0.084163   0.414139
          Atomic-Atomic Spin Densities.
               1          2          3          4
     1  H    0.572822  -0.026818   0.156797  -0.026818
     2  H   -0.026818   0.119056  -0.074909   0.081270
     3  H    0.156797  -0.074909   0.119841  -0.074909
     4  H   -0.026818   0.081270  -0.074909   0.119056
 Mulliken charges and spin densities:
               1          2
     1  H    0.294513   0.675983
     2  H    0.266673   0.098598
     3  H    0.172142   0.126820
     4  H    0.266673   0.098598
 Sum of Mulliken charges =   1.00000   1.00000
 Mulliken charges and spin densities with hydrogens summed into heavy atoms:
               1          2
 APT charges:
               1
     1  H    0.226232
     2  H    0.170367
     3  H    0.433034
     4  H    0.170367
 Sum of APT charges =   1.00000
 APT charges with hydrogens summed into heavy atoms:
               1
 Electronic spatial extent (au):  <R**2>=             13.5991
 Charge=              1.0000 electrons
 Dipole moment (field-independent basis, Debye):
    X=             -0.0000    Y=              0.0000    Z=              0.0173  Tot=              0.0173
 Quadrupole moment (field-independent basis, Debye-Ang):
   XX=             -2.5813   YY=             -1.5828   ZZ=              2.1599
   XY=              0.0000   XZ=             -0.0000   YZ=             -0.0000
 Traceless Quadrupole moment (field-independent basis, Debye-Ang):
   XX=             -1.9132   YY=             -0.9147   ZZ=              2.8280
   XY=              0.0000   XZ=             -0.0000   YZ=             -0.0000
 Octapole moment (field-independent basis, Debye-Ang**2):
  XXX=              0.0000  YYY=             -0.0000  ZZZ=              2.2581  XYY=              0.0000
  XXY=             -0.0000  XXZ=             -0.2254  XZZ=             -0.0000  YZZ=              0.0000
  YYZ=             -1.0091  XYZ=             -0.0000
 Hexadecapole moment (field-independent basis, Debye-Ang**3):
 XXXX=             -1.9854 YYYY=             -2.3984 ZZZZ=             -5.6782 XXXY=             -0.0000
 XXXZ=              0.0000 YYYX=             -0.0000 YYYZ=             -0.0000 ZZZX=             -0.0000
 ZZZY=             -0.0000 XXYY=             -0.7644 XXZZ=             -2.5859 YYZZ=             -2.0670
 XXYZ=             -0.0000 YYXZ=              0.0000 ZZXY=              0.0000
 N-N= 2.601440127540D+00 E-N=-7.545540391889D+00  KE= 1.814520790492D+00
 Symmetry A1   KE= 1.814520790492D+00
 Symmetry A2   KE= 9.031035816130D-33
 Symmetry B1   KE= 8.326026039620D-33
 Symmetry B2   KE= 3.444037770073D-19
  Exact polarizability:   1.762  -0.000   4.662  -0.000  -0.000  14.846
 Approx polarizability:   1.819   0.000   5.581  -0.000  -0.000  16.647
                          Isotropic Fermi Contact Couplings
        Atom                 a.u.       MegaHertz       Gauss      10(-4) cm-1
     1  H(1)               0.26294    1175.32311     419.38450     392.04559
     2  H(1)               0.05154     230.36603      82.20032      76.84183
     3  H(1)               0.02880     128.75166      45.94179      42.94693
     4  H(1)               0.05154     230.36603      82.20032      76.84183
 --------------------------------------------------------
       Center         ----  Spin Dipole Couplings  ----
                      3XX-RR        3YY-RR        3ZZ-RR
 --------------------------------------------------------
     1   Atom       -0.026233     -0.026729      0.052962
     2   Atom       -0.031473      0.034907     -0.003433
     3   Atom       -0.082037     -0.083723      0.165760
     4   Atom       -0.031473      0.034907     -0.003433
 --------------------------------------------------------
                        XY            XZ            YZ
 --------------------------------------------------------
     1   Atom       -0.000000     -0.000000      0.000000
     2   Atom        0.000000      0.000000      0.012474
     3   Atom       -0.000000     -0.000000      0.000000
     4   Atom        0.000000     -0.000000     -0.012474
 --------------------------------------------------------


 ---------------------------------------------------------------------------------
              Anisotropic Spin Dipole Couplings in Principal Axis System
 ---------------------------------------------------------------------------------

       Atom             a.u.   MegaHertz   Gauss  10(-4) cm-1        Axes

              Baa    -0.0267   -14.261    -5.089    -4.757 -0.0000  1.0000 -0.0000
     1 H(1)   Bbb    -0.0262   -13.997    -4.994    -4.669  1.0000  0.0000  0.0000
              Bcc     0.0530    28.258    10.083     9.426 -0.0000  0.0000  1.0000
 
              Baa    -0.0315   -16.793    -5.992    -5.601  1.0000 -0.0000 -0.0000
     2 H(1)   Bbb    -0.0071    -3.807    -1.358    -1.270 -0.0000 -0.2844  0.9587
              Bcc     0.0386    20.599     7.350     6.871  0.0000  0.9587  0.2844
 
              Baa    -0.0837   -44.671   -15.940   -14.901  0.0000  1.0000 -0.0000
     3 H(1)   Bbb    -0.0820   -43.771   -15.619   -14.600  1.0000 -0.0000  0.0000
              Bcc     0.1658    88.442    31.558    29.501 -0.0000  0.0000  1.0000
 
              Baa    -0.0315   -16.793    -5.992    -5.601  1.0000 -0.0000  0.0000
     4 H(1)   Bbb    -0.0071    -3.807    -1.358    -1.270 -0.0000  0.2844  0.9587
              Bcc     0.0386    20.599     7.350     6.871  0.0000  0.9587 -0.2844
 

 ---------------------------------------------------------------------------------

 No NMR shielding tensors so no spin-rotation constants.
 Leave Link  601 at Thu Jan 24 15:35:06 2019, MaxMem=    33554432 cpu:         0.2
 (Enter /apl/tryton/gaussian/09/d01/g09/l701.exe)
 Compute integral second derivatives.
 ... and contract with generalized density number  0.
 Leave Link  701 at Thu Jan 24 15:35:06 2019, MaxMem=    33554432 cpu:         0.1
 (Enter /apl/tryton/gaussian/09/d01/g09/l702.exe)
 L702 exits ... SP integral derivatives will be done elsewhere.
 Leave Link  702 at Thu Jan 24 15:35:06 2019, MaxMem=    33554432 cpu:         0.0
 (Enter /apl/tryton/gaussian/09/d01/g09/l703.exe)
 Compute integral second derivatives, UseDBF=F ICtDFT=           0.
 Integral derivatives from FoFJK, PRISM(SPDF).
 Calling FoFJK, ICntrl=    100127 FMM=F ISym2X=1 I1Cent= 0 IOpClX= 1 NMat=1 NMatS=1 NMatT=0.
 FoFJK:  IHMeth= 1 ICntrl=  100127 DoSepK=F KAlg= 0 I1Cent=   0 FoldK=F
 IRaf=         0 NMat=   1 IRICut=       1 DoRegI=T DoRafI=F ISym2E= 1.
 FoFCou: FMM=F IPFlag=           0 FMFlag=      100000 FMFlg1=         800
         NFxFlg=           0 DoJE=F BraDBF=F KetDBF=F FulRan=T
         wScrn=  0.000000 ICntrl=  100127 IOpCl=  1 I1Cent=           0 NGrid=           0
         NMat0=    1 NMatS0=      1 NMatT0=    0 NMatD0=    1 NMtDS0=    0 NMtDT0=    0
 Petite list used in FoFCou.
 Leave Link  703 at Thu Jan 24 15:35:07 2019, MaxMem=    33554432 cpu:         0.5
 (Enter /apl/tryton/gaussian/09/d01/g09/l716.exe)
 Dipole        =-7.75431841D-17 5.85469173D-18 6.82245021D-03
 Polarizability= 1.76238144D+00-1.52751665D-11 4.66154893D+00
                -1.18088889D-11-2.83149611D-08 1.48459518D+01
 Full mass-weighted force constant matrix:
 Low frequencies ---   -0.0002   -0.0001    0.0002   30.5951   30.7589   50.9614
 Low frequencies ---  683.2608  899.4505  938.8194
 Diagonal vibrational polarizability:
        0.1886753       0.8161743      13.3277538
 Harmonic frequencies (cm**-1), IR intensities (KM/Mole), Raman scattering
 activities (A**4/AMU), depolarization ratios for plane and unpolarized
 incident light, reduced masses (AMU), force constants (mDyne/A),
 and normal coordinates:
                      1                      2                      3
                     B2                     B1                     A1
 Frequencies --    683.2595               899.4500               938.8194
 Red. masses --      1.0078                 1.0078                 1.0078
 Frc consts  --      0.2772                 0.4804                 0.5234
 IR Inten    --      0.0020                 5.6720               206.4449
  Atom  AN      X      Y      Z        X      Y      Z        X      Y      Z
     1   1     0.00   0.44  -0.00     0.38  -0.00  -0.00     0.00   0.00   0.82
     2   1     0.00   0.06   0.48     0.24   0.00  -0.00     0.00   0.01  -0.13
     3   1    -0.00  -0.57   0.00    -0.86   0.00   0.00    -0.00  -0.00  -0.55
     4   1     0.00   0.06  -0.48     0.24  -0.00   0.00     0.00  -0.01  -0.13
                      4                      5                      6
                     B2                     A1                     A1
 Frequencies --   1632.9013              1717.2243              3469.3264
 Red. masses --      1.0078                 1.0078                 1.0078
 Frc consts  --      1.5833                 1.7510                 7.1470
 IR Inten    --     80.8550               704.1368               267.6603
  Atom  AN      X      Y      Z        X      Y      Z        X      Y      Z
     1   1     0.00  -0.11  -0.00    -0.00  -0.00   0.29    -0.00  -0.00   0.01
     2   1     0.00  -0.27   0.46    -0.00  -0.04  -0.48    -0.00   0.71  -0.03
     3   1    -0.00   0.64  -0.00     0.00   0.00   0.67     0.00   0.00   0.05
     4   1     0.00  -0.27  -0.46    -0.00   0.04  -0.48    -0.00  -0.71  -0.03

 -------------------
 - Thermochemistry -
 -------------------
 Temperature   298.150 Kelvin.  Pressure   1.00000 Atm.
 Atom     1 has atomic number  1 and mass   1.00783
 Atom     2 has atomic number  1 and mass   1.00783
 Atom     3 has atomic number  1 and mass   1.00783
 Atom     4 has atomic number  1 and mass   1.00783
 Molecular mass:     4.03130 amu.
 Principal axes and moments of inertia in atomic units:
                           1         2         3
     Eigenvalues --     1.23865  10.96503  12.20368
           X           -0.00000   0.00000   1.00000
           Y            0.00000   1.00000  -0.00000
           Z            1.00000  -0.00000   0.00000
 This molecule is an asymmetric top.
 Rotational symmetry number  2.
 Rotational temperatures (Kelvin)     69.92607     7.89909     7.09735
 Rotational constants (GHZ):        1457.02467   164.59062   147.88501
 Zero-point vibrational energy      55871.5 (Joules/Mol)
                                   13.35360 (Kcal/Mol)
 Vibrational temperatures:    983.06  1294.11  1350.75  2349.38  2470.70
          (Kelvin)           4991.58
 
 Zero-point correction=                           0.021280 (Hartree/Particle)
 Thermal correction to Energy=                    0.024338
 Thermal correction to Enthalpy=                  0.025282
 Thermal correction to Gibbs Free Energy=         0.004555
 Sum of electronic and zero-point Energies=             -1.844527
 Sum of electronic and thermal Energies=                -1.841470
 Sum of electronic and thermal Enthalpies=              -1.840526
 Sum of electronic and thermal Free Energies=           -1.861253
 
                     E (Thermal)             CV                S
                      KCal/Mol        Cal/Mol-Kelvin    Cal/Mol-Kelvin
 Total                   15.272              7.854             43.625
 Electronic               0.000              0.000              1.377
 Translational            0.889              2.981             30.146
 Rotational               0.889              2.981             11.503
 Vibrational             13.495              1.893              0.597
                       Q            Log10(Q)             Ln(Q)
 Total Bot       0.803508D-02         -2.095010         -4.823939
 Total V=0       0.493443D+08          7.693237         17.714333
 Vib (Bot)       0.173299D-09         -9.761204        -22.476002
 Vib (V=0)       0.106425D+01          0.027043          0.062269
 Electronic      0.200000D+01          0.301030          0.693147
 Translational   0.318143D+06          5.502623         12.670257
 Rotational      0.728687D+02          1.862541          4.288659
 
                                                                 min
                                                             IR Spectrum
 
     3                                                                1  1                                                           
     4                                                                7  6                        9 8      6                         
     6                                                                1  3                        3 9      8                         
     9                                                                7  3                        9 9      3                         
 
     X                                                                X  X                        X X                                
     X                                                                X  X                        X                                  
     X                                                                X                           X                                  
     X                                                                X                           X                                  
     X                                                                X                           X                                  
     X                                                                X                           X                                  
     X                                                                X                                                              
     X                                                                X                                                              
                                                                      X                                                              
                                                                      X                                                              
                                                                      X                                                              
                                                                      X                                                              
                                                                      X                                                              
                                                                      X                                                              
                                                                      X                                                              
                                                                      X                                                              
                                                                      X                                                              
                                                                      X                                                              
                                                                      X                                                              
                                                                      X                                                              
 
 ***** Axes restored to original set *****
 -------------------------------------------------------------------
 Center     Atomic                   Forces (Hartrees/Bohr)
 Number     Number              X              Y              Z
 -------------------------------------------------------------------
      1        1          -0.000049417    0.000012546    0.000001905
      2        1           0.000081173    0.000009477    0.000070540
      3        1          -0.000093270    0.000023680    0.000003595
      4        1           0.000061514   -0.000045703   -0.000076040
 -------------------------------------------------------------------
 Cartesian Forces:  Max     0.000093270 RMS     0.000054149
 Z-matrix is all fixed cartesians, so copy forces.
 Force constants in Cartesian coordinates: 
                1             2             3             4             5 
      1  0.302821D-01
      2 -0.653148D-02  0.620788D-02
      3 -0.978679D-03  0.290305D-03  0.467403D-02
      4 -0.183559D-01  0.584212D-02  0.196524D-02  0.580467D-01
      5  0.450708D-02  0.162922D-02 -0.252721D-03  0.389448D-02  0.302845D-01
      6 -0.130380D-02  0.525785D-03  0.333294D-02  0.423260D-01  0.719796D-01
      7  0.613372D-02 -0.419545D-02 -0.780281D-03 -0.372650D-01  0.304125D-02
      8 -0.419545D-02 -0.925544D-02 -0.267269D-03 -0.209733D-02 -0.632060D-02
      9 -0.780281D-03 -0.267269D-03 -0.112549D-01 -0.231695D-01  0.181896D-02
     10 -0.180599D-01  0.488482D-02 -0.206279D-03 -0.242583D-02 -0.114428D-01
     11  0.621986D-02  0.141834D-02  0.229684D-03 -0.763926D-02 -0.255931D-01
     12  0.306276D-02 -0.548822D-03  0.324790D-02 -0.211218D-01 -0.735458D-01
                6             7             8             9            10 
      6  0.202750D+00
      7 -0.105869D-01  0.594929D-01
      8 -0.117751D-02 -0.811351D-02  0.282414D-01
      9 -0.153961D-01  0.151584D-02  0.853450D-02  0.446057D-01
     10 -0.304353D-01 -0.283616D-01  0.144063D-01  0.224339D-01  0.488474D-01
     11 -0.713279D-01  0.926771D-02 -0.126653D-01 -0.100862D-01 -0.784831D-02
     12 -0.190687D+00  0.985135D-02 -0.708972D-02 -0.179548D-01  0.820766D-02
               11            12 
     11  0.368401D-01
     12  0.811844D-01  0.205394D+00
 Leave Link  716 at Thu Jan 24 15:35:07 2019, MaxMem=    33554432 cpu:         0.0
 (Enter /apl/tryton/gaussian/09/d01/g09/l103.exe)

 GradGradGradGradGradGradGradGradGradGradGradGradGradGradGradGradGradGrad
 Berny optimization.
 Search for a local minimum.
 Step number   1 out of a maximum of    2
 All quantities printed in internal units (Hartrees-Bohrs-Radians)
 Second derivative matrix not updated -- analytic derivatives used.
 The second derivative matrix:
                          X1        Y1        Z1        X2        Y2
           X1           0.03028
           Y1          -0.00653   0.00621
           Z1          -0.00098   0.00029   0.00467
           X2          -0.01836   0.00584   0.00197   0.05805
           Y2           0.00451   0.00163  -0.00025   0.00389   0.03028
           Z2          -0.00130   0.00053   0.00333   0.04233   0.07198
           X3           0.00613  -0.00420  -0.00078  -0.03727   0.00304
           Y3          -0.00420  -0.00926  -0.00027  -0.00210  -0.00632
           Z3          -0.00078  -0.00027  -0.01125  -0.02317   0.00182
           X4          -0.01806   0.00488  -0.00021  -0.00243  -0.01144
           Y4           0.00622   0.00142   0.00023  -0.00764  -0.02559
           Z4           0.00306  -0.00055   0.00325  -0.02112  -0.07355
                          Z2        X3        Y3        Z3        X4
           Z2           0.20275
           X3          -0.01059   0.05949
           Y3          -0.00118  -0.00811   0.02824
           Z3          -0.01540   0.00152   0.00853   0.04461
           X4          -0.03044  -0.02836   0.01441   0.02243   0.04885
           Y4          -0.07133   0.00927  -0.01267  -0.01009  -0.00785
           Z4          -0.19069   0.00985  -0.00709  -0.01795   0.00821
                          Y4        Z4
           Y4           0.03684
           Z4           0.08118   0.20539
 ITU=  0
     Eigenvalues ---    0.01781   0.03086   0.03362   0.10169   0.11247
     Eigenvalues ---    0.45906
 Angle between quadratic step and forces=  29.69 degrees.
 ClnCor:  largest displacement from symmetrization is 1.55D-11 for atom     3.
 Linear search not attempted -- first point.
 ClnCor:  largest displacement from symmetrization is 1.37D-15 for atom     2.
 TrRot=  0.000000 -0.000000 -0.000000  0.000000  0.000000  0.000000
 Variable       Old X    -DE/DX   Delta X   Delta X   Delta X     New X
                                 (Linear)    (Quad)   (Total)
    X1        2.48116  -0.00005   0.00000  -0.00059  -0.00059   2.48057
    Y1       -0.62993   0.00001   0.00000   0.00015   0.00015  -0.62978
    Z1       -0.09563   0.00000   0.00000   0.00002   0.00002  -0.09561
    X2       -1.50184   0.00008   0.00000   0.00065   0.00065  -1.50118
    Y2        0.08248   0.00001   0.00000  -0.00012  -0.00012   0.08236
    Z2       -0.67381   0.00007   0.00000   0.00010   0.00010  -0.67372
    X3        0.32726  -0.00009   0.00000  -0.00069  -0.00069   0.32657
    Y3       -0.08309   0.00002   0.00000   0.00017   0.00017  -0.08291
    Z3       -0.01261   0.00000   0.00000   0.00003   0.00003  -0.01259
    X4       -1.30658   0.00006   0.00000   0.00062   0.00062  -1.30595
    Y4        0.63054  -0.00005   0.00000  -0.00021  -0.00021   0.63033
    Z4        0.78206  -0.00008   0.00000  -0.00015  -0.00015   0.78191
         Item               Value     Threshold  Converged?
 Maximum Force            0.000093     0.000450     YES
 RMS     Force            0.000054     0.000300     YES
 Maximum Displacement     0.000687     0.001800     YES
 RMS     Displacement     0.000385     0.001200     YES
 Predicted change in Energy=-1.085397D-07
 Optimization completed.
    -- Stationary point found.
 GradGradGradGradGradGradGradGradGradGradGradGradGradGradGradGradGradGrad

 Leave Link  103 at Thu Jan 24 15:35:07 2019, MaxMem=    33554432 cpu:         0.0
 (Enter /apl/tryton/gaussian/09/d01/g09/l9999.exe)
 1\1\ CITASK-GV0222\Freq\UB3LYP\6-311++G(d,p)\H4(1+,2)\EERD\24-Jan-2019
 \0\\#p b3lyp/6-311++g(d,p) freq\\min\\1,2\H,1.312971371,-0.3333447441,
 -0.0506061001\H,-0.79473714,0.043644393,-0.356566747\H,0.173176242,-0.
 0439671999,-0.0066747639\H,-0.6914104725,0.3336665519,0.413847612\\Ver
 sion=ES64L-G09RevD.01\State=2-A1\HF=-1.8658077\S2=0.751984\S2-1=0.\S2A
 =0.75\RMSD=1.234e-09\RMSF=5.415e-05\ZeroPoint=0.0212803\Thermal=0.0243
 379\Dipole=0.006608,-0.0016777,-0.0002547\DipoleDeriv=0.1264337,0.0392
 565,0.0060203,0.0392565,0.27106,-0.0013317,0.0060203,-0.0013317,0.2812
 022,0.0053623,0.1191812,0.1390631,0.2211602,0.2064739,-0.0200806,0.388
 7735,-0.0795478,0.2992647,0.9946152,-0.2113917,-0.0451382,-0.2113917,0
 .2220882,-0.0308911,-0.0451382,-0.0308911,0.082399,-0.1264111,0.052954
 ,-0.0999452,-0.049025,0.300378,0.0523034,-0.3496555,0.1117707,0.337134
 \Polar=14.0815185,-2.9900164,2.9078234,-0.1377999,1.0612051,4.2805402\
 PG=C02V [C2(H1H1),SGV(H2)]\NImag=0\\0.03028207,-0.00653148,0.00620788,
 -0.00097868,0.00029031,0.00467403,-0.01835586,0.00584212,0.00196524,0.
 05804671,0.00450708,0.00162922,-0.00025272,0.00389448,0.03028448,-0.00
 130380,0.00052578,0.00333294,0.04232600,0.07197961,0.20275039,0.006133
 72,-0.00419545,-0.00078028,-0.03726502,0.00304125,-0.01058691,0.059492
 91,-0.00419545,-0.00925544,-0.00026727,-0.00209733,-0.00632060,-0.0011
 7751,-0.00811351,0.02824139,-0.00078028,-0.00026727,-0.01125487,-0.023
 16947,0.00181896,-0.01539607,0.00151584,0.00853450,0.04460569,-0.01805
 993,0.00488482,-0.00020628,-0.00242583,-0.01144281,-0.03043529,-0.0283
 6161,0.01440629,0.02243391,0.04884737,0.00621986,0.00141834,0.00022968
 ,-0.00763926,-0.02559310,-0.07132788,0.00926771,-0.01266534,-0.0100861
 9,-0.00784831,0.03684010,0.00306276,-0.00054882,0.00324790,-0.02112177
 ,-0.07354585,-0.19068726,0.00985135,-0.00708972,-0.01795475,0.00820766
 ,0.08118439,0.20539412\\0.00004942,-0.00001255,-0.00000190,-0.00008117
 ,-0.00000948,-0.00007054,0.00009327,-0.00002368,-0.00000359,-0.0000615
 1,0.00004570,0.00007604\\\@


 NOTHING WILL BE ATTEMPTED IF ALL POSSIBLE OBJECTIONS
 MUST FIRST BE OVERCOME.

                               -- THE GOLDEN PRINCIPLE,
                    PAUL DICKSON'S "THE OFFICIAL RULES"
 Job cpu time:       0 days  0 hours  0 minutes  4.3 seconds.
 File lengths (MBytes):  RWF=      5 Int=      0 D2E=      0 Chk=      1 Scr=      1
 Normal termination of Gaussian 09 at Thu Jan 24 15:35:07 2019.
