 Entering Gaussian System, Link 0=g09
 Initial command:
 /apl/tryton/gaussian/09/d01/g09/l1.exe "/users/work/eerd/M3C-outputs/7/Gau-10985.inp" -scrdir="/users/work/eerd/M3C-outputs/7/"
 Entering Link 1 = /apl/tryton/gaussian/09/d01/g09/l1.exe PID=     10986.
  
 Copyright (c) 1988,1990,1992,1993,1995,1998,2003,2009,2013,
            Gaussian, Inc.  All Rights Reserved.
  
 This is part of the Gaussian(R) 09 program.  It is based on
 the Gaussian(R) 03 system (copyright 2003, Gaussian, Inc.),
 the Gaussian(R) 98 system (copyright 1998, Gaussian, Inc.),
 the Gaussian(R) 94 system (copyright 1995, Gaussian, Inc.),
 the Gaussian 92(TM) system (copyright 1992, Gaussian, Inc.),
 the Gaussian 90(TM) system (copyright 1990, Gaussian, Inc.),
 the Gaussian 88(TM) system (copyright 1988, Gaussian, Inc.),
 the Gaussian 86(TM) system (copyright 1986, Carnegie Mellon
 University), and the Gaussian 82(TM) system (copyright 1983,
 Carnegie Mellon University). Gaussian is a federally registered
 trademark of Gaussian, Inc.
  
 This software contains proprietary and confidential information,
 including trade secrets, belonging to Gaussian, Inc.
  
 This software is provided under written license and may be
 used, copied, transmitted, or stored only in accord with that
 written license.
  
 The following legend is applicable only to US Government
 contracts under FAR:
  
                    RESTRICTED RIGHTS LEGEND
  
 Use, reproduction and disclosure by the US Government is
 subject to restrictions as set forth in subparagraphs (a)
 and (c) of the Commercial Computer Software - Restricted
 Rights clause in FAR 52.227-19.
  
 Gaussian, Inc.
 340 Quinnipiac St., Bldg. 40, Wallingford CT 06492
  
  
 ---------------------------------------------------------------
 Warning -- This program may not be used in any manner that
 competes with the business of Gaussian, Inc. or will provide
 assistance to any competitor of Gaussian, Inc.  The licensee
 of this program is prohibited from giving any competitor of
 Gaussian, Inc. access to this program.  By using this program,
 the user acknowledges that Gaussian, Inc. is engaged in the
 business of creating and licensing software in the field of
 computational chemistry and represents and warrants to the
 licensee that it is not a competitor of Gaussian, Inc. and that
 it will not use this program in any manner prohibited above.
 ---------------------------------------------------------------
  

 Cite this work as:
 Gaussian 09, Revision D.01,
 M. J. Frisch, G. W. Trucks, H. B. Schlegel, G. E. Scuseria, 
 M. A. Robb, J. R. Cheeseman, G. Scalmani, V. Barone, B. Mennucci, 
 G. A. Petersson, H. Nakatsuji, M. Caricato, X. Li, H. P. Hratchian, 
 A. F. Izmaylov, J. Bloino, G. Zheng, J. L. Sonnenberg, M. Hada, 
 M. Ehara, K. Toyota, R. Fukuda, J. Hasegawa, M. Ishida, T. Nakajima, 
 Y. Honda, O. Kitao, H. Nakai, T. Vreven, J. A. Montgomery, Jr., 
 J. E. Peralta, F. Ogliaro, M. Bearpark, J. J. Heyd, E. Brothers, 
 K. N. Kudin, V. N. Staroverov, T. Keith, R. Kobayashi, J. Normand, 
 K. Raghavachari, A. Rendell, J. C. Burant, S. S. Iyengar, J. Tomasi, 
 M. Cossi, N. Rega, J. M. Millam, M. Klene, J. E. Knox, J. B. Cross, 
 V. Bakken, C. Adamo, J. Jaramillo, R. Gomperts, R. E. Stratmann, 
 O. Yazyev, A. J. Austin, R. Cammi, C. Pomelli, J. W. Ochterski, 
 R. L. Martin, K. Morokuma, V. G. Zakrzewski, G. A. Voth, 
 P. Salvador, J. J. Dannenberg, S. Dapprich, A. D. Daniels, 
 O. Farkas, J. B. Foresman, J. V. Ortiz, J. Cioslowski, 
 and D. J. Fox, Gaussian, Inc., Wallingford CT, 2013.
 
 ******************************************
 Gaussian 09:  ES64L-G09RevD.01 24-Apr-2013
                 4-Mar-2018 
 ******************************************
 ---------------------------
 #p b3lyp/6-311++g(d,p) freq
 ---------------------------
 1/10=4,30=1,38=1/1,3;
 2/12=2,17=6,18=5,40=1/2;
 3/5=4,6=6,7=1111,11=2,16=1,25=1,30=1,71=2,74=-5,140=1/1,2,3;
 4//1;
 5/5=2,38=5,98=1/2;
 8/6=4,10=90,11=11/1;
 11/6=1,8=1,9=11,15=111,16=1/1,2,10;
 10/6=1/2;
 6/7=2,8=2,9=2,10=2,18=1,28=1/1;
 7/8=1,10=1,25=1/1,2,3,16;
 1/10=4,30=1/3;
 99//99;
 Leave Link    1 at Sun Mar  4 21:08:32 2018, MaxMem=           0 cpu:         0.0
 (Enter /apl/tryton/gaussian/09/d01/g09/l101.exe)
 ---
 min
 ---
 Symbolic Z-matrix:
 Charge =  0 Multiplicity = 3
 C                    -1.18722  -0.1781    0.00069 
 H                    -1.3266   -1.25226   0.00059 
 H                    -2.06888   0.44926   0.00086 
 C                     0.08083   0.378     0.00062 
 H                     2.31229  -0.04848   0.00033 
 H                     0.14919   1.47179   0.00074 
 C                     1.2631   -0.30348   0.00042 
 
 NAtoms=      7 NQM=        7 NQMF=       0 NMMI=      0 NMMIF=      0
                NMic=       0 NMicF=      0.
                    Isotopes and Nuclear Properties:
 (Nuclear quadrupole moments (NQMom) in fm**2, nuclear magnetic moments (NMagM)
  in nuclear magnetons)

  Atom         1           2           3           4           5           6           7
 IAtWgt=          12           1           1          12           1           1          12
 AtmWgt=  12.0000000   1.0078250   1.0078250  12.0000000   1.0078250   1.0078250  12.0000000
 NucSpn=           0           1           1           0           1           1           0
 AtZEff=   0.0000000   0.0000000   0.0000000   0.0000000   0.0000000   0.0000000   0.0000000
 NQMom=    0.0000000   0.0000000   0.0000000   0.0000000   0.0000000   0.0000000   0.0000000
 NMagM=    0.0000000   2.7928460   2.7928460   0.0000000   2.7928460   2.7928460   0.0000000
 AtZNuc=   6.0000000   1.0000000   1.0000000   6.0000000   1.0000000   1.0000000   6.0000000
 Leave Link  101 at Sun Mar  4 21:08:32 2018, MaxMem=    33554432 cpu:         0.0
 (Enter /apl/tryton/gaussian/09/d01/g09/l103.exe)

 GradGradGradGradGradGradGradGradGradGradGradGradGradGradGradGradGradGrad
 Berny optimization.
 Initialization pass.
 Trust Radius=3.00D-01 FncErr=1.00D-07 GrdErr=1.00D-07
 Number of steps in this run=      2 maximum allowed number of steps=      2.
 GradGradGradGradGradGradGradGradGradGradGradGradGradGradGradGradGradGrad

 Leave Link  103 at Sun Mar  4 21:08:32 2018, MaxMem=    33554432 cpu:         0.0
 (Enter /apl/tryton/gaussian/09/d01/g09/l202.exe)
                          Input orientation:                          
 ---------------------------------------------------------------------
 Center     Atomic      Atomic             Coordinates (Angstroms)
 Number     Number       Type             X           Y           Z
 ---------------------------------------------------------------------
      1          6           0       -1.187217   -0.178101    0.000694
      2          1           0       -1.326595   -1.252256    0.000589
      3          1           0       -2.068880    0.449263    0.000858
      4          6           0        0.080831    0.378004    0.000621
      5          1           0        2.312294   -0.048476    0.000335
      6          1           0        0.149190    1.471791    0.000735
      7          6           0        1.263096   -0.303480    0.000418
 ---------------------------------------------------------------------
                    Distance matrix (angstroms):
                    1          2          3          4          5
     1  C    0.000000
     2  H    1.083160   0.000000
     3  H    1.082088   1.856382   0.000000
     4  C    1.384629   2.153740   2.150892   0.000000
     5  H    3.501911   3.832832   4.409357   2.271852   0.000000
     6  H    2.123235   3.098124   2.442416   1.095921   2.643904
     7  C    2.453519   2.758020   3.415946   1.364614   1.079742
                    6          7
     6  H    0.000000
     7  C    2.095799   0.000000
 Stoichiometry    C3H4(3)
 Framework group  C1[X(C3H4)]
 Deg. of freedom    15
 Full point group                 C1      NOp   1
 Largest Abelian subgroup         C1      NOp   1
 Largest concise Abelian subgroup C1      NOp   1
                         Standard orientation:                         
 ---------------------------------------------------------------------
 Center     Atomic      Atomic             Coordinates (Angstroms)
 Number     Number       Type             X           Y           Z
 ---------------------------------------------------------------------
      1          6           0       -1.187437   -0.178481    0.000107
      2          1           0       -1.326425   -1.252686    0.000002
      3          1           0       -2.069328    0.448563    0.000271
      4          6           0        0.080409    0.378085    0.000034
      5          1           0        2.312026   -0.047584   -0.000252
      6          1           0        0.148370    1.471897    0.000148
      7          6           0        1.262921   -0.302969   -0.000169
 ---------------------------------------------------------------------
 Rotational constants (GHZ):     70.7514487     10.6103570      9.2266651
 Leave Link  202 at Sun Mar  4 21:08:32 2018, MaxMem=    33554432 cpu:         0.0
 (Enter /apl/tryton/gaussian/09/d01/g09/l301.exe)
 Standard basis: 6-311++G(d,p) (5D, 7F)
 Ernie: Thresh=  0.10000D-02 Tol=  0.10000D-05 Strict=F.
 There are    97 symmetry adapted cartesian basis functions of A   symmetry.
 There are    94 symmetry adapted basis functions of A   symmetry.
    94 basis functions,   144 primitive gaussians,    97 cartesian basis functions
    12 alpha electrons       10 beta electrons
       nuclear repulsion energy        58.6628922342 Hartrees.
 IExCor=  402 DFT=T Ex+Corr=B3LYP ExCW=0 ScaHFX=  0.200000
 ScaDFX=  0.800000  0.720000  1.000000  0.810000 ScalE2=  1.000000  1.000000
 IRadAn=      0 IRanWt=     -1 IRanGd=            0 ICorTp=0 IEmpDi=  4
 NAtoms=    7 NActive=    7 NUniq=    7 SFac= 1.00D+00 NAtFMM=   60 NAOKFM=F Big=F
 Integral buffers will be    131072 words long.
 Raffenetti 2 integral format.
 Two-electron integral symmetry is turned on.
 Leave Link  301 at Sun Mar  4 21:08:32 2018, MaxMem=    33554432 cpu:         0.0
 (Enter /apl/tryton/gaussian/09/d01/g09/l302.exe)
 NPDir=0 NMtPBC=     1 NCelOv=     1 NCel=       1 NClECP=     1 NCelD=      1
         NCelK=      1 NCelE2=     1 NClLst=     1 CellRange=     0.0.
 One-electron integrals computed using PRISM.
 NBasis=    94 RedAO= T EigKep=  7.09D-05  NBF=    94
 NBsUse=    94 1.00D-06 EigRej= -1.00D+00 NBFU=    94
 Precomputing XC quadrature grid using
 IXCGrd= 4 IRadAn=           0 IRanWt=          -1 IRanGd=           0 AccXCQ= 0.00D+00.
 Generated NRdTot=       0 NPtTot=           0 NUsed=           0 NTot=          32
 NSgBfM=    97    97    97    97    97 MxSgAt=     7 MxSgA2=     7.
 Leave Link  302 at Sun Mar  4 21:08:33 2018, MaxMem=    33554432 cpu:         0.1
 (Enter /apl/tryton/gaussian/09/d01/g09/l303.exe)
 DipDrv:  MaxL=1.
 Leave Link  303 at Sun Mar  4 21:08:33 2018, MaxMem=    33554432 cpu:         0.0
 (Enter /apl/tryton/gaussian/09/d01/g09/l401.exe)
 ExpMin= 3.60D-02 ExpMax= 4.56D+03 ExpMxC= 6.82D+02 IAcc=3 IRadAn=         5 AccDes= 0.00D+00
 Harris functional with IExCor=  402 and IRadAn=       5 diagonalized for initial guess.
 HarFok:  IExCor=  402 AccDes= 0.00D+00 IRadAn=         5 IDoV= 1 UseB2=F ITyADJ=14
 ICtDFT=  3500011 ScaDFX=  1.000000  1.000000  1.000000  1.000000
 FoFCou: FMM=F IPFlag=           0 FMFlag=      100000 FMFlg1=           0
         NFxFlg=           0 DoJE=T BraDBF=F KetDBF=T FulRan=T
         wScrn=  0.000000 ICntrl=     500 IOpCl=  0 I1Cent=   200000004 NGrid=           0
         NMat0=    1 NMatS0=      1 NMatT0=    0 NMatD0=    1 NMtDS0=    0 NMtDT0=    0
 Petite list used in FoFCou.
 Harris En= -116.591497946386    
 JPrj=0 DoOrth=F DoCkMO=F.
 Initial guess <Sx>= 0.0000 <Sy>= 0.0000 <Sz>= 1.0000 <S**2>= 2.0000 S= 1.0000
 Leave Link  401 at Sun Mar  4 21:08:34 2018, MaxMem=    33554432 cpu:         1.2
 (Enter /apl/tryton/gaussian/09/d01/g09/l502.exe)
 UHF open shell SCF:
 Using DIIS extrapolation, IDIIS=  1040.
 Integral symmetry usage will be decided dynamically.
 Keep R1 and R2 ints in memory in canonical form, NReq=20907651.
 IVT=       48087 IEndB=       48087 NGot=    33554432 MDV=    13565656
 LenX=    13565656 LenY=    13555806
 Requested convergence on RMS density matrix=1.00D-08 within 128 cycles.
 Requested convergence on MAX density matrix=1.00D-06.
 Requested convergence on             energy=1.00D-06.
 No special actions if energy rises.
 FoFCou: FMM=F IPFlag=           0 FMFlag=           0 FMFlg1=           0
         NFxFlg=           0 DoJE=F BraDBF=F KetDBF=F FulRan=T
         wScrn=  0.000000 ICntrl=     600 IOpCl=  0 I1Cent=           0 NGrid=           0
         NMat0=    1 NMatS0=   4465 NMatT0=    0 NMatD0=    1 NMtDS0=    0 NMtDT0=    0
 Symmetry not used in FoFCou.

 Cycle   1  Pass 1  IDiag  1:
 E= -116.514467074873    
 DIIS: error= 3.41D-02 at cycle   1 NSaved=   1.
 NSaved= 1 IEnMin= 1 EnMin= -116.514467074873     IErMin= 1 ErrMin= 3.41D-02
 ErrMax= 3.41D-02  0.00D+00 EMaxC= 1.00D-01 BMatC= 3.65D-01 BMatP= 3.65D-01
 IDIUse=3 WtCom= 6.59D-01 WtEn= 3.41D-01
 Coeff-Com:  0.100D+01
 Coeff-En:   0.100D+01
 Coeff:      0.100D+01
 Gap=     0.222 Goal=   None    Shift=    0.000
 Gap=     0.148 Goal=   None    Shift=    0.000
 GapD=    0.148 DampG=1.000 DampE=0.500 DampFc=0.5000 IDamp=-1.
 Damping current iteration by 5.00D-01
 RMSDP=5.85D-03 MaxDP=1.13D-01              OVMax= 2.45D-01

 Cycle   2  Pass 1  IDiag  1:
 E= -116.553875388674     Delta-E=       -0.039408313800 Rises=F Damp=T
 DIIS: error= 9.89D-03 at cycle   2 NSaved=   2.
 NSaved= 2 IEnMin= 2 EnMin= -116.553875388674     IErMin= 2 ErrMin= 9.89D-03
 ErrMax= 9.89D-03  0.00D+00 EMaxC= 1.00D-01 BMatC= 2.61D-02 BMatP= 3.65D-01
 IDIUse=3 WtCom= 9.01D-01 WtEn= 9.89D-02
 Coeff-Com:  0.723D-01 0.928D+00
 Coeff-En:   0.166D+00 0.834D+00
 Coeff:      0.816D-01 0.918D+00
 Gap=     0.214 Goal=   None    Shift=    0.000
 Gap=     0.215 Goal=   None    Shift=    0.000
 RMSDP=2.37D-03 MaxDP=5.93D-02 DE=-3.94D-02 OVMax= 2.01D-01

 Cycle   3  Pass 1  IDiag  1:
 E= -116.606678008995     Delta-E=       -0.052802620321 Rises=F Damp=F
 DIIS: error= 1.14D-02 at cycle   3 NSaved=   3.
 NSaved= 3 IEnMin= 3 EnMin= -116.606678008995     IErMin= 2 ErrMin= 9.89D-03
 ErrMax= 1.14D-02  0.00D+00 EMaxC= 1.00D-01 BMatC= 1.96D-02 BMatP= 2.61D-02
 IDIUse=3 WtCom= 8.86D-01 WtEn= 1.14D-01
 Coeff-Com: -0.284D-01 0.457D+00 0.572D+00
 Coeff-En:   0.000D+00 0.000D+00 0.100D+01
 Coeff:     -0.251D-01 0.405D+00 0.620D+00
 Gap=     0.214 Goal=   None    Shift=    0.000
 Gap=     0.212 Goal=   None    Shift=    0.000
 RMSDP=1.32D-03 MaxDP=3.09D-02 DE=-5.28D-02 OVMax= 6.49D-02

 Cycle   4  Pass 1  IDiag  1:
 E= -116.611001719622     Delta-E=       -0.004323710627 Rises=F Damp=F
 DIIS: error= 6.78D-03 at cycle   4 NSaved=   4.
 NSaved= 4 IEnMin= 4 EnMin= -116.611001719622     IErMin= 4 ErrMin= 6.78D-03
 ErrMax= 6.78D-03  0.00D+00 EMaxC= 1.00D-01 BMatC= 6.01D-03 BMatP= 1.96D-02
 IDIUse=3 WtCom= 9.32D-01 WtEn= 6.78D-02
 Coeff-Com: -0.270D-01 0.493D-01 0.378D+00 0.600D+00
 Coeff-En:   0.000D+00 0.000D+00 0.234D+00 0.766D+00
 Coeff:     -0.252D-01 0.460D-01 0.368D+00 0.611D+00
 Gap=     0.210 Goal=   None    Shift=    0.000
 Gap=     0.214 Goal=   None    Shift=    0.000
 RMSDP=5.21D-04 MaxDP=1.12D-02 DE=-4.32D-03 OVMax= 3.15D-02

 Cycle   5  Pass 1  IDiag  1:
 E= -116.612874136541     Delta-E=       -0.001872416919 Rises=F Damp=F
 DIIS: error= 1.74D-03 at cycle   5 NSaved=   5.
 NSaved= 5 IEnMin= 5 EnMin= -116.612874136541     IErMin= 5 ErrMin= 1.74D-03
 ErrMax= 1.74D-03  0.00D+00 EMaxC= 1.00D-01 BMatC= 2.46D-04 BMatP= 6.01D-03
 IDIUse=3 WtCom= 9.83D-01 WtEn= 1.74D-02
 Coeff-Com: -0.672D-02-0.204D-01 0.772D-01 0.215D+00 0.735D+00
 Coeff-En:   0.000D+00 0.000D+00 0.000D+00 0.000D+00 0.100D+01
 Coeff:     -0.661D-02-0.201D-01 0.759D-01 0.211D+00 0.740D+00
 Gap=     0.210 Goal=   None    Shift=    0.000
 Gap=     0.216 Goal=   None    Shift=    0.000
 RMSDP=1.35D-04 MaxDP=2.75D-03 DE=-1.87D-03 OVMax= 9.96D-03

 Cycle   6  Pass 1  IDiag  1:
 E= -116.612974354940     Delta-E=       -0.000100218399 Rises=F Damp=F
 DIIS: error= 1.06D-03 at cycle   6 NSaved=   6.
 NSaved= 6 IEnMin= 6 EnMin= -116.612974354940     IErMin= 6 ErrMin= 1.06D-03
 ErrMax= 1.06D-03  0.00D+00 EMaxC= 1.00D-01 BMatC= 9.21D-05 BMatP= 2.46D-04
 IDIUse=3 WtCom= 9.89D-01 WtEn= 1.06D-02
 Coeff-Com:  0.428D-02-0.260D-01-0.691D-01-0.619D-01 0.399D+00 0.753D+00
 Coeff-En:   0.000D+00 0.000D+00 0.000D+00 0.000D+00 0.000D+00 0.100D+01
 Coeff:      0.424D-02-0.257D-01-0.683D-01-0.613D-01 0.395D+00 0.756D+00
 Gap=     0.211 Goal=   None    Shift=    0.000
 Gap=     0.216 Goal=   None    Shift=    0.000
 RMSDP=8.80D-05 MaxDP=1.90D-03 DE=-1.00D-04 OVMax= 6.61D-03

 Cycle   7  Pass 1  IDiag  1:
 E= -116.613015246676     Delta-E=       -0.000040891736 Rises=F Damp=F
 DIIS: error= 2.86D-04 at cycle   7 NSaved=   7.
 NSaved= 7 IEnMin= 7 EnMin= -116.613015246676     IErMin= 7 ErrMin= 2.86D-04
 ErrMax= 2.86D-04  0.00D+00 EMaxC= 1.00D-01 BMatC= 7.21D-06 BMatP= 9.21D-05
 IDIUse=3 WtCom= 9.97D-01 WtEn= 2.86D-03
 Coeff-Com:  0.251D-02-0.269D-02-0.354D-01-0.594D-01-0.358D-01 0.221D+00
 Coeff-Com:  0.910D+00
 Coeff-En:   0.000D+00 0.000D+00 0.000D+00 0.000D+00 0.000D+00 0.000D+00
 Coeff-En:   0.100D+01
 Coeff:      0.250D-02-0.268D-02-0.353D-01-0.593D-01-0.357D-01 0.220D+00
 Coeff:      0.910D+00
 Gap=     0.211 Goal=   None    Shift=    0.000
 Gap=     0.217 Goal=   None    Shift=    0.000
 RMSDP=4.34D-05 MaxDP=1.21D-03 DE=-4.09D-05 OVMax= 2.44D-03

 Cycle   8  Pass 1  IDiag  1:
 E= -116.613019444734     Delta-E=       -0.000004198058 Rises=F Damp=F
 DIIS: error= 3.92D-05 at cycle   8 NSaved=   8.
 NSaved= 8 IEnMin= 8 EnMin= -116.613019444734     IErMin= 8 ErrMin= 3.92D-05
 ErrMax= 3.92D-05  0.00D+00 EMaxC= 1.00D-01 BMatC= 2.10D-07 BMatP= 7.21D-06
 IDIUse=1 WtCom= 1.00D+00 WtEn= 0.00D+00
 Coeff-Com: -0.712D-04 0.134D-02-0.847D-03-0.378D-02-0.232D-01-0.186D-01
 Coeff-Com:  0.117D+00 0.928D+00
 Coeff:     -0.712D-04 0.134D-02-0.847D-03-0.378D-02-0.232D-01-0.186D-01
 Coeff:      0.117D+00 0.928D+00
 Gap=     0.211 Goal=   None    Shift=    0.000
 Gap=     0.217 Goal=   None    Shift=    0.000
 RMSDP=5.70D-06 MaxDP=1.34D-04 DE=-4.20D-06 OVMax= 2.79D-04

 Cycle   9  Pass 1  IDiag  1:
 E= -116.613019551608     Delta-E=       -0.000000106874 Rises=F Damp=F
 DIIS: error= 8.12D-06 at cycle   9 NSaved=   9.
 NSaved= 9 IEnMin= 9 EnMin= -116.613019551608     IErMin= 9 ErrMin= 8.12D-06
 ErrMax= 8.12D-06  0.00D+00 EMaxC= 1.00D-01 BMatC= 1.43D-08 BMatP= 2.10D-07
 IDIUse=1 WtCom= 1.00D+00 WtEn= 0.00D+00
 Coeff-Com: -0.191D-03 0.378D-03 0.235D-02 0.352D-02 0.400D-03-0.141D-01
 Coeff-Com: -0.571D-01 0.987D-01 0.966D+00
 Coeff:     -0.191D-03 0.378D-03 0.235D-02 0.352D-02 0.400D-03-0.141D-01
 Coeff:     -0.571D-01 0.987D-01 0.966D+00
 Gap=     0.211 Goal=   None    Shift=    0.000
 Gap=     0.217 Goal=   None    Shift=    0.000
 RMSDP=2.96D-06 MaxDP=7.74D-05 DE=-1.07D-07 OVMax= 5.19D-05

 Cycle  10  Pass 1  IDiag  1:
 E= -116.613019558803     Delta-E=       -0.000000007195 Rises=F Damp=F
 DIIS: error= 1.22D-06 at cycle  10 NSaved=  10.
 NSaved=10 IEnMin=10 EnMin= -116.613019558803     IErMin=10 ErrMin= 1.22D-06
 ErrMax= 1.22D-06  0.00D+00 EMaxC= 1.00D-01 BMatC= 6.02D-10 BMatP= 1.43D-08
 IDIUse=1 WtCom= 1.00D+00 WtEn= 0.00D+00
 Coeff-Com:  0.202D-04-0.997D-04-0.712D-04 0.137D-04 0.136D-02 0.145D-02
 Coeff-Com: -0.483D-02-0.489D-01-0.323D-01 0.108D+01
 Coeff:      0.202D-04-0.997D-04-0.712D-04 0.137D-04 0.136D-02 0.145D-02
 Coeff:     -0.483D-02-0.489D-01-0.323D-01 0.108D+01
 Gap=     0.211 Goal=   None    Shift=    0.000
 Gap=     0.217 Goal=   None    Shift=    0.000
 RMSDP=3.37D-07 MaxDP=6.59D-06 DE=-7.20D-09 OVMax= 1.19D-05

 Cycle  11  Pass 1  IDiag  1:
 E= -116.613019559187     Delta-E=       -0.000000000383 Rises=F Damp=F
 DIIS: error= 3.00D-07 at cycle  11 NSaved=  11.
 NSaved=11 IEnMin=11 EnMin= -116.613019559187     IErMin=11 ErrMin= 3.00D-07
 ErrMax= 3.00D-07  0.00D+00 EMaxC= 1.00D-01 BMatC= 4.22D-11 BMatP= 6.02D-10
 IDIUse=1 WtCom= 1.00D+00 WtEn= 0.00D+00
 Coeff-Com:  0.127D-04-0.306D-04-0.136D-03-0.184D-03 0.133D-03 0.952D-03
 Coeff-Com:  0.262D-02-0.936D-02-0.615D-01 0.984D-01 0.969D+00
 Coeff:      0.127D-04-0.306D-04-0.136D-03-0.184D-03 0.133D-03 0.952D-03
 Coeff:      0.262D-02-0.936D-02-0.615D-01 0.984D-01 0.969D+00
 Gap=     0.211 Goal=   None    Shift=    0.000
 Gap=     0.217 Goal=   None    Shift=    0.000
 RMSDP=7.04D-08 MaxDP=1.55D-06 DE=-3.83D-10 OVMax= 2.03D-06

 Cycle  12  Pass 1  IDiag  1:
 E= -116.613019559208     Delta-E=       -0.000000000021 Rises=F Damp=F
 DIIS: error= 6.44D-08 at cycle  12 NSaved=  12.
 NSaved=12 IEnMin=12 EnMin= -116.613019559208     IErMin=12 ErrMin= 6.44D-08
 ErrMax= 6.44D-08  0.00D+00 EMaxC= 1.00D-01 BMatC= 1.95D-12 BMatP= 4.22D-11
 IDIUse=1 WtCom= 1.00D+00 WtEn= 0.00D+00
 Coeff-Com: -0.544D-06 0.332D-05-0.720D-05-0.188D-04-0.742D-04-0.164D-05
 Coeff-Com:  0.532D-03 0.206D-02-0.231D-02-0.542D-01 0.644D-01 0.990D+00
 Coeff:     -0.544D-06 0.332D-05-0.720D-05-0.188D-04-0.742D-04-0.164D-05
 Coeff:      0.532D-03 0.206D-02-0.231D-02-0.542D-01 0.644D-01 0.990D+00
 Gap=     0.211 Goal=   None    Shift=    0.000
 Gap=     0.217 Goal=   None    Shift=    0.000
 RMSDP=1.90D-08 MaxDP=3.54D-07 DE=-2.13D-11 OVMax= 7.20D-07

 Cycle  13  Pass 1  IDiag  1:
 E= -116.613019559209     Delta-E=       -0.000000000001 Rises=F Damp=F
 DIIS: error= 2.12D-08 at cycle  13 NSaved=  13.
 NSaved=13 IEnMin=13 EnMin= -116.613019559209     IErMin=13 ErrMin= 2.12D-08
 ErrMax= 2.12D-08  0.00D+00 EMaxC= 1.00D-01 BMatC= 9.32D-14 BMatP= 1.95D-12
 IDIUse=1 WtCom= 1.00D+00 WtEn= 0.00D+00
 Coeff-Com: -0.399D-06 0.683D-06 0.404D-05 0.513D-05-0.374D-05-0.297D-04
 Coeff-Com: -0.625D-04 0.123D-03 0.241D-02-0.930D-03-0.444D-01-0.174D-01
 Coeff-Com:  0.106D+01
 Coeff:     -0.399D-06 0.683D-06 0.404D-05 0.513D-05-0.374D-05-0.297D-04
 Coeff:     -0.625D-04 0.123D-03 0.241D-02-0.930D-03-0.444D-01-0.174D-01
 Coeff:      0.106D+01
 Gap=     0.211 Goal=   None    Shift=    0.000
 Gap=     0.217 Goal=   None    Shift=    0.000
 RMSDP=5.40D-09 MaxDP=1.43D-07 DE=-1.31D-12 OVMax= 3.04D-07

 SCF Done:  E(UB3LYP) =  -116.613019559     A.U. after   13 cycles
            NFock= 13  Conv=0.54D-08     -V/T= 2.0047
 <Sx>= 0.0000 <Sy>= 0.0000 <Sz>= 1.0000 <S**2>= 2.0374 S= 1.0124
 <L.S>= 0.000000000000E+00
 KE= 1.160668234508D+02 PE=-3.873991151943D+02 EE= 9.605637995011D+01
 Annihilation of the first spin contaminant:
 S**2 before annihilation     2.0374,   after     2.0003
 Leave Link  502 at Sun Mar  4 21:08:46 2018, MaxMem=    33554432 cpu:        12.4
 (Enter /apl/tryton/gaussian/09/d01/g09/l801.exe)
 DoSCS=F DFT=T ScalE2(SS,OS)=  1.000000  1.000000
 Range of M.O.s used for correlation:     1    94
 NBasis=    94 NAE=    12 NBE=    10 NFC=     0 NFV=     0
 NROrb=     94 NOA=    12 NOB=    10 NVA=    82 NVB=    84

 **** Warning!!: The largest alpha MO coefficient is  0.55447754D+02


 **** Warning!!: The largest beta MO coefficient is  0.54767914D+02

 Leave Link  801 at Sun Mar  4 21:08:46 2018, MaxMem=    33554432 cpu:         0.0
 (Enter /apl/tryton/gaussian/09/d01/g09/l1101.exe)
 Using compressed storage, NAtomX=     7.
 Will process      8 centers per pass.
 Leave Link 1101 at Sun Mar  4 21:08:46 2018, MaxMem=    33554432 cpu:         0.1
 (Enter /apl/tryton/gaussian/09/d01/g09/l1102.exe)
 Symmetrizing basis deriv contribution to polar:
 IMax=3 JMax=2 DiffMx= 0.00D+00
 Leave Link 1102 at Sun Mar  4 21:08:46 2018, MaxMem=    33554432 cpu:         0.0
 (Enter /apl/tryton/gaussian/09/d01/g09/l1110.exe)
 Forming Gx(P) for the SCF density, NAtomX=     7.
 Integral derivatives from FoFJK, PRISM(SPDF).
 Do as many integral derivatives as possible in FoFJK.
 G2DrvN: MDV=      33554272.
 G2DrvN: will do     8 centers at a time, making    1 passes.
 Calling FoFCou, ICntrl=  3107 FMM=F I1Cent=   0 AccDes= 0.00D+00.
 FoFJK:  IHMeth= 1 ICntrl=    3107 DoSepK=F KAlg= 0 I1Cent=   0 FoldK=F
 IRaf=         0 NMat=   1 IRICut=       1 DoRegI=T DoRafI=F ISym2E= 0.
 FoFCou: FMM=F IPFlag=           0 FMFlag=      100000 FMFlg1=           0
         NFxFlg=           0 DoJE=F BraDBF=F KetDBF=F FulRan=T
         wScrn=  0.000000 ICntrl=    3107 IOpCl=  1 I1Cent=           0 NGrid=           0
         NMat0=    1 NMatS0=      1 NMatT0=    0 NMatD0=    1 NMtDS0=    0 NMtDT0=    0
 Symmetry not used in FoFCou.
 End of G2Drv F.D. properties file   721 does not exist.
 End of G2Drv F.D. properties file   722 does not exist.
 End of G2Drv F.D. properties file   788 does not exist.
 Leave Link 1110 at Sun Mar  4 21:09:05 2018, MaxMem=    33554432 cpu:        18.4
 (Enter /apl/tryton/gaussian/09/d01/g09/l1002.exe)
 Minotr:  UHF open shell wavefunction.
          IDoAtm=1111111
          Direct CPHF calculation.
          Differentiating once with respect to electric field.
                with respect to dipole field.
          Differentiating once with respect to nuclear coordinates.
          Requested convergence is 1.0D-08 RMS, and 1.0D-07 maximum.
          Secondary convergence is 1.0D-12 RMS, and 1.0D-12 maximum.
          NewPWx=T KeepS1=F KeepF1=F KeepIn=T MapXYZ=F SortEE=F KeepMc=T.
          MDV=      33554170 using IRadAn=       2.
 Generate precomputed XC quadrature information.
 Keep R1 and R2 ints in memory in canonical form, NReq=20860691.
 FoFCou: FMM=F IPFlag=           0 FMFlag=           0 FMFlg1=           0
         NFxFlg=           0 DoJE=F BraDBF=F KetDBF=F FulRan=T
         wScrn=  0.000000 ICntrl=     600 IOpCl=  0 I1Cent=           0 NGrid=           0
         NMat0=    1 NMatS0=   4465 NMatT0=    0 NMatD0=    1 NMtDS0=    0 NMtDT0=    0
 Symmetry not used in FoFCou.
          Solving linear equations simultaneously, MaxMat=       0.
          There are    24 degrees of freedom in the 1st order CPHF.  IDoFFX=6 NUNeed=     3.
     21 vectors produced by pass  0 Test12= 7.60D-15 4.17D-09 XBig12= 1.29D+02 7.09D+00.
 AX will form    21 AO Fock derivatives at one time.
     21 vectors produced by pass  1 Test12= 7.60D-15 4.17D-09 XBig12= 1.99D+01 1.71D+00.
     21 vectors produced by pass  2 Test12= 7.60D-15 4.17D-09 XBig12= 8.68D-01 2.42D-01.
     21 vectors produced by pass  3 Test12= 7.60D-15 4.17D-09 XBig12= 6.73D-03 2.12D-02.
     21 vectors produced by pass  4 Test12= 7.60D-15 4.17D-09 XBig12= 1.91D-05 7.65D-04.
     21 vectors produced by pass  5 Test12= 7.60D-15 4.17D-09 XBig12= 8.30D-08 5.19D-05.
     16 vectors produced by pass  6 Test12= 7.60D-15 4.17D-09 XBig12= 2.94D-10 3.22D-06.
      4 vectors produced by pass  7 Test12= 7.60D-15 4.17D-09 XBig12= 6.91D-13 1.37D-07.
      3 vectors produced by pass  8 Test12= 7.60D-15 4.17D-09 XBig12= 8.34D-15 2.20D-08.
 InvSVY:  IOpt=1 It=  1 EMax= 1.78D-15
 Solved reduced A of dimension   149 with    24 vectors.
 FullF1:  Do perturbations    1 to     3.
 Isotropic polarizability for W=    0.000000       37.96 Bohr**3.
 End of Minotr F.D. properties file   721 does not exist.
 End of Minotr F.D. properties file   722 does not exist.
 End of Minotr F.D. properties file   788 does not exist.
 Leave Link 1002 at Sun Mar  4 21:09:31 2018, MaxMem=    33554432 cpu:        25.7
 (Enter /apl/tryton/gaussian/09/d01/g09/l601.exe)
 Copying SCF densities to generalized density rwf, IOpCl= 1 IROHF=0.

 **********************************************************************

            Population analysis using the SCF density.

 **********************************************************************

 Orbital symmetries:
 Alpha Orbitals:
       Occupied  (A) (A) (A) (A) (A) (A) (A) (A) (A) (A) (A) (A)
       Virtual   (A) (A) (A) (A) (A) (A) (A) (A) (A) (A) (A) (A)
                 (A) (A) (A) (A) (A) (A) (A) (A) (A) (A) (A) (A)
                 (A) (A) (A) (A) (A) (A) (A) (A) (A) (A) (A) (A)
                 (A) (A) (A) (A) (A) (A) (A) (A) (A) (A) (A) (A)
                 (A) (A) (A) (A) (A) (A) (A) (A) (A) (A) (A) (A)
                 (A) (A) (A) (A) (A) (A) (A) (A) (A) (A) (A) (A)
                 (A) (A) (A) (A) (A) (A) (A) (A) (A) (A)
 Beta  Orbitals:
       Occupied  (A) (A) (A) (A) (A) (A) (A) (A) (A) (A)
       Virtual   (A) (A) (A) (A) (A) (A) (A) (A) (A) (A) (A) (A)
                 (A) (A) (A) (A) (A) (A) (A) (A) (A) (A) (A) (A)
                 (A) (A) (A) (A) (A) (A) (A) (A) (A) (A) (A) (A)
                 (A) (A) (A) (A) (A) (A) (A) (A) (A) (A) (A) (A)
                 (A) (A) (A) (A) (A) (A) (A) (A) (A) (A) (A) (A)
                 (A) (A) (A) (A) (A) (A) (A) (A) (A) (A) (A) (A)
                 (A) (A) (A) (A) (A) (A) (A) (A) (A) (A) (A) (A)
 The electronic state is 3-A.
 Alpha  occ. eigenvalues --  -10.20898 -10.19293 -10.18631  -0.80937  -0.69099
 Alpha  occ. eigenvalues --   -0.55827  -0.49712  -0.43705  -0.39549  -0.33932
 Alpha  occ. eigenvalues --   -0.25662  -0.21336
 Alpha virt. eigenvalues --   -0.00213   0.01436   0.01445   0.01961   0.04383
 Alpha virt. eigenvalues --    0.06656   0.07597   0.09537   0.09659   0.10388
 Alpha virt. eigenvalues --    0.11722   0.12627   0.12769   0.13636   0.14500
 Alpha virt. eigenvalues --    0.15565   0.16490   0.20110   0.21916   0.25250
 Alpha virt. eigenvalues --    0.30309   0.33196   0.37518   0.45597   0.46023
 Alpha virt. eigenvalues --    0.51859   0.52142   0.56090   0.56311   0.57431
 Alpha virt. eigenvalues --    0.60784   0.65360   0.69843   0.71672   0.72579
 Alpha virt. eigenvalues --    0.77722   0.79588   0.85111   0.85958   0.98199
 Alpha virt. eigenvalues --    1.04675   1.07781   1.22885   1.30923   1.39676
 Alpha virt. eigenvalues --    1.44435   1.49638   1.54533   1.55155   1.58506
 Alpha virt. eigenvalues --    1.67323   1.68976   1.75887   1.83719   1.91677
 Alpha virt. eigenvalues --    1.93654   2.06218   2.09786   2.14322   2.21459
 Alpha virt. eigenvalues --    2.22396   2.30758   2.41173   2.52819   2.59155
 Alpha virt. eigenvalues --    2.62707   2.65816   2.66864   2.72515   2.78079
 Alpha virt. eigenvalues --    2.85797   2.90903   2.92598   3.12220   3.28171
 Alpha virt. eigenvalues --    3.47351   3.72832   3.93459   4.19156  23.64539
 Alpha virt. eigenvalues --   23.99078  24.16853
  Beta  occ. eigenvalues --  -10.19642 -10.18559 -10.17670  -0.79021  -0.65120
  Beta  occ. eigenvalues --   -0.53485  -0.48477  -0.42374  -0.38414  -0.30543
  Beta virt. eigenvalues --   -0.08857  -0.08600   0.00030   0.01598   0.02143
  Beta virt. eigenvalues --    0.03039   0.04397   0.07935   0.08540   0.09887
  Beta virt. eigenvalues --    0.10568   0.10619   0.11910   0.13014   0.13758
  Beta virt. eigenvalues --    0.14037   0.14987   0.15958   0.17065   0.20728
  Beta virt. eigenvalues --    0.22287   0.25964   0.30996   0.34135   0.38892
  Beta virt. eigenvalues --    0.46395   0.46801   0.53085   0.54727   0.56737
  Beta virt. eigenvalues --    0.60167   0.61433   0.62508   0.66259   0.70413
  Beta virt. eigenvalues --    0.72681   0.74371   0.79472   0.80506   0.86589
  Beta virt. eigenvalues --    0.88146   0.99826   1.06875   1.09941   1.28940
  Beta virt. eigenvalues --    1.35755   1.41085   1.44657   1.53048   1.55568
  Beta virt. eigenvalues --    1.57450   1.60694   1.68980   1.70468   1.77414
  Beta virt. eigenvalues --    1.86000   1.94325   1.94835   2.09029   2.11805
  Beta virt. eigenvalues --    2.15242   2.23642   2.23690   2.31645   2.42071
  Beta virt. eigenvalues --    2.53537   2.59854   2.63851   2.67088   2.69876
  Beta virt. eigenvalues --    2.73081   2.83170   2.87637   2.92104   2.98257
  Beta virt. eigenvalues --    3.13875   3.29160   3.48392   3.74257   3.94636
  Beta virt. eigenvalues --    4.20542  23.65696  24.00682  24.17479
          Condensed to atoms (all electrons):
               1          2          3          4          5          6
     1  C    5.201289   0.392246   0.387099   0.413123   0.029047  -0.094656
     2  H    0.392246   0.534758  -0.035559  -0.046006  -0.002183   0.008881
     3  H    0.387099  -0.035559   0.545936  -0.018590  -0.000506  -0.006538
     4  C    0.413123  -0.046006  -0.018590   4.737006  -0.051852   0.402977
     5  H    0.029047  -0.002183  -0.000506  -0.051852   0.539022  -0.015947
     6  H   -0.094656   0.008881  -0.006538   0.402977  -0.015947   0.589546
     7  C   -0.020529   0.012663   0.010074   0.549203   0.352018  -0.032828
               7
     1  C   -0.020529
     2  H    0.012663
     3  H    0.010074
     4  C    0.549203
     5  H    0.352018
     6  H   -0.032828
     7  C    5.388172
          Atomic-Atomic Spin Densities.
               1          2          3          4          5          6
     1  C    0.938289  -0.026310  -0.005154  -0.089914   0.021798  -0.071958
     2  H   -0.026310  -0.030495   0.005409   0.014448  -0.003641   0.005966
     3  H   -0.005154   0.005409  -0.037431   0.003101  -0.000375   0.004428
     4  C   -0.089914   0.014448   0.003101  -0.238586  -0.026494   0.057250
     5  H    0.021798  -0.003641  -0.000375  -0.026494   0.032205  -0.020799
     6  H   -0.071958   0.005966   0.004428   0.057250  -0.020799   0.146686
     7  C   -0.075629   0.009162  -0.002797  -0.017720  -0.023249  -0.034821
               7
     1  C   -0.075629
     2  H    0.009162
     3  H   -0.002797
     4  C   -0.017720
     5  H   -0.023249
     6  H   -0.034821
     7  C    1.743930
 Mulliken charges and spin densities:
               1          2
     1  C   -0.307619   0.691121
     2  H    0.135200  -0.025462
     3  H    0.118085  -0.032819
     4  C    0.014139  -0.297913
     5  H    0.150402  -0.020555
     6  H    0.148566   0.086751
     7  C   -0.258772   1.598878
 Sum of Mulliken charges =  -0.00000   2.00000
 Mulliken charges and spin densities with hydrogens summed into heavy atoms:
               1          2
     1  C   -0.054334   0.632840
     4  C    0.162705  -0.211162
     7  C   -0.108371   1.578322
 APT charges:
               1
     1  C   -0.067074
     2  H    0.038314
     3  H    0.043548
     4  C   -0.005678
     5  H    0.107998
     6  H    0.029128
     7  C   -0.146235
 Sum of APT charges =   0.00000
 APT charges with hydrogens summed into heavy atoms:
               1
     1  C    0.014788
     4  C    0.023449
     7  C   -0.038238
 Electronic spatial extent (au):  <R**2>=            167.2796
 Charge=             -0.0000 electrons
 Dipole moment (field-independent basis, Debye):
    X=              0.0218    Y=              0.7578    Z=              0.0001  Tot=              0.7581
 Quadrupole moment (field-independent basis, Debye-Ang):
   XX=            -16.4839   YY=            -18.4711   ZZ=            -21.8509
   XY=              0.8020   XZ=             -0.0005   YZ=              0.0003
 Traceless Quadrupole moment (field-independent basis, Debye-Ang):
   XX=              2.4514   YY=              0.4642   ZZ=             -2.9156
   XY=              0.8020   XZ=             -0.0005   YZ=              0.0003
 Octapole moment (field-independent basis, Debye-Ang**2):
  XXX=              2.9098  YYY=              2.5541  ZZZ=              0.0002  XYY=             -2.3902
  XXY=              1.7659  XXZ=             -0.0002  XZZ=             -0.1759  YZZ=              0.5331
  YYZ=              0.0004  XYZ=             -0.0004
 Hexadecapole moment (field-independent basis, Debye-Ang**3):
 XXXX=           -148.2214 YYYY=            -46.1191 ZZZZ=            -28.2672 XXXY=              0.2618
 XXXZ=              0.0040 YYYX=              4.3100 YYYZ=             -0.0011 ZZZX=              0.0090
 ZZZY=             -0.0016 XXYY=            -37.0622 XXZZ=            -36.9965 YYZZ=            -13.5437
 XXYZ=              0.0001 YYXZ=              0.0029 ZZXY=              0.5630
 N-N= 5.866289223417D+01 E-N=-3.873991148899D+02  KE= 1.160668234508D+02
  Exact polarizability:  55.882  -1.192  32.308  -0.003   0.001  25.690
 Approx polarizability:  78.196  -2.555  42.496  -0.005   0.001  32.347
                          Isotropic Fermi Contact Couplings
        Atom                 a.u.       MegaHertz       Gauss      10(-4) cm-1
     1  C(13)              0.08188      46.02335      16.42227      15.35174
     2  H(1)              -0.00914     -20.43288      -7.29096      -6.81567
     3  H(1)              -0.00951     -21.24762      -7.58168      -7.08744
     4  C(13)             -0.03865     -21.72282      -7.75124      -7.24595
     5  H(1)               0.00165       3.69762       1.31940       1.23339
     6  H(1)               0.03204      71.60589      25.55076      23.88515
     7  C(13)              0.31333     176.12093      62.84432      58.74762
 --------------------------------------------------------
       Center         ----  Spin Dipole Couplings  ----
                      3XX-RR        3YY-RR        3ZZ-RR
 --------------------------------------------------------
     1   Atom       -0.328865     -0.379768      0.708633
     2   Atom       -0.027224      0.039693     -0.012469
     3   Atom        0.023068     -0.017069     -0.005999
     4   Atom        0.171458      0.107695     -0.279153
     5   Atom        0.111966     -0.050748     -0.061218
     6   Atom        0.013848      0.006773     -0.020622
     7   Atom       -0.879159      0.633423      0.245735
 --------------------------------------------------------
                        XY            XZ            YZ
 --------------------------------------------------------
     1   Atom       -0.005358      0.000110     -0.000121
     2   Atom        0.016432      0.000003      0.000004
     3   Atom       -0.048753     -0.000009      0.000004
     4   Atom       -0.052131     -0.000054      0.000049
     5   Atom        0.037063     -0.000014     -0.000003
     6   Atom       -0.008581     -0.000005      0.000004
     7   Atom        0.192465      0.000142      0.000023
 --------------------------------------------------------


 ---------------------------------------------------------------------------------
              Anisotropic Spin Dipole Couplings in Principal Axis System
 ---------------------------------------------------------------------------------

       Atom             a.u.   MegaHertz   Gauss  10(-4) cm-1        Axes

              Baa    -0.3803   -51.036   -18.211   -17.024  0.1036  0.9946  0.0001
     1 C(13)  Bbb    -0.3283   -44.056   -15.720   -14.695  0.9946 -0.1036 -0.0001
              Bcc     0.7086    95.092    33.931    31.719  0.0001 -0.0001  1.0000
 
              Baa    -0.0310   -16.562    -5.910    -5.525  0.9741 -0.2263 -0.0001
     2 H(1)   Bbb    -0.0125    -6.653    -2.374    -2.219  0.0001 -0.0001  1.0000
              Bcc     0.0435    23.215     8.284     7.744  0.2263  0.9741  0.0001
 
              Baa    -0.0497   -26.530    -9.466    -8.849  0.5565  0.8309  0.0000
     3 H(1)   Bbb    -0.0060    -3.201    -1.142    -1.068  0.0001 -0.0001  1.0000
              Bcc     0.0557    29.730    10.608     9.917  0.8309 -0.5565 -0.0002
 
              Baa    -0.2792   -37.460   -13.367   -12.495  0.0001 -0.0001  1.0000
     4 C(13)  Bbb     0.0785    10.530     3.757     3.512  0.4890  0.8723  0.0000
              Bcc     0.2007    26.930     9.609     8.983  0.8723 -0.4890 -0.0001
 
              Baa    -0.0612   -32.663   -11.655   -10.895  0.0001 -0.0001  1.0000
     5 H(1)   Bbb    -0.0588   -31.369   -11.193   -10.464 -0.2121  0.9772  0.0001
              Bcc     0.1200    64.032    22.848    21.359  0.9772  0.2121 -0.0001
 
              Baa    -0.0206   -11.003    -3.926    -3.670  0.0001 -0.0001  1.0000
     6 H(1)   Bbb     0.0010     0.549     0.196     0.183  0.5563  0.8310  0.0000
              Bcc     0.0196    10.453     3.730     3.487  0.8310 -0.5563 -0.0002
 
              Baa    -0.9033  -121.209   -43.251   -40.431  0.9922 -0.1243 -0.0001
     7 C(13)  Bbb     0.2457    32.975    11.766    10.999  0.0001 -0.0001  1.0000
              Bcc     0.6575    88.234    31.484    29.432  0.1243  0.9922  0.0001
 

 ---------------------------------------------------------------------------------

 No NMR shielding tensors so no spin-rotation constants.
 Leave Link  601 at Sun Mar  4 21:09:31 2018, MaxMem=    33554432 cpu:         0.2
 (Enter /apl/tryton/gaussian/09/d01/g09/l701.exe)
 Compute integral second derivatives.
 ... and contract with generalized density number  0.
 Leave Link  701 at Sun Mar  4 21:09:31 2018, MaxMem=    33554432 cpu:         0.1
 (Enter /apl/tryton/gaussian/09/d01/g09/l702.exe)
 L702 exits ... SP integral derivatives will be done elsewhere.
 Leave Link  702 at Sun Mar  4 21:09:31 2018, MaxMem=    33554432 cpu:         0.0
 (Enter /apl/tryton/gaussian/09/d01/g09/l703.exe)
 Compute integral second derivatives, UseDBF=F ICtDFT=           0.
 Integral derivatives from FoFJK, PRISM(SPDF).
 Calling FoFJK, ICntrl=    100127 FMM=F ISym2X=0 I1Cent= 0 IOpClX= 1 NMat=1 NMatS=1 NMatT=0.
 FoFJK:  IHMeth= 1 ICntrl=  100127 DoSepK=F KAlg= 0 I1Cent=   0 FoldK=F
 IRaf=         0 NMat=   1 IRICut=       1 DoRegI=T DoRafI=F ISym2E= 0.
 FoFCou: FMM=F IPFlag=           0 FMFlag=      100000 FMFlg1=         800
         NFxFlg=           0 DoJE=F BraDBF=F KetDBF=F FulRan=T
         wScrn=  0.000000 ICntrl=  100127 IOpCl=  1 I1Cent=           0 NGrid=           0
         NMat0=    1 NMatS0=      1 NMatT0=    0 NMatD0=    1 NMtDS0=    0 NMtDT0=    0
 Symmetry not used in FoFCou.
 Leave Link  703 at Sun Mar  4 21:09:55 2018, MaxMem=    33554432 cpu:        23.6
 (Enter /apl/tryton/gaussian/09/d01/g09/l716.exe)
 Dipole        = 8.56262259D-03 2.98135502D-01 3.22876528D-05
 Polarizability= 5.58817137D+01-1.19176373D+00 3.23076987D+01
                -3.35484801D-03 8.64097712D-04 2.56895781D+01
 Full mass-weighted force constant matrix:
 Low frequencies ---   -5.5456    0.0003    0.0006    0.0010   11.4798   23.3462
 Low frequencies ---  422.6326  525.6898  562.5038
 Diagonal vibrational polarizability:
        0.8040919       0.7283899       7.0831931
 Harmonic frequencies (cm**-1), IR intensities (KM/Mole), Raman scattering
 activities (A**4/AMU), depolarization ratios for plane and unpolarized
 incident light, reduced masses (AMU), force constants (mDyne/A),
 and normal coordinates:
                      1                      2                      3
                      A                      A                      A
 Frequencies --    422.6325               525.6894               562.5034
 Red. masses --      2.1360                 1.1965                 1.2978
 Frc consts  --      0.2248                 0.1948                 0.2419
 IR Inten    --      4.3801                41.2981                 6.9535
  Atom  AN      X      Y      Z        X      Y      Z        X      Y      Z
     1   6    -0.13   0.07   0.00     0.00  -0.00   0.04     0.00  -0.00   0.02
     2   1    -0.53   0.12   0.00    -0.00   0.00  -0.20     0.00  -0.00   0.42
     3   1     0.09   0.39   0.00     0.00  -0.00   0.54    -0.00   0.00  -0.64
     4   6    -0.00  -0.22  -0.00    -0.00   0.00  -0.12     0.00  -0.00   0.09
     5   1     0.04   0.63   0.00     0.00  -0.00   0.81     0.00  -0.00   0.63
     6   1     0.02  -0.21  -0.00     0.00  -0.00   0.08    -0.00   0.00  -0.00
     7   6     0.17   0.07  -0.00    -0.00   0.00  -0.02    -0.00   0.00  -0.14
                      4                      5                      6
                      A                      A                      A
 Frequencies --    799.2286               819.3627               904.0478
 Red. masses --      1.3197                 1.2193                 1.2797
 Frc consts  --      0.4967                 0.4823                 0.6162
 IR Inten    --     52.7673                16.0122                 7.5030
  Atom  AN      X      Y      Z        X      Y      Z        X      Y      Z
     1   6     0.00  -0.00   0.16     0.05   0.04   0.00    -0.00   0.00  -0.04
     2   1    -0.00   0.00  -0.80     0.30   0.00  -0.00    -0.00   0.00  -0.26
     3   1    -0.00   0.00  -0.56    -0.10  -0.17  -0.00     0.00  -0.00   0.28
     4   6    -0.00   0.00  -0.05    -0.00   0.01   0.00     0.00  -0.00   0.15
     5   1     0.00  -0.00   0.01    -0.27   0.84   0.00     0.00  -0.00   0.12
     6   1    -0.00   0.00  -0.12     0.28  -0.01  -0.00    -0.00   0.00  -0.91
     7   6     0.00   0.00   0.01    -0.06  -0.11  -0.00    -0.00   0.00  -0.04
                      7                      8                      9
                      A                      A                      A
 Frequencies --   1012.5208              1210.3798              1232.9697
 Red. masses --      1.5404                 1.7074                 2.9050
 Frc consts  --      0.9305                 1.4738                 2.6019
 IR Inten    --      0.3763                 3.2133                 2.2587
  Atom  AN      X      Y      Z        X      Y      Z        X      Y      Z
     1   6     0.16  -0.08  -0.00     0.08   0.11   0.00    -0.13  -0.13  -0.00
     2   1    -0.47   0.02   0.00     0.33   0.08  -0.00    -0.71  -0.07   0.00
     3   1     0.57   0.49  -0.00     0.02  -0.00  -0.00    -0.15  -0.11   0.00
     4   6    -0.00   0.01   0.00    -0.15  -0.02   0.00     0.06   0.28   0.00
     5   1    -0.18   0.20   0.00     0.10   0.03  -0.00     0.09   0.31   0.00
     6   1    -0.29   0.02   0.00    -0.90   0.01   0.00    -0.31   0.30   0.00
     7   6    -0.13   0.00   0.00     0.11  -0.09  -0.00     0.16  -0.19  -0.00
                     10                     11                     12
                      A                      A                      A
 Frequencies --   1415.2154              1499.5708              3032.2003
 Red. masses --      2.1496                 1.3634                 1.0818
 Frc consts  --      2.5366                 1.8063                 5.8604
 IR Inten    --      1.2759                 3.6255                10.1145
  Atom  AN      X      Y      Z        X      Y      Z        X      Y      Z
     1   6    -0.04   0.06   0.00    -0.15  -0.06   0.00     0.00  -0.00  -0.00
     2   1    -0.09   0.05   0.00     0.67  -0.16  -0.00     0.00   0.01   0.00
     3   1    -0.35  -0.36  -0.00     0.32   0.59   0.00    -0.04   0.03   0.00
     4   6     0.28  -0.08  -0.00     0.08   0.03  -0.00     0.01   0.08   0.00
     5   1    -0.17   0.10   0.00    -0.02   0.06   0.00     0.04   0.01  -0.00
     6   1    -0.77  -0.01   0.00    -0.16   0.05   0.00    -0.06  -0.99  -0.00
     7   6    -0.12   0.04   0.00    -0.00  -0.02  -0.00    -0.00   0.00   0.00
                     13                     14                     15
                      A                      A                      A
 Frequencies --   3146.8224              3240.3040              3245.6204
 Red. masses --      1.0535                 1.0953                 1.1181
 Frc consts  --      6.1466                 6.7754                 6.9396
 IR Inten    --      4.5968                 1.1481                 6.3616
  Atom  AN      X      Y      Z        X      Y      Z        X      Y      Z
     1   6    -0.06  -0.03   0.00    -0.00   0.01   0.00    -0.04   0.09   0.00
     2   1     0.09   0.74   0.00    -0.01  -0.07  -0.00    -0.09  -0.65  -0.00
     3   1     0.53  -0.39  -0.00     0.03  -0.02  -0.00     0.61  -0.43  -0.00
     4   6     0.00   0.00   0.00     0.00  -0.01  -0.00     0.00   0.01   0.00
     5   1     0.03   0.01  -0.00     0.97   0.21  -0.00    -0.08  -0.02   0.00
     6   1    -0.00  -0.02  -0.00    -0.00   0.03   0.00    -0.00  -0.04  -0.00
     7   6    -0.00  -0.00   0.00    -0.09  -0.01   0.00     0.01   0.00  -0.00

 -------------------
 - Thermochemistry -
 -------------------
 Temperature   298.150 Kelvin.  Pressure   1.00000 Atm.
 Atom     1 has atomic number  6 and mass  12.00000
 Atom     2 has atomic number  1 and mass   1.00783
 Atom     3 has atomic number  1 and mass   1.00783
 Atom     4 has atomic number  6 and mass  12.00000
 Atom     5 has atomic number  1 and mass   1.00783
 Atom     6 has atomic number  1 and mass   1.00783
 Atom     7 has atomic number  6 and mass  12.00000
 Molecular mass:    40.03130 amu.
 Principal axes and moments of inertia in atomic units:
                           1         2         3
     Eigenvalues --    25.50819 170.09241 195.60060
           X            0.99979   0.02028   0.00011
           Y           -0.02028   0.99979  -0.00011
           Z           -0.00011   0.00011   1.00000
 This molecule is an asymmetric top.
 Rotational symmetry number  1.
 Rotational temperatures (Kelvin)      3.39553     0.50922     0.44281
 Rotational constants (GHZ):          70.75145    10.61036     9.22667
 Zero-point vibrational energy     137983.7 (Joules/Mol)
                                   32.97889 (Kcal/Mol)
 Warning -- explicit consideration of   3 degrees of freedom as
           vibrations may cause significant error
 Vibrational temperatures:    608.07   756.35   809.32  1149.91  1178.88
          (Kelvin)           1300.72  1456.79  1741.46  1773.97  2036.18
                             2157.55  4362.65  4527.57  4662.07  4669.72
 
 Zero-point correction=                           0.052555 (Hartree/Particle)
 Thermal correction to Energy=                    0.056346
 Thermal correction to Enthalpy=                  0.057290
 Thermal correction to Gibbs Free Energy=         0.027229
 Sum of electronic and zero-point Energies=           -116.560464
 Sum of electronic and thermal Energies=              -116.556674
 Sum of electronic and thermal Enthalpies=            -116.555729
 Sum of electronic and thermal Free Energies=         -116.585791
 
                     E (Thermal)             CV                S
                      KCal/Mol        Cal/Mol-Kelvin    Cal/Mol-Kelvin
 Total                   35.358             12.376             63.269
 Electronic               0.000              0.000              2.183
 Translational            0.889              2.981             36.989
 Rotational               0.889              2.981             21.367
 Vibrational             33.580              6.415              2.730
 Vibration     1          0.785              1.421              0.883
 Vibration     2          0.881              1.193              0.597
 Vibration     3          0.918              1.112              0.519
                       Q            Log10(Q)             Ln(Q)
 Total Bot       0.298913D-12        -12.524455        -28.838623
 Total V=0       0.445871D+12         11.649209         26.823296
 Vib (Bot)       0.959744D-24        -24.017844        -55.303131
 Vib (Bot)    1  0.414629D+00         -0.382341         -0.880372
 Vib (Bot)    2  0.305447D+00         -0.515064         -1.185979
 Vib (Bot)    3  0.275631D+00         -0.559672         -1.288693
 Vib (V=0)       0.143159D+01          0.155820          0.358788
 Vib (V=0)    1  0.114955D+01          0.060528          0.139372
 Vib (V=0)    2  0.108592D+01          0.035796          0.082424
 Vib (V=0)    3  0.107094D+01          0.029765          0.068537
 Electronic      0.300000D+01          0.477121          1.098612
 Translational   0.995531D+07          6.998055         16.113617
 Rotational      0.104283D+05          4.018214          9.252279
 
                                                                 min
                                                             IR Spectrum
 
     33  3    3                                                           1  1      11       1                                       
     22  1    0                                                           5  4      22       0   9  87        5 5   4                
     44  4    3                                                           0  1      31       1   0  19        6 2   2                
     60  7    2                                                           0  5      30       3   4  99        3 6   3                
 
     XX  X    X                                                           X  X      XX       X   X  XX        X X   X                
     X   X    X                                                                                  X  XX        X X   X                
              X                                                                                  X  XX        X X                    
              X                                                                                     XX          X                    
                                                                                                    XX          X                    
                                                                                                    XX          X                    
                                                                                                     X          X                    
                                                                                                     X          X                    
                                                                                                     X          X                    
                                                                                                     X          X                    
                                                                                                     X          X                    
                                                                                                     X          X                    
                                                                                                     X          X                    
                                                                                                     X          X                    
                                                                                                     X          X                    
                                                                                                     X          X                    
                                                                                                     X                               
                                                                                                     X                               
                                                                                                     X                               
                                                                                                     X                               
 
 ***** Axes restored to original set *****
 -------------------------------------------------------------------
 Center     Atomic                   Forces (Hartrees/Bohr)
 Number     Number              X              Y              Z
 -------------------------------------------------------------------
      1        6          -0.000031747   -0.000066621   -0.000000039
      2        1           0.000034783    0.000027447    0.000000012
      3        1           0.000026238    0.000015710    0.000000011
      4        6          -0.000059415    0.000167570    0.000000046
      5        1           0.000004383    0.000022439   -0.000000014
      6        1           0.000000481   -0.000048483   -0.000000022
      7        6           0.000025277   -0.000118062    0.000000004
 -------------------------------------------------------------------
 Cartesian Forces:  Max     0.000167570 RMS     0.000052284
 Z-matrix is all fixed cartesians, so copy forces.
 Force constants in Cartesian coordinates: 
                1             2             3             4             5 
      1  0.652413D+00
      2 -0.258538D-02  0.638865D+00
      3 -0.618121D-04  0.630149D-04  0.775362D-01
      4 -0.607695D-01 -0.306093D-01  0.000000D+00  0.569576D-01
      5 -0.340981D-01 -0.337585D+00 -0.311528D-04  0.392442D-01  0.354410D+00
      6  0.000000D+00 -0.315223D-04 -0.258522D-01  0.000000D+00  0.336182D-04
      7 -0.243509D+00  0.134624D+00  0.387558D-04  0.599213D-02 -0.453083D-02
      8  0.140130D+00 -0.158186D+00 -0.302319D-04  0.222187D-01 -0.101470D-01
      9  0.393152D-04 -0.296419D-04 -0.221847D-01  0.218106D-05  0.000000D+00
     10 -0.251475D+00 -0.650628D-01  0.148244D-04  0.945433D-03  0.851433D-04
     11 -0.132342D+00 -0.154635D+00  0.185830D-05 -0.285283D-01 -0.778994D-02
     12  0.734601D-05 -0.532986D-05 -0.445935D-01 -0.287285D-05 -0.129912D-05
     13 -0.956103D-03  0.382325D-02  0.000000D+00  0.149124D-03 -0.352230D-04
     14  0.878958D-03 -0.227857D-02  0.000000D+00  0.252405D-03 -0.336208D-04
     15  0.000000D+00 -0.107519D-05  0.365933D-02  0.000000D+00  0.000000D+00
     16  0.563469D-03 -0.312910D-01 -0.282585D-05 -0.452664D-02 -0.181382D-02
     17 -0.267833D-03 -0.132572D-01 -0.220570D-05 -0.202238D-02  0.426192D-03
     18  0.000000D+00  0.109979D-05  0.676192D-02  0.104395D-05  0.000000D+00
     19 -0.962669D-01 -0.889837D-02  0.978262D-05  0.125182D-02  0.114866D-02
     20  0.282848D-01  0.270762D-01  0.000000D+00 -0.555254D-03  0.719290D-03
     21  0.139372D-04  0.345454D-05  0.467289D-02  0.000000D+00  0.000000D+00
                6             7             8             9            10 
      6  0.156077D-01
      7  0.000000D+00  0.257380D+00
      8 -0.384772D-05 -0.146119D+00  0.157176D+00
      9  0.316561D-02 -0.423857D-04  0.316622D-04  0.140386D-01
     10  0.000000D+00 -0.167614D-01 -0.136632D-01  0.000000D+00  0.571403D+00
     11  0.175018D-05  0.180037D-01  0.988613D-02 -0.131862D-05  0.214048D-02
     12  0.373814D-02  0.427500D-05  0.206023D-05  0.443019D-02 -0.492689D-04
     13  0.000000D+00 -0.707425D-03 -0.496241D-03  0.000000D+00 -0.600898D-02
     14  0.000000D+00  0.473120D-03  0.636938D-03  0.000000D+00  0.214052D-01
     15  0.200105D-03  0.000000D+00  0.000000D+00  0.799235D-03  0.308535D-05
     16  0.106497D-05  0.107946D-02  0.447954D-03  0.000000D+00 -0.529853D-01
     17  0.000000D+00  0.717818D-04  0.117181D-02  0.000000D+00 -0.217694D-01
     18  0.732818D-02  0.000000D+00  0.000000D+00 -0.452224D-02  0.000000D+00
     19  0.000000D+00 -0.347396D-02 -0.251824D-02  0.000000D+00 -0.245117D+00
     20  0.000000D+00 -0.252260D-02 -0.537469D-03  0.000000D+00  0.768646D-01
     21 -0.418747D-02  0.000000D+00  0.000000D+00  0.427325D-02  0.311304D-04
               11            12            13            14            15 
     11  0.593451D+00
     12  0.538502D-04  0.108315D+00
     13 -0.156775D-01 -0.105086D-05  0.352505D+00
     14  0.103876D-01 -0.117034D-05  0.716272D-01  0.368712D-01
     15  0.279484D-05  0.414014D-03 -0.286818D-04 -0.461457D-05  0.978222D-02
     16 -0.969191D-02  0.000000D+00  0.512531D-03 -0.307004D-02  0.000000D+00
     17 -0.295254D+00 -0.262363D-04  0.123910D-03  0.210478D-02  0.000000D+00
     18 -0.275227D-04 -0.384677D-01  0.000000D+00  0.000000D+00 -0.205926D-02
     19  0.166096D+00  0.410952D-04 -0.345494D+00 -0.915668D-01  0.253984D-04
     20 -0.156046D+00 -0.218748D-04 -0.593655D-01 -0.476883D-01  0.242856D-05
     21 -0.314122D-04 -0.338366D-01  0.289639D-04  0.588095D-05 -0.127957D-01
               16            17            18            19            20 
     16  0.566918D-01
     17  0.164824D-01  0.325290D+00
     18 -0.205355D-05  0.321484D-04  0.204867D-01
     19 -0.133534D-02  0.738153D-02  0.206600D-05  0.690436D+00
     20  0.289364D-01 -0.204816D-01 -0.652475D-05 -0.716426D-01  0.196958D+00
     21  0.450127D-05 -0.423843D-05  0.104724D-01 -0.784384D-04  0.261567D-04
               21 
     21  0.314011D-01
 Leave Link  716 at Sun Mar  4 21:09:55 2018, MaxMem=    33554432 cpu:         0.0
 (Enter /apl/tryton/gaussian/09/d01/g09/l103.exe)

 GradGradGradGradGradGradGradGradGradGradGradGradGradGradGradGradGradGrad
 Berny optimization.
 Search for a local minimum.
 Step number   1 out of a maximum of    2
 All quantities printed in internal units (Hartrees-Bohrs-Radians)
 Second derivative matrix not updated -- analytic derivatives used.
 ITU=  0
     Eigenvalues ---    0.01406   0.01476   0.02477   0.03858   0.05983
     Eigenvalues ---    0.07520   0.12166   0.14611   0.14730   0.28367
     Eigenvalues ---    0.43814   0.63803   0.88289   0.99115   1.08628
 Angle between quadratic step and forces=  65.94 degrees.
 Linear search not attempted -- first point.
 TrRot= -0.000083  0.000006  0.000000 -0.000012 -0.000000 -0.000012
 Variable       Old X    -DE/DX   Delta X   Delta X   Delta X     New X
                                 (Linear)    (Quad)   (Total)
    X1       -2.24351  -0.00003   0.00000   0.00012   0.00003  -2.24349
    Y1       -0.33656  -0.00007   0.00000   0.00001   0.00007  -0.33649
    Z1        0.00131  -0.00000   0.00000  -0.00000  -0.00000   0.00131
    X2       -2.50690   0.00003   0.00000   0.00114   0.00100  -2.50590
    Y2       -2.36642   0.00003   0.00000  -0.00003   0.00004  -2.36638
    Z2        0.00111   0.00000   0.00000  -0.00000  -0.00000   0.00111
    X3       -3.90962   0.00003   0.00000  -0.00000  -0.00007  -3.90968
    Y3        0.84898   0.00002   0.00000  -0.00023  -0.00013   0.84886
    Z3        0.00162   0.00000   0.00000   0.00000   0.00000   0.00162
    X4        0.15275  -0.00006   0.00000  -0.00013  -0.00020   0.15255
    Y4        0.71432   0.00017   0.00000   0.00048   0.00049   0.71481
    Z4        0.00117   0.00000   0.00000   0.00000   0.00000   0.00117
    X5        4.36960   0.00000   0.00000  -0.00037  -0.00046   4.36914
    Y5       -0.09161   0.00002   0.00000  -0.00014  -0.00024  -0.09185
    Z5        0.00063  -0.00000   0.00000  -0.00000  -0.00000   0.00063
    X6        0.28193   0.00000   0.00000   0.00017   0.00016   0.28208
    Y6        2.78128  -0.00005   0.00000   0.00026   0.00026   2.78154
    Z6        0.00139  -0.00000   0.00000  -0.00000  -0.00000   0.00139
    X7        2.38691   0.00003   0.00000  -0.00037  -0.00046   2.38644
    Y7       -0.57349  -0.00012   0.00000  -0.00044  -0.00049  -0.57399
    Z7        0.00079   0.00000   0.00000   0.00000   0.00000   0.00079
         Item               Value     Threshold  Converged?
 Maximum Force            0.000168     0.000450     YES
 RMS     Force            0.000052     0.000300     YES
 Maximum Displacement     0.001003     0.001800     YES
 RMS     Displacement     0.000318     0.001200     YES
 Predicted change in Energy=-7.371300D-08
 Optimization completed.
    -- Stationary point found.
 GradGradGradGradGradGradGradGradGradGradGradGradGradGradGradGradGradGrad

 Leave Link  103 at Sun Mar  4 21:09:55 2018, MaxMem=    33554432 cpu:         0.0
 (Enter /apl/tryton/gaussian/09/d01/g09/l9999.exe)
 1\1\ CITASK-GV2336\Freq\UB3LYP\6-311++G(d,p)\C3H4(3)\EERD\04-Mar-2018\
 0\\#p b3lyp/6-311++g(d,p) freq\\min\\0,3\C,-1.187217,-0.178101,0.00069
 4\H,-1.326595,-1.252256,0.000589\H,-2.06888,0.449263,0.000858176\C,0.0
 80831,0.378004,0.000620645\H,2.312294,-0.048476,0.000334739\H,0.14919,
 1.471791,0.000735421\C,1.263096,-0.30348,0.000418327\\Version=ES64L-G0
 9RevD.01\State=3-A\HF=-116.6130196\S2=2.037387\S2-1=0.\S2A=2.000277\RM
 SD=5.403e-09\RMSF=5.228e-05\ZeroPoint=0.0525552\Thermal=0.0563459\Dipo
 le=0.008671,0.2981324,0.0000323\DipoleDeriv=-0.0148683,-0.0476474,-0.0
 000354,-0.0821476,0.1111814,0.0000544,-0.0000399,0.0000508,-0.2975353,
 0.0323974,0.0167131,0.0000144,-0.0373501,-0.067254,-0.0000203,0.000008
 7,-0.000026,0.1497995,-0.0276703,0.0373068,0.0000237,0.0748236,0.00282
 98,-0.0000251,0.0000281,-0.000021,0.1554843,0.0401204,0.0165697,-0.000
 0153,0.0361302,0.0635367,0.0000168,-0.0000131,0.0000185,-0.1206924,0.0
 277895,0.0031018,0.0000176,-0.0991174,0.1067795,0.0000015,0.0000063,-0
 .0000094,0.1894244,0.0471797,0.0118383,0.0000115,-0.0044636,-0.102975,
 -0.000027,0.0000098,-0.0000285,0.1431786,-0.1049484,-0.0378823,-0.0000
 164,0.1121248,-0.1140985,-0.0000003,0.0000002,0.0000157,-0.2196591\Pol
 ar=55.8808442,-1.2003321,32.3085682,-0.0033545,0.0008653,25.6895781\PG
 =C01 [X(C3H4)]\NImag=0\\0.65241313,-0.00258538,0.63886507,-0.00006181,
 0.00006301,0.07753624,-0.06076951,-0.03060935,0.00000036,0.05695765,-0
 .03409811,-0.33758474,-0.00003115,0.03924417,0.35440986,0.,-0.00003152
 ,-0.02585225,-0.00000010,0.00003362,0.01560768,-0.24350868,0.13462366,
 0.00003876,0.00599213,-0.00453083,-0.00000082,0.25737982,0.14012988,-0
 .15818602,-0.00003023,0.02221869,-0.01014704,-0.00000385,-0.14611883,0
 .15717566,0.00003932,-0.00002964,-0.02218467,0.00000218,-0.00000100,0.
 00316561,-0.00004239,0.00003166,0.01403864,-0.25147538,-0.06506281,0.0
 0001482,0.00094543,0.00008514,0.00000031,-0.01676135,-0.01366322,0.000
 00077,0.57140298,-0.13234237,-0.15463477,0.00000186,-0.02852830,-0.007
 78994,0.00000175,0.01800369,0.00988613,-0.00000132,0.00214048,0.593451
 34,0.00000735,-0.00000533,-0.04459346,-0.00000287,-0.00000130,0.003738
 14,0.00000427,0.00000206,0.00443019,-0.00004927,0.00005385,0.10831540,
 -0.00095610,0.00382325,0.00000092,0.00014912,-0.00003522,0.,-0.0007074
 2,-0.00049624,0.00000011,-0.00600898,-0.01567748,-0.00000105,0.3525052
 2,0.00087896,-0.00227857,-0.00000076,0.00025241,-0.00003362,-0.0000000
 5,0.00047312,0.00063694,-0.00000007,0.02140516,0.01038758,-0.00000117,
 0.07162723,0.03687119,0.00000058,-0.00000108,0.00365933,0.00000004,-0.
 00000002,0.00020010,0.00000021,0.00000003,0.00079924,0.00000309,0.0000
 0279,0.00041401,-0.00002868,-0.00000461,0.00978222,0.00056347,-0.03129
 100,-0.00000283,-0.00452664,-0.00181382,0.00000106,0.00107946,0.000447
 95,-0.00000053,-0.05298527,-0.00969191,0.00000048,0.00051253,-0.003070
 04,-0.00000063,0.05669179,-0.00026783,-0.01325716,-0.00000221,-0.00202
 238,0.00042619,-0.00000055,0.00007178,0.00117181,0.00000063,-0.0217694
 0,-0.29525407,-0.00002624,0.00012391,0.00210478,0.00000045,0.01648238,
 0.32529010,0.00000064,0.00000110,0.00676192,0.00000104,-0.00000057,0.0
 0732818,-0.00000059,0.00000059,-0.00452224,-0.00000085,-0.00002752,-0.
 03846772,-0.00000026,0.00000078,-0.00205926,-0.00000205,0.00003215,0.0
 2048671,-0.09626692,-0.00889837,0.00000978,0.00125182,0.00114866,-0.00
 000045,-0.00347396,-0.00251824,0.00000055,-0.24511743,0.16609588,0.000
 04110,-0.34549437,-0.09156684,0.00002540,-0.00133534,0.00738153,0.0000
 0207,0.69043620,0.02828485,0.02707620,-0.00000053,-0.00055525,0.000719
 29,0.00000061,-0.00252260,-0.00053747,-0.00000027,0.07686465,-0.156046
 26,-0.00002187,-0.05936545,-0.04768828,0.00000243,0.02893643,-0.020481
 65,-0.00000652,-0.07164262,0.19695816,0.00001394,0.00000345,0.00467289
 ,-0.00000064,0.00000043,-0.00418747,0.00000055,-0.00000027,0.00427325,
 0.00003113,-0.00003141,-0.03383656,0.00002896,0.00000588,-0.01279565,0
 .00000450,-0.00000424,0.01047240,-0.00007844,0.00002616,0.03140114\\0.
 00003175,0.00006662,0.00000004,-0.00003478,-0.00002745,-0.00000001,-0.
 00002624,-0.00001571,-0.00000001,0.00005941,-0.00016757,-0.00000005,-0
 .00000438,-0.00002244,0.00000001,-0.00000048,0.00004848,0.00000002,-0.
 00002528,0.00011806,0.\\\@


 THE SECRET OF SUCCESS IN LIFE IS TO EAT WHAT YOU LIKE, AND LET THE FOOD
 FIGHT IT OUT INSIDE YOU. -- FROM A FORTUNE COOKIE
 Job cpu time:       0 days  0 hours  1 minutes 22.5 seconds.
 File lengths (MBytes):  RWF=     16 Int=      0 D2E=      0 Chk=      2 Scr=      1
 Normal termination of Gaussian 09 at Sun Mar  4 21:09:55 2018.
