 Entering Gaussian System, Link 0=g09
 Initial command:
 /apl/tryton/gaussian/09/d01/g09/l1.exe "/users/work/eerd/M3C-outputs/ionized/8/Gau-16401.inp" -scrdir="/users/work/eerd/M3C-outputs/ionized/8/"
 Entering Link 1 = /apl/tryton/gaussian/09/d01/g09/l1.exe PID=     16402.
  
 Copyright (c) 1988,1990,1992,1993,1995,1998,2003,2009,2013,
            Gaussian, Inc.  All Rights Reserved.
  
 This is part of the Gaussian(R) 09 program.  It is based on
 the Gaussian(R) 03 system (copyright 2003, Gaussian, Inc.),
 the Gaussian(R) 98 system (copyright 1998, Gaussian, Inc.),
 the Gaussian(R) 94 system (copyright 1995, Gaussian, Inc.),
 the Gaussian 92(TM) system (copyright 1992, Gaussian, Inc.),
 the Gaussian 90(TM) system (copyright 1990, Gaussian, Inc.),
 the Gaussian 88(TM) system (copyright 1988, Gaussian, Inc.),
 the Gaussian 86(TM) system (copyright 1986, Carnegie Mellon
 University), and the Gaussian 82(TM) system (copyright 1983,
 Carnegie Mellon University). Gaussian is a federally registered
 trademark of Gaussian, Inc.
  
 This software contains proprietary and confidential information,
 including trade secrets, belonging to Gaussian, Inc.
  
 This software is provided under written license and may be
 used, copied, transmitted, or stored only in accord with that
 written license.
  
 The following legend is applicable only to US Government
 contracts under FAR:
  
                    RESTRICTED RIGHTS LEGEND
  
 Use, reproduction and disclosure by the US Government is
 subject to restrictions as set forth in subparagraphs (a)
 and (c) of the Commercial Computer Software - Restricted
 Rights clause in FAR 52.227-19.
  
 Gaussian, Inc.
 340 Quinnipiac St., Bldg. 40, Wallingford CT 06492
  
  
 ---------------------------------------------------------------
 Warning -- This program may not be used in any manner that
 competes with the business of Gaussian, Inc. or will provide
 assistance to any competitor of Gaussian, Inc.  The licensee
 of this program is prohibited from giving any competitor of
 Gaussian, Inc. access to this program.  By using this program,
 the user acknowledges that Gaussian, Inc. is engaged in the
 business of creating and licensing software in the field of
 computational chemistry and represents and warrants to the
 licensee that it is not a competitor of Gaussian, Inc. and that
 it will not use this program in any manner prohibited above.
 ---------------------------------------------------------------
  

 Cite this work as:
 Gaussian 09, Revision D.01,
 M. J. Frisch, G. W. Trucks, H. B. Schlegel, G. E. Scuseria, 
 M. A. Robb, J. R. Cheeseman, G. Scalmani, V. Barone, B. Mennucci, 
 G. A. Petersson, H. Nakatsuji, M. Caricato, X. Li, H. P. Hratchian, 
 A. F. Izmaylov, J. Bloino, G. Zheng, J. L. Sonnenberg, M. Hada, 
 M. Ehara, K. Toyota, R. Fukuda, J. Hasegawa, M. Ishida, T. Nakajima, 
 Y. Honda, O. Kitao, H. Nakai, T. Vreven, J. A. Montgomery, Jr., 
 J. E. Peralta, F. Ogliaro, M. Bearpark, J. J. Heyd, E. Brothers, 
 K. N. Kudin, V. N. Staroverov, T. Keith, R. Kobayashi, J. Normand, 
 K. Raghavachari, A. Rendell, J. C. Burant, S. S. Iyengar, J. Tomasi, 
 M. Cossi, N. Rega, J. M. Millam, M. Klene, J. E. Knox, J. B. Cross, 
 V. Bakken, C. Adamo, J. Jaramillo, R. Gomperts, R. E. Stratmann, 
 O. Yazyev, A. J. Austin, R. Cammi, C. Pomelli, J. W. Ochterski, 
 R. L. Martin, K. Morokuma, V. G. Zakrzewski, G. A. Voth, 
 P. Salvador, J. J. Dannenberg, S. Dapprich, A. D. Daniels, 
 O. Farkas, J. B. Foresman, J. V. Ortiz, J. Cioslowski, 
 and D. J. Fox, Gaussian, Inc., Wallingford CT, 2013.
 
 ******************************************
 Gaussian 09:  ES64L-G09RevD.01 24-Apr-2013
                24-Jan-2019 
 ******************************************
 ---------------------------
 #p b3lyp/6-311++g(d,p) freq
 ---------------------------
 1/10=4,30=1,38=1/1,3;
 2/12=2,17=6,18=5,40=1/2;
 3/5=4,6=6,7=1111,11=2,16=1,25=1,30=1,71=2,74=-5,140=1/1,2,3;
 4//1;
 5/5=2,38=5,98=1/2;
 8/6=4,10=90,11=11/1;
 11/6=1,8=1,9=11,15=111,16=1/1,2,10;
 10/6=1/2;
 6/7=2,8=2,9=2,10=2,18=1,28=1/1;
 7/8=1,10=1,25=1/1,2,3,16;
 1/10=4,30=1/3;
 99//99;
 Leave Link    1 at Thu Jan 24 15:56:12 2019, MaxMem=           0 cpu:         0.0
 (Enter /apl/tryton/gaussian/09/d01/g09/l101.exe)
 ---
 min
 ---
 Symbolic Z-matrix:
 Charge =  1 Multiplicity = 4
 C                    -1.66979   0.43562   0.59666 
 C                     0.38061   0.53581  -0.86208 
 C                    -0.97037  -0.00873  -0.50548 
 H                     1.23847  -1.21457  -0.32624 
 H                     0.67913   0.35443  -1.89355 
 H                     0.57168   1.55493  -0.54008 
 H                    -1.34641  -0.89046  -1.03273 
 O                     0.99327  -0.3656    0.08675 
 
 NAtoms=      8 NQM=        8 NQMF=       0 NMMI=      0 NMMIF=      0
                NMic=       0 NMicF=      0.
                    Isotopes and Nuclear Properties:
 (Nuclear quadrupole moments (NQMom) in fm**2, nuclear magnetic moments (NMagM)
  in nuclear magnetons)

  Atom         1           2           3           4           5           6           7           8
 IAtWgt=          12          12          12           1           1           1           1          16
 AtmWgt=  12.0000000  12.0000000  12.0000000   1.0078250   1.0078250   1.0078250   1.0078250  15.9949146
 NucSpn=           0           0           0           1           1           1           1           0
 AtZEff=   0.0000000   0.0000000   0.0000000   0.0000000   0.0000000   0.0000000   0.0000000   0.0000000
 NQMom=    0.0000000   0.0000000   0.0000000   0.0000000   0.0000000   0.0000000   0.0000000   0.0000000
 NMagM=    0.0000000   0.0000000   0.0000000   2.7928460   2.7928460   2.7928460   2.7928460   0.0000000
 AtZNuc=   6.0000000   6.0000000   6.0000000   1.0000000   1.0000000   1.0000000   1.0000000   8.0000000
 Leave Link  101 at Thu Jan 24 15:56:12 2019, MaxMem=    33554432 cpu:         0.1
 (Enter /apl/tryton/gaussian/09/d01/g09/l103.exe)

 GradGradGradGradGradGradGradGradGradGradGradGradGradGradGradGradGradGrad
 Berny optimization.
 Initialization pass.
 Trust Radius=3.00D-01 FncErr=1.00D-07 GrdErr=1.00D-07
 Number of steps in this run=      2 maximum allowed number of steps=      2.
 GradGradGradGradGradGradGradGradGradGradGradGradGradGradGradGradGradGrad

 Leave Link  103 at Thu Jan 24 15:56:12 2019, MaxMem=    33554432 cpu:         0.0
 (Enter /apl/tryton/gaussian/09/d01/g09/l202.exe)
                          Input orientation:                          
 ---------------------------------------------------------------------
 Center     Atomic      Atomic             Coordinates (Angstroms)
 Number     Number       Type             X           Y           Z
 ---------------------------------------------------------------------
      1          6           0       -1.669792    0.435621    0.596655
      2          6           0        0.380607    0.535808   -0.862084
      3          6           0       -0.970372   -0.008732   -0.505483
      4          1           0        1.238468   -1.214570   -0.326236
      5          1           0        0.679134    0.354427   -1.893545
      6          1           0        0.571683    1.554930   -0.540079
      7          1           0       -1.346405   -0.890456   -1.032730
      8          8           0        0.993270   -0.365599    0.086749
 ---------------------------------------------------------------------
                    Distance matrix (angstroms):
                    1          2          3          4          5
     1  C    0.000000
     2  C    2.518351   0.000000
     3  C    1.378893   1.499611   0.000000
     4  H    3.468838   2.021604   2.522925   0.000000
     5  H    3.424199   1.089004   2.186200   2.287152   0.000000
     6  H    2.751223   1.085729   2.196399   2.856652   1.812353
     7  H    2.125548   2.246312   1.093996   2.699213   2.528546
     8  O    2.827341   1.445052   2.081822   0.975413   2.130419
                    6          7          8
     6  H    0.000000
     7  H    3.146693   0.000000
     8  O    2.063754   2.646278   0.000000
 Stoichiometry    C3H4O(1+,4)
 Framework group  C1[X(C3H4O)]
 Deg. of freedom    18
 Full point group                 C1      NOp   1
 Largest Abelian subgroup         C1      NOp   1
 Largest concise Abelian subgroup C1      NOp   1
                         Standard orientation:                         
 ---------------------------------------------------------------------
 Center     Atomic      Atomic             Coordinates (Angstroms)
 Number     Number       Type             X           Y           Z
 ---------------------------------------------------------------------
      1          6           0        1.708007   -0.369515   -0.330387
      2          6           0       -0.575189    0.686275   -0.210311
      3          6           0        0.720133    0.249312    0.406162
      4          1           0       -1.552568   -0.780412    0.779862
      5          1           0       -1.120716    1.428090    0.371101
      6          1           0       -0.529271    0.928711   -1.267630
      7          1           0        0.827726    0.272727    1.494602
      8          8           0       -1.092860   -0.655693   -0.071340
 ---------------------------------------------------------------------
 Rotational constants (GHZ):     18.7551971      6.5370579      5.7821472
 Leave Link  202 at Thu Jan 24 15:56:12 2019, MaxMem=    33554432 cpu:         0.0
 (Enter /apl/tryton/gaussian/09/d01/g09/l301.exe)
 Standard basis: 6-311++G(d,p) (5D, 7F)
 Ernie: Thresh=  0.10000D-02 Tol=  0.10000D-05 Strict=F.
 There are   120 symmetry adapted cartesian basis functions of A   symmetry.
 There are   116 symmetry adapted basis functions of A   symmetry.
   116 basis functions,   180 primitive gaussians,   120 cartesian basis functions
    16 alpha electrons       13 beta electrons
       nuclear repulsion energy       104.4798340596 Hartrees.
 IExCor=  402 DFT=T Ex+Corr=B3LYP ExCW=0 ScaHFX=  0.200000
 ScaDFX=  0.800000  0.720000  1.000000  0.810000 ScalE2=  1.000000  1.000000
 IRadAn=      0 IRanWt=     -1 IRanGd=            0 ICorTp=0 IEmpDi=  4
 NAtoms=    8 NActive=    8 NUniq=    8 SFac= 1.00D+00 NAtFMM=   60 NAOKFM=F Big=F
 Integral buffers will be    131072 words long.
 Raffenetti 2 integral format.
 Two-electron integral symmetry is turned on.
 Leave Link  301 at Thu Jan 24 15:56:12 2019, MaxMem=    33554432 cpu:         0.0
 (Enter /apl/tryton/gaussian/09/d01/g09/l302.exe)
 NPDir=0 NMtPBC=     1 NCelOv=     1 NCel=       1 NClECP=     1 NCelD=      1
         NCelK=      1 NCelE2=     1 NClLst=     1 CellRange=     0.0.
 One-electron integrals computed using PRISM.
 NBasis=   116 RedAO= T EigKep=  7.14D-05  NBF=   116
 NBsUse=   116 1.00D-06 EigRej= -1.00D+00 NBFU=   116
 Precomputing XC quadrature grid using
 IXCGrd= 4 IRadAn=           0 IRanWt=          -1 IRanGd=           0 AccXCQ= 0.00D+00.
 Generated NRdTot=       0 NPtTot=           0 NUsed=           0 NTot=          32
 NSgBfM=   120   120   120   120   120 MxSgAt=     8 MxSgA2=     8.
 Leave Link  302 at Thu Jan 24 15:56:12 2019, MaxMem=    33554432 cpu:         0.2
 (Enter /apl/tryton/gaussian/09/d01/g09/l303.exe)
 DipDrv:  MaxL=1.
 Leave Link  303 at Thu Jan 24 15:56:12 2019, MaxMem=    33554432 cpu:         0.0
 (Enter /apl/tryton/gaussian/09/d01/g09/l401.exe)
 ExpMin= 3.60D-02 ExpMax= 8.59D+03 ExpMxC= 1.30D+03 IAcc=3 IRadAn=         5 AccDes= 0.00D+00
 Harris functional with IExCor=  402 and IRadAn=       5 diagonalized for initial guess.
 HarFok:  IExCor=  402 AccDes= 0.00D+00 IRadAn=         5 IDoV= 1 UseB2=F ITyADJ=14
 ICtDFT=  3500011 ScaDFX=  1.000000  1.000000  1.000000  1.000000
 FoFCou: FMM=F IPFlag=           0 FMFlag=      100000 FMFlg1=           0
         NFxFlg=           0 DoJE=T BraDBF=F KetDBF=T FulRan=T
         wScrn=  0.000000 ICntrl=     500 IOpCl=  0 I1Cent=   200000004 NGrid=           0
         NMat0=    1 NMatS0=      1 NMatT0=    0 NMatD0=    1 NMtDS0=    0 NMtDT0=    0
 Petite list used in FoFCou.
 Harris En= -191.403046052688    
 JPrj=0 DoOrth=F DoCkMO=F.
 Initial guess <Sx>= 0.0000 <Sy>= 0.0000 <Sz>= 1.5000 <S**2>= 3.7500 S= 1.5000
 Leave Link  401 at Thu Jan 24 15:56:14 2019, MaxMem=    33554432 cpu:         2.3
 (Enter /apl/tryton/gaussian/09/d01/g09/l502.exe)
 UHF open shell SCF:
 Using DIIS extrapolation, IDIIS=  1040.
 Integral symmetry usage will be decided dynamically.
 IVT=       63366 IEndB=       63366 NGot=    33554432 MDV=    33522227
 LenX=    33522227 LenY=    33507386
 Requested convergence on RMS density matrix=1.00D-08 within 128 cycles.
 Requested convergence on MAX density matrix=1.00D-06.
 Requested convergence on             energy=1.00D-06.
 No special actions if energy rises.
 Fock matrices will be formed incrementally for  20 cycles.

 Cycle   1  Pass 1  IDiag  1:
 FoFJK:  IHMeth= 1 ICntrl=       0 DoSepK=F KAlg= 0 I1Cent=   0 FoldK=F
 IRaf= 990000000 NMat=   1 IRICut=       1 DoRegI=T DoRafI=F ISym2E= 0.
 FoFCou: FMM=F IPFlag=           0 FMFlag=      100000 FMFlg1=           0
         NFxFlg=           0 DoJE=F BraDBF=F KetDBF=F FulRan=T
         wScrn=  0.000000 ICntrl=       0 IOpCl=  1 I1Cent=           0 NGrid=           0
         NMat0=    1 NMatS0=      1 NMatT0=    0 NMatD0=    1 NMtDS0=    0 NMtDT0=    0
 Symmetry not used in FoFCou.
 E= -191.353770339647    
 DIIS: error= 1.89D-02 at cycle   1 NSaved=   1.
 NSaved= 1 IEnMin= 1 EnMin= -191.353770339647     IErMin= 1 ErrMin= 1.89D-02
 ErrMax= 1.89D-02  0.00D+00 EMaxC= 1.00D-01 BMatC= 2.77D-01 BMatP= 2.77D-01
 IDIUse=3 WtCom= 8.11D-01 WtEn= 1.89D-01
 Coeff-Com:  0.100D+01
 Coeff-En:   0.100D+01
 Coeff:      0.100D+01
 Gap=     0.220 Goal=   None    Shift=    0.000
 Gap=    -0.008 Goal=   None    Shift=    0.000
 GapD=   -0.008 DampG=0.250 DampE=0.500 DampFc=0.2500 IDamp=-1.
 Damping current iteration by 2.50D-01
 RMSDP=6.38D-03 MaxDP=1.52D-01              OVMax= 5.00D-01

 Cycle   2  Pass 1  IDiag  1:
 RMSU=  1.59D-03    CP:  9.97D-01
 E= -191.367346852489     Delta-E=       -0.013576512842 Rises=F Damp=T
 DIIS: error= 7.28D-03 at cycle   2 NSaved=   2.
 NSaved= 2 IEnMin= 2 EnMin= -191.367346852489     IErMin= 2 ErrMin= 7.28D-03
 ErrMax= 7.28D-03  0.00D+00 EMaxC= 1.00D-01 BMatC= 6.28D-02 BMatP= 2.77D-01
 IDIUse=3 WtCom= 9.27D-01 WtEn= 7.28D-02
 Coeff-Com: -0.277D+00 0.128D+01
 Coeff-En:   0.226D+00 0.774D+00
 Coeff:     -0.241D+00 0.124D+01
 Gap=     0.272 Goal=   None    Shift=    0.000
 Gap=     0.169 Goal=   None    Shift=    0.000
 RMSDP=2.56D-03 MaxDP=7.26D-02 DE=-1.36D-02 OVMax= 5.18D-01

 Cycle   3  Pass 1  IDiag  1:
 RMSU=  2.46D-03    CP:  1.01D+00  1.41D+00
 E= -191.398804957443     Delta-E=       -0.031458104954 Rises=F Damp=F
 DIIS: error= 1.53D-02 at cycle   3 NSaved=   3.
 NSaved= 3 IEnMin= 3 EnMin= -191.398804957443     IErMin= 2 ErrMin= 7.28D-03
 ErrMax= 1.53D-02  0.00D+00 EMaxC= 1.00D-01 BMatC= 7.65D-02 BMatP= 6.28D-02
 IDIUse=2 WtCom= 0.00D+00 WtEn= 1.00D+00
 Coeff-En:   0.000D+00 0.000D+00 0.100D+01
 Coeff:      0.000D+00 0.000D+00 0.100D+01
 Gap=     0.207 Goal=   None    Shift=    0.000
 Gap=     0.097 Goal=   None    Shift=    0.000
 RMSDP=3.76D-03 MaxDP=7.46D-02 DE=-3.15D-02 OVMax= 3.85D-01

 Cycle   4  Pass 1  IDiag  1:
 RMSU=  2.04D-03    CP:  9.96D-01  3.00D+00  3.27D-01
 E= -191.272004737487     Delta-E=        0.126800219956 Rises=F Damp=F
 DIIS: error= 3.97D-02 at cycle   4 NSaved=   4.
 NSaved= 4 IEnMin= 3 EnMin= -191.398804957443     IErMin= 2 ErrMin= 7.28D-03
 ErrMax= 3.97D-02  0.00D+00 EMaxC= 1.00D-01 BMatC= 6.41D-01 BMatP= 6.28D-02
 IDIUse=2 WtCom= 0.00D+00 WtEn= 1.00D+00
 Coeff-En:   0.000D+00 0.000D+00 0.826D+00 0.174D+00
 Coeff:      0.000D+00 0.000D+00 0.826D+00 0.174D+00
 Gap=     0.222 Goal=   None    Shift=    0.000
 Gap=     0.113 Goal=   None    Shift=    0.000
 RMSDP=1.98D-03 MaxDP=3.49D-02 DE= 1.27D-01 OVMax= 2.25D-01

 Cycle   5  Pass 1  IDiag  1:
 RMSU=  5.59D-04    CP:  1.00D+00  2.21D+00  7.18D-01  5.75D-01
 E= -191.405944676798     Delta-E=       -0.133939939311 Rises=F Damp=F
 DIIS: error= 1.19D-02 at cycle   5 NSaved=   5.
 NSaved= 5 IEnMin= 5 EnMin= -191.405944676798     IErMin= 2 ErrMin= 7.28D-03
 ErrMax= 1.19D-02  0.00D+00 EMaxC= 1.00D-01 BMatC= 5.79D-02 BMatP= 6.28D-02
 IDIUse=3 WtCom= 8.81D-01 WtEn= 1.19D-01
 Coeff-Com:  0.111D-01-0.735D-02 0.299D+00-0.150D+00 0.846D+00
 Coeff-En:   0.000D+00 0.000D+00 0.417D+00 0.000D+00 0.583D+00
 Coeff:      0.978D-02-0.647D-02 0.313D+00-0.132D+00 0.815D+00
 Gap=     0.194 Goal=   None    Shift=    0.000
 Gap=     0.138 Goal=   None    Shift=    0.000
 RMSDP=7.61D-04 MaxDP=1.48D-02 DE=-1.34D-01 OVMax= 8.77D-02

 Cycle   6  Pass 1  IDiag  1:
 RMSU=  1.88D-04    CP:  1.01D+00  1.90D+00  8.92D-01  4.12D-01  1.07D+00
 E= -191.418882042651     Delta-E=       -0.012937365853 Rises=F Damp=F
 DIIS: error= 6.27D-04 at cycle   6 NSaved=   6.
 NSaved= 6 IEnMin= 6 EnMin= -191.418882042651     IErMin= 6 ErrMin= 6.27D-04
 ErrMax= 6.27D-04  0.00D+00 EMaxC= 1.00D-01 BMatC= 2.00D-04 BMatP= 5.79D-02
 IDIUse=3 WtCom= 9.94D-01 WtEn= 6.27D-03
 Coeff-Com:  0.202D-01-0.393D-01 0.243D-01-0.257D-01 0.101D+00 0.919D+00
 Coeff-En:   0.000D+00 0.000D+00 0.000D+00 0.000D+00 0.000D+00 0.100D+01
 Coeff:      0.201D-01-0.390D-01 0.242D-01-0.255D-01 0.100D+00 0.920D+00
 Gap=     0.192 Goal=   None    Shift=    0.000
 Gap=     0.142 Goal=   None    Shift=    0.000
 RMSDP=1.34D-04 MaxDP=3.88D-03 DE=-1.29D-02 OVMax= 1.16D-02

 Cycle   7  Pass 1  IDiag  1:
 RMSU=  9.01D-05    CP:  1.00D+00  1.88D+00  9.19D-01  4.25D-01  1.12D+00
                    CP:  1.29D+00
 E= -191.419013716954     Delta-E=       -0.000131674303 Rises=F Damp=F
 DIIS: error= 3.70D-04 at cycle   7 NSaved=   7.
 NSaved= 7 IEnMin= 7 EnMin= -191.419013716954     IErMin= 7 ErrMin= 3.70D-04
 ErrMax= 3.70D-04  0.00D+00 EMaxC= 1.00D-01 BMatC= 6.73D-05 BMatP= 2.00D-04
 IDIUse=3 WtCom= 9.96D-01 WtEn= 3.70D-03
 Coeff-Com:  0.120D-01-0.215D-01-0.420D-01 0.187D-01-0.124D+00 0.371D+00
 Coeff-Com:  0.786D+00
 Coeff-En:   0.000D+00 0.000D+00 0.000D+00 0.000D+00 0.000D+00 0.000D+00
 Coeff-En:   0.100D+01
 Coeff:      0.119D-01-0.214D-01-0.418D-01 0.187D-01-0.124D+00 0.369D+00
 Coeff:      0.787D+00
 Gap=     0.192 Goal=   None    Shift=    0.000
 Gap=     0.142 Goal=   None    Shift=    0.000
 RMSDP=6.47D-05 MaxDP=2.05D-03 DE=-1.32D-04 OVMax= 6.54D-03

 Cycle   8  Pass 1  IDiag  1:
 RMSU=  3.70D-05    CP:  1.00D+00  1.87D+00  9.26D-01  4.34D-01  1.14D+00
                    CP:  1.49D+00  1.19D+00
 E= -191.419048214288     Delta-E=       -0.000034497334 Rises=F Damp=F
 DIIS: error= 1.37D-04 at cycle   8 NSaved=   8.
 NSaved= 8 IEnMin= 8 EnMin= -191.419048214288     IErMin= 8 ErrMin= 1.37D-04
 ErrMax= 1.37D-04  0.00D+00 EMaxC= 1.00D-01 BMatC= 8.66D-06 BMatP= 6.73D-05
 IDIUse=3 WtCom= 9.99D-01 WtEn= 1.37D-03
 Coeff-Com: -0.351D-02 0.759D-02-0.125D-01 0.387D-02-0.329D-01-0.169D+00
 Coeff-Com:  0.227D+00 0.980D+00
 Coeff-En:   0.000D+00 0.000D+00 0.000D+00 0.000D+00 0.000D+00 0.000D+00
 Coeff-En:   0.000D+00 0.100D+01
 Coeff:     -0.350D-02 0.758D-02-0.125D-01 0.386D-02-0.328D-01-0.169D+00
 Coeff:      0.226D+00 0.980D+00
 Gap=     0.192 Goal=   None    Shift=    0.000
 Gap=     0.142 Goal=   None    Shift=    0.000
 RMSDP=3.43D-05 MaxDP=8.25D-04 DE=-3.45D-05 OVMax= 3.09D-03

 Cycle   9  Pass 1  IDiag  1:
 RMSU=  1.24D-05    CP:  1.00D+00  1.87D+00  9.29D-01  4.37D-01  1.15D+00
                    CP:  1.58D+00  1.43D+00  1.24D+00
 E= -191.419054766039     Delta-E=       -0.000006551752 Rises=F Damp=F
 DIIS: error= 2.00D-05 at cycle   9 NSaved=   9.
 NSaved= 9 IEnMin= 9 EnMin= -191.419054766039     IErMin= 9 ErrMin= 2.00D-05
 ErrMax= 2.00D-05  0.00D+00 EMaxC= 1.00D-01 BMatC= 4.67D-07 BMatP= 8.66D-06
 IDIUse=1 WtCom= 1.00D+00 WtEn= 0.00D+00
 Coeff-Com: -0.198D-02 0.342D-02 0.145D-02-0.434D-03 0.284D-02-0.738D-01
 Coeff-Com: -0.228D-01 0.202D+00 0.890D+00
 Coeff:     -0.198D-02 0.342D-02 0.145D-02-0.434D-03 0.284D-02-0.738D-01
 Coeff:     -0.228D-01 0.202D+00 0.890D+00
 Gap=     0.192 Goal=   None    Shift=    0.000
 Gap=     0.143 Goal=   None    Shift=    0.000
 RMSDP=9.21D-06 MaxDP=2.43D-04 DE=-6.55D-06 OVMax= 7.92D-04

 Cycle  10  Pass 1  IDiag  1:
 RMSU=  3.85D-06    CP:  1.00D+00  1.87D+00  9.29D-01  4.38D-01  1.15D+00
                    CP:  1.60D+00  1.49D+00  1.33D+00  1.04D+00
 E= -191.419055090034     Delta-E=       -0.000000323995 Rises=F Damp=F
 DIIS: error= 1.04D-05 at cycle  10 NSaved=  10.
 NSaved=10 IEnMin=10 EnMin= -191.419055090034     IErMin=10 ErrMin= 1.04D-05
 ErrMax= 1.04D-05  0.00D+00 EMaxC= 1.00D-01 BMatC= 6.83D-08 BMatP= 4.67D-07
 IDIUse=1 WtCom= 1.00D+00 WtEn= 0.00D+00
 Coeff-Com: -0.326D-03 0.448D-03 0.120D-02-0.488D-03 0.276D-02-0.381D-02
 Coeff-Com: -0.237D-01-0.315D-01 0.243D+00 0.812D+00
 Coeff:     -0.326D-03 0.448D-03 0.120D-02-0.488D-03 0.276D-02-0.381D-02
 Coeff:     -0.237D-01-0.315D-01 0.243D+00 0.812D+00
 Gap=     0.192 Goal=   None    Shift=    0.000
 Gap=     0.143 Goal=   None    Shift=    0.000
 RMSDP=1.90D-06 MaxDP=3.06D-05 DE=-3.24D-07 OVMax= 1.45D-04

 Cycle  11  Pass 1  IDiag  1:
 RMSU=  1.32D-06    CP:  1.00D+00  1.87D+00  9.30D-01  4.38D-01  1.15D+00
                    CP:  1.61D+00  1.50D+00  1.35D+00  1.07D+00  1.01D+00
 E= -191.419055114243     Delta-E=       -0.000000024209 Rises=F Damp=F
 DIIS: error= 5.11D-06 at cycle  11 NSaved=  11.
 NSaved=11 IEnMin=11 EnMin= -191.419055114243     IErMin=11 ErrMin= 5.11D-06
 ErrMax= 5.11D-06  0.00D+00 EMaxC= 1.00D-01 BMatC= 1.44D-08 BMatP= 6.83D-08
 IDIUse=1 WtCom= 1.00D+00 WtEn= 0.00D+00
 Coeff-Com:  0.107D-03-0.184D-03 0.265D-03-0.103D-03 0.256D-03 0.563D-02
 Coeff-Com: -0.259D-02-0.249D-01-0.453D-01 0.153D+00 0.914D+00
 Coeff:      0.107D-03-0.184D-03 0.265D-03-0.103D-03 0.256D-03 0.563D-02
 Coeff:     -0.259D-02-0.249D-01-0.453D-01 0.153D+00 0.914D+00
 Gap=     0.192 Goal=   None    Shift=    0.000
 Gap=     0.143 Goal=   None    Shift=    0.000
 RMSDP=8.86D-07 MaxDP=1.35D-05 DE=-2.42D-08 OVMax= 4.49D-05

 Cycle  12  Pass 1  IDiag  1:
 RMSU=  5.13D-07    CP:  1.00D+00  1.87D+00  9.29D-01  4.38D-01  1.15D+00
                    CP:  1.61D+00  1.50D+00  1.35D+00  1.09D+00  1.11D+00
                    CP:  9.53D-01
 E= -191.419055118866     Delta-E=       -0.000000004623 Rises=F Damp=F
 DIIS: error= 2.18D-06 at cycle  12 NSaved=  12.
 NSaved=12 IEnMin=12 EnMin= -191.419055118866     IErMin=12 ErrMin= 2.18D-06
 ErrMax= 2.18D-06  0.00D+00 EMaxC= 1.00D-01 BMatC= 2.33D-09 BMatP= 1.44D-08
 IDIUse=1 WtCom= 1.00D+00 WtEn= 0.00D+00
 Coeff-Com:  0.227D-05 0.107D-04-0.500D-04-0.337D-04-0.175D-03 0.526D-03
 Coeff-Com:  0.271D-02 0.416D-03-0.267D-01-0.774D-01 0.881D-01 0.101D+01
 Coeff:      0.227D-05 0.107D-04-0.500D-04-0.337D-04-0.175D-03 0.526D-03
 Coeff:      0.271D-02 0.416D-03-0.267D-01-0.774D-01 0.881D-01 0.101D+01
 Gap=     0.192 Goal=   None    Shift=    0.000
 Gap=     0.143 Goal=   None    Shift=    0.000
 RMSDP=3.74D-07 MaxDP=9.24D-06 DE=-4.62D-09 OVMax= 1.33D-05

 Cycle  13  Pass 1  IDiag  1:
 RMSU=  1.48D-07    CP:  1.00D+00  1.87D+00  9.30D-01  4.38D-01  1.15D+00
                    CP:  1.61D+00  1.51D+00  1.35D+00  1.09D+00  1.14D+00
                    CP:  1.10D+00  1.02D+00
 E= -191.419055119584     Delta-E=       -0.000000000717 Rises=F Damp=F
 DIIS: error= 3.44D-07 at cycle  13 NSaved=  13.
 NSaved=13 IEnMin=13 EnMin= -191.419055119584     IErMin=13 ErrMin= 3.44D-07
 ErrMax= 3.44D-07  0.00D+00 EMaxC= 1.00D-01 BMatC= 7.49D-11 BMatP= 2.33D-09
 IDIUse=1 WtCom= 1.00D+00 WtEn= 0.00D+00
 Coeff-Com: -0.174D-04 0.234D-04-0.650D-05-0.210D-05-0.233D-04-0.434D-03
 Coeff-Com:  0.490D-03 0.115D-02 0.288D-02-0.132D-01-0.527D-01 0.641D-01
 Coeff-Com:  0.998D+00
 Coeff:     -0.174D-04 0.234D-04-0.650D-05-0.210D-05-0.233D-04-0.434D-03
 Coeff:      0.490D-03 0.115D-02 0.288D-02-0.132D-01-0.527D-01 0.641D-01
 Coeff:      0.998D+00
 Gap=     0.192 Goal=   None    Shift=    0.000
 Gap=     0.143 Goal=   None    Shift=    0.000
 RMSDP=7.93D-08 MaxDP=1.23D-06 DE=-7.17D-10 OVMax= 8.16D-06

 Cycle  14  Pass 1  IDiag  1:
 RMSU=  4.63D-08    CP:  1.00D+00  1.87D+00  9.30D-01  4.38D-01  1.15D+00
                    CP:  1.61D+00  1.51D+00  1.35D+00  1.09D+00  1.15D+00
                    CP:  1.11D+00  1.12D+00  1.06D+00
 E= -191.419055119624     Delta-E=       -0.000000000041 Rises=F Damp=F
 DIIS: error= 2.10D-07 at cycle  14 NSaved=  14.
 NSaved=14 IEnMin=14 EnMin= -191.419055119624     IErMin=14 ErrMin= 2.10D-07
 ErrMax= 2.10D-07  0.00D+00 EMaxC= 1.00D-01 BMatC= 2.40D-11 BMatP= 7.49D-11
 IDIUse=1 WtCom= 1.00D+00 WtEn= 0.00D+00
 Coeff-Com: -0.888D-05 0.119D-04 0.828D-05-0.245D-05 0.140D-04-0.688D-04
 Coeff-Com: -0.234D-03-0.396D-03 0.354D-02 0.975D-02-0.384D-02-0.124D+00
 Coeff-Com: -0.610D-01 0.118D+01
 Coeff:     -0.888D-05 0.119D-04 0.828D-05-0.245D-05 0.140D-04-0.688D-04
 Coeff:     -0.234D-03-0.396D-03 0.354D-02 0.975D-02-0.384D-02-0.124D+00
 Coeff:     -0.610D-01 0.118D+01
 Gap=     0.192 Goal=   None    Shift=    0.000
 Gap=     0.143 Goal=   None    Shift=    0.000
 RMSDP=3.95D-08 MaxDP=5.93D-07 DE=-4.07D-11 OVMax= 3.82D-06

 Cycle  15  Pass 1  IDiag  1:
 RMSU=  1.18D-08    CP:  1.00D+00  1.87D+00  9.30D-01  4.38D-01  1.15D+00
                    CP:  1.61D+00  1.51D+00  1.35D+00  1.09D+00  1.15D+00
                    CP:  1.12D+00  1.14D+00  1.22D+00  1.35D+00
 E= -191.419055119633     Delta-E=       -0.000000000009 Rises=F Damp=F
 DIIS: error= 7.57D-08 at cycle  15 NSaved=  15.
 NSaved=15 IEnMin=15 EnMin= -191.419055119633     IErMin=15 ErrMin= 7.57D-08
 ErrMax= 7.57D-08  0.00D+00 EMaxC= 1.00D-01 BMatC= 2.74D-12 BMatP= 2.40D-11
 IDIUse=1 WtCom= 1.00D+00 WtEn= 0.00D+00
 Coeff-Com: -0.825D-06 0.154D-05 0.235D-05-0.145D-05 0.337D-05 0.280D-04
 Coeff-Com: -0.618D-04-0.197D-03 0.214D-03 0.161D-02 0.462D-02-0.204D-01
 Coeff-Com: -0.899D-01 0.803D-02 0.110D+01
 Coeff:     -0.825D-06 0.154D-05 0.235D-05-0.145D-05 0.337D-05 0.280D-04
 Coeff:     -0.618D-04-0.197D-03 0.214D-03 0.161D-02 0.462D-02-0.204D-01
 Coeff:     -0.899D-01 0.803D-02 0.110D+01
 Gap=     0.192 Goal=   None    Shift=    0.000
 Gap=     0.143 Goal=   None    Shift=    0.000
 RMSDP=1.62D-08 MaxDP=2.20D-07 DE=-8.64D-12 OVMax= 1.39D-06

 Cycle  16  Pass 1  IDiag  1:
 RMSU=  3.95D-09    CP:  1.00D+00  1.87D+00  9.30D-01  4.38D-01  1.15D+00
                    CP:  1.61D+00  1.51D+00  1.35D+00  1.09D+00  1.15D+00
                    CP:  1.13D+00  1.14D+00  1.25D+00  1.51D+00  1.32D+00
 E= -191.419055119635     Delta-E=       -0.000000000002 Rises=F Damp=F
 DIIS: error= 1.69D-08 at cycle  16 NSaved=  16.
 NSaved=16 IEnMin=16 EnMin= -191.419055119635     IErMin=16 ErrMin= 1.69D-08
 ErrMax= 1.69D-08  0.00D+00 EMaxC= 1.00D-01 BMatC= 1.07D-13 BMatP= 2.74D-12
 IDIUse=1 WtCom= 1.00D+00 WtEn= 0.00D+00
 Coeff-Com:  0.529D-06-0.770D-06 0.245D-06-0.376D-07-0.178D-06-0.388D-05
 Coeff-Com:  0.130D-04 0.335D-04-0.164D-03-0.664D-03 0.126D-03 0.898D-02
 Coeff-Com:  0.944D-02-0.104D+00 0.970D-02 0.108D+01
 Coeff:      0.529D-06-0.770D-06 0.245D-06-0.376D-07-0.178D-06-0.388D-05
 Coeff:      0.130D-04 0.335D-04-0.164D-03-0.664D-03 0.126D-03 0.898D-02
 Coeff:      0.944D-02-0.104D+00 0.970D-02 0.108D+01
 Gap=     0.192 Goal=   None    Shift=    0.000
 Gap=     0.143 Goal=   None    Shift=    0.000
 RMSDP=3.32D-09 MaxDP=6.04D-08 DE=-1.82D-12 OVMax= 2.84D-07

 SCF Done:  E(UB3LYP) =  -191.419055120     A.U. after   16 cycles
            NFock= 16  Conv=0.33D-08     -V/T= 2.0036
 <Sx>= 0.0000 <Sy>= 0.0000 <Sz>= 1.5000 <S**2>= 3.7678 S= 1.5045
 <L.S>= 0.000000000000E+00
 KE= 1.907326374028D+02 PE=-6.488817355709D+02 EE= 1.622502089890D+02
 Annihilation of the first spin contaminant:
 S**2 before annihilation     3.7678,   after     3.7500
 Leave Link  502 at Thu Jan 24 15:56:59 2019, MaxMem=    33554432 cpu:        44.6
 (Enter /apl/tryton/gaussian/09/d01/g09/l801.exe)
 DoSCS=F DFT=T ScalE2(SS,OS)=  1.000000  1.000000
 Range of M.O.s used for correlation:     1   116
 NBasis=   116 NAE=    16 NBE=    13 NFC=     0 NFV=     0
 NROrb=    116 NOA=    16 NOB=    13 NVA=   100 NVB=   103

 **** Warning!!: The largest alpha MO coefficient is  0.45963324D+02


 **** Warning!!: The largest beta MO coefficient is  0.50166470D+02

 Leave Link  801 at Thu Jan 24 15:56:59 2019, MaxMem=    33554432 cpu:         0.0
 (Enter /apl/tryton/gaussian/09/d01/g09/l1101.exe)
 Using compressed storage, NAtomX=     8.
 Will process      9 centers per pass.
 Leave Link 1101 at Thu Jan 24 15:56:59 2019, MaxMem=    33554432 cpu:         0.1
 (Enter /apl/tryton/gaussian/09/d01/g09/l1102.exe)
 Symmetrizing basis deriv contribution to polar:
 IMax=3 JMax=2 DiffMx= 0.00D+00
 Leave Link 1102 at Thu Jan 24 15:56:59 2019, MaxMem=    33554432 cpu:         0.0
 (Enter /apl/tryton/gaussian/09/d01/g09/l1110.exe)
 Forming Gx(P) for the SCF density, NAtomX=     8.
 Integral derivatives from FoFJK, PRISM(SPDF).
 Do as many integral derivatives as possible in FoFJK.
 G2DrvN: MDV=      33554264.
 G2DrvN: will do     9 centers at a time, making    1 passes.
 Calling FoFCou, ICntrl=  3107 FMM=F I1Cent=   0 AccDes= 0.00D+00.
 FoFJK:  IHMeth= 1 ICntrl=    3107 DoSepK=F KAlg= 0 I1Cent=   0 FoldK=F
 IRaf=         0 NMat=   1 IRICut=       1 DoRegI=T DoRafI=F ISym2E= 0.
 FoFCou: FMM=F IPFlag=           0 FMFlag=      100000 FMFlg1=           0
         NFxFlg=           0 DoJE=F BraDBF=F KetDBF=F FulRan=T
         wScrn=  0.000000 ICntrl=    3107 IOpCl=  1 I1Cent=           0 NGrid=           0
         NMat0=    1 NMatS0=      1 NMatT0=    0 NMatD0=    1 NMtDS0=    0 NMtDT0=    0
 Symmetry not used in FoFCou.
 End of G2Drv F.D. properties file   721 does not exist.
 End of G2Drv F.D. properties file   722 does not exist.
 End of G2Drv F.D. properties file   788 does not exist.
 Leave Link 1110 at Thu Jan 24 15:57:43 2019, MaxMem=    33554432 cpu:        43.9
 (Enter /apl/tryton/gaussian/09/d01/g09/l1002.exe)
 Minotr:  UHF open shell wavefunction.
          IDoAtm=11111111
          Direct CPHF calculation.
          Differentiating once with respect to electric field.
                with respect to dipole field.
          Differentiating once with respect to nuclear coordinates.
          Requested convergence is 1.0D-08 RMS, and 1.0D-07 maximum.
          Secondary convergence is 1.0D-12 RMS, and 1.0D-12 maximum.
          NewPWx=T KeepS1=F KeepF1=F KeepIn=T MapXYZ=F SortEE=F KeepMc=T.
          MDV=      33554116 using IRadAn=       2.
 Generate precomputed XC quadrature information.
          Solving linear equations simultaneously, MaxMat=       0.
 FoFJK:  IHMeth= 1 ICntrl=       0 DoSepK=F KAlg= 0 I1Cent=   0 FoldK=F
 IRaf= 990000000 NMat=  27 IRICut=      67 DoRegI=T DoRafI=T ISym2E= 2.
 FoFCou: FMM=F IPFlag=           0 FMFlag=      100000 FMFlg1=           0
         NFxFlg=           0 DoJE=F BraDBF=F KetDBF=F FulRan=T
         wScrn=  0.000000 ICntrl=       0 IOpCl=  1 I1Cent=           0 NGrid=           0
         NMat0=   27 NMatS0=     27 NMatT0=    0 NMatD0=   27 NMtDS0=    0 NMtDT0=    0
 Integrals replicated using symmetry in FoFCou.
          There are    27 degrees of freedom in the 1st order CPHF.  IDoFFX=6 NUNeed=     3.
     24 vectors produced by pass  0 Test12= 1.09D-14 3.70D-09 XBig12= 1.96D+02 9.44D+00.
 AX will form    24 AO Fock derivatives at one time.
     24 vectors produced by pass  1 Test12= 1.09D-14 3.70D-09 XBig12= 4.84D+01 1.51D+00.
     24 vectors produced by pass  2 Test12= 1.09D-14 3.70D-09 XBig12= 3.32D+00 3.95D-01.
     24 vectors produced by pass  3 Test12= 1.09D-14 3.70D-09 XBig12= 3.70D-02 2.92D-02.
     24 vectors produced by pass  4 Test12= 1.09D-14 3.70D-09 XBig12= 4.14D-04 3.36D-03.
     24 vectors produced by pass  5 Test12= 1.09D-14 3.70D-09 XBig12= 1.59D-06 1.54D-04.
     16 vectors produced by pass  6 Test12= 1.09D-14 3.70D-09 XBig12= 4.21D-09 1.09D-05.
      3 vectors produced by pass  7 Test12= 1.09D-14 3.70D-09 XBig12= 1.22D-11 3.38D-07.
      2 vectors produced by pass  8 Test12= 1.09D-14 3.70D-09 XBig12= 4.12D-14 3.66D-08.
 InvSVY:  IOpt=1 It=  1 EMax= 1.78D-15
 Solved reduced A of dimension   165 with    27 vectors.
 FullF1:  Do perturbations    1 to     3.
 Isotropic polarizability for W=    0.000000       38.97 Bohr**3.
 End of Minotr F.D. properties file   721 does not exist.
 End of Minotr F.D. properties file   722 does not exist.
 End of Minotr F.D. properties file   788 does not exist.
 Leave Link 1002 at Thu Jan 24 15:58:59 2019, MaxMem=    33554432 cpu:        75.9
 (Enter /apl/tryton/gaussian/09/d01/g09/l601.exe)
 Copying SCF densities to generalized density rwf, IOpCl= 1 IROHF=0.

 **********************************************************************

            Population analysis using the SCF density.

 **********************************************************************

 Orbital symmetries:
 Alpha Orbitals:
       Occupied  (A) (A) (A) (A) (A) (A) (A) (A) (A) (A) (A) (A)
                 (A) (A) (A) (A)
       Virtual   (A) (A) (A) (A) (A) (A) (A) (A) (A) (A) (A) (A)
                 (A) (A) (A) (A) (A) (A) (A) (A) (A) (A) (A) (A)
                 (A) (A) (A) (A) (A) (A) (A) (A) (A) (A) (A) (A)
                 (A) (A) (A) (A) (A) (A) (A) (A) (A) (A) (A) (A)
                 (A) (A) (A) (A) (A) (A) (A) (A) (A) (A) (A) (A)
                 (A) (A) (A) (A) (A) (A) (A) (A) (A) (A) (A) (A)
                 (A) (A) (A) (A) (A) (A) (A) (A) (A) (A) (A) (A)
                 (A) (A) (A) (A) (A) (A) (A) (A) (A) (A) (A) (A)
                 (A) (A) (A) (A)
 Beta  Orbitals:
       Occupied  (A) (A) (A) (A) (A) (A) (A) (A) (A) (A) (A) (A)
                 (A)
       Virtual   (A) (A) (A) (A) (A) (A) (A) (A) (A) (A) (A) (A)
                 (A) (A) (A) (A) (A) (A) (A) (A) (A) (A) (A) (A)
                 (A) (A) (A) (A) (A) (A) (A) (A) (A) (A) (A) (A)
                 (A) (A) (A) (A) (A) (A) (A) (A) (A) (A) (A) (A)
                 (A) (A) (A) (A) (A) (A) (A) (A) (A) (A) (A) (A)
                 (A) (A) (A) (A) (A) (A) (A) (A) (A) (A) (A) (A)
                 (A) (A) (A) (A) (A) (A) (A) (A) (A) (A) (A) (A)
                 (A) (A) (A) (A) (A) (A) (A) (A) (A) (A) (A) (A)
                 (A) (A) (A) (A) (A) (A) (A)
 The electronic state is 4-A.
 Alpha  occ. eigenvalues --  -19.43971 -10.53631 -10.51524 -10.48289  -1.32510
 Alpha  occ. eigenvalues --   -1.07938  -0.95035  -0.82507  -0.78131  -0.72805
 Alpha  occ. eigenvalues --   -0.70222  -0.64666  -0.61221  -0.60817  -0.55615
 Alpha  occ. eigenvalues --   -0.49119
 Alpha virt. eigenvalues --   -0.29896  -0.18968  -0.15190  -0.13731  -0.11630
 Alpha virt. eigenvalues --   -0.10201  -0.09476  -0.08048  -0.07218  -0.05174
 Alpha virt. eigenvalues --   -0.04931  -0.04006  -0.02816  -0.02249  -0.01682
 Alpha virt. eigenvalues --   -0.00760   0.00292   0.00881   0.02250   0.03592
 Alpha virt. eigenvalues --    0.04828   0.05603   0.06657   0.08915   0.09304
 Alpha virt. eigenvalues --    0.12311   0.15386   0.18283   0.24494   0.30013
 Alpha virt. eigenvalues --    0.31250   0.32076   0.33885   0.34698   0.36863
 Alpha virt. eigenvalues --    0.38060   0.39459   0.40935   0.42638   0.44347
 Alpha virt. eigenvalues --    0.45831   0.57072   0.61093   0.67977   0.76841
 Alpha virt. eigenvalues --    0.77206   0.82780   0.86164   0.93867   1.00819
 Alpha virt. eigenvalues --    1.02887   1.05981   1.12829   1.18279   1.21128
 Alpha virt. eigenvalues --    1.27520   1.28109   1.35061   1.36486   1.40993
 Alpha virt. eigenvalues --    1.44403   1.50094   1.51501   1.55877   1.65927
 Alpha virt. eigenvalues --    1.71122   1.74125   1.80119   1.82887   1.90565
 Alpha virt. eigenvalues --    1.99998   2.07070   2.20151   2.24442   2.33711
 Alpha virt. eigenvalues --    2.37442   2.39617   2.42042   2.52390   2.53502
 Alpha virt. eigenvalues --    2.56493   2.64788   2.68325   2.71894   2.81140
 Alpha virt. eigenvalues --    2.84857   2.98277   3.02729   3.41578   3.54058
 Alpha virt. eigenvalues --    3.57862   3.68006   3.90070   4.78434   5.02327
 Alpha virt. eigenvalues --    5.36384  23.18546  23.58468  23.71477  49.59323
  Beta  occ. eigenvalues --  -19.42925 -10.50971 -10.49507 -10.48138  -1.30269
  Beta  occ. eigenvalues --   -1.03718  -0.91789  -0.79860  -0.75737  -0.70486
  Beta  occ. eigenvalues --   -0.67886  -0.60513  -0.56437
  Beta virt. eigenvalues --   -0.42184  -0.41663  -0.29570  -0.22607  -0.18336
  Beta virt. eigenvalues --   -0.14683  -0.13444  -0.10907  -0.09855  -0.08806
  Beta virt. eigenvalues --   -0.07349  -0.06529  -0.04710  -0.04434  -0.03524
  Beta virt. eigenvalues --   -0.02205  -0.01749  -0.01094  -0.00139   0.00718
  Beta virt. eigenvalues --    0.01050   0.02655   0.04093   0.05340   0.06384
  Beta virt. eigenvalues --    0.07530   0.10179   0.10419   0.14424   0.16139
  Beta virt. eigenvalues --    0.18638   0.26299   0.31483   0.32575   0.32929
  Beta virt. eigenvalues --    0.36087   0.37393   0.38412   0.40321   0.42580
  Beta virt. eigenvalues --    0.43414   0.44898   0.46070   0.46796   0.60576
  Beta virt. eigenvalues --    0.62644   0.69799   0.78659   0.79199   0.85140
  Beta virt. eigenvalues --    0.88886   0.95683   1.02062   1.11016   1.14055
  Beta virt. eigenvalues --    1.17217   1.20162   1.22747   1.29885   1.30134
  Beta virt. eigenvalues --    1.37426   1.38353   1.42617   1.47329   1.52213
  Beta virt. eigenvalues --    1.53002   1.57613   1.68030   1.75570   1.78035
  Beta virt. eigenvalues --    1.81950   1.85244   1.92361   2.02478   2.09281
  Beta virt. eigenvalues --    2.20985   2.25845   2.34437   2.39211   2.42710
  Beta virt. eigenvalues --    2.45282   2.54617   2.55778   2.57426   2.67644
  Beta virt. eigenvalues --    2.72208   2.74701   2.84184   2.88835   2.99806
  Beta virt. eigenvalues --    3.05260   3.44834   3.54785   3.58695   3.69057
  Beta virt. eigenvalues --    3.91351   4.82029   5.03334   5.37468  23.21875
  Beta virt. eigenvalues --   23.58665  23.73578  49.60369
          Condensed to atoms (all electrons):
               1          2          3          4          5          6
     1  C    5.234515   0.003273   0.445528  -0.018606   0.020060  -0.021076
     2  C    0.003273   5.550650  -0.006043  -0.002131   0.295195   0.416350
     3  C    0.445528  -0.006043   5.242667   0.027053   0.011715  -0.023368
     4  H   -0.018606  -0.002131   0.027053   0.393285  -0.016049   0.009914
     5  H    0.020060   0.295195   0.011715  -0.016049   0.487727  -0.019603
     6  H   -0.021076   0.416350  -0.023368   0.009914  -0.019603   0.422134
     7  H   -0.043369   0.012978   0.325510   0.002459  -0.013667   0.005772
     8  O    0.001948   0.132025  -0.013040   0.285475  -0.013674  -0.054670
               7          8
     1  C   -0.043369   0.001948
     2  C    0.012978   0.132025
     3  C    0.325510  -0.013040
     4  H    0.002459   0.285475
     5  H   -0.013667  -0.013674
     6  H    0.005772  -0.054670
     7  H    0.458127  -0.006586
     8  O   -0.006586   7.724149
          Atomic-Atomic Spin Densities.
               1          2          3          4          5          6
     1  C    2.219898  -0.041351   0.084837   0.001553   0.004396   0.006964
     2  C   -0.041351   0.137093   0.045085   0.001000  -0.007463  -0.002943
     3  C    0.084837   0.045085   0.245060   0.000138  -0.003788  -0.005989
     4  H    0.001553   0.001000   0.000138  -0.006678  -0.000266  -0.000580
     5  H    0.004396  -0.007463  -0.003788  -0.000266   0.012288   0.001179
     6  H    0.006964  -0.002943  -0.005989  -0.000580   0.001179  -0.001539
     7  H   -0.021994  -0.019786   0.009117  -0.000163   0.003281   0.002395
     8  O   -0.006812  -0.033604  -0.099728  -0.002161   0.002209   0.003642
               7          8
     1  C   -0.021994  -0.006812
     2  C   -0.019786  -0.033604
     3  C    0.009117  -0.099728
     4  H   -0.000163  -0.002161
     5  H    0.003281   0.002209
     6  H    0.002395   0.003642
     7  H    0.080857   0.004291
     8  O    0.004291   0.466102
 Mulliken charges and spin densities:
               1          2
     1  C    0.377726   2.247490
     2  C   -0.402297   0.078032
     3  C   -0.010021   0.274733
     4  H    0.318601  -0.007157
     5  H    0.248295   0.011835
     6  H    0.264547   0.003129
     7  H    0.258776   0.057999
     8  O   -0.055627   0.333939
 Sum of Mulliken charges =   1.00000   3.00000
 Mulliken charges and spin densities with hydrogens summed into heavy atoms:
               1          2
     1  C    0.377726   2.247490
     2  C    0.110545   0.092996
     3  C    0.248755   0.332731
     8  O    0.262974   0.326782
 APT charges:
               1
     1  C    0.306747
     2  C    0.321348
     3  C    0.113072
     4  H    0.357029
     5  H    0.089139
     6  H    0.091799
     7  H    0.121843
     8  O   -0.400978
 Sum of APT charges =   1.00000
 APT charges with hydrogens summed into heavy atoms:
               1
     1  C    0.306747
     2  C    0.502287
     3  C    0.234915
     8  O   -0.043949
 Electronic spatial extent (au):  <R**2>=            231.2145
 Charge=              1.0000 electrons
 Dipole moment (field-independent basis, Debye):
    X=              0.3954    Y=              1.1483    Z=              1.7103  Tot=              2.0976
 Quadrupole moment (field-independent basis, Debye-Ang):
   XX=            -12.4018   YY=            -19.8654   ZZ=            -17.5880
   XY=             -0.9590   XZ=             -2.6458   YZ=             -1.1451
 Traceless Quadrupole moment (field-independent basis, Debye-Ang):
   XX=              4.2166   YY=             -3.2470   ZZ=             -0.9696
   XY=             -0.9590   XZ=             -2.6458   YZ=             -1.1451
 Octapole moment (field-independent basis, Debye-Ang**2):
  XXX=             -4.7730  YYY=              0.6981  ZZZ=              3.8202  XYY=             -4.8556
  XXY=             -3.3700  XXZ=              3.0013  XZZ=             -3.2252  YZZ=              0.4317
  YYZ=              1.2313  XYZ=              3.4951
 Hexadecapole moment (field-independent basis, Debye-Ang**3):
 XXXX=           -153.9955 YYYY=            -62.8231 ZZZZ=            -36.7584 XXXY=              3.8733
 XXXZ=            -13.2568 YYYX=              1.1319 YYYZ=             -1.1641 ZZZX=              2.0830
 ZZZY=             -2.5706 XXYY=            -36.0285 XXZZ=            -32.1580 YYZZ=            -16.6572
 XXYZ=             -1.6733 YYXZ=             -3.2455 ZZXY=              2.1454
 N-N= 1.044798340596D+02 E-N=-6.488817357140D+02  KE= 1.907326374028D+02
  Exact polarizability:  57.610   0.250  29.734  -1.375   1.786  29.575
 Approx polarizability:  89.027   4.678  44.314  -3.372   5.671  41.979
                          Isotropic Fermi Contact Couplings
        Atom                 a.u.       MegaHertz       Gauss      10(-4) cm-1
     1  C(13)              1.05525     395.43533     141.10115     131.90303
     2  C(13)              0.04425      16.58061       5.91637       5.53070
     3  C(13)              0.08744      32.76654      11.69192      10.92974
     4  H(1)              -0.00519      -7.73058      -2.75846      -2.57864
     5  H(1)               0.00411       6.12747       2.18643       2.04390
     6  H(1)              -0.00109      -1.62919      -0.58134      -0.54344
     7  H(1)               0.02661      39.65451      14.14971      13.22732
     8  O(17)              0.06080     -12.28488      -4.38355      -4.09779
 --------------------------------------------------------
       Center         ----  Spin Dipole Couplings  ----
                      3XX-RR        3YY-RR        3ZZ-RR
 --------------------------------------------------------
     1   Atom       -0.020645     -0.363549      0.384195
     2   Atom        0.126169     -0.053302     -0.072866
     3   Atom        0.199132     -0.042818     -0.156314
     4   Atom        0.014918     -0.054354      0.039436
     5   Atom        0.005178      0.007951     -0.013129
     6   Atom        0.009436     -0.006885     -0.002551
     7   Atom       -0.019080     -0.036396      0.055475
     8   Atom        1.265455     -0.843920     -0.421536
 --------------------------------------------------------
                        XY            XZ            YZ
 --------------------------------------------------------
     1   Atom       -0.142004      0.366047     -0.110508
     2   Atom       -0.046494      0.038772     -0.010532
     3   Atom        0.051851     -0.147739      0.185351
     4   Atom        0.011619     -0.043120     -0.014523
     5   Atom       -0.016529     -0.004928      0.009948
     6   Atom       -0.017231      0.014294     -0.016841
     7   Atom       -0.005274     -0.018437      0.023068
     8   Atom        0.008222      0.885636     -0.000478
 --------------------------------------------------------


 ---------------------------------------------------------------------------------
              Anisotropic Spin Dipole Couplings in Principal Axis System
 ---------------------------------------------------------------------------------

       Atom             a.u.   MegaHertz   Gauss  10(-4) cm-1        Axes

              Baa    -0.4156   -55.766   -19.899   -18.602  0.3727  0.9270 -0.0425
     1 C(13)  Bbb    -0.2129   -28.563   -10.192    -9.528  0.7741 -0.3358 -0.5367
              Bcc     0.6284    84.329    30.091    28.129  0.5118 -0.1671  0.8427
 
              Baa    -0.0803   -10.781    -3.847    -3.596 -0.1602  0.1067  0.9813
     2 C(13)  Bbb    -0.0646    -8.664    -3.091    -2.890  0.2487  0.9664 -0.0645
              Bcc     0.1449    19.445     6.938     6.486  0.9552 -0.2337  0.1814
 
              Baa    -0.3357   -45.042   -16.072   -15.024  0.2716 -0.5486  0.7907
     3 C(13)  Bbb     0.0822    11.031     3.936     3.679  0.2518  0.8335  0.4918
              Bcc     0.2535    34.011    12.136    11.345  0.9289 -0.0655 -0.3645
 
              Baa    -0.0570   -30.433   -10.859   -10.151 -0.0963  0.9897  0.1059
     4 H(1)   Bbb    -0.0176    -9.415    -3.359    -3.140  0.7963  0.0128  0.6048
              Bcc     0.0747    39.848    14.219    13.292 -0.5972 -0.1426  0.7893
 
              Baa    -0.0173    -9.215    -3.288    -3.074 -0.1224 -0.4326  0.8933
     5 H(1)   Bbb    -0.0088    -4.694    -1.675    -1.566  0.7619  0.5358  0.3639
              Bcc     0.0261    13.909     4.963     4.640 -0.6360  0.7251  0.2640
 
              Baa    -0.0224   -11.945    -4.262    -3.985  0.1922  0.8121  0.5509
     6 H(1)   Bbb    -0.0107    -5.722    -2.042    -1.909  0.7024  0.2782 -0.6552
              Bcc     0.0331    17.667     6.304     5.893  0.6854 -0.5129  0.5169
 
              Baa    -0.0419   -22.357    -7.978    -7.458  0.0456  0.9740 -0.2221
     7 H(1)   Bbb    -0.0234   -12.479    -4.453    -4.163  0.9741  0.0059  0.2260
              Bcc     0.0653    34.837    12.431    11.620 -0.2214  0.2266  0.9485
 
              Baa    -0.8443    61.090    21.798    20.377 -0.0361  0.9964  0.0769
     8 O(17)  Bbb    -0.8008    57.943    20.676    19.328 -0.3923 -0.0849  0.9159
              Bcc     1.6450  -119.033   -42.474   -39.705  0.9191  0.0030  0.3939
 

 ---------------------------------------------------------------------------------

 No NMR shielding tensors so no spin-rotation constants.
 Leave Link  601 at Thu Jan 24 15:58:59 2019, MaxMem=    33554432 cpu:         0.2
 (Enter /apl/tryton/gaussian/09/d01/g09/l701.exe)
 Compute integral second derivatives.
 ... and contract with generalized density number  0.
 Leave Link  701 at Thu Jan 24 15:59:00 2019, MaxMem=    33554432 cpu:         0.2
 (Enter /apl/tryton/gaussian/09/d01/g09/l702.exe)
 L702 exits ... SP integral derivatives will be done elsewhere.
 Leave Link  702 at Thu Jan 24 15:59:00 2019, MaxMem=    33554432 cpu:         0.0
 (Enter /apl/tryton/gaussian/09/d01/g09/l703.exe)
 Compute integral second derivatives, UseDBF=F ICtDFT=           0.
 Integral derivatives from FoFJK, PRISM(SPDF).
 Calling FoFJK, ICntrl=    100127 FMM=F ISym2X=0 I1Cent= 0 IOpClX= 1 NMat=1 NMatS=1 NMatT=0.
 FoFJK:  IHMeth= 1 ICntrl=  100127 DoSepK=F KAlg= 0 I1Cent=   0 FoldK=F
 IRaf=         0 NMat=   1 IRICut=       1 DoRegI=T DoRafI=F ISym2E= 0.
 FoFCou: FMM=F IPFlag=           0 FMFlag=      100000 FMFlg1=         800
         NFxFlg=           0 DoJE=F BraDBF=F KetDBF=F FulRan=T
         wScrn=  0.000000 ICntrl=  100127 IOpCl=  1 I1Cent=           0 NGrid=           0
         NMat0=    1 NMatS0=      1 NMatT0=    0 NMatD0=    1 NMtDS0=    0 NMtDT0=    0
 Symmetry not used in FoFCou.
 Leave Link  703 at Thu Jan 24 15:59:57 2019, MaxMem=    33554432 cpu:        57.1
 (Enter /apl/tryton/gaussian/09/d01/g09/l716.exe)
 Dipole        = 1.55557026D-01 4.51757605D-01 6.72891876D-01
 Polarizability= 5.76099836D+01 2.49682698D-01 2.97335300D+01
                -1.37463767D+00 1.78583279D+00 2.95753190D+01
 Full mass-weighted force constant matrix:
 Low frequencies ---  -27.6236  -13.4658   -0.0004    0.0007    0.0009    2.7738
 Low frequencies ---  169.1047  316.4309  449.7932
 Diagonal vibrational polarizability:
       14.7195654       5.3140599       2.4854323
 Harmonic frequencies (cm**-1), IR intensities (KM/Mole), Raman scattering
 activities (A**4/AMU), depolarization ratios for plane and unpolarized
 incident light, reduced masses (AMU), force constants (mDyne/A),
 and normal coordinates:
                      1                      2                      3
                      A                      A                      A
 Frequencies --    169.1002               316.4308               449.7927
 Red. masses --      3.9750                 4.2989                 2.9539
 Frc consts  --      0.0670                 0.2536                 0.3521
 IR Inten    --      2.0241                25.6213                 4.3544
  Atom  AN      X      Y      Z        X      Y      Z        X      Y      Z
     1   6     0.27   0.25  -0.03     0.12  -0.02   0.03     0.22  -0.10   0.16
     2   6     0.05  -0.07  -0.08     0.00  -0.17   0.10    -0.15   0.09   0.04
     3   6    -0.03  -0.21  -0.02     0.24   0.20  -0.00    -0.05  -0.04  -0.24
     4   1    -0.31   0.29   0.08    -0.12  -0.13  -0.04     0.37  -0.19   0.17
     5   1     0.18   0.13  -0.21     0.09  -0.15   0.18     0.02  -0.06   0.40
     6   1     0.13  -0.24  -0.11    -0.04  -0.02   0.13    -0.53   0.31   0.07
     7   1    -0.25  -0.57   0.01     0.51   0.60  -0.03    -0.18  -0.02  -0.22
     8   8    -0.20   0.05   0.11    -0.30  -0.02  -0.12     0.00   0.03   0.00
                      4                      5                      6
                      A                      A                      A
 Frequencies --    535.4553               822.0378               912.5306
 Red. masses --      1.1250                 1.7503                 3.0081
 Frc consts  --      0.1900                 0.6969                 1.4758
 IR Inten    --     82.1469                23.9138                 7.5094
  Atom  AN      X      Y      Z        X      Y      Z        X      Y      Z
     1   6    -0.03   0.02   0.00    -0.02   0.07   0.02    -0.07  -0.00   0.04
     2   6     0.04  -0.00  -0.02     0.14   0.06   0.01     0.22   0.13   0.00
     3   6    -0.01  -0.01   0.03    -0.12  -0.13  -0.04    -0.01   0.18  -0.09
     4   1     0.84  -0.26   0.41    -0.01   0.04   0.03    -0.07   0.08   0.09
     5   1    -0.00   0.05  -0.13     0.26   0.00   0.19     0.29   0.00   0.23
     6   1     0.11  -0.12  -0.04    -0.00   0.17   0.03    -0.03   0.23   0.02
     7   1    -0.03  -0.05   0.04     0.23   0.86  -0.10    -0.48  -0.63  -0.03
     8   8    -0.05   0.02  -0.03    -0.02  -0.06   0.00    -0.09  -0.21   0.02
                      7                      8                      9
                      A                      A                      A
 Frequencies --    985.5077              1044.1508              1127.7081
 Red. masses --      1.7622                 1.6327                 1.5437
 Frc consts  --      1.0084                 1.0488                 1.1567
 IR Inten    --      0.6171                64.3613                14.9368
  Atom  AN      X      Y      Z        X      Y      Z        X      Y      Z
     1   6     0.07  -0.04  -0.02     0.05  -0.02  -0.03    -0.01   0.00  -0.03
     2   6    -0.04   0.20   0.07    -0.06   0.10  -0.10    -0.03   0.07  -0.12
     3   6     0.00  -0.02  -0.00     0.06  -0.04   0.11     0.10  -0.04   0.13
     4   1    -0.14  -0.39  -0.09     0.17   0.61   0.21    -0.09  -0.46  -0.09
     5   1    -0.30   0.43  -0.46    -0.38  -0.26   0.06     0.39   0.17   0.16
     6   1     0.28  -0.32  -0.04    -0.01   0.47  -0.02    -0.64  -0.06  -0.18
     7   1     0.29   0.03  -0.03     0.22   0.01   0.10    -0.20   0.11   0.16
     8   8    -0.03  -0.10   0.00    -0.03  -0.08   0.00    -0.01  -0.01   0.01
                     10                     11                     12
                      A                      A                      A
 Frequencies --   1263.2142              1309.1160              1327.0348
 Red. masses --      1.2878                 1.2566                 1.2820
 Frc consts  --      1.2108                 1.2688                 1.3302
 IR Inten    --      1.5540                52.5961                16.0600
  Atom  AN      X      Y      Z        X      Y      Z        X      Y      Z
     1   6    -0.08   0.06   0.10     0.02  -0.02  -0.03     0.04  -0.03  -0.03
     2   6    -0.03   0.00  -0.03    -0.06  -0.01   0.08    -0.10  -0.03  -0.06
     3   6     0.02  -0.02  -0.04    -0.00   0.01   0.02    -0.05   0.04   0.03
     4   1     0.01   0.10   0.01     0.15   0.63   0.10     0.01  -0.20   0.00
     5   1     0.29   0.16   0.07     0.39   0.45  -0.05     0.51   0.26   0.15
     6   1    -0.16  -0.08  -0.06    -0.13  -0.33   0.02     0.62   0.44   0.08
     7   1     0.80  -0.40  -0.10    -0.23   0.12   0.05     0.04  -0.01   0.03
     8   8     0.01  -0.01  -0.01     0.02  -0.05  -0.07     0.00  -0.02   0.03
                     13                     14                     15
                      A                      A                      A
 Frequencies --   1382.2874              1495.8761              3086.6298
 Red. masses --      3.4755                 1.0918                 1.0875
 Frc consts  --      3.9126                 1.4395                 6.1043
 IR Inten    --     34.8481                 4.1969                16.5857
  Atom  AN      X      Y      Z        X      Y      Z        X      Y      Z
     1   6     0.19  -0.12  -0.13     0.02  -0.01  -0.01     0.00  -0.00  -0.00
     2   6     0.11  -0.04  -0.01    -0.03   0.07  -0.03     0.00  -0.00  -0.00
     3   6    -0.31   0.16   0.15    -0.02   0.01   0.01     0.01   0.00   0.08
     4   1     0.03  -0.03  -0.02     0.00   0.03  -0.00     0.00   0.00   0.00
     5   1     0.03  -0.07  -0.04     0.06  -0.37   0.59    -0.04   0.05   0.04
     6   1    -0.60  -0.07  -0.05     0.32  -0.61  -0.16    -0.00  -0.00   0.00
     7   1     0.58  -0.24   0.08     0.02   0.00   0.01    -0.09  -0.02  -0.99
     8   8     0.00   0.03  -0.01    -0.00   0.01  -0.00    -0.00  -0.00  -0.00
                     16                     17                     18
                      A                      A                      A
 Frequencies --   3105.7116              3196.2610              3686.8663
 Red. masses --      1.0585                 1.1161                 1.0683
 Frc consts  --      6.0153                 6.7177                 8.5558
 IR Inten    --      1.5614                 5.8227               311.1808
  Atom  AN      X      Y      Z        X      Y      Z        X      Y      Z
     1   6    -0.00   0.00   0.00     0.00  -0.00  -0.00     0.00  -0.00  -0.00
     2   6     0.03  -0.06   0.01    -0.03   0.01   0.09    -0.00  -0.00  -0.00
     3   6    -0.00  -0.00  -0.01    -0.00   0.00   0.00    -0.00   0.00   0.00
     4   1     0.00   0.00  -0.00    -0.00   0.01   0.02    -0.47  -0.13   0.87
     5   1    -0.42   0.56   0.46     0.27  -0.35  -0.28    -0.01   0.00   0.01
     6   1     0.03   0.11  -0.53     0.04   0.18  -0.82    -0.00  -0.00   0.01
     7   1     0.00   0.00   0.06    -0.01   0.00  -0.05     0.00   0.00   0.00
     8   8     0.00   0.00   0.00     0.00  -0.00  -0.00     0.03   0.01  -0.06

 -------------------
 - Thermochemistry -
 -------------------
 Temperature   298.150 Kelvin.  Pressure   1.00000 Atm.
 Atom     1 has atomic number  6 and mass  12.00000
 Atom     2 has atomic number  6 and mass  12.00000
 Atom     3 has atomic number  6 and mass  12.00000
 Atom     4 has atomic number  1 and mass   1.00783
 Atom     5 has atomic number  1 and mass   1.00783
 Atom     6 has atomic number  1 and mass   1.00783
 Atom     7 has atomic number  1 and mass   1.00783
 Atom     8 has atomic number  8 and mass  15.99491
 Molecular mass:    56.02621 amu.
 Principal axes and moments of inertia in atomic units:
                           1         2         3
     Eigenvalues --    96.22619 276.07851 312.12302
           X            0.99989  -0.01396   0.00461
           Y            0.01429   0.99674  -0.07944
           Z           -0.00349   0.07949   0.99683
 This molecule is an asymmetric top.
 Rotational symmetry number  1.
 Rotational temperatures (Kelvin)      0.90011     0.31373     0.27750
 Rotational constants (GHZ):          18.75520     6.53706     5.78215
 Zero-point vibrational energy     156804.8 (Joules/Mol)
                                   37.47724 (Kcal/Mol)
 Warning -- explicit consideration of   4 degrees of freedom as
           vibrations may cause significant error
 Vibrational temperatures:    243.30   455.27   647.15   770.40  1182.73
          (Kelvin)           1312.93  1417.92  1502.30  1622.52  1817.48
                             1883.52  1909.30  1988.80  2152.23  4440.97
                             4468.42  4598.70  5304.57
 
 Zero-point correction=                           0.059724 (Hartree/Particle)
 Thermal correction to Energy=                    0.064293
 Thermal correction to Enthalpy=                  0.065237
 Thermal correction to Gibbs Free Energy=         0.031886
 Sum of electronic and zero-point Energies=           -191.359331
 Sum of electronic and thermal Energies=              -191.354762
 Sum of electronic and thermal Enthalpies=            -191.353818
 Sum of electronic and thermal Free Energies=         -191.387169
 
                     E (Thermal)             CV                S
                      KCal/Mol        Cal/Mol-Kelvin    Cal/Mol-Kelvin
 Total                   40.345             14.732             70.193
 Electronic               0.000              0.000              2.755
 Translational            0.889              2.981             37.991
 Rotational               0.889              2.981             23.632
 Vibrational             38.567              8.771              5.815
 Vibration     1          0.625              1.881              2.445
 Vibration     2          0.703              1.642              1.328
 Vibration     3          0.809              1.361              0.796
 Vibration     4          0.890              1.172              0.575
                       Q            Log10(Q)             Ln(Q)
 Total Bot       0.215436D-14        -14.666682        -33.771283
 Total V=0       0.637226D+13         12.804293         29.482975
 Vib (Bot)       0.100241D-26        -26.998956        -62.167394
 Vib (Bot)    1  0.119210D+01          0.076314          0.175720
 Vib (Bot)    2  0.595333D+00         -0.225240         -0.518634
 Vib (Bot)    3  0.381323D+00         -0.418707         -0.964109
 Vib (Bot)    4  0.297158D+00         -0.527012         -1.213490
 Vib (V=0)       0.296496D+01          0.472019          1.086864
 Vib (V=0)    1  0.179271D+01          0.253511          0.583731
 Vib (V=0)    2  0.127745D+01          0.106342          0.244863
 Vib (V=0)    3  0.112881D+01          0.052622          0.121167
 Vib (V=0)    4  0.108164D+01          0.034082          0.078477
 Electronic      0.400000D+01          0.602060          1.386294
 Translational   0.164832D+08          7.217042         16.617854
 Rotational      0.325966D+05          4.513172         10.391963
 
                                                                 min
                                                             IR Spectrum
 
     3                3  33                                                      1   111 1    1  1                                   
     6                1  10                                                      4   333 2    1  0 9 9  8         5  4    3    1     
     8                9  08                                                      9   820 6    2  4 8 1  2         3  5    1    6     
     7                6  67                                                      6   279 3    8  4 6 3  2         5  0    6    9     
 
     X                X  XX                                                      X   XXX X    X  X X X  X         X  X    X    X     
     X                                                                               X X         X      X         X       X          
     X                                                                                 X         X                X                  
     X                                                                                           X                X                  
     X                                                                                                            X                  
     X                                                                                                                               
     X                                                                                                                               
     X                                                                                                                               
     X                                                                                                                               
     X                                                                                                                               
     X                                                                                                                               
     X                                                                                                                               
     X                                                                                                                               
     X                                                                                                                               
     X                                                                                                                               
     X                                                                                                                               
     X                                                                                                                               
     X                                                                                                                               
     X                                                                                                                               
     X                                                                                                                               
 
 ***** Axes restored to original set *****
 -------------------------------------------------------------------
 Center     Atomic                   Forces (Hartrees/Bohr)
 Number     Number              X              Y              Z
 -------------------------------------------------------------------
      1        6           0.000049842   -0.000007909   -0.000020355
      2        6          -0.000011913    0.000022812    0.000056360
      3        6          -0.000033878    0.000007791   -0.000012552
      4        1          -0.000037036    0.000031770   -0.000002757
      5        1           0.000009845   -0.000029025   -0.000000524
      6        1          -0.000014622    0.000014567   -0.000012069
      7        1          -0.000025901   -0.000015784   -0.000017732
      8        8           0.000063664   -0.000024224    0.000009629
 -------------------------------------------------------------------
 Cartesian Forces:  Max     0.000063664 RMS     0.000027411
 Z-matrix is all fixed cartesians, so copy forces.
 Force constants in Cartesian coordinates: 
                1             2             3             4             5 
      1  0.131512D+00
      2 -0.530145D-01  0.705604D-01
      3 -0.162494D+00  0.110004D+00  0.274706D+00
      4 -0.201736D-01  0.180652D-02  0.165872D-01  0.362353D+00
      5  0.277294D-02  0.112888D-01 -0.195746D-02  0.738650D-01  0.592473D+00
      6  0.323262D-01  0.380128D-02 -0.226982D-01 -0.926546D-01  0.999319D-01
      7 -0.109636D+00  0.389139D-01  0.125844D+00 -0.140981D+00 -0.817720D-01
      8  0.533700D-01 -0.812952D-01 -0.993243D-01 -0.754431D-01 -0.946492D-01
      9  0.127096D+00 -0.900190D-01 -0.244215D+00  0.339016D-01 -0.125513D-01
     10  0.894160D-03 -0.384171D-03 -0.424105D-03 -0.676483D-02  0.941483D-02
     11  0.425311D-02 -0.211783D-02 -0.553667D-02 -0.478068D-03 -0.155763D-01
     12  0.826302D-03 -0.825817D-03 -0.130190D-02 -0.896555D-02  0.300546D-01
     13 -0.554498D-02 -0.131903D-02  0.405713D-02 -0.721503D-01  0.121173D-01
     14  0.537006D-03 -0.648321D-03 -0.514843D-03  0.170192D-01 -0.667617D-01
     15 -0.155904D-02  0.113789D-02  0.242961D-02  0.728952D-01 -0.500905D-01
     16  0.142648D-02  0.454301D-05 -0.159269D-02 -0.565680D-01 -0.530461D-01
     17  0.108574D-02  0.258634D-03 -0.667523D-03 -0.476148D-01 -0.296160D+00
     18 -0.634834D-03  0.128086D-02  0.250497D-02 -0.154436D-01 -0.969109D-01
     19  0.739093D-02  0.117805D-01  0.160797D-01 -0.853378D-02 -0.225906D-01
     20 -0.301961D-02 -0.783311D-03 -0.815075D-02  0.987652D-03 -0.660739D-02
     21  0.501305D-02 -0.245257D-01 -0.180437D-01  0.319466D-02  0.948372D-02
     22 -0.586851D-02  0.221225D-02  0.194268D-02 -0.571809D-01  0.592387D-01
     23 -0.598467D-02  0.273676D-02  0.614746D-02  0.298576D-01 -0.124008D+00
     24 -0.573864D-03 -0.853674D-03  0.661881D-02 -0.951487D-02  0.220400D-01
                6             7             8             9            10 
      6  0.572444D+00
      7  0.570817D-01  0.379158D+00
      8 -0.192799D-02  0.105213D+00  0.410514D+00
      9 -0.556921D-01 -0.118165D+00  0.198103D+00  0.411233D+00
     10  0.295847D-02 -0.170087D-02  0.698028D-02  0.209975D-02  0.456919D-01
     11 -0.135431D-01 -0.220756D-02  0.318844D-02  0.608044D-02 -0.109819D+00
     12  0.992820D-02 -0.149603D-03  0.121816D-02  0.429524D-03 -0.393101D-01
     13  0.795048D-01 -0.851431D-02  0.695614D-02  0.256623D-01  0.181997D-02
     14 -0.596240D-01 -0.672076D-02  0.154781D-02  0.891867D-02 -0.123392D-02
     15 -0.293468D+00  0.148937D-02 -0.113220D-02 -0.228938D-02  0.873975D-04
     16 -0.118414D-01 -0.922784D-02 -0.296881D-01 -0.104985D-01 -0.165258D-03
     17 -0.840429D-01 -0.269739D-02 -0.206503D-02 -0.543784D-03 -0.101998D-02
     18 -0.840814D-01  0.526699D-02  0.519917D-02 -0.264357D-03 -0.487801D-03
     19 -0.632505D-02 -0.783021D-01 -0.741741D-01 -0.469431D-01 -0.843548D-03
     20 -0.639150D-02 -0.839357D-01 -0.223934D+00 -0.108604D+00 -0.473799D-03
     21  0.978167D-02 -0.449368D-01 -0.105256D+00 -0.992862D-01 -0.349159D-03
     22 -0.610501D-01 -0.307956D-01  0.678566D-02 -0.131534D-01 -0.389316D-01
     23  0.617964D-01  0.332062D-01 -0.133068D-01 -0.138415D-02  0.965353D-01
     24 -0.136214D+00 -0.264310D-01  0.312074D-02 -0.991534D-02  0.354256D-01
               11            12            13            14            15 
     11  0.376211D+00
     12  0.164403D+00  0.122937D+00
     13 -0.133909D-02  0.559697D-03  0.742840D-01
     14  0.197277D-02  0.110798D-02 -0.167652D-01  0.639398D-01
     15 -0.320661D-03  0.789607D-03 -0.770308D-01  0.478458D-01  0.314364D+00
     16  0.267376D-02 -0.324298D-02  0.404901D-02  0.851716D-02  0.283551D-02
     17 -0.971318D-03  0.276400D-02 -0.107285D-02  0.287909D-03 -0.926707D-03
     18  0.347787D-02 -0.284644D-02 -0.579183D-02 -0.253302D-01 -0.384046D-02
     19  0.235710D-03 -0.444068D-03  0.734017D-03  0.220365D-03 -0.225968D-03
     20  0.673255D-03 -0.139276D-04  0.417670D-03  0.542719D-03  0.601632D-04
     21  0.282792D-04  0.416528D-03 -0.106549D-02  0.721990D-04  0.306395D-03
     22  0.106681D+00  0.507263D-01  0.532258D-02 -0.157392D-02  0.150832D-02
     23 -0.363380D+00 -0.198708D+00  0.100500D-02 -0.881017D-03  0.342630D-02
     24 -0.154589D+00 -0.130352D+00 -0.258958D-01  0.275245D-01 -0.182921D-01
               16            17            18            19            20 
     16  0.627740D-01
     17  0.477901D-01  0.318567D+00
     18  0.177895D-01  0.840462D-01  0.827845D-01
     19 -0.342173D-02  0.255452D-03  0.302294D-03  0.791298D-01
     20 -0.161171D-02  0.598714D-03  0.618840D-03  0.874894D-01  0.224560D+00
     21  0.278379D-02  0.861465D-04 -0.170739D-03  0.352162D-01  0.123480D+00
     22  0.113334D-02  0.327372D-02 -0.100080D-02  0.384638D-02  0.146050D-03
     23  0.253604D-01 -0.205156D-01  0.276182D-01 -0.321668D-02  0.495025D-02
     24  0.376679D-02 -0.715427D-03  0.591392D-02  0.233998D-02 -0.998876D-03
               21            22            23            24 
     21  0.106787D+00
     22  0.143813D-03  0.122474D+00
     23 -0.336809D-02 -0.176763D+00  0.514404D+00
     24  0.208539D-03  0.208832D-01  0.104472D+00  0.282033D+00
 Leave Link  716 at Thu Jan 24 15:59:57 2019, MaxMem=    33554432 cpu:         0.0
 (Enter /apl/tryton/gaussian/09/d01/g09/l103.exe)

 GradGradGradGradGradGradGradGradGradGradGradGradGradGradGradGradGradGrad
 Berny optimization.
 Search for a local minimum.
 Step number   1 out of a maximum of    2
 All quantities printed in internal units (Hartrees-Bohrs-Radians)
 Second derivative matrix not updated -- analytic derivatives used.
 ITU=  0
     Eigenvalues ---    0.00453   0.01152   0.02685   0.03394   0.04887
     Eigenvalues ---    0.06435   0.09152   0.10830   0.13358   0.13738
     Eigenvalues ---    0.17252   0.27831   0.39268   0.58897   0.80871
     Eigenvalues ---    0.84275   0.93556   0.98103
 Angle between quadratic step and forces=  66.83 degrees.
 Linear search not attempted -- first point.
 TrRot=  0.000534 -0.000048  0.000207  0.000097  0.000150  0.000097
 MatCor failed.
 Variable       Old X    -DE/DX   Delta X   Delta X   Delta X     New X
                                 (Linear)    (Quad)   (Total)
    X1       -3.15545   0.00005   0.00000   0.00215   0.00269  -3.15276
    Y1        0.82320  -0.00001   0.00000  -0.00192  -0.00258   0.82063
    Z1        1.12751  -0.00002   0.00000   0.00128   0.00196   1.12947
    X2        0.71924  -0.00001   0.00000  -0.00002   0.00008   0.71932
    Y2        1.01253   0.00002   0.00000  -0.00023  -0.00014   1.01240
    Z2       -1.62910   0.00006   0.00000  -0.00012  -0.00002  -1.62912
    X3       -1.83374  -0.00003   0.00000  -0.00067  -0.00028  -1.83402
    Y3       -0.01650   0.00001   0.00000   0.00033  -0.00007  -0.01658
    Z3       -0.95522  -0.00001   0.00000  -0.00121  -0.00072  -0.95595
    X4        2.34037  -0.00004   0.00000  -0.00200  -0.00111   2.33925
    Y4       -2.29520   0.00003   0.00000   0.00007   0.00047  -2.29473
    Z4       -0.61650  -0.00000   0.00000   0.00204   0.00190  -0.61460
    X5        1.28338   0.00001   0.00000   0.00081   0.00068   1.28405
    Y5        0.66977  -0.00003   0.00000  -0.00182  -0.00162   0.66815
    Z5       -3.57828  -0.00000   0.00000   0.00036   0.00037  -3.57791
    X6        1.08032  -0.00001   0.00000  -0.00067  -0.00086   1.07947
    Y6        2.93839   0.00001   0.00000   0.00039   0.00055   2.93894
    Z6       -1.02060  -0.00001   0.00000  -0.00166  -0.00162  -1.02222
    X7       -2.54434  -0.00003   0.00000  -0.00286  -0.00230  -2.54663
    Y7       -1.68272  -0.00002   0.00000   0.00241   0.00187  -1.68085
    Z7       -1.95158  -0.00002   0.00000  -0.00334  -0.00276  -1.95433
    X8        1.87701   0.00006   0.00000   0.00041   0.00110   1.87811
    Y8       -0.69088  -0.00002   0.00000   0.00121   0.00152  -0.68936
    Z8        0.16393   0.00001   0.00000   0.00096   0.00089   0.16482
         Item               Value     Threshold  Converged?
 Maximum Force            0.000064     0.000450     YES
 RMS     Force            0.000027     0.000300     YES
 Maximum Displacement     0.002756     0.001800     NO 
 RMS     Displacement     0.001457     0.001200     NO 
 Predicted change in Energy=-1.960927D-07
 GradGradGradGradGradGradGradGradGradGradGradGradGradGradGradGradGradGrad

 Leave Link  103 at Thu Jan 24 15:59:57 2019, MaxMem=    33554432 cpu:         0.0
 (Enter /apl/tryton/gaussian/09/d01/g09/l9999.exe)
 1\1\ CITASK-GV0243\Freq\UB3LYP\6-311++G(d,p)\C3H4O1(1+,4)\EERD\24-Jan-
 2019\0\\#p b3lyp/6-311++g(d,p) freq\\min\\1,4\C,-1.669792,0.435621,0.5
 96655\C,0.380607,0.535808,-0.862084\C,-0.970372,-0.008732,-0.505483\H,
 1.238468,-1.21457,-0.326236\H,0.679134,0.354427,-1.893545\H,0.571683,1
 .55493,-0.540079\H,-1.346405,-0.890456,-1.03273\O,0.99327,-0.365599,0.
 086749\\Version=ES64L-G09RevD.01\State=4-A\HF=-191.4190551\S2=3.76783\
 S2-1=0.\S2A=3.75004\RMSD=3.321e-09\RMSF=2.741e-05\ZeroPoint=0.0597238\
 Thermal=0.0642932\Dipole=-0.3666876,-0.3016062,-0.6750113\DipoleDeriv=
 0.5357269,-0.0426777,0.0972616,-0.1860101,0.2812165,-0.0828273,-0.3996
 692,0.0296837,0.1032971,0.3503613,-0.0900296,-0.0183204,0.1825432,0.34
 5429,-0.1982563,-0.050959,-0.08601,0.2682545,-0.0469477,-0.0399717,-0.
 1515473,-0.0250432,0.0998634,0.138271,0.4333537,-0.015237,0.2863012,0.
 3901733,-0.0507727,-0.0287442,-0.293423,0.4267116,-0.0262533,-0.082237
 7,-0.0184873,0.2542034,0.0976625,0.0055166,0.0193686,-0.0249397,0.0846
 883,-0.0121462,-0.011515,0.0019503,0.0850657,0.0979913,0.004996,0.0076
 781,0.0047231,0.0926198,0.0040396,0.0277825,-0.0312256,0.0847874,0.118
 403,0.0274464,0.0563587,0.0288127,0.1307825,0.0151565,0.0406593,-0.022
 1737,0.1163434,-0.5433705,0.1854928,0.0179449,0.313337,-0.461311,0.162
 0159,0.0425855,0.1414995,-0.1982526\Polar=55.0385838,-5.4427569,29.120
 0874,-5.9073615,2.0591783,32.7601613\PG=C01 [X(C3H4O1)]\NImag=0\\0.131
 51170,-0.05301452,0.07056045,-0.16249409,0.11000412,0.27470557,-0.0201
 7364,0.00180652,0.01658715,0.36235272,0.00277294,0.01128880,-0.0019574
 6,0.07386498,0.59247345,0.03232622,0.00380128,-0.02269815,-0.09265463,
 0.09993185,0.57244431,-0.10963613,0.03891392,0.12584421,-0.14098135,-0
 .08177204,0.05708171,0.37915815,0.05337000,-0.08129518,-0.09932434,-0.
 07544314,-0.09464923,-0.00192799,0.10521330,0.41051413,0.12709626,-0.0
 9001899,-0.24421524,0.03390160,-0.01255128,-0.05569210,-0.11816487,0.1
 9810272,0.41123306,0.00089416,-0.00038417,-0.00042410,-0.00676483,0.00
 941483,0.00295847,-0.00170087,0.00698028,0.00209975,0.04569194,0.00425
 311,-0.00211783,-0.00553667,-0.00047807,-0.01557627,-0.01354308,-0.002
 20756,0.00318844,0.00608044,-0.10981850,0.37621102,0.00082630,-0.00082
 582,-0.00130190,-0.00896555,0.03005459,0.00992820,-0.00014960,0.001218
 16,0.00042952,-0.03931012,0.16440299,0.12293654,-0.00554498,-0.0013190
 3,0.00405713,-0.07215032,0.01211732,0.07950481,-0.00851431,0.00695614,
 0.02566226,0.00181997,-0.00133909,0.00055970,0.07428402,0.00053701,-0.
 00064832,-0.00051484,0.01701922,-0.06676171,-0.05962403,-0.00672076,0.
 00154781,0.00891867,-0.00123392,0.00197277,0.00110798,-0.01676516,0.06
 393984,-0.00155904,0.00113789,0.00242961,0.07289520,-0.05009054,-0.293
 46809,0.00148937,-0.00113220,-0.00228938,0.00008740,-0.00032066,0.0007
 8961,-0.07703078,0.04784576,0.31436441,0.00142648,0.00000454,-0.001592
 69,-0.05656796,-0.05304611,-0.01184143,-0.00922784,-0.02968809,-0.0104
 9853,-0.00016526,0.00267376,-0.00324298,0.00404901,0.00851716,0.002835
 51,0.06277395,0.00108574,0.00025863,-0.00066752,-0.04761475,-0.2961600
 4,-0.08404294,-0.00269739,-0.00206503,-0.00054378,-0.00101998,-0.00097
 132,0.00276400,-0.00107285,0.00028791,-0.00092671,0.04779006,0.3185667
 5,-0.00063483,0.00128086,0.00250497,-0.01544356,-0.09691093,-0.0840814
 2,0.00526699,0.00519917,-0.00026436,-0.00048780,0.00347787,-0.00284644
 ,-0.00579183,-0.02533024,-0.00384046,0.01778954,0.08404624,0.08278453,
 0.00739093,0.01178048,0.01607972,-0.00853378,-0.02259058,-0.00632505,-
 0.07830209,-0.07417415,-0.04694306,-0.00084355,0.00023571,-0.00044407,
 0.00073402,0.00022037,-0.00022597,-0.00342173,0.00025545,0.00030229,0.
 07912982,-0.00301961,-0.00078331,-0.00815075,0.00098765,-0.00660739,-0
 .00639150,-0.08393566,-0.22393412,-0.10860361,-0.00047380,0.00067326,-
 0.00001393,0.00041767,0.00054272,0.00006016,-0.00161171,0.00059871,0.0
 0061884,0.08748940,0.22455988,0.00501305,-0.02452566,-0.01804365,0.003
 19466,0.00948372,0.00978167,-0.04493681,-0.10525626,-0.09928616,-0.000
 34916,0.00002828,0.00041653,-0.00106549,0.00007220,0.00030639,0.002783
 79,0.00008615,-0.00017074,0.03521615,0.12347967,0.10678742,-0.00586851
 ,0.00221225,0.00194268,-0.05718085,0.05923865,-0.06105011,-0.03079556,
 0.00678566,-0.01315342,-0.03893157,0.10668065,0.05072633,0.00532258,-0
 .00157392,0.00150832,0.00113334,0.00327372,-0.00100080,0.00384638,0.00
 014605,0.00014381,0.12247419,-0.00598467,0.00273676,0.00614746,0.02985
 759,-0.12400760,0.06179642,0.03320619,-0.01330682,-0.00138415,0.096535
 26,-0.36338007,-0.19870797,0.00100500,-0.00088102,0.00342630,0.0253603
 8,-0.02051562,0.02761819,-0.00321668,0.00495025,-0.00336809,-0.1767630
 6,0.51440412,-0.00057386,-0.00085367,0.00661881,-0.00951487,0.02204004
 ,-0.13621441,-0.02643099,0.00312074,-0.00991534,0.03542556,-0.15458916
 ,-0.13035205,-0.02589579,0.02752452,-0.01829209,0.00376679,-0.00071543
 ,0.00591392,0.00233998,-0.00099888,0.00020854,0.02088319,0.10447184,0.
 28203262\\-0.00004984,0.00000791,0.00002035,0.00001191,-0.00002281,-0.
 00005636,0.00003388,-0.00000779,0.00001255,0.00003704,-0.00003177,0.00
 000276,-0.00000985,0.00002902,0.00000052,0.00001462,-0.00001457,0.0000
 1207,0.00002590,0.00001578,0.00001773,-0.00006366,0.00002422,-0.000009
 63\\\@


 NOTHING MAKES A PERSON MORE PRODUCTIVE THAN THE LAST MINUTE.
 Job cpu time:       0 days  0 hours  3 minutes 45.2 seconds.
 File lengths (MBytes):  RWF=     26 Int=      0 D2E=      0 Chk=      2 Scr=      1
 Normal termination of Gaussian 09 at Thu Jan 24 15:59:57 2019.
