 Entering Gaussian System, Link 0=g09
 Initial command:
 /apl/tryton/gaussian/09/d01/g09/l1.exe "/users/work/eerd/M3C-outputs/7/Gau-6178.inp" -scrdir="/users/work/eerd/M3C-outputs/7/"
 Entering Link 1 = /apl/tryton/gaussian/09/d01/g09/l1.exe PID=      6179.
  
 Copyright (c) 1988,1990,1992,1993,1995,1998,2003,2009,2013,
            Gaussian, Inc.  All Rights Reserved.
  
 This is part of the Gaussian(R) 09 program.  It is based on
 the Gaussian(R) 03 system (copyright 2003, Gaussian, Inc.),
 the Gaussian(R) 98 system (copyright 1998, Gaussian, Inc.),
 the Gaussian(R) 94 system (copyright 1995, Gaussian, Inc.),
 the Gaussian 92(TM) system (copyright 1992, Gaussian, Inc.),
 the Gaussian 90(TM) system (copyright 1990, Gaussian, Inc.),
 the Gaussian 88(TM) system (copyright 1988, Gaussian, Inc.),
 the Gaussian 86(TM) system (copyright 1986, Carnegie Mellon
 University), and the Gaussian 82(TM) system (copyright 1983,
 Carnegie Mellon University). Gaussian is a federally registered
 trademark of Gaussian, Inc.
  
 This software contains proprietary and confidential information,
 including trade secrets, belonging to Gaussian, Inc.
  
 This software is provided under written license and may be
 used, copied, transmitted, or stored only in accord with that
 written license.
  
 The following legend is applicable only to US Government
 contracts under FAR:
  
                    RESTRICTED RIGHTS LEGEND
  
 Use, reproduction and disclosure by the US Government is
 subject to restrictions as set forth in subparagraphs (a)
 and (c) of the Commercial Computer Software - Restricted
 Rights clause in FAR 52.227-19.
  
 Gaussian, Inc.
 340 Quinnipiac St., Bldg. 40, Wallingford CT 06492
  
  
 ---------------------------------------------------------------
 Warning -- This program may not be used in any manner that
 competes with the business of Gaussian, Inc. or will provide
 assistance to any competitor of Gaussian, Inc.  The licensee
 of this program is prohibited from giving any competitor of
 Gaussian, Inc. access to this program.  By using this program,
 the user acknowledges that Gaussian, Inc. is engaged in the
 business of creating and licensing software in the field of
 computational chemistry and represents and warrants to the
 licensee that it is not a competitor of Gaussian, Inc. and that
 it will not use this program in any manner prohibited above.
 ---------------------------------------------------------------
  

 Cite this work as:
 Gaussian 09, Revision D.01,
 M. J. Frisch, G. W. Trucks, H. B. Schlegel, G. E. Scuseria, 
 M. A. Robb, J. R. Cheeseman, G. Scalmani, V. Barone, B. Mennucci, 
 G. A. Petersson, H. Nakatsuji, M. Caricato, X. Li, H. P. Hratchian, 
 A. F. Izmaylov, J. Bloino, G. Zheng, J. L. Sonnenberg, M. Hada, 
 M. Ehara, K. Toyota, R. Fukuda, J. Hasegawa, M. Ishida, T. Nakajima, 
 Y. Honda, O. Kitao, H. Nakai, T. Vreven, J. A. Montgomery, Jr., 
 J. E. Peralta, F. Ogliaro, M. Bearpark, J. J. Heyd, E. Brothers, 
 K. N. Kudin, V. N. Staroverov, T. Keith, R. Kobayashi, J. Normand, 
 K. Raghavachari, A. Rendell, J. C. Burant, S. S. Iyengar, J. Tomasi, 
 M. Cossi, N. Rega, J. M. Millam, M. Klene, J. E. Knox, J. B. Cross, 
 V. Bakken, C. Adamo, J. Jaramillo, R. Gomperts, R. E. Stratmann, 
 O. Yazyev, A. J. Austin, R. Cammi, C. Pomelli, J. W. Ochterski, 
 R. L. Martin, K. Morokuma, V. G. Zakrzewski, G. A. Voth, 
 P. Salvador, J. J. Dannenberg, S. Dapprich, A. D. Daniels, 
 O. Farkas, J. B. Foresman, J. V. Ortiz, J. Cioslowski, 
 and D. J. Fox, Gaussian, Inc., Wallingford CT, 2013.
 
 ******************************************
 Gaussian 09:  ES64L-G09RevD.01 24-Apr-2013
                 4-Mar-2018 
 ******************************************
 ---------------------------
 #p b3lyp/6-311++g(d,p) freq
 ---------------------------
 1/10=4,30=1,38=1/1,3;
 2/12=2,17=6,18=5,40=1/2;
 3/5=4,6=6,7=1111,11=2,16=1,25=1,30=1,71=2,74=-5,140=1/1,2,3;
 4//1;
 5/5=2,38=5,98=1/2;
 8/6=4,10=90,11=11/1;
 11/6=1,8=1,9=11,15=111,16=1/1,2,10;
 10/6=1/2;
 6/7=2,8=2,9=2,10=2,18=1,28=1/1;
 7/8=1,10=1,25=1/1,2,3,16;
 1/10=4,30=1/3;
 99//99;
 Leave Link    1 at Sun Mar  4 21:08:27 2018, MaxMem=           0 cpu:         0.0
 (Enter /apl/tryton/gaussian/09/d01/g09/l101.exe)
 ---
 min
 ---
 Symbolic Z-matrix:
 Charge =  0 Multiplicity = 3
 C                    -1.28205  -0.08471  -0.00005 
 H                    -2.12543   0.59705  -0.00014 
 H                    -1.51279  -1.15245   0.00006 
 C                     0.00002   0.35637  -0.00007 
 C                     1.28203  -0.08489   0.00001 
 H                     1.51262  -1.15266   0.00013 
 H                     2.12551   0.59676  -0.00005 
 
 NAtoms=      7 NQM=        7 NQMF=       0 NMMI=      0 NMMIF=      0
                NMic=       0 NMicF=      0.
                    Isotopes and Nuclear Properties:
 (Nuclear quadrupole moments (NQMom) in fm**2, nuclear magnetic moments (NMagM)
  in nuclear magnetons)

  Atom         1           2           3           4           5           6           7
 IAtWgt=          12           1           1          12          12           1           1
 AtmWgt=  12.0000000   1.0078250   1.0078250  12.0000000  12.0000000   1.0078250   1.0078250
 NucSpn=           0           1           1           0           0           1           1
 AtZEff=   0.0000000   0.0000000   0.0000000   0.0000000   0.0000000   0.0000000   0.0000000
 NQMom=    0.0000000   0.0000000   0.0000000   0.0000000   0.0000000   0.0000000   0.0000000
 NMagM=    0.0000000   2.7928460   2.7928460   0.0000000   0.0000000   2.7928460   2.7928460
 AtZNuc=   6.0000000   1.0000000   1.0000000   6.0000000   6.0000000   1.0000000   1.0000000
 Leave Link  101 at Sun Mar  4 21:08:27 2018, MaxMem=    33554432 cpu:         0.1
 (Enter /apl/tryton/gaussian/09/d01/g09/l103.exe)

 GradGradGradGradGradGradGradGradGradGradGradGradGradGradGradGradGradGrad
 Berny optimization.
 Initialization pass.
 Trust Radius=3.00D-01 FncErr=1.00D-07 GrdErr=1.00D-07
 Number of steps in this run=      2 maximum allowed number of steps=      2.
 GradGradGradGradGradGradGradGradGradGradGradGradGradGradGradGradGradGrad

 Leave Link  103 at Sun Mar  4 21:08:27 2018, MaxMem=    33554432 cpu:         0.0
 (Enter /apl/tryton/gaussian/09/d01/g09/l202.exe)
                          Input orientation:                          
 ---------------------------------------------------------------------
 Center     Atomic      Atomic             Coordinates (Angstroms)
 Number     Number       Type             X           Y           Z
 ---------------------------------------------------------------------
      1          6           0       -1.282052   -0.084709   -0.000046
      2          1           0       -2.125434    0.597052   -0.000138
      3          1           0       -1.512787   -1.152447    0.000065
      4          6           0        0.000022    0.356374   -0.000068
      5          6           0        1.282035   -0.084887    0.000006
      6          1           0        1.512622   -1.152658    0.000127
      7          1           0        2.125512    0.596756   -0.000050
 ---------------------------------------------------------------------
                    Distance matrix (angstroms):
                    1          2          3          4          5
     1  C    0.000000
     2  H    1.084477   0.000000
     3  H    1.092385   1.853668   0.000000
     4  C    1.355828   2.139040   2.136617   0.000000
     5  C    2.564087   3.475038   2.991775   1.355828   0.000000
     6  H    2.991775   4.036946   3.025409   2.136617   1.092385
     7  H    3.475038   4.250946   4.036946   2.139040   1.084477
                    6          7
     6  H    0.000000
     7  H    1.853668   0.000000
 Stoichiometry    C3H4(3)
 Framework group  C1[X(C3H4)]
 Deg. of freedom    15
 Full point group                 C1      NOp   1
 Largest Abelian subgroup         C1      NOp   1
 Largest concise Abelian subgroup C1      NOp   1
                         Standard orientation:                         
 ---------------------------------------------------------------------
 Center     Atomic      Atomic             Coordinates (Angstroms)
 Number     Number       Type             X           Y           Z
 ---------------------------------------------------------------------
      1          6           0       -1.282044   -0.085224   -0.000017
      2          1           0       -2.125473    0.596478   -0.000108
      3          1           0       -1.512705   -1.152978    0.000094
      4          6           0        0.000000    0.355948   -0.000039
      5          6           0        1.282044   -0.085224    0.000036
      6          1           0        1.512705   -1.152978    0.000156
      7          1           0        2.125473    0.596478   -0.000021
 ---------------------------------------------------------------------
 Rotational constants (GHZ):     99.8594352      9.5057543      8.6795374
 Leave Link  202 at Sun Mar  4 21:08:27 2018, MaxMem=    33554432 cpu:         0.0
 (Enter /apl/tryton/gaussian/09/d01/g09/l301.exe)
 Standard basis: 6-311++G(d,p) (5D, 7F)
 Ernie: Thresh=  0.10000D-02 Tol=  0.10000D-05 Strict=F.
 There are    97 symmetry adapted cartesian basis functions of A   symmetry.
 There are    94 symmetry adapted basis functions of A   symmetry.
    94 basis functions,   144 primitive gaussians,    97 cartesian basis functions
    12 alpha electrons       10 beta electrons
       nuclear repulsion energy        58.2228560982 Hartrees.
 IExCor=  402 DFT=T Ex+Corr=B3LYP ExCW=0 ScaHFX=  0.200000
 ScaDFX=  0.800000  0.720000  1.000000  0.810000 ScalE2=  1.000000  1.000000
 IRadAn=      0 IRanWt=     -1 IRanGd=            0 ICorTp=0 IEmpDi=  4
 NAtoms=    7 NActive=    7 NUniq=    7 SFac= 1.00D+00 NAtFMM=   60 NAOKFM=F Big=F
 Integral buffers will be    131072 words long.
 Raffenetti 2 integral format.
 Two-electron integral symmetry is turned on.
 Leave Link  301 at Sun Mar  4 21:08:27 2018, MaxMem=    33554432 cpu:         0.0
 (Enter /apl/tryton/gaussian/09/d01/g09/l302.exe)
 NPDir=0 NMtPBC=     1 NCelOv=     1 NCel=       1 NClECP=     1 NCelD=      1
         NCelK=      1 NCelE2=     1 NClLst=     1 CellRange=     0.0.
 One-electron integrals computed using PRISM.
 NBasis=    94 RedAO= T EigKep=  3.29D-05  NBF=    94
 NBsUse=    94 1.00D-06 EigRej= -1.00D+00 NBFU=    94
 Precomputing XC quadrature grid using
 IXCGrd= 4 IRadAn=           0 IRanWt=          -1 IRanGd=           0 AccXCQ= 0.00D+00.
 Generated NRdTot=       0 NPtTot=           0 NUsed=           0 NTot=          32
 NSgBfM=    97    97    97    97    97 MxSgAt=     7 MxSgA2=     7.
 Leave Link  302 at Sun Mar  4 21:08:28 2018, MaxMem=    33554432 cpu:         0.2
 (Enter /apl/tryton/gaussian/09/d01/g09/l303.exe)
 DipDrv:  MaxL=1.
 Leave Link  303 at Sun Mar  4 21:08:28 2018, MaxMem=    33554432 cpu:         0.0
 (Enter /apl/tryton/gaussian/09/d01/g09/l401.exe)
 ExpMin= 3.60D-02 ExpMax= 4.56D+03 ExpMxC= 6.82D+02 IAcc=3 IRadAn=         5 AccDes= 0.00D+00
 Harris functional with IExCor=  402 and IRadAn=       5 diagonalized for initial guess.
 HarFok:  IExCor=  402 AccDes= 0.00D+00 IRadAn=         5 IDoV= 1 UseB2=F ITyADJ=14
 ICtDFT=  3500011 ScaDFX=  1.000000  1.000000  1.000000  1.000000
 FoFCou: FMM=F IPFlag=           0 FMFlag=      100000 FMFlg1=           0
         NFxFlg=           0 DoJE=T BraDBF=F KetDBF=T FulRan=T
         wScrn=  0.000000 ICntrl=     500 IOpCl=  0 I1Cent=   200000004 NGrid=           0
         NMat0=    1 NMatS0=      1 NMatT0=    0 NMatD0=    1 NMtDS0=    0 NMtDT0=    0
 Petite list used in FoFCou.
 Harris En= -116.608419400520    
 JPrj=0 DoOrth=F DoCkMO=F.
 Initial guess <Sx>= 0.0000 <Sy>= 0.0000 <Sz>= 1.0000 <S**2>= 2.0000 S= 1.0000
 Leave Link  401 at Sun Mar  4 21:08:29 2018, MaxMem=    33554432 cpu:         1.6
 (Enter /apl/tryton/gaussian/09/d01/g09/l502.exe)
 UHF open shell SCF:
 Using DIIS extrapolation, IDIIS=  1040.
 Integral symmetry usage will be decided dynamically.
 Keep R1 and R2 ints in memory in canonical form, NReq=20907651.
 IVT=       48087 IEndB=       48087 NGot=    33554432 MDV=    13565656
 LenX=    13565656 LenY=    13555806
 Requested convergence on RMS density matrix=1.00D-08 within 128 cycles.
 Requested convergence on MAX density matrix=1.00D-06.
 Requested convergence on             energy=1.00D-06.
 No special actions if energy rises.
 FoFCou: FMM=F IPFlag=           0 FMFlag=           0 FMFlg1=           0
         NFxFlg=           0 DoJE=F BraDBF=F KetDBF=F FulRan=T
         wScrn=  0.000000 ICntrl=     600 IOpCl=  0 I1Cent=           0 NGrid=           0
         NMat0=    1 NMatS0=   4465 NMatT0=    0 NMatD0=    1 NMtDS0=    0 NMtDT0=    0
 Symmetry not used in FoFCou.

 Cycle   1  Pass 1  IDiag  1:
 E= -116.524302412741    
 DIIS: error= 4.63D-02 at cycle   1 NSaved=   1.
 NSaved= 1 IEnMin= 1 EnMin= -116.524302412741     IErMin= 1 ErrMin= 4.63D-02
 ErrMax= 4.63D-02  0.00D+00 EMaxC= 1.00D-01 BMatC= 3.52D-01 BMatP= 3.52D-01
 IDIUse=3 WtCom= 5.37D-01 WtEn= 4.63D-01
 Coeff-Com:  0.100D+01
 Coeff-En:   0.100D+01
 Coeff:      0.100D+01
 Gap=     0.269 Goal=   None    Shift=    0.000
 Gap=     0.198 Goal=   None    Shift=    0.000
 GapD=    0.198 DampG=1.000 DampE=0.500 DampFc=0.5000 IDamp=-1.
 Damping current iteration by 5.00D-01
 RMSDP=5.63D-03 MaxDP=1.03D-01              OVMax= 1.92D-01

 Cycle   2  Pass 1  IDiag  1:
 E= -116.567949570821     Delta-E=       -0.043647158080 Rises=F Damp=T
 DIIS: error= 5.33D-03 at cycle   2 NSaved=   2.
 NSaved= 2 IEnMin= 2 EnMin= -116.567949570821     IErMin= 2 ErrMin= 5.33D-03
 ErrMax= 5.33D-03  0.00D+00 EMaxC= 1.00D-01 BMatC= 1.33D-02 BMatP= 3.52D-01
 IDIUse=3 WtCom= 9.47D-01 WtEn= 5.33D-02
 Coeff-Com: -0.218D-01 0.102D+01
 Coeff-En:   0.281D-02 0.997D+00
 Coeff:     -0.205D-01 0.102D+01
 Gap=     0.213 Goal=   None    Shift=    0.000
 Gap=     0.202 Goal=   None    Shift=    0.000
 RMSDP=1.41D-03 MaxDP=1.55D-02 DE=-4.36D-02 OVMax= 1.16D-01

 Cycle   3  Pass 1  IDiag  1:
 E= -116.615871497216     Delta-E=       -0.047921926395 Rises=F Damp=F
 DIIS: error= 4.99D-03 at cycle   3 NSaved=   3.
 NSaved= 3 IEnMin= 3 EnMin= -116.615871497216     IErMin= 3 ErrMin= 4.99D-03
 ErrMax= 4.99D-03  0.00D+00 EMaxC= 1.00D-01 BMatC= 2.30D-03 BMatP= 1.33D-02
 IDIUse=3 WtCom= 9.50D-01 WtEn= 4.99D-02
 Coeff-Com: -0.541D-01 0.185D+00 0.869D+00
 Coeff-En:   0.000D+00 0.000D+00 0.100D+01
 Coeff:     -0.514D-01 0.176D+00 0.875D+00
 Gap=     0.214 Goal=   None    Shift=    0.000
 Gap=     0.190 Goal=   None    Shift=    0.000
 RMSDP=4.60D-04 MaxDP=6.89D-03 DE=-4.79D-02 OVMax= 2.34D-02

 Cycle   4  Pass 1  IDiag  1:
 E= -116.616361701585     Delta-E=       -0.000490204369 Rises=F Damp=F
 DIIS: error= 3.74D-03 at cycle   4 NSaved=   4.
 NSaved= 4 IEnMin= 4 EnMin= -116.616361701585     IErMin= 4 ErrMin= 3.74D-03
 ErrMax= 3.74D-03  0.00D+00 EMaxC= 1.00D-01 BMatC= 1.28D-03 BMatP= 2.30D-03
 IDIUse=3 WtCom= 9.63D-01 WtEn= 3.74D-02
 Coeff-Com: -0.313D-01 0.520D-01 0.510D+00 0.469D+00
 Coeff-En:   0.000D+00 0.000D+00 0.213D+00 0.787D+00
 Coeff:     -0.301D-01 0.501D-01 0.499D+00 0.481D+00
 Gap=     0.214 Goal=   None    Shift=    0.000
 Gap=     0.194 Goal=   None    Shift=    0.000
 RMSDP=1.91D-04 MaxDP=4.00D-03 DE=-4.90D-04 OVMax= 1.14D-02

 Cycle   5  Pass 1  IDiag  1:
 E= -116.616699857089     Delta-E=       -0.000338155504 Rises=F Damp=F
 DIIS: error= 6.36D-04 at cycle   5 NSaved=   5.
 NSaved= 5 IEnMin= 5 EnMin= -116.616699857089     IErMin= 5 ErrMin= 6.36D-04
 ErrMax= 6.36D-04  0.00D+00 EMaxC= 1.00D-01 BMatC= 3.11D-05 BMatP= 1.28D-03
 IDIUse=3 WtCom= 9.94D-01 WtEn= 6.36D-03
 Coeff-Com:  0.234D-02-0.209D-01-0.338D-01 0.782D-01 0.974D+00
 Coeff-En:   0.000D+00 0.000D+00 0.000D+00 0.000D+00 0.100D+01
 Coeff:      0.232D-02-0.207D-01-0.336D-01 0.777D-01 0.974D+00
 Gap=     0.215 Goal=   None    Shift=    0.000
 Gap=     0.195 Goal=   None    Shift=    0.000
 RMSDP=4.84D-05 MaxDP=1.03D-03 DE=-3.38D-04 OVMax= 3.89D-03

 Cycle   6  Pass 1  IDiag  1:
 E= -116.616718483664     Delta-E=       -0.000018626575 Rises=F Damp=F
 DIIS: error= 1.56D-04 at cycle   6 NSaved=   6.
 NSaved= 6 IEnMin= 6 EnMin= -116.616718483664     IErMin= 6 ErrMin= 1.56D-04
 ErrMax= 1.56D-04  0.00D+00 EMaxC= 1.00D-01 BMatC= 2.70D-06 BMatP= 3.11D-05
 IDIUse=3 WtCom= 9.98D-01 WtEn= 1.56D-03
 Coeff-Com:  0.388D-02-0.730D-02-0.619D-01-0.464D-01 0.593D-01 0.105D+01
 Coeff-En:   0.000D+00 0.000D+00 0.000D+00 0.000D+00 0.000D+00 0.100D+01
 Coeff:      0.388D-02-0.729D-02-0.618D-01-0.463D-01 0.593D-01 0.105D+01
 Gap=     0.215 Goal=   None    Shift=    0.000
 Gap=     0.195 Goal=   None    Shift=    0.000
 RMSDP=2.29D-05 MaxDP=4.59D-04 DE=-1.86D-05 OVMax= 1.66D-03

 Cycle   7  Pass 1  IDiag  1:
 E= -116.616720973691     Delta-E=       -0.000002490027 Rises=F Damp=F
 DIIS: error= 4.65D-05 at cycle   7 NSaved=   7.
 NSaved= 7 IEnMin= 7 EnMin= -116.616720973691     IErMin= 7 ErrMin= 4.65D-05
 ErrMax= 4.65D-05  0.00D+00 EMaxC= 1.00D-01 BMatC= 2.92D-07 BMatP= 2.70D-06
 IDIUse=1 WtCom= 1.00D+00 WtEn= 0.00D+00
 Coeff-Com:  0.177D-03 0.138D-02-0.428D-02-0.923D-02-0.822D-01 0.133D+00
 Coeff-Com:  0.961D+00
 Coeff:      0.177D-03 0.138D-02-0.428D-02-0.923D-02-0.822D-01 0.133D+00
 Coeff:      0.961D+00
 Gap=     0.215 Goal=   None    Shift=    0.000
 Gap=     0.195 Goal=   None    Shift=    0.000
 RMSDP=6.96D-06 MaxDP=1.04D-04 DE=-2.49D-06 OVMax= 4.06D-04

 Cycle   8  Pass 1  IDiag  1:
 E= -116.616721169243     Delta-E=       -0.000000195552 Rises=F Damp=F
 DIIS: error= 1.05D-05 at cycle   8 NSaved=   8.
 NSaved= 8 IEnMin= 8 EnMin= -116.616721169243     IErMin= 8 ErrMin= 1.05D-05
 ErrMax= 1.05D-05  0.00D+00 EMaxC= 1.00D-01 BMatC= 2.02D-08 BMatP= 2.92D-07
 IDIUse=1 WtCom= 1.00D+00 WtEn= 0.00D+00
 Coeff-Com: -0.389D-03 0.886D-03 0.565D-02 0.307D-02-0.113D-01-0.102D+00
 Coeff-Com:  0.831D-01 0.102D+01
 Coeff:     -0.389D-03 0.886D-03 0.565D-02 0.307D-02-0.113D-01-0.102D+00
 Coeff:      0.831D-01 0.102D+01
 Gap=     0.215 Goal=   None    Shift=    0.000
 Gap=     0.195 Goal=   None    Shift=    0.000
 RMSDP=1.67D-06 MaxDP=3.47D-05 DE=-1.96D-07 OVMax= 1.09D-04

 Cycle   9  Pass 1  IDiag  1:
 E= -116.616721183757     Delta-E=       -0.000000014514 Rises=F Damp=F
 DIIS: error= 1.42D-06 at cycle   9 NSaved=   9.
 NSaved= 9 IEnMin= 9 EnMin= -116.616721183757     IErMin= 9 ErrMin= 1.42D-06
 ErrMax= 1.42D-06  0.00D+00 EMaxC= 1.00D-01 BMatC= 3.43D-10 BMatP= 2.02D-08
 IDIUse=1 WtCom= 1.00D+00 WtEn= 0.00D+00
 Coeff-Com: -0.109D-05-0.425D-04 0.207D-03 0.232D-03 0.203D-02-0.324D-02
 Coeff-Com: -0.318D-01 0.520D-02 0.103D+01
 Coeff:     -0.109D-05-0.425D-04 0.207D-03 0.232D-03 0.203D-02-0.324D-02
 Coeff:     -0.318D-01 0.520D-02 0.103D+01
 Gap=     0.215 Goal=   None    Shift=    0.000
 Gap=     0.195 Goal=   None    Shift=    0.000
 RMSDP=2.79D-07 MaxDP=8.32D-06 DE=-1.45D-08 OVMax= 8.04D-06

 Cycle  10  Pass 1  IDiag  1:
 E= -116.616721183956     Delta-E=       -0.000000000199 Rises=F Damp=F
 DIIS: error= 2.15D-07 at cycle  10 NSaved=  10.
 NSaved=10 IEnMin=10 EnMin= -116.616721183956     IErMin=10 ErrMin= 2.15D-07
 ErrMax= 2.15D-07  0.00D+00 EMaxC= 1.00D-01 BMatC= 7.86D-12 BMatP= 3.43D-10
 IDIUse=1 WtCom= 1.00D+00 WtEn= 0.00D+00
 Coeff-Com:  0.914D-05-0.181D-04-0.134D-03-0.628D-04 0.179D-03 0.254D-02
 Coeff-Com: -0.193D-02-0.211D-01-0.454D-01 0.107D+01
 Coeff:      0.914D-05-0.181D-04-0.134D-03-0.628D-04 0.179D-03 0.254D-02
 Coeff:     -0.193D-02-0.211D-01-0.454D-01 0.107D+01
 Gap=     0.215 Goal=   None    Shift=    0.000
 Gap=     0.195 Goal=   None    Shift=    0.000
 RMSDP=5.10D-08 MaxDP=1.66D-06 DE=-1.99D-10 OVMax= 1.48D-06

 Cycle  11  Pass 1  IDiag  1:
 E= -116.616721183960     Delta-E=       -0.000000000004 Rises=F Damp=F
 DIIS: error= 3.91D-08 at cycle  11 NSaved=  11.
 NSaved=11 IEnMin=11 EnMin= -116.616721183960     IErMin=11 ErrMin= 3.91D-08
 ErrMax= 3.91D-08  0.00D+00 EMaxC= 1.00D-01 BMatC= 2.94D-13 BMatP= 7.86D-12
 IDIUse=1 WtCom= 1.00D+00 WtEn= 0.00D+00
 Coeff-Com:  0.222D-08 0.517D-06-0.986D-05-0.135D-04-0.192D-04 0.132D-03
 Coeff-Com:  0.513D-03-0.813D-04-0.240D-01 0.934D-03 0.102D+01
 Coeff:      0.222D-08 0.517D-06-0.986D-05-0.135D-04-0.192D-04 0.132D-03
 Coeff:      0.513D-03-0.813D-04-0.240D-01 0.934D-03 0.102D+01
 Gap=     0.215 Goal=   None    Shift=    0.000
 Gap=     0.195 Goal=   None    Shift=    0.000
 DSYEVD-2 returned Info=         189 IAlg= 4 N=    94 NDim=    94 NE2=      144209 trying  DSYEV.
 RMSDP=5.48D-09 MaxDP=1.05D-07 DE=-4.01D-12 OVMax= 1.60D-07

 SCF Done:  E(UB3LYP) =  -116.616721184     A.U. after   11 cycles
            NFock= 11  Conv=0.55D-08     -V/T= 2.0047
 <Sx>= 0.0000 <Sy>= 0.0000 <Sz>= 1.0000 <S**2>= 2.0140 S= 1.0047
 <L.S>= 0.000000000000E+00
 KE= 1.160654626887D+02 PE=-3.864887559375D+02 EE= 9.558371596661D+01
 Annihilation of the first spin contaminant:
 S**2 before annihilation     2.0140,   after     2.0000
 Leave Link  502 at Sun Mar  4 21:08:43 2018, MaxMem=    33554432 cpu:        13.6
 (Enter /apl/tryton/gaussian/09/d01/g09/l801.exe)
 DoSCS=F DFT=T ScalE2(SS,OS)=  1.000000  1.000000
 Range of M.O.s used for correlation:     1    94
 NBasis=    94 NAE=    12 NBE=    10 NFC=     0 NFV=     0
 NROrb=     94 NOA=    12 NOB=    10 NVA=    82 NVB=    84

 **** Warning!!: The largest alpha MO coefficient is  0.73454382D+02


 **** Warning!!: The largest beta MO coefficient is  0.74844673D+02

 Leave Link  801 at Sun Mar  4 21:08:43 2018, MaxMem=    33554432 cpu:         0.0
 (Enter /apl/tryton/gaussian/09/d01/g09/l1101.exe)
 Using compressed storage, NAtomX=     7.
 Will process      8 centers per pass.
 Leave Link 1101 at Sun Mar  4 21:08:43 2018, MaxMem=    33554432 cpu:         0.1
 (Enter /apl/tryton/gaussian/09/d01/g09/l1102.exe)
 Symmetrizing basis deriv contribution to polar:
 IMax=3 JMax=2 DiffMx= 0.00D+00
 Leave Link 1102 at Sun Mar  4 21:08:43 2018, MaxMem=    33554432 cpu:         0.0
 (Enter /apl/tryton/gaussian/09/d01/g09/l1110.exe)
 Forming Gx(P) for the SCF density, NAtomX=     7.
 Integral derivatives from FoFJK, PRISM(SPDF).
 Do as many integral derivatives as possible in FoFJK.
 G2DrvN: MDV=      33554272.
 G2DrvN: will do     8 centers at a time, making    1 passes.
 Calling FoFCou, ICntrl=  3107 FMM=F I1Cent=   0 AccDes= 0.00D+00.
 FoFJK:  IHMeth= 1 ICntrl=    3107 DoSepK=F KAlg= 0 I1Cent=   0 FoldK=F
 IRaf=         0 NMat=   1 IRICut=       1 DoRegI=T DoRafI=F ISym2E= 0.
 FoFCou: FMM=F IPFlag=           0 FMFlag=      100000 FMFlg1=           0
         NFxFlg=           0 DoJE=F BraDBF=F KetDBF=F FulRan=T
         wScrn=  0.000000 ICntrl=    3107 IOpCl=  1 I1Cent=           0 NGrid=           0
         NMat0=    1 NMatS0=      1 NMatT0=    0 NMatD0=    1 NMtDS0=    0 NMtDT0=    0
 Symmetry not used in FoFCou.
 End of G2Drv F.D. properties file   721 does not exist.
 End of G2Drv F.D. properties file   722 does not exist.
 End of G2Drv F.D. properties file   788 does not exist.
 Leave Link 1110 at Sun Mar  4 21:09:07 2018, MaxMem=    33554432 cpu:        24.1
 (Enter /apl/tryton/gaussian/09/d01/g09/l1002.exe)
 Minotr:  UHF open shell wavefunction.
          IDoAtm=1111111
          Direct CPHF calculation.
          Differentiating once with respect to electric field.
                with respect to dipole field.
          Differentiating once with respect to nuclear coordinates.
          Requested convergence is 1.0D-08 RMS, and 1.0D-07 maximum.
          Secondary convergence is 1.0D-12 RMS, and 1.0D-12 maximum.
          NewPWx=T KeepS1=F KeepF1=F KeepIn=T MapXYZ=F SortEE=F KeepMc=T.
          MDV=      33554170 using IRadAn=       2.
 Generate precomputed XC quadrature information.
 Keep R1 and R2 ints in memory in canonical form, NReq=20860691.
 FoFCou: FMM=F IPFlag=           0 FMFlag=           0 FMFlg1=           0
         NFxFlg=           0 DoJE=F BraDBF=F KetDBF=F FulRan=T
         wScrn=  0.000000 ICntrl=     600 IOpCl=  0 I1Cent=           0 NGrid=           0
         NMat0=    1 NMatS0=   4465 NMatT0=    0 NMatD0=    1 NMtDS0=    0 NMtDT0=    0
 Symmetry not used in FoFCou.
          Solving linear equations simultaneously, MaxMat=       0.
          There are    24 degrees of freedom in the 1st order CPHF.  IDoFFX=6 NUNeed=     3.
     21 vectors produced by pass  0 Test12= 7.60D-15 4.17D-09 XBig12= 1.67D+02 8.87D+00.
 AX will form    21 AO Fock derivatives at one time.
     21 vectors produced by pass  1 Test12= 7.60D-15 4.17D-09 XBig12= 2.26D+01 2.22D+00.
     21 vectors produced by pass  2 Test12= 7.60D-15 4.17D-09 XBig12= 1.12D+00 2.86D-01.
     21 vectors produced by pass  3 Test12= 7.60D-15 4.17D-09 XBig12= 7.08D-03 3.47D-02.
     21 vectors produced by pass  4 Test12= 7.60D-15 4.17D-09 XBig12= 2.25D-05 9.19D-04.
     21 vectors produced by pass  5 Test12= 7.60D-15 4.17D-09 XBig12= 8.20D-08 7.82D-05.
     17 vectors produced by pass  6 Test12= 7.60D-15 4.17D-09 XBig12= 3.24D-10 4.26D-06.
      4 vectors produced by pass  7 Test12= 7.60D-15 4.17D-09 XBig12= 7.95D-13 1.99D-07.
      3 vectors produced by pass  8 Test12= 7.60D-15 4.17D-09 XBig12= 2.58D-14 4.70D-08.
 InvSVY:  IOpt=1 It=  1 EMax= 6.22D-15
 Solved reduced A of dimension   150 with    24 vectors.
 FullF1:  Do perturbations    1 to     3.
 Isotropic polarizability for W=    0.000000       40.02 Bohr**3.
 End of Minotr F.D. properties file   721 does not exist.
 End of Minotr F.D. properties file   722 does not exist.
 End of Minotr F.D. properties file   788 does not exist.
 Leave Link 1002 at Sun Mar  4 21:09:40 2018, MaxMem=    33554432 cpu:        33.0
 (Enter /apl/tryton/gaussian/09/d01/g09/l601.exe)
 Copying SCF densities to generalized density rwf, IOpCl= 1 IROHF=0.

 **********************************************************************

            Population analysis using the SCF density.

 **********************************************************************

 Orbital symmetries:
 Alpha Orbitals:
       Occupied  (A) (A) (A) (A) (A) (A) (A) (A) (A) (A) (A) (A)
       Virtual   (A) (A) (A) (A) (A) (A) (A) (A) (A) (A) (A) (A)
                 (A) (A) (A) (A) (A) (A) (A) (A) (A) (A) (A) (A)
                 (A) (A) (A) (A) (A) (A) (A) (A) (A) (A) (A) (A)
                 (A) (A) (A) (A) (A) (A) (A) (A) (A) (A) (A) (A)
                 (A) (A) (A) (A) (A) (A) (A) (A) (A) (A) (A) (A)
                 (A) (A) (A) (A) (A) (A) (A) (A) (A) (A) (A) (A)
                 (A) (A) (A) (A) (A) (A) (A) (A) (A) (A)
 Beta  Orbitals:
       Occupied  (A) (A) (A) (A) (A) (A) (A) (A) (A) (A)
       Virtual   (A) (A) (A) (A) (A) (A) (A) (A) (A) (A) (A) (A)
                 (A) (A) (A) (A) (A) (A) (A) (A) (A) (A) (A) (A)
                 (A) (A) (A) (A) (A) (A) (A) (A) (A) (A) (A) (A)
                 (A) (A) (A) (A) (A) (A) (A) (A) (A) (A) (A) (A)
                 (A) (A) (A) (A) (A) (A) (A) (A) (A) (A) (A) (A)
                 (A) (A) (A) (A) (A) (A) (A) (A) (A) (A) (A) (A)
                 (A) (A) (A) (A) (A) (A) (A) (A) (A) (A) (A) (A)
 The electronic state is 3-A.
 Alpha  occ. eigenvalues --  -10.20188 -10.19467 -10.19462  -0.80909  -0.71140
 Alpha  occ. eigenvalues --   -0.54671  -0.47583  -0.46285  -0.42198  -0.34351
 Alpha  occ. eigenvalues --   -0.22616  -0.21782
 Alpha virt. eigenvalues --   -0.00291   0.01476   0.02081   0.02223   0.04426
 Alpha virt. eigenvalues --    0.05909   0.07268   0.09379   0.10036   0.11392
 Alpha virt. eigenvalues --    0.12368   0.13198   0.13671   0.14313   0.15131
 Alpha virt. eigenvalues --    0.15348   0.15796   0.20091   0.20673   0.23910
 Alpha virt. eigenvalues --    0.28721   0.31861   0.40389   0.47801   0.48023
 Alpha virt. eigenvalues --    0.49641   0.51681   0.51762   0.56096   0.58001
 Alpha virt. eigenvalues --    0.62417   0.64445   0.66196   0.71372   0.73128
 Alpha virt. eigenvalues --    0.75638   0.80180   0.86850   0.90108   0.99201
 Alpha virt. eigenvalues --    1.01756   1.06570   1.24145   1.31564   1.41260
 Alpha virt. eigenvalues --    1.44407   1.46081   1.55577   1.56112   1.58408
 Alpha virt. eigenvalues --    1.59741   1.66508   1.83015   1.84729   1.88525
 Alpha virt. eigenvalues --    1.89961   2.06025   2.10946   2.16987   2.22221
 Alpha virt. eigenvalues --    2.23095   2.36529   2.50693   2.52820   2.54124
 Alpha virt. eigenvalues --    2.55581   2.66853   2.67511   2.67873   2.82349
 Alpha virt. eigenvalues --    2.82540   2.84610   2.88841   3.12053   3.32966
 Alpha virt. eigenvalues --    3.58705   3.71100   3.72666   4.23302  23.62709
 Alpha virt. eigenvalues --   23.99392  24.28140
  Beta  occ. eigenvalues --  -10.19040 -10.18625 -10.18618  -0.77639  -0.68265
  Beta  occ. eigenvalues --   -0.52249  -0.45038  -0.44636  -0.40873  -0.30028
  Beta virt. eigenvalues --   -0.10493  -0.08153   0.00034   0.01593   0.02375
  Beta virt. eigenvalues --    0.03662   0.04486   0.06150   0.09392   0.10235
  Beta virt. eigenvalues --    0.10366   0.11350   0.13051   0.13751   0.14588
  Beta virt. eigenvalues --    0.14655   0.15873   0.16053   0.16287   0.20464
  Beta virt. eigenvalues --    0.20912   0.25492   0.29428   0.33044   0.41188
  Beta virt. eigenvalues --    0.48899   0.49614   0.51207   0.53235   0.54395
  Beta virt. eigenvalues --    0.59346   0.62310   0.63546   0.65722   0.67396
  Beta virt. eigenvalues --    0.72255   0.74224   0.77153   0.81568   0.88999
  Beta virt. eigenvalues --    0.92177   1.02030   1.04201   1.08979   1.28097
  Beta virt. eigenvalues --    1.35366   1.42515   1.45398   1.47664   1.57740
  Beta virt. eigenvalues --    1.58087   1.59981   1.62484   1.68102   1.85485
  Beta virt. eigenvalues --    1.87204   1.91118   1.92394   2.09160   2.12483
  Beta virt. eigenvalues --    2.18070   2.24115   2.25996   2.37998   2.51626
  Beta virt. eigenvalues --    2.53753   2.55248   2.56586   2.68942   2.69872
  Beta virt. eigenvalues --    2.70687   2.85457   2.86712   2.86872   2.90782
  Beta virt. eigenvalues --    3.15404   3.34165   3.60619   3.72828   3.74298
  Beta virt. eigenvalues --    4.25188  23.63826  24.00364  24.29330
          Condensed to atoms (all electrons):
               1          2          3          4          5          6
     1  C    5.272330   0.425485   0.327439   0.445442  -0.009243  -0.003778
     2  H    0.425485   0.544376  -0.051278  -0.066971   0.001810  -0.005418
     3  H    0.327439  -0.051278   0.584165   0.005226  -0.003778   0.018853
     4  C    0.445442  -0.066971   0.005226   4.861462   0.445442   0.005226
     5  C   -0.009243   0.001810  -0.003778   0.445442   5.272330   0.327439
     6  H   -0.003778  -0.005418   0.018853   0.005226   0.327439   0.584165
     7  H    0.001810   0.002873  -0.005418  -0.066971   0.425485  -0.051278
               7
     1  C    0.001810
     2  H    0.002873
     3  H   -0.005418
     4  C   -0.066971
     5  C    0.425485
     6  H   -0.051278
     7  H    0.544376
          Atomic-Atomic Spin Densities.
               1          2          3          4          5          6
     1  C    0.711267   0.030124  -0.003937  -0.057223  -0.044069  -0.003865
     2  H    0.030124   0.035704  -0.036680  -0.037179   0.000584  -0.005065
     3  H   -0.003937  -0.036680   0.118769  -0.029348  -0.003865   0.018950
     4  C   -0.057223  -0.037179  -0.029348   0.883627  -0.057223  -0.029348
     5  C   -0.044069   0.000584  -0.003865  -0.057223   0.711267  -0.003937
     6  H   -0.003865  -0.005065   0.018950  -0.029348  -0.003937   0.118769
     7  H    0.000584   0.002747  -0.005065  -0.037179   0.030124  -0.036680
               7
     1  C    0.000584
     2  H    0.002747
     3  H   -0.005065
     4  C   -0.037179
     5  C    0.030124
     6  H   -0.036680
     7  H    0.035704
 Mulliken charges and spin densities:
               1          2
     1  C   -0.459486   0.632879
     2  H    0.149123  -0.009766
     3  H    0.124790   0.058823
     4  C    0.371144   0.636127
     5  C   -0.459486   0.632879
     6  H    0.124790   0.058823
     7  H    0.149123  -0.009766
 Sum of Mulliken charges =  -0.00000   2.00000
 Mulliken charges and spin densities with hydrogens summed into heavy atoms:
               1          2
     1  C   -0.185572   0.681936
     4  C    0.371144   0.636127
     5  C   -0.185572   0.681936
 APT charges:
               1
     1  C   -0.009374
     2  H    0.068657
     3  H    0.028458
     4  C   -0.175482
     5  C   -0.009374
     6  H    0.028458
     7  H    0.068657
 Sum of APT charges =  -0.00000
 APT charges with hydrogens summed into heavy atoms:
               1
     1  C    0.087741
     4  C   -0.175482
     5  C    0.087741
 Electronic spatial extent (au):  <R**2>=            176.1414
 Charge=             -0.0000 electrons
 Dipole moment (field-independent basis, Debye):
    X=              0.0000    Y=             -0.6561    Z=              0.0001  Tot=              0.6561
 Quadrupole moment (field-independent basis, Debye-Ang):
   XX=            -16.2122   YY=            -18.5145   ZZ=            -21.8144
   XY=              0.0000   XZ=              0.0001   YZ=             -0.0004
 Traceless Quadrupole moment (field-independent basis, Debye-Ang):
   XX=              2.6348   YY=              0.3326   ZZ=             -2.9674
   XY=              0.0000   XZ=              0.0001   YZ=             -0.0004
 Octapole moment (field-independent basis, Debye-Ang**2):
  XXX=              0.0000  YYY=             -3.2573  ZZZ=              0.0001  XYY=             -0.0000
  XXY=              1.3937  XXZ=             -0.0002  XZZ=              0.0000  YZZ=             -0.2885
  YYZ=              0.0003  XYZ=              0.0000
 Hexadecapole moment (field-independent basis, Debye-Ang**3):
 XXXX=           -173.6235 YYYY=            -41.8367 ZZZZ=            -28.1903 XXXY=             -0.0000
 XXXZ=             -0.0011 YYYX=             -0.0000 YYYZ=              0.0005 ZZZX=             -0.0019
 ZZZY=              0.0010 XXYY=            -33.7201 XXZZ=            -40.4715 YYZZ=            -12.3561
 XXYZ=             -0.0007 YYXZ=             -0.0004 ZZXY=             -0.0000
 N-N= 5.822285609815D+01 E-N=-3.864887552498D+02  KE= 1.160654626887D+02
  Exact polarizability:  62.449   0.000  31.741   0.001  -0.001  25.862
 Approx polarizability:  92.337   0.000  41.316   0.001  -0.001  32.533
                          Isotropic Fermi Contact Couplings
        Atom                 a.u.       MegaHertz       Gauss      10(-4) cm-1
     1  C(13)              0.04352      24.46382       8.72930       8.16025
     2  H(1)               0.00824      18.40886       6.56874       6.14053
     3  H(1)               0.02210      49.39035      17.62370      16.47485
     4  C(13)              0.16902      95.00328      33.89953      31.68968
     5  C(13)              0.04352      24.46382       8.72930       8.16025
     6  H(1)               0.02210      49.39035      17.62370      16.47485
     7  H(1)               0.00824      18.40886       6.56874       6.14053
 --------------------------------------------------------
       Center         ----  Spin Dipole Couplings  ----
                      3XX-RR        3YY-RR        3ZZ-RR
 --------------------------------------------------------
     1   Atom       -0.303008     -0.359990      0.662998
     2   Atom        0.031733     -0.018416     -0.013317
     3   Atom       -0.033884      0.046472     -0.012588
     4   Atom       -0.423367      1.107261     -0.683894
     5   Atom       -0.303008     -0.359990      0.662998
     6   Atom       -0.033884      0.046472     -0.012588
     7   Atom        0.031733     -0.018416     -0.013317
 --------------------------------------------------------
                        XY            XZ            YZ
 --------------------------------------------------------
     1   Atom        0.031937     -0.000023      0.000112
     2   Atom       -0.046250      0.000006     -0.000000
     3   Atom        0.026858     -0.000003     -0.000006
     4   Atom        0.000000      0.000005     -0.000194
     5   Atom       -0.031937     -0.000016      0.000110
     6   Atom       -0.026858      0.000002     -0.000007
     7   Atom        0.046250     -0.000004      0.000002
 --------------------------------------------------------


 ---------------------------------------------------------------------------------
              Anisotropic Spin Dipole Couplings in Principal Axis System
 ---------------------------------------------------------------------------------

       Atom             a.u.   MegaHertz   Gauss  10(-4) cm-1        Axes

              Baa    -0.3743   -50.227   -17.922   -16.754 -0.4088  0.9126 -0.0001
     1 C(13)  Bbb    -0.2887   -38.741   -13.824   -12.923  0.9126  0.4088 -0.0000
              Bcc     0.6630    88.968    31.746    29.677 -0.0000  0.0001  1.0000
 
              Baa    -0.0460   -24.517    -8.748    -8.178  0.5116  0.8592 -0.0001
     2 H(1)   Bbb    -0.0133    -7.105    -2.535    -2.370 -0.0000  0.0001  1.0000
              Bcc     0.0593    31.623    11.284    10.548  0.8592 -0.5116  0.0001
 
              Baa    -0.0420   -22.427    -8.003    -7.481  0.9569 -0.2904  0.0001
     3 H(1)   Bbb    -0.0126    -6.716    -2.397    -2.240 -0.0000  0.0001  1.0000
              Bcc     0.0546    29.144    10.399     9.721  0.2904  0.9569 -0.0001
 
              Baa    -0.6839   -91.772   -32.747   -30.612 -0.0000  0.0001  1.0000
     4 C(13)  Bbb    -0.4234   -56.812   -20.272   -18.950  1.0000  0.0000  0.0000
              Bcc     1.1073   148.584    53.018    49.562 -0.0000  1.0000 -0.0001
 
              Baa    -0.3743   -50.227   -17.922   -16.754  0.4088  0.9126 -0.0001
     5 C(13)  Bbb    -0.2887   -38.741   -13.824   -12.923  0.9126 -0.4088  0.0001
              Bcc     0.6630    88.968    31.746    29.677 -0.0000  0.0001  1.0000
 
              Baa    -0.0420   -22.427    -8.003    -7.481  0.9569  0.2904 -0.0000
     6 H(1)   Bbb    -0.0126    -6.716    -2.397    -2.240 -0.0000  0.0001  1.0000
              Bcc     0.0546    29.144    10.399     9.721 -0.2904  0.9569 -0.0001
 
              Baa    -0.0460   -24.517    -8.748    -8.178 -0.5116  0.8592 -0.0001
     7 H(1)   Bbb    -0.0133    -7.105    -2.535    -2.370 -0.0000  0.0001  1.0000
              Bcc     0.0593    31.623    11.284    10.548  0.8592  0.5116 -0.0000
 

 ---------------------------------------------------------------------------------

 No NMR shielding tensors so no spin-rotation constants.
 Leave Link  601 at Sun Mar  4 21:09:41 2018, MaxMem=    33554432 cpu:         0.2
 (Enter /apl/tryton/gaussian/09/d01/g09/l701.exe)
 Compute integral second derivatives.
 ... and contract with generalized density number  0.
 Leave Link  701 at Sun Mar  4 21:09:41 2018, MaxMem=    33554432 cpu:         0.2
 (Enter /apl/tryton/gaussian/09/d01/g09/l702.exe)
 L702 exits ... SP integral derivatives will be done elsewhere.
 Leave Link  702 at Sun Mar  4 21:09:41 2018, MaxMem=    33554432 cpu:         0.0
 (Enter /apl/tryton/gaussian/09/d01/g09/l703.exe)
 Compute integral second derivatives, UseDBF=F ICtDFT=           0.
 Integral derivatives from FoFJK, PRISM(SPDF).
 Calling FoFJK, ICntrl=    100127 FMM=F ISym2X=0 I1Cent= 0 IOpClX= 1 NMat=1 NMatS=1 NMatT=0.
 FoFJK:  IHMeth= 1 ICntrl=  100127 DoSepK=F KAlg= 0 I1Cent=   0 FoldK=F
 IRaf=         0 NMat=   1 IRICut=       1 DoRegI=T DoRafI=F ISym2E= 0.
 FoFCou: FMM=F IPFlag=           0 FMFlag=      100000 FMFlg1=         800
         NFxFlg=           0 DoJE=F BraDBF=F KetDBF=F FulRan=T
         wScrn=  0.000000 ICntrl=  100127 IOpCl=  1 I1Cent=           0 NGrid=           0
         NMat0=    1 NMatS0=      1 NMatT0=    0 NMatD0=    1 NMtDS0=    0 NMtDT0=    0
 Symmetry not used in FoFCou.
 Leave Link  703 at Sun Mar  4 21:10:12 2018, MaxMem=    33554432 cpu:        31.1
 (Enter /apl/tryton/gaussian/09/d01/g09/l716.exe)
 Dipole        = 2.83224229D-08-2.58147449D-01 2.81155015D-05
 Polarizability= 6.24488070D+01 1.11580080D-07 3.17412975D+01
                 7.50251450D-04-6.36845970D-04 2.58624825D+01
 Full mass-weighted force constant matrix:
 Low frequencies ---  -29.9115  -16.8983   -7.3694   -0.0006   -0.0005    0.0002
 Low frequencies ---  305.2575  442.6169  741.9516
 Diagonal vibrational polarizability:
        0.1904308       0.9965827       6.2926054
 Harmonic frequencies (cm**-1), IR intensities (KM/Mole), Raman scattering
 activities (A**4/AMU), depolarization ratios for plane and unpolarized
 incident light, reduced masses (AMU), force constants (mDyne/A),
 and normal coordinates:
                      1                      2                      3
                      A                      A                      A
 Frequencies --    305.2575               442.6169               741.9516
 Red. masses --      2.0649                 1.7381                 1.0627
 Frc consts  --      0.1134                 0.2006                 0.3447
 IR Inten    --      2.8742                15.1058                 0.0000
  Atom  AN      X      Y      Z        X      Y      Z        X      Y      Z
     1   6     0.10  -0.08   0.00    -0.00   0.00   0.07    -0.00   0.00   0.05
     2   1    -0.13  -0.38   0.00    -0.00   0.00   0.67     0.00  -0.00  -0.61
     3   1     0.51  -0.17   0.00     0.00  -0.00  -0.15    -0.00   0.00   0.35
     4   6     0.00   0.25  -0.00     0.00  -0.00  -0.24    -0.00  -0.00  -0.00
     5   6    -0.10  -0.08   0.00    -0.00   0.00   0.07     0.00  -0.00  -0.05
     6   1    -0.51  -0.17   0.00     0.00  -0.00  -0.15     0.00  -0.00  -0.35
     7   1     0.13  -0.38   0.00    -0.00   0.00   0.67    -0.00   0.00   0.61
                      4                      5                      6
                      A                      A                      A
 Frequencies --    766.3736               767.9314               900.5086
 Red. masses --      1.2362                 1.4370                 1.2286
 Frc consts  --      0.4278                 0.4993                 0.5870
 IR Inten    --      0.0000                92.4221                 0.1538
  Atom  AN      X      Y      Z        X      Y      Z        X      Y      Z
     1   6    -0.00   0.00   0.10     0.00  -0.00  -0.13    -0.01   0.10  -0.00
     2   1     0.00  -0.00  -0.27    -0.00   0.00   0.47    -0.33  -0.31   0.00
     3   1     0.00  -0.00  -0.64    -0.00   0.00   0.51     0.53  -0.03   0.00
     4   6     0.00  -0.00  -0.00    -0.00   0.00   0.09    -0.01  -0.00  -0.00
     5   6     0.00  -0.00  -0.10     0.00  -0.00  -0.13    -0.01  -0.10   0.00
     6   1    -0.00   0.00   0.64    -0.00   0.00   0.51     0.53   0.03   0.00
     7   1    -0.00   0.00   0.27    -0.00   0.00   0.47    -0.33   0.31  -0.00
                      7                      8                      9
                      A                      A                      A
 Frequencies --   1017.2690              1135.0448              1393.0458
 Red. masses --      1.8586                 2.7283                 1.4529
 Frc consts  --      1.1332                 2.0709                 1.6612
 IR Inten    --      0.6685                 3.3297                12.0228
  Atom  AN      X      Y      Z        X      Y      Z        X      Y      Z
     1   6     0.19  -0.05   0.00    -0.14  -0.14   0.00    -0.03  -0.00  -0.00
     2   1     0.53   0.37  -0.00     0.02   0.09  -0.00    -0.36  -0.39   0.00
     3   1    -0.22   0.05  -0.00    -0.64  -0.02  -0.00    -0.44   0.07  -0.00
     4   6     0.00   0.03  -0.00     0.00   0.27  -0.00     0.20  -0.00   0.00
     5   6    -0.19  -0.05   0.00     0.14  -0.14   0.00    -0.03   0.00  -0.00
     6   1     0.22   0.05  -0.00     0.64  -0.02   0.00    -0.44  -0.07  -0.00
     7   1    -0.53   0.37  -0.00    -0.02   0.09  -0.00    -0.36   0.39  -0.00
                     10                     11                     12
                      A                      A                      A
 Frequencies --   1456.2482              1470.9140              3050.9078
 Red. masses --      1.2397                 2.9589                 1.0588
 Frc consts  --      1.5489                 3.7718                 5.8069
 IR Inten    --      1.3957                 0.0517                 5.8011
  Atom  AN      X      Y      Z        X      Y      Z        X      Y      Z
     1   6    -0.10  -0.03   0.00    -0.20  -0.06   0.00    -0.03  -0.04   0.00
     2   1     0.28   0.42  -0.00     0.18   0.39  -0.00     0.18  -0.16   0.00
     3   1     0.46  -0.14   0.00     0.44  -0.19   0.00     0.13   0.65  -0.00
     4   6     0.00   0.02  -0.00     0.30  -0.00   0.00     0.00  -0.00   0.00
     5   6     0.10  -0.03   0.00    -0.20   0.06  -0.00    -0.03   0.04  -0.00
     6   1    -0.46  -0.14   0.00     0.44   0.19  -0.00     0.13  -0.65   0.00
     7   1    -0.28   0.42  -0.00     0.18  -0.39   0.00     0.18   0.16  -0.00
                     13                     14                     15
                      A                      A                      A
 Frequencies --   3059.8115              3180.4188              3181.2999
 Red. masses --      1.0612                 1.1013                 1.1034
 Frc consts  --      5.8539                 6.5634                 6.5796
 IR Inten    --     17.1709                 0.4447                 4.6993
  Atom  AN      X      Y      Z        X      Y      Z        X      Y      Z
     1   6    -0.03  -0.04   0.00     0.04  -0.05   0.00    -0.04   0.05  -0.00
     2   1     0.17  -0.15   0.00    -0.52   0.42  -0.00     0.52  -0.42   0.00
     3   1     0.14   0.65  -0.00     0.06   0.22  -0.00    -0.05  -0.20   0.00
     4   6     0.00  -0.00   0.00    -0.00   0.00   0.00    -0.00   0.00  -0.00
     5   6     0.03  -0.04   0.00     0.04   0.05  -0.00     0.04   0.05  -0.00
     6   1    -0.14   0.65  -0.00     0.06  -0.22   0.00     0.05  -0.20   0.00
     7   1    -0.17  -0.15   0.00    -0.52  -0.42   0.00    -0.52  -0.42   0.00

 -------------------
 - Thermochemistry -
 -------------------
 Temperature   298.150 Kelvin.  Pressure   1.00000 Atm.
 Atom     1 has atomic number  6 and mass  12.00000
 Atom     2 has atomic number  1 and mass   1.00783
 Atom     3 has atomic number  1 and mass   1.00783
 Atom     4 has atomic number  6 and mass  12.00000
 Atom     5 has atomic number  6 and mass  12.00000
 Atom     6 has atomic number  1 and mass   1.00783
 Atom     7 has atomic number  1 and mass   1.00783
 Molecular mass:    40.03130 amu.
 Principal axes and moments of inertia in atomic units:
                           1         2         3
     Eigenvalues --    18.07282 189.85776 207.93058
           X            1.00000   0.00000  -0.00002
           Y            0.00000   1.00000   0.00011
           Z            0.00002  -0.00011   1.00000
 This molecule is an asymmetric top.
 Rotational symmetry number  1.
 Rotational temperatures (Kelvin)      4.79249     0.45620     0.41655
 Rotational constants (GHZ):          99.85944     9.50575     8.67954
 Zero-point vibrational energy     136790.6 (Joules/Mol)
                                   32.69373 (Kcal/Mol)
 Warning -- explicit consideration of   2 degrees of freedom as
           vibrations may cause significant error
 Vibrational temperatures:    439.20   636.83  1067.50  1102.64  1104.88
          (Kelvin)           1295.63  1463.62  1633.07  2004.28  2095.21
                             2116.31  4389.57  4402.38  4575.91  4577.18
 
 Zero-point correction=                           0.052101 (Hartree/Particle)
 Thermal correction to Energy=                    0.056020
 Thermal correction to Enthalpy=                  0.056964
 Thermal correction to Gibbs Free Energy=         0.026731
 Sum of electronic and zero-point Energies=           -116.564620
 Sum of electronic and thermal Energies=              -116.560701
 Sum of electronic and thermal Enthalpies=            -116.559757
 Sum of electronic and thermal Free Energies=         -116.589990
 
                     E (Thermal)             CV                S
                      KCal/Mol        Cal/Mol-Kelvin    Cal/Mol-Kelvin
 Total                   35.153             12.555             63.631
 Electronic               0.000              0.000              2.183
 Translational            0.889              2.981             36.989
 Rotational               0.889              2.981             21.195
 Vibrational             33.376              6.593              3.265
 Vibration     1          0.696              1.664              1.388
 Vibration     2          0.802              1.377              0.818
                       Q            Log10(Q)             Ln(Q)
 Total Bot       0.506613D-12        -12.295324        -28.311029
 Total V=0       0.467004D+12         11.669321         26.869604
 Vib (Bot)       0.177406D-23        -23.751032        -54.688773
 Vib (Bot)    1  0.621149D+00         -0.206804         -0.476185
 Vib (Bot)    2  0.389751D+00         -0.409212         -0.942246
 Vib (V=0)       0.163536D+01          0.213612          0.491860
 Vib (V=0)    1  0.129739D+01          0.113070          0.260352
 Vib (V=0)    2  0.113396D+01          0.054598          0.125717
 Electronic      0.300000D+01          0.477121          1.098612
 Translational   0.995531D+07          6.998055         16.113617
 Rotational      0.956165D+04          3.980533          9.165515
 
                                                                 min
                                                             IR Spectrum
 
     33   33                                                             11  1         1    1                                        
     11   00                                                             44  3         1    0    9   777           4    3            
     88   65                                                             75  9         3    1    0   664           4    0            
     10   01                                                             16  3         5    7    1   862           3    5            
 
     XX   XX                                                             XX  X         X    X    X   X             X    X            
          X                                                                  X                       X             X                 
          X                                                                  X                       X             X                 
          X                                                                                          X                               
                                                                                                     X                               
                                                                                                     X                               
                                                                                                     X                               
                                                                                                     X                               
                                                                                                     X                               
                                                                                                     X                               
                                                                                                     X                               
                                                                                                     X                               
                                                                                                     X                               
                                                                                                     X                               
                                                                                                     X                               
                                                                                                     X                               
                                                                                                     X                               
                                                                                                     X                               
                                                                                                     X                               
                                                                                                     X                               
 
 ***** Axes restored to original set *****
 -------------------------------------------------------------------
 Center     Atomic                   Forces (Hartrees/Bohr)
 Number     Number              X              Y              Z
 -------------------------------------------------------------------
      1        6          -0.000015759    0.000011261    0.000000004
      2        1          -0.000009700   -0.000014454   -0.000000002
      3        1           0.000007613   -0.000004569    0.000000008
      4        6           0.000000002    0.000015527   -0.000000022
      5        6           0.000015761    0.000011260    0.000000000
      6        1          -0.000007614   -0.000004567    0.000000013
      7        1           0.000009696   -0.000014457   -0.000000001
 -------------------------------------------------------------------
 Cartesian Forces:  Max     0.000015761 RMS     0.000009142
 Z-matrix is all fixed cartesians, so copy forces.
 Force constants in Cartesian coordinates: 
                1             2             3             4             5 
      1  0.649274D+00
      2 -0.563613D-02  0.551032D+00
      3  0.124118D-04 -0.521016D-04  0.726622D-01
      4 -0.214506D+00  0.142627D+00 -0.193974D-04  0.234715D+00
      5  0.139847D+00 -0.165106D+00  0.184515D-04 -0.149057D+00  0.169966D+00
      6 -0.190728D-04  0.184958D-04 -0.217639D-01  0.206593D-04 -0.199828D-04
      7 -0.577118D-01 -0.518104D-01  0.489942D-05  0.656996D-02  0.212564D-01
      8 -0.449995D-01 -0.298363D+00  0.290247D-04 -0.530899D-02 -0.145713D-01
      9  0.416282D-05  0.289137D-04 -0.227644D-01  0.000000D+00  0.225114D-05
     10 -0.283047D+00 -0.810194D-01  0.370354D-05 -0.239392D-01 -0.796104D-02
     11 -0.937258D-01 -0.106577D+00  0.583278D-05  0.117558D-01  0.101982D-01
     12  0.505986D-05  0.606721D-05 -0.351030D-01 -0.175212D-05 -0.132065D-05
     13 -0.939825D-01 -0.246935D-02 -0.176033D-05 -0.238608D-02 -0.360195D-02
     14  0.248487D-02  0.177187D-01 -0.135205D-05 -0.713521D-03 -0.687635D-03
     15 -0.229147D-05 -0.145577D-05  0.470761D-02  0.000000D+00  0.000000D+00
     16  0.235934D-02 -0.240598D-02  0.000000D+00 -0.100385D-03 -0.116634D-03
     17 -0.157284D-02  0.198365D-02  0.000000D+00  0.329343D-03 -0.414559D-04
     18  0.000000D+00  0.000000D+00 -0.256221D-02  0.000000D+00  0.000000D+00
     19 -0.238548D-02  0.713758D-03  0.000000D+00 -0.353228D-03 -0.366920D-03
     20  0.360219D-02 -0.688233D-03  0.000000D+00  0.367002D-03  0.241719D-03
     21  0.000000D+00  0.000000D+00  0.482370D-02  0.000000D+00  0.000000D+00
                6             7             8             9            10 
      6  0.141552D-01
      7 -0.222282D-05  0.598648D-01
      8  0.171601D-05  0.589447D-01  0.321229D+00
      9  0.225446D-02 -0.546932D-05 -0.321480D-04  0.142750D-01
     10  0.000000D+00 -0.981774D-02 -0.866375D-02  0.000000D+00  0.633578D+00
     11  0.000000D+00 -0.321294D-01 -0.106509D-01  0.158467D-05 -0.291674D-04
     12 -0.470470D-03  0.309202D-05  0.209093D-05  0.102240D-01  0.119769D-04
     13  0.000000D+00  0.235989D-02  0.157278D-02  0.000000D+00 -0.283023D+00
     14  0.000000D+00  0.240593D-02  0.198310D-02  0.000000D+00  0.810439D-01
     15  0.482370D-02  0.000000D+00  0.000000D+00 -0.256221D-02 -0.138801D-04
     16  0.000000D+00 -0.116469D-02 -0.121588D-02  0.000000D+00 -0.981207D-02
     17  0.000000D+00  0.121610D-02  0.414605D-03  0.000000D+00  0.866364D-02
     18  0.441542D-02  0.000000D+00  0.000000D+00 -0.584220D-02 -0.137178D-05
     19  0.000000D+00 -0.100415D-03 -0.329335D-03  0.000000D+00 -0.239397D-01
     20  0.000000D+00  0.116642D-03 -0.414268D-04  0.000000D+00  0.796579D-02
     21 -0.341443D-02  0.000000D+00  0.000000D+00  0.441542D-02 -0.134237D-05
               11            12            13            14            15 
     11  0.214089D+00
     12 -0.176892D-04  0.506991D-01
     13  0.937504D-01 -0.152413D-04  0.649275D+00
     14 -0.106602D+00  0.939479D-05  0.562246D-02  0.551030D+00
     15  0.968518D-05 -0.351030D-01  0.112568D-04 -0.518662D-04  0.726622D-01
     16  0.321293D-01 -0.392225D-05 -0.576984D-01  0.517769D-01 -0.634233D-05
     17 -0.106566D-01  0.245108D-05  0.449661D-01 -0.298376D+00  0.308863D-04
     18  0.289738D-05  0.102240D-01 -0.560768D-05  0.310547D-04 -0.227644D-01
     19 -0.117511D-01  0.000000D+00 -0.214545D+00 -0.142621D+00  0.114929D-04
     20  0.101987D-01  0.000000D+00 -0.139840D+00 -0.165067D+00  0.126891D-04
     21 -0.139715D-05 -0.470469D-03  0.111762D-04  0.126221D-04 -0.217639D-01
               16            17            18            19            20 
     16  0.598484D-01
     17 -0.589084D-01  0.321245D+00
     18  0.735503D-05 -0.345835D-04  0.142750D-01
     19  0.656774D-02  0.530605D-02  0.000000D+00  0.234757D+00
     20 -0.212593D-01 -0.145690D-01  0.137986D-05  0.149048D+00  0.169925D+00
     21  0.240104D-05  0.193351D-05  0.225446D-02 -0.116130D-04 -0.138433D-04
               21 
     21  0.141552D-01
 Leave Link  716 at Sun Mar  4 21:10:12 2018, MaxMem=    33554432 cpu:         0.0
 (Enter /apl/tryton/gaussian/09/d01/g09/l103.exe)

 GradGradGradGradGradGradGradGradGradGradGradGradGradGradGradGradGradGrad
 Berny optimization.
 Search for a local minimum.
 Step number   1 out of a maximum of    2
 All quantities printed in internal units (Hartrees-Bohrs-Radians)
 Second derivative matrix not updated -- analytic derivatives used.
 ITU=  0
     Eigenvalues ---    0.00767   0.01934   0.02128   0.05546   0.06845
     Eigenvalues ---    0.07027   0.10966   0.11588   0.17402   0.29900
     Eigenvalues ---    0.40714   0.74459   0.78017   0.89637   1.03366
 Angle between quadratic step and forces=  52.37 degrees.
 Linear search not attempted -- first point.
 TrRot=  0.000000  0.000225 -0.000000  0.000000  0.000000  0.000000
 Variable       Old X    -DE/DX   Delta X   Delta X   Delta X     New X
                                 (Linear)    (Quad)   (Total)
    X1       -2.42273  -0.00002   0.00000   0.00024   0.00024  -2.42248
    Y1       -0.16008   0.00001   0.00000   0.00006   0.00028  -0.15980
    Z1       -0.00009   0.00000   0.00000   0.00000  -0.00000  -0.00009
    X2       -4.01649  -0.00001   0.00000  -0.00064  -0.00064  -4.01712
    Y2        1.12826  -0.00001   0.00000  -0.00107  -0.00085   1.12742
    Z2       -0.00026  -0.00000   0.00000   0.00000   0.00000  -0.00026
    X3       -2.85875   0.00001   0.00000   0.00162   0.00162  -2.85713
    Y3       -2.17781  -0.00000   0.00000  -0.00026  -0.00003  -2.17784
    Z3        0.00012   0.00000   0.00000   0.00000  -0.00000   0.00012
    X4        0.00004   0.00000   0.00000   0.00000   0.00000   0.00004
    Y4        0.67345   0.00002   0.00000   0.00097   0.00120   0.67465
    Z4       -0.00013  -0.00000   0.00000  -0.00000  -0.00000  -0.00013
    X5        2.42269   0.00002   0.00000  -0.00024  -0.00024   2.42245
    Y5       -0.16041   0.00001   0.00000   0.00006   0.00028  -0.16013
    Z5        0.00001   0.00000   0.00000  -0.00000  -0.00000   0.00001
    X6        2.85844  -0.00001   0.00000  -0.00162  -0.00162   2.85682
    Y6       -2.17821  -0.00000   0.00000  -0.00026  -0.00003  -2.17824
    Z6        0.00024   0.00000   0.00000   0.00000   0.00000   0.00024
    X7        4.01664   0.00001   0.00000   0.00064   0.00064   4.01727
    Y7        1.12771  -0.00001   0.00000  -0.00107  -0.00085   1.12686
    Z7       -0.00010  -0.00000   0.00000   0.00000   0.00000  -0.00009
         Item               Value     Threshold  Converged?
 Maximum Force            0.000016     0.000450     YES
 RMS     Force            0.000009     0.000300     YES
 Maximum Displacement     0.001620     0.001800     YES
 RMS     Displacement     0.000662     0.001200     YES
 Predicted change in Energy=-3.955201D-08
 Optimization completed.
    -- Stationary point found.
 GradGradGradGradGradGradGradGradGradGradGradGradGradGradGradGradGradGrad

 Leave Link  103 at Sun Mar  4 21:10:12 2018, MaxMem=    33554432 cpu:         0.0
 (Enter /apl/tryton/gaussian/09/d01/g09/l9999.exe)
 1\1\ CITASK-GV2544\Freq\UB3LYP\6-311++G(d,p)\C3H4(3)\EERD\04-Mar-2018\
 0\\#p b3lyp/6-311++g(d,p) freq\\min\\0,3\C,-1.282052082,-0.084708903,-
 0.000046361\H,-2.125434205,0.597051711,-0.000137543\H,-1.512787288,-1.
 152447374,0.000064611\C,0.0000220788,0.356374,-0.000067857\C,1.2820349
 18,-0.084887097,0.000006262\H,1.512621712,-1.152657626,0.000126703\H,2
 .125511795,0.596756289,-0.0000503\\Version=ES64L-G09RevD.01\State=3-A\
 HF=-116.6167212\S2=2.014034\S2-1=0.\S2A=2.000044\RMSD=5.483e-09\RMSF=9
 .142e-06\ZeroPoint=0.0521008\Thermal=0.05602\Dipole=-0.0000179,-0.2581
 474,0.0000281\DipoleDeriv=0.0625922,0.0276767,0.0000037,-0.0287426,0.1
 751042,-0.0000484,0.00001,-0.0000472,-0.2658189,0.0122653,0.0371567,-0
 .0000072,0.0576837,0.0248534,0.0000168,-0.0000095,0.0000163,0.1688518,
 0.030389,-0.0065377,-0.0000019,-0.0552407,-0.0951388,0.0000255,0.00000
 33,0.0000265,0.1501247,-0.2104885,0.0000001,-0.0000022,0.,-0.2096421,0
 .0000111,-0.0000022,0.0000112,-0.1063153,0.0625924,-0.0276612,0.000009
 8,0.0287583,0.1751041,-0.0000472,0.0000035,-0.0000483,-0.2658189,0.030
 3976,0.0065203,-0.000003,0.0552233,-0.0951474,0.0000277,-0.0000082,0.0
 000267,0.1501247,0.012252,-0.0371549,0.0000008,-0.057682,0.0248666,0.0
 000144,0.0000031,0.0000148,0.1688518\Polar=62.4488068,-0.002134,31.741
 2977,0.0007502,-0.0006369,25.8624825\PG=C01 [X(C3H4)]\NImag=0\\0.64927
 351,-0.00563613,0.55103157,0.00001241,-0.00005210,0.07266224,-0.214506
 19,0.14262747,-0.00001940,0.23471515,0.13984725,-0.16510579,0.00001845
 ,-0.14905711,0.16996621,-0.00001907,0.00001850,-0.02176386,0.00002066,
 -0.00001998,0.01415519,-0.05771182,-0.05181036,0.00000490,0.00656996,0
 .02125641,-0.00000222,0.05986481,-0.04499951,-0.29836260,0.00002902,-0
 .00530899,-0.01457126,0.00000172,0.05894469,0.32122851,0.00000416,0.00
 002891,-0.02276444,0.00000067,0.00000225,0.00225446,-0.00000547,-0.000
 03215,0.01427499,-0.28304688,-0.08101941,0.00000370,-0.02393922,-0.007
 96104,0.00000037,-0.00981774,-0.00866375,0.00000054,0.63357827,-0.0937
 2584,-0.10657726,0.00000583,0.01175580,0.01019822,-0.00000091,-0.03212
 940,-0.01065092,0.00000158,-0.00002917,0.21408936,0.00000506,0.0000060
 7,-0.03510304,-0.00000175,-0.00000132,-0.00047047,0.00000309,0.0000020
 9,0.01022398,0.00001198,-0.00001769,0.05069906,-0.09398248,-0.00246935
 ,-0.00000176,-0.00238608,-0.00360195,0.00000024,0.00235989,0.00157278,
 -0.00000007,-0.28302260,0.09375038,-0.00001524,0.64927509,0.00248487,0
 .01771867,-0.00000135,-0.00071352,-0.00068763,0.00000058,0.00240593,0.
 00198310,-0.00000044,0.08104394,-0.10660156,0.00000939,0.00562246,0.55
 103001,-0.00000229,-0.00000146,0.00470761,-0.00000007,0.00000052,0.004
 82370,-0.00000017,-0.00000046,-0.00256221,-0.00001388,0.00000969,-0.03
 510304,0.00001126,-0.00005187,0.07266224,0.00235934,-0.00240598,0.0000
 0037,-0.00010039,-0.00011663,-0.00000008,-0.00116469,-0.00121588,0.000
 00022,-0.00981207,0.03212929,-0.00000392,-0.05769837,0.05177691,-0.000
 00634,0.05984843,-0.00157284,0.00198365,-0.00000053,0.00032934,-0.0000
 4146,0.00000049,0.00121610,0.00041460,-0.00000065,0.00866364,-0.010656
 59,0.00000245,0.04496606,-0.29837606,0.00003089,-0.05890835,0.32124489
 ,0.00000027,-0.00000053,-0.00256221,-0.00000013,0.00000048,0.00441542,
 -0.00000003,-0.00000070,-0.00584220,-0.00000137,0.00000290,0.01022398,
 -0.00000561,0.00003105,-0.02276444,0.00000736,-0.00003458,0.01427499,-
 0.00238548,0.00071376,-0.00000022,-0.00035323,-0.00036692,0.00000010,-
 0.00010042,-0.00032934,-0.00000006,-0.02393975,-0.01175105,0.00000079,
 -0.21454546,-0.14262060,0.00001149,0.00656774,0.00530605,-0.00000049,0
 .23475659,0.00360219,-0.00068823,0.00000067,0.00036700,0.00024172,-0.0
 0000039,0.00011664,-0.00004143,0.00000049,0.00796579,0.01019874,-0.000
 00099,-0.13984038,-0.16506653,0.00001269,-0.02125934,-0.01456905,0.000
 00138,0.14904810,0.16992478,-0.00000054,0.00000061,0.00482370,0.000000
 02,-0.00000040,-0.00341443,-0.00000011,0.00000048,0.00441542,-0.000001
 34,-0.00000140,-0.00047047,0.00001118,0.00001262,-0.02176386,0.0000024
 0,0.00000193,0.00225446,-0.00001161,-0.00001384,0.01415519\\0.00001576
 ,-0.00001126,0.,0.00000970,0.00001445,0.,-0.00000761,0.00000457,0.,0.,
 -0.00001553,0.00000002,-0.00001576,-0.00001126,0.,0.00000761,0.0000045
 7,-0.00000001,-0.00000970,0.00001446,0.\\\@


 IT WAS AN ACT OF DESPARATION. FOR SIX YEARS I HAD STRUGGLED WITH THE
 BLACKBODY THEORY. I KNEW THE PROBLEM WAS FUNDAMENTAL, AND I KNEW
 THE ANSWER. I HAD TO FIND A THEORETICAL EXPLANATION AT ANY COST,
 EXCEPT FOR THE INVIOLABLITY OF THE TWO LAWS OF THERMODYNAMICS.
   -- MAX PLANCK, 1931
 Job cpu time:       0 days  0 hours  1 minutes 44.8 seconds.
 File lengths (MBytes):  RWF=     16 Int=      0 D2E=      0 Chk=      2 Scr=      1
 Normal termination of Gaussian 09 at Sun Mar  4 21:10:12 2018.
