 Entering Gaussian System, Link 0=g09
 Initial command:
 /apl/tryton/gaussian/09/d01/g09/l1.exe "/users/work/eerd/M3C-outputs/ionized/8/Gau-11004.inp" -scrdir="/users/work/eerd/M3C-outputs/ionized/8/"
 Entering Link 1 = /apl/tryton/gaussian/09/d01/g09/l1.exe PID=     11005.
  
 Copyright (c) 1988,1990,1992,1993,1995,1998,2003,2009,2013,
            Gaussian, Inc.  All Rights Reserved.
  
 This is part of the Gaussian(R) 09 program.  It is based on
 the Gaussian(R) 03 system (copyright 2003, Gaussian, Inc.),
 the Gaussian(R) 98 system (copyright 1998, Gaussian, Inc.),
 the Gaussian(R) 94 system (copyright 1995, Gaussian, Inc.),
 the Gaussian 92(TM) system (copyright 1992, Gaussian, Inc.),
 the Gaussian 90(TM) system (copyright 1990, Gaussian, Inc.),
 the Gaussian 88(TM) system (copyright 1988, Gaussian, Inc.),
 the Gaussian 86(TM) system (copyright 1986, Carnegie Mellon
 University), and the Gaussian 82(TM) system (copyright 1983,
 Carnegie Mellon University). Gaussian is a federally registered
 trademark of Gaussian, Inc.
  
 This software contains proprietary and confidential information,
 including trade secrets, belonging to Gaussian, Inc.
  
 This software is provided under written license and may be
 used, copied, transmitted, or stored only in accord with that
 written license.
  
 The following legend is applicable only to US Government
 contracts under FAR:
  
                    RESTRICTED RIGHTS LEGEND
  
 Use, reproduction and disclosure by the US Government is
 subject to restrictions as set forth in subparagraphs (a)
 and (c) of the Commercial Computer Software - Restricted
 Rights clause in FAR 52.227-19.
  
 Gaussian, Inc.
 340 Quinnipiac St., Bldg. 40, Wallingford CT 06492
  
  
 ---------------------------------------------------------------
 Warning -- This program may not be used in any manner that
 competes with the business of Gaussian, Inc. or will provide
 assistance to any competitor of Gaussian, Inc.  The licensee
 of this program is prohibited from giving any competitor of
 Gaussian, Inc. access to this program.  By using this program,
 the user acknowledges that Gaussian, Inc. is engaged in the
 business of creating and licensing software in the field of
 computational chemistry and represents and warrants to the
 licensee that it is not a competitor of Gaussian, Inc. and that
 it will not use this program in any manner prohibited above.
 ---------------------------------------------------------------
  

 Cite this work as:
 Gaussian 09, Revision D.01,
 M. J. Frisch, G. W. Trucks, H. B. Schlegel, G. E. Scuseria, 
 M. A. Robb, J. R. Cheeseman, G. Scalmani, V. Barone, B. Mennucci, 
 G. A. Petersson, H. Nakatsuji, M. Caricato, X. Li, H. P. Hratchian, 
 A. F. Izmaylov, J. Bloino, G. Zheng, J. L. Sonnenberg, M. Hada, 
 M. Ehara, K. Toyota, R. Fukuda, J. Hasegawa, M. Ishida, T. Nakajima, 
 Y. Honda, O. Kitao, H. Nakai, T. Vreven, J. A. Montgomery, Jr., 
 J. E. Peralta, F. Ogliaro, M. Bearpark, J. J. Heyd, E. Brothers, 
 K. N. Kudin, V. N. Staroverov, T. Keith, R. Kobayashi, J. Normand, 
 K. Raghavachari, A. Rendell, J. C. Burant, S. S. Iyengar, J. Tomasi, 
 M. Cossi, N. Rega, J. M. Millam, M. Klene, J. E. Knox, J. B. Cross, 
 V. Bakken, C. Adamo, J. Jaramillo, R. Gomperts, R. E. Stratmann, 
 O. Yazyev, A. J. Austin, R. Cammi, C. Pomelli, J. W. Ochterski, 
 R. L. Martin, K. Morokuma, V. G. Zakrzewski, G. A. Voth, 
 P. Salvador, J. J. Dannenberg, S. Dapprich, A. D. Daniels, 
 O. Farkas, J. B. Foresman, J. V. Ortiz, J. Cioslowski, 
 and D. J. Fox, Gaussian, Inc., Wallingford CT, 2013.
 
 ******************************************
 Gaussian 09:  ES64L-G09RevD.01 24-Apr-2013
                24-Jan-2019 
 ******************************************
 ---------------------------
 #p b3lyp/6-311++g(d,p) freq
 ---------------------------
 1/10=4,30=1,38=1/1,3;
 2/12=2,17=6,18=5,40=1/2;
 3/5=4,6=6,7=1111,11=2,16=1,25=1,30=1,71=2,74=-5,140=1/1,2,3;
 4//1;
 5/5=2,38=5,98=1/2;
 8/6=4,10=90,11=11/1;
 11/6=1,8=1,9=11,15=111,16=1/1,2,10;
 10/6=1/2;
 6/7=2,8=2,9=2,10=2,18=1,28=1/1;
 7/8=1,10=1,25=1/1,2,3,16;
 1/10=4,30=1/3;
 99//99;
 Leave Link    1 at Thu Jan 24 16:02:54 2019, MaxMem=           0 cpu:         0.0
 (Enter /apl/tryton/gaussian/09/d01/g09/l101.exe)
 ---
 min
 ---
 Symbolic Z-matrix:
 Charge =  1 Multiplicity = 2
 C                    -0.47849   0.78261  -0.84339 
 C                     0.74606  -0.11949  -0.9031 
 C                    -1.25158  -0.09751  -0.11203 
 C                    -0.01703  -0.50062   0.35757 
 H                     1.71541   0.3642   -0.75874 
 H                     0.74489  -0.86175  -1.69575 
 H                     0.34244  -0.64651   1.37407 
 H                    -0.55894   1.86002  -0.97178 
 
 NAtoms=      8 NQM=        8 NQMF=       0 NMMI=      0 NMMIF=      0
                NMic=       0 NMicF=      0.
                    Isotopes and Nuclear Properties:
 (Nuclear quadrupole moments (NQMom) in fm**2, nuclear magnetic moments (NMagM)
  in nuclear magnetons)

  Atom         1           2           3           4           5           6           7           8
 IAtWgt=          12          12          12          12           1           1           1           1
 AtmWgt=  12.0000000  12.0000000  12.0000000  12.0000000   1.0078250   1.0078250   1.0078250   1.0078250
 NucSpn=           0           0           0           0           1           1           1           1
 AtZEff=   0.0000000   0.0000000   0.0000000   0.0000000   0.0000000   0.0000000   0.0000000   0.0000000
 NQMom=    0.0000000   0.0000000   0.0000000   0.0000000   0.0000000   0.0000000   0.0000000   0.0000000
 NMagM=    0.0000000   0.0000000   0.0000000   0.0000000   2.7928460   2.7928460   2.7928460   2.7928460
 AtZNuc=   6.0000000   6.0000000   6.0000000   6.0000000   1.0000000   1.0000000   1.0000000   1.0000000
 Leave Link  101 at Thu Jan 24 16:02:54 2019, MaxMem=    33554432 cpu:         0.0
 (Enter /apl/tryton/gaussian/09/d01/g09/l103.exe)

 GradGradGradGradGradGradGradGradGradGradGradGradGradGradGradGradGradGrad
 Berny optimization.
 Initialization pass.
 Trust Radius=3.00D-01 FncErr=1.00D-07 GrdErr=1.00D-07
 Number of steps in this run=      2 maximum allowed number of steps=      2.
 GradGradGradGradGradGradGradGradGradGradGradGradGradGradGradGradGradGrad

 Leave Link  103 at Thu Jan 24 16:02:54 2019, MaxMem=    33554432 cpu:         0.0
 (Enter /apl/tryton/gaussian/09/d01/g09/l202.exe)
                          Input orientation:                          
 ---------------------------------------------------------------------
 Center     Atomic      Atomic             Coordinates (Angstroms)
 Number     Number       Type             X           Y           Z
 ---------------------------------------------------------------------
      1          6           0       -0.478487    0.782607   -0.843392
      2          6           0        0.746064   -0.119492   -0.903104
      3          6           0       -1.251584   -0.097506   -0.112032
      4          6           0       -0.017025   -0.500618    0.357574
      5          1           0        1.715406    0.364204   -0.758740
      6          1           0        0.744892   -0.861749   -1.695752
      7          1           0        0.342439   -0.646514    1.374073
      8          1           0       -0.558938    1.860017   -0.971782
 ---------------------------------------------------------------------
                    Distance matrix (angstroms):
                    1          2          3          4          5
     1  C    0.000000
     2  C    1.522127   0.000000
     3  C    1.381001   2.148692   0.000000
     4  C    1.817121   1.522127   1.381001   0.000000
     5  H    2.235037   1.092898   3.071553   2.235037   0.000000
     6  H    2.219703   1.085927   2.660480   2.219703   1.822868
     7  H    2.762871   2.371962   2.247404   1.088012   2.730473
     8  H    1.088012   2.371962   2.247404   2.762871   2.730473
                    6          7          8
     6  H    0.000000
     7  H    3.103565   0.000000
     8  H    3.103565   3.549396   0.000000
 Stoichiometry    C4H4(1+,2)
 Framework group  CS[SG(C2H2),X(C2H2)]
 Deg. of freedom    11
 Full point group                 CS      NOp   2
 Largest Abelian subgroup         CS      NOp   2
 Largest concise Abelian subgroup CS      NOp   2
                         Standard orientation:                         
 ---------------------------------------------------------------------
 Center     Atomic      Atomic             Coordinates (Angstroms)
 Number     Number       Type             X           Y           Z
 ---------------------------------------------------------------------
      1          6           0        0.088382   -0.196101    0.908561
      2          6           0        0.088382    1.025123   -0.000000
      3          6           0       -0.529253   -1.032886    0.000000
      4          6           0        0.088382   -0.196101   -0.908561
      5          1           0        0.996798    1.632748   -0.000000
      6          1           0       -0.825941    1.610999   -0.000000
      7          1           0        0.706894   -0.421975   -1.774698
      8          1           0        0.706894   -0.421975    1.774698
 ---------------------------------------------------------------------
 Rotational constants (GHZ):     16.4458692     13.2370456      8.4555021
 Leave Link  202 at Thu Jan 24 16:02:54 2019, MaxMem=    33554432 cpu:         0.0
 (Enter /apl/tryton/gaussian/09/d01/g09/l301.exe)
 Standard basis: 6-311++G(d,p) (5D, 7F)
 Ernie: Thresh=  0.10000D-02 Tol=  0.10000D-05 Strict=F.
 There are    76 symmetry adapted cartesian basis functions of A'  symmetry.
 There are    44 symmetry adapted cartesian basis functions of A"  symmetry.
 There are    73 symmetry adapted basis functions of A'  symmetry.
 There are    43 symmetry adapted basis functions of A"  symmetry.
   116 basis functions,   180 primitive gaussians,   120 cartesian basis functions
    14 alpha electrons       13 beta electrons
       nuclear repulsion energy       100.5339826519 Hartrees.
 IExCor=  402 DFT=T Ex+Corr=B3LYP ExCW=0 ScaHFX=  0.200000
 ScaDFX=  0.800000  0.720000  1.000000  0.810000 ScalE2=  1.000000  1.000000
 IRadAn=      0 IRanWt=     -1 IRanGd=            0 ICorTp=0 IEmpDi=  4
 NAtoms=    8 NActive=    8 NUniq=    6 SFac= 1.78D+00 NAtFMM=   60 NAOKFM=F Big=F
 Integral buffers will be    131072 words long.
 Raffenetti 2 integral format.
 Two-electron integral symmetry is turned on.
 Leave Link  301 at Thu Jan 24 16:02:54 2019, MaxMem=    33554432 cpu:         0.1
 (Enter /apl/tryton/gaussian/09/d01/g09/l302.exe)
 NPDir=0 NMtPBC=     1 NCelOv=     1 NCel=       1 NClECP=     1 NCelD=      1
         NCelK=      1 NCelE2=     1 NClLst=     1 CellRange=     0.0.
 One-electron integrals computed using PRISM.
 One-electron integral symmetry used in STVInt
 NBasis=   116 RedAO= T EigKep=  3.99D-05  NBF=    73    43
 NBsUse=   116 1.00D-06 EigRej= -1.00D+00 NBFU=    73    43
 Precomputing XC quadrature grid using
 IXCGrd= 4 IRadAn=           0 IRanWt=          -1 IRanGd=           0 AccXCQ= 0.00D+00.
 Generated NRdTot=       0 NPtTot=           0 NUsed=           0 NTot=          32
 NSgBfM=   120   120   120   120   120 MxSgAt=     8 MxSgA2=     8.
 Leave Link  302 at Thu Jan 24 16:02:54 2019, MaxMem=    33554432 cpu:         0.2
 (Enter /apl/tryton/gaussian/09/d01/g09/l303.exe)
 DipDrv:  MaxL=1.
 Leave Link  303 at Thu Jan 24 16:02:54 2019, MaxMem=    33554432 cpu:         0.0
 (Enter /apl/tryton/gaussian/09/d01/g09/l401.exe)
 ExpMin= 3.60D-02 ExpMax= 4.56D+03 ExpMxC= 6.82D+02 IAcc=3 IRadAn=         5 AccDes= 0.00D+00
 Harris functional with IExCor=  402 and IRadAn=       5 diagonalized for initial guess.
 HarFok:  IExCor=  402 AccDes= 0.00D+00 IRadAn=         5 IDoV= 1 UseB2=F ITyADJ=14
 ICtDFT=  3500011 ScaDFX=  1.000000  1.000000  1.000000  1.000000
 FoFCou: FMM=F IPFlag=           0 FMFlag=      100000 FMFlg1=           0
         NFxFlg=           0 DoJE=T BraDBF=F KetDBF=T FulRan=T
         wScrn=  0.000000 ICntrl=     500 IOpCl=  0 I1Cent=   200000004 NGrid=           0
         NMat0=    1 NMatS0=      1 NMatT0=    0 NMatD0=    1 NMtDS0=    0 NMtDT0=    0
 Petite list used in FoFCou.
 Harris En= -154.411975341278    
 JPrj=0 DoOrth=F DoCkMO=F.
 Initial guess orbital symmetries:
 Alpha Orbitals:
       Occupied  (A') (A') (A") (A') (A') (A') (A") (A') (A') (A')
                 (A") (A") (A') (A')
       Virtual   (A") (A') (A') (A") (A') (A') (A") (A') (A') (A")
                 (A') (A') (A") (A') (A') (A") (A') (A") (A') (A')
                 (A') (A") (A") (A') (A') (A") (A") (A') (A') (A')
                 (A') (A") (A') (A') (A") (A") (A') (A') (A") (A')
                 (A") (A') (A') (A") (A') (A') (A") (A') (A') (A')
                 (A") (A') (A') (A") (A') (A") (A') (A") (A') (A")
                 (A') (A") (A') (A') (A") (A') (A") (A') (A') (A")
                 (A') (A') (A") (A") (A") (A') (A') (A") (A') (A')
                 (A') (A') (A") (A') (A") (A") (A') (A') (A") (A')
                 (A') (A") (A') (A') (A') (A") (A") (A') (A') (A")
                 (A') (A')
 Beta  Orbitals:
       Occupied  (A') (A') (A") (A') (A') (A') (A") (A') (A') (A')
                 (A") (A") (A')
       Virtual   (A') (A") (A') (A') (A") (A') (A') (A") (A') (A')
                 (A") (A') (A') (A") (A') (A') (A") (A') (A") (A')
                 (A') (A') (A") (A") (A') (A') (A") (A") (A') (A')
                 (A') (A') (A") (A') (A') (A") (A") (A') (A') (A")
                 (A') (A") (A') (A') (A") (A') (A') (A") (A') (A')
                 (A') (A") (A') (A') (A") (A') (A") (A') (A") (A')
                 (A") (A') (A") (A') (A') (A") (A') (A") (A') (A')
                 (A") (A') (A') (A") (A") (A") (A') (A') (A") (A')
                 (A') (A') (A') (A") (A') (A") (A") (A') (A') (A")
                 (A') (A') (A") (A') (A') (A') (A") (A") (A') (A')
                 (A") (A') (A')
 The electronic state of the initial guess is 2-A'.
 Initial guess <Sx>= 0.0000 <Sy>= 0.0000 <Sz>= 0.5000 <S**2>= 0.7500 S= 0.5000
 Leave Link  401 at Thu Jan 24 16:02:55 2019, MaxMem=    33554432 cpu:         1.2
 (Enter /apl/tryton/gaussian/09/d01/g09/l502.exe)
 UHF open shell SCF:
 Using DIIS extrapolation, IDIIS=  1040.
 Integral symmetry usage will be decided dynamically.
 IVT=       63530 IEndB=       63530 NGot=    33554432 MDV=    33522063
 LenX=    33522063 LenY=    33507222
 Requested convergence on RMS density matrix=1.00D-08 within 128 cycles.
 Requested convergence on MAX density matrix=1.00D-06.
 Requested convergence on             energy=1.00D-06.
 No special actions if energy rises.
 Fock matrices will be formed incrementally for  20 cycles.

 Cycle   1  Pass 1  IDiag  1:
 FoFJK:  IHMeth= 1 ICntrl=       0 DoSepK=F KAlg= 0 I1Cent=   0 FoldK=F
 IRaf= 990000000 NMat=   1 IRICut=       1 DoRegI=T DoRafI=F ISym2E= 1.
 FoFCou: FMM=F IPFlag=           0 FMFlag=      100000 FMFlg1=           0
         NFxFlg=           0 DoJE=F BraDBF=F KetDBF=F FulRan=T
         wScrn=  0.000000 ICntrl=       0 IOpCl=  1 I1Cent=           0 NGrid=           0
         NMat0=    1 NMatS0=      1 NMatT0=    0 NMatD0=    1 NMtDS0=    0 NMtDT0=    0
 Petite list used in FoFCou.
 E= -154.351300371577    
 DIIS: error= 1.80D-02 at cycle   1 NSaved=   1.
 NSaved= 1 IEnMin= 1 EnMin= -154.351300371577     IErMin= 1 ErrMin= 1.80D-02
 ErrMax= 1.80D-02  0.00D+00 EMaxC= 1.00D-01 BMatC= 1.66D-01 BMatP= 1.66D-01
 IDIUse=3 WtCom= 8.20D-01 WtEn= 1.80D-01
 Coeff-Com:  0.100D+01
 Coeff-En:   0.100D+01
 Coeff:      0.100D+01
 Gap=     0.227 Goal=   None    Shift=    0.000
 Gap=     0.179 Goal=   None    Shift=    0.000
 GapD=    0.179 DampG=1.000 DampE=0.500 DampFc=0.5000 IDamp=-1.
 Damping current iteration by 5.00D-01
 RMSDP=3.72D-03 MaxDP=9.77D-02              OVMax= 1.06D-01

 Cycle   2  Pass 1  IDiag  1:
 RMSU=  1.85D-03    CP:  1.01D+00
 E= -154.367439400661     Delta-E=       -0.016139029085 Rises=F Damp=T
 DIIS: error= 5.75D-03 at cycle   2 NSaved=   2.
 NSaved= 2 IEnMin= 2 EnMin= -154.367439400661     IErMin= 2 ErrMin= 5.75D-03
 ErrMax= 5.75D-03  0.00D+00 EMaxC= 1.00D-01 BMatC= 1.93D-02 BMatP= 1.66D-01
 IDIUse=3 WtCom= 9.43D-01 WtEn= 5.75D-02
 Coeff-Com: -0.498D-01 0.105D+01
 Coeff-En:   0.000D+00 0.100D+01
 Coeff:     -0.469D-01 0.105D+01
 Gap=     0.215 Goal=   None    Shift=    0.000
 Gap=     0.200 Goal=   None    Shift=    0.000
 RMSDP=1.60D-03 MaxDP=3.94D-02 DE=-1.61D-02 OVMax= 7.57D-02

 Cycle   3  Pass 1  IDiag  1:
 RMSU=  1.27D-03    CP:  1.03D+00  1.50D+00
 E= -154.384567430153     Delta-E=       -0.017128029492 Rises=F Damp=F
 DIIS: error= 6.52D-03 at cycle   3 NSaved=   3.
 NSaved= 3 IEnMin= 3 EnMin= -154.384567430153     IErMin= 2 ErrMin= 5.75D-03
 ErrMax= 6.52D-03  0.00D+00 EMaxC= 1.00D-01 BMatC= 1.27D-02 BMatP= 1.93D-02
 IDIUse=3 WtCom= 9.35D-01 WtEn= 6.52D-02
 Coeff-Com: -0.148D+00 0.504D+00 0.645D+00
 Coeff-En:   0.000D+00 0.000D+00 0.100D+01
 Coeff:     -0.139D+00 0.471D+00 0.668D+00
 Gap=     0.225 Goal=   None    Shift=    0.000
 Gap=     0.188 Goal=   None    Shift=    0.000
 RMSDP=8.46D-04 MaxDP=2.36D-02 DE=-1.71D-02 OVMax= 3.16D-02

 Cycle   4  Pass 1  IDiag  1:
 RMSU=  6.75D-04    CP:  1.03D+00  1.66D+00  6.76D-01
 E= -154.387047561876     Delta-E=       -0.002480131723 Rises=F Damp=F
 DIIS: error= 2.84D-03 at cycle   4 NSaved=   4.
 NSaved= 4 IEnMin= 4 EnMin= -154.387047561876     IErMin= 4 ErrMin= 2.84D-03
 ErrMax= 2.84D-03  0.00D+00 EMaxC= 1.00D-01 BMatC= 3.04D-03 BMatP= 1.27D-02
 IDIUse=3 WtCom= 9.72D-01 WtEn= 2.84D-02
 Coeff-Com: -0.804D-01 0.185D+00 0.401D+00 0.494D+00
 Coeff-En:   0.000D+00 0.000D+00 0.187D+00 0.813D+00
 Coeff:     -0.781D-01 0.179D+00 0.395D+00 0.504D+00
 Gap=     0.218 Goal=   None    Shift=    0.000
 Gap=     0.193 Goal=   None    Shift=    0.000
 RMSDP=3.16D-04 MaxDP=8.33D-03 DE=-2.48D-03 OVMax= 2.11D-02

 Cycle   5  Pass 1  IDiag  1:
 RMSU=  1.69D-04    CP:  1.03D+00  1.62D+00  7.73D-01  6.67D-01
 E= -154.387872177112     Delta-E=       -0.000824615236 Rises=F Damp=F
 DIIS: error= 6.53D-04 at cycle   5 NSaved=   5.
 NSaved= 5 IEnMin= 5 EnMin= -154.387872177112     IErMin= 5 ErrMin= 6.53D-04
 ErrMax= 6.53D-04  0.00D+00 EMaxC= 1.00D-01 BMatC= 1.35D-04 BMatP= 3.04D-03
 IDIUse=3 WtCom= 9.93D-01 WtEn= 6.53D-03
 Coeff-Com: -0.138D-01 0.115D-01 0.700D-01 0.210D+00 0.722D+00
 Coeff-En:   0.000D+00 0.000D+00 0.000D+00 0.000D+00 0.100D+01
 Coeff:     -0.137D-01 0.114D-01 0.696D-01 0.209D+00 0.724D+00
 Gap=     0.220 Goal=   None    Shift=    0.000
 Gap=     0.193 Goal=   None    Shift=    0.000
 RMSDP=8.76D-05 MaxDP=4.15D-03 DE=-8.25D-04 OVMax= 4.16D-03

 Cycle   6  Pass 1  IDiag  1:
 RMSU=  4.92D-05    CP:  1.03D+00  1.64D+00  7.83D-01  7.49D-01  1.14D+00
 E= -154.387918436211     Delta-E=       -0.000046259099 Rises=F Damp=F
 DIIS: error= 2.29D-04 at cycle   6 NSaved=   6.
 NSaved= 6 IEnMin= 6 EnMin= -154.387918436211     IErMin= 6 ErrMin= 2.29D-04
 ErrMax= 2.29D-04  0.00D+00 EMaxC= 1.00D-01 BMatC= 1.22D-05 BMatP= 1.35D-04
 IDIUse=3 WtCom= 9.98D-01 WtEn= 2.29D-03
 Coeff-Com:  0.408D-02-0.144D-01-0.229D-01 0.173D-01 0.217D+00 0.799D+00
 Coeff-En:   0.000D+00 0.000D+00 0.000D+00 0.000D+00 0.000D+00 0.100D+01
 Coeff:      0.407D-02-0.144D-01-0.229D-01 0.172D-01 0.217D+00 0.799D+00
 Gap=     0.220 Goal=   None    Shift=    0.000
 Gap=     0.193 Goal=   None    Shift=    0.000
 RMSDP=4.17D-05 MaxDP=1.57D-03 DE=-4.63D-05 OVMax= 3.00D-03

 Cycle   7  Pass 1  IDiag  1:
 RMSU=  2.30D-05    CP:  1.03D+00  1.65D+00  7.84D-01  7.90D-01  1.22D+00
                    CP:  1.03D+00
 E= -154.387927453332     Delta-E=       -0.000009017122 Rises=F Damp=F
 DIIS: error= 1.14D-04 at cycle   7 NSaved=   7.
 NSaved= 7 IEnMin= 7 EnMin= -154.387927453332     IErMin= 7 ErrMin= 1.14D-04
 ErrMax= 1.14D-04  0.00D+00 EMaxC= 1.00D-01 BMatC= 3.25D-06 BMatP= 1.22D-05
 IDIUse=3 WtCom= 9.99D-01 WtEn= 1.14D-03
 Coeff-Com:  0.441D-02-0.689D-02-0.246D-01-0.473D-01-0.135D+00 0.262D+00
 Coeff-Com:  0.947D+00
 Coeff-En:   0.000D+00 0.000D+00 0.000D+00 0.000D+00 0.000D+00 0.000D+00
 Coeff-En:   0.100D+01
 Coeff:      0.441D-02-0.688D-02-0.246D-01-0.473D-01-0.135D+00 0.262D+00
 Coeff:      0.947D+00
 Gap=     0.220 Goal=   None    Shift=    0.000
 Gap=     0.193 Goal=   None    Shift=    0.000
 RMSDP=2.71D-05 MaxDP=8.25D-04 DE=-9.02D-06 OVMax= 2.53D-03

 Cycle   8  Pass 1  IDiag  1:
 RMSU=  9.96D-06    CP:  1.03D+00  1.65D+00  7.86D-01  8.07D-01  1.32D+00
                    CP:  1.25D+00  1.32D+00
 E= -154.387931013278     Delta-E=       -0.000003559946 Rises=F Damp=F
 DIIS: error= 4.48D-05 at cycle   8 NSaved=   8.
 NSaved= 8 IEnMin= 8 EnMin= -154.387931013278     IErMin= 8 ErrMin= 4.48D-05
 ErrMax= 4.48D-05  0.00D+00 EMaxC= 1.00D-01 BMatC= 3.37D-07 BMatP= 3.25D-06
 IDIUse=1 WtCom= 1.00D+00 WtEn= 0.00D+00
 Coeff-Com: -0.197D-02 0.478D-02 0.954D-02 0.859D-02-0.159D-01-0.175D+00
 Coeff-Com: -0.230D+00 0.140D+01
 Coeff:     -0.197D-02 0.478D-02 0.954D-02 0.859D-02-0.159D-01-0.175D+00
 Coeff:     -0.230D+00 0.140D+01
 Gap=     0.221 Goal=   None    Shift=    0.000
 Gap=     0.193 Goal=   None    Shift=    0.000
 RMSDP=1.30D-05 MaxDP=3.68D-04 DE=-3.56D-06 OVMax= 1.31D-03

 Cycle   9  Pass 1  IDiag  1:
 RMSU=  3.96D-06    CP:  1.03D+00  1.65D+00  7.87D-01  8.12D-01  1.36D+00
                    CP:  1.36D+00  1.63D+00  1.51D+00
 E= -154.387931712683     Delta-E=       -0.000000699404 Rises=F Damp=F
 DIIS: error= 8.73D-06 at cycle   9 NSaved=   9.
 NSaved= 9 IEnMin= 9 EnMin= -154.387931712683     IErMin= 9 ErrMin= 8.73D-06
 ErrMax= 8.73D-06  0.00D+00 EMaxC= 1.00D-01 BMatC= 2.87D-08 BMatP= 3.37D-07
 IDIUse=1 WtCom= 1.00D+00 WtEn= 0.00D+00
 Coeff-Com: -0.590D-03 0.103D-02 0.368D-02 0.672D-02 0.144D-01-0.456D-01
 Coeff-Com: -0.120D+00 0.955D-01 0.105D+01
 Coeff:     -0.590D-03 0.103D-02 0.368D-02 0.672D-02 0.144D-01-0.456D-01
 Coeff:     -0.120D+00 0.955D-01 0.105D+01
 Gap=     0.221 Goal=   None    Shift=    0.000
 Gap=     0.193 Goal=   None    Shift=    0.000
 RMSDP=3.15D-06 MaxDP=8.31D-05 DE=-6.99D-07 OVMax= 2.72D-04

 Cycle  10  Pass 1  IDiag  1:
 RMSU=  1.19D-06    CP:  1.03D+00  1.65D+00  7.87D-01  8.13D-01  1.36D+00
                    CP:  1.36D+00  1.70D+00  1.70D+00  1.13D+00
 E= -154.387931750679     Delta-E=       -0.000000037996 Rises=F Damp=F
 DIIS: error= 2.70D-06 at cycle  10 NSaved=  10.
 NSaved=10 IEnMin=10 EnMin= -154.387931750679     IErMin=10 ErrMin= 2.70D-06
 ErrMax= 2.70D-06  0.00D+00 EMaxC= 1.00D-01 BMatC= 4.19D-09 BMatP= 2.87D-08
 IDIUse=1 WtCom= 1.00D+00 WtEn= 0.00D+00
 Coeff-Com:  0.639D-04-0.235D-03 0.579D-04 0.827D-03 0.540D-02 0.434D-02
 Coeff-Com: -0.382D-02-0.112D+00 0.264D+00 0.841D+00
 Coeff:      0.639D-04-0.235D-03 0.579D-04 0.827D-03 0.540D-02 0.434D-02
 Coeff:     -0.382D-02-0.112D+00 0.264D+00 0.841D+00
 Gap=     0.221 Goal=   None    Shift=    0.000
 Gap=     0.193 Goal=   None    Shift=    0.000
 RMSDP=7.75D-07 MaxDP=1.49D-05 DE=-3.80D-08 OVMax= 4.37D-05

 Cycle  11  Pass 1  IDiag  1:
 RMSU=  3.72D-07    CP:  1.03D+00  1.65D+00  7.87D-01  8.12D-01  1.36D+00
                    CP:  1.37D+00  1.70D+00  1.72D+00  1.25D+00  8.81D-01
 E= -154.387931752910     Delta-E=       -0.000000002231 Rises=F Damp=F
 DIIS: error= 1.26D-06 at cycle  11 NSaved=  11.
 NSaved=11 IEnMin=11 EnMin= -154.387931752910     IErMin=11 ErrMin= 1.26D-06
 ErrMax= 1.26D-06  0.00D+00 EMaxC= 1.00D-01 BMatC= 3.19D-10 BMatP= 4.19D-09
 IDIUse=1 WtCom= 1.00D+00 WtEn= 0.00D+00
 Coeff-Com:  0.753D-04-0.151D-03-0.375D-03-0.632D-03-0.525D-03 0.526D-02
 Coeff-Com:  0.127D-01-0.285D-01-0.749D-01 0.125D+00 0.962D+00
 Coeff:      0.753D-04-0.151D-03-0.375D-03-0.632D-03-0.525D-03 0.526D-02
 Coeff:      0.127D-01-0.285D-01-0.749D-01 0.125D+00 0.962D+00
 Gap=     0.221 Goal=   None    Shift=    0.000
 Gap=     0.193 Goal=   None    Shift=    0.000
 RMSDP=2.27D-07 MaxDP=6.70D-06 DE=-2.23D-09 OVMax= 1.52D-05

 Cycle  12  Pass 1  IDiag  1:
 RMSU=  1.13D-07    CP:  1.03D+00  1.65D+00  7.87D-01  8.12D-01  1.36D+00
                    CP:  1.37D+00  1.71D+00  1.73D+00  1.27D+00  9.90D-01
                    CP:  1.03D+00
 E= -154.387931753132     Delta-E=       -0.000000000222 Rises=F Damp=F
 DIIS: error= 2.23D-07 at cycle  12 NSaved=  12.
 NSaved=12 IEnMin=12 EnMin= -154.387931753132     IErMin=12 ErrMin= 2.23D-07
 ErrMax= 2.23D-07  0.00D+00 EMaxC= 1.00D-01 BMatC= 1.77D-11 BMatP= 3.19D-10
 IDIUse=1 WtCom= 1.00D+00 WtEn= 0.00D+00
 Coeff-Com: -0.656D-05 0.181D-04-0.230D-05-0.444D-04-0.251D-03-0.407D-03
 Coeff-Com: -0.594D-03 0.808D-02-0.124D-01-0.531D-01-0.468D-01 0.111D+01
 Coeff:     -0.656D-05 0.181D-04-0.230D-05-0.444D-04-0.251D-03-0.407D-03
 Coeff:     -0.594D-03 0.808D-02-0.124D-01-0.531D-01-0.468D-01 0.111D+01
 Gap=     0.221 Goal=   None    Shift=    0.000
 Gap=     0.193 Goal=   None    Shift=    0.000
 RMSDP=6.36D-08 MaxDP=2.08D-06 DE=-2.22D-10 OVMax= 4.69D-06

 Cycle  13  Pass 1  IDiag  1:
 RMSU=  3.12D-08    CP:  1.03D+00  1.65D+00  7.87D-01  8.12D-01  1.36D+00
                    CP:  1.37D+00  1.71D+00  1.73D+00  1.27D+00  9.96D-01
                    CP:  1.11D+00  1.28D+00
 E= -154.387931753154     Delta-E=       -0.000000000022 Rises=F Damp=F
 DIIS: error= 6.91D-08 at cycle  13 NSaved=  13.
 NSaved=13 IEnMin=13 EnMin= -154.387931753154     IErMin=13 ErrMin= 6.91D-08
 ErrMax= 6.91D-08  0.00D+00 EMaxC= 1.00D-01 BMatC= 2.48D-12 BMatP= 1.77D-11
 IDIUse=1 WtCom= 1.00D+00 WtEn= 0.00D+00
 Coeff-Com: -0.735D-05 0.144D-04 0.409D-04 0.601D-04 0.103D-03-0.516D-03
 Coeff-Com: -0.132D-02 0.245D-02 0.830D-02-0.817D-02-0.101D+00-0.555D-01
 Coeff-Com:  0.116D+01
 Coeff:     -0.735D-05 0.144D-04 0.409D-04 0.601D-04 0.103D-03-0.516D-03
 Coeff:     -0.132D-02 0.245D-02 0.830D-02-0.817D-02-0.101D+00-0.555D-01
 Coeff:      0.116D+01
 Gap=     0.221 Goal=   None    Shift=    0.000
 Gap=     0.193 Goal=   None    Shift=    0.000
 RMSDP=2.94D-08 MaxDP=9.75D-07 DE=-2.22D-11 OVMax= 2.02D-06

 Cycle  14  Pass 1  IDiag  1:
 RMSU=  8.22D-09    CP:  1.03D+00  1.65D+00  7.87D-01  8.12D-01  1.36D+00
                    CP:  1.37D+00  1.71D+00  1.73D+00  1.27D+00  1.00D+00
                    CP:  1.13D+00  1.43D+00  1.27D+00
 E= -154.387931753155     Delta-E=       -0.000000000001 Rises=F Damp=F
 DIIS: error= 2.22D-08 at cycle  14 NSaved=  14.
 NSaved=14 IEnMin=14 EnMin= -154.387931753155     IErMin=14 ErrMin= 2.22D-08
 ErrMax= 2.22D-08  0.00D+00 EMaxC= 1.00D-01 BMatC= 1.65D-13 BMatP= 2.48D-12
 IDIUse=1 WtCom= 1.00D+00 WtEn= 0.00D+00
 Coeff-Com:  0.395D-06-0.114D-05 0.933D-06 0.759D-06 0.275D-04 0.789D-05
 Coeff-Com:  0.599D-04-0.511D-03 0.757D-03 0.358D-02 0.293D-02-0.792D-01
 Coeff-Com:  0.124D-01 0.106D+01
 Coeff:      0.395D-06-0.114D-05 0.933D-06 0.759D-06 0.275D-04 0.789D-05
 Coeff:      0.599D-04-0.511D-03 0.757D-03 0.358D-02 0.293D-02-0.792D-01
 Coeff:      0.124D-01 0.106D+01
 Gap=     0.221 Goal=   None    Shift=    0.000
 Gap=     0.193 Goal=   None    Shift=    0.000
 RMSDP=6.67D-09 MaxDP=2.29D-07 DE=-9.09D-13 OVMax= 4.77D-07

 SCF Done:  E(UB3LYP) =  -154.387931753     A.U. after   14 cycles
            NFock= 14  Conv=0.67D-08     -V/T= 2.0045
 <Sx>= 0.0000 <Sy>= 0.0000 <Sz>= 0.5000 <S**2>= 0.7543 S= 0.5022
 <L.S>= 0.000000000000E+00
 KE= 1.537004079988D+02 PE=-5.515903491866D+02 EE= 1.429680267828D+02
 Annihilation of the first spin contaminant:
 S**2 before annihilation     0.7543,   after     0.7500
 Leave Link  502 at Thu Jan 24 16:03:17 2019, MaxMem=    33554432 cpu:        21.3
 (Enter /apl/tryton/gaussian/09/d01/g09/l801.exe)
 DoSCS=F DFT=T ScalE2(SS,OS)=  1.000000  1.000000
 Range of M.O.s used for correlation:     1   116
 NBasis=   116 NAE=    14 NBE=    13 NFC=     0 NFV=     0
 NROrb=    116 NOA=    14 NOB=    13 NVA=   102 NVB=   103

 **** Warning!!: The largest alpha MO coefficient is  0.65922138D+02


 **** Warning!!: The largest beta MO coefficient is  0.67080683D+02

 Leave Link  801 at Thu Jan 24 16:03:17 2019, MaxMem=    33554432 cpu:         0.0
 (Enter /apl/tryton/gaussian/09/d01/g09/l1101.exe)
 Using compressed storage, NAtomX=     8.
 Will process      9 centers per pass.
 Leave Link 1101 at Thu Jan 24 16:03:17 2019, MaxMem=    33554432 cpu:         0.1
 (Enter /apl/tryton/gaussian/09/d01/g09/l1102.exe)
 Symmetrizing basis deriv contribution to polar:
 IMax=3 JMax=2 DiffMx= 0.00D+00
 Leave Link 1102 at Thu Jan 24 16:03:17 2019, MaxMem=    33554432 cpu:         0.0
 (Enter /apl/tryton/gaussian/09/d01/g09/l1110.exe)
 Forming Gx(P) for the SCF density, NAtomX=     8.
 Integral derivatives from FoFJK, PRISM(SPDF).
 Do as many integral derivatives as possible in FoFJK.
 G2DrvN: MDV=      33554264.
 G2DrvN: will do     9 centers at a time, making    1 passes.
 Calling FoFCou, ICntrl=  3107 FMM=F I1Cent=   0 AccDes= 0.00D+00.
 FoFJK:  IHMeth= 1 ICntrl=    3107 DoSepK=F KAlg= 0 I1Cent=   0 FoldK=F
 IRaf=         0 NMat=   1 IRICut=       1 DoRegI=T DoRafI=F ISym2E= 1.
 FoFCou: FMM=F IPFlag=           0 FMFlag=      100000 FMFlg1=           0
         NFxFlg=           0 DoJE=F BraDBF=F KetDBF=F FulRan=T
         wScrn=  0.000000 ICntrl=    3107 IOpCl=  1 I1Cent=           0 NGrid=           0
         NMat0=    1 NMatS0=      1 NMatT0=    0 NMatD0=    1 NMtDS0=    0 NMtDT0=    0
 Petite list used in FoFCou.
 End of G2Drv F.D. properties file   721 does not exist.
 End of G2Drv F.D. properties file   722 does not exist.
 End of G2Drv F.D. properties file   788 does not exist.
 Leave Link 1110 at Thu Jan 24 16:03:40 2019, MaxMem=    33554432 cpu:        23.4
 (Enter /apl/tryton/gaussian/09/d01/g09/l1002.exe)
 Minotr:  UHF open shell wavefunction.
          IDoAtm=11111111
          Direct CPHF calculation.
          Differentiating once with respect to electric field.
                with respect to dipole field.
          Differentiating once with respect to nuclear coordinates.
          Using symmetry in CPHF.
          Requested convergence is 1.0D-08 RMS, and 1.0D-07 maximum.
          Secondary convergence is 1.0D-12 RMS, and 1.0D-12 maximum.
          NewPWx=T KeepS1=F KeepF1=F KeepIn=T MapXYZ=F SortEE=F KeepMc=T.
          MDV=      33554116 using IRadAn=       2.
 Generate precomputed XC quadrature information.
          Solving linear equations simultaneously, MaxMat=       0.
 FoFJK:  IHMeth= 1 ICntrl=       0 DoSepK=F KAlg= 0 I1Cent=   0 FoldK=F
 IRaf= 990000000 NMat=  21 IRICut=      52 DoRegI=T DoRafI=T ISym2E= 2.
 FoFCou: FMM=F IPFlag=           0 FMFlag=      100000 FMFlg1=           0
         NFxFlg=           0 DoJE=F BraDBF=F KetDBF=F FulRan=T
         wScrn=  0.000000 ICntrl=       0 IOpCl=  1 I1Cent=           0 NGrid=           0
         NMat0=   21 NMatS0=     21 NMatT0=    0 NMatD0=   21 NMtDS0=    0 NMtDT0=    0
 Integrals replicated using symmetry in FoFCou.
          There are    21 degrees of freedom in the 1st order CPHF.  IDoFFX=4 NUNeed=    21.
     21 vectors produced by pass  0 Test12= 1.32D-14 4.76D-09 XBig12= 8.18D+01 3.89D+00.
 AX will form    21 AO Fock derivatives at one time.
     21 vectors produced by pass  1 Test12= 1.32D-14 4.76D-09 XBig12= 1.97D+01 7.30D-01.
     21 vectors produced by pass  2 Test12= 1.32D-14 4.76D-09 XBig12= 3.35D-01 1.41D-01.
     21 vectors produced by pass  3 Test12= 1.32D-14 4.76D-09 XBig12= 2.91D-03 1.41D-02.
     21 vectors produced by pass  4 Test12= 1.32D-14 4.76D-09 XBig12= 2.40D-05 7.84D-04.
     21 vectors produced by pass  5 Test12= 1.32D-14 4.76D-09 XBig12= 1.08D-07 6.11D-05.
     16 vectors produced by pass  6 Test12= 1.32D-14 4.76D-09 XBig12= 4.16D-10 2.86D-06.
      4 vectors produced by pass  7 Test12= 1.32D-14 4.76D-09 XBig12= 1.81D-12 1.99D-07.
      3 vectors produced by pass  8 Test12= 1.32D-14 4.76D-09 XBig12= 2.20D-14 3.19D-08.
 InvSVY:  IOpt=1 It=  1 EMax= 3.55D-15
 Solved reduced A of dimension   149 with    21 vectors.
 FullF1:  Do perturbations    1 to    21.
 Isotropic polarizability for W=    0.000000       35.01 Bohr**3.
 End of Minotr F.D. properties file   721 does not exist.
 End of Minotr F.D. properties file   722 does not exist.
 End of Minotr F.D. properties file   788 does not exist.
 Leave Link 1002 at Thu Jan 24 16:05:09 2019, MaxMem=    33554432 cpu:        88.3
 (Enter /apl/tryton/gaussian/09/d01/g09/l601.exe)
 Copying SCF densities to generalized density rwf, IOpCl= 1 IROHF=0.

 **********************************************************************

            Population analysis using the SCF density.

 **********************************************************************

 Orbital symmetries:
 Alpha Orbitals:
       Occupied  (A') (A") (A') (A') (A') (A') (A") (A') (A') (A')
                 (A") (A") (A') (A')
       Virtual   (A") (A') (A') (A") (A') (A') (A') (A") (A') (A")
                 (A') (A') (A") (A') (A") (A') (A') (A") (A') (A')
                 (A') (A") (A") (A') (A') (A") (A") (A') (A') (A')
                 (A') (A") (A') (A') (A") (A') (A") (A") (A') (A')
                 (A') (A") (A') (A") (A') (A') (A") (A') (A') (A')
                 (A") (A') (A') (A') (A") (A") (A") (A') (A') (A")
                 (A') (A") (A') (A') (A") (A') (A") (A') (A') (A")
                 (A') (A') (A") (A") (A") (A') (A') (A") (A') (A')
                 (A') (A') (A") (A') (A") (A") (A') (A') (A") (A')
                 (A') (A') (A") (A') (A') (A") (A") (A') (A') (A")
                 (A') (A')
 Beta  Orbitals:
       Occupied  (A') (A") (A') (A') (A') (A') (A") (A') (A') (A')
                 (A") (A") (A')
       Virtual   (A') (A") (A') (A') (A") (A') (A') (A') (A") (A')
                 (A") (A') (A") (A') (A') (A") (A') (A') (A") (A')
                 (A') (A") (A') (A") (A') (A') (A") (A") (A') (A')
                 (A') (A') (A") (A') (A') (A") (A') (A") (A") (A')
                 (A') (A") (A') (A') (A") (A') (A') (A") (A') (A')
                 (A') (A") (A') (A') (A") (A') (A") (A") (A') (A')
                 (A") (A') (A") (A') (A') (A") (A') (A") (A') (A')
                 (A") (A') (A') (A") (A") (A") (A') (A') (A") (A')
                 (A') (A') (A') (A") (A') (A") (A") (A') (A') (A")
                 (A') (A') (A") (A') (A') (A') (A") (A") (A') (A')
                 (A") (A') (A')
 The electronic state is 2-A'.
 Alpha  occ. eigenvalues --  -10.50932 -10.50924 -10.50040 -10.45204  -1.20492
 Alpha  occ. eigenvalues --   -0.93829  -0.90464  -0.80026  -0.73453  -0.68841
 Alpha  occ. eigenvalues --   -0.67364  -0.62125  -0.58955  -0.53252
 Alpha virt. eigenvalues --   -0.31195  -0.28481  -0.15638  -0.14900  -0.14242
 Alpha virt. eigenvalues --   -0.12033  -0.10055  -0.08706  -0.07719  -0.07356
 Alpha virt. eigenvalues --   -0.06632  -0.05763  -0.05451  -0.02910  -0.02304
 Alpha virt. eigenvalues --   -0.01693  -0.01071  -0.00501  -0.00004   0.00587
 Alpha virt. eigenvalues --    0.01046   0.01153   0.02866   0.03871   0.06112
 Alpha virt. eigenvalues --    0.07463   0.08062   0.10957   0.13076   0.17804
 Alpha virt. eigenvalues --    0.24801   0.25899   0.26979   0.30338   0.32288
 Alpha virt. eigenvalues --    0.35060   0.36098   0.38164   0.38209   0.39367
 Alpha virt. eigenvalues --    0.41912   0.42261   0.45171   0.47019   0.49696
 Alpha virt. eigenvalues --    0.51151   0.59785   0.62475   0.64289   0.64685
 Alpha virt. eigenvalues --    0.80499   0.83285   0.92001   1.03134   1.03162
 Alpha virt. eigenvalues --    1.19759   1.22780   1.23464   1.30476   1.32462
 Alpha virt. eigenvalues --    1.36321   1.40688   1.45241   1.47409   1.51548
 Alpha virt. eigenvalues --    1.56122   1.58208   1.64884   1.66868   1.70786
 Alpha virt. eigenvalues --    1.75844   1.79663   1.83753   1.89015   1.92973
 Alpha virt. eigenvalues --    1.99795   2.10667   2.13727   2.21522   2.28930
 Alpha virt. eigenvalues --    2.33188   2.38591   2.40312   2.42999   2.48081
 Alpha virt. eigenvalues --    2.54767   2.58122   2.62030   2.62918   2.81658
 Alpha virt. eigenvalues --    2.87339   3.05737   3.06119   3.24682   3.52067
 Alpha virt. eigenvalues --    3.64287   3.78962   3.96095  23.37288  23.55057
 Alpha virt. eigenvalues --   23.61790  23.93941
  Beta  occ. eigenvalues --  -10.50825 -10.50818 -10.48399 -10.45055  -1.19339
  Beta  occ. eigenvalues --   -0.92438  -0.90056  -0.79711  -0.71375  -0.67848
  Beta  occ. eigenvalues --   -0.66263  -0.61940  -0.57033
  Beta virt. eigenvalues --   -0.37689  -0.30984  -0.26382  -0.15449  -0.14738
  Beta virt. eigenvalues --   -0.14171  -0.11537  -0.09865  -0.08675  -0.07413
  Beta virt. eigenvalues --   -0.07284  -0.06545  -0.05406  -0.05317  -0.02559
  Beta virt. eigenvalues --   -0.01665  -0.01594  -0.00962  -0.00461   0.00125
  Beta virt. eigenvalues --    0.00865   0.01163   0.01167   0.02901   0.04161
  Beta virt. eigenvalues --    0.06613   0.08078   0.09263   0.11194   0.13717
  Beta virt. eigenvalues --    0.18380   0.25014   0.26192   0.27392   0.31058
  Beta virt. eigenvalues --    0.32335   0.36128   0.36201   0.38260   0.39466
  Beta virt. eigenvalues --    0.40460   0.42350   0.42762   0.45680   0.48173
  Beta virt. eigenvalues --    0.50676   0.52664   0.60023   0.63019   0.64624
  Beta virt. eigenvalues --    0.66617   0.81094   0.84059   0.93909   1.03657
  Beta virt. eigenvalues --    1.03924   1.20232   1.23140   1.24516   1.30800
  Beta virt. eigenvalues --    1.32965   1.36819   1.42005   1.46644   1.49027
  Beta virt. eigenvalues --    1.52240   1.58102   1.58707   1.65637   1.68684
  Beta virt. eigenvalues --    1.71485   1.78013   1.80578   1.84627   1.89494
  Beta virt. eigenvalues --    1.94334   2.01071   2.11137   2.15093   2.22925
  Beta virt. eigenvalues --    2.29257   2.33723   2.38794   2.40433   2.43528
  Beta virt. eigenvalues --    2.48329   2.55085   2.58737   2.62799   2.63229
  Beta virt. eigenvalues --    2.82442   2.89305   3.06895   3.09003   3.25645
  Beta virt. eigenvalues --    3.52329   3.64948   3.79440   3.96503  23.38316
  Beta virt. eigenvalues --   23.55199  23.61962  23.94912
          Condensed to atoms (all electrons):
               1          2          3          4          5          6
     1  C    4.804219   0.231625   0.408198   0.028408  -0.025269  -0.018974
     2  C    0.231625   5.279625   0.025455   0.231625   0.405275   0.415485
     3  C    0.408198   0.025455   5.103679   0.408198   0.002952  -0.009913
     4  C    0.028408   0.231625   0.408198   4.804219  -0.025269  -0.018974
     5  H   -0.025269   0.405275   0.002952  -0.025269   0.404406  -0.004215
     6  H   -0.018974   0.415485  -0.009913  -0.018974  -0.004215   0.384309
     7  H   -0.019658  -0.017339  -0.004455   0.373097   0.002506   0.000006
     8  H    0.373097  -0.017339  -0.004455  -0.019658   0.002506   0.000006
               7          8
     1  C   -0.019658   0.373097
     2  C   -0.017339  -0.017339
     3  C   -0.004455  -0.004455
     4  C    0.373097  -0.019658
     5  H    0.002506   0.002506
     6  H    0.000006   0.000006
     7  H    0.387271  -0.000426
     8  H   -0.000426   0.387271
          Atomic-Atomic Spin Densities.
               1          2          3          4          5          6
     1  C    0.026311   0.021611   0.029902  -0.008176  -0.007747  -0.001515
     2  C    0.021611   0.073061  -0.051646   0.021611  -0.002109  -0.003502
     3  C    0.029902  -0.051646   0.758958   0.029902   0.010666   0.002395
     4  C   -0.008176   0.021611   0.029902   0.026311  -0.007747  -0.001515
     5  H   -0.007747  -0.002109   0.010666  -0.007747   0.047005   0.000360
     6  H   -0.001515  -0.003502   0.002395  -0.001515   0.000360  -0.003550
     7  H   -0.000496  -0.002119   0.000685   0.001445   0.000643   0.000233
     8  H    0.001445  -0.002119   0.000685  -0.000496   0.000643   0.000233
               7          8
     1  C   -0.000496   0.001445
     2  C   -0.002119  -0.002119
     3  C    0.000685   0.000685
     4  C    0.001445  -0.000496
     5  H    0.000643   0.000643
     6  H    0.000233   0.000233
     7  H    0.002698  -0.000018
     8  H   -0.000018   0.002698
 Mulliken charges and spin densities:
               1          2
     1  C    0.218353   0.061335
     2  C   -0.554412   0.054788
     3  C    0.070340   0.781549
     4  C    0.218353   0.061335
     5  H    0.237106   0.041714
     6  H    0.252268  -0.006862
     7  H    0.278996   0.003071
     8  H    0.278996   0.003071
 Sum of Mulliken charges =   1.00000   1.00000
 Mulliken charges and spin densities with hydrogens summed into heavy atoms:
               1          2
     1  C    0.497349   0.064405
     2  C   -0.065038   0.089641
     3  C    0.070340   0.781549
     4  C    0.497349   0.064405
 APT charges:
               1
     1  C    0.181016
     2  C    0.011135
     3  C    0.038413
     4  C    0.181016
     5  H    0.125895
     6  H    0.123109
     7  H    0.169708
     8  H    0.169708
 Sum of APT charges =   1.00000
 APT charges with hydrogens summed into heavy atoms:
               1
     1  C    0.350723
     2  C    0.260140
     3  C    0.038413
     4  C    0.350723
 Electronic spatial extent (au):  <R**2>=            179.7676
 Charge=              1.0000 electrons
 Dipole moment (field-independent basis, Debye):
    X=              1.1917    Y=              0.3644    Z=             -0.0000  Tot=              1.2462
 Quadrupole moment (field-independent basis, Debye-Ang):
   XX=            -19.7058   YY=            -17.7399   ZZ=            -14.6862
   XY=             -0.2386   XZ=              0.0000   YZ=             -0.0000
 Traceless Quadrupole moment (field-independent basis, Debye-Ang):
   XX=             -2.3285   YY=             -0.3626   ZZ=              2.6911
   XY=             -0.2386   XZ=              0.0000   YZ=             -0.0000
 Octapole moment (field-independent basis, Debye-Ang**2):
  XXX=              2.4431  YYY=              6.6294  ZZZ=              0.0000  XYY=              0.6159
  XXY=              2.5244  XXZ=              0.0000  XZZ=              5.3620  YZZ=             -2.9870
  YYZ=              0.0000  XYZ=             -0.0000
 Hexadecapole moment (field-independent basis, Debye-Ang**3):
 XXXX=            -38.5118 YYYY=            -98.3082 ZZZZ=            -64.6844 XXXY=             -8.8955
 XXXZ=              0.0000 YYYX=             -8.3895 YYYZ=              0.0000 ZZZX=              0.0000
 ZZZY=             -0.0000 XXYY=            -20.3558 XXZZ=            -17.8335 YYZZ=            -32.7510
 XXYZ=             -0.0000 YYXZ=              0.0000 ZZXY=             -5.6146
 N-N= 1.005339826519D+02 E-N=-5.515903494834D+02  KE= 1.537004079988D+02
 Symmetry A'   KE= 1.131155649195D+02
 Symmetry A"   KE= 4.058484307937D+01
  Exact polarizability:  28.411   4.946  38.724   0.000   0.000  37.882
 Approx polarizability:  43.308  11.008  59.791   0.000   0.000  65.380
                          Isotropic Fermi Contact Couplings
        Atom                 a.u.       MegaHertz       Gauss      10(-4) cm-1
     1  C(13)              0.03536      39.75499      14.18557      13.26084
     2  C(13)              0.04999      56.20007      20.05358      18.74632
     3  C(13)              0.53362     599.89511     214.05748     200.10347
     4  C(13)              0.03536      39.75499      14.18557      13.26084
     5  H(1)               0.01898      84.82827      30.26883      28.29566
     6  H(1)              -0.00271     -12.09229      -4.31483      -4.03355
     7  H(1)               0.00072       3.22869       1.15208       1.07698
     8  H(1)               0.00072       3.22869       1.15208       1.07698
 --------------------------------------------------------
       Center         ----  Spin Dipole Couplings  ----
                      3XX-RR        3YY-RR        3ZZ-RR
 --------------------------------------------------------
     1   Atom        0.013902      0.018754     -0.032656
     2   Atom       -0.047690      0.097223     -0.049533
     3   Atom       -0.347450      0.848572     -0.501122
     4   Atom        0.013902      0.018754     -0.032656
     5   Atom        0.007772      0.000650     -0.008423
     6   Atom       -0.002573      0.012648     -0.010074
     7   Atom        0.002578     -0.007382      0.004804
     8   Atom        0.002578     -0.007382      0.004804
 --------------------------------------------------------
                        XY            XZ            YZ
 --------------------------------------------------------
     1   Atom        0.119265      0.027790      0.004371
     2   Atom        0.045504      0.000000      0.000000
     3   Atom        0.330570     -0.000000      0.000000
     4   Atom        0.119265     -0.027790     -0.004371
     5   Atom        0.007638     -0.000000     -0.000000
     6   Atom       -0.007021      0.000000     -0.000000
     7   Atom        0.005643     -0.014664     -0.005336
     8   Atom        0.005643      0.014664      0.005336
 --------------------------------------------------------


 ---------------------------------------------------------------------------------
              Anisotropic Spin Dipole Couplings in Principal Axis System
 ---------------------------------------------------------------------------------

       Atom             a.u.   MegaHertz   Gauss  10(-4) cm-1        Axes

              Baa    -0.1069   -14.341    -5.117    -4.784  0.7103 -0.6664 -0.2267
     1 C(13)  Bbb    -0.0317    -4.259    -1.520    -1.421  0.0714 -0.2522  0.9650
              Bcc     0.1386    18.601     6.637     6.204  0.7003  0.7016  0.1315
 
              Baa    -0.0608    -8.158    -2.911    -2.721  0.9609 -0.2767 -0.0000
     2 C(13)  Bbb    -0.0495    -6.647    -2.372    -2.217  0.0000 -0.0000  1.0000
              Bcc     0.1103    14.805     5.283     4.938  0.2767  0.9609  0.0000
 
              Baa    -0.5011   -67.246   -23.995   -22.431  0.0000 -0.0000  1.0000
     3 C(13)  Bbb    -0.4327   -58.069   -20.720   -19.370  0.9683 -0.2498 -0.0000
              Bcc     0.9339   125.315    44.715    41.800  0.2498  0.9683  0.0000
 
              Baa    -0.1069   -14.341    -5.117    -4.784  0.7103 -0.6664  0.2267
     4 C(13)  Bbb    -0.0317    -4.259    -1.520    -1.421 -0.0714  0.2522  0.9650
              Bcc     0.1386    18.601     6.637     6.204  0.7003  0.7016 -0.1315
 
              Baa    -0.0084    -4.494    -1.604    -1.499 -0.0000  0.0000  1.0000
     5 H(1)   Bbb    -0.0042    -2.249    -0.803    -0.750 -0.5373  0.8434 -0.0000
              Bcc     0.0126     6.744     2.406     2.249  0.8434  0.5373 -0.0000
 
              Baa    -0.0101    -5.375    -1.918    -1.793 -0.0000  0.0000  1.0000
     6 H(1)   Bbb    -0.0053    -2.837    -1.012    -0.946  0.9314  0.3640 -0.0000
              Bcc     0.0154     8.212     2.930     2.739 -0.3640  0.9314 -0.0000
 
              Baa    -0.0112    -5.956    -2.125    -1.987  0.7519 -0.2792  0.5972
     7 H(1)   Bbb    -0.0094    -5.007    -1.787    -1.670  0.0368  0.9222  0.3849
              Bcc     0.0205    10.963     3.912     3.657 -0.6582 -0.2674  0.7037
 
              Baa    -0.0112    -5.956    -2.125    -1.987  0.7519 -0.2792 -0.5972
     8 H(1)   Bbb    -0.0094    -5.007    -1.787    -1.670  0.0368  0.9222 -0.3849
              Bcc     0.0205    10.963     3.912     3.657  0.6582  0.2674  0.7037
 

 ---------------------------------------------------------------------------------

 No NMR shielding tensors so no spin-rotation constants.
 Leave Link  601 at Thu Jan 24 16:05:09 2019, MaxMem=    33554432 cpu:         0.3
 (Enter /apl/tryton/gaussian/09/d01/g09/l701.exe)
 Compute integral second derivatives.
 ... and contract with generalized density number  0.
 Leave Link  701 at Thu Jan 24 16:05:09 2019, MaxMem=    33554432 cpu:         0.2
 (Enter /apl/tryton/gaussian/09/d01/g09/l702.exe)
 L702 exits ... SP integral derivatives will be done elsewhere.
 Leave Link  702 at Thu Jan 24 16:05:09 2019, MaxMem=    33554432 cpu:         0.0
 (Enter /apl/tryton/gaussian/09/d01/g09/l703.exe)
 Compute integral second derivatives, UseDBF=F ICtDFT=           0.
 Integral derivatives from FoFJK, PRISM(SPDF).
 Calling FoFJK, ICntrl=    100127 FMM=F ISym2X=1 I1Cent= 0 IOpClX= 1 NMat=1 NMatS=1 NMatT=0.
 FoFJK:  IHMeth= 1 ICntrl=  100127 DoSepK=F KAlg= 0 I1Cent=   0 FoldK=F
 IRaf=         0 NMat=   1 IRICut=       1 DoRegI=T DoRafI=F ISym2E= 1.
 FoFCou: FMM=F IPFlag=           0 FMFlag=      100000 FMFlg1=         800
         NFxFlg=           0 DoJE=F BraDBF=F KetDBF=F FulRan=T
         wScrn=  0.000000 ICntrl=  100127 IOpCl=  1 I1Cent=           0 NGrid=           0
         NMat0=    1 NMatS0=      1 NMatT0=    0 NMatD0=    1 NMtDS0=    0 NMtDT0=    0
 Petite list used in FoFCou.
 Leave Link  703 at Thu Jan 24 16:05:38 2019, MaxMem=    33554432 cpu:        29.0
 (Enter /apl/tryton/gaussian/09/d01/g09/l716.exe)
 Dipole        = 4.68856146D-01 1.43373352D-01-9.25301502D-15
 Polarizability= 2.84107842D+01 4.94556065D+00 3.87244825D+01
                 1.90931545D-07 2.08615320D-07 3.78817112D+01
 Full mass-weighted force constant matrix:
 Low frequencies ---  -22.0366  -15.6613  -14.3794    0.0004    0.0009    0.0010
 Low frequencies ---  368.6872  678.3908  747.2111
 Diagonal vibrational polarizability:
        1.8520131       1.5125464       1.2417417
 Harmonic frequencies (cm**-1), IR intensities (KM/Mole), Raman scattering
 activities (A**4/AMU), depolarization ratios for plane and unpolarized
 incident light, reduced masses (AMU), force constants (mDyne/A),
 and normal coordinates:
                      1                      2                      3
                     A'                     A'                     A"
 Frequencies --    368.6871               678.3908               747.2111
 Red. masses --      2.3543                 2.2685                 4.5379
 Frc consts  --      0.1886                 0.6151                 1.4928
 IR Inten    --      7.6771                 1.9478                 0.5772
  Atom  AN      X      Y      Z        X      Y      Z        X      Y      Z
     1   6    -0.12   0.03   0.15     0.11  -0.05   0.11     0.03   0.27  -0.15
     2   6     0.08  -0.05  -0.00    -0.05  -0.10   0.00     0.00   0.00   0.35
     3   6     0.20  -0.04   0.00    -0.08   0.21  -0.00     0.00  -0.00  -0.07
     4   6    -0.12   0.03  -0.15     0.11  -0.05  -0.11    -0.03  -0.27  -0.15
     5   1     0.19  -0.19   0.00    -0.33   0.31   0.00     0.00   0.00   0.66
     6   1     0.20   0.15   0.00    -0.28  -0.47  -0.00     0.00   0.00  -0.07
     7   1    -0.43   0.15  -0.40    -0.24  -0.05  -0.36    -0.09  -0.26  -0.21
     8   1    -0.43   0.15   0.40    -0.24  -0.05   0.36     0.09   0.26  -0.21
                      4                      5                      6
                     A'                     A"                     A'
 Frequencies --    957.3602               959.1710               967.1311
 Red. masses --      1.5156                 1.1995                 1.8985
 Frc consts  --      0.8184                 0.6502                 1.0463
 IR Inten    --     12.1411                 0.9755                23.1722
  Atom  AN      X      Y      Z        X      Y      Z        X      Y      Z
     1   6    -0.06  -0.03   0.08    -0.05   0.01   0.07     0.02  -0.04  -0.12
     2   6     0.06   0.12  -0.00    -0.00  -0.00  -0.02     0.09   0.17  -0.00
     3   6     0.07   0.02  -0.00    -0.00  -0.00  -0.04    -0.03  -0.11  -0.00
     4   6    -0.06  -0.03  -0.08     0.05  -0.01   0.07     0.02  -0.04   0.12
     5   1    -0.12   0.38   0.00     0.00  -0.00   0.17    -0.09   0.44   0.00
     6   1    -0.12  -0.16  -0.00     0.00   0.00  -0.51    -0.12  -0.15  -0.00
     7   1     0.13  -0.57   0.19    -0.46   0.17  -0.33    -0.52  -0.00  -0.27
     8   1     0.13  -0.57  -0.19     0.46  -0.17  -0.33    -0.52  -0.00   0.27
                      7                      8                      9
                     A"                     A'                     A"
 Frequencies --   1027.1940              1064.4376              1135.3028
 Red. masses --      1.2359                 1.6808                 1.1811
 Frc consts  --      0.7683                 1.1220                 0.8969
 IR Inten    --      7.4332                 0.4939                 8.4255
  Atom  AN      X      Y      Z        X      Y      Z        X      Y      Z
     1   6     0.01  -0.09  -0.03    -0.07   0.07  -0.02    -0.08   0.01   0.02
     2   6    -0.00  -0.00  -0.05     0.16  -0.12  -0.00    -0.00   0.00  -0.02
     3   6    -0.00   0.00   0.04    -0.01  -0.05  -0.00     0.00   0.00  -0.05
     4   6    -0.01   0.09  -0.03    -0.07   0.07   0.02     0.08  -0.01   0.02
     5   1     0.00  -0.00   0.71    -0.21   0.41  -0.00     0.00  -0.00  -0.17
     6   1     0.00   0.00  -0.16    -0.16  -0.65   0.00     0.00   0.00   0.76
     7   1    -0.09  -0.47   0.06     0.17   0.30   0.14    -0.27  -0.30  -0.16
     8   1     0.09   0.47   0.06     0.17   0.30  -0.14     0.27   0.30  -0.16
                     10                     11                     12
                     A"                     A'                     A"
 Frequencies --   1155.7014              1211.4323              1332.3502
 Red. masses --      1.3714                 2.1492                 4.0542
 Frc consts  --      1.0792                 1.8583                 4.2403
 IR Inten    --      5.4743                24.3222                35.8257
  Atom  AN      X      Y      Z        X      Y      Z        X      Y      Z
     1   6     0.03  -0.03   0.04    -0.00   0.12  -0.13    -0.16  -0.12  -0.18
     2   6    -0.00   0.00   0.11    -0.02  -0.18  -0.00    -0.00   0.00   0.17
     3   6     0.00  -0.00  -0.12     0.09   0.06   0.00     0.00  -0.00   0.33
     4   6    -0.03   0.03   0.04    -0.00   0.12   0.13     0.16   0.12  -0.18
     5   1     0.00  -0.00  -0.60    -0.02  -0.21   0.00     0.00   0.00  -0.63
     6   1     0.00   0.00  -0.45    -0.00  -0.15   0.00     0.00   0.00  -0.27
     7   1    -0.07  -0.42   0.14    -0.34  -0.54   0.08    -0.06  -0.05  -0.35
     8   1     0.07   0.42   0.14    -0.34  -0.54  -0.08     0.06   0.05  -0.35
                     13                     14                     15
                     A'                     A'                     A'
 Frequencies --   1429.3736              1503.5438              3069.3968
 Red. masses --      1.9895                 1.7784                 1.0604
 Frc consts  --      2.3949                 2.3687                 5.8863
 IR Inten    --      1.4263                 6.8719                19.3389
  Atom  AN      X      Y      Z        X      Y      Z        X      Y      Z
     1   6    -0.06  -0.10  -0.07     0.05   0.09   0.08     0.00  -0.00   0.00
     2   6     0.01   0.08   0.00    -0.01   0.07  -0.00    -0.03  -0.06   0.00
     3   6     0.11   0.17  -0.00    -0.10  -0.14  -0.00     0.00   0.00   0.00
     4   6    -0.06  -0.10   0.07     0.05   0.09  -0.08     0.00  -0.00  -0.00
     5   1     0.38  -0.51  -0.00     0.39  -0.54  -0.00     0.76   0.49  -0.00
     6   1    -0.37  -0.54  -0.00    -0.38  -0.54   0.00    -0.36   0.21  -0.00
     7   1     0.01   0.18   0.08     0.00  -0.15  -0.08    -0.02   0.00   0.03
     8   1     0.01   0.18  -0.08     0.00  -0.15   0.08    -0.02   0.00  -0.03
                     16                     17                     18
                     A'                     A"                     A'
 Frequencies --   3176.3028              3178.2890              3179.4903
 Red. masses --      1.1093                 1.0971                 1.0994
 Frc consts  --      6.5938                 6.5298                 6.5485
 IR Inten    --      8.5587                62.4869                26.7419
  Atom  AN      X      Y      Z        X      Y      Z        X      Y      Z
     1   6     0.01  -0.00   0.01     0.04  -0.01   0.05     0.04  -0.01   0.05
     2   6    -0.09   0.02  -0.00     0.00  -0.00  -0.00     0.02   0.00   0.00
     3   6    -0.00  -0.00  -0.00     0.00   0.00  -0.01    -0.00  -0.01  -0.00
     4   6     0.01  -0.00  -0.01    -0.04   0.01   0.05     0.04  -0.01  -0.05
     5   1     0.32   0.22   0.00    -0.00  -0.00   0.00    -0.09  -0.06  -0.00
     6   1     0.77  -0.48  -0.00    -0.00   0.00  -0.00    -0.11   0.07  -0.00
     7   1    -0.07   0.02   0.09     0.40  -0.14  -0.56    -0.39   0.14   0.55
     8   1    -0.07   0.02  -0.09    -0.40   0.14  -0.56    -0.39   0.14  -0.55

 -------------------
 - Thermochemistry -
 -------------------
 Temperature   298.150 Kelvin.  Pressure   1.00000 Atm.
 Atom     1 has atomic number  6 and mass  12.00000
 Atom     2 has atomic number  6 and mass  12.00000
 Atom     3 has atomic number  6 and mass  12.00000
 Atom     4 has atomic number  6 and mass  12.00000
 Atom     5 has atomic number  1 and mass   1.00783
 Atom     6 has atomic number  1 and mass   1.00783
 Atom     7 has atomic number  1 and mass   1.00783
 Atom     8 has atomic number  1 and mass   1.00783
 Molecular mass:    52.03130 amu.
 Principal axes and moments of inertia in atomic units:
                           1         2         3
     Eigenvalues --   109.73827 136.34018 213.43986
           X            0.24346   0.00000   0.96991
           Y            0.96991   0.00000  -0.24346
           Z           -0.00000   1.00000  -0.00000
 This molecule is an asymmetric top.
 Rotational symmetry number  1.
 Rotational temperatures (Kelvin)      0.78928     0.63528     0.40580
 Rotational constants (GHZ):          16.44587    13.23705     8.45550
 Zero-point vibrational energy     162337.8 (Joules/Mol)
                                   38.79967 (Kcal/Mol)
 Warning -- explicit consideration of   1 degrees of freedom as
           vibrations may cause significant error
 Vibrational temperatures:    530.46   976.05  1075.07  1377.43  1380.03
          (Kelvin)           1391.48  1477.90  1531.49  1633.45  1662.79
                             1742.98  1916.95  2056.55  2163.26  4416.17
                             4569.99  4572.84  4574.57
 
 Zero-point correction=                           0.061831 (Hartree/Particle)
 Thermal correction to Energy=                    0.065491
 Thermal correction to Enthalpy=                  0.066435
 Thermal correction to Gibbs Free Energy=         0.035940
 Sum of electronic and zero-point Energies=           -154.326101
 Sum of electronic and thermal Energies=              -154.322441
 Sum of electronic and thermal Enthalpies=            -154.321497
 Sum of electronic and thermal Free Energies=         -154.351992
 
                     E (Thermal)             CV                S
                      KCal/Mol        Cal/Mol-Kelvin    Cal/Mol-Kelvin
 Total                   41.096             12.024             64.183
 Electronic               0.000              0.000              1.377
 Translational            0.889              2.981             37.771
 Rotational               0.889              2.981             22.684
 Vibrational             39.319              6.062              2.351
 Vibration     1          0.741              1.537              1.085
                       Q            Log10(Q)             Ln(Q)
 Total Bot       0.294444D-16        -16.530997        -38.064028
 Total V=0       0.811571D+12         11.909326         27.422237
 Vib (Bot)       0.493339D-28        -28.306855        -65.178942
 Vib (Bot)    1  0.494246D+00         -0.306057         -0.704723
 Vib (V=0)       0.135978D+01          0.133469          0.307323
 Vib (V=0)    1  0.120305D+01          0.080284          0.184860
 Electronic      0.200000D+01          0.301030          0.693147
 Translational   0.147520D+08          7.168852         16.506892
 Rotational      0.202290D+05          4.305975          9.914874
 
                                                                 min
                                                             IR Spectrum
 
    333   3                                                             1  1   1    1 11  11                                         
    111   0                                                             5  4   3    2 11  00999        7 6            3              
    777   6                                                             0  2   3    1 53  62655        4 7            6              
    986   9                                                             4  9   2    1 65  47797        7 8            9              
 
    XXX   X                                                             X  X   X    X XX  XXXXX        X X            X              
    XXX   X                                                             X      X    X XX   XX X                       X              
    XXX   X                                                                    X    X  X    X X                                      
    XX    X                                                                    X    X       X X                                      
    XX    X                                                                    X    X       X                                        
    XX    X                                                                    X    X       X                                        
    XX                                                                         X    X       X                                        
    XX                                                                         X    X                                                
    XX                                                                         X                                                     
     X                                                                         X                                                     
     X                                                                         X                                                     
     X                                                                                                                               
     X                                                                                                                               
     X                                                                                                                               
     X                                                                                                                               
     X                                                                                                                               
     X                                                                                                                               
     X                                                                                                                               
     X                                                                                                                               
     X                                                                                                                               
 
 ***** Axes restored to original set *****
 -------------------------------------------------------------------
 Center     Atomic                   Forces (Hartrees/Bohr)
 Number     Number              X              Y              Z
 -------------------------------------------------------------------
      1        6           0.000148703    0.000218361   -0.000123585
      2        6           0.000073868    0.000008904   -0.000018870
      3        6          -0.000293235   -0.000079263    0.000027981
      4        6           0.000249329   -0.000061457    0.000138296
      5        1          -0.000065367   -0.000023063    0.000000474
      6        1          -0.000040037    0.000008407    0.000024367
      7        1          -0.000044602   -0.000013779   -0.000045076
      8        1          -0.000028660   -0.000058110   -0.000003587
 -------------------------------------------------------------------
 Cartesian Forces:  Max     0.000293235 RMS     0.000108891
 Z-matrix is all fixed cartesians, so copy forces.
 Force constants in Cartesian coordinates: 
                1             2             3             4             5 
      1  0.307972D+00
      2  0.246927D-01  0.717798D+00
      3 -0.806090D-01 -0.166898D+00  0.243826D+00
      4 -0.115670D+00  0.649034D-01  0.600482D-02  0.575598D+00
      5  0.270104D-01 -0.123660D+00  0.731616D-03  0.749368D-01  0.416076D+00
      6  0.399914D-01 -0.193871D-01 -0.558455D-01 -0.555215D-01  0.177807D+00
      7 -0.155633D+00 -0.117758D+00  0.108688D+00 -0.865114D-01 -0.166107D-01
      8 -0.996147D-01 -0.214891D+00  0.105885D+00 -0.184322D-02  0.368677D-01
      9  0.992625D-01  0.117398D+00 -0.110982D+00  0.493336D-01 -0.445030D-02
     10  0.472943D-01  0.157291D-02 -0.497980D-01 -0.924447D-01  0.149583D-01
     11  0.274417D-02 -0.561327D-01  0.350748D-01 -0.148021D-01 -0.481019D-01
     12 -0.503636D-01  0.335991D-01 -0.331128D-01  0.555805D-01 -0.406986D-03
     13 -0.154899D-01 -0.912825D-02  0.639246D-03 -0.252586D+00 -0.106143D+00
     14  0.173630D-01  0.117504D-01  0.173314D-02 -0.108157D+00 -0.105251D+00
     15 -0.160083D-02 -0.361597D-02 -0.262727D-02 -0.375399D-01 -0.187589D-01
     16 -0.969896D-02  0.130881D-01  0.193201D-01 -0.402327D-01 -0.110231D-01
     17  0.590849D-02 -0.130288D-01 -0.137156D-01 -0.789289D-02 -0.178353D+00
     18 -0.367381D-03  0.777375D-02  0.863412D-02 -0.566914D-02 -0.151032D+00
     19 -0.693407D-02  0.288889D-02  0.248935D-02  0.929066D-02 -0.174467D-02
     20  0.275633D-02  0.199697D-01  0.823337D-03 -0.369868D-02  0.383691D-02
     21  0.270260D-02  0.410256D-02 -0.185735D-02 -0.754029D-02 -0.527659D-04
     22 -0.518403D-01  0.197400D-01 -0.673470D-02  0.255711D-02  0.186160D-01
     23  0.191396D-01 -0.341804D+00  0.363653D-01 -0.344634D-02 -0.141452D-02
     24 -0.901575D-02  0.270271D-01 -0.480353D-01 -0.464799D-02 -0.383753D-02
                6             7             8             9            10 
      6  0.434038D+00
      7  0.335546D-01  0.549907D+00
      8 -0.101246D-01  0.324556D-01  0.232537D+00
      9  0.232950D-01 -0.357550D-01 -0.155718D+00  0.213957D+00
     10  0.129044D-01 -0.313819D+00  0.774118D-01 -0.932323D-01  0.456222D+00
     11  0.165869D-01  0.846384D-01 -0.467637D-01  0.346181D-01 -0.878518D-01
     12 -0.154630D+00 -0.114322D+00  0.419367D-01 -0.120923D+00  0.183813D+00
     13 -0.353881D-01 -0.304710D-02  0.853759D-04  0.218862D-02 -0.745562D-02
     14 -0.179850D-01  0.221032D-02  0.175170D-02 -0.155419D-02 -0.773063D-02
     15 -0.551433D-01  0.445910D-02 -0.737702D-03 -0.901930D-04  0.229796D-01
     16 -0.901374D-02  0.200324D-02  0.380170D-02  0.223464D-03 -0.695284D-02
     17 -0.152235D+00 -0.473201D-03 -0.310918D-02  0.539362D-02 -0.406069D-02
     18 -0.192237D+00 -0.434424D-02  0.375102D-02 -0.230970D-02  0.812225D-02
     19  0.146422D-01 -0.202618D-02  0.481608D-02 -0.232258D-01 -0.795955D-01
     20  0.472205D-02  0.119807D-01 -0.227859D-02  0.673061D-02  0.361733D-02
     21 -0.573114D-02  0.335268D-02 -0.290731D-02  0.318524D-02 -0.959799D-01
     22 -0.116919D-02  0.912638D-02 -0.171126D-01  0.120490D-02 -0.324841D-02
     23  0.615739D-03  0.355660D-02 -0.411393D-02 -0.241825D-02  0.208277D-02
     24  0.625383D-02  0.436667D-02  0.179146D-01 -0.613197D-02  0.111914D-01
               11            12            13            14            15 
     11  0.197339D+00
     12 -0.122201D+00  0.616034D+00
     13 -0.496083D-03  0.163853D-03  0.275362D+00
     14 -0.460074D-02 -0.410736D-02  0.114220D+00  0.102172D+00
     15  0.864099D-02  0.568959D-02  0.317541D-01  0.221332D-01  0.518311D-01
     16  0.619583D-02  0.706518D-02  0.240400D-02 -0.174691D-01 -0.191269D-01
     17  0.126243D-01  0.142915D-01  0.873928D-03 -0.591353D-02 -0.794025D-02
     18 -0.138976D-01 -0.197651D-01  0.472485D-03 -0.892095D-03  0.687079D-04
     19  0.880540D-02 -0.920760D-01  0.120738D-03  0.535503D-03 -0.112963D-02
     20 -0.536097D-01  0.324179D-01  0.364251D-03 -0.358057D-04  0.108801D-03
     21  0.395319D-01 -0.308475D+00  0.149377D-03  0.506635D-04  0.502431D-03
     22  0.766179D-03  0.101395D-01  0.692113D-03 -0.971727D-03  0.204477D-03
     23 -0.754751D-03  0.447014D-02  0.224297D-03  0.126358D-03  0.169789D-03
     24  0.164587D-02  0.151814D-01  0.204360D-04  0.621687D-03 -0.231106D-03
               16            17            18            19            20 
     16  0.526531D-01
     17  0.540615D-02  0.188085D+00
     18  0.154515D-02  0.154397D+00  0.206020D+00
     19  0.363303D-03 -0.118362D-02  0.142235D-02  0.772324D-01
     20  0.736817D-04 -0.223417D-03 -0.213453D-03 -0.142975D-01  0.318777D-01
     21 -0.280289D-03  0.540511D-03 -0.585561D-03  0.979279D-01 -0.415026D-01
     22 -0.539153D-03  0.142183D-02 -0.118146D-02  0.154865D-02 -0.796086D-03
     23 -0.733162D-04 -0.813602D-04  0.113490D-03  0.179948D-03  0.463310D-03
     24  0.267037D-03 -0.731866D-03  0.174838D-03 -0.503994D-04 -0.308659D-02
               21            22            23            24 
     21  0.312502D+00
     22 -0.332140D-03  0.417037D-01
     23  0.237028D-03 -0.216635D-01  0.347579D+00
     24  0.458667D-03 -0.213143D-02 -0.395532D-01  0.323296D-01
 Leave Link  716 at Thu Jan 24 16:05:38 2019, MaxMem=    33554432 cpu:         0.0
 (Enter /apl/tryton/gaussian/09/d01/g09/l103.exe)

 GradGradGradGradGradGradGradGradGradGradGradGradGradGradGradGradGradGrad
 Berny optimization.
 Search for a local minimum.
 Step number   1 out of a maximum of    2
 All quantities printed in internal units (Hartrees-Bohrs-Radians)
 Second derivative matrix not updated -- analytic derivatives used.
 ITU=  0
     Eigenvalues ---    0.01170   0.03489   0.03696   0.04783   0.06588
     Eigenvalues ---    0.10613   0.13686   0.14775   0.16148   0.20246
     Eigenvalues ---    0.25272   0.26876   0.45002   0.62350   0.80510
     Eigenvalues ---    0.83997   1.04485   1.18128
 Angle between quadratic step and forces=  70.67 degrees.
 ClnCor:  largest displacement from symmetrization is 2.43D-11 for atom     8.
 Linear search not attempted -- first point.
 ClnCor:  largest displacement from symmetrization is 2.06D-15 for atom     6.
 TrRot=  0.000131  0.000087  0.000044 -0.000002  0.000004 -0.000002
 Variable       Old X    -DE/DX   Delta X   Delta X   Delta X     New X
                                 (Linear)    (Quad)   (Total)
    X1       -0.90421   0.00015   0.00000   0.00022   0.00035  -0.90386
    Y1        1.47891   0.00022   0.00000   0.00039   0.00048   1.47939
    Z1       -1.59378  -0.00012   0.00000  -0.00018  -0.00014  -1.59392
    X2        1.40986   0.00007   0.00000   0.00010   0.00022   1.41008
    Y2       -0.22581   0.00001   0.00000   0.00016   0.00025  -0.22556
    Z2       -1.70662  -0.00002   0.00000   0.00014   0.00018  -1.70644
    X3       -2.36515  -0.00029   0.00000   0.00000   0.00013  -2.36502
    Y3       -0.18426  -0.00008   0.00000   0.00001   0.00011  -0.18415
    Z3       -0.21171   0.00003   0.00000   0.00001   0.00006  -0.21165
    X4       -0.03217   0.00025   0.00000   0.00039   0.00052  -0.03165
    Y4       -0.94603  -0.00006   0.00000  -0.00009  -0.00000  -0.94604
    Z4        0.67572   0.00014   0.00000   0.00027   0.00031   0.67603
    X5        3.24165  -0.00007   0.00000   0.00002   0.00015   3.24180
    Y5        0.68825  -0.00002   0.00000  -0.00008  -0.00001   0.68824
    Z5       -1.43381   0.00000   0.00000  -0.00010  -0.00007  -1.43388
    X6        1.40764  -0.00004   0.00000  -0.00067  -0.00056   1.40709
    Y6       -1.62847   0.00001   0.00000   0.00006   0.00014  -1.62833
    Z6       -3.20451   0.00002   0.00000   0.00032   0.00036  -3.20414
    X7        0.64712  -0.00004   0.00000  -0.00032  -0.00018   0.64693
    Y7       -1.22173  -0.00001   0.00000  -0.00120  -0.00112  -1.22285
    Z7        2.59662  -0.00005   0.00000   0.00019   0.00023   2.59685
    X8       -1.05624  -0.00003   0.00000  -0.00077  -0.00063  -1.05687
    Y8        3.51492  -0.00006   0.00000   0.00006   0.00015   3.51507
    Z8       -1.83640  -0.00000   0.00000  -0.00099  -0.00095  -1.83735
         Item               Value     Threshold  Converged?
 Maximum Force            0.000293     0.000450     YES
 RMS     Force            0.000109     0.000300     YES
 Maximum Displacement     0.001119     0.001800     YES
 RMS     Displacement     0.000412     0.001200     YES
 Predicted change in Energy=-1.824625D-07
 Optimization completed.
    -- Stationary point found.
 GradGradGradGradGradGradGradGradGradGradGradGradGradGradGradGradGradGrad

 Leave Link  103 at Thu Jan 24 16:05:38 2019, MaxMem=    33554432 cpu:         0.0
 (Enter /apl/tryton/gaussian/09/d01/g09/l9999.exe)
 1\1\ CITASK-GV0918\Freq\UB3LYP\6-311++G(d,p)\C4H4(1+,2)\EERD\24-Jan-20
 19\0\\#p b3lyp/6-311++g(d,p) freq\\min\\1,2\C,-0.478486775,0.782606578
 ,-0.843391738\C,0.7460638675,-0.1194919193,-0.9031043828\C,-1.25158387
 76,-0.0975059294,-0.1120320535\C,-0.0170251523,-0.5006176964,0.3575739
 524\H,1.715405746,0.3642044614,-0.7587398415\H,0.7448924947,-0.8617492
 241,-1.6957515461\H,0.342438628,-0.646513899,1.374072973\H,-0.55893766
 4,1.8600172649,-0.9717819099\\Version=ES64L-G09RevD.01\State=2-A'\HF=-
 154.3879318\S2=0.754348\S2-1=0.\S2A=0.750012\RMSD=6.666e-09\RMSF=1.089
 e-04\ZeroPoint=0.0618312\Thermal=0.0654907\Dipole=0.3617645,0.2859592,
 0.1665405\DipoleDeriv=0.1057547,0.0352384,-0.0254759,0.1383748,0.15770
 73,0.0132517,-0.0531878,-0.1425447,0.2795853,-0.0238503,0.0167196,0.01
 88812,-0.0410399,0.0208517,0.0607064,-0.0428343,0.0385128,0.0364046,0.
 1455463,0.0165229,-0.0782608,0.039248,-0.0275527,0.066684,-0.0539793,0
 .0754159,-0.0027536,0.2248318,-0.0462871,0.058479,-0.1374874,0.2307322
 ,-0.0763799,0.0989444,0.0840027,0.0874833,0.1380497,-0.0155145,-0.0036
 688,0.0216351,0.1267357,-0.0562974,0.0360253,-0.0420229,0.1129003,0.10
 03567,-0.0171706,-0.0040085,-0.0250793,0.1291695,0.0005515,-0.0124589,
 -0.0024874,0.1398017,0.1691437,-0.025668,0.052354,0.0119021,0.1280578,
 0.0276735,0.0309683,-0.0289329,0.2119213,0.1401672,0.0361592,-0.018300
 2,-0.0075532,0.2342986,-0.0361898,-0.0034777,0.0180564,0.134657\Polar=
 40.0595326,-1.323002,32.1787741,-2.2504305,-5.5851994,32.7786711\PG=CS
  [SG(C2H2),X(C2H2)]\NImag=0\\0.30797210,0.02469269,0.71779755,-0.08060
 900,-0.16689762,0.24382632,-0.11567050,0.06490335,0.00600482,0.5755976
 1,0.02701041,-0.12366037,0.00073162,0.07493680,0.41607580,0.03999140,-
 0.01938712,-0.05584549,-0.05552154,0.17780721,0.43403808,-0.15563262,-
 0.11775772,0.10868822,-0.08651140,-0.01661072,0.03355461,0.54990716,-0
 .09961468,-0.21489147,0.10588507,-0.00184322,0.03686771,-0.01012459,0.
 03245560,0.23253749,0.09926252,0.11739824,-0.11098223,0.04933359,-0.00
 445030,0.02329497,-0.03575498,-0.15571783,0.21395699,0.04729427,0.0015
 7291,-0.04979805,-0.09244470,0.01495832,0.01290438,-0.31381948,0.07741
 180,-0.09323225,0.45622230,0.00274417,-0.05613267,0.03507476,-0.014802
 11,-0.04810187,0.01658690,0.08463842,-0.04676372,0.03461810,-0.0878518
 0,0.19733919,-0.05036356,0.03359910,-0.03311279,0.05558049,-0.00040699
 ,-0.15462980,-0.11432207,0.04193674,-0.12092311,0.18381251,-0.12220095
 ,0.61603447,-0.01548988,-0.00912825,0.00063925,-0.25258608,-0.10614302
 ,-0.03538812,-0.00304710,0.00008538,0.00218862,-0.00745562,-0.00049608
 ,0.00016385,0.27536184,0.01736302,0.01175038,0.00173314,-0.10815690,-0
 .10525052,-0.01798505,0.00221032,0.00175170,-0.00155419,-0.00773063,-0
 .00460074,-0.00410736,0.11421950,0.10217216,-0.00160083,-0.00361597,-0
 .00262727,-0.03753994,-0.01875886,-0.05514326,0.00445910,-0.00073770,-
 0.00009019,0.02297961,0.00864099,0.00568959,0.03175411,0.02213321,0.05
 183109,-0.00969896,0.01308813,0.01932011,-0.04023268,-0.01102309,-0.00
 901374,0.00200324,0.00380170,0.00022346,-0.00695284,0.00619583,0.00706
 518,0.00240400,-0.01746908,-0.01912690,0.05265309,0.00590849,-0.013028
 76,-0.01371561,-0.00789289,-0.17835313,-0.15223514,-0.00047320,-0.0031
 0918,0.00539362,-0.00406069,0.01262430,0.01429147,0.00087393,-0.005913
 53,-0.00794025,0.00540615,0.18808508,-0.00036738,0.00777375,0.00863412
 ,-0.00566914,-0.15103239,-0.19223719,-0.00434424,0.00375102,-0.0023097
 0,0.00812225,-0.01389760,-0.01976506,0.00047248,-0.00089210,0.00006871
 ,0.00154515,0.15439727,0.20601983,-0.00693407,0.00288889,0.00248935,0.
 00929066,-0.00174467,0.01464221,-0.00202618,0.00481608,-0.02322585,-0.
 07959553,0.00880540,-0.09207595,0.00012074,0.00053550,-0.00112963,0.00
 036330,-0.00118362,0.00142235,0.07723242,0.00275633,0.01996967,0.00082
 334,-0.00369868,0.00383691,0.00472205,0.01198070,-0.00227859,0.0067306
 1,0.00361733,-0.05360972,0.03241786,0.00036425,-0.00003581,0.00010880,
 0.00007368,-0.00022342,-0.00021345,-0.01429753,0.03187765,0.00270260,0
 .00410256,-0.00185735,-0.00754029,-0.00005277,-0.00573114,0.00335268,-
 0.00290731,0.00318524,-0.09597987,0.03953193,-0.30847474,0.00014938,0.
 00005066,0.00050243,-0.00028029,0.00054051,-0.00058556,0.09792792,-0.0
 4150262,0.31250245,-0.05184035,0.01974000,-0.00673470,0.00255711,0.018
 61599,-0.00116919,0.00912638,-0.01711264,0.00120490,-0.00324841,0.0007
 6618,0.01013955,0.00069211,-0.00097173,0.00020448,-0.00053915,0.001421
 83,-0.00118146,0.00154865,-0.00079609,-0.00033214,0.04170366,0.0191395
 8,-0.34180433,0.03636531,-0.00344634,-0.00141452,0.00061574,0.00355660
 ,-0.00411393,-0.00241825,0.00208277,-0.00075475,0.00447014,0.00022430,
 0.00012636,0.00016979,-0.00007332,-0.00008136,0.00011349,0.00017995,0.
 00046331,0.00023703,-0.02166355,0.34757923,-0.00901575,0.02702705,-0.0
 4803531,-0.00464799,-0.00383753,0.00625383,0.00436667,0.01791462,-0.00
 613197,0.01119142,0.00164587,0.01518142,0.00002044,0.00062169,-0.00023
 111,0.00026704,-0.00073187,0.00017484,-0.00005040,-0.00308659,0.000458
 67,-0.00213143,-0.03955325,0.03232963\\-0.00014870,-0.00021836,0.00012
 358,-0.00007387,-0.00000890,0.00001887,0.00029323,0.00007926,-0.000027
 98,-0.00024933,0.00006146,-0.00013830,0.00006537,0.00002306,-0.0000004
 7,0.00004004,-0.00000841,-0.00002437,0.00004460,0.00001378,0.00004508,
 0.00002866,0.00005811,0.00000359\\\@


 THERE ARE PEOPLE SO ADDICTED TO EXAGERATING THEY
 CAN'T TELL THE TRUTH WITHOUT LYING. -- FORTUNE COOKIE
 Job cpu time:       0 days  0 hours  2 minutes 44.6 seconds.
 File lengths (MBytes):  RWF=     21 Int=      0 D2E=      0 Chk=      2 Scr=      1
 Normal termination of Gaussian 09 at Thu Jan 24 16:05:38 2019.
