 Entering Gaussian System, Link 0=g09
 Initial command:
 /apl/tryton/gaussian/09/d01/g09/l1.exe "/users/work/eerd/M3C-outputs/8/Gau-31588.inp" -scrdir="/users/work/eerd/M3C-outputs/8/"
 Entering Link 1 = /apl/tryton/gaussian/09/d01/g09/l1.exe PID=     31589.
  
 Copyright (c) 1988,1990,1992,1993,1995,1998,2003,2009,2013,
            Gaussian, Inc.  All Rights Reserved.
  
 This is part of the Gaussian(R) 09 program.  It is based on
 the Gaussian(R) 03 system (copyright 2003, Gaussian, Inc.),
 the Gaussian(R) 98 system (copyright 1998, Gaussian, Inc.),
 the Gaussian(R) 94 system (copyright 1995, Gaussian, Inc.),
 the Gaussian 92(TM) system (copyright 1992, Gaussian, Inc.),
 the Gaussian 90(TM) system (copyright 1990, Gaussian, Inc.),
 the Gaussian 88(TM) system (copyright 1988, Gaussian, Inc.),
 the Gaussian 86(TM) system (copyright 1986, Carnegie Mellon
 University), and the Gaussian 82(TM) system (copyright 1983,
 Carnegie Mellon University). Gaussian is a federally registered
 trademark of Gaussian, Inc.
  
 This software contains proprietary and confidential information,
 including trade secrets, belonging to Gaussian, Inc.
  
 This software is provided under written license and may be
 used, copied, transmitted, or stored only in accord with that
 written license.
  
 The following legend is applicable only to US Government
 contracts under FAR:
  
                    RESTRICTED RIGHTS LEGEND
  
 Use, reproduction and disclosure by the US Government is
 subject to restrictions as set forth in subparagraphs (a)
 and (c) of the Commercial Computer Software - Restricted
 Rights clause in FAR 52.227-19.
  
 Gaussian, Inc.
 340 Quinnipiac St., Bldg. 40, Wallingford CT 06492
  
  
 ---------------------------------------------------------------
 Warning -- This program may not be used in any manner that
 competes with the business of Gaussian, Inc. or will provide
 assistance to any competitor of Gaussian, Inc.  The licensee
 of this program is prohibited from giving any competitor of
 Gaussian, Inc. access to this program.  By using this program,
 the user acknowledges that Gaussian, Inc. is engaged in the
 business of creating and licensing software in the field of
 computational chemistry and represents and warrants to the
 licensee that it is not a competitor of Gaussian, Inc. and that
 it will not use this program in any manner prohibited above.
 ---------------------------------------------------------------
  

 Cite this work as:
 Gaussian 09, Revision D.01,
 M. J. Frisch, G. W. Trucks, H. B. Schlegel, G. E. Scuseria, 
 M. A. Robb, J. R. Cheeseman, G. Scalmani, V. Barone, B. Mennucci, 
 G. A. Petersson, H. Nakatsuji, M. Caricato, X. Li, H. P. Hratchian, 
 A. F. Izmaylov, J. Bloino, G. Zheng, J. L. Sonnenberg, M. Hada, 
 M. Ehara, K. Toyota, R. Fukuda, J. Hasegawa, M. Ishida, T. Nakajima, 
 Y. Honda, O. Kitao, H. Nakai, T. Vreven, J. A. Montgomery, Jr., 
 J. E. Peralta, F. Ogliaro, M. Bearpark, J. J. Heyd, E. Brothers, 
 K. N. Kudin, V. N. Staroverov, T. Keith, R. Kobayashi, J. Normand, 
 K. Raghavachari, A. Rendell, J. C. Burant, S. S. Iyengar, J. Tomasi, 
 M. Cossi, N. Rega, J. M. Millam, M. Klene, J. E. Knox, J. B. Cross, 
 V. Bakken, C. Adamo, J. Jaramillo, R. Gomperts, R. E. Stratmann, 
 O. Yazyev, A. J. Austin, R. Cammi, C. Pomelli, J. W. Ochterski, 
 R. L. Martin, K. Morokuma, V. G. Zakrzewski, G. A. Voth, 
 P. Salvador, J. J. Dannenberg, S. Dapprich, A. D. Daniels, 
 O. Farkas, J. B. Foresman, J. V. Ortiz, J. Cioslowski, 
 and D. J. Fox, Gaussian, Inc., Wallingford CT, 2013.
 
 ******************************************
 Gaussian 09:  ES64L-G09RevD.01 24-Apr-2013
                 4-Mar-2018 
 ******************************************
 ---------------------------
 #p b3lyp/6-311++g(d,p) freq
 ---------------------------
 1/10=4,30=1,38=1/1,3;
 2/12=2,17=6,18=5,40=1/2;
 3/5=4,6=6,7=1111,11=2,16=1,25=1,30=1,71=2,74=-5,140=1/1,2,3;
 4//1;
 5/5=2,38=5,98=1/2;
 8/6=4,10=90,11=11/1;
 11/6=1,8=1,9=11,15=111,16=1/1,2,10;
 10/6=1/2;
 6/7=2,8=2,9=2,10=2,18=1,28=1/1;
 7/8=1,10=1,25=1/1,2,3,16;
 1/10=4,30=1/3;
 99//99;
 Leave Link    1 at Sun Mar  4 21:17:16 2018, MaxMem=           0 cpu:         0.0
 (Enter /apl/tryton/gaussian/09/d01/g09/l101.exe)
 ---
 min
 ---
 Symbolic Z-matrix:
 Charge =  0 Multiplicity = 3
 C                    -1.53846  -0.37689   0. 
 H                    -2.16961  -0.22151   0.88186 
 H                    -1.19263  -1.41043   0. 
 H                    -2.16961  -0.22151  -0.88186 
 C                    -0.38516   0.58741   0. 
 H                    -0.60213   1.65427   0. 
 C                     0.92235   0.23829   0. 
 C                     2.02582  -0.4171    0. 
 
 NAtoms=      8 NQM=        8 NQMF=       0 NMMI=      0 NMMIF=      0
                NMic=       0 NMicF=      0.
                    Isotopes and Nuclear Properties:
 (Nuclear quadrupole moments (NQMom) in fm**2, nuclear magnetic moments (NMagM)
  in nuclear magnetons)

  Atom         1           2           3           4           5           6           7           8
 IAtWgt=          12           1           1           1          12           1          12          12
 AtmWgt=  12.0000000   1.0078250   1.0078250   1.0078250  12.0000000   1.0078250  12.0000000  12.0000000
 NucSpn=           0           1           1           1           0           1           0           0
 AtZEff=   0.0000000   0.0000000   0.0000000   0.0000000   0.0000000   0.0000000   0.0000000   0.0000000
 NQMom=    0.0000000   0.0000000   0.0000000   0.0000000   0.0000000   0.0000000   0.0000000   0.0000000
 NMagM=    0.0000000   2.7928460   2.7928460   2.7928460   0.0000000   2.7928460   0.0000000   0.0000000
 AtZNuc=   6.0000000   1.0000000   1.0000000   1.0000000   6.0000000   1.0000000   6.0000000   6.0000000
 Leave Link  101 at Sun Mar  4 21:17:16 2018, MaxMem=    33554432 cpu:         0.1
 (Enter /apl/tryton/gaussian/09/d01/g09/l103.exe)

 GradGradGradGradGradGradGradGradGradGradGradGradGradGradGradGradGradGrad
 Berny optimization.
 Initialization pass.
 Trust Radius=3.00D-01 FncErr=1.00D-07 GrdErr=1.00D-07
 Number of steps in this run=      2 maximum allowed number of steps=      2.
 GradGradGradGradGradGradGradGradGradGradGradGradGradGradGradGradGradGrad

 Leave Link  103 at Sun Mar  4 21:17:17 2018, MaxMem=    33554432 cpu:         0.0
 (Enter /apl/tryton/gaussian/09/d01/g09/l202.exe)
                          Input orientation:                          
 ---------------------------------------------------------------------
 Center     Atomic      Atomic             Coordinates (Angstroms)
 Number     Number       Type             X           Y           Z
 ---------------------------------------------------------------------
      1          6           0       -1.538461   -0.376889    0.000000
      2          1           0       -2.169614   -0.221511    0.881864
      3          1           0       -1.192626   -1.410431    0.000000
      4          1           0       -2.169614   -0.221511   -0.881864
      5          6           0       -0.385157    0.587406    0.000000
      6          1           0       -0.602132    1.654268    0.000000
      7          6           0        0.922350    0.238289    0.000000
      8          6           0        2.025819   -0.417103    0.000000
 ---------------------------------------------------------------------
                    Distance matrix (angstroms):
                    1          2          3          4          5
     1  C    0.000000
     2  H    1.095528   0.000000
     3  H    1.089867   1.773618   0.000000
     4  H    1.095528   1.763728   1.773618   0.000000
     5  C    1.503321   2.148562   2.154845   2.148562   0.000000
     6  H    2.236585   2.598698   3.121068   2.598698   1.088702
     7  C    2.536540   3.247975   2.681679   3.247975   1.353313
     8  C    3.564507   4.291573   3.368247   4.291573   2.611866
                    6          7          8
     6  H    0.000000
     7  C    2.080635   0.000000
     8  C    3.346148   1.283426   0.000000
 Stoichiometry    C4H4(3)
 Framework group  CS[SG(C4H2),X(H2)]
 Deg. of freedom    12
 Full point group                 CS      NOp   2
 Largest Abelian subgroup         CS      NOp   2
 Largest concise Abelian subgroup CS      NOp   2
                         Standard orientation:                         
 ---------------------------------------------------------------------
 Center     Atomic      Atomic             Coordinates (Angstroms)
 Number     Number       Type             X           Y           Z
 ---------------------------------------------------------------------
      1          6           0       -1.493271    0.529407    0.000000
      2          1           0       -1.935732    1.005563    0.881864
      3          1           0       -1.771117   -0.524449    0.000000
      4          1           0       -1.935732    1.005563   -0.881864
      5          6           0        0.000000    0.702947    0.000000
      6          1           0        0.403864    1.713970    0.000000
      7          6           0        0.901668   -0.306236    0.000000
      8          6           0        1.464722   -1.459559    0.000000
 ---------------------------------------------------------------------
 Rotational constants (GHZ):     33.6635798      4.9641741      4.4455182
 Leave Link  202 at Sun Mar  4 21:17:17 2018, MaxMem=    33554432 cpu:         0.0
 (Enter /apl/tryton/gaussian/09/d01/g09/l301.exe)
 Standard basis: 6-311++G(d,p) (5D, 7F)
 Ernie: Thresh=  0.10000D-02 Tol=  0.10000D-05 Strict=F.
 There are    87 symmetry adapted cartesian basis functions of A'  symmetry.
 There are    33 symmetry adapted cartesian basis functions of A"  symmetry.
 There are    83 symmetry adapted basis functions of A'  symmetry.
 There are    33 symmetry adapted basis functions of A"  symmetry.
   116 basis functions,   180 primitive gaussians,   120 cartesian basis functions
    15 alpha electrons       13 beta electrons
       nuclear repulsion energy        88.7255136762 Hartrees.
 IExCor=  402 DFT=T Ex+Corr=B3LYP ExCW=0 ScaHFX=  0.200000
 ScaDFX=  0.800000  0.720000  1.000000  0.810000 ScalE2=  1.000000  1.000000
 IRadAn=      0 IRanWt=     -1 IRanGd=            0 ICorTp=0 IEmpDi=  4
 NAtoms=    8 NActive=    8 NUniq=    7 SFac= 1.31D+00 NAtFMM=   60 NAOKFM=F Big=F
 Integral buffers will be    131072 words long.
 Raffenetti 2 integral format.
 Two-electron integral symmetry is turned on.
 Leave Link  301 at Sun Mar  4 21:17:17 2018, MaxMem=    33554432 cpu:         0.0
 (Enter /apl/tryton/gaussian/09/d01/g09/l302.exe)
 NPDir=0 NMtPBC=     1 NCelOv=     1 NCel=       1 NClECP=     1 NCelD=      1
         NCelK=      1 NCelE2=     1 NClLst=     1 CellRange=     0.0.
 One-electron integrals computed using PRISM.
 One-electron integral symmetry used in STVInt
 NBasis=   116 RedAO= T EigKep=  5.83D-06  NBF=    83    33
 NBsUse=   116 1.00D-06 EigRej= -1.00D+00 NBFU=    83    33
 Precomputing XC quadrature grid using
 IXCGrd= 4 IRadAn=           0 IRanWt=          -1 IRanGd=           0 AccXCQ= 0.00D+00.
 Generated NRdTot=       0 NPtTot=           0 NUsed=           0 NTot=          32
 NSgBfM=   120   120   120   120   120 MxSgAt=     8 MxSgA2=     8.
 Leave Link  302 at Sun Mar  4 21:17:17 2018, MaxMem=    33554432 cpu:         0.2
 (Enter /apl/tryton/gaussian/09/d01/g09/l303.exe)
 DipDrv:  MaxL=1.
 Leave Link  303 at Sun Mar  4 21:17:17 2018, MaxMem=    33554432 cpu:         0.0
 (Enter /apl/tryton/gaussian/09/d01/g09/l401.exe)
 ExpMin= 3.60D-02 ExpMax= 4.56D+03 ExpMxC= 6.82D+02 IAcc=3 IRadAn=         5 AccDes= 0.00D+00
 Harris functional with IExCor=  402 and IRadAn=       5 diagonalized for initial guess.
 HarFok:  IExCor=  402 AccDes= 0.00D+00 IRadAn=         5 IDoV= 1 UseB2=F ITyADJ=14
 ICtDFT=  3500011 ScaDFX=  1.000000  1.000000  1.000000  1.000000
 FoFCou: FMM=F IPFlag=           0 FMFlag=      100000 FMFlg1=           0
         NFxFlg=           0 DoJE=T BraDBF=F KetDBF=T FulRan=T
         wScrn=  0.000000 ICntrl=     500 IOpCl=  0 I1Cent=   200000004 NGrid=           0
         NMat0=    1 NMatS0=      1 NMatT0=    0 NMatD0=    1 NMtDS0=    0 NMtDT0=    0
 Petite list used in FoFCou.
 Harris En= -154.640486355073    
 JPrj=0 DoOrth=F DoCkMO=F.
 Initial guess orbital symmetries:
 Alpha Orbitals:
       Occupied  (A') (A') (A') (A') (A') (A') (A') (A') (A') (A")
                 (A') (A") (A') (A') (A")
       Virtual   (A') (A') (A") (A') (A") (A') (A') (A') (A') (A")
                 (A') (A") (A') (A') (A") (A') (A') (A") (A') (A')
                 (A") (A') (A') (A') (A') (A') (A') (A') (A') (A")
                 (A') (A') (A") (A') (A') (A") (A') (A") (A') (A')
                 (A") (A') (A') (A') (A') (A') (A') (A") (A') (A')
                 (A") (A') (A") (A') (A') (A") (A") (A') (A") (A')
                 (A") (A') (A") (A') (A') (A") (A') (A') (A") (A')
                 (A') (A') (A") (A') (A") (A') (A') (A") (A') (A")
                 (A') (A') (A") (A') (A') (A') (A") (A') (A") (A')
                 (A') (A') (A') (A") (A') (A') (A') (A') (A') (A')
                 (A')
 Beta  Orbitals:
       Occupied  (A') (A') (A') (A') (A') (A') (A') (A') (A') (A")
                 (A') (A") (A')
       Virtual   (A') (A") (A') (A') (A") (A') (A") (A') (A') (A')
                 (A') (A") (A') (A") (A') (A') (A") (A') (A') (A")
                 (A') (A') (A") (A') (A') (A') (A') (A') (A') (A')
                 (A') (A") (A') (A') (A") (A') (A') (A") (A') (A")
                 (A') (A') (A") (A') (A') (A') (A') (A') (A') (A")
                 (A') (A') (A") (A') (A") (A') (A') (A") (A") (A')
                 (A") (A') (A") (A') (A") (A') (A') (A") (A') (A')
                 (A") (A') (A') (A') (A") (A') (A") (A') (A') (A")
                 (A') (A") (A') (A') (A") (A') (A') (A') (A") (A')
                 (A") (A') (A') (A') (A') (A") (A') (A') (A') (A')
                 (A') (A') (A')
 The electronic state of the initial guess is 3-A".
 Initial guess <Sx>= 0.0000 <Sy>= 0.0000 <Sz>= 1.0000 <S**2>= 2.0000 S= 1.0000
 Leave Link  401 at Sun Mar  4 21:17:18 2018, MaxMem=    33554432 cpu:         1.2
 (Enter /apl/tryton/gaussian/09/d01/g09/l502.exe)
 UHF open shell SCF:
 Using DIIS extrapolation, IDIIS=  1040.
 Integral symmetry usage will be decided dynamically.
 IVT=       63530 IEndB=       63530 NGot=    33554432 MDV=    33522063
 LenX=    33522063 LenY=    33507222
 Requested convergence on RMS density matrix=1.00D-08 within 128 cycles.
 Requested convergence on MAX density matrix=1.00D-06.
 Requested convergence on             energy=1.00D-06.
 No special actions if energy rises.
 Fock matrices will be formed incrementally for  20 cycles.

 Cycle   1  Pass 1  IDiag  1:
 FoFJK:  IHMeth= 1 ICntrl=       0 DoSepK=F KAlg= 0 I1Cent=   0 FoldK=F
 IRaf= 990000000 NMat=   1 IRICut=       1 DoRegI=T DoRafI=F ISym2E= 1.
 FoFCou: FMM=F IPFlag=           0 FMFlag=      100000 FMFlg1=           0
         NFxFlg=           0 DoJE=F BraDBF=F KetDBF=F FulRan=T
         wScrn=  0.000000 ICntrl=       0 IOpCl=  1 I1Cent=           0 NGrid=           0
         NMat0=    1 NMatS0=      1 NMatT0=    0 NMatD0=    1 NMtDS0=    0 NMtDT0=    0
 Petite list used in FoFCou.
 E= -154.547616869132    
 DIIS: error= 3.79D-02 at cycle   1 NSaved=   1.
 NSaved= 1 IEnMin= 1 EnMin= -154.547616869132     IErMin= 1 ErrMin= 3.79D-02
 ErrMax= 3.79D-02  0.00D+00 EMaxC= 1.00D-01 BMatC= 4.06D-01 BMatP= 4.06D-01
 IDIUse=3 WtCom= 6.21D-01 WtEn= 3.79D-01
 Coeff-Com:  0.100D+01
 Coeff-En:   0.100D+01
 Coeff:      0.100D+01
 Gap=     0.176 Goal=   None    Shift=    0.000
 Gap=     0.100 Goal=   None    Shift=    0.000
 GapD=    0.100 DampG=0.500 DampE=0.500 DampFc=0.2500 IDamp=-1.
 Damping current iteration by 2.50D-01
 RMSDP=9.51D-03 MaxDP=3.02D-01              OVMax= 1.67D-01

 Cycle   2  Pass 1  IDiag  1:
 RMSU=  2.32D-03    CP:  9.79D-01
 E= -154.583345644271     Delta-E=       -0.035728775139 Rises=F Damp=T
 DIIS: error= 1.84D-02 at cycle   2 NSaved=   2.
 NSaved= 2 IEnMin= 2 EnMin= -154.583345644271     IErMin= 2 ErrMin= 1.84D-02
 ErrMax= 1.84D-02  0.00D+00 EMaxC= 1.00D-01 BMatC= 1.13D-01 BMatP= 4.06D-01
 IDIUse=3 WtCom= 8.16D-01 WtEn= 1.84D-01
 Coeff-Com: -0.885D+00 0.188D+01
 Coeff-En:   0.000D+00 0.100D+01
 Coeff:     -0.722D+00 0.172D+01
 Gap=     0.190 Goal=   None    Shift=    0.000
 Gap=     0.084 Goal=   None    Shift=    0.000
 RMSDP=6.08D-03 MaxDP=1.96D-01 DE=-3.57D-02 OVMax= 1.90D-01

 Cycle   3  Pass 1  IDiag  1:
 RMSU=  3.96D-03    CP:  9.46D-01  2.96D+00
 E= -154.637450657052     Delta-E=       -0.054105012781 Rises=F Damp=F
 DIIS: error= 1.55D-02 at cycle   3 NSaved=   3.
 NSaved= 3 IEnMin= 3 EnMin= -154.637450657052     IErMin= 3 ErrMin= 1.55D-02
 ErrMax= 1.55D-02  0.00D+00 EMaxC= 1.00D-01 BMatC= 4.12D-02 BMatP= 1.13D-01
 IDIUse=3 WtCom= 8.45D-01 WtEn= 1.55D-01
 Coeff-Com: -0.541D+00 0.109D+01 0.454D+00
 Coeff-En:   0.000D+00 0.000D+00 0.100D+01
 Coeff:     -0.457D+00 0.918D+00 0.539D+00
 Gap=     0.201 Goal=   None    Shift=    0.000
 Gap=     0.096 Goal=   None    Shift=    0.000
 RMSDP=2.77D-03 MaxDP=1.00D-01 DE=-5.41D-02 OVMax= 1.08D-01

 Cycle   4  Pass 1  IDiag  1:
 RMSU=  1.52D-03    CP:  9.44D-01  2.30D+00  5.63D-01
 E= -154.644109646774     Delta-E=       -0.006658989722 Rises=F Damp=F
 DIIS: error= 9.89D-03 at cycle   4 NSaved=   4.
 NSaved= 4 IEnMin= 4 EnMin= -154.644109646774     IErMin= 4 ErrMin= 9.89D-03
 ErrMax= 9.89D-03  0.00D+00 EMaxC= 1.00D-01 BMatC= 2.21D-02 BMatP= 4.12D-02
 IDIUse=3 WtCom= 9.01D-01 WtEn= 9.89D-02
 Coeff-Com: -0.110D+00 0.217D+00 0.406D+00 0.487D+00
 Coeff-En:   0.000D+00 0.000D+00 0.369D+00 0.631D+00
 Coeff:     -0.993D-01 0.195D+00 0.403D+00 0.501D+00
 Gap=     0.191 Goal=   None    Shift=    0.000
 Gap=     0.092 Goal=   None    Shift=    0.000
 RMSDP=1.06D-03 MaxDP=3.42D-02 DE=-6.66D-03 OVMax= 6.52D-02

 Cycle   5  Pass 1  IDiag  1:
 RMSU=  4.85D-04    CP:  9.40D-01  2.51D+00  7.47D-01  7.83D-01
 E= -154.650561634530     Delta-E=       -0.006451987756 Rises=F Damp=F
 DIIS: error= 1.59D-03 at cycle   5 NSaved=   5.
 NSaved= 5 IEnMin= 5 EnMin= -154.650561634530     IErMin= 5 ErrMin= 1.59D-03
 ErrMax= 1.59D-03  0.00D+00 EMaxC= 1.00D-01 BMatC= 8.50D-04 BMatP= 2.21D-02
 IDIUse=3 WtCom= 9.84D-01 WtEn= 1.59D-02
 Coeff-Com:  0.761D-02-0.198D-01 0.148D+00 0.256D+00 0.608D+00
 Coeff-En:   0.000D+00 0.000D+00 0.000D+00 0.000D+00 0.100D+01
 Coeff:      0.749D-02-0.195D-01 0.146D+00 0.252D+00 0.614D+00
 Gap=     0.193 Goal=   None    Shift=    0.000
 Gap=     0.095 Goal=   None    Shift=    0.000
 RMSDP=2.72D-04 MaxDP=6.54D-03 DE=-6.45D-03 OVMax= 1.10D-02

 Cycle   6  Pass 1  IDiag  1:
 RMSU=  2.65D-04    CP:  9.38D-01  2.51D+00  7.37D-01  7.99D-01  9.93D-01
 E= -154.650857053434     Delta-E=       -0.000295418904 Rises=F Damp=F
 DIIS: error= 6.93D-04 at cycle   6 NSaved=   6.
 NSaved= 6 IEnMin= 6 EnMin= -154.650857053434     IErMin= 6 ErrMin= 6.93D-04
 ErrMax= 6.93D-04  0.00D+00 EMaxC= 1.00D-01 BMatC= 1.29D-04 BMatP= 8.50D-04
 IDIUse=3 WtCom= 9.93D-01 WtEn= 6.93D-03
 Coeff-Com:  0.163D-01-0.364D-01-0.261D-01 0.912D-02 0.246D+00 0.791D+00
 Coeff-En:   0.000D+00 0.000D+00 0.000D+00 0.000D+00 0.000D+00 0.100D+01
 Coeff:      0.162D-01-0.362D-01-0.259D-01 0.906D-02 0.244D+00 0.793D+00
 Gap=     0.193 Goal=   None    Shift=    0.000
 Gap=     0.096 Goal=   None    Shift=    0.000
 RMSDP=2.14D-04 MaxDP=6.96D-03 DE=-2.95D-04 OVMax= 2.10D-02

 Cycle   7  Pass 1  IDiag  1:
 RMSU=  1.39D-04    CP:  9.38D-01  2.51D+00  7.47D-01  8.52D-01  1.25D+00
                    CP:  1.21D+00
 E= -154.650983829344     Delta-E=       -0.000126775910 Rises=F Damp=F
 DIIS: error= 5.04D-04 at cycle   7 NSaved=   7.
 NSaved= 7 IEnMin= 7 EnMin= -154.650983829344     IErMin= 7 ErrMin= 5.04D-04
 ErrMax= 5.04D-04  0.00D+00 EMaxC= 1.00D-01 BMatC= 8.35D-05 BMatP= 1.29D-04
 IDIUse=3 WtCom= 9.95D-01 WtEn= 5.04D-03
 Coeff-Com: -0.400D-02 0.489D-02-0.537D-01-0.504D-01-0.104D+00 0.412D+00
 Coeff-Com:  0.795D+00
 Coeff-En:   0.000D+00 0.000D+00 0.000D+00 0.000D+00 0.000D+00 0.000D+00
 Coeff-En:   0.100D+01
 Coeff:     -0.398D-02 0.487D-02-0.534D-01-0.501D-01-0.103D+00 0.410D+00
 Coeff:      0.796D+00
 Gap=     0.194 Goal=   None    Shift=    0.000
 Gap=     0.097 Goal=   None    Shift=    0.000
 RMSDP=1.81D-04 MaxDP=6.54D-03 DE=-1.27D-04 OVMax= 1.73D-02

 Cycle   8  Pass 1  IDiag  1:
 RMSU=  7.05D-05    CP:  9.38D-01  2.48D+00  7.41D-01  8.84D-01  1.42D+00
                    CP:  1.53D+00  1.57D+00
 E= -154.651067691527     Delta-E=       -0.000083862183 Rises=F Damp=F
 DIIS: error= 3.89D-04 at cycle   8 NSaved=   8.
 NSaved= 8 IEnMin= 8 EnMin= -154.651067691527     IErMin= 8 ErrMin= 3.89D-04
 ErrMax= 3.89D-04  0.00D+00 EMaxC= 1.00D-01 BMatC= 4.23D-05 BMatP= 8.35D-05
 IDIUse=3 WtCom= 9.96D-01 WtEn= 3.89D-03
 Coeff-Com: -0.108D-01 0.190D-01-0.219D-01-0.139D-01-0.159D+00 0.469D-01
 Coeff-Com:  0.110D+00 0.103D+01
 Coeff-En:   0.000D+00 0.000D+00 0.000D+00 0.000D+00 0.000D+00 0.000D+00
 Coeff-En:   0.000D+00 0.100D+01
 Coeff:     -0.108D-01 0.189D-01-0.218D-01-0.138D-01-0.159D+00 0.467D-01
 Coeff:      0.109D+00 0.103D+01
 Gap=     0.195 Goal=   None    Shift=    0.000
 Gap=     0.097 Goal=   None    Shift=    0.000
 RMSDP=1.79D-04 MaxDP=6.67D-03 DE=-8.39D-05 OVMax= 1.89D-02

 Cycle   9  Pass 1  IDiag  1:
 RMSU=  4.33D-05    CP:  9.37D-01  2.46D+00  7.29D-01  8.97D-01  1.57D+00
                    CP:  1.81D+00  2.16D+00  2.28D+00
 E= -154.651133941436     Delta-E=       -0.000066249909 Rises=F Damp=F
 DIIS: error= 3.11D-04 at cycle   9 NSaved=   9.
 NSaved= 9 IEnMin= 9 EnMin= -154.651133941436     IErMin= 9 ErrMin= 3.11D-04
 ErrMax= 3.11D-04  0.00D+00 EMaxC= 1.00D-01 BMatC= 2.62D-05 BMatP= 4.23D-05
 IDIUse=3 WtCom= 9.97D-01 WtEn= 3.11D-03
 Coeff-Com: -0.317D-02 0.505D-02 0.263D-01 0.486D-01 0.493D-01-0.585D-01
 Coeff-Com: -0.807D+00-0.280D+00 0.202D+01
 Coeff-En:   0.000D+00 0.000D+00 0.000D+00 0.000D+00 0.000D+00 0.000D+00
 Coeff-En:   0.000D+00 0.000D+00 0.100D+01
 Coeff:     -0.316D-02 0.504D-02 0.263D-01 0.485D-01 0.491D-01-0.583D-01
 Coeff:     -0.805D+00-0.279D+00 0.202D+01
 Gap=     0.195 Goal=   None    Shift=    0.000
 Gap=     0.097 Goal=   None    Shift=    0.000
 RMSDP=3.46D-04 MaxDP=1.17D-02 DE=-6.62D-05 OVMax= 3.37D-02

 Cycle  10  Pass 1  IDiag  1:
 RMSU=  1.67D-04    CP:  9.36D-01  2.41D+00  7.04D-01  9.22D-01  1.76D+00
                    CP:  2.14D+00  3.00D+00  3.00D+00  3.00D+00
 E= -154.651215719746     Delta-E=       -0.000081778310 Rises=F Damp=F
 DIIS: error= 1.43D-04 at cycle  10 NSaved=  10.
 NSaved=10 IEnMin=10 EnMin= -154.651215719746     IErMin=10 ErrMin= 1.43D-04
 ErrMax= 1.43D-04  0.00D+00 EMaxC= 1.00D-01 BMatC= 4.94D-06 BMatP= 2.62D-05
 IDIUse=3 WtCom= 9.99D-01 WtEn= 1.43D-03
 Coeff-Com:  0.295D-02-0.513D-02 0.862D-02 0.111D-01 0.777D-01 0.463D-01
 Coeff-Com: -0.149D+00-0.574D+00 0.345D-01 0.155D+01
 Coeff-En:   0.000D+00 0.000D+00 0.000D+00 0.000D+00 0.000D+00 0.000D+00
 Coeff-En:   0.000D+00 0.000D+00 0.000D+00 0.100D+01
 Coeff:      0.295D-02-0.512D-02 0.861D-02 0.111D-01 0.776D-01 0.463D-01
 Coeff:     -0.149D+00-0.573D+00 0.344D-01 0.155D+01
 Gap=     0.196 Goal=   None    Shift=    0.000
 Gap=     0.097 Goal=   None    Shift=    0.000
 RMSDP=2.87D-04 MaxDP=9.39D-03 DE=-8.18D-05 OVMax= 2.75D-02

 Cycle  11  Pass 1  IDiag  1:
 RMSU=  1.17D-04    CP:  9.34D-01  2.38D+00  6.83D-01  9.27D-01  1.88D+00
                    CP:  2.30D+00  3.00D+00  3.00D+00  3.00D+00  2.31D+00
 E= -154.651246990298     Delta-E=       -0.000031270552 Rises=F Damp=F
 DIIS: error= 7.41D-05 at cycle  11 NSaved=  11.
 NSaved=11 IEnMin=11 EnMin= -154.651246990298     IErMin=11 ErrMin= 7.41D-05
 ErrMax= 7.41D-05  0.00D+00 EMaxC= 1.00D-01 BMatC= 1.06D-06 BMatP= 4.94D-06
 IDIUse=1 WtCom= 1.00D+00 WtEn= 0.00D+00
 Coeff-Com:  0.292D-03-0.418D-03-0.578D-02-0.824D-02-0.470D-02 0.334D-01
 Coeff-Com:  0.166D+00-0.234D-03-0.499D+00 0.194D+00 0.113D+01
 Coeff:      0.292D-03-0.418D-03-0.578D-02-0.824D-02-0.470D-02 0.334D-01
 Coeff:      0.166D+00-0.234D-03-0.499D+00 0.194D+00 0.113D+01
 Gap=     0.196 Goal=   None    Shift=    0.000
 Gap=     0.097 Goal=   None    Shift=    0.000
 RMSDP=1.04D-04 MaxDP=3.29D-03 DE=-3.13D-05 OVMax= 8.82D-03

 Cycle  12  Pass 1  IDiag  1:
 RMSU=  2.04D-05    CP:  9.34D-01  2.36D+00  6.74D-01  9.24D-01  1.89D+00
                    CP:  2.33D+00  3.00D+00  3.00D+00  3.00D+00  2.78D+00
                    CP:  1.32D+00
 E= -154.651251330712     Delta-E=       -0.000004340413 Rises=F Damp=F
 DIIS: error= 3.06D-05 at cycle  12 NSaved=  12.
 NSaved=12 IEnMin=12 EnMin= -154.651251330712     IErMin=12 ErrMin= 3.06D-05
 ErrMax= 3.06D-05  0.00D+00 EMaxC= 1.00D-01 BMatC= 2.18D-07 BMatP= 1.06D-06
 IDIUse=1 WtCom= 1.00D+00 WtEn= 0.00D+00
 Coeff-Com: -0.891D-03 0.148D-02-0.662D-03 0.914D-04-0.170D-01-0.167D-01
 Coeff-Com: -0.109D-01 0.112D+00 0.717D-01-0.395D+00-0.178D+00 0.143D+01
 Coeff:     -0.891D-03 0.148D-02-0.662D-03 0.914D-04-0.170D-01-0.167D-01
 Coeff:     -0.109D-01 0.112D+00 0.717D-01-0.395D+00-0.178D+00 0.143D+01
 Gap=     0.196 Goal=   None    Shift=    0.000
 Gap=     0.097 Goal=   None    Shift=    0.000
 RMSDP=7.20D-05 MaxDP=2.21D-03 DE=-4.34D-06 OVMax= 6.27D-03

 Cycle  13  Pass 1  IDiag  1:
 RMSU=  2.05D-05    CP:  9.34D-01  2.35D+00  6.68D-01  9.23D-01  1.91D+00
                    CP:  2.35D+00  3.00D+00  3.00D+00  3.00D+00  3.00D+00
                    CP:  1.56D+00  1.38D+00
 E= -154.651252355427     Delta-E=       -0.000001024715 Rises=F Damp=F
 DIIS: error= 6.36D-06 at cycle  13 NSaved=  13.
 NSaved=13 IEnMin=13 EnMin= -154.651252355427     IErMin=13 ErrMin= 6.36D-06
 ErrMax= 6.36D-06  0.00D+00 EMaxC= 1.00D-01 BMatC= 2.06D-08 BMatP= 2.18D-07
 IDIUse=1 WtCom= 1.00D+00 WtEn= 0.00D+00
 Coeff-Com: -0.272D-04 0.559D-04 0.100D-02 0.123D-02 0.557D-03-0.439D-02
 Coeff-Com: -0.250D-01 0.745D-03 0.952D-01-0.257D-01-0.187D+00-0.737D-01
 Coeff-Com:  0.122D+01
 Coeff:     -0.272D-04 0.559D-04 0.100D-02 0.123D-02 0.557D-03-0.439D-02
 Coeff:     -0.250D-01 0.745D-03 0.952D-01-0.257D-01-0.187D+00-0.737D-01
 Coeff:      0.122D+01
 Gap=     0.196 Goal=   None    Shift=    0.000
 Gap=     0.097 Goal=   None    Shift=    0.000
 RMSDP=7.17D-06 MaxDP=2.50D-04 DE=-1.02D-06 OVMax= 2.35D-04

 Cycle  14  Pass 1  IDiag  1:
 RMSU=  2.20D-06    CP:  9.34D-01  2.35D+00  6.68D-01  9.22D-01  1.91D+00
                    CP:  2.34D+00  3.00D+00  3.00D+00  3.00D+00  3.00D+00
                    CP:  1.57D+00  1.56D+00  1.15D+00
 E= -154.651252381072     Delta-E=       -0.000000025645 Rises=F Damp=F
 DIIS: error= 1.85D-06 at cycle  14 NSaved=  14.
 NSaved=14 IEnMin=14 EnMin= -154.651252381072     IErMin=14 ErrMin= 1.85D-06
 ErrMax= 1.85D-06  0.00D+00 EMaxC= 1.00D-01 BMatC= 1.17D-09 BMatP= 2.06D-08
 IDIUse=1 WtCom= 1.00D+00 WtEn= 0.00D+00
 Coeff-Com:  0.735D-04-0.112D-03 0.147D-03 0.489D-04 0.102D-02 0.234D-03
 Coeff-Com: -0.124D-02-0.742D-02 0.105D-02 0.213D-01 0.154D-01-0.104D+00
 Coeff-Com:  0.158D+00 0.916D+00
 Coeff:      0.735D-04-0.112D-03 0.147D-03 0.489D-04 0.102D-02 0.234D-03
 Coeff:     -0.124D-02-0.742D-02 0.105D-02 0.213D-01 0.154D-01-0.104D+00
 Coeff:      0.158D+00 0.916D+00
 Gap=     0.196 Goal=   None    Shift=    0.000
 Gap=     0.097 Goal=   None    Shift=    0.000
 RMSDP=1.73D-06 MaxDP=5.28D-05 DE=-2.56D-08 OVMax= 7.62D-05

 Cycle  15  Pass 1  IDiag  1:
 RMSU=  5.59D-07    CP:  9.34D-01  2.35D+00  6.68D-01  9.22D-01  1.91D+00
                    CP:  2.34D+00  3.00D+00  3.00D+00  3.00D+00  3.00D+00
                    CP:  1.57D+00  1.52D+00  1.18D+00  1.03D+00
 E= -154.651252381715     Delta-E=       -0.000000000643 Rises=F Damp=F
 DIIS: error= 4.37D-07 at cycle  15 NSaved=  15.
 NSaved=15 IEnMin=15 EnMin= -154.651252381715     IErMin=15 ErrMin= 4.37D-07
 ErrMax= 4.37D-07  0.00D+00 EMaxC= 1.00D-01 BMatC= 9.77D-11 BMatP= 1.17D-09
 IDIUse=1 WtCom= 1.00D+00 WtEn= 0.00D+00
 Coeff-Com: -0.258D-05 0.327D-05-0.103D-03-0.119D-03-0.136D-03 0.390D-03
 Coeff-Com:  0.270D-02 0.633D-03-0.866D-02 0.125D-02 0.169D-01-0.238D-02
 Coeff-Com: -0.965D-01 0.134D+00 0.952D+00
 Coeff:     -0.258D-05 0.327D-05-0.103D-03-0.119D-03-0.136D-03 0.390D-03
 Coeff:      0.270D-02 0.633D-03-0.866D-02 0.125D-02 0.169D-01-0.238D-02
 Coeff:     -0.965D-01 0.134D+00 0.952D+00
 Gap=     0.196 Goal=   None    Shift=    0.000
 Gap=     0.097 Goal=   None    Shift=    0.000
 RMSDP=3.35D-07 MaxDP=1.25D-05 DE=-6.43D-10 OVMax= 1.18D-05

 Cycle  16  Pass 1  IDiag  1:
 RMSU=  9.89D-08    CP:  9.34D-01  2.35D+00  6.68D-01  9.22D-01  1.91D+00
                    CP:  2.34D+00  3.00D+00  3.00D+00  3.00D+00  3.00D+00
                    CP:  1.57D+00  1.53D+00  1.19D+00  1.07D+00  1.02D+00
 E= -154.651252381790     Delta-E=       -0.000000000075 Rises=F Damp=F
 DIIS: error= 1.43D-07 at cycle  16 NSaved=  16.
 NSaved=16 IEnMin=16 EnMin= -154.651252381790     IErMin=16 ErrMin= 1.43D-07
 ErrMax= 1.43D-07  0.00D+00 EMaxC= 1.00D-01 BMatC= 4.29D-12 BMatP= 9.77D-11
 IDIUse=1 WtCom= 1.00D+00 WtEn= 0.00D+00
 Coeff-Com: -0.460D-05 0.671D-05-0.103D-04-0.495D-05-0.461D-04-0.521D-04
 Coeff-Com:  0.212D-03 0.283D-03-0.148D-03-0.129D-02-0.101D-02 0.611D-02
 Coeff-Com: -0.123D-01-0.257D-01 0.269D-01 0.101D+01
 Coeff:     -0.460D-05 0.671D-05-0.103D-04-0.495D-05-0.461D-04-0.521D-04
 Coeff:      0.212D-03 0.283D-03-0.148D-03-0.129D-02-0.101D-02 0.611D-02
 Coeff:     -0.123D-01-0.257D-01 0.269D-01 0.101D+01
 Gap=     0.196 Goal=   None    Shift=    0.000
 Gap=     0.097 Goal=   None    Shift=    0.000
 RMSDP=1.38D-07 MaxDP=4.50D-06 DE=-7.47D-11 OVMax= 9.02D-06

 Cycle  17  Pass 1  IDiag  1:
 RMSU=  3.12D-08    CP:  9.34D-01  2.35D+00  6.68D-01  9.22D-01  1.91D+00
                    CP:  2.34D+00  3.00D+00  3.00D+00  3.00D+00  3.00D+00
                    CP:  1.57D+00  1.53D+00  1.19D+00  1.06D+00  9.80D-01
                    CP:  1.16D+00
 E= -154.651252381793     Delta-E=       -0.000000000003 Rises=F Damp=F
 DIIS: error= 6.32D-08 at cycle  17 NSaved=  17.
 NSaved=17 IEnMin=17 EnMin= -154.651252381793     IErMin=17 ErrMin= 6.32D-08
 ErrMax= 6.32D-08  0.00D+00 EMaxC= 1.00D-01 BMatC= 8.63D-13 BMatP= 4.29D-12
 IDIUse=1 WtCom= 1.00D+00 WtEn= 0.00D+00
 Coeff-Com:  0.586D-06-0.660D-06 0.400D-05 0.208D-05 0.101D-04-0.170D-04
 Coeff-Com: -0.591D-04-0.598D-04 0.307D-03 0.932D-05-0.412D-03 0.554D-04
 Coeff-Com:  0.246D-02-0.732D-02-0.457D-01 0.526D-01 0.998D+00
 Coeff:      0.586D-06-0.660D-06 0.400D-05 0.208D-05 0.101D-04-0.170D-04
 Coeff:     -0.591D-04-0.598D-04 0.307D-03 0.932D-05-0.412D-03 0.554D-04
 Coeff:      0.246D-02-0.732D-02-0.457D-01 0.526D-01 0.998D+00
 Gap=     0.196 Goal=   None    Shift=    0.000
 Gap=     0.097 Goal=   None    Shift=    0.000
 RMSDP=5.99D-08 MaxDP=1.79D-06 DE=-3.35D-12 OVMax= 4.76D-06

 Cycle  18  Pass 1  IDiag  1:
 RMSU=  1.25D-08    CP:  9.34D-01  2.35D+00  6.68D-01  9.22D-01  1.91D+00
                    CP:  2.34D+00  3.00D+00  3.00D+00  3.00D+00  3.00D+00
                    CP:  1.57D+00  1.53D+00  1.19D+00  1.07D+00  9.89D-01
                    CP:  1.15D+00  9.05D-01
 E= -154.651252381793     Delta-E=        0.000000000000 Rises=F Damp=F
 DIIS: error= 1.63D-08 at cycle  18 NSaved=  18.
 NSaved=18 IEnMin=17 EnMin= -154.651252381793     IErMin=18 ErrMin= 1.63D-08
 ErrMax= 1.63D-08  0.00D+00 EMaxC= 1.00D-01 BMatC= 3.96D-14 BMatP= 8.63D-13
 IDIUse=1 WtCom= 1.00D+00 WtEn= 0.00D+00
 Coeff-Com:  0.999D-07-0.192D-06-0.144D-06 0.178D-06 0.738D-06-0.631D-06
 Coeff-Com: -0.211D-05-0.481D-06-0.266D-04 0.190D-04 0.103D-03-0.349D-03
 Coeff-Com:  0.893D-03 0.314D-03 0.284D-02-0.504D-01-0.105D+00 0.115D+01
 Coeff:      0.999D-07-0.192D-06-0.144D-06 0.178D-06 0.738D-06-0.631D-06
 Coeff:     -0.211D-05-0.481D-06-0.266D-04 0.190D-04 0.103D-03-0.349D-03
 Coeff:      0.893D-03 0.314D-03 0.284D-02-0.504D-01-0.105D+00 0.115D+01
 Gap=     0.196 Goal=   None    Shift=    0.000
 Gap=     0.097 Goal=   None    Shift=    0.000
 RMSDP=1.70D-08 MaxDP=5.94D-07 DE= 3.98D-13 OVMax= 1.60D-06

 Cycle  19  Pass 1  IDiag  1:
 RMSU=  2.48D-09    CP:  9.34D-01  2.35D+00  6.68D-01  9.22D-01  1.91D+00
                    CP:  2.34D+00  3.00D+00  3.00D+00  3.00D+00  3.00D+00
                    CP:  1.57D+00  1.53D+00  1.19D+00  1.07D+00  9.88D-01
                    CP:  1.15D+00  9.61D-01  9.72D-01
 E= -154.651252381793     Delta-E=       -0.000000000000 Rises=F Damp=F
 DIIS: error= 3.48D-09 at cycle  19 NSaved=  19.
 NSaved=19 IEnMin=17 EnMin= -154.651252381793     IErMin=19 ErrMin= 3.48D-09
 ErrMax= 3.48D-09  0.00D+00 EMaxC= 1.00D-01 BMatC= 3.74D-15 BMatP= 3.96D-14
 IDIUse=1 WtCom= 1.00D+00 WtEn= 0.00D+00
 Large coefficients: NSaved= 19 BigCof=    0.00 CofMax=   10.00 Det=-5.67D-15
 Inversion failed.  Reducing to 18 matrices.
 Large coefficients: NSaved= 18 BigCof=    0.00 CofMax=   10.00 Det=-5.70D-15
 Inversion failed.  Reducing to 17 matrices.
 Large coefficients: NSaved= 17 BigCof=    0.00 CofMax=   10.00 Det=-5.75D-15
 Inversion failed.  Reducing to 16 matrices.
 Large coefficients: NSaved= 16 BigCof=    0.00 CofMax=   10.00 Det=-5.77D-15
 Inversion failed.  Reducing to 15 matrices.
 Coeff-Com:  0.511D-06 0.165D-05 0.194D-05-0.540D-05-0.589D-05 0.294D-04
 Coeff-Com:  0.109D-04-0.101D-03 0.274D-04 0.121D-02 0.102D-02-0.778D-02
 Coeff-Com: -0.587D-01-0.183D-01 0.108D+01
 Coeff:      0.511D-06 0.165D-05 0.194D-05-0.540D-05-0.589D-05 0.294D-04
 Coeff:      0.109D-04-0.101D-03 0.274D-04 0.121D-02 0.102D-02-0.778D-02
 Coeff:     -0.587D-01-0.183D-01 0.108D+01
 Gap=     0.196 Goal=   None    Shift=    0.000
 Gap=     0.097 Goal=   None    Shift=    0.000
 RMSDP=5.71D-09 MaxDP=1.92D-07 DE=-1.71D-13 OVMax= 5.17D-07

 SCF Done:  E(UB3LYP) =  -154.651252382     A.U. after   19 cycles
            NFock= 19  Conv=0.57D-08     -V/T= 2.0045
 <Sx>= 0.0000 <Sy>= 0.0000 <Sz>= 1.0000 <S**2>= 2.0266 S= 1.0088
 <L.S>= 0.000000000000E+00
 KE= 1.539545328736D+02 PE=-5.356435376049D+02 EE= 1.383122386733D+02
 Annihilation of the first spin contaminant:
 S**2 before annihilation     2.0266,   after     2.0002
 Leave Link  502 at Sun Mar  4 21:17:51 2018, MaxMem=    33554432 cpu:        33.2
 (Enter /apl/tryton/gaussian/09/d01/g09/l801.exe)
 DoSCS=F DFT=T ScalE2(SS,OS)=  1.000000  1.000000
 Range of M.O.s used for correlation:     1   116
 NBasis=   116 NAE=    15 NBE=    13 NFC=     0 NFV=     0
 NROrb=    116 NOA=    15 NOB=    13 NVA=   101 NVB=   103

 **** Warning!!: The largest alpha MO coefficient is  0.20997847D+03


 **** Warning!!: The largest beta MO coefficient is  0.22092192D+03


 **** Warning!!: The smallest beta delta epsilon is  0.96812767D-01

 Leave Link  801 at Sun Mar  4 21:17:51 2018, MaxMem=    33554432 cpu:         0.0
 (Enter /apl/tryton/gaussian/09/d01/g09/l1101.exe)
 Using compressed storage, NAtomX=     8.
 Will process      9 centers per pass.
 Leave Link 1101 at Sun Mar  4 21:17:52 2018, MaxMem=    33554432 cpu:         0.1
 (Enter /apl/tryton/gaussian/09/d01/g09/l1102.exe)
 Symmetrizing basis deriv contribution to polar:
 IMax=3 JMax=2 DiffMx= 0.00D+00
 Leave Link 1102 at Sun Mar  4 21:17:52 2018, MaxMem=    33554432 cpu:         0.0
 (Enter /apl/tryton/gaussian/09/d01/g09/l1110.exe)
 Forming Gx(P) for the SCF density, NAtomX=     8.
 Integral derivatives from FoFJK, PRISM(SPDF).
 Do as many integral derivatives as possible in FoFJK.
 G2DrvN: MDV=      33554264.
 G2DrvN: will do     9 centers at a time, making    1 passes.
 Calling FoFCou, ICntrl=  3107 FMM=F I1Cent=   0 AccDes= 0.00D+00.
 FoFJK:  IHMeth= 1 ICntrl=    3107 DoSepK=F KAlg= 0 I1Cent=   0 FoldK=F
 IRaf=         0 NMat=   1 IRICut=       1 DoRegI=T DoRafI=F ISym2E= 1.
 FoFCou: FMM=F IPFlag=           0 FMFlag=      100000 FMFlg1=           0
         NFxFlg=           0 DoJE=F BraDBF=F KetDBF=F FulRan=T
         wScrn=  0.000000 ICntrl=    3107 IOpCl=  1 I1Cent=           0 NGrid=           0
         NMat0=    1 NMatS0=      1 NMatT0=    0 NMatD0=    1 NMtDS0=    0 NMtDT0=    0
 Petite list used in FoFCou.
 End of G2Drv F.D. properties file   721 does not exist.
 End of G2Drv F.D. properties file   722 does not exist.
 End of G2Drv F.D. properties file   788 does not exist.
 Leave Link 1110 at Sun Mar  4 21:18:17 2018, MaxMem=    33554432 cpu:        25.2
 (Enter /apl/tryton/gaussian/09/d01/g09/l1002.exe)
 Minotr:  UHF open shell wavefunction.
          IDoAtm=11111111
          Direct CPHF calculation.
          Differentiating once with respect to electric field.
                with respect to dipole field.
          Differentiating once with respect to nuclear coordinates.
          Using symmetry in CPHF.
          Requested convergence is 1.0D-08 RMS, and 1.0D-07 maximum.
          Secondary convergence is 1.0D-12 RMS, and 1.0D-12 maximum.
          NewPWx=T KeepS1=F KeepF1=F KeepIn=T MapXYZ=F SortEE=F KeepMc=T.
          MDV=      33554116 using IRadAn=       2.
 Generate precomputed XC quadrature information.
          Solving linear equations simultaneously, MaxMat=       0.
 FoFJK:  IHMeth= 1 ICntrl=       0 DoSepK=F KAlg= 0 I1Cent=   0 FoldK=F
 IRaf= 990000000 NMat=  24 IRICut=      60 DoRegI=T DoRafI=T ISym2E= 2.
 FoFCou: FMM=F IPFlag=           0 FMFlag=      100000 FMFlg1=           0
         NFxFlg=           0 DoJE=F BraDBF=F KetDBF=F FulRan=T
         wScrn=  0.000000 ICntrl=       0 IOpCl=  1 I1Cent=           0 NGrid=           0
         NMat0=   24 NMatS0=     24 NMatT0=    0 NMatD0=   24 NMtDS0=    0 NMtDT0=    0
 Integrals replicated using symmetry in FoFCou.
          There are    24 degrees of freedom in the 1st order CPHF.  IDoFFX=4 NUNeed=    24.
     24 vectors produced by pass  0 Test12= 1.19D-14 4.17D-09 XBig12= 1.40D+02 5.74D+00.
 AX will form    24 AO Fock derivatives at one time.
     24 vectors produced by pass  1 Test12= 1.19D-14 4.17D-09 XBig12= 2.71D+01 1.44D+00.
     24 vectors produced by pass  2 Test12= 1.19D-14 4.17D-09 XBig12= 3.77D+00 5.59D-01.
     24 vectors produced by pass  3 Test12= 1.19D-14 4.17D-09 XBig12= 9.50D-02 9.24D-02.
     24 vectors produced by pass  4 Test12= 1.19D-14 4.17D-09 XBig12= 6.13D-04 4.50D-03.
     24 vectors produced by pass  5 Test12= 1.19D-14 4.17D-09 XBig12= 3.51D-06 2.62D-04.
     17 vectors produced by pass  6 Test12= 1.19D-14 4.17D-09 XBig12= 1.28D-08 1.97D-05.
      5 vectors produced by pass  7 Test12= 1.19D-14 4.17D-09 XBig12= 6.37D-11 1.01D-06.
      3 vectors produced by pass  8 Test12= 1.19D-14 4.17D-09 XBig12= 6.63D-13 1.62D-07.
      3 vectors produced by pass  9 Test12= 1.19D-14 4.17D-09 XBig12= 4.90D-14 5.99D-08.
      2 vectors produced by pass 10 Test12= 1.19D-14 4.17D-09 XBig12= 8.26D-16 1.23D-08.
      1 vectors produced by pass 11 Test12= 1.19D-14 4.17D-09 XBig12= 5.20D-16 5.16D-09.
 InvSVY:  IOpt=1 It=  1 EMax= 5.33D-15
 Solved reduced A of dimension   175 with    24 vectors.
 FullF1:  Do perturbations    1 to    24.
 Isotropic polarizability for W=    0.000000       58.41 Bohr**3.
 End of Minotr F.D. properties file   721 does not exist.
 End of Minotr F.D. properties file   722 does not exist.
 End of Minotr F.D. properties file   788 does not exist.
 Leave Link 1002 at Sun Mar  4 21:19:44 2018, MaxMem=    33554432 cpu:        82.0
 (Enter /apl/tryton/gaussian/09/d01/g09/l601.exe)
 Copying SCF densities to generalized density rwf, IOpCl= 1 IROHF=0.

 **********************************************************************

            Population analysis using the SCF density.

 **********************************************************************

 Orbital symmetries:
 Alpha Orbitals:
       Occupied  (A') (A') (A') (A') (A') (A') (A') (A') (A') (A")
                 (A') (A') (A") (A') (A")
       Virtual   (A') (A') (A') (A") (A') (A") (A') (A') (A') (A")
                 (A") (A') (A') (A') (A") (A') (A') (A') (A") (A')
                 (A') (A") (A') (A') (A') (A') (A') (A') (A') (A")
                 (A') (A') (A") (A') (A') (A") (A') (A") (A') (A')
                 (A") (A') (A') (A') (A') (A') (A') (A') (A") (A')
                 (A") (A') (A") (A') (A") (A') (A") (A') (A") (A')
                 (A") (A') (A") (A') (A') (A") (A') (A') (A") (A')
                 (A') (A') (A") (A') (A") (A') (A') (A") (A') (A")
                 (A') (A') (A') (A") (A') (A') (A") (A') (A") (A')
                 (A') (A') (A') (A") (A') (A') (A') (A') (A') (A')
                 (A')
 Beta  Orbitals:
       Occupied  (A') (A') (A') (A') (A') (A') (A') (A') (A') (A")
                 (A') (A") (A')
       Virtual   (A') (A") (A') (A') (A') (A") (A') (A") (A') (A')
                 (A') (A") (A') (A") (A') (A') (A') (A") (A') (A')
                 (A") (A') (A') (A") (A') (A') (A') (A') (A') (A')
                 (A') (A") (A') (A') (A") (A') (A') (A') (A") (A")
                 (A') (A') (A") (A') (A') (A') (A') (A') (A') (A")
                 (A') (A') (A") (A') (A") (A') (A") (A') (A") (A')
                 (A") (A') (A") (A') (A") (A') (A') (A") (A') (A')
                 (A") (A') (A') (A') (A") (A') (A") (A') (A') (A")
                 (A') (A") (A') (A') (A') (A") (A') (A') (A") (A')
                 (A") (A') (A') (A') (A') (A") (A') (A') (A') (A')
                 (A') (A') (A')
 The electronic state is 3-A".
 Alpha  occ. eigenvalues --  -10.23092 -10.22283 -10.21959 -10.19539  -0.83902
 Alpha  occ. eigenvalues --   -0.76287  -0.67510  -0.52234  -0.45463  -0.44616
 Alpha  occ. eigenvalues --   -0.40567  -0.35620  -0.35165  -0.30635  -0.21686
 Alpha virt. eigenvalues --   -0.02089  -0.01013   0.01058   0.02626   0.03613
 Alpha virt. eigenvalues --    0.04735   0.06157   0.06765   0.07041   0.07999
 Alpha virt. eigenvalues --    0.08967   0.09833   0.11165   0.11873   0.12572
 Alpha virt. eigenvalues --    0.13096   0.14004   0.15356   0.15668   0.16955
 Alpha virt. eigenvalues --    0.18075   0.18478   0.22138   0.23605   0.24603
 Alpha virt. eigenvalues --    0.27614   0.31205   0.32980   0.42686   0.43275
 Alpha virt. eigenvalues --    0.47154   0.49499   0.52236   0.53792   0.55024
 Alpha virt. eigenvalues --    0.57135   0.57857   0.61691   0.62414   0.64259
 Alpha virt. eigenvalues --    0.65578   0.67487   0.69142   0.71007   0.77667
 Alpha virt. eigenvalues --    0.81737   0.92139   0.94244   0.94550   0.97238
 Alpha virt. eigenvalues --    1.06248   1.15084   1.15121   1.20393   1.34208
 Alpha virt. eigenvalues --    1.34591   1.43408   1.44691   1.50073   1.54405
 Alpha virt. eigenvalues --    1.55166   1.56847   1.57096   1.62994   1.74382
 Alpha virt. eigenvalues --    1.76668   1.78199   1.85346   1.96624   1.99159
 Alpha virt. eigenvalues --    2.05045   2.08692   2.13459   2.24808   2.38265
 Alpha virt. eigenvalues --    2.40338   2.43637   2.50700   2.53018   2.54110
 Alpha virt. eigenvalues --    2.54474   2.63268   2.65310   2.67788   2.79938
 Alpha virt. eigenvalues --    2.85836   2.88417   2.90341   2.91876   2.93885
 Alpha virt. eigenvalues --    3.10952   3.22425   3.42019   3.76919   3.77637
 Alpha virt. eigenvalues --    3.84962   4.17210  23.32707  23.86627  23.94426
 Alpha virt. eigenvalues --   24.60359
  Beta  occ. eigenvalues --  -10.22061 -10.21125 -10.21003 -10.19550  -0.81564
  Beta  occ. eigenvalues --   -0.73623  -0.65187  -0.50821  -0.44311  -0.43419
  Beta  occ. eigenvalues --   -0.39964  -0.31778  -0.28828
  Beta virt. eigenvalues --   -0.19147  -0.09554  -0.01183   0.01169   0.01352
  Beta virt. eigenvalues --    0.02673   0.04089   0.06123   0.06535   0.06869
  Beta virt. eigenvalues --    0.07555   0.08473   0.10141   0.11185   0.11367
  Beta virt. eigenvalues --    0.12276   0.13382   0.13497   0.14138   0.15747
  Beta virt. eigenvalues --    0.15874   0.17014   0.18545   0.19141   0.22467
  Beta virt. eigenvalues --    0.23923   0.25309   0.28185   0.32110   0.34376
  Beta virt. eigenvalues --    0.43396   0.43652   0.48292   0.50486   0.54563
  Beta virt. eigenvalues --    0.55133   0.56433   0.59464   0.60104   0.62508
  Beta virt. eigenvalues --    0.63486   0.65088   0.66387   0.69076   0.69664
  Beta virt. eigenvalues --    0.73264   0.78787   0.82532   0.92959   0.95916
  Beta virt. eigenvalues --    0.96344   0.99029   1.08666   1.17765   1.19498
  Beta virt. eigenvalues --    1.22159   1.36597   1.37540   1.43733   1.48029
  Beta virt. eigenvalues --    1.52305   1.54849   1.56033   1.58127   1.60295
  Beta virt. eigenvalues --    1.64027   1.74678   1.78797   1.80667   1.88218
  Beta virt. eigenvalues --    1.98660   2.02277   2.05845   2.10388   2.15199
  Beta virt. eigenvalues --    2.25478   2.40393   2.41227   2.44319   2.51228
  Beta virt. eigenvalues --    2.53455   2.54754   2.56182   2.63931   2.66086
  Beta virt. eigenvalues --    2.70273   2.81323   2.87342   2.91000   2.91909
  Beta virt. eigenvalues --    2.95558   2.95852   3.13029   3.24876   3.42978
  Beta virt. eigenvalues --    3.77261   3.78560   3.86137   4.18433  23.34087
  Beta virt. eigenvalues --   23.87763  23.94647  24.61318
          Condensed to atoms (all electrons):
               1          2          3          4          5          6
     1  C    5.292235   0.420677   0.401531   0.420677   0.424578  -0.050637
     2  H    0.420677   0.575382  -0.025900  -0.060722  -0.020835  -0.001694
     3  H    0.401531  -0.025900   0.522316  -0.025900  -0.097433   0.005022
     4  H    0.420677  -0.060722  -0.025900   0.575382  -0.020835  -0.001694
     5  C    0.424578  -0.020835  -0.097433  -0.020835   6.728742   0.328149
     6  H   -0.050637  -0.001694   0.005022  -0.001694   0.328149   0.509227
     7  C   -0.063801  -0.025763   0.013833  -0.025763  -0.017071  -0.014944
     8  C   -0.153426  -0.012979   0.042433  -0.012979  -0.977936   0.032938
               7          8
     1  C   -0.063801  -0.153426
     2  H   -0.025763  -0.012979
     3  H    0.013833   0.042433
     4  H   -0.025763  -0.012979
     5  C   -0.017071  -0.977936
     6  H   -0.014944   0.032938
     7  C    5.191748   0.279247
     8  C    0.279247   7.087418
          Atomic-Atomic Spin Densities.
               1          2          3          4          5          6
     1  C   -0.028290   0.012485   0.002583   0.012485  -0.001850  -0.003022
     2  H    0.012485   0.051816  -0.000206  -0.015369  -0.031739  -0.000249
     3  H    0.002583  -0.000206   0.000802  -0.000206  -0.004373   0.000914
     4  H    0.012485  -0.015369  -0.000206   0.051816  -0.031739  -0.000249
     5  C   -0.001850  -0.031739  -0.004373  -0.031739   1.083815   0.010719
     6  H   -0.003022  -0.000249   0.000914  -0.000249   0.010719   0.001257
     7  C   -0.036042   0.009493   0.004116   0.009493  -0.214461  -0.008807
     8  C    0.008552   0.000884  -0.000866   0.000884  -0.124623  -0.000412
               7          8
     1  C   -0.036042   0.008552
     2  H    0.009493   0.000884
     3  H    0.004116  -0.000866
     4  H    0.009493   0.000884
     5  C   -0.214461  -0.124623
     6  H   -0.008807  -0.000412
     7  C    0.247544   0.108266
     8  C    0.108266   1.177916
 Mulliken charges and spin densities:
               1          2
     1  C   -0.691834  -0.033099
     2  H    0.151833   0.027115
     3  H    0.164097   0.002763
     4  H    0.151833   0.027115
     5  C   -0.347360   0.685748
     6  H    0.193632   0.000153
     7  C    0.662515   0.119604
     8  C   -0.284716   1.170600
 Sum of Mulliken charges =  -0.00000   2.00000
 Mulliken charges and spin densities with hydrogens summed into heavy atoms:
               1          2
     1  C   -0.224071   0.023894
     5  C   -0.153728   0.685901
     7  C    0.662515   0.119604
     8  C   -0.284716   1.170600
 APT charges:
               1
     1  C    0.072997
     2  H   -0.010650
     3  H    0.019144
     4  H   -0.010650
     5  C   -0.069188
     6  H    0.096815
     7  C    1.069128
     8  C   -1.167596
 Sum of APT charges =  -0.00000
 APT charges with hydrogens summed into heavy atoms:
               1
     1  C    0.070842
     5  C    0.027627
     7  C    1.069128
     8  C   -1.167596
 Electronic spatial extent (au):  <R**2>=            295.3988
 Charge=             -0.0000 electrons
 Dipole moment (field-independent basis, Debye):
    X=             -1.4770    Y=              2.4285    Z=             -0.0000  Tot=              2.8424
 Quadrupole moment (field-independent basis, Debye-Ang):
   XX=            -23.8455   YY=            -26.9547   ZZ=            -26.1228
   XY=              1.8474   XZ=             -0.0000   YZ=              0.0000
 Traceless Quadrupole moment (field-independent basis, Debye-Ang):
   XX=              1.7955   YY=             -1.3137   ZZ=             -0.4818
   XY=              1.8474   XZ=             -0.0000   YZ=              0.0000
 Octapole moment (field-independent basis, Debye-Ang**2):
  XXX=             -6.9305  YYY=             17.5297  ZZZ=             -0.0000  XYY=             -6.7452
  XXY=              4.5118  XXZ=              0.0000  XZZ=             -4.0457  YZZ=              3.0822
  YYZ=              0.0000  XYZ=             -0.0000
 Hexadecapole moment (field-independent basis, Debye-Ang**3):
 XXXX=           -245.4415 YYYY=           -176.2916 ZZZZ=            -38.3191 XXXY=             61.3490
 XXXZ=             -0.0000 YYYX=             75.1675 YYYZ=              0.0000 ZZZX=             -0.0000
 ZZZY=              0.0000 XXYY=            -72.0348 XXZZ=            -47.7612 YYZZ=            -34.6748
 XXYZ=              0.0000 YYXZ=              0.0000 ZZXY=             19.9990
 N-N= 8.872551367623D+01 E-N=-5.356435374725D+02  KE= 1.539545328736D+02
 Symmetry A'   KE= 1.485051898078D+02
 Symmetry A"   KE= 5.449343065795D+00
  Exact polarizability:  60.431 -32.193  80.984  -0.000   0.000  33.801
 Approx polarizability:  72.236 -40.223 117.274   0.000   0.000  43.814
                          Isotropic Fermi Contact Couplings
        Atom                 a.u.       MegaHertz       Gauss      10(-4) cm-1
     1  C(13)             -0.00583      -3.27777      -1.16959      -1.09335
     2  H(1)               0.01456      32.53948      11.61089      10.85400
     3  H(1)               0.00013       0.28749       0.10258       0.09590
     4  H(1)               0.01456      32.53948      11.61089      10.85400
     5  C(13)              0.03459      19.44039       6.93681       6.48461
     6  H(1)               0.00704      15.73726       5.61544       5.24938
     7  C(13)             -0.01076      -6.04686      -2.15767      -2.01702
     8  C(13)              0.39703     223.17078      79.63288      74.44176
 --------------------------------------------------------
       Center         ----  Spin Dipole Couplings  ----
                      3XX-RR        3YY-RR        3ZZ-RR
 --------------------------------------------------------
     1   Atom        0.034637     -0.026321     -0.008317
     2   Atom        0.011588     -0.006106     -0.005483
     3   Atom        0.014736     -0.003628     -0.011108
     4   Atom        0.011588     -0.006106     -0.005483
     5   Atom       -0.402700     -0.360687      0.763387
     6   Atom       -0.037958      0.047009     -0.009052
     7   Atom        0.024811      0.414777     -0.439588
     8   Atom        0.287375     -0.605907      0.318532
 --------------------------------------------------------
                        XY            XZ            YZ
 --------------------------------------------------------
     1   Atom       -0.004812     -0.000000      0.000000
     2   Atom       -0.005635     -0.007700      0.003763
     3   Atom        0.005511     -0.000000      0.000000
     4   Atom       -0.005635      0.007700     -0.003763
     5   Atom       -0.001905      0.000000      0.000000
     6   Atom        0.032555     -0.000000      0.000000
     7   Atom        0.221727     -0.000000     -0.000000
     8   Atom       -0.426187     -0.000000      0.000000
 --------------------------------------------------------


 ---------------------------------------------------------------------------------
              Anisotropic Spin Dipole Couplings in Principal Axis System
 ---------------------------------------------------------------------------------

       Atom             a.u.   MegaHertz   Gauss  10(-4) cm-1        Axes

              Baa    -0.0267    -3.583    -1.278    -1.195  0.0782  0.9969  0.0000
     1 C(13)  Bbb    -0.0083    -1.116    -0.398    -0.372  0.0000  0.0000  1.0000
              Bcc     0.0350     4.699     1.677     1.567  0.9969 -0.0782  0.0000
 
              Baa    -0.0097    -5.170    -1.845    -1.725  0.1102 -0.6321  0.7670
     2 H(1)   Bbb    -0.0068    -3.628    -1.295    -1.210  0.4436  0.7218  0.5312
              Bcc     0.0165     8.798     3.139     2.935  0.8894 -0.2818 -0.3599
 
              Baa    -0.0111    -5.927    -2.115    -1.977  0.0000  0.0000  1.0000
     3 H(1)   Bbb    -0.0052    -2.750    -0.981    -0.917 -0.2670  0.9637 -0.0000
              Bcc     0.0163     8.677     3.096     2.894  0.9637  0.2670 -0.0000
 
              Baa    -0.0097    -5.170    -1.845    -1.725 -0.1102  0.6321  0.7670
     4 H(1)   Bbb    -0.0068    -3.628    -1.295    -1.210  0.4436  0.7218 -0.5312
              Bcc     0.0165     8.798     3.139     2.935  0.8894 -0.2818  0.3599
 
              Baa    -0.4028   -54.050   -19.286   -18.029  0.9990  0.0452 -0.0000
     5 C(13)  Bbb    -0.3606   -48.389   -17.266   -16.141 -0.0452  0.9990 -0.0000
              Bcc     0.7634   102.439    36.553    34.170  0.0000  0.0000  1.0000
 
              Baa    -0.0490   -26.142    -9.328    -8.720  0.9470 -0.3211 -0.0000
     6 H(1)   Bbb    -0.0091    -4.830    -1.723    -1.611  0.0000  0.0000  1.0000
              Bcc     0.0580    30.972    11.051    10.331  0.3211  0.9470  0.0000
 
              Baa    -0.4396   -58.989   -21.049   -19.676  0.0000  0.0000  1.0000
     7 C(13)  Bbb    -0.0755   -10.127    -3.614    -3.378  0.9111 -0.4121 -0.0000
              Bcc     0.5151    69.116    24.662    23.055  0.4121  0.9111 -0.0000
 
              Baa    -0.7766  -104.215   -37.186   -34.762  0.3718  0.9283  0.0000
     8 C(13)  Bbb     0.3185    42.744    15.252    14.258  0.0000  0.0000  1.0000
              Bcc     0.4581    61.471    21.934    20.504  0.9283 -0.3718 -0.0000
 

 ---------------------------------------------------------------------------------

 No NMR shielding tensors so no spin-rotation constants.
 Leave Link  601 at Sun Mar  4 21:19:44 2018, MaxMem=    33554432 cpu:         0.3
 (Enter /apl/tryton/gaussian/09/d01/g09/l701.exe)
 Compute integral second derivatives.
 ... and contract with generalized density number  0.
 Leave Link  701 at Sun Mar  4 21:19:44 2018, MaxMem=    33554432 cpu:         0.2
 (Enter /apl/tryton/gaussian/09/d01/g09/l702.exe)
 L702 exits ... SP integral derivatives will be done elsewhere.
 Leave Link  702 at Sun Mar  4 21:19:44 2018, MaxMem=    33554432 cpu:         0.0
 (Enter /apl/tryton/gaussian/09/d01/g09/l703.exe)
 Compute integral second derivatives, UseDBF=F ICtDFT=           0.
 Integral derivatives from FoFJK, PRISM(SPDF).
 Calling FoFJK, ICntrl=    100127 FMM=F ISym2X=1 I1Cent= 0 IOpClX= 1 NMat=1 NMatS=1 NMatT=0.
 FoFJK:  IHMeth= 1 ICntrl=  100127 DoSepK=F KAlg= 0 I1Cent=   0 FoldK=F
 IRaf=         0 NMat=   1 IRICut=       1 DoRegI=T DoRafI=F ISym2E= 1.
 FoFCou: FMM=F IPFlag=           0 FMFlag=      100000 FMFlg1=         800
         NFxFlg=           0 DoJE=F BraDBF=F KetDBF=F FulRan=T
         wScrn=  0.000000 ICntrl=  100127 IOpCl=  1 I1Cent=           0 NGrid=           0
         NMat0=    1 NMatS0=      1 NMatT0=    0 NMatD0=    1 NMtDS0=    0 NMtDT0=    0
 Petite list used in FoFCou.
 Leave Link  703 at Sun Mar  4 21:20:11 2018, MaxMem=    33554432 cpu:        27.1
 (Enter /apl/tryton/gaussian/09/d01/g09/l716.exe)
 Dipole        =-5.81105599D-01 9.55451382D-01-9.81419807D-16
 Polarizability= 6.04305732D+01-3.21929501D+01 8.09839523D+01
                -1.52937915D-06 2.36672539D-06 3.38005374D+01
 Full mass-weighted force constant matrix:
 Low frequencies ---   -3.9634   -0.0016   -0.0008   -0.0006    1.7996    4.4147
 Low frequencies ---   88.5490  205.7294  430.9269
 Diagonal vibrational polarizability:
       14.7074107      26.8492045       4.9084811
 Harmonic frequencies (cm**-1), IR intensities (KM/Mole), Raman scattering
 activities (A**4/AMU), depolarization ratios for plane and unpolarized
 incident light, reduced masses (AMU), force constants (mDyne/A),
 and normal coordinates:
                      1                      2                      3
                     A"                     A'                     A"
 Frequencies --     88.4915               205.7290               430.9269
 Red. masses --      1.1268                 4.3459                 5.9292
 Frc consts  --      0.0052                 0.1084                 0.6487
 IR Inten    --      0.0052                 6.5270                 0.8766
  Atom  AN      X      Y      Z        X      Y      Z        X      Y      Z
     1   6     0.00  -0.00   0.02    -0.14   0.24   0.00     0.00   0.00   0.00
     2   1     0.11  -0.48   0.34     0.01   0.38  -0.00    -0.14  -0.03  -0.06
     3   1     0.00  -0.00  -0.50    -0.48   0.33  -0.00    -0.00   0.00  -0.10
     4   1    -0.11   0.48   0.34     0.01   0.38   0.00     0.14   0.03  -0.06
     5   6     0.00   0.00  -0.08    -0.10  -0.18  -0.00     0.00  -0.00   0.22
     6   1    -0.00   0.00  -0.11     0.09  -0.25  -0.00     0.00  -0.00   0.70
     7   6     0.00  -0.00  -0.01    -0.10  -0.18   0.00    -0.00  -0.00  -0.56
     8   6    -0.00   0.00   0.06     0.37   0.05  -0.00    -0.00   0.00   0.29
                      4                      5                      6
                     A'                     A"                     A'
 Frequencies --    564.4017               571.6889               840.2365
 Red. masses --      4.7426                 1.2645                 3.5434
 Frc consts  --      0.8901                 0.2435                 1.4739
 IR Inten    --      3.0555                56.0535               181.3014
  Atom  AN      X      Y      Z        X      Y      Z        X      Y      Z
     1   6     0.18  -0.05   0.00    -0.00   0.00   0.00     0.25  -0.06   0.00
     2   1    -0.02  -0.26   0.01     0.19   0.07   0.07     0.48   0.26  -0.05
     3   1     0.60  -0.16   0.00    -0.00   0.00   0.14    -0.28   0.09  -0.00
     4   1    -0.02  -0.26  -0.01    -0.19  -0.07   0.07     0.48   0.26   0.05
     5   6     0.07   0.20  -0.00    -0.00  -0.00  -0.15    -0.08  -0.25  -0.00
     6   1     0.36   0.08   0.00    -0.00  -0.00   0.93    -0.20  -0.20  -0.00
     7   6    -0.43  -0.21   0.00     0.00   0.00   0.03    -0.07   0.00   0.00
     8   6     0.10   0.11  -0.00    -0.00  -0.00   0.01    -0.15   0.27  -0.00
                      7                      8                      9
                     A"                     A'                     A'
 Frequencies --   1012.4273              1033.4276              1109.1637
 Red. masses --      1.3498                 1.5551                 2.9757
 Frc consts  --      0.8152                 0.9785                 2.1569
 IR Inten    --      0.4537               358.5327               163.6443
  Atom  AN      X      Y      Z        X      Y      Z        X      Y      Z
     1   6    -0.00   0.00   0.14     0.04  -0.10   0.00     0.19   0.14   0.00
     2   1    -0.62   0.01  -0.19     0.30   0.24  -0.05    -0.04  -0.18   0.06
     3   1     0.00  -0.00  -0.32    -0.48   0.05  -0.00     0.75  -0.00  -0.00
     4   1     0.62  -0.01  -0.19     0.30   0.24   0.05    -0.04  -0.18  -0.06
     5   6     0.00  -0.00  -0.10    -0.01   0.12  -0.00    -0.28  -0.05   0.00
     6   1     0.00  -0.00   0.13    -0.56   0.33   0.00    -0.43   0.01   0.00
     7   6     0.00  -0.00   0.01    -0.06   0.03  -0.00    -0.01   0.10  -0.00
     8   6    -0.00   0.00  -0.00     0.07  -0.12   0.00     0.07  -0.16   0.00
                     10                     11                     12
                     A'                     A'                     A'
 Frequencies --   1248.0024              1387.1088              1439.4352
 Red. masses --      1.6957                 1.4782                 1.7014
 Frc consts  --      1.5561                 1.6758                 2.0770
 IR Inten    --    664.5158                90.4220               186.2876
  Atom  AN      X      Y      Z        X      Y      Z        X      Y      Z
     1   6    -0.00   0.07  -0.00     0.14  -0.04   0.00     0.07   0.06  -0.00
     2   1    -0.19  -0.09  -0.00    -0.47   0.08  -0.34    -0.28  -0.44   0.09
     3   1     0.14   0.02   0.00    -0.43   0.11  -0.00    -0.54   0.20   0.00
     4   1    -0.19  -0.09   0.00    -0.47   0.08   0.34    -0.28  -0.44  -0.09
     5   6     0.05   0.01  -0.00    -0.10   0.07  -0.00     0.13  -0.10   0.00
     6   1    -0.84   0.35  -0.00     0.24  -0.06  -0.00    -0.23   0.04   0.00
     7   6     0.09  -0.19   0.00     0.06  -0.06   0.00    -0.10   0.12  -0.00
     8   6    -0.04   0.10  -0.00    -0.00   0.00  -0.00     0.02  -0.03   0.00
                     13                     14                     15
                     A"                     A'                     A'
 Frequencies --   1477.5354              1507.3684              3012.4022
 Red. masses --      1.0457                 1.3761                 1.0376
 Frc consts  --      1.3451                 1.8422                 5.5477
 IR Inten    --      8.2753               198.3632                25.8017
  Atom  AN      X      Y      Z        X      Y      Z        X      Y      Z
     1   6    -0.00  -0.00  -0.06    -0.02  -0.03   0.00     0.05  -0.02   0.00
     2   1    -0.27  -0.40   0.05    -0.28   0.41  -0.36    -0.25   0.28   0.54
     3   1     0.00  -0.00   0.72     0.41  -0.13  -0.00    -0.08  -0.33  -0.00
     4   1     0.27   0.40   0.05    -0.28   0.41   0.36    -0.25   0.28  -0.54
     5   6    -0.00   0.00  -0.01     0.11  -0.09   0.00     0.00   0.00   0.00
     6   1    -0.00   0.00   0.02    -0.21   0.03   0.00    -0.00  -0.01   0.00
     7   6     0.00  -0.00  -0.00    -0.07   0.08  -0.00    -0.00   0.00  -0.00
     8   6    -0.00   0.00   0.00     0.01  -0.02   0.00     0.00  -0.00   0.00
                     16                     17                     18
                     A"                     A'                     A'
 Frequencies --   3056.4043              3116.4540              3129.9096
 Red. masses --      1.1001                 1.0895                 1.0920
 Frc consts  --      6.0547                 6.2345                 6.3028
 IR Inten    --     11.8837                 6.5545                 4.8805
  Atom  AN      X      Y      Z        X      Y      Z        X      Y      Z
     1   6     0.00   0.00   0.09     0.01   0.06  -0.00    -0.00  -0.07  -0.00
     2   1     0.28  -0.32  -0.56     0.06  -0.06  -0.13    -0.07   0.06   0.14
     3   1    -0.00  -0.00   0.02    -0.16  -0.62   0.00     0.17   0.66  -0.00
     4   1    -0.28   0.32  -0.56     0.06  -0.06   0.13    -0.07   0.06  -0.14
     5   6    -0.00  -0.00   0.00    -0.02  -0.06  -0.00    -0.02  -0.05   0.00
     6   1     0.00   0.00  -0.00     0.26   0.68   0.00     0.25   0.64   0.00
     7   6    -0.00   0.00   0.00    -0.00  -0.00  -0.00    -0.00  -0.00  -0.00
     8   6     0.00  -0.00  -0.00    -0.00   0.00   0.00    -0.00   0.00   0.00

 -------------------
 - Thermochemistry -
 -------------------
 Temperature   298.150 Kelvin.  Pressure   1.00000 Atm.
 Atom     1 has atomic number  6 and mass  12.00000
 Atom     2 has atomic number  1 and mass   1.00783
 Atom     3 has atomic number  1 and mass   1.00783
 Atom     4 has atomic number  1 and mass   1.00783
 Atom     5 has atomic number  6 and mass  12.00000
 Atom     6 has atomic number  1 and mass   1.00783
 Atom     7 has atomic number  6 and mass  12.00000
 Atom     8 has atomic number  6 and mass  12.00000
 Molecular mass:    52.03130 amu.
 Principal axes and moments of inertia in atomic units:
                           1         2         3
     Eigenvalues --    53.61109 363.55317 405.96869
           X            0.82570   0.56411   0.00000
           Y           -0.56411   0.82570   0.00000
           Z           -0.00000   0.00000   1.00000
 This molecule is an asymmetric top.
 Rotational symmetry number  1.
 Rotational temperatures (Kelvin)      1.61560     0.23824     0.21335
 Rotational constants (GHZ):          33.66358     4.96417     4.44552
 Zero-point vibrational energy     150915.6 (Joules/Mol)
                                   36.06969 (Kcal/Mol)
 Warning -- explicit consideration of   5 degrees of freedom as
           vibrations may cause significant error
 Vibrational temperatures:    127.32   296.00   620.01   812.05   822.53
          (Kelvin)           1208.91  1456.66  1486.87  1595.84  1795.59
                             1995.74  2071.02  2125.84  2168.76  4334.17
                             4397.48  4483.88  4503.24
 
 Zero-point correction=                           0.057481 (Hartree/Particle)
 Thermal correction to Energy=                    0.062457
 Thermal correction to Enthalpy=                  0.063401
 Thermal correction to Gibbs Free Energy=         0.029341
 Sum of electronic and zero-point Energies=           -154.593772
 Sum of electronic and thermal Energies=              -154.588796
 Sum of electronic and thermal Enthalpies=            -154.587852
 Sum of electronic and thermal Free Energies=         -154.621912
 
                     E (Thermal)             CV                S
                      KCal/Mol        Cal/Mol-Kelvin    Cal/Mol-Kelvin
 Total                   39.192             15.452             71.685
 Electronic               0.000              0.000              2.183
 Translational            0.889              2.981             37.771
 Rotational               0.889              2.981             23.585
 Vibrational             37.415              9.491              8.146
 Vibration     1          0.601              1.957              3.693
 Vibration     2          0.640              1.832              2.081
 Vibration     3          0.792              1.403              0.856
 Vibration     4          0.920              1.108              0.515
 Vibration     5          0.928              1.092              0.501
                       Q            Log10(Q)             Ln(Q)
 Total Bot       0.319333D-13        -13.495756        -31.075127
 Total V=0       0.877964D+13         12.943477         29.803456
 Vib (Bot)       0.226603D-25        -25.644734        -59.049181
 Vib (Bot)    1  0.232405D+01          0.366246          0.843312
 Vib (Bot)    2  0.967064D+00         -0.014545         -0.033490
 Vib (Bot)    3  0.404042D+00         -0.393573         -0.906236
 Vib (Bot)    4  0.274194D+00         -0.561942         -1.293920
 Vib (Bot)    5  0.268763D+00         -0.570631         -1.313927
 Vib (V=0)       0.623016D+01          0.794499          1.829402
 Vib (V=0)    1  0.287723D+01          0.458974          1.056827
 Vib (V=0)    2  0.158868D+01          0.201035          0.462900
 Vib (V=0)    3  0.114285D+01          0.057987          0.133521
 Vib (V=0)    4  0.107025D+01          0.029484          0.067890
 Vib (V=0)    5  0.106766D+01          0.028431          0.065466
 Electronic      0.300000D+01          0.477121          1.098612
 Translational   0.147520D+08          7.168852         16.506892
 Rotational      0.318423D+05          4.503004         10.368550
 
                                                                 min
                                                             IR Spectrum
 
     33 3 3                                                            1 11 1     1    1  11                                         
     11 0 0                                                            5 44 3     2    1  00      8          55    4        2        
     31 5 1                                                            0 73 8     4    0  31      4          76    3        0    8   
     06 6 2                                                            7 89 7     8    9  32      0          24    1        6    8   
 
     XX X X                                                            X XX X     X    X  XX      X          XX    X        X        
                                                                       X  X X     X    X  X       X          X                       
                                                                       X  X X     X    X  X       X                                  
                                                                       X  X       X    X  X       X                                  
                                                                       X  X       X    X  X       X                                  
                                                                       X  X       X       X                                          
                                                                                  X       X                                          
                                                                                  X       X                                          
                                                                                  X       X                                          
                                                                                  X       X                                          
                                                                                  X       X                                          
                                                                                  X                                                  
                                                                                  X                                                  
                                                                                  X                                                  
                                                                                  X                                                  
                                                                                  X                                                  
                                                                                  X                                                  
                                                                                  X                                                  
                                                                                  X                                                  
                                                                                  X                                                  
 
 ***** Axes restored to original set *****
 -------------------------------------------------------------------
 Center     Atomic                   Forces (Hartrees/Bohr)
 Number     Number              X              Y              Z
 -------------------------------------------------------------------
      1        6           0.000222177   -0.000191527    0.000000000
      2        1          -0.000102543    0.000069118   -0.000021232
      3        1           0.000009219    0.000087138   -0.000000000
      4        1          -0.000102543    0.000069118    0.000021232
      5        6           0.000030507   -0.000044235    0.000000000
      6        1          -0.000011037    0.000000397    0.000000000
      7        6          -0.000077102    0.000044789   -0.000000000
      8        6           0.000031322   -0.000034798    0.000000000
 -------------------------------------------------------------------
 Cartesian Forces:  Max     0.000222177 RMS     0.000075928
 Z-matrix is all fixed cartesians, so copy forces.
 Force constants in Cartesian coordinates: 
                1             2             3             4             5 
      1  0.486189D+00
      2 -0.556850D-01  0.537022D+00
      3  0.000000D+00  0.000000D+00  0.509461D+00
      4 -0.122277D+00  0.260289D-01  0.121090D+00  0.138955D+00
      5  0.224386D-01 -0.531701D-01 -0.296872D-01 -0.214602D-01  0.532933D-01
      6  0.117697D+00 -0.326997D-01 -0.211344D+00 -0.129983D+00  0.353801D-01
      7 -0.768721D-01  0.871780D-01  0.000000D+00 -0.590613D-02  0.163228D-01
      8  0.830745D-01 -0.288321D+00  0.000000D+00  0.123727D-02 -0.279444D-02
      9  0.000000D+00  0.000000D+00 -0.473970D-01  0.788151D-02 -0.254104D-01
     10 -0.122277D+00  0.260289D-01 -0.121090D+00  0.110357D-01 -0.249034D-02
     11  0.224386D-01 -0.531701D-01  0.296872D-01 -0.249034D-02  0.715504D-03
     12 -0.117697D+00  0.326997D-01 -0.211344D+00 -0.147729D-01  0.467439D-02
     13 -0.135708D+00 -0.602303D-01  0.000000D+00 -0.230478D-01 -0.146727D-01
     14 -0.656022D-01 -0.131437D+00  0.000000D+00 -0.142219D-02  0.229688D-02
     15  0.000000D+00  0.000000D+00 -0.514653D-01  0.166401D-01  0.155348D-01
     16  0.668714D-02 -0.241149D-01  0.000000D+00  0.859984D-03  0.784050D-03
     17  0.508722D-02 -0.156986D-01  0.000000D+00  0.144467D-03  0.607157D-03
     18  0.000000D+00  0.000000D+00  0.468897D-02 -0.119237D-02 -0.673171D-03
     19 -0.507954D-01 -0.101215D-01  0.000000D+00  0.399904D-02 -0.116969D-02
     20 -0.402146D-02  0.128710D-01  0.000000D+00 -0.438409D-02 -0.128678D-02
     21  0.000000D+00  0.000000D+00  0.754650D-02  0.522754D-03  0.517694D-03
     22  0.150528D-01  0.109159D-01  0.000000D+00 -0.361915D-02  0.247462D-03
     23 -0.773028D-02 -0.809567D-02  0.000000D+00  0.234622D-02  0.338524D-03
     24  0.000000D+00  0.000000D+00 -0.144916D-03 -0.186147D-03 -0.336308D-03
                6             7             8             9            10 
      6  0.229622D+00
      7 -0.166281D-02  0.839225D-01
      8 -0.143317D-03 -0.886397D-01  0.312581D+00
      9  0.948832D-03  0.000000D+00  0.000000D+00  0.454688D-01
     10  0.147729D-01 -0.590613D-02  0.123727D-02 -0.788151D-02  0.138955D+00
     11 -0.467439D-02  0.163228D-01 -0.279444D-02  0.254104D-01 -0.214602D-01
     12 -0.227162D-01  0.166281D-02  0.143316D-03  0.948833D-03  0.129983D+00
     13 -0.396492D-03  0.600821D-02  0.446422D-02  0.000000D+00 -0.230478D-01
     14  0.109512D-02 -0.259883D-01 -0.183598D-01  0.000000D+00 -0.142219D-02
     15  0.412342D-02  0.000000D+00  0.000000D+00 -0.126458D-02 -0.166401D-01
     16  0.517364D-03 -0.370838D-02 -0.298797D-02  0.000000D+00  0.859983D-03
     17  0.407640D-03 -0.317959D-02 -0.867419D-03  0.000000D+00  0.144468D-03
     18  0.365106D-03  0.000000D+00  0.000000D+00  0.143599D-02  0.119237D-02
     19 -0.683738D-03 -0.210161D-03  0.175128D-02  0.000000D+00  0.399903D-02
     20  0.389975D-03 -0.889157D-03  0.197209D-03  0.000000D+00 -0.438409D-02
     21 -0.992724D-03  0.000000D+00  0.000000D+00  0.123496D-04 -0.522753D-03
     22 -0.261535D-03  0.267220D-02 -0.136834D-03  0.000000D+00 -0.361914D-02
     23  0.244594D-03 -0.112683D-02  0.359712D-03  0.000000D+00  0.234621D-02
     24 -0.561517D-05  0.000000D+00  0.000000D+00 -0.153188D-03  0.186146D-03
               11            12            13            14            15 
     11  0.532933D-01
     12 -0.353801D-01  0.229622D+00
     13 -0.146727D-01  0.396493D-03  0.609662D+00
     14  0.229688D-02 -0.109512D-02 -0.604650D-01  0.532425D+00
     15 -0.155348D-01  0.412342D-02  0.000000D+00  0.000000D+00  0.864042D-01
     16  0.784050D-03 -0.517365D-03 -0.570334D-01  0.591922D-01  0.000000D+00
     17  0.607157D-03 -0.407639D-03  0.534625D-01 -0.308294D+00  0.000000D+00
     18  0.673171D-03  0.365107D-03  0.000000D+00  0.000000D+00 -0.190248D-01
     19 -0.116970D-02  0.683727D-03 -0.300131D+00  0.629883D-01  0.000000D+00
     20 -0.128678D-02 -0.389968D-03  0.468725D-01 -0.825006D-01  0.000000D+00
     21 -0.517694D-03 -0.992722D-03  0.000000D+00  0.000000D+00 -0.315155D-01
     22  0.247475D-03  0.261546D-03 -0.767026D-01  0.327195D-01  0.000000D+00
     23  0.338518D-03 -0.244599D-03  0.452415D-01  0.357368D-02  0.000000D+00
     24  0.336309D-03 -0.561726D-05  0.000000D+00  0.000000D+00  0.861918D-02
               16            17            18            19            20 
     16  0.650233D-01
     17 -0.614909D-01  0.331853D+00
     18  0.000000D+00  0.000000D+00  0.967855D-02
     19 -0.533692D-02  0.943342D-02  0.000000D+00  0.518405D+00
     20  0.268321D-01 -0.100642D-01  0.000000D+00 -0.148112D+00  0.167664D+00
     21  0.000000D+00  0.000000D+00 -0.168875D-02  0.000000D+00  0.000000D+00
     22 -0.735177D-02 -0.360156D-02  0.000000D+00 -0.169929D+00  0.880859D-01
     23  0.100139D-02  0.185758D-02  0.000000D+00  0.863996D-01 -0.855935D-01
     24  0.000000D+00  0.000000D+00  0.417982D-02  0.000000D+00  0.000000D+00
               21            22            23            24 
     21  0.551614D-01
     22  0.000000D+00  0.243497D+00
     23  0.000000D+00 -0.128478D+00  0.872212D-01
     24 -0.275305D-01  0.000000D+00  0.000000D+00  0.150409D-01
 Leave Link  716 at Sun Mar  4 21:20:11 2018, MaxMem=    33554432 cpu:         0.0
 (Enter /apl/tryton/gaussian/09/d01/g09/l103.exe)

 GradGradGradGradGradGradGradGradGradGradGradGradGradGradGradGradGradGrad
 Berny optimization.
 Search for a local minimum.
 Step number   1 out of a maximum of    2
 All quantities printed in internal units (Hartrees-Bohrs-Radians)
 Second derivative matrix not updated -- analytic derivatives used.
 ITU=  0
     Eigenvalues ---    0.00040   0.00855   0.02215   0.04021   0.06192
     Eigenvalues ---    0.08146   0.08983   0.09989   0.11546   0.13343
     Eigenvalues ---    0.15905   0.23270   0.44664   0.61904   0.68909
     Eigenvalues ---    0.72761   0.81577   0.96169
 Angle between quadratic step and forces=  52.07 degrees.
 ClnCor:  largest displacement from symmetrization is 7.75D-10 for atom     4.
 Linear search not attempted -- first point.
 ClnCor:  largest displacement from symmetrization is 4.97D-16 for atom     1.
 TrRot=  0.000119 -0.000054  0.000000  0.000012  0.000000  0.000012
 Variable       Old X    -DE/DX   Delta X   Delta X   Delta X     New X
                                 (Linear)    (Quad)   (Total)
    X1       -2.90727   0.00022   0.00000   0.00041   0.00055  -2.90672
    Y1       -0.71222  -0.00019   0.00000  -0.00038  -0.00050  -0.71272
    Z1        0.00000   0.00000   0.00000   0.00000   0.00000   0.00000
    X2       -4.09998  -0.00010   0.00000  -0.00069  -0.00056  -4.10053
    Y2       -0.41860   0.00007   0.00000   0.00079   0.00064  -0.41796
    Z2        1.66648  -0.00002   0.00000  -0.00073  -0.00073   1.66575
    X3       -2.25374   0.00001   0.00000   0.00022   0.00040  -2.25334
    Y3       -2.66533   0.00009   0.00000  -0.00012  -0.00023  -2.66556
    Z3        0.00000  -0.00000   0.00000   0.00000   0.00000   0.00000
    X4       -4.09998  -0.00010   0.00000  -0.00069  -0.00056  -4.10053
    Y4       -0.41860   0.00007   0.00000   0.00079   0.00064  -0.41796
    Z4       -1.66648   0.00002   0.00000   0.00073   0.00073  -1.66575
    X5       -0.72784   0.00003   0.00000   0.00008   0.00017  -0.72767
    Y5        1.11004  -0.00004   0.00000  -0.00025  -0.00032   1.10972
    Z5        0.00000   0.00000   0.00000   0.00000   0.00000   0.00000
    X6       -1.13786  -0.00001   0.00000  -0.00046  -0.00042  -1.13828
    Y6        3.12611   0.00000   0.00000  -0.00035  -0.00043   3.12569
    Z6        0.00000   0.00000   0.00000   0.00000   0.00000   0.00000
    X7        1.74299  -0.00008   0.00000   0.00007   0.00018   1.74317
    Y7        0.45030   0.00004   0.00000   0.00021   0.00020   0.45050
    Z7        0.00000  -0.00000   0.00000   0.00000   0.00000   0.00000
    X8        3.82824   0.00003   0.00000   0.00010   0.00023   3.82848
    Y8       -0.78821  -0.00003   0.00000  -0.00003   0.00000  -0.78821
    Z8        0.00000   0.00000   0.00000   0.00000   0.00000   0.00000
         Item               Value     Threshold  Converged?
 Maximum Force            0.000222     0.000450     YES
 RMS     Force            0.000076     0.000300     YES
 Maximum Displacement     0.000730     0.001800     YES
 RMS     Displacement     0.000402     0.001200     YES
 Predicted change in Energy=-2.293335D-07
 Optimization completed.
    -- Stationary point found.
 GradGradGradGradGradGradGradGradGradGradGradGradGradGradGradGradGradGrad

 Leave Link  103 at Sun Mar  4 21:20:11 2018, MaxMem=    33554432 cpu:         0.0
 (Enter /apl/tryton/gaussian/09/d01/g09/l9999.exe)
 1\1\ CITASK-GV2542\Freq\UB3LYP\6-311++G(d,p)\C4H4(3)\EERD\04-Mar-2018\
 0\\#p b3lyp/6-311++g(d,p) freq\\min\\0,3\C,-1.538461,-0.376889,0.\H,-2
 .169614,-0.221511,0.881864\H,-1.192626,-1.410431,0.\H,-2.169614,-0.221
 511,-0.881864\C,-0.385157,0.587406,0.\H,-0.602132,1.654268,0.\C,0.9223
 5,0.238289,0.\C,2.025819,-0.417103,0.\\Version=ES64L-G09RevD.01\State=
 3-A"\HF=-154.6512524\S2=2.026619\S2-1=0.\S2A=2.000244\RMSD=5.711e-09\R
 MSF=7.593e-05\ZeroPoint=0.0574807\Thermal=0.0624565\Dipole=-1.0100109,
 0.480051,0.\DipoleDeriv=0.1733994,-0.036199,0.,0.2241317,-0.0126022,0.
 ,0.0000012,-0.0000005,0.0581945,-0.070995,0.0065287,0.0845416,-0.05855
 55,0.0680805,-0.0312777,0.1045589,-0.0190284,-0.0290347,0.038702,0.059
 0833,0.,-0.0169697,-0.0669659,0.,-0.0000002,0.,0.0856956,-0.070995,0.0
 065287,-0.0845416,-0.0585554,0.0680805,0.0312777,-0.1045588,0.0190284,
 -0.0290347,-0.1998598,0.1955141,-0.0000002,-0.0104337,0.1899182,0.,0.0
 000009,-0.0000004,-0.1976226,0.0393003,0.0075308,0.,-0.0746541,0.01252
 39,0.,0.,0.,0.2386195,2.840162,-1.2681812,0.,-1.3231809,0.3711152,0.00
 00001,-0.0000023,0.0000011,-0.0038938,-2.7497139,1.0291946,0.0000002,1
 .3182176,-0.6301502,-0.0000002,0.0000002,-0.0000002,-0.1229238\Polar=9
 6.1483277,-22.2429449,45.2661978,-0.0000026,0.0000011,33.8005374\PG=CS
  [SG(C4H2),X(H2)]\NImag=0\\0.48618866,-0.05568496,0.53702234,0.,0.,0.5
 0946067,-0.12227667,0.02602890,0.12108986,0.13895495,0.02243860,-0.053
 17010,-0.02968716,-0.02146023,0.05329326,0.11769722,-0.03269975,-0.211
 34445,-0.12998287,0.03538013,0.22962163,-0.07687215,0.08717797,0.,-0.0
 0590613,0.01632285,-0.00166281,0.08392255,0.08307450,-0.28832138,0.,0.
 00123727,-0.00279444,-0.00014332,-0.08863975,0.31258058,0.,0.,-0.04739
 700,0.00788151,-0.02541037,0.00094883,0.,0.,0.04546876,-0.12227667,0.0
 2602890,-0.12108986,0.01103574,-0.00249034,0.01477286,-0.00590613,0.00
 123727,-0.00788151,0.13895495,0.02243860,-0.05317010,0.02968716,-0.002
 49034,0.00071550,-0.00467439,0.01632285,-0.00279444,0.02541037,-0.0214
 6023,0.05329326,-0.11769722,0.03269975,-0.21134445,-0.01477286,0.00467
 439,-0.02271621,0.00166281,0.00014332,0.00094883,0.12998287,-0.0353801
 3,0.22962163,-0.13570772,-0.06023027,0.,-0.02304776,-0.01467271,-0.000
 39649,0.00600821,0.00446422,0.,-0.02304776,-0.01467270,0.00039649,0.60
 966234,-0.06560222,-0.13143741,0.,-0.00142219,0.00229688,0.00109512,-0
 .02598834,-0.01835982,0.,-0.00142219,0.00229688,-0.00109512,-0.0604650
 5,0.53242465,0.,0.,-0.05146534,0.01664012,0.01553480,0.00412342,0.,0.,
 -0.00126458,-0.01664012,-0.01553480,0.00412342,0.,0.,0.08640420,0.0066
 8714,-0.02411494,0.,0.00085998,0.00078405,0.00051736,-0.00370838,-0.00
 298797,0.,0.00085998,0.00078405,-0.00051736,-0.05703338,0.05919216,0.,
 0.06502335,0.00508722,-0.01569864,0.,0.00014447,0.00060716,0.00040764,
 -0.00317959,-0.00086742,0.,0.00014447,0.00060716,-0.00040764,0.0534624
 7,-0.30829422,0.,-0.06149089,0.33185257,0.,0.,0.00468897,-0.00119237,-
 0.00067317,0.00036511,0.,0.,0.00143599,0.00119237,0.00067317,0.0003651
 1,0.,0.,-0.01902480,0.,0.,0.00967855,-0.05079543,-0.01012151,-0.000000
 13,0.00399904,-0.00116969,-0.00068374,-0.00021016,0.00175128,0.0000000
 2,0.00399903,-0.00116970,0.00068373,-0.30013133,0.06298833,-0.00000010
 ,-0.00533692,0.00943342,-0.00000002,0.51840469,-0.00402146,0.01287097,
 0.00000006,-0.00438409,-0.00128678,0.00038998,-0.00088916,0.00019721,-
 0.00000001,-0.00438409,-0.00128678,-0.00038997,0.04687250,-0.08250064,
 0.00000006,0.02683214,-0.01006419,0.00000001,-0.14811175,0.16766375,0.
 ,0.00000001,0.00754650,0.00052275,0.00051769,-0.00099272,0.,0.,0.00001
 235,-0.00052275,-0.00051769,-0.00099272,-0.00000002,0.,-0.03151550,0.,
 0.,-0.00168875,0.00000031,-0.00000016,0.05516139,0.01505283,0.01091593
 ,0.00000012,-0.00361915,0.00024746,-0.00026153,0.00267220,-0.00013683,
 -0.00000002,-0.00361914,0.00024747,0.00026155,-0.07670261,0.03271949,0
 .00000010,-0.00735177,-0.00360156,0.00000002,-0.16992893,0.08808591,-0
 .00000030,0.24349657,-0.00773028,-0.00809567,-0.00000007,0.00234622,0.
 00033852,0.00024459,-0.00112683,0.00035971,0.00000001,0.00234621,0.000
 33852,-0.00024460,0.04524155,0.00357368,-0.00000006,0.00100139,0.00185
 758,0.,0.08639962,-0.08559353,0.00000016,-0.12847788,0.08722119,0.,0.,
 -0.00014492,-0.00018615,-0.00033631,-0.00000562,0.,0.,-0.00015319,0.00
 018615,0.00033631,-0.00000562,0.,0.,0.00861918,0.,0.,0.00417982,-0.000
 00006,0.00000004,-0.02753054,0.00000006,-0.00000003,0.01504088\\-0.000
 22218,0.00019153,0.,0.00010254,-0.00006912,0.00002123,-0.00000922,-0.0
 0008714,0.,0.00010254,-0.00006912,-0.00002123,-0.00003051,0.00004424,0
 .,0.00001104,-0.00000040,0.,0.00007710,-0.00004479,0.,-0.00003132,0.00
 003480,0.\\\@


 ... A MOLECULAR SYSTEM ... (PASSES) ... FROM ONE STATE OF EQUILIBRIUM 
 TO ANOTHER ... BY MEANS OF ALL POSSIBLE INTERMEDIATE PATHS, 
 BUT THE PATH MOST ECONOMICAL OF ENERGY WILL BE THE MORE OFTEN TRAVELED.

                      -- HENRY EYRING, 1945
 Job cpu time:       0 days  0 hours  2 minutes 50.0 seconds.
 File lengths (MBytes):  RWF=     25 Int=      0 D2E=      0 Chk=      2 Scr=      1
 Normal termination of Gaussian 09 at Sun Mar  4 21:20:11 2018.
