 Entering Gaussian System, Link 0=g09
 Initial command:
 /apl/tryton/gaussian/09/d01/g09/l1.exe "/users/work/eerd/M3C-outputs/ionized/9/Gau-15826.inp" -scrdir="/users/work/eerd/M3C-outputs/ionized/9/"
 Entering Link 1 = /apl/tryton/gaussian/09/d01/g09/l1.exe PID=     15827.
  
 Copyright (c) 1988,1990,1992,1993,1995,1998,2003,2009,2013,
            Gaussian, Inc.  All Rights Reserved.
  
 This is part of the Gaussian(R) 09 program.  It is based on
 the Gaussian(R) 03 system (copyright 2003, Gaussian, Inc.),
 the Gaussian(R) 98 system (copyright 1998, Gaussian, Inc.),
 the Gaussian(R) 94 system (copyright 1995, Gaussian, Inc.),
 the Gaussian 92(TM) system (copyright 1992, Gaussian, Inc.),
 the Gaussian 90(TM) system (copyright 1990, Gaussian, Inc.),
 the Gaussian 88(TM) system (copyright 1988, Gaussian, Inc.),
 the Gaussian 86(TM) system (copyright 1986, Carnegie Mellon
 University), and the Gaussian 82(TM) system (copyright 1983,
 Carnegie Mellon University). Gaussian is a federally registered
 trademark of Gaussian, Inc.
  
 This software contains proprietary and confidential information,
 including trade secrets, belonging to Gaussian, Inc.
  
 This software is provided under written license and may be
 used, copied, transmitted, or stored only in accord with that
 written license.
  
 The following legend is applicable only to US Government
 contracts under FAR:
  
                    RESTRICTED RIGHTS LEGEND
  
 Use, reproduction and disclosure by the US Government is
 subject to restrictions as set forth in subparagraphs (a)
 and (c) of the Commercial Computer Software - Restricted
 Rights clause in FAR 52.227-19.
  
 Gaussian, Inc.
 340 Quinnipiac St., Bldg. 40, Wallingford CT 06492
  
  
 ---------------------------------------------------------------
 Warning -- This program may not be used in any manner that
 competes with the business of Gaussian, Inc. or will provide
 assistance to any competitor of Gaussian, Inc.  The licensee
 of this program is prohibited from giving any competitor of
 Gaussian, Inc. access to this program.  By using this program,
 the user acknowledges that Gaussian, Inc. is engaged in the
 business of creating and licensing software in the field of
 computational chemistry and represents and warrants to the
 licensee that it is not a competitor of Gaussian, Inc. and that
 it will not use this program in any manner prohibited above.
 ---------------------------------------------------------------
  

 Cite this work as:
 Gaussian 09, Revision D.01,
 M. J. Frisch, G. W. Trucks, H. B. Schlegel, G. E. Scuseria, 
 M. A. Robb, J. R. Cheeseman, G. Scalmani, V. Barone, B. Mennucci, 
 G. A. Petersson, H. Nakatsuji, M. Caricato, X. Li, H. P. Hratchian, 
 A. F. Izmaylov, J. Bloino, G. Zheng, J. L. Sonnenberg, M. Hada, 
 M. Ehara, K. Toyota, R. Fukuda, J. Hasegawa, M. Ishida, T. Nakajima, 
 Y. Honda, O. Kitao, H. Nakai, T. Vreven, J. A. Montgomery, Jr., 
 J. E. Peralta, F. Ogliaro, M. Bearpark, J. J. Heyd, E. Brothers, 
 K. N. Kudin, V. N. Staroverov, T. Keith, R. Kobayashi, J. Normand, 
 K. Raghavachari, A. Rendell, J. C. Burant, S. S. Iyengar, J. Tomasi, 
 M. Cossi, N. Rega, J. M. Millam, M. Klene, J. E. Knox, J. B. Cross, 
 V. Bakken, C. Adamo, J. Jaramillo, R. Gomperts, R. E. Stratmann, 
 O. Yazyev, A. J. Austin, R. Cammi, C. Pomelli, J. W. Ochterski, 
 R. L. Martin, K. Morokuma, V. G. Zakrzewski, G. A. Voth, 
 P. Salvador, J. J. Dannenberg, S. Dapprich, A. D. Daniels, 
 O. Farkas, J. B. Foresman, J. V. Ortiz, J. Cioslowski, 
 and D. J. Fox, Gaussian, Inc., Wallingford CT, 2013.
 
 ******************************************
 Gaussian 09:  ES64L-G09RevD.01 24-Apr-2013
                24-Jan-2019 
 ******************************************
 ---------------------------
 #p b3lyp/6-311++g(d,p) freq
 ---------------------------
 1/10=4,30=1,38=1/1,3;
 2/12=2,17=6,18=5,40=1/2;
 3/5=4,6=6,7=1111,11=2,16=1,25=1,30=1,71=2,74=-5,140=1/1,2,3;
 4//1;
 5/5=2,38=5,98=1/2;
 8/6=4,10=90,11=11/1;
 11/6=1,8=1,9=11,15=111,16=1/1,2,10;
 10/6=1/2;
 6/7=2,8=2,9=2,10=2,18=1,28=1/1;
 7/8=1,10=1,25=1/1,2,3,16;
 1/10=4,30=1/3;
 99//99;
 Leave Link    1 at Thu Jan 24 16:11:09 2019, MaxMem=           0 cpu:         0.0
 (Enter /apl/tryton/gaussian/09/d01/g09/l101.exe)
 ---
 min
 ---
 Symbolic Z-matrix:
 Charge =  1 Multiplicity = 2
 C                     0.33496  -1.25643   0.65961 
 C                    -0.00947   0.63176  -0.84955 
 O                    -0.45815  -0.86834   1.5961 
 C                    -0.53089   1.69832  -1.13779 
 C                     0.58786  -0.56727  -0.54465 
 H                     0.82224  -2.20333   0.87353 
 H                    -0.90367  -0.01734   1.41695 
 H                    -0.98044   2.63291  -1.40302 
 H                     1.28474  -1.01725  -1.24606 
 
 NAtoms=      9 NQM=        9 NQMF=       0 NMMI=      0 NMMIF=      0
                NMic=       0 NMicF=      0.
                    Isotopes and Nuclear Properties:
 (Nuclear quadrupole moments (NQMom) in fm**2, nuclear magnetic moments (NMagM)
  in nuclear magnetons)

  Atom         1           2           3           4           5           6           7           8           9
 IAtWgt=          12          12          16          12          12           1           1           1           1
 AtmWgt=  12.0000000  12.0000000  15.9949146  12.0000000  12.0000000   1.0078250   1.0078250   1.0078250   1.0078250
 NucSpn=           0           0           0           0           0           1           1           1           1
 AtZEff=   0.0000000   0.0000000   0.0000000   0.0000000   0.0000000   0.0000000   0.0000000   0.0000000   0.0000000
 NQMom=    0.0000000   0.0000000   0.0000000   0.0000000   0.0000000   0.0000000   0.0000000   0.0000000   0.0000000
 NMagM=    0.0000000   0.0000000   0.0000000   0.0000000   0.0000000   2.7928460   2.7928460   2.7928460   2.7928460
 AtZNuc=   6.0000000   6.0000000   8.0000000   6.0000000   6.0000000   1.0000000   1.0000000   1.0000000   1.0000000
 Leave Link  101 at Thu Jan 24 16:11:09 2019, MaxMem=    33554432 cpu:         0.1
 (Enter /apl/tryton/gaussian/09/d01/g09/l103.exe)

 GradGradGradGradGradGradGradGradGradGradGradGradGradGradGradGradGradGrad
 Berny optimization.
 Initialization pass.
 Trust Radius=3.00D-01 FncErr=1.00D-07 GrdErr=1.00D-07
 Number of steps in this run=      2 maximum allowed number of steps=      2.
 GradGradGradGradGradGradGradGradGradGradGradGradGradGradGradGradGradGrad

 Leave Link  103 at Thu Jan 24 16:11:09 2019, MaxMem=    33554432 cpu:         0.0
 (Enter /apl/tryton/gaussian/09/d01/g09/l202.exe)
                          Input orientation:                          
 ---------------------------------------------------------------------
 Center     Atomic      Atomic             Coordinates (Angstroms)
 Number     Number       Type             X           Y           Z
 ---------------------------------------------------------------------
      1          6           0        0.334963   -1.256427    0.659609
      2          6           0       -0.009466    0.631757   -0.849546
      3          8           0       -0.458146   -0.868339    1.596101
      4          6           0       -0.530888    1.698324   -1.137790
      5          6           0        0.587859   -0.567270   -0.544649
      6          1           0        0.822238   -2.203334    0.873528
      7          1           0       -0.903665   -0.017337    1.416954
      8          1           0       -0.980437    2.632911   -1.403017
      9          1           0        1.284740   -1.017251   -1.246059
 ---------------------------------------------------------------------
                    Distance matrix (angstroms):
                    1          2          3          4          5
     1  C    0.000000
     2  C    2.441602   0.000000
     3  O    1.287110   2.903927   0.000000
     4  C    3.565234   1.221692   3.750628   0.000000
     5  C    1.410366   1.373836   2.401579   2.595444   0.000000
     6  H    1.086200   3.420301   1.985877   4.593396   2.177812
     7  H    1.908695   2.521495   0.977131   3.099866   2.524868
     8  H    4.594742   2.292102   4.639639   1.070464   3.665720
     9  H    2.142627   2.133406   3.337319   3.268421   1.086325
                    6          7          8          9
     6  H    0.000000
     7  H    2.837717   0.000000
     8  H    5.641060   3.870652   0.000000
     9  H    2.472519   3.588953   4.298761   0.000000
 Stoichiometry    C4H4O(1+,2)
 Framework group  C1[X(C4H4O)]
 Deg. of freedom    21
 Full point group                 C1      NOp   1
 Largest Abelian subgroup         C1      NOp   1
 Largest concise Abelian subgroup C1      NOp   1
                         Standard orientation:                         
 ---------------------------------------------------------------------
 Center     Atomic      Atomic             Coordinates (Angstroms)
 Number     Number       Type             X           Y           Z
 ---------------------------------------------------------------------
      1          6           0        1.293931    0.364216    0.000003
      2          6           0       -1.143012    0.213467   -0.000017
      3          8           0        1.539253   -0.899299    0.000000
      4          6           0       -2.181833   -0.429480    0.000003
      5          6           0        0.013370    0.955226    0.000001
      6          1           0        2.191077    0.976556    0.000004
      7          1           0        0.740816   -1.462579   -0.000003
      8          1           0       -3.099678   -0.980346    0.000036
      9          1           0       -0.040969    2.040191    0.000023
 ---------------------------------------------------------------------
 Rotational constants (GHZ):     13.8958362      3.4612091      2.7710012
 Leave Link  202 at Thu Jan 24 16:11:09 2019, MaxMem=    33554432 cpu:         0.0
 (Enter /apl/tryton/gaussian/09/d01/g09/l301.exe)
 Standard basis: 6-311++G(d,p) (5D, 7F)
 Ernie: Thresh=  0.10000D-02 Tol=  0.10000D-05 Strict=F.
 There are   143 symmetry adapted cartesian basis functions of A   symmetry.
 There are   138 symmetry adapted basis functions of A   symmetry.
   138 basis functions,   216 primitive gaussians,   143 cartesian basis functions
    18 alpha electrons       17 beta electrons
       nuclear repulsion energy       142.8080532966 Hartrees.
 IExCor=  402 DFT=T Ex+Corr=B3LYP ExCW=0 ScaHFX=  0.200000
 ScaDFX=  0.800000  0.720000  1.000000  0.810000 ScalE2=  1.000000  1.000000
 IRadAn=      0 IRanWt=     -1 IRanGd=            0 ICorTp=0 IEmpDi=  4
 NAtoms=    9 NActive=    9 NUniq=    9 SFac= 1.00D+00 NAtFMM=   60 NAOKFM=F Big=F
 Integral buffers will be    131072 words long.
 Raffenetti 2 integral format.
 Two-electron integral symmetry is turned on.
 Leave Link  301 at Thu Jan 24 16:11:09 2019, MaxMem=    33554432 cpu:         0.0
 (Enter /apl/tryton/gaussian/09/d01/g09/l302.exe)
 NPDir=0 NMtPBC=     1 NCelOv=     1 NCel=       1 NClECP=     1 NCelD=      1
         NCelK=      1 NCelE2=     1 NClLst=     1 CellRange=     0.0.
 One-electron integrals computed using PRISM.
 NBasis=   138 RedAO= T EigKep=  1.23D-06  NBF=   138
 NBsUse=   138 1.00D-06 EigRej= -1.00D+00 NBFU=   138
 Precomputing XC quadrature grid using
 IXCGrd= 4 IRadAn=           0 IRanWt=          -1 IRanGd=           0 AccXCQ= 0.00D+00.
 Generated NRdTot=       0 NPtTot=           0 NUsed=           0 NTot=          32
 NSgBfM=   143   143   143   143   143 MxSgAt=     9 MxSgA2=     9.
 Leave Link  302 at Thu Jan 24 16:11:09 2019, MaxMem=    33554432 cpu:         0.2
 (Enter /apl/tryton/gaussian/09/d01/g09/l303.exe)
 DipDrv:  MaxL=1.
 Leave Link  303 at Thu Jan 24 16:11:09 2019, MaxMem=    33554432 cpu:         0.0
 (Enter /apl/tryton/gaussian/09/d01/g09/l401.exe)
 ExpMin= 3.60D-02 ExpMax= 8.59D+03 ExpMxC= 1.30D+03 IAcc=3 IRadAn=         5 AccDes= 0.00D+00
 Harris functional with IExCor=  402 and IRadAn=       5 diagonalized for initial guess.
 HarFok:  IExCor=  402 AccDes= 0.00D+00 IRadAn=         5 IDoV= 1 UseB2=F ITyADJ=14
 ICtDFT=  3500011 ScaDFX=  1.000000  1.000000  1.000000  1.000000
 FoFCou: FMM=F IPFlag=           0 FMFlag=      100000 FMFlg1=           0
         NFxFlg=           0 DoJE=T BraDBF=F KetDBF=T FulRan=T
         wScrn=  0.000000 ICntrl=     500 IOpCl=  0 I1Cent=   200000004 NGrid=           0
         NMat0=    1 NMatS0=      1 NMatT0=    0 NMatD0=    1 NMtDS0=    0 NMtDT0=    0
 Petite list used in FoFCou.
 Harris En= -229.785113942307    
 JPrj=0 DoOrth=F DoCkMO=F.
 Initial guess <Sx>= 0.0000 <Sy>= 0.0000 <Sz>= 0.5000 <S**2>= 0.7500 S= 0.5000
 Leave Link  401 at Thu Jan 24 16:11:12 2019, MaxMem=    33554432 cpu:         3.0
 (Enter /apl/tryton/gaussian/09/d01/g09/l502.exe)
 UHF open shell SCF:
 Using DIIS extrapolation, IDIIS=  1040.
 Integral symmetry usage will be decided dynamically.
 IVT=       81819 IEndB=       81819 NGot=    33554432 MDV=    33509846
 LenX=    33509846 LenY=    33488956
 Requested convergence on RMS density matrix=1.00D-08 within 128 cycles.
 Requested convergence on MAX density matrix=1.00D-06.
 Requested convergence on             energy=1.00D-06.
 No special actions if energy rises.
 Fock matrices will be formed incrementally for  20 cycles.

 Cycle   1  Pass 1  IDiag  1:
 FoFJK:  IHMeth= 1 ICntrl=       0 DoSepK=F KAlg= 0 I1Cent=   0 FoldK=F
 IRaf= 980000000 NMat=   1 IRICut=       1 DoRegI=T DoRafI=F ISym2E= 0.
 FoFCou: FMM=F IPFlag=           0 FMFlag=      100000 FMFlg1=           0
         NFxFlg=           0 DoJE=F BraDBF=F KetDBF=F FulRan=T
         wScrn=  0.000000 ICntrl=       0 IOpCl=  1 I1Cent=           0 NGrid=           0
         NMat0=    1 NMatS0=      1 NMatT0=    0 NMatD0=    1 NMtDS0=    0 NMtDT0=    0
 Symmetry not used in FoFCou.
 E= -229.647336942611    
 DIIS: error= 3.11D-02 at cycle   1 NSaved=   1.
 NSaved= 1 IEnMin= 1 EnMin= -229.647336942611     IErMin= 1 ErrMin= 3.11D-02
 ErrMax= 3.11D-02  0.00D+00 EMaxC= 1.00D-01 BMatC= 3.67D-01 BMatP= 3.67D-01
 IDIUse=3 WtCom= 6.89D-01 WtEn= 3.11D-01
 Coeff-Com:  0.100D+01
 Coeff-En:   0.100D+01
 Coeff:      0.100D+01
 Gap=     0.182 Goal=   None    Shift=    0.000
 Gap=     0.077 Goal=   None    Shift=    0.000
 GapD=    0.077 DampG=0.500 DampE=0.500 DampFc=0.2500 IDamp=-1.
 Damping current iteration by 2.50D-01
 RMSDP=4.18D-02 MaxDP=3.19D+00              OVMax= 3.17D-01

 Cycle   2  Pass 1  IDiag  1:
 RMSU=  4.95D-03    CP:  1.08D+00
 E= -229.672820161435     Delta-E=       -0.025483218824 Rises=F Damp=T
 DIIS: error= 1.64D-02 at cycle   2 NSaved=   2.
 NSaved= 2 IEnMin= 2 EnMin= -229.672820161435     IErMin= 2 ErrMin= 1.64D-02
 ErrMax= 1.64D-02  0.00D+00 EMaxC= 1.00D-01 BMatC= 1.10D-01 BMatP= 3.67D-01
 IDIUse=3 WtCom= 8.36D-01 WtEn= 1.64D-01
 Coeff-Com: -0.877D+00 0.188D+01
 Coeff-En:   0.000D+00 0.100D+01
 Coeff:     -0.733D+00 0.173D+01
 Gap=     0.221 Goal=   None    Shift=    0.000
 Gap=     0.141 Goal=   None    Shift=    0.000
 RMSDP=1.92D-02 MaxDP=1.53D+00 DE=-2.55D-02 OVMax= 2.60D-01

 Cycle   3  Pass 1  IDiag  1:
 RMSU=  4.61D-03    CP:  1.21D+00  2.89D+00
 E= -229.709832958928     Delta-E=       -0.037012797493 Rises=F Damp=F
 DIIS: error= 1.40D-02 at cycle   3 NSaved=   3.
 NSaved= 3 IEnMin= 3 EnMin= -229.709832958928     IErMin= 3 ErrMin= 1.40D-02
 ErrMax= 1.40D-02  0.00D+00 EMaxC= 1.00D-01 BMatC= 4.43D-02 BMatP= 1.10D-01
 IDIUse=3 WtCom= 8.60D-01 WtEn= 1.40D-01
 Coeff-Com: -0.574D+00 0.107D+01 0.504D+00
 Coeff-En:   0.000D+00 0.000D+00 0.100D+01
 Coeff:     -0.494D+00 0.920D+00 0.574D+00
 Gap=     0.201 Goal=   None    Shift=    0.000
 Gap=     0.120 Goal=   None    Shift=    0.000
 RMSDP=4.81D-03 MaxDP=3.33D-01 DE=-3.70D-02 OVMax= 1.11D-01

 Cycle   4  Pass 1  IDiag  1:
 RMSU=  1.63D-03    CP:  1.18D+00  2.67D+00  6.85D-01
 E= -229.717811155638     Delta-E=       -0.007978196710 Rises=F Damp=F
 DIIS: error= 8.38D-03 at cycle   4 NSaved=   4.
 NSaved= 4 IEnMin= 4 EnMin= -229.717811155638     IErMin= 4 ErrMin= 8.38D-03
 ErrMax= 8.38D-03  0.00D+00 EMaxC= 1.00D-01 BMatC= 1.79D-02 BMatP= 4.43D-02
 IDIUse=3 WtCom= 9.16D-01 WtEn= 8.38D-02
 Coeff-Com: -0.242D+00 0.427D+00 0.401D+00 0.415D+00
 Coeff-En:   0.000D+00 0.000D+00 0.311D+00 0.689D+00
 Coeff:     -0.222D+00 0.391D+00 0.393D+00 0.437D+00
 Gap=     0.199 Goal=   None    Shift=    0.000
 Gap=     0.125 Goal=   None    Shift=    0.000
 RMSDP=1.12D-03 MaxDP=4.06D-02 DE=-7.98D-03 OVMax= 3.64D-02

 Cycle   5  Pass 1  IDiag  1:
 RMSU=  6.56D-04    CP:  1.18D+00  2.63D+00  7.35D-01  6.88D-01
 E= -229.722413928703     Delta-E=       -0.004602773065 Rises=F Damp=F
 DIIS: error= 2.25D-03 at cycle   5 NSaved=   5.
 NSaved= 5 IEnMin= 5 EnMin= -229.722413928703     IErMin= 5 ErrMin= 2.25D-03
 ErrMax= 2.25D-03  0.00D+00 EMaxC= 1.00D-01 BMatC= 1.41D-03 BMatP= 1.79D-02
 IDIUse=3 WtCom= 9.78D-01 WtEn= 2.25D-02
 Coeff-Com: -0.374D-01 0.536D-01 0.156D+00 0.281D+00 0.547D+00
 Coeff-En:   0.000D+00 0.000D+00 0.000D+00 0.212D-01 0.979D+00
 Coeff:     -0.366D-01 0.524D-01 0.152D+00 0.275D+00 0.556D+00
 Gap=     0.200 Goal=   None    Shift=    0.000
 Gap=     0.127 Goal=   None    Shift=    0.000
 RMSDP=5.74D-04 MaxDP=4.08D-02 DE=-4.60D-03 OVMax= 1.07D-02

 Cycle   6  Pass 1  IDiag  1:
 RMSU=  2.15D-04    CP:  1.18D+00  2.66D+00  7.48D-01  6.61D-01  8.46D-01
 E= -229.722779444484     Delta-E=       -0.000365515782 Rises=F Damp=F
 DIIS: error= 5.15D-04 at cycle   6 NSaved=   6.
 NSaved= 6 IEnMin= 6 EnMin= -229.722779444484     IErMin= 6 ErrMin= 5.15D-04
 ErrMax= 5.15D-04  0.00D+00 EMaxC= 1.00D-01 BMatC= 4.22D-05 BMatP= 1.41D-03
 IDIUse=3 WtCom= 9.95D-01 WtEn= 5.15D-03
 Coeff-Com:  0.104D-01-0.206D-01 0.862D-03 0.197D-01 0.136D+00 0.854D+00
 Coeff-En:   0.000D+00 0.000D+00 0.000D+00 0.000D+00 0.000D+00 0.100D+01
 Coeff:      0.103D-01-0.204D-01 0.858D-03 0.196D-01 0.135D+00 0.855D+00
 Gap=     0.201 Goal=   None    Shift=    0.000
 Gap=     0.128 Goal=   None    Shift=    0.000
 RMSDP=1.42D-04 MaxDP=5.71D-03 DE=-3.66D-04 OVMax= 4.18D-03

 Cycle   7  Pass 1  IDiag  1:
 RMSU=  1.18D-04    CP:  1.18D+00  2.67D+00  7.53D-01  6.55D-01  7.98D-01
                    CP:  1.01D+00
 E= -229.722808812346     Delta-E=       -0.000029367861 Rises=F Damp=F
 DIIS: error= 1.92D-04 at cycle   7 NSaved=   7.
 NSaved= 7 IEnMin= 7 EnMin= -229.722808812346     IErMin= 7 ErrMin= 1.92D-04
 ErrMax= 1.92D-04  0.00D+00 EMaxC= 1.00D-01 BMatC= 1.46D-05 BMatP= 4.22D-05
 IDIUse=3 WtCom= 9.98D-01 WtEn= 1.92D-03
 Coeff-Com:  0.109D-01-0.169D-01-0.328D-01-0.544D-01-0.752D-01 0.320D+00
 Coeff-Com:  0.849D+00
 Coeff-En:   0.000D+00 0.000D+00 0.000D+00 0.000D+00 0.000D+00 0.000D+00
 Coeff-En:   0.100D+01
 Coeff:      0.109D-01-0.169D-01-0.327D-01-0.543D-01-0.750D-01 0.319D+00
 Coeff:      0.849D+00
 Gap=     0.201 Goal=   None    Shift=    0.000
 Gap=     0.128 Goal=   None    Shift=    0.000
 RMSDP=8.84D-05 MaxDP=6.55D-03 DE=-2.94D-05 OVMax= 2.73D-03

 Cycle   8  Pass 1  IDiag  1:
 RMSU=  4.61D-05    CP:  1.18D+00  2.67D+00  7.55D-01  6.48D-01  7.97D-01
                    CP:  1.17D+00  1.45D+00
 E= -229.722819695174     Delta-E=       -0.000010882828 Rises=F Damp=F
 DIIS: error= 1.05D-04 at cycle   8 NSaved=   8.
 NSaved= 8 IEnMin= 8 EnMin= -229.722819695174     IErMin= 8 ErrMin= 1.05D-04
 ErrMax= 1.05D-04  0.00D+00 EMaxC= 1.00D-01 BMatC= 3.90D-06 BMatP= 1.46D-05
 IDIUse=3 WtCom= 9.99D-01 WtEn= 1.05D-03
 Coeff-Com:  0.245D-02-0.249D-02-0.173D-01-0.349D-01-0.798D-01-0.765D-01
 Coeff-Com:  0.410D+00 0.799D+00
 Coeff-En:   0.000D+00 0.000D+00 0.000D+00 0.000D+00 0.000D+00 0.000D+00
 Coeff-En:   0.000D+00 0.100D+01
 Coeff:      0.245D-02-0.249D-02-0.173D-01-0.349D-01-0.797D-01-0.764D-01
 Coeff:      0.409D+00 0.799D+00
 Gap=     0.201 Goal=   None    Shift=    0.000
 Gap=     0.128 Goal=   None    Shift=    0.000
 RMSDP=7.72D-05 MaxDP=4.91D-03 DE=-1.09D-05 OVMax= 1.81D-03

 Cycle   9  Pass 1  IDiag  1:
 RMSU=  2.46D-05    CP:  1.19D+00  2.66D+00  7.55D-01  6.42D-01  8.16D-01
                    CP:  1.33D+00  1.62D+00  1.25D+00
 E= -229.722823086448     Delta-E=       -0.000003391274 Rises=F Damp=F
 DIIS: error= 3.49D-05 at cycle   9 NSaved=   9.
 NSaved= 9 IEnMin= 9 EnMin= -229.722823086448     IErMin= 9 ErrMin= 3.49D-05
 ErrMax= 3.49D-05  0.00D+00 EMaxC= 1.00D-01 BMatC= 5.48D-07 BMatP= 3.90D-06
 IDIUse=1 WtCom= 1.00D+00 WtEn= 0.00D+00
 Coeff-Com: -0.113D-02 0.194D-02 0.318D-02 0.358D-02 0.180D-02-0.576D-01
 Coeff-Com: -0.128D+00 0.141D+00 0.103D+01
 Coeff:     -0.113D-02 0.194D-02 0.318D-02 0.358D-02 0.180D-02-0.576D-01
 Coeff:     -0.128D+00 0.141D+00 0.103D+01
 Gap=     0.201 Goal=   None    Shift=    0.000
 Gap=     0.128 Goal=   None    Shift=    0.000
 RMSDP=2.38D-05 MaxDP=1.30D-03 DE=-3.39D-06 OVMax= 8.18D-04

 Cycle  10  Pass 1  IDiag  1:
 RMSU=  1.18D-05    CP:  1.19D+00  2.66D+00  7.55D-01  6.40D-01  8.12D-01
                    CP:  1.35D+00  1.73D+00  1.44D+00  1.19D+00
 E= -229.722823683796     Delta-E=       -0.000000597347 Rises=F Damp=F
 DIIS: error= 2.30D-05 at cycle  10 NSaved=  10.
 NSaved=10 IEnMin=10 EnMin= -229.722823683796     IErMin=10 ErrMin= 2.30D-05
 ErrMax= 2.30D-05  0.00D+00 EMaxC= 1.00D-01 BMatC= 1.54D-07 BMatP= 5.48D-07
 IDIUse=1 WtCom= 1.00D+00 WtEn= 0.00D+00
 Coeff-Com: -0.109D-02 0.162D-02 0.367D-02 0.580D-02 0.994D-02-0.147D-01
 Coeff-Com: -0.111D+00-0.383D-01 0.444D+00 0.701D+00
 Coeff:     -0.109D-02 0.162D-02 0.367D-02 0.580D-02 0.994D-02-0.147D-01
 Coeff:     -0.111D+00-0.383D-01 0.444D+00 0.701D+00
 Gap=     0.201 Goal=   None    Shift=    0.000
 Gap=     0.128 Goal=   None    Shift=    0.000
 RMSDP=7.40D-06 MaxDP=2.35D-04 DE=-5.97D-07 OVMax= 2.78D-04

 Cycle  11  Pass 1  IDiag  1:
 RMSU=  4.86D-06    CP:  1.19D+00  2.67D+00  7.55D-01  6.40D-01  8.11D-01
                    CP:  1.35D+00  1.76D+00  1.50D+00  1.29D+00  1.12D+00
 E= -229.722823762962     Delta-E=       -0.000000079167 Rises=F Damp=F
 DIIS: error= 1.75D-05 at cycle  11 NSaved=  11.
 NSaved=11 IEnMin=11 EnMin= -229.722823762962     IErMin=11 ErrMin= 1.75D-05
 ErrMax= 1.75D-05  0.00D+00 EMaxC= 1.00D-01 BMatC= 9.57D-08 BMatP= 1.54D-07
 IDIUse=1 WtCom= 1.00D+00 WtEn= 0.00D+00
 Coeff-Com: -0.183D-03 0.115D-03 0.155D-02 0.348D-02 0.823D-02 0.125D-01
 Coeff-Com: -0.380D-01-0.854D-01-0.678D-01 0.519D+00 0.646D+00
 Coeff:     -0.183D-03 0.115D-03 0.155D-02 0.348D-02 0.823D-02 0.125D-01
 Coeff:     -0.380D-01-0.854D-01-0.678D-01 0.519D+00 0.646D+00
 Gap=     0.201 Goal=   None    Shift=    0.000
 Gap=     0.128 Goal=   None    Shift=    0.000
 RMSDP=4.86D-06 MaxDP=1.60D-04 DE=-7.92D-08 OVMax= 1.90D-04

 Cycle  12  Pass 1  IDiag  1:
 RMSU=  2.28D-06    CP:  1.19D+00  2.66D+00  7.55D-01  6.40D-01  8.13D-01
                    CP:  1.35D+00  1.75D+00  1.52D+00  1.38D+00  1.33D+00
                    CP:  8.22D-01
 E= -229.722823802883     Delta-E=       -0.000000039921 Rises=F Damp=F
 DIIS: error= 3.04D-06 at cycle  12 NSaved=  12.
 NSaved=12 IEnMin=12 EnMin= -229.722823802883     IErMin=12 ErrMin= 3.04D-06
 ErrMax= 3.04D-06  0.00D+00 EMaxC= 1.00D-01 BMatC= 3.49D-09 BMatP= 9.57D-08
 IDIUse=1 WtCom= 1.00D+00 WtEn= 0.00D+00
 Coeff-Com:  0.102D-03-0.164D-03-0.493D-03-0.636D-03-0.673D-03 0.309D-02
 Coeff-Com:  0.171D-01-0.341D-02-0.102D+00-0.454D-01 0.766D-01 0.106D+01
 Coeff:      0.102D-03-0.164D-03-0.493D-03-0.636D-03-0.673D-03 0.309D-02
 Coeff:      0.171D-01-0.341D-02-0.102D+00-0.454D-01 0.766D-01 0.106D+01
 Gap=     0.201 Goal=   None    Shift=    0.000
 Gap=     0.128 Goal=   None    Shift=    0.000
 RMSDP=1.69D-06 MaxDP=4.77D-05 DE=-3.99D-08 OVMax= 8.47D-05

 Cycle  13  Pass 1  IDiag  1:
 RMSU=  6.63D-07    CP:  1.19D+00  2.66D+00  7.55D-01  6.40D-01  8.13D-01
                    CP:  1.35D+00  1.76D+00  1.53D+00  1.39D+00  1.43D+00
                    CP:  9.42D-01  1.13D+00
 E= -229.722823807089     Delta-E=       -0.000000004207 Rises=F Damp=F
 DIIS: error= 9.04D-07 at cycle  13 NSaved=  13.
 NSaved=13 IEnMin=13 EnMin= -229.722823807089     IErMin=13 ErrMin= 9.04D-07
 ErrMax= 9.04D-07  0.00D+00 EMaxC= 1.00D-01 BMatC= 3.62D-10 BMatP= 3.49D-09
 IDIUse=1 WtCom= 1.00D+00 WtEn= 0.00D+00
 Coeff-Com:  0.508D-05 0.212D-05-0.166D-03-0.326D-03-0.721D-03-0.152D-02
 Coeff-Com:  0.514D-02 0.529D-02 0.770D-02-0.479D-01-0.752D-01 0.409D-01
 Coeff-Com:  0.107D+01
 Coeff:      0.508D-05 0.212D-05-0.166D-03-0.326D-03-0.721D-03-0.152D-02
 Coeff:      0.514D-02 0.529D-02 0.770D-02-0.479D-01-0.752D-01 0.409D-01
 Coeff:      0.107D+01
 Gap=     0.201 Goal=   None    Shift=    0.000
 Gap=     0.128 Goal=   None    Shift=    0.000
 RMSDP=7.40D-07 MaxDP=4.61D-05 DE=-4.21D-09 OVMax= 2.02D-05

 Cycle  14  Pass 1  IDiag  1:
 RMSU=  2.02D-07    CP:  1.19D+00  2.66D+00  7.55D-01  6.40D-01  8.13D-01
                    CP:  1.35D+00  1.76D+00  1.52D+00  1.39D+00  1.44D+00
                    CP:  9.65D-01  1.26D+00  1.16D+00
 E= -229.722823807392     Delta-E=       -0.000000000303 Rises=F Damp=F
 DIIS: error= 3.60D-07 at cycle  14 NSaved=  14.
 NSaved=14 IEnMin=14 EnMin= -229.722823807392     IErMin=14 ErrMin= 3.60D-07
 ErrMax= 3.60D-07  0.00D+00 EMaxC= 1.00D-01 BMatC= 3.98D-11 BMatP= 3.62D-10
 IDIUse=1 WtCom= 1.00D+00 WtEn= 0.00D+00
 Coeff-Com: -0.977D-05 0.136D-04 0.289D-04 0.642D-04 0.528D-04-0.228D-03
 Coeff-Com: -0.634D-03-0.129D-02 0.687D-02 0.599D-02-0.344D-02-0.656D-01
 Coeff-Com: -0.633D-01 0.112D+01
 Coeff:     -0.977D-05 0.136D-04 0.289D-04 0.642D-04 0.528D-04-0.228D-03
 Coeff:     -0.634D-03-0.129D-02 0.687D-02 0.599D-02-0.344D-02-0.656D-01
 Coeff:     -0.633D-01 0.112D+01
 Gap=     0.201 Goal=   None    Shift=    0.000
 Gap=     0.128 Goal=   None    Shift=    0.000
 RMSDP=1.41D-07 MaxDP=7.19D-06 DE=-3.03D-10 OVMax= 4.91D-06

 Cycle  15  Pass 1  IDiag  1:
 RMSU=  5.50D-08    CP:  1.19D+00  2.66D+00  7.55D-01  6.40D-01  8.13D-01
                    CP:  1.35D+00  1.76D+00  1.52D+00  1.39D+00  1.44D+00
                    CP:  9.64D-01  1.27D+00  1.25D+00  1.14D+00
 E= -229.722823807417     Delta-E=       -0.000000000024 Rises=F Damp=F
 DIIS: error= 9.09D-08 at cycle  15 NSaved=  15.
 NSaved=15 IEnMin=15 EnMin= -229.722823807417     IErMin=15 ErrMin= 9.09D-08
 ErrMax= 9.09D-08  0.00D+00 EMaxC= 1.00D-01 BMatC= 2.81D-12 BMatP= 3.98D-11
 IDIUse=1 WtCom= 1.00D+00 WtEn= 0.00D+00
 Coeff-Com:  0.659D-06-0.161D-05 0.100D-04 0.234D-04 0.514D-04 0.639D-04
 Coeff-Com: -0.132D-03-0.551D-03-0.714D-03 0.383D-02 0.436D-02 0.194D-02
 Coeff-Com: -0.850D-01-0.581D-01 0.113D+01
 Coeff:      0.659D-06-0.161D-05 0.100D-04 0.234D-04 0.514D-04 0.639D-04
 Coeff:     -0.132D-03-0.551D-03-0.714D-03 0.383D-02 0.436D-02 0.194D-02
 Coeff:     -0.850D-01-0.581D-01 0.113D+01
 Gap=     0.201 Goal=   None    Shift=    0.000
 Gap=     0.128 Goal=   None    Shift=    0.000
 RMSDP=1.07D-07 MaxDP=7.34D-06 DE=-2.45D-11 OVMax= 2.23D-06

 Cycle  16  Pass 1  IDiag  1:
 RMSU=  1.41D-08    CP:  1.19D+00  2.66D+00  7.55D-01  6.40D-01  8.13D-01
                    CP:  1.35D+00  1.76D+00  1.52D+00  1.39D+00  1.44D+00
                    CP:  9.63D-01  1.28D+00  1.25D+00  1.20D+00  1.16D+00
 E= -229.722823807419     Delta-E=       -0.000000000002 Rises=F Damp=F
 DIIS: error= 2.38D-08 at cycle  16 NSaved=  16.
 NSaved=16 IEnMin=16 EnMin= -229.722823807419     IErMin=16 ErrMin= 2.38D-08
 ErrMax= 2.38D-08  0.00D+00 EMaxC= 1.00D-01 BMatC= 1.93D-13 BMatP= 2.81D-12
 IDIUse=1 WtCom= 1.00D+00 WtEn= 0.00D+00
 Coeff-Com:  0.360D-06-0.559D-06-0.177D-05-0.227D-05-0.193D-05 0.984D-05
 Coeff-Com:  0.634D-04 0.169D-04-0.416D-03-0.498D-04-0.251D-03 0.504D-02
 Coeff-Com:  0.150D-02-0.724D-01 0.200D-01 0.105D+01
 Coeff:      0.360D-06-0.559D-06-0.177D-05-0.227D-05-0.193D-05 0.984D-05
 Coeff:      0.634D-04 0.169D-04-0.416D-03-0.498D-04-0.251D-03 0.504D-02
 Coeff:      0.150D-02-0.724D-01 0.200D-01 0.105D+01
 Gap=     0.201 Goal=   None    Shift=    0.000
 Gap=     0.128 Goal=   None    Shift=    0.000
 RMSDP=1.66D-08 MaxDP=1.36D-06 DE=-2.10D-12 OVMax= 2.99D-07

 Cycle  17  Pass 1  IDiag  1:
 RMSU=  3.17D-09    CP:  1.19D+00  2.66D+00  7.55D-01  6.40D-01  8.13D-01
                    CP:  1.35D+00  1.76D+00  1.52D+00  1.39D+00  1.44D+00
                    CP:  9.63D-01  1.28D+00  1.25D+00  1.21D+00  1.22D+00
                    CP:  1.10D+00
 E= -229.722823807417     Delta-E=        0.000000000002 Rises=F Damp=F
 DIIS: error= 6.59D-09 at cycle  17 NSaved=  17.
 NSaved=17 IEnMin=16 EnMin= -229.722823807419     IErMin=17 ErrMin= 6.59D-09
 ErrMax= 6.59D-09  0.00D+00 EMaxC= 1.00D-01 BMatC= 7.17D-15 BMatP= 1.93D-13
 IDIUse=1 WtCom= 1.00D+00 WtEn= 0.00D+00
 Coeff-Com: -0.735D-07 0.113D-06-0.424D-06-0.107D-05-0.244D-05-0.321D-05
 Coeff-Com:  0.299D-05 0.234D-04 0.465D-04-0.757D-04-0.285D-03-0.444D-03
 Coeff-Com:  0.338D-02 0.862D-02-0.531D-01-0.839D-01 0.113D+01
 Coeff:     -0.735D-07 0.113D-06-0.424D-06-0.107D-05-0.244D-05-0.321D-05
 Coeff:      0.299D-05 0.234D-04 0.465D-04-0.757D-04-0.285D-03-0.444D-03
 Coeff:      0.338D-02 0.862D-02-0.531D-01-0.839D-01 0.113D+01
 Gap=     0.201 Goal=   None    Shift=    0.000
 Gap=     0.128 Goal=   None    Shift=    0.000
 RMSDP=5.08D-09 MaxDP=4.36D-07 DE= 1.82D-12 OVMax= 4.96D-08

 SCF Done:  E(UB3LYP) =  -229.722823807     A.U. after   17 cycles
            NFock= 17  Conv=0.51D-08     -V/T= 2.0039
 <Sx>= 0.0000 <Sy>= 0.0000 <Sz>= 0.5000 <S**2>= 0.7618 S= 0.5059
 <L.S>= 0.000000000000E+00
 KE= 2.288394284401D+02 PE=-8.132092425210D+02 EE= 2.118389369768D+02
 Annihilation of the first spin contaminant:
 S**2 before annihilation     0.7618,   after     0.7501
 Leave Link  502 at Thu Jan 24 16:12:24 2019, MaxMem=    33554432 cpu:        71.7
 (Enter /apl/tryton/gaussian/09/d01/g09/l801.exe)
 DoSCS=F DFT=T ScalE2(SS,OS)=  1.000000  1.000000
 Range of M.O.s used for correlation:     1   138
 NBasis=   138 NAE=    18 NBE=    17 NFC=     0 NFV=     0
 NROrb=    138 NOA=    18 NOB=    17 NVA=   120 NVB=   121

 **** Warning!!: The largest alpha MO coefficient is  0.26262518D+03


 **** Warning!!: The largest beta MO coefficient is  0.27728068D+03

 Leave Link  801 at Thu Jan 24 16:12:24 2019, MaxMem=    33554432 cpu:         0.0
 (Enter /apl/tryton/gaussian/09/d01/g09/l1101.exe)
 Using compressed storage, NAtomX=     9.
 Will process     10 centers per pass.
 Leave Link 1101 at Thu Jan 24 16:12:24 2019, MaxMem=    33554432 cpu:         0.2
 (Enter /apl/tryton/gaussian/09/d01/g09/l1102.exe)
 Symmetrizing basis deriv contribution to polar:
 IMax=3 JMax=2 DiffMx= 0.00D+00
 Leave Link 1102 at Thu Jan 24 16:12:24 2019, MaxMem=    33554432 cpu:         0.0
 (Enter /apl/tryton/gaussian/09/d01/g09/l1110.exe)
 Forming Gx(P) for the SCF density, NAtomX=     9.
 Integral derivatives from FoFJK, PRISM(SPDF).
 Do as many integral derivatives as possible in FoFJK.
 G2DrvN: MDV=      33554256.
 G2DrvN: will do    10 centers at a time, making    1 passes.
 Calling FoFCou, ICntrl=  3107 FMM=F I1Cent=   0 AccDes= 0.00D+00.
 FoFJK:  IHMeth= 1 ICntrl=    3107 DoSepK=F KAlg= 0 I1Cent=   0 FoldK=F
 IRaf=         0 NMat=   1 IRICut=       1 DoRegI=T DoRafI=F ISym2E= 0.
 FoFCou: FMM=F IPFlag=           0 FMFlag=      100000 FMFlg1=           0
         NFxFlg=           0 DoJE=F BraDBF=F KetDBF=F FulRan=T
         wScrn=  0.000000 ICntrl=    3107 IOpCl=  1 I1Cent=           0 NGrid=           0
         NMat0=    1 NMatS0=      1 NMatT0=    0 NMatD0=    1 NMtDS0=    0 NMtDT0=    0
 Symmetry not used in FoFCou.
 End of G2Drv F.D. properties file   721 does not exist.
 End of G2Drv F.D. properties file   722 does not exist.
 End of G2Drv F.D. properties file   788 does not exist.
 Leave Link 1110 at Thu Jan 24 16:13:33 2019, MaxMem=    33554432 cpu:        69.0
 (Enter /apl/tryton/gaussian/09/d01/g09/l1002.exe)
 Minotr:  UHF open shell wavefunction.
          IDoAtm=111111111
          Direct CPHF calculation.
          Differentiating once with respect to electric field.
                with respect to dipole field.
          Differentiating once with respect to nuclear coordinates.
          Requested convergence is 1.0D-08 RMS, and 1.0D-07 maximum.
          Secondary convergence is 1.0D-12 RMS, and 1.0D-12 maximum.
          NewPWx=T KeepS1=F KeepF1=F KeepIn=T MapXYZ=F SortEE=F KeepMc=T.
          MDV=      33554062 using IRadAn=       2.
 Generate precomputed XC quadrature information.
          Solving linear equations simultaneously, MaxMat=       0.
 FoFJK:  IHMeth= 1 ICntrl=       0 DoSepK=F KAlg= 0 I1Cent=   0 FoldK=F
 IRaf= 980000000 NMat=  30 IRICut=      75 DoRegI=T DoRafI=T ISym2E= 2.
 FoFCou: FMM=F IPFlag=           0 FMFlag=      100000 FMFlg1=           0
         NFxFlg=           0 DoJE=F BraDBF=F KetDBF=F FulRan=T
         wScrn=  0.000000 ICntrl=       0 IOpCl=  1 I1Cent=           0 NGrid=           0
         NMat0=   30 NMatS0=     30 NMatT0=    0 NMatD0=   30 NMtDS0=    0 NMtDT0=    0
 Integrals replicated using symmetry in FoFCou.
          There are    30 degrees of freedom in the 1st order CPHF.  IDoFFX=6 NUNeed=     3.
     28 vectors produced by pass  0 Test12= 1.41D-14 3.33D-09 XBig12= 2.77D+02 1.12D+01.
 AX will form    28 AO Fock derivatives at one time.
     27 vectors produced by pass  1 Test12= 1.41D-14 3.33D-09 XBig12= 6.44D+01 1.44D+00.
     27 vectors produced by pass  2 Test12= 1.41D-14 3.33D-09 XBig12= 2.51D+00 3.74D-01.
     27 vectors produced by pass  3 Test12= 1.41D-14 3.33D-09 XBig12= 2.27D-02 2.41D-02.
     27 vectors produced by pass  4 Test12= 1.41D-14 3.33D-09 XBig12= 1.91D-04 1.84D-03.
     27 vectors produced by pass  5 Test12= 1.41D-14 3.33D-09 XBig12= 1.41D-06 2.19D-04.
     22 vectors produced by pass  6 Test12= 1.41D-14 3.33D-09 XBig12= 4.48D-09 1.11D-05.
      8 vectors produced by pass  7 Test12= 1.41D-14 3.33D-09 XBig12= 9.99D-12 5.27D-07.
      6 vectors produced by pass  8 Test12= 1.41D-14 3.33D-09 XBig12= 5.93D-12 3.74D-07.
      5 vectors produced by pass  9 Test12= 1.41D-14 3.33D-09 XBig12= 1.08D-12 2.71D-07.
      3 vectors produced by pass 10 Test12= 1.41D-14 3.33D-09 XBig12= 3.15D-15 1.15D-08.
      1 vectors produced by pass 11 Test12= 1.41D-14 3.33D-09 XBig12= 5.12D-16 3.58D-09.
 InvSVY:  IOpt=1 It=  1 EMax= 7.11D-15
 Solved reduced A of dimension   208 with    30 vectors.
 FullF1:  Do perturbations    1 to     3.
 Isotropic polarizability for W=    0.000000       48.50 Bohr**3.
 End of Minotr F.D. properties file   721 does not exist.
 End of Minotr F.D. properties file   722 does not exist.
 End of Minotr F.D. properties file   788 does not exist.
 Leave Link 1002 at Thu Jan 24 16:15:55 2019, MaxMem=    33554432 cpu:       141.4
 (Enter /apl/tryton/gaussian/09/d01/g09/l601.exe)
 Copying SCF densities to generalized density rwf, IOpCl= 1 IROHF=0.

 **********************************************************************

            Population analysis using the SCF density.

 **********************************************************************

 Orbital symmetries:
 Alpha Orbitals:
       Occupied  (A) (A) (A) (A) (A) (A) (A) (A) (A) (A) (A) (A)
                 (A) (A) (A) (A) (A) (A)
       Virtual   (A) (A) (A) (A) (A) (A) (A) (A) (A) (A) (A) (A)
                 (A) (A) (A) (A) (A) (A) (A) (A) (A) (A) (A) (A)
                 (A) (A) (A) (A) (A) (A) (A) (A) (A) (A) (A) (A)
                 (A) (A) (A) (A) (A) (A) (A) (A) (A) (A) (A) (A)
                 (A) (A) (A) (A) (A) (A) (A) (A) (A) (A) (A) (A)
                 (A) (A) (A) (A) (A) (A) (A) (A) (A) (A) (A) (A)
                 (A) (A) (A) (A) (A) (A) (A) (A) (A) (A) (A) (A)
                 (A) (A) (A) (A) (A) (A) (A) (A) (A) (A) (A) (A)
                 (A) (A) (A) (A) (A) (A) (A) (A) (A) (A) (A) (A)
                 (A) (A) (A) (A) (A) (A) (A) (A) (A) (A) (A) (A)
 Beta  Orbitals:
       Occupied  (A) (A) (A) (A) (A) (A) (A) (A) (A) (A) (A) (A)
                 (A) (A) (A) (A) (A)
       Virtual   (A) (A) (A) (A) (A) (A) (A) (A) (A) (A) (A) (A)
                 (A) (A) (A) (A) (A) (A) (A) (A) (A) (A) (A) (A)
                 (A) (A) (A) (A) (A) (A) (A) (A) (A) (A) (A) (A)
                 (A) (A) (A) (A) (A) (A) (A) (A) (A) (A) (A) (A)
                 (A) (A) (A) (A) (A) (A) (A) (A) (A) (A) (A) (A)
                 (A) (A) (A) (A) (A) (A) (A) (A) (A) (A) (A) (A)
                 (A) (A) (A) (A) (A) (A) (A) (A) (A) (A) (A) (A)
                 (A) (A) (A) (A) (A) (A) (A) (A) (A) (A) (A) (A)
                 (A) (A) (A) (A) (A) (A) (A) (A) (A) (A) (A) (A)
                 (A) (A) (A) (A) (A) (A) (A) (A) (A) (A) (A) (A)
                 (A)
 The electronic state is 2-A.
 Alpha  occ. eigenvalues --  -19.44026 -10.52412 -10.45932 -10.43903 -10.42472
 Alpha  occ. eigenvalues --   -1.36100  -1.06024  -0.99066  -0.91309  -0.81565
 Alpha  occ. eigenvalues --   -0.75776  -0.75004  -0.68813  -0.68265  -0.62449
 Alpha  occ. eigenvalues --   -0.58322  -0.52566  -0.48412
 Alpha virt. eigenvalues --   -0.28319  -0.21097  -0.17579  -0.14011  -0.13277
 Alpha virt. eigenvalues --   -0.12056  -0.10747  -0.09691  -0.08530  -0.07578
 Alpha virt. eigenvalues --   -0.07071  -0.05094  -0.04265  -0.03568  -0.03284
 Alpha virt. eigenvalues --   -0.01762  -0.01326  -0.00000   0.00474   0.00677
 Alpha virt. eigenvalues --    0.01772   0.02983   0.03550   0.05574   0.07056
 Alpha virt. eigenvalues --    0.08651   0.09791   0.10722   0.12386   0.14860
 Alpha virt. eigenvalues --    0.16875   0.17548   0.19845   0.21721   0.30440
 Alpha virt. eigenvalues --    0.30748   0.31905   0.33032   0.34303   0.34953
 Alpha virt. eigenvalues --    0.37507   0.38699   0.39908   0.44691   0.47425
 Alpha virt. eigenvalues --    0.47860   0.51076   0.54769   0.55436   0.60016
 Alpha virt. eigenvalues --    0.62824   0.68441   0.70442   0.75298   0.79573
 Alpha virt. eigenvalues --    0.81701   0.82606   0.87390   0.93828   0.94273
 Alpha virt. eigenvalues --    0.96266   0.97115   1.00854   1.05376   1.17276
 Alpha virt. eigenvalues --    1.19193   1.21601   1.23395   1.29009   1.29794
 Alpha virt. eigenvalues --    1.36776   1.42080   1.42171   1.44265   1.48756
 Alpha virt. eigenvalues --    1.53749   1.57461   1.65674   1.70262   1.71975
 Alpha virt. eigenvalues --    1.74748   1.83034   1.88088   1.94692   2.17033
 Alpha virt. eigenvalues --    2.19446   2.22921   2.27760   2.38612   2.40958
 Alpha virt. eigenvalues --    2.42170   2.44069   2.46402   2.49895   2.51670
 Alpha virt. eigenvalues --    2.59822   2.65896   2.74019   2.75088   2.80492
 Alpha virt. eigenvalues --    2.81661   2.86515   2.97405   2.99803   3.11520
 Alpha virt. eigenvalues --    3.15116   3.26609   3.32369   3.60719   3.68278
 Alpha virt. eigenvalues --    3.74371   3.98137   4.69647   5.11199   5.50591
 Alpha virt. eigenvalues --   23.27134  23.59541  23.76820  24.87949  49.64053
  Beta  occ. eigenvalues --  -19.43586 -10.52168 -10.45415 -10.43237 -10.42579
  Beta  occ. eigenvalues --   -1.35249  -1.04784  -0.97372  -0.90592  -0.80939
  Beta  occ. eigenvalues --   -0.75359  -0.74407  -0.67984  -0.66084  -0.61936
  Beta  occ. eigenvalues --   -0.55111  -0.52068
  Beta virt. eigenvalues --   -0.39270  -0.24924  -0.20763  -0.17495  -0.13899
  Beta virt. eigenvalues --   -0.11875  -0.11455  -0.10605  -0.09099  -0.08368
  Beta virt. eigenvalues --   -0.07386  -0.06775  -0.04391  -0.04186  -0.03208
  Beta virt. eigenvalues --   -0.03132  -0.01581  -0.01158   0.00202   0.00691
  Beta virt. eigenvalues --    0.00811   0.01853   0.03175   0.03624   0.05604
  Beta virt. eigenvalues --    0.07305   0.08897   0.10343   0.10832   0.12508
  Beta virt. eigenvalues --    0.15096   0.17020   0.17662   0.19995   0.21970
  Beta virt. eigenvalues --    0.30763   0.31957   0.32024   0.33201   0.34764
  Beta virt. eigenvalues --    0.36384   0.37977   0.40302   0.40465   0.45295
  Beta virt. eigenvalues --    0.47440   0.48071   0.51396   0.55042   0.55880
  Beta virt. eigenvalues --    0.60322   0.63317   0.68797   0.71040   0.76669
  Beta virt. eigenvalues --    0.81188   0.82486   0.83680   0.87571   0.94759
  Beta virt. eigenvalues --    0.95266   0.97103   0.97960   1.01657   1.05822
  Beta virt. eigenvalues --    1.17983   1.20069   1.22797   1.23695   1.29218
  Beta virt. eigenvalues --    1.31113   1.37079   1.42586   1.42983   1.44473
  Beta virt. eigenvalues --    1.49612   1.54450   1.58276   1.66218   1.71955
  Beta virt. eigenvalues --    1.72265   1.75122   1.84188   1.88603   1.95258
  Beta virt. eigenvalues --    2.17330   2.19577   2.24674   2.27887   2.38769
  Beta virt. eigenvalues --    2.42379   2.43106   2.44285   2.46625   2.51879
  Beta virt. eigenvalues --    2.52000   2.60072   2.67231   2.73967   2.77018
  Beta virt. eigenvalues --    2.80928   2.83115   2.87189   2.98701   3.00126
  Beta virt. eigenvalues --    3.12176   3.15864   3.27037   3.32654   3.61191
  Beta virt. eigenvalues --    3.68793   3.75119   3.99034   4.71442   5.11596
  Beta virt. eigenvalues --    5.51014  23.27465  23.59906  23.77364  24.88292
  Beta virt. eigenvalues --   49.64490
          Condensed to atoms (all electrons):
               1          2          3          4          5          6
     1  C    5.489606   0.090193   0.285750  -0.414320   0.446396   0.411479
     2  C    0.090193  12.598359   0.105578  -7.880048   0.067458  -0.128679
     3  O    0.285750   0.105578   7.552878   0.040474  -0.183474  -0.072094
     4  C   -0.414320  -7.880048   0.040474  27.985859 -12.507138  -0.146247
     5  C    0.446396   0.067458  -0.183474 -12.507138  17.106267   0.180745
     6  H    0.411479  -0.128679  -0.072094  -0.146247   0.180745   0.465092
     7  H    0.044888   0.045475   0.260362  -0.149731   0.052992   0.021876
     8  H    0.002022  -0.224389  -0.000543   0.724946  -0.101965  -0.000374
     9  H   -0.059474   0.055719   0.007645   0.060837   0.272319  -0.007703
               7          8          9
     1  C    0.044888   0.002022  -0.059474
     2  C    0.045475  -0.224389   0.055719
     3  O    0.260362  -0.000543   0.007645
     4  C   -0.149731   0.724946   0.060837
     5  C    0.052992  -0.101965   0.272319
     6  H    0.021876  -0.000374  -0.007703
     7  H    0.436374  -0.001190  -0.002891
     8  H   -0.001190   0.378289   0.000019
     9  H   -0.002891   0.000019   0.393454
          Atomic-Atomic Spin Densities.
               1          2          3          4          5          6
     1  C    0.165734  -0.018520  -0.067673  -0.058505   0.143602   0.000408
     2  C   -0.018520  -0.258614   0.007765   0.215533  -0.044337  -0.004121
     3  O   -0.067673   0.007765   0.218010   0.012631  -0.025516   0.000185
     4  C   -0.058505   0.215533   0.012631  -0.228275   0.472692  -0.001066
     5  C    0.143602  -0.044337  -0.025516   0.472692  -0.123295   0.003645
     6  H    0.000408  -0.004121   0.000185  -0.001066   0.003645  -0.009499
     7  H    0.002200  -0.001507   0.000860  -0.001215   0.001102  -0.000375
     8  H   -0.001363   0.020217   0.000098  -0.036173   0.015539   0.000034
     9  H    0.004129  -0.003772  -0.000423   0.007629  -0.005584  -0.000011
               7          8          9
     1  C    0.002200  -0.001363   0.004129
     2  C   -0.001507   0.020217  -0.003772
     3  O    0.000860   0.000098  -0.000423
     4  C   -0.001215  -0.036173   0.007629
     5  C    0.001102   0.015539  -0.005584
     6  H   -0.000375   0.000034  -0.000011
     7  H   -0.005677   0.000054  -0.000068
     8  H    0.000054  -0.015974   0.000169
     9  H   -0.000068   0.000169  -0.018934
 Mulliken charges and spin densities:
               1          2
     1  C   -0.296540   0.170012
     2  C    1.270334  -0.087356
     3  O    0.003424   0.145938
     4  C   -1.714631   0.383249
     5  C    0.666401   0.437848
     6  H    0.275905  -0.010801
     7  H    0.291844  -0.004626
     8  H    0.223186  -0.017399
     9  H    0.280076  -0.016866
 Sum of Mulliken charges =   1.00000   1.00000
 Mulliken charges and spin densities with hydrogens summed into heavy atoms:
               1          2
     1  C   -0.020635   0.159212
     2  C    1.270334  -0.087356
     3  O    0.295269   0.141312
     4  C   -1.491445   0.365850
     5  C    0.946477   0.420983
 APT charges:
               1
     1  C    0.783219
     2  C   -0.324656
     3  O   -0.487633
     4  C    0.164007
     5  C   -0.033540
     6  H    0.143173
     7  H    0.314657
     8  H    0.296774
     9  H    0.144000
 Sum of APT charges =   1.00000
 APT charges with hydrogens summed into heavy atoms:
               1
     1  C    0.926391
     2  C   -0.324656
     3  O   -0.172977
     4  C    0.460781
     5  C    0.110461
 Electronic spatial extent (au):  <R**2>=            409.8720
 Charge=              1.0000 electrons
 Dipole moment (field-independent basis, Debye):
    X=             -1.0898    Y=              0.1463    Z=              0.0001  Tot=              1.0996
 Quadrupole moment (field-independent basis, Debye-Ang):
   XX=            -11.1093   YY=            -18.8846   ZZ=            -28.0160
   XY=              6.3030   XZ=             -0.0001   YZ=              0.0000
 Traceless Quadrupole moment (field-independent basis, Debye-Ang):
   XX=              8.2273   YY=              0.4520   ZZ=             -8.6794
   XY=              6.3030   XZ=             -0.0001   YZ=              0.0000
 Octapole moment (field-independent basis, Debye-Ang**2):
  XXX=            -22.2050  YYY=             -1.8307  ZZZ=              0.0001  XYY=              2.3639
  XXY=             -7.8620  XXZ=              0.0005  XZZ=              3.3755  YZZ=             -1.7547
  YYZ=              0.0002  XYZ=              0.0002
 Hexadecapole moment (field-independent basis, Debye-Ang**3):
 XXXX=           -239.7042 YYYY=            -86.1184 ZZZZ=            -27.4243 XXXY=             58.8078
 XXXZ=             -0.0016 YYYX=             -1.3658 YYYZ=              0.0003 ZZZX=             -0.0001
 ZZZY=              0.0000 XXYY=            -68.4905 XXZZ=            -69.1970 YYZZ=            -24.8224
 XXYZ=             -0.0005 YYXZ=             -0.0002 ZZXY=             -0.9386
 N-N= 1.428080532966D+02 E-N=-8.132092425046D+02  KE= 2.288394284401D+02
  Exact polarizability:  79.583   8.914  42.720   0.000  -0.000  23.208
 Approx polarizability: 130.910  21.815  67.505  -0.000  -0.000  31.674
                          Isotropic Fermi Contact Couplings
        Atom                 a.u.       MegaHertz       Gauss      10(-4) cm-1
     1  C(13)             -0.00563      -6.32710      -2.25767      -2.11049
     2  C(13)             -0.03395     -38.16441     -13.61801     -12.73028
     3  O(17)              0.01898     -11.50310      -4.10459      -3.83702
     4  C(13)              0.02316      26.04152       9.29226       8.68652
     5  C(13)              0.01548      17.40474       6.21044       5.80560
     6  H(1)              -0.00326     -14.56008      -5.19540      -4.85672
     7  H(1)              -0.00253     -11.31881      -4.03883      -3.77555
     8  H(1)              -0.00785     -35.07660     -12.51620     -11.70029
     9  H(1)              -0.00632     -28.23807     -10.07604      -9.41921
 --------------------------------------------------------
       Center         ----  Spin Dipole Couplings  ----
                      3XX-RR        3YY-RR        3ZZ-RR
 --------------------------------------------------------
     1   Atom       -0.113295     -0.113508      0.226803
     2   Atom        0.034481     -0.030811     -0.003671
     3   Atom       -0.349660     -0.345262      0.694922
     4   Atom       -0.263262     -0.243757      0.507019
     5   Atom       -0.211741     -0.221187      0.432929
     6   Atom        0.017294     -0.010571     -0.006723
     7   Atom        0.011226      0.001136     -0.012361
     8   Atom        0.020485     -0.013371     -0.007115
     9   Atom       -0.024781      0.030543     -0.005761
 --------------------------------------------------------
                        XY            XZ            YZ
 --------------------------------------------------------
     1   Atom       -0.010952     -0.000000      0.000000
     2   Atom        0.057002     -0.000002     -0.000002
     3   Atom        0.002244     -0.000006      0.000004
     4   Atom       -0.021902      0.000026      0.000006
     5   Atom       -0.004098     -0.000007     -0.000015
     6   Atom        0.013551     -0.000000     -0.000000
     7   Atom        0.021127      0.000000      0.000000
     8   Atom        0.030767     -0.000001     -0.000001
     9   Atom       -0.010681     -0.000000      0.000001
 --------------------------------------------------------


 ---------------------------------------------------------------------------------
              Anisotropic Spin Dipole Couplings in Principal Axis System
 ---------------------------------------------------------------------------------

       Atom             a.u.   MegaHertz   Gauss  10(-4) cm-1        Axes

              Baa    -0.1244   -16.687    -5.954    -5.566  0.7037  0.7105  0.0000
     1 C(13)  Bbb    -0.1024   -13.748    -4.906    -4.586  0.7105 -0.7037  0.0000
              Bcc     0.2268    30.435    10.860    10.152 -0.0000  0.0000  1.0000
 
              Baa    -0.0639    -8.568    -3.057    -2.858 -0.5015  0.8652  0.0000
     2 C(13)  Bbb    -0.0037    -0.493    -0.176    -0.164  0.0000  0.0000  1.0000
              Bcc     0.0675     9.061     3.233     3.022  0.8652  0.5015 -0.0000
 
              Baa    -0.3506    25.369     9.052     8.462  0.9219 -0.3874  0.0000
     3 O(17)  Bbb    -0.3443    24.915     8.890     8.311  0.3874  0.9219 -0.0000
              Bcc     0.6949   -50.284   -17.943   -16.773 -0.0000  0.0000  1.0000
 
              Baa    -0.2775   -37.236   -13.287   -12.421  0.8387  0.5446 -0.0000
     4 C(13)  Bbb    -0.2295   -30.801   -10.991   -10.274 -0.5446  0.8387  0.0000
              Bcc     0.5070    68.037    24.277    22.695  0.0000  0.0000  1.0000
 
              Baa    -0.2227   -29.887   -10.664    -9.969  0.3498  0.9368  0.0000
     5 C(13)  Bbb    -0.2102   -28.208   -10.065    -9.409  0.9368 -0.3498  0.0000
              Bcc     0.4329    58.095    20.730    19.378 -0.0000 -0.0000  1.0000
 
              Baa    -0.0161    -8.576    -3.060    -2.861 -0.3763  0.9265  0.0000
     6 H(1)   Bbb    -0.0067    -3.587    -1.280    -1.196  0.0000 -0.0000  1.0000
              Bcc     0.0228    12.164     4.340     4.057  0.9265  0.3763 -0.0000
 
              Baa    -0.0155    -8.291    -2.959    -2.766 -0.6196  0.7849 -0.0000
     7 H(1)   Bbb    -0.0124    -6.595    -2.353    -2.200 -0.0000  0.0000  1.0000
              Bcc     0.0279    14.887     5.312     4.966  0.7849  0.6196  0.0000
 
              Baa    -0.0316   -16.838    -6.008    -5.617 -0.5089  0.8608  0.0000
     8 H(1)   Bbb    -0.0071    -3.796    -1.355    -1.266  0.0000  0.0000  1.0000
              Bcc     0.0387    20.634     7.363     6.883  0.8608  0.5089 -0.0000
 
              Baa    -0.0268   -14.284    -5.097    -4.765  0.9831  0.1832  0.0000
     9 H(1)   Bbb    -0.0058    -3.074    -1.097    -1.025 -0.0000 -0.0000  1.0000
              Bcc     0.0325    17.358     6.194     5.790 -0.1832  0.9831  0.0000
 

 ---------------------------------------------------------------------------------

 No NMR shielding tensors so no spin-rotation constants.
 Leave Link  601 at Thu Jan 24 16:15:55 2019, MaxMem=    33554432 cpu:         0.3
 (Enter /apl/tryton/gaussian/09/d01/g09/l701.exe)
 Compute integral second derivatives.
 ... and contract with generalized density number  0.
 Leave Link  701 at Thu Jan 24 16:15:55 2019, MaxMem=    33554432 cpu:         0.2
 (Enter /apl/tryton/gaussian/09/d01/g09/l702.exe)
 L702 exits ... SP integral derivatives will be done elsewhere.
 Leave Link  702 at Thu Jan 24 16:15:55 2019, MaxMem=    33554432 cpu:         0.0
 (Enter /apl/tryton/gaussian/09/d01/g09/l703.exe)
 Compute integral second derivatives, UseDBF=F ICtDFT=           0.
 Integral derivatives from FoFJK, PRISM(SPDF).
 Calling FoFJK, ICntrl=    100127 FMM=F ISym2X=0 I1Cent= 0 IOpClX= 1 NMat=1 NMatS=1 NMatT=0.
 FoFJK:  IHMeth= 1 ICntrl=  100127 DoSepK=F KAlg= 0 I1Cent=   0 FoldK=F
 IRaf=         0 NMat=   1 IRICut=       1 DoRegI=T DoRafI=F ISym2E= 0.
 FoFCou: FMM=F IPFlag=           0 FMFlag=      100000 FMFlg1=         800
         NFxFlg=           0 DoJE=F BraDBF=F KetDBF=F FulRan=T
         wScrn=  0.000000 ICntrl=  100127 IOpCl=  1 I1Cent=           0 NGrid=           0
         NMat0=    1 NMatS0=      1 NMatT0=    0 NMatD0=    1 NMtDS0=    0 NMtDT0=    0
 Symmetry not used in FoFCou.
 Leave Link  703 at Thu Jan 24 16:17:23 2019, MaxMem=    33554432 cpu:        87.9
 (Enter /apl/tryton/gaussian/09/d01/g09/l716.exe)
 Dipole        =-4.28770101D-01 5.75401308D-02 2.04052265D-05
 Polarizability= 7.95834263D+01 8.91355392D+00 4.27204708D+01
                 2.22906313D-05-1.36830091D-05 2.32077456D+01
 Full mass-weighted force constant matrix:
 Low frequencies ---   -6.8599    0.0008    0.0008    0.0011    2.2285    9.8578
 Low frequencies ---  144.5485  216.4823  390.6676
 Diagonal vibrational polarizability:
        8.4612019      10.0213073      11.8745546
 Harmonic frequencies (cm**-1), IR intensities (KM/Mole), Raman scattering
 activities (A**4/AMU), depolarization ratios for plane and unpolarized
 incident light, reduced masses (AMU), force constants (mDyne/A),
 and normal coordinates:
                      1                      2                      3
                      A                      A                      A
 Frequencies --    144.5478               216.4823               390.6676
 Red. masses --      4.6274                 2.0383                 5.1294
 Frc consts  --      0.0570                 0.0563                 0.4612
 IR Inten    --      1.6340                 0.0120                23.1177
  Atom  AN      X      Y      Z        X      Y      Z        X      Y      Z
     1   6     0.03  -0.00  -0.00    -0.00  -0.00   0.19    -0.08  -0.13   0.00
     2   6    -0.08  -0.14  -0.00    -0.00  -0.00  -0.15    -0.28   0.41   0.00
     3   8     0.30   0.05  -0.00     0.00   0.00  -0.06     0.23  -0.09   0.00
     4   6    -0.30   0.22  -0.00     0.00   0.00   0.13     0.04  -0.13  -0.00
     5   6    -0.05  -0.18   0.00    -0.00  -0.00  -0.12    -0.05   0.03  -0.00
     6   1    -0.08   0.17  -0.00    -0.00  -0.00   0.66    -0.16  -0.02   0.00
     7   1     0.44  -0.14   0.00     0.00   0.00  -0.56     0.42  -0.34  -0.00
     8   1    -0.44   0.46  -0.00     0.00   0.00   0.38     0.22  -0.42  -0.00
     9   1    -0.11  -0.18   0.00    -0.00  -0.00  -0.15     0.32   0.05  -0.00
                      4                      5                      6
                      A                      A                      A
 Frequencies --    425.1963               674.6324               722.1425
 Red. masses --      2.5181                 1.4801                 1.4194
 Frc consts  --      0.2682                 0.3969                 0.4361
 IR Inten    --     28.7073                40.4108                39.7003
  Atom  AN      X      Y      Z        X      Y      Z        X      Y      Z
     1   6     0.00   0.00   0.07     0.00   0.00  -0.15    -0.06  -0.02   0.00
     2   6     0.00  -0.00   0.32    -0.00   0.00   0.03     0.07  -0.06  -0.00
     3   8    -0.00   0.00  -0.03    -0.00   0.00   0.11     0.02  -0.02  -0.00
     4   6    -0.00  -0.00  -0.08    -0.00   0.00   0.00    -0.05   0.14   0.00
     5   6     0.00   0.00  -0.16     0.00  -0.00  -0.03    -0.03   0.04  -0.00
     6   1     0.00  -0.00   0.27     0.00  -0.00   0.20    -0.06  -0.02  -0.00
     7   1    -0.00   0.00  -0.38    -0.00   0.00  -0.78     0.08  -0.11   0.00
     8   1    -0.00   0.00  -0.46     0.00  -0.00  -0.05     0.53  -0.81  -0.00
     9   1     0.00   0.00  -0.66     0.00  -0.00   0.56    -0.03   0.04  -0.00
                      7                      8                      9
                      A                      A                      A
 Frequencies --    728.0982               730.2115               811.2822
 Red. masses --      1.3362                 2.8535                 1.4656
 Frc consts  --      0.4174                 0.8964                 0.5683
 IR Inten    --     17.7275                20.0343                88.9325
  Atom  AN      X      Y      Z        X      Y      Z        X      Y      Z
     1   6     0.00   0.00   0.00     0.26   0.08   0.00     0.00   0.00  -0.05
     2   6    -0.00   0.00  -0.07    -0.16   0.06   0.00    -0.00   0.00  -0.06
     3   8    -0.00   0.00  -0.00    -0.06   0.04  -0.00    -0.00   0.00   0.04
     4   6     0.00  -0.00   0.16    -0.14  -0.02  -0.00     0.00   0.00   0.01
     5   6     0.00  -0.00  -0.00     0.11  -0.16  -0.00    -0.00  -0.00   0.18
     6   1     0.00   0.00   0.01     0.29   0.05  -0.00     0.00   0.00  -0.23
     7   1    -0.00   0.00   0.04    -0.35   0.44   0.00    -0.00   0.00  -0.52
     8   1    -0.00   0.00  -0.98     0.20  -0.60   0.00     0.00  -0.00   0.03
     9   1     0.00  -0.00   0.02     0.11  -0.16  -0.00     0.00   0.00  -0.80
                     10                     11                     12
                      A                      A                      A
 Frequencies --    974.9657              1032.4215              1152.0318
 Red. masses --      4.7373                 1.2869                 1.6165
 Frc consts  --      2.6532                 0.8082                 1.2641
 IR Inten    --     13.8707                26.4964                36.5694
  Atom  AN      X      Y      Z        X      Y      Z        X      Y      Z
     1   6    -0.19  -0.02  -0.00    -0.00  -0.00   0.15     0.07   0.04  -0.00
     2   6     0.08   0.13   0.00     0.00   0.00   0.00     0.01   0.06   0.00
     3   8    -0.08   0.16  -0.00    -0.00   0.00   0.00     0.04  -0.10  -0.00
     4   6     0.19   0.12  -0.00     0.00   0.00   0.00     0.09   0.05  -0.00
     5   6     0.03  -0.43  -0.00    -0.00  -0.00  -0.06    -0.14  -0.04  -0.00
     6   1    -0.47   0.36   0.00    -0.00   0.00  -0.89     0.05   0.07   0.00
     7   1     0.04   0.01   0.00     0.00   0.00  -0.38    -0.19   0.21   0.00
     8   1     0.27   0.04  -0.00     0.00   0.00  -0.01     0.11   0.05  -0.00
     9   1     0.20  -0.45  -0.00    -0.00  -0.00   0.22    -0.92  -0.08  -0.00
                     13                     14                     15
                      A                      A                      A
 Frequencies --   1230.9673              1396.0377              1462.7829
 Red. masses --      1.1759                 1.5189                 2.4576
 Frc consts  --      1.0498                 1.7442                 3.0983
 IR Inten    --    165.0785                44.9037                18.1613
  Atom  AN      X      Y      Z        X      Y      Z        X      Y      Z
     1   6     0.04   0.02  -0.00     0.02   0.12   0.00    -0.11  -0.16  -0.00
     2   6    -0.01   0.02   0.00    -0.01   0.00  -0.00    -0.01   0.02  -0.00
     3   8    -0.07   0.06  -0.00    -0.04  -0.11  -0.00     0.03   0.09   0.00
     4   6     0.00  -0.00   0.00    -0.03  -0.02   0.00    -0.07  -0.05   0.00
     5   6     0.02  -0.03   0.00     0.11   0.02   0.00     0.26   0.05   0.00
     6   1     0.31  -0.36   0.00    -0.41   0.76   0.00    -0.22  -0.07  -0.00
     7   1     0.46  -0.65  -0.00     0.18  -0.40  -0.00    -0.15   0.32  -0.00
     8   1     0.01  -0.02  -0.00    -0.04  -0.03   0.00    -0.09  -0.07   0.00
     9   1    -0.35  -0.05  -0.00    -0.14   0.01  -0.00    -0.83  -0.01  -0.00
                     16                     17                     18
                      A                      A                      A
 Frequencies --   1571.9852              2095.6132              3171.5978
 Red. masses --      3.7099                 6.5216                 1.0898
 Frc consts  --      5.4014                16.8744                 6.4587
 IR Inten    --    267.2527               139.9512                24.8171
  Atom  AN      X      Y      Z        X      Y      Z        X      Y      Z
     1   6    -0.25   0.33   0.00     0.02   0.00   0.00    -0.01  -0.01  -0.00
     2   6    -0.00   0.01  -0.00     0.49   0.31  -0.00    -0.00  -0.00  -0.00
     3   8     0.08  -0.15  -0.00    -0.00  -0.00  -0.00     0.00  -0.00   0.00
     4   6    -0.02  -0.02   0.00    -0.32  -0.20   0.00     0.00   0.00   0.00
     5   6     0.15  -0.08   0.00    -0.14  -0.07  -0.00    -0.00   0.08   0.00
     6   1     0.43  -0.71  -0.00     0.03   0.00  -0.00     0.18   0.13   0.00
     7   1    -0.16   0.18  -0.00     0.01  -0.01   0.00    -0.01  -0.00  -0.00
     8   1    -0.03  -0.03   0.00    -0.60  -0.36   0.00    -0.00  -0.00   0.00
     9   1     0.03  -0.09  -0.00     0.02  -0.08  -0.00     0.05  -0.97  -0.00
                     19                     20                     21
                      A                      A                      A
 Frequencies --   3197.3949              3401.7497              3640.3022
 Red. masses --      1.0960                 1.1516                 1.0658
 Frc consts  --      6.6017                 7.8512                 8.3215
 IR Inten    --     16.1157               126.2029                77.2973
  Atom  AN      X      Y      Z        X      Y      Z        X      Y      Z
     1   6    -0.07  -0.05  -0.00     0.00   0.00   0.00    -0.00  -0.00  -0.00
     2   6     0.00   0.00   0.00     0.02   0.01  -0.00     0.00  -0.00  -0.00
     3   8     0.00   0.00   0.00     0.00  -0.00  -0.00    -0.05  -0.04  -0.00
     4   6    -0.00  -0.00   0.00    -0.09  -0.06   0.00     0.00  -0.00   0.00
     5   6     0.01  -0.02  -0.00    -0.00  -0.00  -0.00    -0.00   0.00   0.00
     6   1     0.80   0.55   0.00    -0.00  -0.00   0.00     0.02   0.02  -0.00
     7   1    -0.03  -0.01  -0.00    -0.00   0.00  -0.00     0.80   0.59   0.00
     8   1     0.00   0.00  -0.00     0.85   0.51  -0.00     0.00   0.00  -0.00
     9   1    -0.02   0.22   0.00     0.00  -0.00  -0.00    -0.00  -0.00  -0.00

 -------------------
 - Thermochemistry -
 -------------------
 Temperature   298.150 Kelvin.  Pressure   1.00000 Atm.
 Atom     1 has atomic number  6 and mass  12.00000
 Atom     2 has atomic number  6 and mass  12.00000
 Atom     3 has atomic number  8 and mass  15.99491
 Atom     4 has atomic number  6 and mass  12.00000
 Atom     5 has atomic number  6 and mass  12.00000
 Atom     6 has atomic number  1 and mass   1.00783
 Atom     7 has atomic number  1 and mass   1.00783
 Atom     8 has atomic number  1 and mass   1.00783
 Atom     9 has atomic number  1 and mass   1.00783
 Molecular mass:    68.02621 amu.
 Principal axes and moments of inertia in atomic units:
                           1         2         3
     Eigenvalues --   129.87640 521.41930 651.29570
           X            0.99934   0.03624  -0.00000
           Y           -0.03624   0.99934   0.00000
           Z            0.00000  -0.00000   1.00000
 This molecule is an asymmetric top.
 Rotational symmetry number  1.
 Rotational temperatures (Kelvin)      0.66689     0.16611     0.13299
 Rotational constants (GHZ):          13.89584     3.46121     2.77100
 Zero-point vibrational energy     174482.0 (Joules/Mol)
                                   41.70220 (Kcal/Mol)
 Warning -- explicit consideration of   4 degrees of freedom as
           vibrations may cause significant error
 Vibrational temperatures:    207.97   311.47   562.08   611.76   970.64
          (Kelvin)           1039.00  1047.57  1050.61  1167.25  1402.76
                             1485.42  1657.51  1771.09  2008.58  2104.62
                             2261.73  3015.12  4563.22  4600.33  4894.35
                             5237.58
 
 Zero-point correction=                           0.066457 (Hartree/Particle)
 Thermal correction to Energy=                    0.071713
 Thermal correction to Enthalpy=                  0.072657
 Thermal correction to Gibbs Free Energy=         0.037725
 Sum of electronic and zero-point Energies=           -229.656367
 Sum of electronic and thermal Energies=              -229.651111
 Sum of electronic and thermal Enthalpies=            -229.650167
 Sum of electronic and thermal Free Energies=         -229.685099
 
                     E (Thermal)             CV                S
                      KCal/Mol        Cal/Mol-Kelvin    Cal/Mol-Kelvin
 Total                   45.000             17.870             73.520
 Electronic               0.000              0.000              1.377
 Translational            0.889              2.981             38.570
 Rotational               0.889              2.981             25.292
 Vibrational             43.223             11.909              8.281
 Vibration     1          0.616              1.909              2.743
 Vibration     2          0.645              1.816              1.988
 Vibration     3          0.758              1.490              0.998
 Vibration     4          0.787              1.415              0.874
                       Q            Log10(Q)             Ln(Q)
 Total Bot       0.444356D-17        -17.352269        -39.955077
 Total V=0       0.164292D+14         13.215616         30.430081
 Vib (Bot)       0.134010D-29        -29.872863        -68.784809
 Vib (Bot)    1  0.140495D+01          0.147661          0.340002
 Vib (Bot)    2  0.915056D+00         -0.038552         -0.088770
 Vib (Bot)    3  0.459330D+00         -0.337875         -0.777986
 Vib (Bot)    4  0.411315D+00         -0.385825         -0.888395
 Vib (V=0)       0.495476D+01          0.695022          1.600348
 Vib (V=0)    1  0.199127D+01          0.299130          0.688773
 Vib (V=0)    2  0.154275D+01          0.188295          0.433566
 Vib (V=0)    3  0.117896D+01          0.071498          0.164631
 Vib (V=0)    4  0.114744D+01          0.059730          0.137535
 Electronic      0.200000D+01          0.301030          0.693147
 Translational   0.220531D+08          7.343470         16.908964
 Rotational      0.751786D+05          4.876094         11.227622
 
                                                                 min
                                                             IR Spectrum
 
      3       3      33                                    2                  1  1  1     1 1   1                                    
      6       4      11                                    0                  5  4  3     2 1   0 9     8777 6        43     2 1     
      4       0      97                                    9                  7  6  9     3 5   3 7     1322 7        29     1 4     
      0       2      72                                    6                  2  3  6     1 2   2 5     1082 5        51     6 5     
 
      X       X      XX                                    X                  X  X  X     X X   X X     XXXX X        XX       X     
      X       X       X                                    X                  X     X     X X   X       X  X X        XX             
      X       X                                            X                  X     X     X X           X  X X                       
      X       X                                            X                  X           X             X                            
      X       X                                            X                  X           X             X                            
      X       X                                            X                  X           X             X                            
              X                                            X                  X           X             X                            
              X                                            X                  X           X                                          
              X                                            X                  X           X                                          
                                                           X                  X           X                                          
                                                                              X           X                                          
                                                                              X           X                                          
                                                                              X                                                      
                                                                              X                                                      
                                                                              X                                                      
                                                                              X                                                      
                                                                              X                                                      
                                                                              X                                                      
                                                                              X                                                      
                                                                              X                                                      
 
 ***** Axes restored to original set *****
 -------------------------------------------------------------------
 Center     Atomic                   Forces (Hartrees/Bohr)
 Number     Number              X              Y              Z
 -------------------------------------------------------------------
      1        6           0.000003635   -0.000017062    0.000011677
      2        6          -0.000006387    0.000000368    0.000014175
      3        8          -0.000000881    0.000004024   -0.000003410
      4        6          -0.000003733    0.000008637   -0.000002881
      5        6           0.000005971    0.000012012   -0.000024226
      6        1           0.000000769    0.000001778   -0.000002413
      7        1          -0.000000409    0.000000090    0.000000637
      8        1          -0.000000964   -0.000004531    0.000005180
      9        1           0.000001999   -0.000005317    0.000001261
 -------------------------------------------------------------------
 Cartesian Forces:  Max     0.000024226 RMS     0.000007858
 Z-matrix is all fixed cartesians, so copy forces.
 Force constants in Cartesian coordinates: 
                1             2             3             4             5 
      1  0.416170D+00
      2 -0.238521D+00  0.615902D+00
      3 -0.198953D+00 -0.110798D+00  0.613750D+00
      4  0.855154D-02 -0.453846D-02 -0.142461D-02  0.301087D+00
      5  0.372298D-02 -0.137880D-01  0.142785D-01 -0.465555D+00  0.101909D+01
      6 -0.106282D-01  0.285372D-01 -0.865271D-02  0.111839D+00 -0.258959D+00
      7 -0.212022D+00  0.956715D-01  0.179569D+00 -0.651200D-03  0.167177D-02
      8  0.106293D+00 -0.149437D+00 -0.684689D-01 -0.187658D-02 -0.337145D-02
      9  0.167735D+00 -0.501357D-01 -0.279869D+00 -0.857304D-03 -0.175766D-02
     10 -0.244060D-02  0.563029D-02  0.202793D-02 -0.194699D+00  0.323980D+00
     11  0.685066D-02 -0.867178D-02  0.476690D-03  0.324442D+00 -0.703159D+00
     12  0.667992D-03  0.258274D-02 -0.166215D-02 -0.924082D-01  0.180912D+00
     13 -0.887443D-01  0.972250D-03  0.411309D-01 -0.119807D+00  0.127899D+00
     14  0.892984D-02 -0.167937D+00  0.100066D+00  0.127184D+00 -0.299149D+00
     15  0.322653D-01  0.113800D+00 -0.246754D+00 -0.165685D-01  0.598308D-01
     16 -0.104846D+00  0.108463D+00 -0.245523D-01  0.275919D-02  0.719505D-03
     17  0.112139D+00 -0.274774D+00  0.579194D-01  0.122143D-02  0.123105D-02
     18 -0.286468D-01  0.642624D-01 -0.712093D-01  0.271707D-02  0.309334D-02
     19 -0.184892D-01  0.282201D-01 -0.625902D-03 -0.865438D-03  0.540335D-03
     20  0.117305D-01 -0.123354D-01 -0.721194D-02  0.150222D-02 -0.110843D-02
     21  0.177448D-01 -0.356720D-01  0.847902D-02 -0.599585D-03  0.312943D-04
     22  0.855611D-04  0.487926D-03 -0.116132D-02  0.669099D-02 -0.150749D-02
     23 -0.103198D-02 -0.317100D-03  0.183106D-02 -0.150332D-02  0.105208D-01
     24  0.532124D-03 -0.792377D-03 -0.307797D-03  0.277138D-02 -0.954599D-03
     25  0.173492D-02  0.361353D-02  0.398971D-02 -0.306583D-02  0.852902D-02
     26 -0.101138D-01  0.113591D-01  0.119072D-01  0.191238D-01 -0.102675D-01
     27  0.192832D-01 -0.117843D-01 -0.137728D-01 -0.546894D-02  0.352490D-02
                6             7             8             9            10 
      6  0.160847D+00
      7 -0.481095D-02  0.335285D+00
      8  0.436646D-02 -0.278517D+00  0.491055D+00
      9  0.107934D-02 -0.186933D+00 -0.137929D-01  0.385197D+00
     10 -0.918953D-01  0.917334D-03 -0.223063D-02  0.210578D-03  0.292050D+00
     11  0.180118D+00 -0.124078D-02  0.287197D-02 -0.150421D-02 -0.485468D+00
     12 -0.808764D-01 -0.891855D-03  0.204162D-03  0.911511D-03  0.136202D+00
     13 -0.173639D-01 -0.165173D-02 -0.439131D-02  0.405882D-01 -0.350941D-02
     14  0.610625D-01 -0.377347D-03  0.231648D-01 -0.395578D-02  0.170957D-01
     15 -0.853690D-01  0.361161D-01  0.297265D-02 -0.466154D-01 -0.494532D-02
     16  0.327643D-02 -0.152528D-01  0.226543D-01  0.115465D-02 -0.245127D-03
     17  0.222662D-02  0.693211D-02 -0.680773D-02 -0.433612D-02 -0.368485D-03
     18 -0.301372D-02  0.186704D-01 -0.314715D-01  0.287720D-02 -0.764187D-03
     19  0.472046D-03 -0.109899D+00  0.156758D+00 -0.228938D-01  0.250993D-03
     20 -0.162865D-02  0.174540D+00 -0.356347D+00  0.712692D-01  0.662149D-04
     21  0.756581D-03 -0.427044D-01  0.101960D+00 -0.618640D-01 -0.264239D-03
     22  0.277706D-02 -0.509255D-03  0.295727D-03  0.733186D-03 -0.932070D-01
     23 -0.963974D-03  0.939429D-03 -0.374402D-03 -0.108573D-02  0.140080D+00
     24  0.360753D-02  0.160506D-04  0.252686D-04  0.505276D-04 -0.401604D-01
     25  0.633418D-02  0.378396D-02  0.101381D-02  0.262899D-03  0.882496D-03
     26 -0.147597D-01  0.380026D-03 -0.753999D-03  0.529898D-02  0.121435D-02
     27  0.116214D-01  0.969128D-03  0.420490D-02 -0.176640D-02 -0.411523D-03
               11            12            13            14            15 
     11  0.105489D+01
     12 -0.273098D+00  0.126776D+00
     13  0.166062D-01 -0.440070D-02  0.359860D+00
     14 -0.289042D-01  0.788857D-02 -0.228315D+00  0.570064D+00
     15  0.873162D-02  0.346750D-02 -0.172649D+00 -0.115778D+00  0.539405D+00
     16 -0.782080D-03 -0.303424D-03  0.102406D-01 -0.430942D-02  0.459451D-02
     17 -0.783559D-04 -0.308136D-03  0.755460D-02 -0.233626D-02  0.839388D-03
     18  0.405579D-03 -0.586515D-04 -0.862306D-02  0.213162D-01  0.125556D-02
     19 -0.594158D-03  0.471409D-03 -0.106800D-02 -0.255342D-02 -0.380849D-02
     20  0.924605D-03 -0.987746D-03 -0.589507D-02  0.671656D-03  0.394160D-02
     21  0.152045D-03  0.427367D-03 -0.857190D-04 -0.182560D-02 -0.274097D-02
     22  0.139878D+00 -0.399357D-01  0.381667D-02  0.110048D-02 -0.144282D-02
     23 -0.316576D+00  0.818609D-01  0.131416D-02  0.147220D-02  0.203495D-03
     24  0.822085D-01 -0.483282D-01 -0.168086D-02  0.572194D-03  0.595448D-02
     25  0.308355D-03  0.598062D-03 -0.159136D+00  0.812447D-01  0.126438D+00
     26 -0.130143D-02  0.945025D-03  0.842550D-01 -0.970463D-01 -0.745409D-01
     27  0.250910D-02 -0.656807D-03  0.123084D+00 -0.693453D-01 -0.168602D+00
               16            17            18            19            20 
     16  0.103765D+00
     17 -0.129499D+00  0.279178D+00
     18  0.116793D-01 -0.575038D-01  0.708478D-01
     19  0.466816D-02  0.312423D-02  0.611177D-02  0.124991D+00
     20  0.377229D-02  0.402820D-02  0.394214D-03 -0.185670D+00  0.364444D+00
     21  0.538986D-02  0.151259D-02 -0.761685D-03  0.206715D-01 -0.664932D-01
     22 -0.698866D-04  0.336958D-05 -0.113413D-03  0.340643D-03 -0.192508D-03
     23  0.487206D-05 -0.119528D-03 -0.239261D-04 -0.243640D-03  0.140334D-03
     24 -0.115110D-03 -0.213007D-04  0.889636D-04 -0.145967D-03  0.286047D-03
     25 -0.101974D-02 -0.110733D-02 -0.103105D-02  0.711682D-04  0.146191D-03
     26 -0.102408D-02 -0.321445D-03 -0.472501D-03  0.418458D-03 -0.417996D-03
     27 -0.112393D-02 -0.328644D-03 -0.261124D-04 -0.252568D-03  0.430490D-03
               21            22            23            24            25 
     21  0.555203D-01
     22 -0.202932D-03  0.829377D-01
     23  0.374289D-03 -0.139528D+00  0.305268D+00
     24  0.320986D-04  0.390882D-01 -0.819517D-01  0.393576D-01
     25  0.507489D-04 -0.854243D-04 -0.313259D-04 -0.305421D-03  0.156835D+00
     26 -0.393932D-04 -0.536822D-03 -0.147240D-04  0.628009D-03 -0.937169D-01
     27  0.151278D-03  0.257735D-03 -0.244334D-03 -0.455266D-03 -0.136337D+00
               26            27 
     26  0.987643D-01
     27  0.710333D-01  0.173507D+00
 Leave Link  716 at Thu Jan 24 16:17:23 2019, MaxMem=    33554432 cpu:         0.0
 (Enter /apl/tryton/gaussian/09/d01/g09/l103.exe)

 GradGradGradGradGradGradGradGradGradGradGradGradGradGradGradGradGradGrad
 Berny optimization.
 Search for a local minimum.
 Step number   1 out of a maximum of    2
 All quantities printed in internal units (Hartrees-Bohrs-Radians)
 Second derivative matrix not updated -- analytic derivatives used.
 ITU=  0
     Eigenvalues ---    0.00350   0.00355   0.01842   0.02404   0.04547
     Eigenvalues ---    0.05677   0.05965   0.06198   0.09103   0.12096
     Eigenvalues ---    0.14161   0.19275   0.22804   0.22851   0.43317
     Eigenvalues ---    0.72984   0.79893   0.97635   1.11429   1.26042
     Eigenvalues ---    2.32957
 Angle between quadratic step and forces=  79.93 degrees.
 Linear search not attempted -- first point.
 TrRot=  0.000011  0.000009 -0.000015 -0.000001 -0.000005 -0.000001
 Variable       Old X    -DE/DX   Delta X   Delta X   Delta X     New X
                                 (Linear)    (Quad)   (Total)
    X1        0.63299   0.00000   0.00000   0.00001   0.00001   0.63300
    Y1       -2.37430  -0.00002   0.00000  -0.00000   0.00000  -2.37430
    Z1        1.24648   0.00001   0.00000  -0.00002  -0.00003   1.24645
    X2       -0.01789  -0.00001   0.00000   0.00007   0.00009  -0.01780
    Y2        1.19385   0.00000   0.00000  -0.00008  -0.00007   1.19378
    Z2       -1.60541   0.00001   0.00000   0.00006   0.00004  -1.60537
    X3       -0.86577  -0.00000   0.00000  -0.00006  -0.00007  -0.86584
    Y3       -1.64092   0.00000   0.00000   0.00026   0.00027  -1.64065
    Z3        3.01619  -0.00000   0.00000  -0.00019  -0.00021   3.01599
    X4       -1.00323  -0.00000   0.00000  -0.00006  -0.00003  -1.00326
    Y4        3.20937   0.00001   0.00000  -0.00010  -0.00009   3.20928
    Z4       -2.15011  -0.00000   0.00000   0.00021   0.00019  -2.14992
    X5        1.11089   0.00001   0.00000   0.00013   0.00014   1.11104
    Y5       -1.07198   0.00001   0.00000  -0.00010  -0.00009  -1.07207
    Z5       -1.02924  -0.00002   0.00000  -0.00010  -0.00011  -1.02935
    X6        1.55380   0.00000   0.00000  -0.00010  -0.00010   1.55370
    Y6       -4.16370   0.00000   0.00000  -0.00001  -0.00000  -4.16370
    Z6        1.65073  -0.00000   0.00000   0.00016   0.00016   1.65088
    X7       -1.70768  -0.00000   0.00000   0.00006   0.00006  -1.70762
    Y7       -0.03276   0.00000   0.00000   0.00029   0.00030  -0.03246
    Z7        2.67766   0.00000   0.00000  -0.00042  -0.00044   2.67721
    X8       -1.85276  -0.00000   0.00000  -0.00026  -0.00023  -1.85299
    Y8        4.97548  -0.00000   0.00000  -0.00014  -0.00013   4.97536
    Z8       -2.65132   0.00001   0.00000   0.00048   0.00046  -2.65086
    X9        2.42781   0.00000   0.00000   0.00012   0.00013   2.42794
    Y9       -1.92233  -0.00001   0.00000  -0.00021  -0.00020  -1.92253
    Z9       -2.35471   0.00000   0.00000  -0.00005  -0.00005  -2.35476
         Item               Value     Threshold  Converged?
 Maximum Force            0.000024     0.000450     YES
 RMS     Force            0.000008     0.000300     YES
 Maximum Displacement     0.000456     0.001800     YES
 RMS     Displacement     0.000182     0.001200     YES
 Predicted change in Energy=-3.148253D-09
 Optimization completed.
    -- Stationary point found.
 GradGradGradGradGradGradGradGradGradGradGradGradGradGradGradGradGradGrad

 Leave Link  103 at Thu Jan 24 16:17:23 2019, MaxMem=    33554432 cpu:         0.0
 (Enter /apl/tryton/gaussian/09/d01/g09/l9999.exe)
 1\1\ CITASK-GV1910\Freq\UB3LYP\6-311++G(d,p)\C4H4O1(1+,2)\EERD\24-Jan-
 2019\0\\#p b3lyp/6-311++g(d,p) freq\\min\\1,2\C,0.334963,-1.256427,0.6
 59609\C,-0.009466,0.631757,-0.849546\O,-0.458146,-0.868339,1.596101\C,
 -0.530888,1.698324,-1.13779\C,0.587859,-0.56727,-0.544649\H,0.822238,-
 2.203334,0.873528\H,-0.903665,-0.017337,1.416954\H,-0.980437,2.632911,
 -1.403017\H,1.28474,-1.017251,-1.246059\\Version=ES64L-G09RevD.01\Stat
 e=2-A\HF=-229.7228238\S2=0.761766\S2-1=0.\S2A=0.750059\RMSD=5.084e-09\
 RMSF=7.858e-06\ZeroPoint=0.0664567\Thermal=0.0717126\Dipole=-0.0061629
 ,0.2942198,-0.3170984\DipoleDeriv=0.4680857,0.2663839,-0.6328566,-0.16
 53627,0.5234717,0.0067583,-0.1518575,-0.7383979,1.3580985,-0.1303922,0
 .3156181,-0.0969074,0.2445845,-0.6590234,0.3312255,-0.0177663,0.208608
 2,-0.1845522,-0.4506976,-0.2692752,0.6725609,0.1535477,-0.0907097,-0.4
 255828,0.2015011,0.3041777,-0.9214929,0.0878792,-0.0945433,0.0931392,-
 0.0823335,0.3313843,-0.1370639,0.079531,-0.1159691,0.0727565,0.1002677
 ,-0.1516538,0.0153935,-0.0861527,-0.0026496,0.1642242,-0.0575763,0.277
 2677,-0.198237,0.1308457,-0.0170603,0.0289073,-0.0004645,0.1706253,-0.
 0371233,0.0104171,-0.0084757,0.1280465,0.3860241,0.0495611,-0.090385,0
 .0026618,0.2164108,0.1616688,-0.0381345,0.0807191,0.3415357,0.2433766,
 -0.1031889,0.0217563,-0.0815299,0.395757,-0.0891944,-0.0023735,-0.0518
 084,0.2511883,0.164611,0.0041582,-0.0116082,0.0150492,0.1147335,0.0250
 876,-0.0237411,0.0438784,0.1526566\Polar=33.1323522,-14.6938564,64.662
 6631,-0.759258,-20.8230839,47.7166273\PG=C01 [X(C4H4O1)]\NImag=0\\0.41
 616995,-0.23852057,0.61590161,-0.19895338,-0.11079772,0.61374962,0.008
 55154,-0.00453846,-0.00142461,0.30108667,0.00372298,-0.01378797,0.0142
 7854,-0.46555547,1.01909174,-0.01062822,0.02853718,-0.00865271,0.11183
 865,-0.25895861,0.16084690,-0.21202202,0.09567147,0.17956892,-0.000651
 20,0.00167177,-0.00481095,0.33528489,0.10629345,-0.14943720,-0.0684689
 4,-0.00187658,-0.00337145,0.00436646,-0.27851669,0.49105511,0.16773500
 ,-0.05013574,-0.27986938,-0.00085730,-0.00175766,0.00107934,-0.1869333
 9,-0.01379295,0.38519650,-0.00244060,0.00563029,0.00202793,-0.19469852
 ,0.32398030,-0.09189525,0.00091733,-0.00223063,0.00021058,0.29204980,0
 .00685066,-0.00867178,0.00047669,0.32444196,-0.70315934,0.18011817,-0.
 00124078,0.00287197,-0.00150421,-0.48546783,1.05489416,0.00066799,0.00
 258274,-0.00166215,-0.09240819,0.18091203,-0.08087639,-0.00089185,0.00
 020416,0.00091151,0.13620239,-0.27309751,0.12677577,-0.08874434,0.0009
 7225,0.04113095,-0.11980740,0.12789906,-0.01736394,-0.00165173,-0.0043
 9131,0.04058820,-0.00350941,0.01660622,-0.00440070,0.35986004,0.008929
 84,-0.16793699,0.10006567,0.12718448,-0.29914887,0.06106250,-0.0003773
 5,0.02316475,-0.00395578,0.01709565,-0.02890417,0.00788857,-0.22831493
 ,0.57006393,0.03226532,0.11379980,-0.24675447,-0.01656846,0.05983077,-
 0.08536896,0.03611612,0.00297265,-0.04661536,-0.00494532,0.00873162,0.
 00346750,-0.17264909,-0.11577839,0.53940452,-0.10484583,0.10846346,-0.
 02455228,0.00275919,0.00071951,0.00327643,-0.01525275,0.02265429,0.001
 15465,-0.00024513,-0.00078208,-0.00030342,0.01024057,-0.00430942,0.004
 59451,0.10376542,0.11213892,-0.27477427,0.05791939,0.00122143,0.001231
 05,0.00222662,0.00693211,-0.00680773,-0.00433612,-0.00036849,-0.000078
 36,-0.00030814,0.00755460,-0.00233626,0.00083939,-0.12949883,0.2791783
 4,-0.02864684,0.06426243,-0.07120932,0.00271707,0.00309334,-0.00301372
 ,0.01867041,-0.03147152,0.00287720,-0.00076419,0.00040558,-0.00005865,
 -0.00862306,0.02131618,0.00125556,0.01167931,-0.05750380,0.07084776,-0
 .01848917,0.02822011,-0.00062590,-0.00086544,0.00054033,0.00047205,-0.
 10989922,0.15675795,-0.02289381,0.00025099,-0.00059416,0.00047141,-0.0
 0106800,-0.00255342,-0.00380849,0.00466816,0.00312423,0.00611177,0.124
 99087,0.01173050,-0.01233536,-0.00721194,0.00150222,-0.00110843,-0.001
 62865,0.17454002,-0.35634705,0.07126921,0.00006621,0.00092460,-0.00098
 775,-0.00589507,0.00067166,0.00394160,0.00377229,0.00402820,0.00039421
 ,-0.18566986,0.36444404,0.01774479,-0.03567198,0.00847902,-0.00059959,
 0.00003129,0.00075658,-0.04270443,0.10195997,-0.06186395,-0.00026424,0
 .00015205,0.00042737,-0.00008572,-0.00182560,-0.00274097,0.00538986,0.
 00151259,-0.00076169,0.02067151,-0.06649322,0.05552026,0.00008556,0.00
 048793,-0.00116132,0.00669099,-0.00150749,0.00277706,-0.00050926,0.000
 29573,0.00073319,-0.09320697,0.13987766,-0.03993568,0.00381667,0.00110
 048,-0.00144282,-0.00006989,0.00000337,-0.00011341,0.00034064,-0.00019
 251,-0.00020293,0.08293768,-0.00103198,-0.00031710,0.00183106,-0.00150
 332,0.01052076,-0.00096397,0.00093943,-0.00037440,-0.00108573,0.140080
 14,-0.31657567,0.08186086,0.00131416,0.00147220,0.00020349,0.00000487,
 -0.00011953,-0.00002393,-0.00024364,0.00014033,0.00037429,-0.13952834,
 0.30526812,0.00053212,-0.00079238,-0.00030780,0.00277138,-0.00095460,0
 .00360753,0.00001605,0.00002527,0.00005053,-0.04016037,0.08220851,-0.0
 4832816,-0.00168086,0.00057219,0.00595448,-0.00011511,-0.00002130,0.00
 008896,-0.00014597,0.00028605,0.00003210,0.03908817,-0.08195175,0.0393
 5763,0.00173492,0.00361353,0.00398971,-0.00306583,0.00852902,0.0063341
 8,0.00378396,0.00101381,0.00026290,0.00088250,0.00030836,0.00059806,-0
 .15913639,0.08124467,0.12643823,-0.00101974,-0.00110733,-0.00103105,0.
 00007117,0.00014619,0.00005075,-0.00008542,-0.00003133,-0.00030542,0.1
 5683484,-0.01011380,0.01135907,0.01190725,0.01912375,-0.01026749,-0.01
 475969,0.00038003,-0.00075400,0.00529898,0.00121435,-0.00130143,0.0009
 4503,0.08425503,-0.09704625,-0.07454093,-0.00102408,-0.00032144,-0.000
 47250,0.00041846,-0.00041800,-0.00003939,-0.00053682,-0.00001472,0.000
 62801,-0.09371691,0.09876427,0.01928322,-0.01178432,-0.01377280,-0.005
 46894,0.00352490,0.01162142,0.00096913,0.00420490,-0.00176640,-0.00041
 152,0.00250910,-0.00065681,0.12308423,-0.06934535,-0.16860232,-0.00112
 393,-0.00032864,-0.00002611,-0.00025257,0.00043049,0.00015128,0.000257
 74,-0.00024433,-0.00045527,-0.13633735,0.07103326,0.17350701\\-0.00000
 363,0.00001706,-0.00001168,0.00000639,-0.00000037,-0.00001418,0.000000
 88,-0.00000402,0.00000341,0.00000373,-0.00000864,0.00000288,-0.0000059
 7,-0.00001201,0.00002423,-0.00000077,-0.00000178,0.00000241,0.00000041
 ,-0.00000009,-0.00000064,0.00000096,0.00000453,-0.00000518,-0.00000200
 ,0.00000532,-0.00000126\\\@


 ABOVE ALL I AM AN OPTIMIST FOR NUMBER THEORY,
 AND I HOLD THE HOPE THAT WE MAY NOT BE FAR FROM
 A TIME WHEN IRREFUTABLE ARITHMETIC WILL CELEBRATE
 ITS TRIUMPHS IN PHYSICS AND CHEMISTRY.
   -- HERMANN MINKOWSKI, 1905
 Job cpu time:       0 days  0 hours  6 minutes 14.4 seconds.
 File lengths (MBytes):  RWF=     38 Int=      0 D2E=      0 Chk=      3 Scr=      1
 Normal termination of Gaussian 09 at Thu Jan 24 16:17:23 2019.
