 Entering Gaussian System, Link 0=g09
 Initial command:
 /apl/tryton/gaussian/09/d01/g09/l1.exe "/users/work/eerd/M3C-outputs/8/Gau-30521.inp" -scrdir="/users/work/eerd/M3C-outputs/8/"
 Entering Link 1 = /apl/tryton/gaussian/09/d01/g09/l1.exe PID=     30522.
  
 Copyright (c) 1988,1990,1992,1993,1995,1998,2003,2009,2013,
            Gaussian, Inc.  All Rights Reserved.
  
 This is part of the Gaussian(R) 09 program.  It is based on
 the Gaussian(R) 03 system (copyright 2003, Gaussian, Inc.),
 the Gaussian(R) 98 system (copyright 1998, Gaussian, Inc.),
 the Gaussian(R) 94 system (copyright 1995, Gaussian, Inc.),
 the Gaussian 92(TM) system (copyright 1992, Gaussian, Inc.),
 the Gaussian 90(TM) system (copyright 1990, Gaussian, Inc.),
 the Gaussian 88(TM) system (copyright 1988, Gaussian, Inc.),
 the Gaussian 86(TM) system (copyright 1986, Carnegie Mellon
 University), and the Gaussian 82(TM) system (copyright 1983,
 Carnegie Mellon University). Gaussian is a federally registered
 trademark of Gaussian, Inc.
  
 This software contains proprietary and confidential information,
 including trade secrets, belonging to Gaussian, Inc.
  
 This software is provided under written license and may be
 used, copied, transmitted, or stored only in accord with that
 written license.
  
 The following legend is applicable only to US Government
 contracts under FAR:
  
                    RESTRICTED RIGHTS LEGEND
  
 Use, reproduction and disclosure by the US Government is
 subject to restrictions as set forth in subparagraphs (a)
 and (c) of the Commercial Computer Software - Restricted
 Rights clause in FAR 52.227-19.
  
 Gaussian, Inc.
 340 Quinnipiac St., Bldg. 40, Wallingford CT 06492
  
  
 ---------------------------------------------------------------
 Warning -- This program may not be used in any manner that
 competes with the business of Gaussian, Inc. or will provide
 assistance to any competitor of Gaussian, Inc.  The licensee
 of this program is prohibited from giving any competitor of
 Gaussian, Inc. access to this program.  By using this program,
 the user acknowledges that Gaussian, Inc. is engaged in the
 business of creating and licensing software in the field of
 computational chemistry and represents and warrants to the
 licensee that it is not a competitor of Gaussian, Inc. and that
 it will not use this program in any manner prohibited above.
 ---------------------------------------------------------------
  

 Cite this work as:
 Gaussian 09, Revision D.01,
 M. J. Frisch, G. W. Trucks, H. B. Schlegel, G. E. Scuseria, 
 M. A. Robb, J. R. Cheeseman, G. Scalmani, V. Barone, B. Mennucci, 
 G. A. Petersson, H. Nakatsuji, M. Caricato, X. Li, H. P. Hratchian, 
 A. F. Izmaylov, J. Bloino, G. Zheng, J. L. Sonnenberg, M. Hada, 
 M. Ehara, K. Toyota, R. Fukuda, J. Hasegawa, M. Ishida, T. Nakajima, 
 Y. Honda, O. Kitao, H. Nakai, T. Vreven, J. A. Montgomery, Jr., 
 J. E. Peralta, F. Ogliaro, M. Bearpark, J. J. Heyd, E. Brothers, 
 K. N. Kudin, V. N. Staroverov, T. Keith, R. Kobayashi, J. Normand, 
 K. Raghavachari, A. Rendell, J. C. Burant, S. S. Iyengar, J. Tomasi, 
 M. Cossi, N. Rega, J. M. Millam, M. Klene, J. E. Knox, J. B. Cross, 
 V. Bakken, C. Adamo, J. Jaramillo, R. Gomperts, R. E. Stratmann, 
 O. Yazyev, A. J. Austin, R. Cammi, C. Pomelli, J. W. Ochterski, 
 R. L. Martin, K. Morokuma, V. G. Zakrzewski, G. A. Voth, 
 P. Salvador, J. J. Dannenberg, S. Dapprich, A. D. Daniels, 
 O. Farkas, J. B. Foresman, J. V. Ortiz, J. Cioslowski, 
 and D. J. Fox, Gaussian, Inc., Wallingford CT, 2013.
 
 ******************************************
 Gaussian 09:  ES64L-G09RevD.01 24-Apr-2013
                 4-Mar-2018 
 ******************************************
 ---------------------------
 #p b3lyp/6-311++g(d,p) freq
 ---------------------------
 1/10=4,30=1,38=1/1,3;
 2/12=2,17=6,18=5,40=1/2;
 3/5=4,6=6,7=1111,11=2,16=1,25=1,30=1,71=2,74=-5,140=1/1,2,3;
 4//1;
 5/5=2,38=5,98=1/2;
 8/6=4,10=90,11=11/1;
 11/6=1,8=1,9=11,15=111,16=1/1,2,10;
 10/6=1/2;
 6/7=2,8=2,9=2,10=2,18=1,28=1/1;
 7/8=1,10=1,25=1/1,2,3,16;
 1/10=4,30=1/3;
 99//99;
 Leave Link    1 at Sun Mar  4 21:17:16 2018, MaxMem=           0 cpu:         0.0
 (Enter /apl/tryton/gaussian/09/d01/g09/l101.exe)
 ---
 min
 ---
 Symbolic Z-matrix:
 Charge =  0 Multiplicity = 3
 C                     1.78437   0.18663   0.00044 
 H                     2.33872   0.33683  -0.92525 
 H                     2.33869   0.33824   0.92592 
 C                     0.53045  -0.15669   0.0007 
 C                    -0.77404  -0.50463   0.0008 
 H                    -1.00557  -1.57138  -0.0005 
 H                    -1.9456    1.45528  -0.00013 
 C                    -1.82924   0.38125  -0.00006 
 
 NAtoms=      8 NQM=        8 NQMF=       0 NMMI=      0 NMMIF=      0
                NMic=       0 NMicF=      0.
                    Isotopes and Nuclear Properties:
 (Nuclear quadrupole moments (NQMom) in fm**2, nuclear magnetic moments (NMagM)
  in nuclear magnetons)

  Atom         1           2           3           4           5           6           7           8
 IAtWgt=          12           1           1          12          12           1           1          12
 AtmWgt=  12.0000000   1.0078250   1.0078250  12.0000000  12.0000000   1.0078250   1.0078250  12.0000000
 NucSpn=           0           1           1           0           0           1           1           0
 AtZEff=   0.0000000   0.0000000   0.0000000   0.0000000   0.0000000   0.0000000   0.0000000   0.0000000
 NQMom=    0.0000000   0.0000000   0.0000000   0.0000000   0.0000000   0.0000000   0.0000000   0.0000000
 NMagM=    0.0000000   2.7928460   2.7928460   0.0000000   0.0000000   2.7928460   2.7928460   0.0000000
 AtZNuc=   6.0000000   1.0000000   1.0000000   6.0000000   6.0000000   1.0000000   1.0000000   6.0000000
 Leave Link  101 at Sun Mar  4 21:17:16 2018, MaxMem=    33554432 cpu:         0.1
 (Enter /apl/tryton/gaussian/09/d01/g09/l103.exe)

 GradGradGradGradGradGradGradGradGradGradGradGradGradGradGradGradGradGrad
 Berny optimization.
 Initialization pass.
 Trust Radius=3.00D-01 FncErr=1.00D-07 GrdErr=1.00D-07
 Number of steps in this run=      2 maximum allowed number of steps=      2.
 GradGradGradGradGradGradGradGradGradGradGradGradGradGradGradGradGradGrad

 Leave Link  103 at Sun Mar  4 21:17:17 2018, MaxMem=    33554432 cpu:         0.0
 (Enter /apl/tryton/gaussian/09/d01/g09/l202.exe)
                          Input orientation:                          
 ---------------------------------------------------------------------
 Center     Atomic      Atomic             Coordinates (Angstroms)
 Number     Number       Type             X           Y           Z
 ---------------------------------------------------------------------
      1          6           0        1.784369    0.186632    0.000443
      2          1           0        2.338715    0.336833   -0.925251
      3          1           0        2.338687    0.338242    0.925921
      4          6           0        0.530447   -0.156690    0.000696
      5          6           0       -0.774044   -0.504630    0.000795
      6          1           0       -1.005569   -1.571384   -0.000502
      7          1           0       -1.945600    1.455275   -0.000133
      8          6           0       -1.829243    0.381248   -0.000062
 ---------------------------------------------------------------------
                    Distance matrix (angstroms):
                    1          2          3          4          5
     1  C    0.000000
     2  H    1.089389   0.000000
     3  H    1.089387   1.851173   0.000000
     4  C    1.300073   2.090640   2.090629   0.000000
     5  C    2.650155   3.354831   3.354905   1.350096   0.000000
     6  H    3.297632   3.959885   3.960932   2.088230   1.091590
     7  H    3.939813   4.523506   4.523323   2.954529   2.283369
     8  C    3.618849   4.269639   4.269770   2.420230   1.377761
                    6          7          8
     6  H    0.000000
     7  H    3.169278   0.000000
     8  C    2.119248   1.080312   0.000000
 Stoichiometry    C4H4(3)
 Framework group  C1[X(C4H4)]
 Deg. of freedom    18
 Full point group                 C1      NOp   1
 Largest Abelian subgroup         C1      NOp   1
 Largest concise Abelian subgroup C1      NOp   1
                         Standard orientation:                         
 ---------------------------------------------------------------------
 Center     Atomic      Atomic             Coordinates (Angstroms)
 Number     Number       Type             X           Y           Z
 ---------------------------------------------------------------------
      1          6           0        1.784484   -0.187158   -0.000041
      2          1           0        2.338791   -0.337504    0.925653
      3          1           0        2.338763   -0.338913   -0.925519
      4          6           0        0.530652    0.156491   -0.000294
      5          6           0       -0.773748    0.504773   -0.000393
      6          1           0       -1.004994    1.571587    0.000904
      7          1           0       -1.945816   -1.454826    0.000535
      8          6           0       -1.829179   -0.380830    0.000464
 ---------------------------------------------------------------------
 Rotational constants (GHZ):     41.8200104      4.7472390      4.3912238
 Leave Link  202 at Sun Mar  4 21:17:17 2018, MaxMem=    33554432 cpu:         0.0
 (Enter /apl/tryton/gaussian/09/d01/g09/l301.exe)
 Standard basis: 6-311++G(d,p) (5D, 7F)
 Ernie: Thresh=  0.10000D-02 Tol=  0.10000D-05 Strict=F.
 There are   120 symmetry adapted cartesian basis functions of A   symmetry.
 There are   116 symmetry adapted basis functions of A   symmetry.
   116 basis functions,   180 primitive gaussians,   120 cartesian basis functions
    15 alpha electrons       13 beta electrons
       nuclear repulsion energy        89.2154971899 Hartrees.
 IExCor=  402 DFT=T Ex+Corr=B3LYP ExCW=0 ScaHFX=  0.200000
 ScaDFX=  0.800000  0.720000  1.000000  0.810000 ScalE2=  1.000000  1.000000
 IRadAn=      0 IRanWt=     -1 IRanGd=            0 ICorTp=0 IEmpDi=  4
 NAtoms=    8 NActive=    8 NUniq=    8 SFac= 1.00D+00 NAtFMM=   60 NAOKFM=F Big=F
 Integral buffers will be    131072 words long.
 Raffenetti 2 integral format.
 Two-electron integral symmetry is turned on.
 Leave Link  301 at Sun Mar  4 21:17:17 2018, MaxMem=    33554432 cpu:         0.0
 (Enter /apl/tryton/gaussian/09/d01/g09/l302.exe)
 NPDir=0 NMtPBC=     1 NCelOv=     1 NCel=       1 NClECP=     1 NCelD=      1
         NCelK=      1 NCelE2=     1 NClLst=     1 CellRange=     0.0.
 One-electron integrals computed using PRISM.
 NBasis=   116 RedAO= T EigKep=  2.74D-06  NBF=   116
 NBsUse=   116 1.00D-06 EigRej= -1.00D+00 NBFU=   116
 Precomputing XC quadrature grid using
 IXCGrd= 4 IRadAn=           0 IRanWt=          -1 IRanGd=           0 AccXCQ= 0.00D+00.
 Generated NRdTot=       0 NPtTot=           0 NUsed=           0 NTot=          32
 NSgBfM=   120   120   120   120   120 MxSgAt=     8 MxSgA2=     8.
 Leave Link  302 at Sun Mar  4 21:17:17 2018, MaxMem=    33554432 cpu:         0.2
 (Enter /apl/tryton/gaussian/09/d01/g09/l303.exe)
 DipDrv:  MaxL=1.
 Leave Link  303 at Sun Mar  4 21:17:17 2018, MaxMem=    33554432 cpu:         0.0
 (Enter /apl/tryton/gaussian/09/d01/g09/l401.exe)
 ExpMin= 3.60D-02 ExpMax= 4.56D+03 ExpMxC= 6.82D+02 IAcc=3 IRadAn=         5 AccDes= 0.00D+00
 Harris functional with IExCor=  402 and IRadAn=       5 diagonalized for initial guess.
 HarFok:  IExCor=  402 AccDes= 0.00D+00 IRadAn=         5 IDoV= 1 UseB2=F ITyADJ=14
 ICtDFT=  3500011 ScaDFX=  1.000000  1.000000  1.000000  1.000000
 FoFCou: FMM=F IPFlag=           0 FMFlag=      100000 FMFlg1=           0
         NFxFlg=           0 DoJE=T BraDBF=F KetDBF=T FulRan=T
         wScrn=  0.000000 ICntrl=     500 IOpCl=  0 I1Cent=   200000004 NGrid=           0
         NMat0=    1 NMatS0=      1 NMatT0=    0 NMatD0=    1 NMtDS0=    0 NMtDT0=    0
 Petite list used in FoFCou.
 Harris En= -154.669779710602    
 JPrj=0 DoOrth=F DoCkMO=F.
 Initial guess <Sx>= 0.0000 <Sy>= 0.0000 <Sz>= 1.0000 <S**2>= 2.0000 S= 1.0000
 Leave Link  401 at Sun Mar  4 21:17:19 2018, MaxMem=    33554432 cpu:         2.2
 (Enter /apl/tryton/gaussian/09/d01/g09/l502.exe)
 UHF open shell SCF:
 Using DIIS extrapolation, IDIIS=  1040.
 Integral symmetry usage will be decided dynamically.
 IVT=       63366 IEndB=       63366 NGot=    33554432 MDV=    33522227
 LenX=    33522227 LenY=    33507386
 Requested convergence on RMS density matrix=1.00D-08 within 128 cycles.
 Requested convergence on MAX density matrix=1.00D-06.
 Requested convergence on             energy=1.00D-06.
 No special actions if energy rises.
 Fock matrices will be formed incrementally for  20 cycles.

 Cycle   1  Pass 1  IDiag  1:
 FoFJK:  IHMeth= 1 ICntrl=       0 DoSepK=F KAlg= 0 I1Cent=   0 FoldK=F
 IRaf= 990000000 NMat=   1 IRICut=       1 DoRegI=T DoRafI=F ISym2E= 0.
 FoFCou: FMM=F IPFlag=           0 FMFlag=      100000 FMFlg1=           0
         NFxFlg=           0 DoJE=F BraDBF=F KetDBF=F FulRan=T
         wScrn=  0.000000 ICntrl=       0 IOpCl=  1 I1Cent=           0 NGrid=           0
         NMat0=    1 NMatS0=      1 NMatT0=    0 NMatD0=    1 NMtDS0=    0 NMtDT0=    0
 Symmetry not used in FoFCou.
 E= -154.571207430629    
 DIIS: error= 3.73D-02 at cycle   1 NSaved=   1.
 NSaved= 1 IEnMin= 1 EnMin= -154.571207430629     IErMin= 1 ErrMin= 3.73D-02
 ErrMax= 3.73D-02  0.00D+00 EMaxC= 1.00D-01 BMatC= 4.39D-01 BMatP= 4.39D-01
 IDIUse=3 WtCom= 6.27D-01 WtEn= 3.73D-01
 Coeff-Com:  0.100D+01
 Coeff-En:   0.100D+01
 Coeff:      0.100D+01
 Gap=     0.231 Goal=   None    Shift=    0.000
 Gap=     0.121 Goal=   None    Shift=    0.000
 GapD=    0.121 DampG=1.000 DampE=0.500 DampFc=0.5000 IDamp=-1.
 Damping current iteration by 5.00D-01
 RMSDP=9.86D-03 MaxDP=4.38D-01              OVMax= 2.04D-01

 Cycle   2  Pass 1  IDiag  1:
 RMSU=  4.54D-03    CP:  1.05D+00
 E= -154.623514082937     Delta-E=       -0.052306652308 Rises=F Damp=T
 DIIS: error= 6.45D-03 at cycle   2 NSaved=   2.
 NSaved= 2 IEnMin= 2 EnMin= -154.623514082937     IErMin= 2 ErrMin= 6.45D-03
 ErrMax= 6.45D-03  0.00D+00 EMaxC= 1.00D-01 BMatC= 2.15D-02 BMatP= 4.39D-01
 IDIUse=3 WtCom= 9.35D-01 WtEn= 6.45D-02
 Coeff-Com: -0.361D-02 0.100D+01
 Coeff-En:   0.382D-01 0.962D+00
 Coeff:     -0.907D-03 0.100D+01
 Gap=     0.196 Goal=   None    Shift=    0.000
 Gap=     0.209 Goal=   None    Shift=    0.000
 RMSDP=5.35D-03 MaxDP=1.77D-01 DE=-5.23D-02 OVMax= 1.43D-01

 Cycle   3  Pass 1  IDiag  1:
 RMSU=  5.05D-03    CP:  1.03D+00  1.33D+00
 E= -154.681080964641     Delta-E=       -0.057566881704 Rises=F Damp=F
 DIIS: error= 8.79D-03 at cycle   3 NSaved=   3.
 NSaved= 3 IEnMin= 3 EnMin= -154.681080964641     IErMin= 2 ErrMin= 6.45D-03
 ErrMax= 8.79D-03  0.00D+00 EMaxC= 1.00D-01 BMatC= 1.58D-02 BMatP= 2.15D-02
 IDIUse=3 WtCom= 9.12D-01 WtEn= 8.79D-02
 Coeff-Com: -0.523D-01 0.463D+00 0.589D+00
 Coeff-En:   0.000D+00 0.000D+00 0.100D+01
 Coeff:     -0.477D-01 0.422D+00 0.625D+00
 Gap=     0.195 Goal=   None    Shift=    0.000
 Gap=     0.196 Goal=   None    Shift=    0.000
 RMSDP=2.30D-03 MaxDP=6.42D-02 DE=-5.76D-02 OVMax= 6.90D-02

 Cycle   4  Pass 1  IDiag  1:
 RMSU=  1.43D-03    CP:  1.05D+00  1.33D+00  7.01D-01
 E= -154.684270812740     Delta-E=       -0.003189848098 Rises=F Damp=F
 DIIS: error= 5.30D-03 at cycle   4 NSaved=   4.
 NSaved= 4 IEnMin= 4 EnMin= -154.684270812740     IErMin= 4 ErrMin= 5.30D-03
 ErrMax= 5.30D-03  0.00D+00 EMaxC= 1.00D-01 BMatC= 7.17D-03 BMatP= 1.58D-02
 IDIUse=3 WtCom= 9.47D-01 WtEn= 5.30D-02
 Coeff-Com: -0.350D-01 0.765D-01 0.421D+00 0.538D+00
 Coeff-En:   0.000D+00 0.000D+00 0.298D+00 0.702D+00
 Coeff:     -0.331D-01 0.724D-01 0.414D+00 0.546D+00
 Gap=     0.189 Goal=   None    Shift=    0.000
 Gap=     0.191 Goal=   None    Shift=    0.000
 RMSDP=8.24D-04 MaxDP=3.29D-02 DE=-3.19D-03 OVMax= 3.15D-02

 Cycle   5  Pass 1  IDiag  1:
 RMSU=  3.52D-04    CP:  1.04D+00  1.34D+00  7.72D-01  6.91D-01
 E= -154.686421193411     Delta-E=       -0.002150380671 Rises=F Damp=F
 DIIS: error= 8.36D-04 at cycle   5 NSaved=   5.
 NSaved= 5 IEnMin= 5 EnMin= -154.686421193411     IErMin= 5 ErrMin= 8.36D-04
 ErrMax= 8.36D-04  0.00D+00 EMaxC= 1.00D-01 BMatC= 3.05D-04 BMatP= 7.17D-03
 IDIUse=3 WtCom= 9.92D-01 WtEn= 8.36D-03
 Coeff-Com: -0.905D-02-0.134D-01 0.127D+00 0.229D+00 0.666D+00
 Coeff-En:   0.000D+00 0.000D+00 0.000D+00 0.000D+00 0.100D+01
 Coeff:     -0.898D-02-0.133D-01 0.126D+00 0.227D+00 0.669D+00
 Gap=     0.188 Goal=   None    Shift=    0.000
 Gap=     0.193 Goal=   None    Shift=    0.000
 RMSDP=1.55D-04 MaxDP=4.16D-03 DE=-2.15D-03 OVMax= 8.44D-03

 Cycle   6  Pass 1  IDiag  1:
 RMSU=  1.31D-04    CP:  1.04D+00  1.35D+00  7.75D-01  7.17D-01  1.06D+00
 E= -154.686517544793     Delta-E=       -0.000096351382 Rises=F Damp=F
 DIIS: error= 6.35D-04 at cycle   6 NSaved=   6.
 NSaved= 6 IEnMin= 6 EnMin= -154.686517544793     IErMin= 6 ErrMin= 6.35D-04
 ErrMax= 6.35D-04  0.00D+00 EMaxC= 1.00D-01 BMatC= 1.17D-04 BMatP= 3.05D-04
 IDIUse=3 WtCom= 9.94D-01 WtEn= 6.35D-03
 Coeff-Com:  0.660D-02-0.289D-01-0.739D-01-0.643D-01 0.406D+00 0.755D+00
 Coeff-En:   0.000D+00 0.000D+00 0.000D+00 0.000D+00 0.000D+00 0.100D+01
 Coeff:      0.656D-02-0.287D-01-0.735D-01-0.639D-01 0.403D+00 0.756D+00
 Gap=     0.190 Goal=   None    Shift=    0.000
 Gap=     0.193 Goal=   None    Shift=    0.000
 RMSDP=1.08D-04 MaxDP=2.57D-03 DE=-9.64D-05 OVMax= 5.15D-03

 Cycle   7  Pass 1  IDiag  1:
 RMSU=  8.95D-05    CP:  1.04D+00  1.35D+00  7.81D-01  7.42D-01  1.08D+00
                    CP:  8.40D-01
 E= -154.686568446688     Delta-E=       -0.000050901895 Rises=F Damp=F
 DIIS: error= 3.10D-04 at cycle   7 NSaved=   7.
 NSaved= 7 IEnMin= 7 EnMin= -154.686568446688     IErMin= 7 ErrMin= 3.10D-04
 ErrMax= 3.10D-04  0.00D+00 EMaxC= 1.00D-01 BMatC= 2.02D-05 BMatP= 1.17D-04
 IDIUse=3 WtCom= 9.97D-01 WtEn= 3.10D-03
 Coeff-Com:  0.484D-02-0.126D-01-0.587D-01-0.665D-01 0.903D-01 0.386D+00
 Coeff-Com:  0.656D+00
 Coeff-En:   0.000D+00 0.000D+00 0.000D+00 0.000D+00 0.000D+00 0.000D+00
 Coeff-En:   0.100D+01
 Coeff:      0.482D-02-0.126D-01-0.586D-01-0.663D-01 0.901D-01 0.385D+00
 Coeff:      0.658D+00
 Gap=     0.190 Goal=   None    Shift=    0.000
 Gap=     0.193 Goal=   None    Shift=    0.000
 RMSDP=4.43D-05 MaxDP=9.79D-04 DE=-5.09D-05 OVMax= 2.41D-03

 Cycle   8  Pass 1  IDiag  1:
 RMSU=  2.78D-05    CP:  1.04D+00  1.35D+00  7.79D-01  7.49D-01  1.13D+00
                    CP:  9.61D-01  1.02D+00
 E= -154.686576282017     Delta-E=       -0.000007835328 Rises=F Damp=F
 DIIS: error= 1.39D-04 at cycle   8 NSaved=   8.
 NSaved= 8 IEnMin= 8 EnMin= -154.686576282017     IErMin= 8 ErrMin= 1.39D-04
 ErrMax= 1.39D-04  0.00D+00 EMaxC= 1.00D-01 BMatC= 4.93D-06 BMatP= 2.02D-05
 IDIUse=3 WtCom= 9.99D-01 WtEn= 1.39D-03
 Coeff-Com:  0.101D-02 0.366D-03-0.158D-01-0.209D-01-0.543D-01 0.333D-01
 Coeff-Com:  0.369D+00 0.687D+00
 Coeff-En:   0.000D+00 0.000D+00 0.000D+00 0.000D+00 0.000D+00 0.000D+00
 Coeff-En:   0.000D+00 0.100D+01
 Coeff:      0.101D-02 0.366D-03-0.158D-01-0.209D-01-0.542D-01 0.333D-01
 Coeff:      0.369D+00 0.688D+00
 Gap=     0.190 Goal=   None    Shift=    0.000
 Gap=     0.193 Goal=   None    Shift=    0.000
 RMSDP=2.72D-05 MaxDP=7.80D-04 DE=-7.84D-06 OVMax= 1.11D-03

 Cycle   9  Pass 1  IDiag  1:
 RMSU=  1.33D-05    CP:  1.04D+00  1.35D+00  7.76D-01  7.51D-01  1.15D+00
                    CP:  1.01D+00  1.13D+00  8.58D-01
 E= -154.686578573181     Delta-E=       -0.000002291164 Rises=F Damp=F
 DIIS: error= 2.81D-05 at cycle   9 NSaved=   9.
 NSaved= 9 IEnMin= 9 EnMin= -154.686578573181     IErMin= 9 ErrMin= 2.81D-05
 ErrMax= 2.81D-05  0.00D+00 EMaxC= 1.00D-01 BMatC= 3.16D-07 BMatP= 4.93D-06
 IDIUse=1 WtCom= 1.00D+00 WtEn= 0.00D+00
 Coeff-Com: -0.695D-03 0.193D-02 0.719D-02 0.814D-02-0.147D-01-0.496D-01
 Coeff-Com: -0.822D-01 0.256D-01 0.110D+01
 Coeff:     -0.695D-03 0.193D-02 0.719D-02 0.814D-02-0.147D-01-0.496D-01
 Coeff:     -0.822D-01 0.256D-01 0.110D+01
 Gap=     0.190 Goal=   None    Shift=    0.000
 Gap=     0.193 Goal=   None    Shift=    0.000
 RMSDP=1.16D-05 MaxDP=3.61D-04 DE=-2.29D-06 OVMax= 8.02D-04

 Cycle  10  Pass 1  IDiag  1:
 RMSU=  9.10D-06    CP:  1.04D+00  1.35D+00  7.76D-01  7.50D-01  1.15D+00
                    CP:  1.02D+00  1.17D+00  9.88D-01  1.17D+00
 E= -154.686579067629     Delta-E=       -0.000000494448 Rises=F Damp=F
 DIIS: error= 1.35D-05 at cycle  10 NSaved=  10.
 NSaved=10 IEnMin=10 EnMin= -154.686579067629     IErMin=10 ErrMin= 1.35D-05
 ErrMax= 1.35D-05  0.00D+00 EMaxC= 1.00D-01 BMatC= 7.74D-08 BMatP= 3.16D-07
 IDIUse=1 WtCom= 1.00D+00 WtEn= 0.00D+00
 Coeff-Com: -0.199D-03-0.141D-03 0.343D-02 0.416D-02 0.120D-01-0.848D-02
 Coeff-Com: -0.796D-01-0.166D+00 0.652D-01 0.117D+01
 Coeff:     -0.199D-03-0.141D-03 0.343D-02 0.416D-02 0.120D-01-0.848D-02
 Coeff:     -0.796D-01-0.166D+00 0.652D-01 0.117D+01
 Gap=     0.190 Goal=   None    Shift=    0.000
 Gap=     0.193 Goal=   None    Shift=    0.000
 RMSDP=7.04D-06 MaxDP=1.46D-04 DE=-4.94D-07 OVMax= 4.76D-04

 Cycle  11  Pass 1  IDiag  1:
 RMSU=  3.73D-06    CP:  1.04D+00  1.35D+00  7.76D-01  7.50D-01  1.15D+00
                    CP:  1.03D+00  1.18D+00  1.03D+00  1.50D+00  1.09D+00
 E= -154.686579214549     Delta-E=       -0.000000146921 Rises=F Damp=F
 DIIS: error= 4.43D-06 at cycle  11 NSaved=  11.
 NSaved=11 IEnMin=11 EnMin= -154.686579214549     IErMin=11 ErrMin= 4.43D-06
 ErrMax= 4.43D-06  0.00D+00 EMaxC= 1.00D-01 BMatC= 9.47D-09 BMatP= 7.74D-08
 IDIUse=1 WtCom= 1.00D+00 WtEn= 0.00D+00
 Coeff-Com:  0.146D-03-0.392D-03-0.136D-02-0.153D-02 0.225D-02 0.102D-01
 Coeff-Com:  0.155D-01-0.173D-02-0.216D+00-0.553D-01 0.125D+01
 Coeff:      0.146D-03-0.392D-03-0.136D-02-0.153D-02 0.225D-02 0.102D-01
 Coeff:      0.155D-01-0.173D-02-0.216D+00-0.553D-01 0.125D+01
 Gap=     0.190 Goal=   None    Shift=    0.000
 Gap=     0.193 Goal=   None    Shift=    0.000
 RMSDP=2.86D-06 MaxDP=7.41D-05 DE=-1.47D-07 OVMax= 2.35D-04

 Cycle  12  Pass 1  IDiag  1:
 RMSU=  1.18D-06    CP:  1.04D+00  1.35D+00  7.76D-01  7.50D-01  1.15D+00
                    CP:  1.03D+00  1.18D+00  1.06D+00  1.56D+00  1.28D+00
                    CP:  1.34D+00
 E= -154.686579235103     Delta-E=       -0.000000020553 Rises=F Damp=F
 DIIS: error= 1.16D-06 at cycle  12 NSaved=  12.
 NSaved=12 IEnMin=12 EnMin= -154.686579235103     IErMin=12 ErrMin= 1.16D-06
 ErrMax= 1.16D-06  0.00D+00 EMaxC= 1.00D-01 BMatC= 5.00D-10 BMatP= 9.47D-09
 IDIUse=1 WtCom= 1.00D+00 WtEn= 0.00D+00
 Coeff-Com:  0.179D-04-0.757D-05-0.353D-03-0.397D-03-0.807D-03 0.121D-02
 Coeff-Com:  0.633D-02 0.113D-01-0.115D-01-0.101D+00 0.901D-01 0.101D+01
 Coeff:      0.179D-04-0.757D-05-0.353D-03-0.397D-03-0.807D-03 0.121D-02
 Coeff:      0.633D-02 0.113D-01-0.115D-01-0.101D+00 0.901D-01 0.101D+01
 Gap=     0.190 Goal=   None    Shift=    0.000
 Gap=     0.193 Goal=   None    Shift=    0.000
 RMSDP=8.83D-07 MaxDP=3.44D-05 DE=-2.06D-08 OVMax= 2.87D-05

 Cycle  13  Pass 1  IDiag  1:
 RMSU=  2.62D-07    CP:  1.04D+00  1.35D+00  7.76D-01  7.50D-01  1.16D+00
                    CP:  1.03D+00  1.18D+00  1.07D+00  1.58D+00  1.27D+00
                    CP:  1.44D+00  1.06D+00
 E= -154.686579235631     Delta-E=       -0.000000000528 Rises=F Damp=F
 DIIS: error= 2.44D-07 at cycle  13 NSaved=  13.
 NSaved=13 IEnMin=13 EnMin= -154.686579235631     IErMin=13 ErrMin= 2.44D-07
 ErrMax= 2.44D-07  0.00D+00 EMaxC= 1.00D-01 BMatC= 2.90D-11 BMatP= 5.00D-10
 IDIUse=1 WtCom= 1.00D+00 WtEn= 0.00D+00
 Coeff-Com: -0.105D-04 0.263D-04 0.800D-04 0.876D-04-0.118D-03-0.670D-03
 Coeff-Com: -0.920D-03 0.569D-03 0.144D-01 0.172D-03-0.848D-01 0.118D-01
 Coeff-Com:  0.106D+01
 Coeff:     -0.105D-04 0.263D-04 0.800D-04 0.876D-04-0.118D-03-0.670D-03
 Coeff:     -0.920D-03 0.569D-03 0.144D-01 0.172D-03-0.848D-01 0.118D-01
 Coeff:      0.106D+01
 Gap=     0.190 Goal=   None    Shift=    0.000
 Gap=     0.193 Goal=   None    Shift=    0.000
 RMSDP=1.72D-07 MaxDP=8.18D-06 DE=-5.28D-10 OVMax= 4.32D-06

 Cycle  14  Pass 1  IDiag  1:
 RMSU=  7.25D-08    CP:  1.04D+00  1.35D+00  7.76D-01  7.50D-01  1.16D+00
                    CP:  1.03D+00  1.18D+00  1.07D+00  1.58D+00  1.26D+00
                    CP:  1.46D+00  1.14D+00  1.16D+00
 E= -154.686579235652     Delta-E=       -0.000000000021 Rises=F Damp=F
 DIIS: error= 5.50D-08 at cycle  14 NSaved=  14.
 NSaved=14 IEnMin=14 EnMin= -154.686579235652     IErMin=14 ErrMin= 5.50D-08
 ErrMax= 5.50D-08  0.00D+00 EMaxC= 1.00D-01 BMatC= 1.02D-12 BMatP= 2.90D-11
 IDIUse=1 WtCom= 1.00D+00 WtEn= 0.00D+00
 Coeff-Com: -0.377D-06-0.161D-06 0.175D-04 0.196D-04 0.320D-04-0.678D-04
 Coeff-Com: -0.284D-03-0.542D-03 0.291D-03 0.527D-02-0.345D-02-0.462D-01
 Coeff-Com: -0.265D-01 0.107D+01
 Coeff:     -0.377D-06-0.161D-06 0.175D-04 0.196D-04 0.320D-04-0.678D-04
 Coeff:     -0.284D-03-0.542D-03 0.291D-03 0.527D-02-0.345D-02-0.462D-01
 Coeff:     -0.265D-01 0.107D+01
 Gap=     0.190 Goal=   None    Shift=    0.000
 Gap=     0.193 Goal=   None    Shift=    0.000
 RMSDP=3.43D-08 MaxDP=1.60D-06 DE=-2.14D-11 OVMax= 4.22D-07

 Cycle  15  Pass 1  IDiag  1:
 RMSU=  1.43D-08    CP:  1.04D+00  1.35D+00  7.76D-01  7.50D-01  1.16D+00
                    CP:  1.03D+00  1.18D+00  1.07D+00  1.58D+00  1.26D+00
                    CP:  1.46D+00  1.14D+00  1.20D+00  1.10D+00
 E= -154.686579235653     Delta-E=       -0.000000000001 Rises=F Damp=F
 DIIS: error= 1.03D-08 at cycle  15 NSaved=  15.
 NSaved=15 IEnMin=15 EnMin= -154.686579235653     IErMin=15 ErrMin= 1.03D-08
 ErrMax= 1.03D-08  0.00D+00 EMaxC= 1.00D-01 BMatC= 5.40D-14 BMatP= 1.02D-12
 IDIUse=1 WtCom= 1.00D+00 WtEn= 0.00D+00
 Coeff-Com:  0.308D-06-0.698D-06-0.842D-06-0.685D-06 0.182D-05 0.179D-04
 Coeff-Com:  0.850D-05-0.466D-04-0.404D-03 0.303D-03 0.226D-02-0.192D-02
 Coeff-Com: -0.379D-01 0.591D-01 0.979D+00
 Coeff:      0.308D-06-0.698D-06-0.842D-06-0.685D-06 0.182D-05 0.179D-04
 Coeff:      0.850D-05-0.466D-04-0.404D-03 0.303D-03 0.226D-02-0.192D-02
 Coeff:     -0.379D-01 0.591D-01 0.979D+00
 Gap=     0.190 Goal=   None    Shift=    0.000
 Gap=     0.193 Goal=   None    Shift=    0.000
 RMSDP=6.94D-09 MaxDP=2.43D-07 DE=-1.05D-12 OVMax= 1.02D-07

 SCF Done:  E(UB3LYP) =  -154.686579236     A.U. after   15 cycles
            NFock= 15  Conv=0.69D-08     -V/T= 2.0045
 <Sx>= 0.0000 <Sy>= 0.0000 <Sz>= 1.0000 <S**2>= 2.0338 S= 1.0112
 <L.S>= 0.000000000000E+00
 KE= 1.539881154098D+02 PE=-5.368491203368D+02 EE= 1.389589285014D+02
 Annihilation of the first spin contaminant:
 S**2 before annihilation     2.0338,   after     2.0003
 Leave Link  502 at Sun Mar  4 21:18:00 2018, MaxMem=    33554432 cpu:        40.4
 (Enter /apl/tryton/gaussian/09/d01/g09/l801.exe)
 DoSCS=F DFT=T ScalE2(SS,OS)=  1.000000  1.000000
 Range of M.O.s used for correlation:     1   116
 NBasis=   116 NAE=    15 NBE=    13 NFC=     0 NFV=     0
 NROrb=    116 NOA=    15 NOB=    13 NVA=   101 NVB=   103

 **** Warning!!: The largest alpha MO coefficient is  0.24029655D+03


 **** Warning!!: The largest beta MO coefficient is  0.23579932D+03

 Leave Link  801 at Sun Mar  4 21:18:00 2018, MaxMem=    33554432 cpu:         0.0
 (Enter /apl/tryton/gaussian/09/d01/g09/l1101.exe)
 Using compressed storage, NAtomX=     8.
 Will process      9 centers per pass.
 Leave Link 1101 at Sun Mar  4 21:18:00 2018, MaxMem=    33554432 cpu:         0.1
 (Enter /apl/tryton/gaussian/09/d01/g09/l1102.exe)
 Symmetrizing basis deriv contribution to polar:
 IMax=3 JMax=2 DiffMx= 0.00D+00
 Leave Link 1102 at Sun Mar  4 21:18:00 2018, MaxMem=    33554432 cpu:         0.0
 (Enter /apl/tryton/gaussian/09/d01/g09/l1110.exe)
 Forming Gx(P) for the SCF density, NAtomX=     8.
 Integral derivatives from FoFJK, PRISM(SPDF).
 Do as many integral derivatives as possible in FoFJK.
 G2DrvN: MDV=      33554264.
 G2DrvN: will do     9 centers at a time, making    1 passes.
 Calling FoFCou, ICntrl=  3107 FMM=F I1Cent=   0 AccDes= 0.00D+00.
 FoFJK:  IHMeth= 1 ICntrl=    3107 DoSepK=F KAlg= 0 I1Cent=   0 FoldK=F
 IRaf=         0 NMat=   1 IRICut=       1 DoRegI=T DoRafI=F ISym2E= 0.
 FoFCou: FMM=F IPFlag=           0 FMFlag=      100000 FMFlg1=           0
         NFxFlg=           0 DoJE=F BraDBF=F KetDBF=F FulRan=T
         wScrn=  0.000000 ICntrl=    3107 IOpCl=  1 I1Cent=           0 NGrid=           0
         NMat0=    1 NMatS0=      1 NMatT0=    0 NMatD0=    1 NMtDS0=    0 NMtDT0=    0
 Symmetry not used in FoFCou.
 End of G2Drv F.D. properties file   721 does not exist.
 End of G2Drv F.D. properties file   722 does not exist.
 End of G2Drv F.D. properties file   788 does not exist.
 Leave Link 1110 at Sun Mar  4 21:18:42 2018, MaxMem=    33554432 cpu:        42.2
 (Enter /apl/tryton/gaussian/09/d01/g09/l1002.exe)
 Minotr:  UHF open shell wavefunction.
          IDoAtm=11111111
          Direct CPHF calculation.
          Differentiating once with respect to electric field.
                with respect to dipole field.
          Differentiating once with respect to nuclear coordinates.
          Requested convergence is 1.0D-08 RMS, and 1.0D-07 maximum.
          Secondary convergence is 1.0D-12 RMS, and 1.0D-12 maximum.
          NewPWx=T KeepS1=F KeepF1=F KeepIn=T MapXYZ=F SortEE=F KeepMc=T.
          MDV=      33554116 using IRadAn=       2.
 Generate precomputed XC quadrature information.
          Solving linear equations simultaneously, MaxMat=       0.
 FoFJK:  IHMeth= 1 ICntrl=       0 DoSepK=F KAlg= 0 I1Cent=   0 FoldK=F
 IRaf= 990000000 NMat=  27 IRICut=      67 DoRegI=T DoRafI=T ISym2E= 2.
 FoFCou: FMM=F IPFlag=           0 FMFlag=      100000 FMFlg1=           0
         NFxFlg=           0 DoJE=F BraDBF=F KetDBF=F FulRan=T
         wScrn=  0.000000 ICntrl=       0 IOpCl=  1 I1Cent=           0 NGrid=           0
         NMat0=   27 NMatS0=     27 NMatT0=    0 NMatD0=   27 NMtDS0=    0 NMtDT0=    0
 Integrals replicated using symmetry in FoFCou.
          There are    27 degrees of freedom in the 1st order CPHF.  IDoFFX=6 NUNeed=     3.
     24 vectors produced by pass  0 Test12= 1.06D-14 3.70D-09 XBig12= 2.19D+02 7.84D+00.
 AX will form    24 AO Fock derivatives at one time.
     24 vectors produced by pass  1 Test12= 1.06D-14 3.70D-09 XBig12= 3.20D+01 1.87D+00.
     24 vectors produced by pass  2 Test12= 1.06D-14 3.70D-09 XBig12= 1.21D+00 2.18D-01.
     24 vectors produced by pass  3 Test12= 1.06D-14 3.70D-09 XBig12= 1.37D-02 2.10D-02.
     24 vectors produced by pass  4 Test12= 1.06D-14 3.70D-09 XBig12= 1.04D-04 1.53D-03.
     24 vectors produced by pass  5 Test12= 1.06D-14 3.70D-09 XBig12= 6.31D-07 1.42D-04.
     20 vectors produced by pass  6 Test12= 1.06D-14 3.70D-09 XBig12= 1.48D-09 4.87D-06.
      7 vectors produced by pass  7 Test12= 1.06D-14 3.70D-09 XBig12= 5.14D-12 3.79D-07.
      7 vectors produced by pass  8 Test12= 1.06D-14 3.70D-09 XBig12= 8.53D-13 2.43D-07.
      7 vectors produced by pass  9 Test12= 1.06D-14 3.70D-09 XBig12= 1.47D-13 1.03D-07.
      2 vectors produced by pass 10 Test12= 1.06D-14 3.70D-09 XBig12= 1.00D-15 7.14D-09.
 InvSVY:  IOpt=1 It=  1 EMax= 6.22D-15
 Solved reduced A of dimension   187 with    27 vectors.
 FullF1:  Do perturbations    1 to     3.
 Isotropic polarizability for W=    0.000000       51.48 Bohr**3.
 End of Minotr F.D. properties file   721 does not exist.
 End of Minotr F.D. properties file   722 does not exist.
 End of Minotr F.D. properties file   788 does not exist.
 Leave Link 1002 at Sun Mar  4 21:20:03 2018, MaxMem=    33554432 cpu:        75.3
 (Enter /apl/tryton/gaussian/09/d01/g09/l601.exe)
 Copying SCF densities to generalized density rwf, IOpCl= 1 IROHF=0.

 **********************************************************************

            Population analysis using the SCF density.

 **********************************************************************

 Orbital symmetries:
 Alpha Orbitals:
       Occupied  (A) (A) (A) (A) (A) (A) (A) (A) (A) (A) (A) (A)
                 (A) (A) (A)
       Virtual   (A) (A) (A) (A) (A) (A) (A) (A) (A) (A) (A) (A)
                 (A) (A) (A) (A) (A) (A) (A) (A) (A) (A) (A) (A)
                 (A) (A) (A) (A) (A) (A) (A) (A) (A) (A) (A) (A)
                 (A) (A) (A) (A) (A) (A) (A) (A) (A) (A) (A) (A)
                 (A) (A) (A) (A) (A) (A) (A) (A) (A) (A) (A) (A)
                 (A) (A) (A) (A) (A) (A) (A) (A) (A) (A) (A) (A)
                 (A) (A) (A) (A) (A) (A) (A) (A) (A) (A) (A) (A)
                 (A) (A) (A) (A) (A) (A) (A) (A) (A) (A) (A) (A)
                 (A) (A) (A) (A) (A)
 Beta  Orbitals:
       Occupied  (A) (A) (A) (A) (A) (A) (A) (A) (A) (A) (A) (A)
                 (A)
       Virtual   (A) (A) (A) (A) (A) (A) (A) (A) (A) (A) (A) (A)
                 (A) (A) (A) (A) (A) (A) (A) (A) (A) (A) (A) (A)
                 (A) (A) (A) (A) (A) (A) (A) (A) (A) (A) (A) (A)
                 (A) (A) (A) (A) (A) (A) (A) (A) (A) (A) (A) (A)
                 (A) (A) (A) (A) (A) (A) (A) (A) (A) (A) (A) (A)
                 (A) (A) (A) (A) (A) (A) (A) (A) (A) (A) (A) (A)
                 (A) (A) (A) (A) (A) (A) (A) (A) (A) (A) (A) (A)
                 (A) (A) (A) (A) (A) (A) (A) (A) (A) (A) (A) (A)
                 (A) (A) (A) (A) (A) (A) (A)
 The electronic state is 3-A.
 Alpha  occ. eigenvalues --  -10.21323 -10.20654 -10.20458 -10.18790  -0.82859
 Alpha  occ. eigenvalues --   -0.75583  -0.64230  -0.54189  -0.48329  -0.45980
 Alpha  occ. eigenvalues --   -0.45715  -0.33663  -0.29370  -0.26346  -0.20297
 Alpha virt. eigenvalues --   -0.01282  -0.00218   0.01290   0.01585   0.02061
 Alpha virt. eigenvalues --    0.03306   0.06069   0.07511   0.07694   0.08241
 Alpha virt. eigenvalues --    0.11073   0.11393   0.11415   0.12081   0.12871
 Alpha virt. eigenvalues --    0.13709   0.13874   0.14956   0.15809   0.17100
 Alpha virt. eigenvalues --    0.18651   0.19408   0.22406   0.24430   0.27711
 Alpha virt. eigenvalues --    0.28064   0.32940   0.36092   0.44455   0.48558
 Alpha virt. eigenvalues --    0.51092   0.52217   0.52738   0.55215   0.57097
 Alpha virt. eigenvalues --    0.57546   0.59405   0.59815   0.64074   0.65149
 Alpha virt. eigenvalues --    0.67976   0.68065   0.72256   0.74405   0.76509
 Alpha virt. eigenvalues --    0.83615   0.89447   0.91334   0.95539   0.99703
 Alpha virt. eigenvalues --    1.04408   1.15603   1.22994   1.26165   1.26877
 Alpha virt. eigenvalues --    1.32769   1.34503   1.45190   1.45692   1.56058
 Alpha virt. eigenvalues --    1.57703   1.61565   1.63720   1.68995   1.74570
 Alpha virt. eigenvalues --    1.84255   1.85437   1.91518   1.97631   1.97872
 Alpha virt. eigenvalues --    2.08839   2.10543   2.16787   2.20639   2.28992
 Alpha virt. eigenvalues --    2.34952   2.50122   2.53725   2.58793   2.62808
 Alpha virt. eigenvalues --    2.64194   2.65397   2.67347   2.75989   2.76142
 Alpha virt. eigenvalues --    2.83648   2.89490   2.92756   2.92823   3.04393
 Alpha virt. eigenvalues --    3.11771   3.28747   3.49307   3.52940   3.71876
 Alpha virt. eigenvalues --    3.89892   4.14082  23.53821  23.82720  24.08616
 Alpha virt. eigenvalues --   24.66287
  Beta  occ. eigenvalues --  -10.20792 -10.19689 -10.18894 -10.18873  -0.81090
  Beta  occ. eigenvalues --   -0.74142  -0.60213  -0.52795  -0.47323  -0.44716
  Beta  occ. eigenvalues --   -0.44283  -0.30668  -0.28462
  Beta virt. eigenvalues --   -0.09180  -0.07853  -0.00820   0.00141   0.01833
  Beta virt. eigenvalues --    0.02333   0.02784   0.03876   0.06512   0.07488
  Beta virt. eigenvalues --    0.08452   0.08953   0.11458   0.11703   0.12228
  Beta virt. eigenvalues --    0.12591   0.13323   0.13887   0.14296   0.15363
  Beta virt. eigenvalues --    0.16209   0.17344   0.18975   0.19824   0.22876
  Beta virt. eigenvalues --    0.24829   0.28277   0.28869   0.33957   0.38000
  Beta virt. eigenvalues --    0.44964   0.49340   0.51708   0.52717   0.54916
  Beta virt. eigenvalues --    0.57102   0.57232   0.58050   0.61346   0.64284
  Beta virt. eigenvalues --    0.65223   0.66199   0.68784   0.69492   0.73220
  Beta virt. eigenvalues --    0.74629   0.78183   0.85257   0.90809   0.92629
  Beta virt. eigenvalues --    0.96088   1.00687   1.05569   1.19901   1.25062
  Beta virt. eigenvalues --    1.28814   1.29977   1.36573   1.38421   1.45899
  Beta virt. eigenvalues --    1.46921   1.58109   1.60280   1.63490   1.66155
  Beta virt. eigenvalues --    1.70323   1.74968   1.85657   1.86685   1.92478
  Beta virt. eigenvalues --    1.98655   1.99390   2.10491   2.11889   2.18279
  Beta virt. eigenvalues --    2.22407   2.30594   2.36056   2.51089   2.54355
  Beta virt. eigenvalues --    2.59388   2.63296   2.66237   2.66565   2.68171
  Beta virt. eigenvalues --    2.77460   2.81192   2.86356   2.91043   2.94320
  Beta virt. eigenvalues --    2.96451   3.05915   3.13863   3.30050   3.50379
  Beta virt. eigenvalues --    3.53438   3.72157   3.90804   4.15225  23.54547
  Beta virt. eigenvalues --   23.83835  24.09575  24.66892
          Condensed to atoms (all electrons):
               1          2          3          4          5          6
     1  C    9.420690   0.319375   0.319507  -0.300856  -3.050231   0.028873
     2  H    0.319375   0.587465  -0.068415   0.018054   0.014797  -0.000781
     3  H    0.319507  -0.068415   0.587464   0.017803   0.014985  -0.000774
     4  C   -0.300856   0.018054   0.017803   6.026796  -0.158859   0.045161
     5  C   -3.050231   0.014797   0.014985  -0.158859   8.509101   0.271870
     6  H    0.028873  -0.000781  -0.000774   0.045161   0.271870   0.537272
     7  H   -0.020373  -0.000354  -0.000354  -0.019948  -0.027092   0.006706
     8  C   -0.063563   0.001154   0.001086  -0.044577   0.597489  -0.055955
               7          8
     1  C   -0.020373  -0.063563
     2  H   -0.000354   0.001154
     3  H   -0.000354   0.001086
     4  C   -0.019948  -0.044577
     5  C   -0.027092   0.597489
     6  H    0.006706  -0.055955
     7  H    0.530820   0.375983
     8  C    0.375983   5.358973
          Atomic-Atomic Spin Densities.
               1          2          3          4          5          6
     1  C   -0.129759   0.014983   0.014973   0.048981   0.067851  -0.005333
     2  H    0.014983   0.109722  -0.043675  -0.032802  -0.003800  -0.000156
     3  H    0.014973  -0.043675   0.109731  -0.032910  -0.003639  -0.000156
     4  C    0.048981  -0.032802  -0.032910   0.711199   0.015355  -0.037404
     5  C    0.067851  -0.003800  -0.003639   0.015355  -0.331712   0.020566
     6  H   -0.005333  -0.000156  -0.000156  -0.037404   0.020566   0.057044
     7  H   -0.016942  -0.000178  -0.000178  -0.024594  -0.015825   0.003228
     8  C   -0.062386   0.002192   0.002138  -0.065056  -0.012641   0.004767
               7          8
     1  C   -0.016942  -0.062386
     2  H   -0.000178   0.002192
     3  H   -0.000178   0.002138
     4  C   -0.024594  -0.065056
     5  C   -0.015825  -0.012641
     6  H    0.003228   0.004767
     7  H    0.030833   0.006149
     8  C    0.006149   1.755922
 Mulliken charges and spin densities:
               1          2
     1  C   -0.653422  -0.067632
     2  H    0.128706   0.046287
     3  H    0.128698   0.046284
     4  C    0.416427   0.582769
     5  C   -0.172059  -0.263844
     6  H    0.167629   0.042556
     7  H    0.154611  -0.017507
     8  C   -0.170590   1.631086
 Sum of Mulliken charges =  -0.00000   2.00000
 Mulliken charges and spin densities with hydrogens summed into heavy atoms:
               1          2
     1  C   -0.396018   0.024940
     4  C    0.416427   0.582769
     5  C   -0.004430  -0.221288
     8  C   -0.015979   1.613579
 APT charges:
               1
     1  C   -0.120998
     2  H    0.033689
     3  H    0.033689
     4  C    0.013724
     5  C    0.045900
     6  H    0.057786
     7  H    0.101452
     8  C   -0.165242
 Sum of APT charges =   0.00000
 APT charges with hydrogens summed into heavy atoms:
               1
     1  C   -0.053620
     4  C    0.013724
     5  C    0.103686
     8  C   -0.063791
 Electronic spatial extent (au):  <R**2>=            302.4522
 Charge=             -0.0000 electrons
 Dipole moment (field-independent basis, Debye):
    X=              0.7649    Y=             -0.1909    Z=              0.0012  Tot=              0.7884
 Quadrupole moment (field-independent basis, Debye-Ang):
   XX=            -24.1548   YY=            -23.2943   ZZ=            -25.6137
   XY=             -0.2446   XZ=             -0.0006   YZ=              0.0032
 Traceless Quadrupole moment (field-independent basis, Debye-Ang):
   XX=              0.1995   YY=              1.0600   ZZ=             -1.2594
   XY=             -0.2446   XZ=             -0.0006   YZ=              0.0032
 Octapole moment (field-independent basis, Debye-Ang**2):
  XXX=             14.1821  YYY=              0.8115  ZZZ=              0.0013  XYY=             -5.3169
  XXY=             -3.9529  XXZ=              0.0037  XZZ=              5.2283  YZZ=             -0.4534
  YYZ=              0.0038  XYZ=              0.0025
 Hexadecapole moment (field-independent basis, Debye-Ang**3):
 XXXX=           -351.7863 YYYY=            -57.5525 ZZZZ=            -38.1793 XXXY=             -2.5265
 XXXZ=              0.0196 YYYX=              2.0737 YYYZ=              0.0090 ZZZX=              0.0197
 ZZZY=              0.0071 XXYY=            -64.7819 XXZZ=            -62.5284 YYZZ=            -18.1905
 XXYZ=              0.0090 YYXZ=             -0.0020 ZZXY=             -1.7334
 N-N= 8.921549718992D+01 E-N=-5.368491204190D+02  KE= 1.539881154098D+02
  Exact polarizability:  84.025  -0.425  38.681  -0.005  -0.001  31.740
 Approx polarizability: 122.530  -2.834  52.593  -0.005  -0.003  41.195
                          Isotropic Fermi Contact Couplings
        Atom                 a.u.       MegaHertz       Gauss      10(-4) cm-1
     1  C(13)             -0.02753     -15.47324      -5.52124      -5.16132
     2  H(1)               0.02111      47.16983      16.83137      15.73416
     3  H(1)               0.02111      47.17305      16.83252      15.73524
     4  C(13)              0.10491      58.96744      21.04105      19.66942
     5  C(13)             -0.02855     -16.04539      -5.72539      -5.35217
     6  H(1)               0.01933      43.20557      15.41682      14.41183
     7  H(1)               0.00251       5.61920       2.00507       1.87436
     8  C(13)              0.36046     202.61210      72.29703      67.58412
 --------------------------------------------------------
       Center         ----  Spin Dipole Couplings  ----
                      3XX-RR        3YY-RR        3ZZ-RR
 --------------------------------------------------------
     1   Atom        0.037620     -0.036860     -0.000760
     2   Atom        0.011131     -0.006548     -0.004583
     3   Atom        0.011129     -0.006546     -0.004583
     4   Atom       -0.306106     -0.314462      0.620568
     5   Atom        0.176141      0.084279     -0.260420
     6   Atom        0.008411      0.013853     -0.022264
     7   Atom       -0.056130      0.118171     -0.062041
     8   Atom        0.270220     -0.579022      0.308802
 --------------------------------------------------------
                        XY            XZ            YZ
 --------------------------------------------------------
     1   Atom       -0.035337      0.000029      0.000042
     2   Atom       -0.003576      0.004783     -0.000824
     3   Atom       -0.003582     -0.004781      0.000824
     4   Atom        0.012115     -0.000118      0.000706
     5   Atom        0.047274     -0.000195      0.000094
     6   Atom        0.017306     -0.000002     -0.000007
     7   Atom        0.025453     -0.000001     -0.000018
     8   Atom       -0.657903      0.000038      0.000545
 --------------------------------------------------------


 ---------------------------------------------------------------------------------
              Anisotropic Spin Dipole Couplings in Principal Axis System
 ---------------------------------------------------------------------------------

       Atom             a.u.   MegaHertz   Gauss  10(-4) cm-1        Axes

              Baa    -0.0510    -6.838    -2.440    -2.281  0.3705  0.9288 -0.0010
     1 C(13)  Bbb    -0.0008    -0.102    -0.036    -0.034  0.0002  0.0010  1.0000
              Bcc     0.0517     6.940     2.476     2.315  0.9288 -0.3705  0.0002
 
              Baa    -0.0073    -3.869    -1.381    -1.291  0.2088  0.9752 -0.0732
     2 H(1)   Bbb    -0.0059    -3.149    -1.124    -1.051 -0.2440  0.1244  0.9618
              Bcc     0.0132     7.019     2.504     2.341  0.9470 -0.1829  0.2639
 
              Baa    -0.0073    -3.870    -1.381    -1.291  0.2091  0.9752  0.0732
     3 H(1)   Bbb    -0.0059    -3.149    -1.124    -1.050  0.2438 -0.1245  0.9618
              Bcc     0.0132     7.018     2.504     2.341  0.9470 -0.1832 -0.2638
 
              Baa    -0.3231   -43.357   -15.471   -14.462 -0.5805  0.8143 -0.0007
     4 C(13)  Bbb    -0.2975   -39.917   -14.244   -13.315  0.8143  0.5805 -0.0003
              Bcc     0.6206    83.274    29.714    27.777 -0.0001  0.0008  1.0000
 
              Baa    -0.2604   -34.946   -12.470   -11.657  0.0005 -0.0003  1.0000
     5 C(13)  Bbb     0.0643     8.628     3.079     2.878 -0.3893  0.9211  0.0005
              Bcc     0.1961    26.318     9.391     8.779  0.9211  0.3893 -0.0003
 
              Baa    -0.0223   -11.879    -4.239    -3.962 -0.0000  0.0002  1.0000
     6 H(1)   Bbb    -0.0064    -3.408    -1.216    -1.137  0.7600 -0.6499  0.0002
              Bcc     0.0287    15.287     5.455     5.099  0.6499  0.7600 -0.0001
 
              Baa    -0.0620   -33.102   -11.812   -11.042 -0.0005  0.0002  1.0000
     7 H(1)   Bbb    -0.0598   -31.891   -11.379   -10.638  0.9899 -0.1416  0.0006
              Bcc     0.1218    64.993    23.191    21.679  0.1416  0.9899 -0.0001
 
              Baa    -0.9374  -125.795   -44.887   -41.961  0.4784  0.8781 -0.0004
     8 C(13)  Bbb     0.3088    41.438    14.786    13.822  0.0008  0.0000  1.0000
              Bcc     0.6286    84.356    30.100    28.138  0.8781 -0.4784 -0.0007
 

 ---------------------------------------------------------------------------------

 No NMR shielding tensors so no spin-rotation constants.
 Leave Link  601 at Sun Mar  4 21:20:03 2018, MaxMem=    33554432 cpu:         0.3
 (Enter /apl/tryton/gaussian/09/d01/g09/l701.exe)
 Compute integral second derivatives.
 ... and contract with generalized density number  0.
 Leave Link  701 at Sun Mar  4 21:20:04 2018, MaxMem=    33554432 cpu:         0.2
 (Enter /apl/tryton/gaussian/09/d01/g09/l702.exe)
 L702 exits ... SP integral derivatives will be done elsewhere.
 Leave Link  702 at Sun Mar  4 21:20:04 2018, MaxMem=    33554432 cpu:         0.0
 (Enter /apl/tryton/gaussian/09/d01/g09/l703.exe)
 Compute integral second derivatives, UseDBF=F ICtDFT=           0.
 Integral derivatives from FoFJK, PRISM(SPDF).
 Calling FoFJK, ICntrl=    100127 FMM=F ISym2X=0 I1Cent= 0 IOpClX= 1 NMat=1 NMatS=1 NMatT=0.
 FoFJK:  IHMeth= 1 ICntrl=  100127 DoSepK=F KAlg= 0 I1Cent=   0 FoldK=F
 IRaf=         0 NMat=   1 IRICut=       1 DoRegI=T DoRafI=F ISym2E= 0.
 FoFCou: FMM=F IPFlag=           0 FMFlag=      100000 FMFlg1=         800
         NFxFlg=           0 DoJE=F BraDBF=F KetDBF=F FulRan=T
         wScrn=  0.000000 ICntrl=  100127 IOpCl=  1 I1Cent=           0 NGrid=           0
         NMat0=    1 NMatS0=      1 NMatT0=    0 NMatD0=    1 NMtDS0=    0 NMtDT0=    0
 Symmetry not used in FoFCou.
 Leave Link  703 at Sun Mar  4 21:20:58 2018, MaxMem=    33554432 cpu:        54.1
 (Enter /apl/tryton/gaussian/09/d01/g09/l716.exe)
 Dipole        = 3.00952726D-01-7.51167704D-02 4.64241154D-04
 Polarizability= 8.40251413D+01-4.24636641D-01 3.86809672D+01
                -4.54617399D-03-1.12294167D-03 3.17397544D+01
 Full mass-weighted force constant matrix:
 Low frequencies ---  -16.1597  -13.0094    0.0006    0.0007    0.0007    2.2620
 Low frequencies ---  206.5880  213.2346  471.0524
 Diagonal vibrational polarizability:
        1.5626579       2.9901233       6.9341112
 Harmonic frequencies (cm**-1), IR intensities (KM/Mole), Raman scattering
 activities (A**4/AMU), depolarization ratios for plane and unpolarized
 incident light, reduced masses (AMU), force constants (mDyne/A),
 and normal coordinates:
                      1                      2                      3
                      A                      A                      A
 Frequencies --    206.5879               213.2343               471.0509
 Red. masses --      3.2483                 2.6858                 1.0399
 Frc consts  --      0.0817                 0.0720                 0.1360
 IR Inten    --      0.4475                 4.5702                17.5677
  Atom  AN      X      Y      Z        X      Y      Z        X      Y      Z
     1   6     0.14   0.18   0.00    -0.00  -0.00   0.11     0.00   0.00   0.00
     2   1     0.18   0.34   0.00    -0.44  -0.13   0.36     0.11   0.51   0.02
     3   1     0.19   0.34   0.00     0.44   0.12   0.36    -0.11  -0.51   0.02
     4   6     0.03  -0.23  -0.00    -0.00   0.00  -0.36     0.00  -0.00  -0.02
     5   6     0.04  -0.16   0.00    -0.00   0.00   0.08    -0.00  -0.00   0.04
     6   1     0.25  -0.11   0.00    -0.00   0.00   0.39    -0.00   0.00  -0.03
     7   1    -0.62   0.19  -0.00     0.00  -0.00  -0.12    -0.00   0.00  -0.67
     8   6    -0.21   0.15   0.00     0.00  -0.00   0.08     0.00  -0.00   0.04
                      4                      5                      6
                      A                      A                      A
 Frequencies --    537.7198               582.3433               866.1095
 Red. masses --      2.9897                 1.8392                 1.4090
 Frc consts  --      0.5093                 0.3675                 0.6227
 IR Inten    --     16.6685                11.3759                21.8201
  Atom  AN      X      Y      Z        X      Y      Z        X      Y      Z
     1   6     0.06  -0.08   0.00    -0.00   0.00   0.01     0.07  -0.02  -0.01
     2   1     0.03  -0.23  -0.00    -0.08  -0.43  -0.01     0.03  -0.19  -0.01
     3   1     0.03  -0.23   0.00     0.08   0.43  -0.01     0.14   0.13   0.01
     4   6     0.16   0.32  -0.00    -0.00  -0.00   0.06     0.04   0.03  -0.02
     5   6    -0.00  -0.16  -0.00     0.00   0.00  -0.20    -0.04  -0.01   0.10
     6   1    -0.25  -0.20   0.00     0.00  -0.00   0.02     0.00  -0.00  -0.70
     7   1    -0.78   0.05   0.00    -0.00   0.00  -0.73     0.61  -0.08  -0.16
     8   6    -0.13  -0.03   0.00     0.00  -0.00   0.18    -0.13   0.02  -0.00
                      7                      8                      9
                      A                      A                      A
 Frequencies --    866.2279               889.5002               981.0220
 Red. masses --      1.4019                 1.3172                 1.3981
 Frc consts  --      0.6198                 0.6141                 0.7928
 IR Inten    --     22.1264                52.9576                 0.0345
  Atom  AN      X      Y      Z        X      Y      Z        X      Y      Z
     1   6    -0.07   0.02  -0.01     0.04   0.16  -0.00    -0.00   0.00   0.15
     2   1    -0.14  -0.13   0.01    -0.18  -0.67   0.00     0.62  -0.17  -0.27
     3   1    -0.03   0.19  -0.01    -0.18  -0.67  -0.00    -0.62   0.17  -0.27
     4   6    -0.04  -0.02  -0.02    -0.01  -0.04   0.00    -0.00   0.00  -0.11
     5   6     0.04   0.01   0.10     0.00  -0.00   0.00     0.00  -0.00   0.01
     6   1    -0.01   0.00  -0.71     0.02   0.00  -0.00     0.00  -0.00   0.00
     7   1    -0.60   0.08  -0.16     0.02  -0.01  -0.00     0.00  -0.00  -0.02
     8   6     0.13  -0.02  -0.00    -0.01  -0.00   0.00    -0.00   0.00   0.00
                     10                     11                     12
                      A                      A                      A
 Frequencies --   1008.8693              1190.0570              1343.8312
 Red. masses --      2.9251                 2.0972                 1.8169
 Frc consts  --      1.7541                 1.7500                 1.9331
 IR Inten    --      4.9179                 5.7958                 4.5710
  Atom  AN      X      Y      Z        X      Y      Z        X      Y      Z
     1   6    -0.22   0.05  -0.00     0.01  -0.00   0.00    -0.01   0.01   0.00
     2   1    -0.35   0.07   0.06    -0.03   0.02   0.02    -0.23   0.08   0.12
     3   1    -0.34   0.07  -0.06    -0.03   0.02  -0.02    -0.23   0.08  -0.12
     4   6    -0.02   0.09   0.00     0.01   0.02  -0.00     0.02  -0.05  -0.00
     5   6     0.23  -0.23  -0.00     0.10   0.16  -0.00     0.21   0.09  -0.00
     6   1     0.58  -0.15   0.00     0.83   0.32  -0.00    -0.87  -0.14   0.00
     7   1     0.46   0.02  -0.00    -0.24  -0.21   0.00     0.04  -0.10  -0.00
     8   6    -0.02   0.08  -0.00    -0.16  -0.19   0.00    -0.12  -0.04   0.00
                     13                     14                     15
                      A                      A                      A
 Frequencies --   1442.9201              1898.7373              3071.5280
 Red. masses --      1.2284                10.1118                 1.0552
 Frc consts  --      1.5069                21.4786                 5.8652
 IR Inten    --      1.8917                20.4223                12.0717
  Atom  AN      X      Y      Z        X      Y      Z        X      Y      Z
     1   6    -0.10   0.03  -0.00    -0.44   0.12  -0.00    -0.06   0.02  -0.00
     2   1     0.55  -0.15  -0.40    -0.12   0.04  -0.24     0.34  -0.09   0.60
     3   1     0.55  -0.15   0.40    -0.12   0.04   0.24     0.34  -0.09  -0.60
     4   6    -0.05   0.01   0.00     0.72  -0.20   0.00     0.00  -0.00   0.00
     5   6     0.08   0.01  -0.00    -0.22   0.09  -0.00     0.00   0.01   0.00
     6   1    -0.12  -0.04   0.00    -0.05   0.14  -0.00     0.02  -0.10  -0.00
     7   1     0.01  -0.02  -0.00     0.00  -0.04   0.00    -0.00  -0.01   0.00
     8   6    -0.02  -0.01   0.00    -0.04  -0.03   0.00    -0.00   0.00   0.00
                     16                     17                     18
                      A                      A                      A
 Frequencies --   3084.4413              3132.6241              3234.6450
 Red. masses --      1.0828                 1.1134                 1.0931
 Frc consts  --      6.0693                 6.4372                 6.7383
 IR Inten    --      1.0854                 4.8305                 0.2273
  Atom  AN      X      Y      Z        X      Y      Z        X      Y      Z
     1   6    -0.01   0.00  -0.00    -0.00   0.00   0.10    -0.00   0.00  -0.00
     2   1     0.04  -0.01   0.07    -0.37   0.10  -0.59     0.01  -0.00   0.01
     3   1     0.04  -0.01  -0.07     0.37  -0.10  -0.59     0.01  -0.00  -0.01
     4   6    -0.00  -0.00  -0.00    -0.00   0.00   0.00     0.00  -0.00  -0.00
     5   6     0.02  -0.08  -0.00     0.00  -0.00   0.00     0.01   0.00  -0.00
     6   1    -0.21   0.97   0.00    -0.00   0.00   0.00    -0.01   0.01   0.00
     7   1     0.00  -0.01  -0.00    -0.00  -0.00  -0.00     0.13   0.99  -0.00
     8   6     0.00   0.00  -0.00    -0.00   0.00   0.00    -0.02  -0.09   0.00

 -------------------
 - Thermochemistry -
 -------------------
 Temperature   298.150 Kelvin.  Pressure   1.00000 Atm.
 Atom     1 has atomic number  6 and mass  12.00000
 Atom     2 has atomic number  1 and mass   1.00783
 Atom     3 has atomic number  1 and mass   1.00783
 Atom     4 has atomic number  6 and mass  12.00000
 Atom     5 has atomic number  6 and mass  12.00000
 Atom     6 has atomic number  1 and mass   1.00783
 Atom     7 has atomic number  1 and mass   1.00783
 Atom     8 has atomic number  6 and mass  12.00000
 Molecular mass:    52.03130 amu.
 Principal axes and moments of inertia in atomic units:
                           1         2         3
     Eigenvalues --    43.15497 380.16649 410.98821
           X            0.99999  -0.00367   0.00011
           Y            0.00367   0.99999   0.00035
           Z           -0.00011  -0.00035   1.00000
 This molecule is an asymmetric top.
 Rotational symmetry number  1.
 Rotational temperatures (Kelvin)      2.00704     0.22783     0.21075
 Rotational constants (GHZ):          41.82001     4.74724     4.39122
 Zero-point vibrational energy     149661.5 (Joules/Mol)
                                   35.76996 (Kcal/Mol)
 Warning -- explicit consideration of   5 degrees of freedom as
           vibrations may cause significant error
 Vibrational temperatures:    297.23   306.80   677.74   773.66   837.86
          (Kelvin)           1246.14  1246.31  1279.79  1411.47  1451.54
                             1712.22  1933.47  2076.04  2731.86  4419.24
                             4437.82  4507.14  4653.93
 
 Zero-point correction=                           0.057003 (Hartree/Particle)
 Thermal correction to Energy=                    0.061828
 Thermal correction to Enthalpy=                  0.062773
 Thermal correction to Gibbs Free Energy=         0.029516
 Sum of electronic and zero-point Energies=           -154.629576
 Sum of electronic and thermal Energies=              -154.624751
 Sum of electronic and thermal Enthalpies=            -154.623807
 Sum of electronic and thermal Free Energies=         -154.657063
 
                     E (Thermal)             CV                S
                      KCal/Mol        Cal/Mol-Kelvin    Cal/Mol-Kelvin
 Total                   38.798             15.988             69.995
 Electronic               0.000              0.000              2.183
 Translational            0.889              2.981             37.771
 Rotational               0.889              2.981             23.426
 Vibrational             37.020             10.027              6.615
 Vibration     1          0.641              1.830              2.074
 Vibration     2          0.644              1.821              2.016
 Vibration     3          0.828              1.314              0.735
 Vibration     4          0.893              1.167              0.570
 Vibration     5          0.939              1.070              0.481
                       Q            Log10(Q)             Ln(Q)
 Total Bot       0.265248D-13        -13.576347        -31.260695
 Total V=0       0.439726D+13         12.643182         29.112003
 Vib (Bot)       0.203899D-25        -25.690584        -59.154756
 Vib (Bot)    1  0.962718D+00         -0.016501         -0.037995
 Vib (Bot)    2  0.930231D+00         -0.031409         -0.072322
 Vib (Bot)    3  0.357764D+00         -0.446404         -1.027883
 Vib (Bot)    4  0.295277D+00         -0.529770         -1.219841
 Vib (Bot)    5  0.261056D+00         -0.583266         -1.343019
 Vib (V=0)       0.338022D+01          0.528945          1.217942
 Vib (V=0)    1  0.158482D+01          0.199979          0.460468
 Vib (V=0)    2  0.155609D+01          0.192035          0.442177
 Vib (V=0)    3  0.111481D+01          0.047202          0.108686
 Vib (V=0)    4  0.108068D+01          0.033697          0.077590
 Vib (V=0)    5  0.106405D+01          0.026961          0.062081
 Electronic      0.300000D+01          0.477121          1.098612
 Translational   0.147520D+08          7.168852         16.506892
 Rotational      0.293943D+05          4.468263         10.288557
 
                                                                 min
                                                             IR Spectrum
 
     3    333                                             1                 1   1     1      1                                       
     2    100                                             8                 4   3     1      09 888           55  4        22        
     3    387                                             9                 4   4     9      08 966           83  7        10        
     5    342                                             9                 3   4     0      91 066           28  1        37        
 
     X    XXX                                             X                 X   X     X      X  XXX           XX  X        XX        
          X X                                             X                     X     X      X  XXX           XX  X        X         
            X                                             X                                     XXX           XX  X                  
            X                                             X                                     XXX           XX  X                  
            X                                             X                                     XXX            X  X                  
                                                          X                                     XXX            X  X                  
                                                          X                                     XXX               X                  
                                                          X                                     XXX                                  
                                                                                                X                                    
                                                                                                X                                    
                                                                                                X                                    
                                                                                                X                                    
                                                                                                X                                    
                                                                                                X                                    
                                                                                                X                                    
                                                                                                X                                    
                                                                                                X                                    
                                                                                                X                                    
                                                                                                X                                    
                                                                                                X                                    
 
 ***** Axes restored to original set *****
 -------------------------------------------------------------------
 Center     Atomic                   Forces (Hartrees/Bohr)
 Number     Number              X              Y              Z
 -------------------------------------------------------------------
      1        6          -0.000039536   -0.000009529    0.000016173
      2        1           0.000030965    0.000028116    0.000007757
      3        1           0.000045053   -0.000001952   -0.000007693
      4        6           0.000072248    0.000004168    0.000017627
      5        6          -0.000127336    0.000025087   -0.000140099
      6        1           0.000006370   -0.000045803    0.000074242
      7        1          -0.000003833    0.000000948    0.000005364
      8        6           0.000016069   -0.000001034    0.000026629
 -------------------------------------------------------------------
 Cartesian Forces:  Max     0.000140099 RMS     0.000048520
 Z-matrix is all fixed cartesians, so copy forces.
 Force constants in Cartesian coordinates: 
                1             2             3             4             5 
      1  0.795275D+00
      2  0.190610D+00  0.144171D+00
      3 -0.137379D-03  0.291236D-03  0.547595D+00
      4 -0.107743D+00 -0.209975D-01  0.116642D+00  0.122087D+00
      5 -0.207186D-01 -0.356536D-01  0.314305D-01  0.287710D-01  0.240945D-01
      6  0.112031D+00  0.302144D-01 -0.246005D+00 -0.126359D+00 -0.340951D-01
      7 -0.107738D+00 -0.211711D-01 -0.116605D+00  0.897293D-02  0.615168D-03
      8 -0.208925D-01 -0.357529D-01 -0.317444D-01  0.600210D-03  0.681631D-02
      9 -0.111999D+00 -0.305216D-01 -0.245917D+00 -0.123677D-01 -0.334455D-02
     10 -0.564898D+00 -0.142639D+00  0.935108D-04 -0.268534D-01 -0.850508D-02
     11 -0.142641D+00 -0.783721D-01  0.282310D-04 -0.875194D-02  0.851553D-03
     12  0.103254D-03  0.144155D-04 -0.621195D-01  0.222259D-01  0.491641D-02
     13 -0.218528D-01 -0.781746D-02  0.000000D+00  0.621105D-02  0.655427D-03
     14 -0.187189D-02  0.748819D-02  0.301142D-05 -0.170516D-02  0.338401D-02
     15 -0.505042D-05 -0.267790D-05 -0.318542D-03  0.814918D-03  0.122844D-02
     16 -0.603102D-03  0.697789D-03  0.000000D+00  0.197479D-04  0.586751D-03
     17  0.249827D-02  0.415388D-03 -0.330518D-05 -0.924619D-04  0.645828D-04
     18  0.535309D-05  0.000000D+00  0.293538D-02 -0.156051D-02  0.433376D-02
     19 -0.389072D-03 -0.361167D-03  0.000000D+00 -0.599181D-04  0.913353D-04
     20  0.201284D-03  0.122063D-04  0.000000D+00 -0.886845D-04 -0.313902D-04
     21  0.120856D-05  0.000000D+00 -0.129859D-02  0.910903D-04  0.586368D-03
     22  0.794887D-02  0.167914D-02  0.681250D-05 -0.263483D-02 -0.149598D-02
     23 -0.718535D-02 -0.230789D-02 -0.566365D-05  0.226459D-02  0.473979D-03
     24  0.117395D-05  0.435316D-05  0.512843D-02  0.513526D-03 -0.505576D-02
                6             7             8             9            10 
      6  0.259262D+00
      7  0.123658D-01  0.122088D+00
      8  0.331135D-02  0.289552D-01  0.241940D-01
      9 -0.185639D-01  0.126317D+00  0.344394D-01  0.259166D+00
     10  0.500727D-02 -0.268507D-01 -0.854360D-02 -0.499642D-02  0.105567D+01
     11  0.159509D-02 -0.877052D-02  0.832441D-03 -0.159034D-02  0.256429D+00
     12  0.637726D-02 -0.222214D-01 -0.491023D-02  0.638371D-02 -0.824946D-04
     13 -0.433531D-02  0.619313D-02  0.727140D-03  0.433613D-02 -0.333903D+00
     14  0.149243D-04 -0.169986D-02  0.336713D-02 -0.228118D-04 -0.136727D+00
     15 -0.854396D-03 -0.807623D-03 -0.123011D-02 -0.850407D-03  0.232128D-04
     16 -0.122967D-03  0.180053D-04  0.593789D-03  0.121032D-03 -0.107409D-01
     17  0.493991D-04 -0.967856D-04  0.763948D-04 -0.497335D-04 -0.102757D-01
     18 -0.268006D-04  0.156203D-02 -0.433335D-02 -0.193687D-04  0.125164D-04
     19  0.181626D-04 -0.598488D-04  0.923217D-04 -0.183337D-04  0.457996D-02
     20  0.602104D-04 -0.882507D-04 -0.325183D-04 -0.601235D-04 -0.149989D-03
     21  0.729319D-04 -0.915470D-04 -0.586379D-03  0.735284D-04 -0.594094D-05
     22  0.139534D-02 -0.262330D-02 -0.153254D-02 -0.139299D-02 -0.970081D-01
     23 -0.115019D-02  0.225618D-02  0.499096D-03  0.114979D-02  0.504122D-01
     24 -0.262331D-03 -0.519480D-03  0.505367D-02 -0.272247D-03 -0.516548D-04
               11            12            13            14            15 
     11  0.175309D+00
     12 -0.370548D-04  0.661694D-01
     13 -0.713573D-01  0.343284D-04  0.571853D+00
     14 -0.110624D+00  0.122964D-04  0.337588D-01  0.589792D+00
     15  0.143727D-04 -0.287257D-01  0.166396D-03  0.198622D-03  0.975177D-01
     16 -0.320730D-01 -0.155344D-04 -0.604831D-01 -0.523174D-01 -0.720253D-04
     17 -0.693006D-02 -0.106870D-04 -0.560351D-01 -0.296042D+00 -0.289205D-03
     18  0.000000D+00  0.519701D-02 -0.107265D-03 -0.319984D-03 -0.341186D-01
     19 -0.118253D-02  0.261216D-05  0.450555D-02  0.245591D-01  0.881082D-05
     20  0.297524D-03  0.000000D+00 -0.103167D-01 -0.215493D-02 -0.132281D-04
     21 -0.417219D-05 -0.319291D-03  0.128422D-04  0.262551D-04  0.172519D-02
     22  0.834745D-02 -0.467223D-04 -0.172524D+00  0.136004D+00 -0.128640D-03
     23  0.186355D-01  0.152673D-04  0.110385D+00 -0.195210D+00  0.937880D-04
     24 -0.687493D-05  0.703708D-02 -0.106230D-03  0.876867D-04 -0.343753D-01
               16            17            18            19            20 
     16  0.675472D-01
     17  0.587523D-01  0.324491D+00
     18  0.792626D-04  0.313896D-03  0.203850D-01
     19 -0.260672D-02  0.738203D-03 -0.868177D-05  0.276576D-01
     20  0.254483D-02 -0.865749D-03  0.453542D-05 -0.454230D-01  0.360975D+00
     21 -0.512466D-05 -0.206228D-05  0.465854D-02  0.151230D-04 -0.260793D-04
     22  0.684890D-02  0.451122D-02  0.172974D-04 -0.336276D-01  0.533204D-01
     23  0.212149D-01 -0.212094D-01  0.000000D+00  0.214857D-01 -0.358200D+00
     24  0.147204D-04 -0.830235D-05  0.988852D-03 -0.186110D-04  0.347243D-04
               21            22            23            24 
     21  0.854612D-02
     22 -0.176514D-04  0.293620D+00
     23  0.644868D-05 -0.200833D+00  0.557319D+00
     24 -0.134584D-01  0.166555D-03 -0.109499D-03  0.352139D-01
 Leave Link  716 at Sun Mar  4 21:20:58 2018, MaxMem=    33554432 cpu:         0.0
 (Enter /apl/tryton/gaussian/09/d01/g09/l103.exe)

 GradGradGradGradGradGradGradGradGradGradGradGradGradGradGradGradGradGrad
 Berny optimization.
 Search for a local minimum.
 Step number   1 out of a maximum of    2
 All quantities printed in internal units (Hartrees-Bohrs-Radians)
 Second derivative matrix not updated -- analytic derivatives used.
 ITU=  0
     Eigenvalues ---    0.00504   0.00595   0.01014   0.03203   0.03268
     Eigenvalues ---    0.06902   0.09332   0.09757   0.11773   0.13868
     Eigenvalues ---    0.18266   0.23932   0.42010   0.57374   0.75052
     Eigenvalues ---    0.81004   1.02762   1.69611
 Angle between quadratic step and forces=  55.79 degrees.
 Linear search not attempted -- first point.
 TrRot= -0.000055 -0.000021 -0.000191 -0.000004 -0.000007 -0.000004
 Variable       Old X    -DE/DX   Delta X   Delta X   Delta X     New X
                                 (Linear)    (Quad)   (Total)
    X1        3.37197  -0.00004   0.00000   0.00000  -0.00005   3.37192
    Y1        0.35268  -0.00001   0.00000   0.00000  -0.00005   0.35264
    Z1        0.00084   0.00002   0.00000   0.00006  -0.00011   0.00073
    X2        4.41953   0.00003   0.00000   0.00061   0.00057   4.42010
    Y2        0.63652   0.00003   0.00000   0.00117   0.00111   0.63763
    Z2       -1.74847   0.00001   0.00000   0.00054   0.00038  -1.74809
    X3        4.41948   0.00005   0.00000   0.00029   0.00023   4.41971
    Y3        0.63918  -0.00000   0.00000  -0.00070  -0.00076   0.63842
    Z3        1.74974  -0.00001   0.00000   0.00008  -0.00008   1.74965
    X4        1.00240   0.00007   0.00000   0.00003  -0.00003   1.00237
    Y4       -0.29610   0.00000   0.00000  -0.00016  -0.00019  -0.29629
    Z4        0.00132   0.00002   0.00000  -0.00052  -0.00070   0.00061
    X5       -1.46273  -0.00013   0.00000  -0.00029  -0.00035  -1.46308
    Y5       -0.95361   0.00003   0.00000  -0.00004  -0.00005  -0.95367
    Z5        0.00150  -0.00014   0.00000  -0.00081  -0.00101   0.00049
    X6       -1.90025   0.00001   0.00000  -0.00012  -0.00020  -1.90045
    Y6       -2.96949  -0.00005   0.00000  -0.00021  -0.00021  -2.96970
    Z6       -0.00095   0.00007   0.00000   0.00205   0.00184   0.00090
    X7       -3.67665  -0.00000   0.00000  -0.00005  -0.00008  -3.67673
    Y7        2.75007   0.00000   0.00000   0.00006   0.00007   2.75014
    Z7       -0.00025   0.00001   0.00000  -0.00011  -0.00033  -0.00058
    X8       -3.45677   0.00002   0.00000  -0.00004  -0.00009  -3.45685
    Y8        0.72045  -0.00000   0.00000   0.00007   0.00008   0.72053
    Z8       -0.00012   0.00003   0.00000   0.00023   0.00001  -0.00011
         Item               Value     Threshold  Converged?
 Maximum Force            0.000140     0.000450     YES
 RMS     Force            0.000049     0.000300     YES
 Maximum Displacement     0.001844     0.001800     NO 
 RMS     Displacement     0.000565     0.001200     YES
 Predicted change in Energy=-1.887198D-07
 GradGradGradGradGradGradGradGradGradGradGradGradGradGradGradGradGradGrad

 Leave Link  103 at Sun Mar  4 21:20:58 2018, MaxMem=    33554432 cpu:         0.0
 (Enter /apl/tryton/gaussian/09/d01/g09/l9999.exe)
 1\1\ CITASK-GV2546\Freq\UB3LYP\6-311++G(d,p)\C4H4(3)\EERD\04-Mar-2018\
 0\\#p b3lyp/6-311++g(d,p) freq\\min\\0,3\C,1.784369,0.186632,0.000443\
 H,2.338715,0.336833,-0.925251\H,2.338687,0.338242,0.925921\C,0.530447,
 -0.15669,0.000696\C,-0.774044,-0.50463,0.000795\H,-1.005569,-1.571384,
 -0.000502\H,-1.9456,1.455275,-0.000133\C,-1.829243,0.381248,-0.000062\
 \Version=ES64L-G09RevD.01\State=3-A\HF=-154.6865792\S2=2.033801\S2-1=0
 .\S2A=2.000293\RMSD=6.941e-09\RMSF=4.852e-05\ZeroPoint=0.0570031\Therm
 al=0.0618284\Dipole=0.3009724,0.0750381,-0.0004642\DipoleDeriv=-0.2736
 63,0.0446279,-0.0000824,0.021064,-0.2785394,0.0003266,0.0000638,0.0002
 998,0.1892084,-0.0321593,-0.026862,0.0375336,-0.0569808,0.1562099,0.00
 5498,0.0831911,0.0157053,-0.0229839,-0.0321392,-0.0269105,-0.0375009,-
 0.0572363,0.1561689,-0.005754,-0.0831345,-0.0159257,-0.0229626,0.34491
 13,0.1453121,-0.0000398,0.1560317,-0.1382375,-0.0000487,-0.0001321,-0.
 0001412,-0.1655004,0.1481607,-0.037221,0.0000586,-0.1701738,0.1113957,
 0.000053,0.0003233,0.0004479,-0.1218557,0.0287184,-0.0144033,-0.000072
 6,-0.0156815,-0.0223953,-0.0000581,-0.00004,-0.0003199,0.1670346,0.118
 837,-0.0633656,-0.0000624,0.038064,0.0058911,-0.0000002,-0.0000227,-0.
 0000368,0.1796269,-0.302666,-0.0211775,0.0001658,0.0849126,0.0095066,-
 0.0000165,-0.0002489,-0.0000294,-0.2025673\Polar=84.0253603,0.4127818,
 38.6807482,0.0045459,-0.0011241,31.7397544\PG=C01 [X(C4H4)]\NImag=0\\0
 .79527489,0.19060957,0.14417063,-0.00013738,0.00029124,0.54759495,-0.1
 0774273,-0.02099753,0.11664157,0.12208713,-0.02071860,-0.03565358,0.03
 143048,0.02877097,0.02409453,0.11203054,0.03021437,-0.24600472,-0.1263
 5880,-0.03409515,0.25926194,-0.10773849,-0.02117109,-0.11660517,0.0089
 7293,0.00061517,0.01236575,0.12208827,-0.02089249,-0.03575289,-0.03174
 437,0.00060021,0.00681631,0.00331135,0.02895517,0.02419404,-0.11199910
 ,-0.03052165,-0.24591739,-0.01236771,-0.00334455,-0.01856388,0.1263174
 1,0.03443941,0.25916605,-0.56489761,-0.14263925,0.00009351,-0.02685339
 ,-0.00850508,0.00500727,-0.02685070,-0.00854360,-0.00499642,1.05567393
 ,-0.14264080,-0.07837206,0.00002823,-0.00875194,0.00085155,0.00159509,
 -0.00877052,0.00083244,-0.00159034,0.25642863,0.17530894,0.00010325,0.
 00001442,-0.06211952,0.02222592,0.00491641,0.00637726,-0.02222136,-0.0
 0491023,0.00638371,-0.00008249,-0.00003705,0.06616941,-0.02185275,-0.0
 0781746,-0.00000089,0.00621105,0.00065543,-0.00433531,0.00619313,0.000
 72714,0.00433613,-0.33390316,-0.07135734,0.00003433,0.57185322,-0.0018
 7189,0.00748819,0.00000301,-0.00170516,0.00338401,0.00001492,-0.001699
 86,0.00336713,-0.00002281,-0.13672722,-0.11062380,0.00001230,0.0337588
 2,0.58979197,-0.00000505,-0.00000268,-0.00031854,0.00081492,0.00122844
 ,-0.00085440,-0.00080762,-0.00123011,-0.00085041,0.00002321,0.00001437
 ,-0.02872565,0.00016640,0.00019862,0.09751770,-0.00060310,0.00069779,0
 .00000064,0.00001975,0.00058675,-0.00012297,0.00001801,0.00059379,0.00
 012103,-0.01074091,-0.03207295,-0.00001553,-0.06048315,-0.05231740,-0.
 00007203,0.06754722,0.00249827,0.00041539,-0.00000331,-0.00009246,0.00
 006458,0.00004940,-0.00009679,0.00007639,-0.00004973,-0.01027569,-0.00
 693006,-0.00001069,-0.05603508,-0.29604219,-0.00028920,0.05875232,0.32
 449107,0.00000535,0.00000033,0.00293538,-0.00156051,0.00433376,-0.0000
 2680,0.00156203,-0.00433335,-0.00001937,0.00001252,0.00000075,0.005197
 01,-0.00010726,-0.00031998,-0.03411860,0.00007926,0.00031390,0.0203849
 9,-0.00038907,-0.00036117,0.00000092,-0.00005992,0.00009134,0.00001816
 ,-0.00005985,0.00009232,-0.00001833,0.00457996,-0.00118253,0.00000261,
 0.00450555,0.02455912,0.00000881,-0.00260672,0.00073820,-0.00000868,0.
 02765762,0.00020128,0.00001221,0.00000038,-0.00008868,-0.00003139,0.00
 006021,-0.00008825,-0.00003252,-0.00006012,-0.00014999,0.00029752,-0.0
 0000042,-0.01031666,-0.00215493,-0.00001323,0.00254483,-0.00086575,0.0
 0000454,-0.04542297,0.36097499,0.00000121,-0.00000038,-0.00129859,0.00
 009109,0.00058637,0.00007293,-0.00009155,-0.00058638,0.00007353,-0.000
 00594,-0.00000417,-0.00031929,0.00001284,0.00002626,0.00172519,-0.0000
 0512,-0.00000206,0.00465854,0.00001512,-0.00002608,0.00854612,0.007948
 87,0.00167914,0.00000681,-0.00263483,-0.00149598,0.00139534,-0.0026233
 0,-0.00153254,-0.00139299,-0.09700813,0.00834745,-0.00004672,-0.172523
 90,0.13600360,-0.00012864,0.00684890,0.00451122,0.00001730,-0.03362758
 ,0.05332044,-0.00001765,0.29361997,-0.00718535,-0.00230789,-0.00000566
 ,0.00226459,0.00047398,-0.00115019,0.00225618,0.00049910,0.00114979,0.
 05041221,0.01863546,0.00001527,0.11038515,-0.19521039,0.00009379,0.021
 21487,-0.02120943,0.00000006,0.02148569,-0.35820014,0.00000645,-0.2008
 3333,0.55731931,0.00000117,0.00000435,0.00512843,0.00051353,-0.0050557
 6,-0.00026233,-0.00051948,0.00505367,-0.00027225,-0.00005165,-0.000006
 87,0.00703708,-0.00010623,0.00008769,-0.03437529,0.00001472,-0.0000083
 0,0.00098885,-0.00001861,0.00003472,-0.01345843,0.00016656,-0.00010950
 ,0.03521393\\0.00003954,0.00000953,-0.00001617,-0.00003096,-0.00002812
 ,-0.00000776,-0.00004505,0.00000195,0.00000769,-0.00007225,-0.00000417
 ,-0.00001763,0.00012734,-0.00002509,0.00014010,-0.00000637,0.00004580,
 -0.00007424,0.00000383,-0.00000095,-0.00000536,-0.00001607,0.00000103,
 -0.00002663\\\@


 K N O W I N G  IS A BARRIER WHICH PREVENTS LEARNING

                     -- TEACHING OF THE BENE GESSERIT
 Job cpu time:       0 days  0 hours  3 minutes 35.5 seconds.
 File lengths (MBytes):  RWF=     26 Int=      0 D2E=      0 Chk=      2 Scr=      1
 Normal termination of Gaussian 09 at Sun Mar  4 21:20:58 2018.
