 Entering Gaussian System, Link 0=g09
 Initial command:
 /apl/tryton/gaussian/09/d01/g09/l1.exe "/users/work/eerd/M3C-outputs/8/Gau-6567.inp" -scrdir="/users/work/eerd/M3C-outputs/8/"
 Entering Link 1 = /apl/tryton/gaussian/09/d01/g09/l1.exe PID=      6568.
  
 Copyright (c) 1988,1990,1992,1993,1995,1998,2003,2009,2013,
            Gaussian, Inc.  All Rights Reserved.
  
 This is part of the Gaussian(R) 09 program.  It is based on
 the Gaussian(R) 03 system (copyright 2003, Gaussian, Inc.),
 the Gaussian(R) 98 system (copyright 1998, Gaussian, Inc.),
 the Gaussian(R) 94 system (copyright 1995, Gaussian, Inc.),
 the Gaussian 92(TM) system (copyright 1992, Gaussian, Inc.),
 the Gaussian 90(TM) system (copyright 1990, Gaussian, Inc.),
 the Gaussian 88(TM) system (copyright 1988, Gaussian, Inc.),
 the Gaussian 86(TM) system (copyright 1986, Carnegie Mellon
 University), and the Gaussian 82(TM) system (copyright 1983,
 Carnegie Mellon University). Gaussian is a federally registered
 trademark of Gaussian, Inc.
  
 This software contains proprietary and confidential information,
 including trade secrets, belonging to Gaussian, Inc.
  
 This software is provided under written license and may be
 used, copied, transmitted, or stored only in accord with that
 written license.
  
 The following legend is applicable only to US Government
 contracts under FAR:
  
                    RESTRICTED RIGHTS LEGEND
  
 Use, reproduction and disclosure by the US Government is
 subject to restrictions as set forth in subparagraphs (a)
 and (c) of the Commercial Computer Software - Restricted
 Rights clause in FAR 52.227-19.
  
 Gaussian, Inc.
 340 Quinnipiac St., Bldg. 40, Wallingford CT 06492
  
  
 ---------------------------------------------------------------
 Warning -- This program may not be used in any manner that
 competes with the business of Gaussian, Inc. or will provide
 assistance to any competitor of Gaussian, Inc.  The licensee
 of this program is prohibited from giving any competitor of
 Gaussian, Inc. access to this program.  By using this program,
 the user acknowledges that Gaussian, Inc. is engaged in the
 business of creating and licensing software in the field of
 computational chemistry and represents and warrants to the
 licensee that it is not a competitor of Gaussian, Inc. and that
 it will not use this program in any manner prohibited above.
 ---------------------------------------------------------------
  

 Cite this work as:
 Gaussian 09, Revision D.01,
 M. J. Frisch, G. W. Trucks, H. B. Schlegel, G. E. Scuseria, 
 M. A. Robb, J. R. Cheeseman, G. Scalmani, V. Barone, B. Mennucci, 
 G. A. Petersson, H. Nakatsuji, M. Caricato, X. Li, H. P. Hratchian, 
 A. F. Izmaylov, J. Bloino, G. Zheng, J. L. Sonnenberg, M. Hada, 
 M. Ehara, K. Toyota, R. Fukuda, J. Hasegawa, M. Ishida, T. Nakajima, 
 Y. Honda, O. Kitao, H. Nakai, T. Vreven, J. A. Montgomery, Jr., 
 J. E. Peralta, F. Ogliaro, M. Bearpark, J. J. Heyd, E. Brothers, 
 K. N. Kudin, V. N. Staroverov, T. Keith, R. Kobayashi, J. Normand, 
 K. Raghavachari, A. Rendell, J. C. Burant, S. S. Iyengar, J. Tomasi, 
 M. Cossi, N. Rega, J. M. Millam, M. Klene, J. E. Knox, J. B. Cross, 
 V. Bakken, C. Adamo, J. Jaramillo, R. Gomperts, R. E. Stratmann, 
 O. Yazyev, A. J. Austin, R. Cammi, C. Pomelli, J. W. Ochterski, 
 R. L. Martin, K. Morokuma, V. G. Zakrzewski, G. A. Voth, 
 P. Salvador, J. J. Dannenberg, S. Dapprich, A. D. Daniels, 
 O. Farkas, J. B. Foresman, J. V. Ortiz, J. Cioslowski, 
 and D. J. Fox, Gaussian, Inc., Wallingford CT, 2013.
 
 ******************************************
 Gaussian 09:  ES64L-G09RevD.01 24-Apr-2013
                 4-Mar-2018 
 ******************************************
 ---------------------------
 #p b3lyp/6-311++g(d,p) freq
 ---------------------------
 1/10=4,30=1,38=1/1,3;
 2/12=2,17=6,18=5,40=1/2;
 3/5=4,6=6,7=1111,11=2,16=1,25=1,30=1,71=2,74=-5,140=1/1,2,3;
 4//1;
 5/5=2,38=5,98=1/2;
 8/6=4,10=90,11=11/1;
 11/6=1,8=1,9=11,15=111,16=1/1,2,10;
 10/6=1/2;
 6/7=2,8=2,9=2,10=2,18=1,28=1/1;
 7/8=1,10=1,25=1/1,2,3,16;
 1/10=4,30=1/3;
 99//99;
 Leave Link    1 at Sun Mar  4 21:17:16 2018, MaxMem=           0 cpu:         0.0
 (Enter /apl/tryton/gaussian/09/d01/g09/l101.exe)
 ---
 min
 ---
 Symbolic Z-matrix:
 Charge =  0 Multiplicity = 3
 C                    -0.09561   0.17485  -0.00336 
 C                    -1.53358  -0.10115  -0.00431 
 H                    -1.83106  -0.60639   0.92085 
 H                    -2.09816   0.83146  -0.09186 
 H                    -1.80588  -0.75327  -0.84043 
 C                     1.03714   0.81756  -0.04508 
 C                     1.275    -0.57609   0.14172 
 H                     1.65617  -1.35407  -0.522 
 
 NAtoms=      8 NQM=        8 NQMF=       0 NMMI=      0 NMMIF=      0
                NMic=       0 NMicF=      0.
                    Isotopes and Nuclear Properties:
 (Nuclear quadrupole moments (NQMom) in fm**2, nuclear magnetic moments (NMagM)
  in nuclear magnetons)

  Atom         1           2           3           4           5           6           7           8
 IAtWgt=          12          12           1           1           1          12          12           1
 AtmWgt=  12.0000000  12.0000000   1.0078250   1.0078250   1.0078250  12.0000000  12.0000000   1.0078250
 NucSpn=           0           0           1           1           1           0           0           1
 AtZEff=   0.0000000   0.0000000   0.0000000   0.0000000   0.0000000   0.0000000   0.0000000   0.0000000
 NQMom=    0.0000000   0.0000000   0.0000000   0.0000000   0.0000000   0.0000000   0.0000000   0.0000000
 NMagM=    0.0000000   0.0000000   2.7928460   2.7928460   2.7928460   0.0000000   0.0000000   2.7928460
 AtZNuc=   6.0000000   6.0000000   1.0000000   1.0000000   1.0000000   6.0000000   6.0000000   1.0000000
 Leave Link  101 at Sun Mar  4 21:17:16 2018, MaxMem=    33554432 cpu:         0.1
 (Enter /apl/tryton/gaussian/09/d01/g09/l103.exe)

 GradGradGradGradGradGradGradGradGradGradGradGradGradGradGradGradGradGrad
 Berny optimization.
 Initialization pass.
 Trust Radius=3.00D-01 FncErr=1.00D-07 GrdErr=1.00D-07
 Number of steps in this run=      2 maximum allowed number of steps=      2.
 GradGradGradGradGradGradGradGradGradGradGradGradGradGradGradGradGradGrad

 Leave Link  103 at Sun Mar  4 21:17:17 2018, MaxMem=    33554432 cpu:         0.0
 (Enter /apl/tryton/gaussian/09/d01/g09/l202.exe)
                          Input orientation:                          
 ---------------------------------------------------------------------
 Center     Atomic      Atomic             Coordinates (Angstroms)
 Number     Number       Type             X           Y           Z
 ---------------------------------------------------------------------
      1          6           0       -0.095608    0.174849   -0.003363
      2          6           0       -1.533583   -0.101149   -0.004312
      3          1           0       -1.831059   -0.606393    0.920848
      4          1           0       -2.098164    0.831460   -0.091862
      5          1           0       -1.805879   -0.753267   -0.840432
      6          6           0        1.037140    0.817556   -0.045078
      7          6           0        1.275000   -0.576093    0.141716
      8          1           0        1.656169   -1.354072   -0.521997
 ---------------------------------------------------------------------
                    Distance matrix (angstroms):
                    1          2          3          4          5
     1  C    0.000000
     2  C    1.464223   0.000000
     3  H    2.115726   1.095301   0.000000
     4  H    2.109313   1.093698   1.778861   0.000000
     5  H    2.118280   1.094760   1.767573   1.776836   0.000000
     6  C    1.303047   2.730256   3.344729   3.135684   3.344074
     7  C    1.569563   2.852198   3.202431   3.662513   3.238491
     8  H    2.382290   3.465881   3.847283   4.365385   3.528193
                    6          7          8
     6  C    0.000000
     7  C    1.426088   0.000000
     8  H    2.307946   1.091355   0.000000
 Stoichiometry    C4H4(3)
 Framework group  C1[X(C4H4)]
 Deg. of freedom    18
 Full point group                 C1      NOp   1
 Largest Abelian subgroup         C1      NOp   1
 Largest concise Abelian subgroup C1      NOp   1
                         Standard orientation:                         
 ---------------------------------------------------------------------
 Center     Atomic      Atomic             Coordinates (Angstroms)
 Number     Number       Type             X           Y           Z
 ---------------------------------------------------------------------
      1          6           0        0.096307   -0.174525   -0.003211
      2          6           0        1.534237    0.101708   -0.004230
      3          1           0        1.831520    0.607809    0.920524
      4          1           0        2.098981   -0.830885   -0.090897
      5          1           0        1.806526    0.753139   -0.840887
      6          6           0       -1.036331   -0.817454   -0.044499
      7          6           0       -1.274441    0.576319    0.141048
      8          1           0       -1.655658    1.353655   -0.523391
 ---------------------------------------------------------------------
 Rotational constants (GHZ):     28.1044769      6.6154322      5.5994655
 Leave Link  202 at Sun Mar  4 21:17:17 2018, MaxMem=    33554432 cpu:         0.0
 (Enter /apl/tryton/gaussian/09/d01/g09/l301.exe)
 Standard basis: 6-311++G(d,p) (5D, 7F)
 Ernie: Thresh=  0.10000D-02 Tol=  0.10000D-05 Strict=F.
 There are   120 symmetry adapted cartesian basis functions of A   symmetry.
 There are   116 symmetry adapted basis functions of A   symmetry.
   116 basis functions,   180 primitive gaussians,   120 cartesian basis functions
    15 alpha electrons       13 beta electrons
       nuclear repulsion energy        93.5773192905 Hartrees.
 IExCor=  402 DFT=T Ex+Corr=B3LYP ExCW=0 ScaHFX=  0.200000
 ScaDFX=  0.800000  0.720000  1.000000  0.810000 ScalE2=  1.000000  1.000000
 IRadAn=      0 IRanWt=     -1 IRanGd=            0 ICorTp=0 IEmpDi=  4
 NAtoms=    8 NActive=    8 NUniq=    8 SFac= 1.00D+00 NAtFMM=   60 NAOKFM=F Big=F
 Integral buffers will be    131072 words long.
 Raffenetti 2 integral format.
 Two-electron integral symmetry is turned on.
 Leave Link  301 at Sun Mar  4 21:17:17 2018, MaxMem=    33554432 cpu:         0.1
 (Enter /apl/tryton/gaussian/09/d01/g09/l302.exe)
 NPDir=0 NMtPBC=     1 NCelOv=     1 NCel=       1 NClECP=     1 NCelD=      1
         NCelK=      1 NCelE2=     1 NClLst=     1 CellRange=     0.0.
 One-electron integrals computed using PRISM.
 NBasis=   116 RedAO= T EigKep=  1.32D-05  NBF=   116
 NBsUse=   116 1.00D-06 EigRej= -1.00D+00 NBFU=   116
 Precomputing XC quadrature grid using
 IXCGrd= 4 IRadAn=           0 IRanWt=          -1 IRanGd=           0 AccXCQ= 0.00D+00.
 Generated NRdTot=       0 NPtTot=           0 NUsed=           0 NTot=          32
 NSgBfM=   120   120   120   120   120 MxSgAt=     8 MxSgA2=     8.
 Leave Link  302 at Sun Mar  4 21:17:17 2018, MaxMem=    33554432 cpu:         0.2
 (Enter /apl/tryton/gaussian/09/d01/g09/l303.exe)
 DipDrv:  MaxL=1.
 Leave Link  303 at Sun Mar  4 21:17:17 2018, MaxMem=    33554432 cpu:         0.0
 (Enter /apl/tryton/gaussian/09/d01/g09/l401.exe)
 ExpMin= 3.60D-02 ExpMax= 4.56D+03 ExpMxC= 6.82D+02 IAcc=3 IRadAn=         5 AccDes= 0.00D+00
 Harris functional with IExCor=  402 and IRadAn=       5 diagonalized for initial guess.
 HarFok:  IExCor=  402 AccDes= 0.00D+00 IRadAn=         5 IDoV= 1 UseB2=F ITyADJ=14
 ICtDFT=  3500011 ScaDFX=  1.000000  1.000000  1.000000  1.000000
 FoFCou: FMM=F IPFlag=           0 FMFlag=      100000 FMFlg1=           0
         NFxFlg=           0 DoJE=T BraDBF=F KetDBF=T FulRan=T
         wScrn=  0.000000 ICntrl=     500 IOpCl=  0 I1Cent=   200000004 NGrid=           0
         NMat0=    1 NMatS0=      1 NMatT0=    0 NMatD0=    1 NMtDS0=    0 NMtDT0=    0
 Petite list used in FoFCou.
 Harris En= -154.628211559260    
 JPrj=0 DoOrth=F DoCkMO=F.
 Initial guess <Sx>= 0.0000 <Sy>= 0.0000 <Sz>= 1.0000 <S**2>= 2.0000 S= 1.0000
 Leave Link  401 at Sun Mar  4 21:17:19 2018, MaxMem=    33554432 cpu:         2.3
 (Enter /apl/tryton/gaussian/09/d01/g09/l502.exe)
 UHF open shell SCF:
 Using DIIS extrapolation, IDIIS=  1040.
 Integral symmetry usage will be decided dynamically.
 IVT=       63366 IEndB=       63366 NGot=    33554432 MDV=    33522227
 LenX=    33522227 LenY=    33507386
 Requested convergence on RMS density matrix=1.00D-08 within 128 cycles.
 Requested convergence on MAX density matrix=1.00D-06.
 Requested convergence on             energy=1.00D-06.
 No special actions if energy rises.
 Fock matrices will be formed incrementally for  20 cycles.

 Cycle   1  Pass 1  IDiag  1:
 FoFJK:  IHMeth= 1 ICntrl=       0 DoSepK=F KAlg= 0 I1Cent=   0 FoldK=F
 IRaf= 990000000 NMat=   1 IRICut=       1 DoRegI=T DoRafI=F ISym2E= 0.
 FoFCou: FMM=F IPFlag=           0 FMFlag=      100000 FMFlg1=           0
         NFxFlg=           0 DoJE=F BraDBF=F KetDBF=F FulRan=T
         wScrn=  0.000000 ICntrl=       0 IOpCl=  1 I1Cent=           0 NGrid=           0
         NMat0=    1 NMatS0=      1 NMatT0=    0 NMatD0=    1 NMtDS0=    0 NMtDT0=    0
 Symmetry not used in FoFCou.
 E= -154.545122454443    
 DIIS: error= 2.67D-02 at cycle   1 NSaved=   1.
 NSaved= 1 IEnMin= 1 EnMin= -154.545122454443     IErMin= 1 ErrMin= 2.67D-02
 ErrMax= 2.67D-02  0.00D+00 EMaxC= 1.00D-01 BMatC= 3.92D-01 BMatP= 3.92D-01
 IDIUse=3 WtCom= 7.33D-01 WtEn= 2.67D-01
 Coeff-Com:  0.100D+01
 Coeff-En:   0.100D+01
 Coeff:      0.100D+01
 Gap=     0.167 Goal=   None    Shift=    0.000
 Gap=     0.187 Goal=   None    Shift=    0.000
 GapD=    0.167 DampG=1.000 DampE=0.500 DampFc=0.5000 IDamp=-1.
 Damping current iteration by 5.00D-01
 RMSDP=1.58D-02 MaxDP=6.83D-01              OVMax= 1.53D-01

 Cycle   2  Pass 1  IDiag  1:
 RMSU=  7.50D-03    CP:  1.07D+00
 E= -154.592576336554     Delta-E=       -0.047453882111 Rises=F Damp=T
 DIIS: error= 4.34D-03 at cycle   2 NSaved=   2.
 NSaved= 2 IEnMin= 2 EnMin= -154.592576336554     IErMin= 2 ErrMin= 4.34D-03
 ErrMax= 4.34D-03  0.00D+00 EMaxC= 1.00D-01 BMatC= 1.72D-02 BMatP= 3.92D-01
 IDIUse=3 WtCom= 9.57D-01 WtEn= 4.34D-02
 Coeff-Com: -0.260D-01 0.103D+01
 Coeff-En:   0.000D+00 0.100D+01
 Coeff:     -0.249D-01 0.102D+01
 Gap=     0.175 Goal=   None    Shift=    0.000
 Gap=     0.201 Goal=   None    Shift=    0.000
 RMSDP=8.16D-03 MaxDP=5.67D-01 DE=-4.75D-02 OVMax= 9.78D-02

 Cycle   3  Pass 1  IDiag  1:
 RMSU=  6.41D-03    CP:  9.31D-01  1.19D+00
 E= -154.642391542220     Delta-E=       -0.049815205666 Rises=F Damp=F
 DIIS: error= 3.39D-03 at cycle   3 NSaved=   3.
 NSaved= 3 IEnMin= 3 EnMin= -154.642391542220     IErMin= 3 ErrMin= 3.39D-03
 ErrMax= 3.39D-03  0.00D+00 EMaxC= 1.00D-01 BMatC= 6.08D-03 BMatP= 1.72D-02
 IDIUse=3 WtCom= 9.66D-01 WtEn= 3.39D-02
 Coeff-Com: -0.531D-01 0.335D+00 0.718D+00
 Coeff-En:   0.000D+00 0.000D+00 0.100D+01
 Coeff:     -0.513D-01 0.324D+00 0.727D+00
 Gap=     0.169 Goal=   None    Shift=    0.000
 Gap=     0.196 Goal=   None    Shift=    0.000
 RMSDP=2.85D-03 MaxDP=1.30D-01 DE=-4.98D-02 OVMax= 3.33D-02

 Cycle   4  Pass 1  IDiag  1:
 RMSU=  2.18D-03    CP:  8.93D-01  1.02D+00  9.42D-01
 E= -154.642508730328     Delta-E=       -0.000117188108 Rises=F Damp=F
 DIIS: error= 3.87D-03 at cycle   4 NSaved=   4.
 NSaved= 4 IEnMin= 4 EnMin= -154.642508730328     IErMin= 3 ErrMin= 3.39D-03
 ErrMax= 3.87D-03  0.00D+00 EMaxC= 1.00D-01 BMatC= 6.06D-03 BMatP= 6.08D-03
 IDIUse=3 WtCom= 9.61D-01 WtEn= 3.87D-02
 Coeff-Com: -0.347D-01 0.922D-01 0.522D+00 0.421D+00
 Coeff-En:   0.000D+00 0.000D+00 0.484D+00 0.516D+00
 Coeff:     -0.334D-01 0.886D-01 0.520D+00 0.425D+00
 Gap=     0.175 Goal=   None    Shift=    0.000
 Gap=     0.199 Goal=   None    Shift=    0.000
 RMSDP=1.54D-03 MaxDP=4.42D-02 DE=-1.17D-04 OVMax= 2.27D-02

 Cycle   5  Pass 1  IDiag  1:
 RMSU=  4.80D-04    CP:  8.83D-01  1.12D+00  1.06D+00  5.52D-01
 E= -154.644052963929     Delta-E=       -0.001544233601 Rises=F Damp=F
 DIIS: error= 4.98D-04 at cycle   5 NSaved=   5.
 NSaved= 5 IEnMin= 5 EnMin= -154.644052963929     IErMin= 5 ErrMin= 4.98D-04
 ErrMax= 4.98D-04  0.00D+00 EMaxC= 1.00D-01 BMatC= 1.45D-04 BMatP= 6.06D-03
 IDIUse=3 WtCom= 9.95D-01 WtEn= 4.98D-03
 Coeff-Com: -0.751D-02-0.437D-02 0.129D+00 0.172D+00 0.711D+00
 Coeff-En:   0.000D+00 0.000D+00 0.000D+00 0.000D+00 0.100D+01
 Coeff:     -0.747D-02-0.435D-02 0.129D+00 0.171D+00 0.712D+00
 Gap=     0.174 Goal=   None    Shift=    0.000
 Gap=     0.199 Goal=   None    Shift=    0.000
 RMSDP=8.39D-04 MaxDP=6.40D-02 DE=-1.54D-03 OVMax= 5.80D-03

 Cycle   6  Pass 1  IDiag  1:
 RMSU=  1.60D-04    CP:  8.64D-01  1.10D+00  1.13D+00  6.11D-01  1.29D+00
 E= -154.644084964671     Delta-E=       -0.000032000741 Rises=F Damp=F
 DIIS: error= 3.64D-04 at cycle   6 NSaved=   6.
 NSaved= 6 IEnMin= 6 EnMin= -154.644084964671     IErMin= 6 ErrMin= 3.64D-04
 ErrMax= 3.64D-04  0.00D+00 EMaxC= 1.00D-01 BMatC= 6.02D-05 BMatP= 1.45D-04
 IDIUse=3 WtCom= 9.96D-01 WtEn= 3.64D-03
 Coeff-Com:  0.131D-02-0.164D-01-0.987D-02 0.322D-01 0.447D+00 0.546D+00
 Coeff-En:   0.000D+00 0.000D+00 0.000D+00 0.000D+00 0.146D+00 0.854D+00
 Coeff:      0.131D-02-0.163D-01-0.983D-02 0.321D-01 0.445D+00 0.547D+00
 Gap=     0.174 Goal=   None    Shift=    0.000
 Gap=     0.199 Goal=   None    Shift=    0.000
 RMSDP=1.89D-04 MaxDP=1.36D-02 DE=-3.20D-05 OVMax= 3.63D-03

 Cycle   7  Pass 1  IDiag  1:
 RMSU=  1.22D-04    CP:  8.65D-01  1.09D+00  1.11D+00  6.16D-01  1.26D+00
                    CP:  6.74D-01
 E= -154.644103459803     Delta-E=       -0.000018495132 Rises=F Damp=F
 DIIS: error= 9.06D-05 at cycle   7 NSaved=   7.
 NSaved= 7 IEnMin= 7 EnMin= -154.644103459803     IErMin= 7 ErrMin= 9.06D-05
 ErrMax= 9.06D-05  0.00D+00 EMaxC= 1.00D-01 BMatC= 5.08D-06 BMatP= 6.02D-05
 IDIUse=1 WtCom= 1.00D+00 WtEn= 0.00D+00
 Coeff-Com:  0.210D-02-0.386D-02-0.332D-01-0.350D-01-0.623D-01 0.203D+00
 Coeff-Com:  0.930D+00
 Coeff:      0.210D-02-0.386D-02-0.332D-01-0.350D-01-0.623D-01 0.203D+00
 Coeff:      0.930D+00
 Gap=     0.174 Goal=   None    Shift=    0.000
 Gap=     0.199 Goal=   None    Shift=    0.000
 RMSDP=1.84D-04 MaxDP=1.37D-02 DE=-1.85D-05 OVMax= 1.27D-03

 Cycle   8  Pass 1  IDiag  1:
 RMSU=  1.95D-05    CP:  8.60D-01  1.08D+00  1.13D+00  6.25D-01  1.36D+00
                    CP:  8.06D-01  1.05D+00
 E= -154.644105985482     Delta-E=       -0.000002525679 Rises=F Damp=F
 DIIS: error= 2.39D-05 at cycle   8 NSaved=   8.
 NSaved= 8 IEnMin= 8 EnMin= -154.644105985482     IErMin= 8 ErrMin= 2.39D-05
 ErrMax= 2.39D-05  0.00D+00 EMaxC= 1.00D-01 BMatC= 3.09D-07 BMatP= 5.08D-06
 IDIUse=1 WtCom= 1.00D+00 WtEn= 0.00D+00
 Coeff-Com:  0.556D-03-0.311D-03-0.102D-01-0.135D-01-0.507D-01 0.380D-01
 Coeff-Com:  0.298D+00 0.738D+00
 Coeff:      0.556D-03-0.311D-03-0.102D-01-0.135D-01-0.507D-01 0.380D-01
 Coeff:      0.298D+00 0.738D+00
 Gap=     0.174 Goal=   None    Shift=    0.000
 Gap=     0.199 Goal=   None    Shift=    0.000
 RMSDP=4.06D-05 MaxDP=2.32D-03 DE=-2.53D-06 OVMax= 2.99D-04

 Cycle   9  Pass 1  IDiag  1:
 RMSU=  7.70D-06    CP:  8.59D-01  1.08D+00  1.13D+00  6.23D-01  1.38D+00
                    CP:  8.28D-01  1.17D+00  8.58D-01
 E= -154.644106137492     Delta-E=       -0.000000152010 Rises=F Damp=F
 DIIS: error= 1.06D-05 at cycle   9 NSaved=   9.
 NSaved= 9 IEnMin= 9 EnMin= -154.644106137492     IErMin= 9 ErrMin= 1.06D-05
 ErrMax= 1.06D-05  0.00D+00 EMaxC= 1.00D-01 BMatC= 6.09D-08 BMatP= 3.09D-07
 IDIUse=1 WtCom= 1.00D+00 WtEn= 0.00D+00
 Coeff-Com: -0.285D-03 0.872D-03 0.336D-02 0.264D-02-0.484D-02-0.268D-01
 Coeff-Com: -0.804D-01 0.239D+00 0.866D+00
 Coeff:     -0.285D-03 0.872D-03 0.336D-02 0.264D-02-0.484D-02-0.268D-01
 Coeff:     -0.804D-01 0.239D+00 0.866D+00
 Gap=     0.174 Goal=   None    Shift=    0.000
 Gap=     0.199 Goal=   None    Shift=    0.000
 RMSDP=1.17D-05 MaxDP=6.89D-04 DE=-1.52D-07 OVMax= 2.04D-04

 Cycle  10  Pass 1  IDiag  1:
 RMSU=  2.46D-06    CP:  8.59D-01  1.08D+00  1.13D+00  6.23D-01  1.39D+00
                    CP:  8.35D-01  1.21D+00  9.23D-01  1.17D+00
 E= -154.644106182305     Delta-E=       -0.000000044813 Rises=F Damp=F
 DIIS: error= 4.81D-06 at cycle  10 NSaved=  10.
 NSaved=10 IEnMin=10 EnMin= -154.644106182305     IErMin=10 ErrMin= 4.81D-06
 ErrMax= 4.81D-06  0.00D+00 EMaxC= 1.00D-01 BMatC= 1.27D-08 BMatP= 6.09D-08
 IDIUse=1 WtCom= 1.00D+00 WtEn= 0.00D+00
 Coeff-Com: -0.176D-03 0.276D-03 0.282D-02 0.294D-02 0.769D-02-0.159D-01
 Coeff-Com: -0.683D-01-0.596D-01 0.252D+00 0.878D+00
 Coeff:     -0.176D-03 0.276D-03 0.282D-02 0.294D-02 0.769D-02-0.159D-01
 Coeff:     -0.683D-01-0.596D-01 0.252D+00 0.878D+00
 Gap=     0.174 Goal=   None    Shift=    0.000
 Gap=     0.199 Goal=   None    Shift=    0.000
 RMSDP=3.21D-06 MaxDP=1.72D-04 DE=-4.48D-08 OVMax= 1.02D-04

 Cycle  11  Pass 1  IDiag  1:
 RMSU=  1.22D-06    CP:  8.59D-01  1.08D+00  1.13D+00  6.24D-01  1.39D+00
                    CP:  8.29D-01  1.21D+00  9.76D-01  1.25D+00  1.35D+00
 E= -154.644106194300     Delta-E=       -0.000000011995 Rises=F Damp=F
 DIIS: error= 2.90D-06 at cycle  11 NSaved=  11.
 NSaved=11 IEnMin=11 EnMin= -154.644106194300     IErMin=11 ErrMin= 2.90D-06
 ErrMax= 2.90D-06  0.00D+00 EMaxC= 1.00D-01 BMatC= 2.42D-09 BMatP= 1.27D-08
 IDIUse=1 WtCom= 1.00D+00 WtEn= 0.00D+00
 Coeff-Com:  0.451D-04-0.153D-03-0.318D-03-0.367D-03 0.236D-02 0.345D-02
 Coeff-Com:  0.119D-01-0.589D-01-0.178D+00 0.668D-01 0.115D+01
 Coeff:      0.451D-04-0.153D-03-0.318D-03-0.367D-03 0.236D-02 0.345D-02
 Coeff:      0.119D-01-0.589D-01-0.178D+00 0.668D-01 0.115D+01
 Gap=     0.174 Goal=   None    Shift=    0.000
 Gap=     0.199 Goal=   None    Shift=    0.000
 RMSDP=3.33D-06 MaxDP=2.08D-04 DE=-1.20D-08 OVMax= 8.01D-05

 Cycle  12  Pass 1  IDiag  1:
 RMSU=  7.74D-07    CP:  8.59D-01  1.08D+00  1.13D+00  6.24D-01  1.39D+00
                    CP:  8.28D-01  1.23D+00  9.60D-01  1.41D+00  1.62D+00
                    CP:  1.38D+00
 E= -154.644106198030     Delta-E=       -0.000000003730 Rises=F Damp=F
 DIIS: error= 8.76D-07 at cycle  12 NSaved=  12.
 NSaved=12 IEnMin=12 EnMin= -154.644106198030     IErMin=12 ErrMin= 8.76D-07
 ErrMax= 8.76D-07  0.00D+00 EMaxC= 1.00D-01 BMatC= 3.06D-10 BMatP= 2.42D-09
 IDIUse=1 WtCom= 1.00D+00 WtEn= 0.00D+00
 Coeff-Com:  0.344D-04-0.656D-04-0.510D-03-0.564D-03-0.934D-03 0.317D-02
 Coeff-Com:  0.134D-01 0.425D-02-0.689D-01-0.157D+00 0.164D+00 0.104D+01
 Coeff:      0.344D-04-0.656D-04-0.510D-03-0.564D-03-0.934D-03 0.317D-02
 Coeff:      0.134D-01 0.425D-02-0.689D-01-0.157D+00 0.164D+00 0.104D+01
 Gap=     0.174 Goal=   None    Shift=    0.000
 Gap=     0.199 Goal=   None    Shift=    0.000
 RMSDP=7.42D-07 MaxDP=2.79D-05 DE=-3.73D-09 OVMax= 3.58D-05

 Cycle  13  Pass 1  IDiag  1:
 RMSU=  2.20D-07    CP:  8.59D-01  1.08D+00  1.13D+00  6.24D-01  1.39D+00
                    CP:  8.27D-01  1.23D+00  9.66D-01  1.42D+00  1.77D+00
                    CP:  1.66D+00  1.11D+00
 E= -154.644106198555     Delta-E=       -0.000000000526 Rises=F Damp=F
 DIIS: error= 3.08D-07 at cycle  13 NSaved=  13.
 NSaved=13 IEnMin=13 EnMin= -154.644106198555     IErMin=13 ErrMin= 3.08D-07
 ErrMax= 3.08D-07  0.00D+00 EMaxC= 1.00D-01 BMatC= 3.58D-11 BMatP= 3.06D-10
 IDIUse=1 WtCom= 1.00D+00 WtEn= 0.00D+00
 Coeff-Com: -0.370D-05 0.143D-04-0.205D-04 0.500D-05-0.334D-03-0.219D-03
 Coeff-Com: -0.861D-04 0.724D-02 0.165D-01-0.270D-01-0.135D+00 0.102D+00
 Coeff-Com:  0.104D+01
 Coeff:     -0.370D-05 0.143D-04-0.205D-04 0.500D-05-0.334D-03-0.219D-03
 Coeff:     -0.861D-04 0.724D-02 0.165D-01-0.270D-01-0.135D+00 0.102D+00
 Coeff:      0.104D+01
 Gap=     0.174 Goal=   None    Shift=    0.000
 Gap=     0.199 Goal=   None    Shift=    0.000
 RMSDP=5.28D-07 MaxDP=2.94D-05 DE=-5.26D-10 OVMax= 1.17D-05

 Cycle  14  Pass 1  IDiag  1:
 RMSU=  1.04D-07    CP:  8.59D-01  1.08D+00  1.13D+00  6.24D-01  1.39D+00
                    CP:  8.27D-01  1.23D+00  9.65D-01  1.43D+00  1.79D+00
                    CP:  1.71D+00  1.25D+00  1.13D+00
 E= -154.644106198606     Delta-E=       -0.000000000051 Rises=F Damp=F
 DIIS: error= 7.25D-08 at cycle  14 NSaved=  14.
 NSaved=14 IEnMin=14 EnMin= -154.644106198606     IErMin=14 ErrMin= 7.25D-08
 ErrMax= 7.25D-08  0.00D+00 EMaxC= 1.00D-01 BMatC= 2.98D-12 BMatP= 3.58D-11
 IDIUse=1 WtCom= 1.00D+00 WtEn= 0.00D+00
 Coeff-Com: -0.339D-05 0.706D-05 0.411D-04 0.486D-04 0.627D-04-0.315D-03
 Coeff-Com: -0.106D-02-0.136D-04 0.724D-02 0.133D-01-0.246D-01-0.101D+00
 Coeff-Com:  0.593D-01 0.105D+01
 Coeff:     -0.339D-05 0.706D-05 0.411D-04 0.486D-04 0.627D-04-0.315D-03
 Coeff:     -0.106D-02-0.136D-04 0.724D-02 0.133D-01-0.246D-01-0.101D+00
 Coeff:      0.593D-01 0.105D+01
 Gap=     0.174 Goal=   None    Shift=    0.000
 Gap=     0.199 Goal=   None    Shift=    0.000
 RMSDP=7.90D-08 MaxDP=3.35D-06 DE=-5.13D-11 OVMax= 2.95D-06

 Cycle  15  Pass 1  IDiag  1:
 RMSU=  3.04D-08    CP:  8.59D-01  1.08D+00  1.13D+00  6.24D-01  1.39D+00
                    CP:  8.27D-01  1.23D+00  9.65D-01  1.43D+00  1.80D+00
                    CP:  1.73D+00  1.25D+00  1.29D+00  1.22D+00
 E= -154.644106198613     Delta-E=       -0.000000000006 Rises=F Damp=F
 DIIS: error= 2.30D-08 at cycle  15 NSaved=  15.
 NSaved=15 IEnMin=15 EnMin= -154.644106198613     IErMin=15 ErrMin= 2.30D-08
 ErrMax= 2.30D-08  0.00D+00 EMaxC= 1.00D-01 BMatC= 2.99D-13 BMatP= 2.98D-12
 IDIUse=1 WtCom= 1.00D+00 WtEn= 0.00D+00
 Coeff-Com:  0.212D-06-0.992D-06 0.435D-05 0.212D-05 0.408D-04-0.438D-05
 Coeff-Com: -0.472D-04-0.828D-03-0.123D-02 0.402D-02 0.127D-01-0.223D-01
 Coeff-Com: -0.106D+00 0.122D+00 0.992D+00
 Coeff:      0.212D-06-0.992D-06 0.435D-05 0.212D-05 0.408D-04-0.438D-05
 Coeff:     -0.472D-04-0.828D-03-0.123D-02 0.402D-02 0.127D-01-0.223D-01
 Coeff:     -0.106D+00 0.122D+00 0.992D+00
 Gap=     0.174 Goal=   None    Shift=    0.000
 Gap=     0.199 Goal=   None    Shift=    0.000
 RMSDP=5.81D-08 MaxDP=4.35D-06 DE=-6.28D-12 OVMax= 7.00D-07

 Cycle  16  Pass 1  IDiag  1:
 RMSU=  7.92D-09    CP:  8.59D-01  1.08D+00  1.13D+00  6.24D-01  1.39D+00
                    CP:  8.27D-01  1.23D+00  9.66D-01  1.43D+00  1.80D+00
                    CP:  1.73D+00  1.25D+00  1.31D+00  1.36D+00  1.14D+00
 E= -154.644106198612     Delta-E=        0.000000000001 Rises=F Damp=F
 DIIS: error= 6.03D-09 at cycle  16 NSaved=  16.
 NSaved=16 IEnMin=15 EnMin= -154.644106198613     IErMin=16 ErrMin= 6.03D-09
 ErrMax= 6.03D-09  0.00D+00 EMaxC= 1.00D-01 BMatC= 2.76D-14 BMatP= 2.99D-13
 IDIUse=1 WtCom= 1.00D+00 WtEn= 0.00D+00
 Coeff-Com:  0.216D-06-0.432D-06-0.336D-05-0.303D-05-0.285D-05 0.208D-04
 Coeff-Com:  0.849D-04-0.128D-04-0.431D-03-0.136D-02 0.185D-02 0.829D-02
 Coeff-Com: -0.130D-02-0.880D-01-0.260D-01 0.111D+01
 Coeff:      0.216D-06-0.432D-06-0.336D-05-0.303D-05-0.285D-05 0.208D-04
 Coeff:      0.849D-04-0.128D-04-0.431D-03-0.136D-02 0.185D-02 0.829D-02
 Coeff:     -0.130D-02-0.880D-01-0.260D-01 0.111D+01
 Gap=     0.174 Goal=   None    Shift=    0.000
 Gap=     0.199 Goal=   None    Shift=    0.000
 RMSDP=8.80D-09 MaxDP=5.96D-07 DE= 7.67D-13 OVMax= 1.93D-07

 SCF Done:  E(UB3LYP) =  -154.644106199     A.U. after   16 cycles
            NFock= 16  Conv=0.88D-08     -V/T= 2.0046
 <Sx>= 0.0000 <Sy>= 0.0000 <Sz>= 1.0000 <S**2>= 2.0080 S= 1.0027
 <L.S>= 0.000000000000E+00
 KE= 1.539393682163D+02 PE=-5.452510952761D+02 EE= 1.430903015706D+02
 Annihilation of the first spin contaminant:
 S**2 before annihilation     2.0080,   after     2.0000
 Leave Link  502 at Sun Mar  4 21:18:03 2018, MaxMem=    33554432 cpu:        43.8
 (Enter /apl/tryton/gaussian/09/d01/g09/l801.exe)
 DoSCS=F DFT=T ScalE2(SS,OS)=  1.000000  1.000000
 Range of M.O.s used for correlation:     1   116
 NBasis=   116 NAE=    15 NBE=    13 NFC=     0 NFV=     0
 NROrb=    116 NOA=    15 NOB=    13 NVA=   101 NVB=   103

 **** Warning!!: The largest alpha MO coefficient is  0.78347971D+02


 **** Warning!!: The largest beta MO coefficient is  0.89519445D+02

 Leave Link  801 at Sun Mar  4 21:18:03 2018, MaxMem=    33554432 cpu:         0.0
 (Enter /apl/tryton/gaussian/09/d01/g09/l1101.exe)
 Using compressed storage, NAtomX=     8.
 Will process      9 centers per pass.
 Leave Link 1101 at Sun Mar  4 21:18:03 2018, MaxMem=    33554432 cpu:         0.1
 (Enter /apl/tryton/gaussian/09/d01/g09/l1102.exe)
 Symmetrizing basis deriv contribution to polar:
 IMax=3 JMax=2 DiffMx= 0.00D+00
 Leave Link 1102 at Sun Mar  4 21:18:03 2018, MaxMem=    33554432 cpu:         0.0
 (Enter /apl/tryton/gaussian/09/d01/g09/l1110.exe)
 Forming Gx(P) for the SCF density, NAtomX=     8.
 Integral derivatives from FoFJK, PRISM(SPDF).
 Do as many integral derivatives as possible in FoFJK.
 G2DrvN: MDV=      33554264.
 G2DrvN: will do     9 centers at a time, making    1 passes.
 Calling FoFCou, ICntrl=  3107 FMM=F I1Cent=   0 AccDes= 0.00D+00.
 FoFJK:  IHMeth= 1 ICntrl=    3107 DoSepK=F KAlg= 0 I1Cent=   0 FoldK=F
 IRaf=         0 NMat=   1 IRICut=       1 DoRegI=T DoRafI=F ISym2E= 0.
 FoFCou: FMM=F IPFlag=           0 FMFlag=      100000 FMFlg1=           0
         NFxFlg=           0 DoJE=F BraDBF=F KetDBF=F FulRan=T
         wScrn=  0.000000 ICntrl=    3107 IOpCl=  1 I1Cent=           0 NGrid=           0
         NMat0=    1 NMatS0=      1 NMatT0=    0 NMatD0=    1 NMtDS0=    0 NMtDT0=    0
 Symmetry not used in FoFCou.
 End of G2Drv F.D. properties file   721 does not exist.
 End of G2Drv F.D. properties file   722 does not exist.
 End of G2Drv F.D. properties file   788 does not exist.
 Leave Link 1110 at Sun Mar  4 21:18:47 2018, MaxMem=    33554432 cpu:        43.4
 (Enter /apl/tryton/gaussian/09/d01/g09/l1002.exe)
 Minotr:  UHF open shell wavefunction.
          IDoAtm=11111111
          Direct CPHF calculation.
          Differentiating once with respect to electric field.
                with respect to dipole field.
          Differentiating once with respect to nuclear coordinates.
          Requested convergence is 1.0D-08 RMS, and 1.0D-07 maximum.
          Secondary convergence is 1.0D-12 RMS, and 1.0D-12 maximum.
          NewPWx=T KeepS1=F KeepF1=F KeepIn=T MapXYZ=F SortEE=F KeepMc=T.
          MDV=      33554116 using IRadAn=       2.
 Generate precomputed XC quadrature information.
          Solving linear equations simultaneously, MaxMat=       0.
 FoFJK:  IHMeth= 1 ICntrl=       0 DoSepK=F KAlg= 0 I1Cent=   0 FoldK=F
 IRaf= 990000000 NMat=  27 IRICut=      67 DoRegI=T DoRafI=T ISym2E= 2.
 FoFCou: FMM=F IPFlag=           0 FMFlag=      100000 FMFlg1=           0
         NFxFlg=           0 DoJE=F BraDBF=F KetDBF=F FulRan=T
         wScrn=  0.000000 ICntrl=       0 IOpCl=  1 I1Cent=           0 NGrid=           0
         NMat0=   27 NMatS0=     27 NMatT0=    0 NMatD0=   27 NMtDS0=    0 NMtDT0=    0
 Integrals replicated using symmetry in FoFCou.
          There are    27 degrees of freedom in the 1st order CPHF.  IDoFFX=6 NUNeed=     3.
     24 vectors produced by pass  0 Test12= 1.06D-14 3.70D-09 XBig12= 1.22D+02 5.06D+00.
 AX will form    24 AO Fock derivatives at one time.
     24 vectors produced by pass  1 Test12= 1.06D-14 3.70D-09 XBig12= 4.42D+01 1.54D+00.
     24 vectors produced by pass  2 Test12= 1.06D-14 3.70D-09 XBig12= 1.69D+00 2.45D-01.
     24 vectors produced by pass  3 Test12= 1.06D-14 3.70D-09 XBig12= 2.95D-02 4.44D-02.
     24 vectors produced by pass  4 Test12= 1.06D-14 3.70D-09 XBig12= 1.94D-04 2.12D-03.
     24 vectors produced by pass  5 Test12= 1.06D-14 3.70D-09 XBig12= 8.12D-07 1.57D-04.
     19 vectors produced by pass  6 Test12= 1.06D-14 3.70D-09 XBig12= 2.44D-09 6.56D-06.
      6 vectors produced by pass  7 Test12= 1.06D-14 3.70D-09 XBig12= 9.77D-12 3.78D-07.
      3 vectors produced by pass  8 Test12= 1.06D-14 3.70D-09 XBig12= 1.57D-13 9.10D-08.
      3 vectors produced by pass  9 Test12= 1.06D-14 3.70D-09 XBig12= 5.30D-15 2.18D-08.
      2 vectors produced by pass 10 Test12= 1.06D-14 3.70D-09 XBig12= 4.59D-16 5.34D-09.
      1 vectors produced by pass 11 Test12= 1.06D-14 3.70D-09 XBig12= 5.93D-16 6.70D-09.
 InvSVY:  IOpt=1 It=  1 EMax= 6.45D-15
 Solved reduced A of dimension   178 with    27 vectors.
 FullF1:  Do perturbations    1 to     3.
 Isotropic polarizability for W=    0.000000       47.14 Bohr**3.
 End of Minotr F.D. properties file   721 does not exist.
 End of Minotr F.D. properties file   722 does not exist.
 End of Minotr F.D. properties file   788 does not exist.
 Leave Link 1002 at Sun Mar  4 21:20:07 2018, MaxMem=    33554432 cpu:        79.9
 (Enter /apl/tryton/gaussian/09/d01/g09/l601.exe)
 Copying SCF densities to generalized density rwf, IOpCl= 1 IROHF=0.

 **********************************************************************

            Population analysis using the SCF density.

 **********************************************************************

 Orbital symmetries:
 Alpha Orbitals:
       Occupied  (A) (A) (A) (A) (A) (A) (A) (A) (A) (A) (A) (A)
                 (A) (A) (A)
       Virtual   (A) (A) (A) (A) (A) (A) (A) (A) (A) (A) (A) (A)
                 (A) (A) (A) (A) (A) (A) (A) (A) (A) (A) (A) (A)
                 (A) (A) (A) (A) (A) (A) (A) (A) (A) (A) (A) (A)
                 (A) (A) (A) (A) (A) (A) (A) (A) (A) (A) (A) (A)
                 (A) (A) (A) (A) (A) (A) (A) (A) (A) (A) (A) (A)
                 (A) (A) (A) (A) (A) (A) (A) (A) (A) (A) (A) (A)
                 (A) (A) (A) (A) (A) (A) (A) (A) (A) (A) (A) (A)
                 (A) (A) (A) (A) (A) (A) (A) (A) (A) (A) (A) (A)
                 (A) (A) (A) (A) (A)
 Beta  Orbitals:
       Occupied  (A) (A) (A) (A) (A) (A) (A) (A) (A) (A) (A) (A)
                 (A)
       Virtual   (A) (A) (A) (A) (A) (A) (A) (A) (A) (A) (A) (A)
                 (A) (A) (A) (A) (A) (A) (A) (A) (A) (A) (A) (A)
                 (A) (A) (A) (A) (A) (A) (A) (A) (A) (A) (A) (A)
                 (A) (A) (A) (A) (A) (A) (A) (A) (A) (A) (A) (A)
                 (A) (A) (A) (A) (A) (A) (A) (A) (A) (A) (A) (A)
                 (A) (A) (A) (A) (A) (A) (A) (A) (A) (A) (A) (A)
                 (A) (A) (A) (A) (A) (A) (A) (A) (A) (A) (A) (A)
                 (A) (A) (A) (A) (A) (A) (A) (A) (A) (A) (A) (A)
                 (A) (A) (A) (A) (A) (A) (A)
 The electronic state is 3-A.
 Alpha  occ. eigenvalues --  -10.22980 -10.21722 -10.21643 -10.20722  -0.90907
 Alpha  occ. eigenvalues --   -0.76698  -0.59431  -0.52107  -0.46933  -0.45610
 Alpha  occ. eigenvalues --   -0.40857  -0.39660  -0.35375  -0.24536  -0.18571
 Alpha virt. eigenvalues --   -0.01194  -0.00975   0.01342   0.02694   0.03147
 Alpha virt. eigenvalues --    0.04776   0.05558   0.07035   0.07765   0.08375
 Alpha virt. eigenvalues --    0.10310   0.11291   0.11593   0.12523   0.12833
 Alpha virt. eigenvalues --    0.13194   0.14259   0.14823   0.16567   0.17385
 Alpha virt. eigenvalues --    0.17726   0.18814   0.20612   0.21309   0.22241
 Alpha virt. eigenvalues --    0.24979   0.27846   0.29293   0.39312   0.43213
 Alpha virt. eigenvalues --    0.44451   0.49901   0.51174   0.53292   0.55716
 Alpha virt. eigenvalues --    0.57073   0.58633   0.60233   0.61776   0.62862
 Alpha virt. eigenvalues --    0.65240   0.67516   0.68597   0.69779   0.74083
 Alpha virt. eigenvalues --    0.78821   0.83998   0.88100   0.93859   0.96737
 Alpha virt. eigenvalues --    1.13422   1.16663   1.19976   1.29015   1.34638
 Alpha virt. eigenvalues --    1.40699   1.42259   1.47893   1.51051   1.54566
 Alpha virt. eigenvalues --    1.58224   1.60298   1.67641   1.70592   1.71428
 Alpha virt. eigenvalues --    1.83293   1.87151   1.91944   1.95273   1.99534
 Alpha virt. eigenvalues --    2.01084   2.07420   2.09684   2.21023   2.37028
 Alpha virt. eigenvalues --    2.37589   2.43596   2.49804   2.51448   2.52054
 Alpha virt. eigenvalues --    2.52829   2.60829   2.64224   2.66033   2.80225
 Alpha virt. eigenvalues --    2.81661   2.86997   2.91369   2.91719   2.97639
 Alpha virt. eigenvalues --    3.20678   3.33803   3.55019   3.70181   3.77810
 Alpha virt. eigenvalues --    3.82630   4.25104  23.45723  23.82826  23.92646
 Alpha virt. eigenvalues --   24.42341
  Beta  occ. eigenvalues --  -10.22318 -10.20757 -10.20603 -10.20068  -0.88771
  Beta  occ. eigenvalues --   -0.76202  -0.55963  -0.50654  -0.45616  -0.44953
  Beta  occ. eigenvalues --   -0.37919  -0.35748  -0.31927
  Beta virt. eigenvalues --   -0.12023  -0.05634  -0.01069   0.01380   0.01519
  Beta virt. eigenvalues --    0.02903   0.03358   0.05041   0.05750   0.07348
  Beta virt. eigenvalues --    0.07908   0.09045   0.10604   0.11599   0.12249
  Beta virt. eigenvalues --    0.12609   0.13686   0.14056   0.14544   0.15283
  Beta virt. eigenvalues --    0.16713   0.17804   0.18098   0.19663   0.20913
  Beta virt. eigenvalues --    0.22430   0.23062   0.26039   0.28265   0.31573
  Beta virt. eigenvalues --    0.40232   0.43523   0.44822   0.51451   0.52230
  Beta virt. eigenvalues --    0.54461   0.56938   0.59020   0.60464   0.61170
  Beta virt. eigenvalues --    0.62924   0.63747   0.66557   0.69216   0.69872
  Beta virt. eigenvalues --    0.70713   0.77099   0.79786   0.86014   0.89421
  Beta virt. eigenvalues --    0.94774   0.97745   1.14764   1.20079   1.23145
  Beta virt. eigenvalues --    1.31178   1.36022   1.42504   1.42804   1.49788
  Beta virt. eigenvalues --    1.52894   1.55399   1.59642   1.61942   1.68582
  Beta virt. eigenvalues --    1.71752   1.73580   1.86766   1.89878   1.95295
  Beta virt. eigenvalues --    1.97106   2.01403   2.02374   2.09148   2.12159
  Beta virt. eigenvalues --    2.24088   2.37967   2.38278   2.44347   2.50738
  Beta virt. eigenvalues --    2.52224   2.52773   2.53379   2.62042   2.65763
  Beta virt. eigenvalues --    2.67183   2.82673   2.84072   2.91045   2.92019
  Beta virt. eigenvalues --    2.92988   3.00119   3.22640   3.36470   3.57278
  Beta virt. eigenvalues --    3.71401   3.77965   3.83103   4.26324  23.46902
  Beta virt. eigenvalues --   23.84409  23.92667  24.43325
          Condensed to atoms (all electrons):
               1          2          3          4          5          6
     1  C    5.887426   0.068295  -0.054287  -0.022850  -0.035969  -0.485924
     2  C    0.068295   6.895561   0.423969   0.301603   0.400822  -1.573076
     3  H   -0.054287   0.423969   0.577448  -0.035148  -0.058235  -0.021886
     4  H   -0.022850   0.301603  -0.035148   0.543928  -0.031309   0.067916
     5  H   -0.035969   0.400822  -0.058235  -0.031309   0.578847  -0.013113
     6  C   -0.485924  -1.573076  -0.021886   0.067916  -0.013113   8.114759
     7  C    0.194023  -0.013143   0.008452   0.005310  -0.011656   0.309499
     8  H   -0.000870   0.032952  -0.006296  -0.000014   0.009017  -0.107336
               7          8
     1  C    0.194023  -0.000870
     2  C   -0.013143   0.032952
     3  H    0.008452  -0.006296
     4  H    0.005310  -0.000014
     5  H   -0.011656   0.009017
     6  C    0.309499  -0.107336
     7  C    5.414383   0.336621
     8  H    0.336621   0.612915
          Atomic-Atomic Spin Densities.
               1          2          3          4          5          6
     1  C    0.666285   0.051088   0.021012   0.006046  -0.067467  -0.212101
     2  C    0.051088   0.199180  -0.077765  -0.052916   0.113436  -0.216192
     3  H    0.021012  -0.077765   0.060456  -0.006828  -0.018204   0.050289
     4  H    0.006046  -0.052916  -0.006828   0.035176  -0.002591   0.039458
     5  H   -0.067467   0.113436  -0.018204  -0.002591   0.041038  -0.070196
     6  C   -0.212101  -0.216192   0.050289   0.039458  -0.070196   1.099814
     7  C   -0.149900  -0.184703   0.000208   0.005942   0.004577   0.079854
     8  H    0.076620   0.089537  -0.005225  -0.000279   0.006949  -0.222187
               7          8
     1  C   -0.149900   0.076620
     2  C   -0.184703   0.089537
     3  H    0.000208  -0.005225
     4  H    0.005942  -0.000279
     5  H    0.004577   0.006949
     6  C    0.079854  -0.222187
     7  C    1.338154  -0.028543
     8  H   -0.028543   0.100064
 Mulliken charges and spin densities:
               1          2
     1  C    0.450157   0.391581
     2  C   -0.536983  -0.078336
     3  H    0.165983   0.023943
     4  H    0.170564   0.024008
     5  H    0.161596   0.007541
     6  C   -0.290839   0.548739
     7  C   -0.243488   1.065588
     8  H    0.123010   0.016935
 Sum of Mulliken charges =  -0.00000   2.00000
 Mulliken charges and spin densities with hydrogens summed into heavy atoms:
               1          2
     1  C    0.450157   0.391581
     2  C   -0.038840  -0.022844
     6  C   -0.290839   0.548739
     7  C   -0.120477   1.082523
 APT charges:
               1
     1  C   -0.153281
     2  C    0.132755
     3  H    0.000291
     4  H   -0.001785
     5  H    0.007051
     6  C   -0.022719
     7  C   -0.023449
     8  H    0.061138
 Sum of APT charges =  -0.00000
 APT charges with hydrogens summed into heavy atoms:
               1
     1  C   -0.153281
     2  C    0.138312
     6  C   -0.022719
     7  C    0.037689
 Electronic spatial extent (au):  <R**2>=            255.1243
 Charge=             -0.0000 electrons
 Dipole moment (field-independent basis, Debye):
    X=              2.3860    Y=              0.9738    Z=             -0.7295  Tot=              2.6783
 Quadrupole moment (field-independent basis, Debye-Ang):
   XX=            -24.1524   YY=            -25.5175   ZZ=            -25.4262
   XY=             -1.2371   XZ=              1.2860   YZ=             -1.1139
 Traceless Quadrupole moment (field-independent basis, Debye-Ang):
   XX=              0.8796   YY=             -0.4855   ZZ=             -0.3942
   XY=             -1.2371   XZ=              1.2860   YZ=             -1.1139
 Octapole moment (field-independent basis, Debye-Ang**2):
  XXX=             12.0481  YYY=              3.5041  ZZZ=             -1.1926  XYY=              3.8250
  XXY=              2.3403  XXZ=             -2.4754  XZZ=              3.9805  YZZ=              1.0335
  YYZ=             -1.7330  XYZ=              1.7908
 Hexadecapole moment (field-independent basis, Debye-Ang**3):
 XXXX=           -258.8808 YYYY=            -84.7393 ZZZZ=            -39.8786 XXXY=             -6.1913
 XXXZ=              5.0069 YYYX=             -6.2798 YYYZ=             -3.1274 ZZZX=              2.7082
 ZZZY=             -2.0271 XXYY=            -54.8190 XXZZ=            -49.8289 YYZZ=            -20.8233
 XXYZ=             -3.1924 YYXZ=              2.0448 ZZXY=              1.6144
 N-N= 9.357731929055D+01 E-N=-5.452510951673D+02  KE= 1.539393682163D+02
  Exact polarizability:  58.600  -0.621  47.590  -0.313   0.985  35.239
 Approx polarizability:  83.934   3.626  72.096  -0.735   2.357  47.923
                          Isotropic Fermi Contact Couplings
        Atom                 a.u.       MegaHertz       Gauss      10(-4) cm-1
     1  C(13)              0.01562       8.77743       3.13201       2.92784
     2  C(13)             -0.00845      -4.74703      -1.69386      -1.58344
     3  H(1)               0.00839      18.74777       6.68967       6.25358
     4  H(1)               0.00899      20.09164       7.16920       6.70185
     5  H(1)               0.00567      12.66940       4.52076       4.22606
     6  C(13)              0.31493     177.02222      63.16593      59.04826
     7  C(13)              0.30301     170.32120      60.77484      56.81304
     8  H(1)               0.02133      47.66289      17.00730      15.89863
 --------------------------------------------------------
       Center         ----  Spin Dipole Couplings  ----
                      3XX-RR        3YY-RR        3ZZ-RR
 --------------------------------------------------------
     1   Atom       -0.266698      0.097343      0.169355
     2   Atom        0.028468     -0.010904     -0.017564
     3   Atom        0.014335     -0.007103     -0.007233
     4   Atom        0.014682     -0.005851     -0.008831
     5   Atom        0.011913     -0.005687     -0.006227
     6   Atom       -0.200780      0.486200     -0.285420
     7   Atom       -0.152458     -0.364723      0.517180
     8   Atom       -0.034133      0.033083      0.001050
 --------------------------------------------------------
                        XY            XZ            YZ
 --------------------------------------------------------
     1   Atom       -0.005373     -0.026242      0.099863
     2   Atom       -0.003248     -0.001000     -0.000087
     3   Atom        0.004657      0.007080      0.002310
     4   Atom       -0.004245     -0.000774      0.000779
     5   Atom        0.006787     -0.008546     -0.002372
     6   Atom        0.398784      0.021108      0.173402
     7   Atom        0.239004     -0.157213      0.294118
     8   Atom       -0.037693      0.021834     -0.052800
 --------------------------------------------------------


 ---------------------------------------------------------------------------------
              Anisotropic Spin Dipole Couplings in Principal Axis System
 ---------------------------------------------------------------------------------

       Atom             a.u.   MegaHertz   Gauss  10(-4) cm-1        Axes

              Baa    -0.2683   -36.000   -12.846   -12.008  0.9982 -0.0018  0.0603
     1 C(13)  Bbb     0.0276     3.701     1.320     1.234  0.0359  0.8201 -0.5710
              Bcc     0.2407    32.299    11.525    10.774 -0.0484  0.5722  0.8187
 
              Baa    -0.0176    -2.360    -0.842    -0.787  0.0234  0.0244  0.9994
     2 C(13)  Bbb    -0.0112    -1.498    -0.535    -0.500  0.0810  0.9964 -0.0263
              Bcc     0.0288     3.859     1.377     1.287  0.9964 -0.0816 -0.0214
 
              Baa    -0.0098    -5.231    -1.867    -1.745 -0.1678 -0.4575  0.8732
     3 H(1)   Bbb    -0.0077    -4.116    -1.469    -1.373 -0.3093  0.8655  0.3940
              Bcc     0.0175     9.347     3.335     3.118  0.9360  0.2040  0.2868
 
              Baa    -0.0090    -4.816    -1.718    -1.606 -0.0143 -0.2562  0.9665
     4 H(1)   Bbb    -0.0065    -3.486    -1.244    -1.163  0.1987  0.9466  0.2538
              Bcc     0.0156     8.301     2.962     2.769  0.9800 -0.1957 -0.0373
 
              Baa    -0.0097    -5.157    -1.840    -1.720  0.4054 -0.1544  0.9010
     5 H(1)   Bbb    -0.0079    -4.195    -1.497    -1.399 -0.2124  0.9427  0.2571
              Bcc     0.0175     9.352     3.337     3.120  0.8891  0.2956 -0.3494
 
              Baa    -0.4116   -55.236   -19.710   -18.425  0.7720 -0.4328  0.4655
     6 C(13)  Bbb    -0.2857   -38.334   -13.678   -12.787 -0.4912  0.0586  0.8690
              Bcc     0.6973    93.570    33.388    31.211  0.4034  0.8996  0.1674
 
              Baa    -0.6175   -82.864   -29.568   -27.641 -0.5122  0.8115 -0.2813
     7 C(13)  Bbb     0.0018     0.242     0.086     0.081  0.8511  0.5236 -0.0392
              Bcc     0.6157    82.623    29.482    27.560 -0.1155  0.2595  0.9588
 
              Baa    -0.0512   -27.299    -9.741    -9.106  0.8892  0.4499  0.0832
     8 H(1)   Bbb    -0.0365   -19.467    -6.946    -6.493 -0.3113  0.4617  0.8306
              Bcc     0.0876    46.765    16.687    15.599 -0.3353  0.7644 -0.5506
 

 ---------------------------------------------------------------------------------

 No NMR shielding tensors so no spin-rotation constants.
 Leave Link  601 at Sun Mar  4 21:20:07 2018, MaxMem=    33554432 cpu:         0.2
 (Enter /apl/tryton/gaussian/09/d01/g09/l701.exe)
 Compute integral second derivatives.
 ... and contract with generalized density number  0.
 Leave Link  701 at Sun Mar  4 21:20:07 2018, MaxMem=    33554432 cpu:         0.2
 (Enter /apl/tryton/gaussian/09/d01/g09/l702.exe)
 L702 exits ... SP integral derivatives will be done elsewhere.
 Leave Link  702 at Sun Mar  4 21:20:07 2018, MaxMem=    33554432 cpu:         0.0
 (Enter /apl/tryton/gaussian/09/d01/g09/l703.exe)
 Compute integral second derivatives, UseDBF=F ICtDFT=           0.
 Integral derivatives from FoFJK, PRISM(SPDF).
 Calling FoFJK, ICntrl=    100127 FMM=F ISym2X=0 I1Cent= 0 IOpClX= 1 NMat=1 NMatS=1 NMatT=0.
 FoFJK:  IHMeth= 1 ICntrl=  100127 DoSepK=F KAlg= 0 I1Cent=   0 FoldK=F
 IRaf=         0 NMat=   1 IRICut=       1 DoRegI=T DoRafI=F ISym2E= 0.
 FoFCou: FMM=F IPFlag=           0 FMFlag=      100000 FMFlg1=         800
         NFxFlg=           0 DoJE=F BraDBF=F KetDBF=F FulRan=T
         wScrn=  0.000000 ICntrl=  100127 IOpCl=  1 I1Cent=           0 NGrid=           0
         NMat0=    1 NMatS0=      1 NMatT0=    0 NMatD0=    1 NMtDS0=    0 NMtDT0=    0
 Symmetry not used in FoFCou.
 Leave Link  703 at Sun Mar  4 21:21:03 2018, MaxMem=    33554432 cpu:        56.1
 (Enter /apl/tryton/gaussian/09/d01/g09/l716.exe)
 Dipole        = 9.38732868D-01 3.83125196D-01-2.86998945D-01
 Polarizability= 5.86000876D+01-6.21422168D-01 4.75898243D+01
                -3.12925977D-01 9.84887893D-01 3.52391829D+01
 Full mass-weighted force constant matrix:
 Low frequencies ---   -9.4686   -0.0009   -0.0008    0.0005    2.0362   10.6605
 Low frequencies ---  154.3060  287.4800  300.4794
 Diagonal vibrational polarizability:
        3.1654566       3.3128261       1.1174808
 Harmonic frequencies (cm**-1), IR intensities (KM/Mole), Raman scattering
 activities (A**4/AMU), depolarization ratios for plane and unpolarized
 incident light, reduced masses (AMU), force constants (mDyne/A),
 and normal coordinates:
                      1                      2                      3
                      A                      A                      A
 Frequencies --    154.2744               287.4792               300.4793
 Red. masses --      1.1585                 3.5154                 2.9678
 Frc consts  --      0.0162                 0.1712                 0.1579
 IR Inten    --      0.4684                 3.9072                 3.7245
  Atom  AN      X      Y      Z        X      Y      Z        X      Y      Z
     1   6     0.00   0.00  -0.01    -0.01  -0.03   0.42     0.01   0.26   0.04
     2   6     0.00   0.00   0.00    -0.01   0.01  -0.09     0.10  -0.13  -0.01
     3   1    -0.10   0.50  -0.24     0.41   0.10  -0.28     0.36  -0.26  -0.03
     4   1     0.01  -0.05   0.56    -0.01   0.03  -0.31    -0.29  -0.36  -0.04
     5   1     0.10  -0.45  -0.32    -0.45  -0.04  -0.28     0.32  -0.25  -0.03
     6   6    -0.00   0.01  -0.09     0.01   0.00  -0.19     0.14   0.02  -0.01
     7   6     0.00  -0.01   0.08    -0.01   0.00  -0.05    -0.24  -0.07  -0.01
     8   1    -0.01   0.06   0.18     0.32   0.06  -0.19    -0.46  -0.16   0.01
                      4                      5                      6
                      A                      A                      A
 Frequencies --    585.7109               875.4629               901.8271
 Red. masses --      4.8712                 1.2575                 1.2852
 Frc consts  --      0.9846                 0.5679                 0.6158
 IR Inten    --     14.8534                30.2713                25.2554
  Atom  AN      X      Y      Z        X      Y      Z        X      Y      Z
     1   6     0.19  -0.28   0.01     0.02  -0.02   0.03     0.01   0.02   0.01
     2   6     0.25   0.03   0.00    -0.05  -0.03   0.02    -0.02   0.01   0.03
     3   1     0.16   0.13  -0.02    -0.02   0.03  -0.02     0.16   0.02  -0.03
     4   1     0.57   0.22  -0.04     0.01   0.02  -0.04    -0.10  -0.03  -0.07
     5   1     0.01   0.11  -0.02    -0.20  -0.01  -0.01    -0.09  -0.05  -0.05
     6   6    -0.17   0.24   0.02     0.02   0.03  -0.03    -0.00  -0.01   0.05
     7   6    -0.30  -0.03  -0.03     0.11   0.05  -0.02     0.02  -0.06  -0.13
     8   1    -0.43   0.04   0.16    -0.90  -0.33   0.12    -0.06   0.60   0.74
                      7                      8                      9
                      A                      A                      A
 Frequencies --    940.6328              1034.6354              1046.9810
 Red. masses --      4.1048                 1.6487                 1.4399
 Frc consts  --      2.1398                 1.0399                 0.9299
 IR Inten    --     16.2263                 0.9323                 0.9519
  Atom  AN      X      Y      Z        X      Y      Z        X      Y      Z
     1   6    -0.20   0.08   0.02    -0.09   0.08   0.04    -0.03   0.04  -0.11
     2   6     0.28   0.13   0.02     0.09  -0.12  -0.06     0.02  -0.06   0.14
     3   1     0.60  -0.01  -0.01    -0.47   0.15  -0.01     0.44   0.27  -0.19
     4   1    -0.02  -0.05  -0.04     0.68   0.24   0.12     0.21   0.10  -0.32
     5   1     0.48  -0.04  -0.04    -0.12   0.25   0.16    -0.65  -0.11  -0.15
     6   6    -0.30  -0.15  -0.02     0.02  -0.10  -0.00     0.01  -0.02   0.01
     7   6     0.15  -0.04  -0.01    -0.03   0.08  -0.02    -0.02   0.01   0.03
     8   1    -0.27  -0.22   0.01    -0.09   0.19   0.15     0.12  -0.05  -0.13
                     10                     11                     12
                      A                      A                      A
 Frequencies --   1109.0000              1402.6059              1462.8561
 Red. masses --      4.9859                 1.2264                 1.0405
 Frc consts  --      3.6129                 1.4215                 1.3118
 IR Inten    --     25.5001                 0.8372                13.0038
  Atom  AN      X      Y      Z        X      Y      Z        X      Y      Z
     1   6    -0.04  -0.22  -0.03     0.00   0.01   0.00     0.00   0.00  -0.02
     2   6     0.05   0.12   0.03     0.14   0.02   0.00     0.00   0.00  -0.05
     3   1     0.36  -0.16   0.06    -0.54   0.01   0.21     0.39  -0.29   0.00
     4   1    -0.36  -0.14  -0.05    -0.47  -0.33  -0.03    -0.01  -0.07   0.70
     5   1     0.18  -0.19  -0.15    -0.54   0.04  -0.19    -0.38   0.33   0.10
     6   6     0.16  -0.29  -0.03    -0.01  -0.00   0.00    -0.00  -0.00   0.00
     7   6    -0.16   0.40   0.04    -0.00  -0.01  -0.00    -0.00  -0.00   0.00
     8   1    -0.27   0.39   0.05     0.00   0.00   0.00     0.01  -0.00  -0.00
                     13                     14                     15
                      A                      A                      A
 Frequencies --   1473.2481              1805.3598              3012.8527
 Red. masses --      1.0426                11.0784                 1.0337
 Frc consts  --      1.3333                21.2743                 5.5287
 IR Inten    --     12.1522                 1.2010                20.0549
  Atom  AN      X      Y      Z        X      Y      Z        X      Y      Z
     1   6     0.01  -0.02  -0.00     0.68   0.29   0.01    -0.00  -0.00  -0.00
     2   6     0.01  -0.05  -0.00    -0.15  -0.04  -0.00    -0.05  -0.02  -0.01
     3   1     0.07   0.56  -0.34    -0.15  -0.06   0.04     0.17   0.30   0.55
     4   1    -0.33  -0.23  -0.05    -0.01   0.03   0.00     0.25  -0.44  -0.04
     5   1     0.12   0.46   0.42    -0.14  -0.05  -0.04     0.13   0.33  -0.44
     6   6    -0.00  -0.01  -0.00    -0.43  -0.38  -0.03     0.00  -0.00  -0.00
     7   6    -0.00   0.01   0.00    -0.06   0.13   0.03    -0.00   0.00   0.00
     8   1    -0.00   0.01  -0.00    -0.04   0.11  -0.13     0.00  -0.00   0.00
                     16                     17                     18
                      A                      A                      A
 Frequencies --   3064.2825              3066.7946              3088.2735
 Red. masses --      1.0898                 1.0995                 1.1014
 Frc consts  --      6.0292                 6.0926                 6.1893
 IR Inten    --     29.6014                 6.6999                 8.0227
  Atom  AN      X      Y      Z        X      Y      Z        X      Y      Z
     1   6    -0.00  -0.00   0.00     0.00   0.00   0.00     0.00   0.00   0.00
     2   6    -0.00   0.00   0.02    -0.00  -0.00   0.09    -0.02   0.09  -0.00
     3   1    -0.05  -0.09  -0.15    -0.18  -0.32  -0.56    -0.08  -0.12  -0.26
     4   1     0.02  -0.04   0.00     0.05  -0.09   0.01     0.44  -0.73  -0.07
     5   1     0.05   0.11  -0.14     0.17   0.42  -0.51    -0.11  -0.23   0.33
     6   6     0.00   0.01   0.00    -0.00  -0.00  -0.00    -0.00  -0.00  -0.00
     7   6     0.03  -0.06   0.05    -0.01   0.02  -0.01     0.00   0.00  -0.00
     8   1    -0.34   0.70  -0.57     0.09  -0.19   0.16     0.01  -0.01   0.01

 -------------------
 - Thermochemistry -
 -------------------
 Temperature   298.150 Kelvin.  Pressure   1.00000 Atm.
 Atom     1 has atomic number  6 and mass  12.00000
 Atom     2 has atomic number  6 and mass  12.00000
 Atom     3 has atomic number  1 and mass   1.00783
 Atom     4 has atomic number  1 and mass   1.00783
 Atom     5 has atomic number  1 and mass   1.00783
 Atom     6 has atomic number  6 and mass  12.00000
 Atom     7 has atomic number  6 and mass  12.00000
 Atom     8 has atomic number  1 and mass   1.00783
 Molecular mass:    52.03130 amu.
 Principal axes and moments of inertia in atomic units:
                           1         2         3
     Eigenvalues --    64.21543 272.80775 322.30598
           X            0.99968  -0.02243   0.01198
           Y            0.02304   0.99832  -0.05309
           Z           -0.01077   0.05335   0.99852
 This molecule is an asymmetric top.
 Rotational symmetry number  1.
 Rotational temperatures (Kelvin)      1.34880     0.31749     0.26873
 Rotational constants (GHZ):          28.10448     6.61543     5.59947
 Zero-point vibrational energy     153198.3 (Joules/Mol)
                                   36.61527 (Kcal/Mol)
 Warning -- explicit consideration of   4 degrees of freedom as
           vibrations may cause significant error
 Vibrational temperatures:    221.97   413.62   432.32   842.71  1259.59
          (Kelvin)           1297.53  1353.36  1488.61  1506.37  1595.60
                             2018.03  2104.72  2119.67  2597.51  4334.82
                             4408.81  4412.43  4443.33
 
 Zero-point correction=                           0.058350 (Hartree/Particle)
 Thermal correction to Energy=                    0.063108
 Thermal correction to Enthalpy=                  0.064052
 Thermal correction to Gibbs Free Energy=         0.030851
 Sum of electronic and zero-point Energies=           -154.585756
 Sum of electronic and thermal Energies=              -154.580998
 Sum of electronic and thermal Enthalpies=            -154.580054
 Sum of electronic and thermal Free Energies=         -154.613255
 
                     E (Thermal)             CV                S
                      KCal/Mol        Cal/Mol-Kelvin    Cal/Mol-Kelvin
 Total                   39.601             15.010             69.879
 Electronic               0.000              0.000              2.183
 Translational            0.889              2.981             37.771
 Rotational               0.889              2.981             23.250
 Vibrational             37.824              9.048              6.675
 Vibration     1          0.620              1.898              2.619
 Vibration     2          0.685              1.697              1.489
 Vibration     3          0.693              1.673              1.414
 Vibration     4          0.943              1.062              0.475
                       Q            Log10(Q)             Ln(Q)
 Total Bot       0.645034D-14        -14.190417        -32.674644
 Total V=0       0.445382D+13         12.648732         29.124782
 Vib (Bot)       0.541852D-26        -26.266120        -60.479975
 Vib (Bot)    1  0.131270D+01          0.118165          0.272084
 Vib (Bot)    2  0.666119D+00         -0.176448         -0.406288
 Vib (Bot)    3  0.632741D+00         -0.198774         -0.457695
 Vib (Bot)    4  0.258677D+00         -0.587243         -1.352177
 Vib (V=0)       0.374137D+01          0.573030          1.319451
 Vib (V=0)    1  0.190470D+01          0.279826          0.644323
 Vib (V=0)    2  0.133289D+01          0.124796          0.287353
 Vib (V=0)    3  0.130645D+01          0.116093          0.267313
 Vib (V=0)    4  0.106295D+01          0.026513          0.061049
 Electronic      0.300000D+01          0.477121          1.098612
 Translational   0.147520D+08          7.168852         16.506892
 Rotational      0.268985D+05          4.429729         10.199827
 
                                                                 min
                                                             IR Spectrum
 
    333  3                                                1            11  1           1 11                                          
    000  0                                                8            44  4           1 00   998           5           32    1      
    866  1                                                0            76  0           0 43   407           8           08    5      
    874  3                                                5            33  3           9 75   125           6           07    4      
 
    XXX  X                                                X            XX  X           X XX   XXX           X           XX    X      
    XXX  X                                                             XX              X      XXX           X           XX           
    XXX  X                                                             XX              X      XXX           X            X           
    XXX  X                                                             XX              X      XXX           X                        
    X X  X                                                             XX              X      XXX           X                        
      X  X                                                             XX              X      XXX           X                        
      X  X                                                             XX              X      XXX           X                        
      X  X                                                             XX              X      XXX           X                        
      X  X                                                              X              X      XXX           X                        
      X  X                                                                             X      XXX           X                        
      X  X                                                                             X      XXX                                    
      X  X                                                                             X       XX                                    
      X  X                                                                             X       XX                                    
      X                                                                                X       XX                                    
      X                                                                                X       XX                                    
      X                                                                                X       XX                                    
      X                                                                                X       XX                                    
      X                                                                                         X                                    
      X                                                                                         X                                    
      X                                                                                         X                                    
 
 ***** Axes restored to original set *****
 -------------------------------------------------------------------
 Center     Atomic                   Forces (Hartrees/Bohr)
 Number     Number              X              Y              Z
 -------------------------------------------------------------------
      1        6           0.000014562    0.000189862   -0.000140065
      2        6          -0.000068244   -0.000090757    0.000037542
      3        1           0.000025478    0.000038914   -0.000038335
      4        1           0.000032807   -0.000024488    0.000000292
      5        1           0.000015287    0.000037303    0.000036184
      6        6          -0.000140639    0.000038618   -0.000009175
      7        6           0.000174393   -0.000245938    0.000153062
      8        1          -0.000053644    0.000056486   -0.000039505
 -------------------------------------------------------------------
 Cartesian Forces:  Max     0.000245938 RMS     0.000096120
 Z-matrix is all fixed cartesians, so copy forces.
 Force constants in Cartesian coordinates: 
                1             2             3             4             5 
      1  0.825999D+00
      2  0.252392D+00  0.283064D+00
      3 -0.125100D-01 -0.819501D-02  0.889361D-01
      4 -0.238619D+00 -0.422231D-01  0.145127D-04  0.489627D+00
      5 -0.408496D-01 -0.700275D-01 -0.191261D-02 -0.935086D-02  0.537660D+00
      6  0.293819D-02 -0.968371D-03 -0.625019D-01  0.228797D-02 -0.113206D-03
      7 -0.199862D-01 -0.175157D-01  0.291251D-01 -0.603390D-01 -0.301059D-01
      8 -0.692233D-02 -0.623546D-02  0.347475D-02 -0.277838D-01 -0.980638D-01
      9  0.599158D-02 -0.356827D-03  0.450588D-02  0.545389D-01  0.101203D+00
     10 -0.224701D-01  0.266153D-01 -0.239649D-02 -0.111484D+00  0.114809D+00
     11 -0.552927D-03  0.754519D-02 -0.589737D-03  0.112558D+00 -0.238639D+00
     12 -0.388329D-03 -0.511200D-03 -0.102420D-02 -0.104705D-01  0.182706D-01
     13 -0.170476D-01 -0.225317D-01 -0.262813D-01 -0.578980D-01 -0.361145D-01
     14 -0.645035D-02 -0.662842D-02 -0.185116D-02 -0.336888D-01 -0.135308D+00
     15 -0.463090D-02  0.188007D-02  0.364594D-02 -0.457909D-01 -0.119370D+00
     16 -0.425518D+00 -0.245556D+00  0.218780D-01 -0.114502D-01 -0.156762D-01
     17 -0.311395D+00 -0.159840D+00  0.375569D-02  0.108663D-01  0.599889D-02
     18  0.289437D-01  0.657002D-02 -0.162359D-01 -0.214115D-02 -0.134794D-03
     19 -0.102731D+00  0.358675D-01 -0.219665D-01 -0.103712D-01  0.165111D-01
     20  0.114501D+00 -0.428657D-01  0.673313D-02 -0.108642D-01 -0.282284D-02
     21 -0.246080D-01  0.236948D-02 -0.250210D-01  0.214662D-02  0.194326D-02
     22  0.372769D-03  0.129517D-01  0.121366D-01  0.534682D-03  0.776520D-03
     23 -0.723687D-03 -0.501207D-02 -0.141505D-02  0.486094D-03  0.120247D-02
     24  0.426375D-02 -0.788161D-03  0.769500D-02 -0.585473D-03  0.114120D-03
                6             7             8             9            10 
      6  0.521027D+00
      7  0.577783D-01  0.701525D-01
      8  0.101728D+00  0.358926D-01  0.104343D+00
      9 -0.229654D+00 -0.630412D-01 -0.111081D+00  0.248584D+00
     10 -0.107242D-01  0.493260D-02 -0.784431D-02 -0.596930D-03  0.125200D+00
     11  0.182472D-01  0.635178D-02 -0.117226D-01  0.609764D-04 -0.124861D+00
     12 -0.463929D-01 -0.146511D-01  0.227580D-01 -0.122643D-02  0.117689D-01
     13 -0.480717D-01  0.195624D-02  0.592623D-02  0.597673D-02  0.450781D-02
     14 -0.119393D+00  0.452361D-02  0.917926D-02  0.113809D-01 -0.713899D-02
     15 -0.196074D+00 -0.624401D-02 -0.164833D-01 -0.214331D-01  0.190861D-02
     16 -0.139891D-02  0.108483D-02  0.208848D-02 -0.333345D-02  0.233727D-02
     17  0.297111D-02 -0.156502D-02 -0.196305D-03  0.359537D-03 -0.189847D-02
     18  0.896911D-02 -0.122112D-02  0.934024D-03 -0.132320D-02  0.270418D-03
     19 -0.387200D-02  0.190051D-02 -0.161982D-02  0.623807D-03 -0.265017D-02
     20 -0.468586D-02  0.255003D-02  0.275284D-02 -0.159558D-02  0.524000D-03
     21  0.588490D-02 -0.258711D-02 -0.164044D-02  0.110187D-02  0.130531D-04
     22  0.106244D-02  0.298507D-03  0.262923D-03 -0.159493D-03 -0.373455D-03
     23  0.221356D-02 -0.131440D-03 -0.570789D-04  0.289969D-04 -0.206253D-03
     24 -0.125845D-02  0.841180D-03  0.309668D-03 -0.554774D-03 -0.243367D-03
               11            12            13            14            15 
     11  0.257038D+00
     12 -0.200473D-01  0.455042D-01
     13  0.872836D-02  0.135360D-01  0.672010D-01
     14 -0.152525D-01 -0.206591D-01  0.424209D-01  0.145474D+00
     15  0.254147D-02  0.259822D-02  0.522557D-01  0.130799D+00  0.212058D+00
     16  0.387671D-03  0.408076D-03 -0.194723D-03  0.146975D-02  0.270975D-02
     17  0.817009D-03 -0.407486D-03  0.240617D-03  0.585828D-03 -0.192317D-03
     18 -0.187670D-03 -0.372198D-03  0.154949D-02 -0.699178D-03 -0.668682D-03
     19 -0.254957D-02 -0.922004D-04  0.170127D-02 -0.812863D-03 -0.617185D-04
     20  0.159806D-03  0.712069D-03  0.564553D-03  0.186435D-02  0.105574D-02
     21 -0.868122D-05  0.914844D-03  0.646933D-03  0.579830D-03 -0.122496D-03
     22 -0.629123D-04 -0.110894D-03 -0.226070D-03 -0.323287D-03 -0.146523D-03
     23  0.537937D-04 -0.115664D-03  0.765512D-03  0.854239D-04 -0.229928D-03
     24 -0.163074D-04 -0.153309D-05  0.388182D-03 -0.157214D-03 -0.417866D-05
               16            17            18            19            20 
     16  0.458371D+00
     17  0.231955D+00  0.428254D+00
     18 -0.227366D-01 -0.333490D-01  0.210480D-01
     19 -0.241075D-01  0.727713D-01  0.704774D-03  0.199283D+00
     20  0.139057D-01 -0.266086D+00  0.421852D-01 -0.188149D+00  0.481803D+00
     21  0.610336D-02  0.146964D-01 -0.167384D-01 -0.380035D-01  0.972151D-01
     22 -0.523191D-03 -0.974983D-03 -0.536955D-02 -0.630245D-01  0.669675D-01
     23  0.114258D-01 -0.953418D-02 -0.153186D-01  0.679814D-01 -0.174806D+00
     24 -0.363029D-02  0.121661D-01  0.532130D-02  0.626673D-01 -0.141620D+00
               21            22            23            24 
     21  0.174534D+00
     22  0.562886D-01  0.629412D-01
     23 -0.115155D+00 -0.795974D-01  0.188067D+00
     24 -0.140553D+00 -0.637013D-01  0.129992D+00  0.129356D+00
 Leave Link  716 at Sun Mar  4 21:21:03 2018, MaxMem=    33554432 cpu:         0.0
 (Enter /apl/tryton/gaussian/09/d01/g09/l103.exe)

 GradGradGradGradGradGradGradGradGradGradGradGradGradGradGradGradGradGrad
 Berny optimization.
 Search for a local minimum.
 Step number   1 out of a maximum of    2
 All quantities printed in internal units (Hartrees-Bohrs-Radians)
 Second derivative matrix not updated -- analytic derivatives used.
 ITU=  0
     Eigenvalues ---    0.00137   0.00922   0.01582   0.04219   0.07557
     Eigenvalues ---    0.07850   0.09479   0.09800   0.12873   0.15568
     Eigenvalues ---    0.20138   0.31087   0.34456   0.61395   0.70406
     Eigenvalues ---    0.73099   0.80426   1.49121
 Angle between quadratic step and forces=  70.13 degrees.
 Linear search not attempted -- first point.
 TrRot=  0.000010 -0.000055  0.000184 -0.000025 -0.000139 -0.000025
 MatCor failed.
 Variable       Old X    -DE/DX   Delta X   Delta X   Delta X     New X
                                 (Linear)    (Quad)   (Total)
    X1       -0.18067   0.00001   0.00000  -0.00006  -0.00003  -0.18070
    Y1        0.33042   0.00019   0.00000   0.00097   0.00093   0.33134
    Z1       -0.00636  -0.00014   0.00000  -0.00180  -0.00164  -0.00799
    X2       -2.89805  -0.00007   0.00000   0.00013   0.00013  -2.89792
    Y2       -0.19114  -0.00009   0.00000  -0.00020  -0.00011  -0.19125
    Z2       -0.00815   0.00004   0.00000  -0.00025  -0.00047  -0.00862
    X3       -3.46020   0.00003   0.00000   0.00194   0.00165  -3.45855
    Y3       -1.14592   0.00004   0.00000   0.00165   0.00177  -1.14415
    Z3        1.74015  -0.00004   0.00000   0.00113   0.00083   1.74098
    X4       -3.96496   0.00003   0.00000  -0.00045  -0.00034  -3.96530
    Y4        1.57123  -0.00002   0.00000  -0.00076  -0.00062   1.57061
    Z4       -0.17359   0.00000   0.00000  -0.00130  -0.00167  -0.17527
    X5       -3.41262   0.00002   0.00000  -0.00022  -0.00006  -3.41268
    Y5       -1.42347   0.00004   0.00000  -0.00177  -0.00165  -1.42512
    Z5       -1.58819   0.00004   0.00000   0.00135   0.00106  -1.58712
    X6        1.95991  -0.00014   0.00000   0.00028   0.00038   1.96029
    Y6        1.54496   0.00004   0.00000   0.00001  -0.00014   1.54481
    Z6       -0.08519  -0.00001   0.00000   0.00182   0.00228  -0.08290
    X7        2.40940   0.00017   0.00000  -0.00032  -0.00040   2.40900
    Y7       -1.08866  -0.00025   0.00000  -0.00086  -0.00104  -1.08970
    Z7        0.26780   0.00015   0.00000   0.00062   0.00114   0.26894
    X8        3.12971  -0.00005   0.00000  -0.00134  -0.00132   3.12838
    Y8       -2.55883   0.00006   0.00000   0.00108   0.00087  -2.55796
    Z8       -0.98643  -0.00004   0.00000  -0.00216  -0.00154  -0.98797
         Item               Value     Threshold  Converged?
 Maximum Force            0.000246     0.000450     YES
 RMS     Force            0.000096     0.000300     YES
 Maximum Displacement     0.002282     0.001800     NO 
 RMS     Displacement     0.001123     0.001200     YES
 Predicted change in Energy=-4.559570D-07
 GradGradGradGradGradGradGradGradGradGradGradGradGradGradGradGradGradGrad

 Leave Link  103 at Sun Mar  4 21:21:03 2018, MaxMem=    33554432 cpu:         0.0
 (Enter /apl/tryton/gaussian/09/d01/g09/l9999.exe)
 1\1\ CITASK-GV2544\Freq\UB3LYP\6-311++G(d,p)\C4H4(3)\EERD\04-Mar-2018\
 0\\#p b3lyp/6-311++g(d,p) freq\\min\\0,3\C,-0.095608,0.174849,-0.00336
 3\C,-1.533583,-0.101149,-0.004312\H,-1.831059,-0.606393,0.920848\H,-2.
 098164,0.83146,-0.091862\H,-1.805879,-0.753267,-0.840432\C,1.03714,0.8
 17556,-0.045078\C,1.275,-0.576093,0.141716\H,1.656169,-1.354072,-0.521
 997\\Version=ES64L-G09RevD.01\State=3-A\HF=-154.6441062\S2=2.007959\S2
 -1=0.\S2A=2.000031\RMSD=8.799e-09\RMSF=9.612e-05\ZeroPoint=0.0583502\T
 hermal=0.0631083\Dipole=-0.9387614,-0.3832223,-0.286776\DipoleDeriv=0.
 015664,0.3149671,0.0360633,-0.2378303,-0.3806371,0.0908591,-0.0396049,
 0.0765052,-0.0948705,0.0222142,-0.0620389,-0.00975,0.0938596,0.2105836
 ,-0.0197789,-0.0104231,-0.0162624,0.1654685,-0.0217135,0.0070684,-0.01
 00671,-0.0490519,0.0551615,0.0701668,0.0770499,0.0688105,-0.032576,-0.
 0597024,0.0141592,-0.0017067,0.0660827,-0.0502003,0.0143426,-0.0040344
 ,0.0148795,0.1045471,-0.0010243,0.0066417,0.002819,-0.0435747,0.030556
 5,-0.0804294,-0.0515134,-0.0796503,-0.0083799,0.0995728,0.1517828,-0.0
 790241,-0.1332932,-0.0597359,-0.0101897,0.0850111,-0.0141385,-0.107995
 1,-0.1674681,-0.5321437,0.0233476,0.2110449,0.1574753,0.0263776,-0.200
 0337,0.1099132,-0.0603551,0.1124572,0.0995635,0.038318,0.0927629,0.036
 7962,-0.0913481,0.1435485,-0.1600571,0.034161\Polar=58.5998086,-0.6228
 328,47.5882961,0.3160977,-0.9958125,35.2409901\PG=C01 [X(C4H4)]\NImag=
 0\\0.82599900,0.25239243,0.28306362,-0.01250998,-0.00819501,0.08893613
 ,-0.23861887,-0.04222309,0.00001451,0.48962671,-0.04084963,-0.07002753
 ,-0.00191261,-0.00935086,0.53765985,0.00293819,-0.00096837,-0.06250185
 ,0.00228797,-0.00011321,0.52102710,-0.01998625,-0.01751566,0.02912509,
 -0.06033896,-0.03010590,0.05777825,0.07015253,-0.00692233,-0.00623546,
 0.00347475,-0.02778378,-0.09806383,0.10172828,0.03589260,0.10434319,0.
 00599158,-0.00035683,0.00450588,0.05453893,0.10120297,-0.22965412,-0.0
 6304117,-0.11108097,0.24858383,-0.02247015,0.02661530,-0.00239649,-0.1
 1148422,0.11480944,-0.01072422,0.00493260,-0.00784431,-0.00059693,0.12
 520032,-0.00055293,0.00754519,-0.00058974,0.11255831,-0.23863886,0.018
 24721,0.00635178,-0.01172262,0.00006098,-0.12486071,0.25703820,-0.0003
 8833,-0.00051120,-0.00102420,-0.01047050,0.01827065,-0.04639294,-0.014
 65111,0.02275803,-0.00122643,0.01176893,-0.02004727,0.04550424,-0.0170
 4759,-0.02253173,-0.02628134,-0.05789798,-0.03611446,-0.04807172,0.001
 95624,0.00592623,0.00597673,0.00450781,0.00872836,0.01353603,0.0672010
 4,-0.00645035,-0.00662842,-0.00185116,-0.03368879,-0.13530815,-0.11939
 272,0.00452361,0.00917926,0.01138090,-0.00713899,-0.01525251,-0.020659
 13,0.04242093,0.14547421,-0.00463090,0.00188007,0.00364594,-0.04579090
 ,-0.11937038,-0.19607375,-0.00624401,-0.01648333,-0.02143306,0.0019086
 1,0.00254147,0.00259822,0.05225569,0.13079868,0.21205800,-0.42551778,-
 0.24555637,0.02187802,-0.01145017,-0.01567620,-0.00139891,0.00108483,0
 .00208848,-0.00333345,0.00233727,0.00038767,0.00040808,-0.00019472,0.0
 0146975,0.00270975,0.45837130,-0.31139491,-0.15983959,0.00375569,0.010
 86627,0.00599889,0.00297111,-0.00156502,-0.00019630,0.00035954,-0.0018
 9847,0.00081701,-0.00040749,0.00024062,0.00058583,-0.00019232,0.231955
 23,0.42825407,0.02894369,0.00657002,-0.01623591,-0.00214115,-0.0001347
 9,0.00896911,-0.00122112,0.00093402,-0.00132320,0.00027042,-0.00018767
 ,-0.00037220,0.00154949,-0.00069918,-0.00066868,-0.02273655,-0.0333489
 7,0.02104796,-0.10273112,0.03586746,-0.02196646,-0.01037118,0.01651110
 ,-0.00387200,0.00190051,-0.00161982,0.00062381,-0.00265017,-0.00254957
 ,-0.00009220,0.00170127,-0.00081286,-0.00006172,-0.02410753,0.07277127
 ,0.00070477,0.19928271,0.11450141,-0.04286574,0.00673313,-0.01086417,-
 0.00282284,-0.00468586,0.00255003,0.00275284,-0.00159558,0.00052400,0.
 00015981,0.00071207,0.00056455,0.00186435,0.00105574,0.01390567,-0.266
 08571,0.04218519,-0.18814899,0.48180292,-0.02460799,0.00236948,-0.0250
 2098,0.00214662,0.00194326,0.00588490,-0.00258711,-0.00164044,0.001101
 87,0.00001305,-0.00000868,0.00091484,0.00064693,0.00057983,-0.00012250
 ,0.00610336,0.01469635,-0.01673838,-0.03800349,0.09721509,0.17453351,0
 .00037277,0.01295165,0.01213665,0.00053468,0.00077652,0.00106244,0.000
 29851,0.00026292,-0.00015949,-0.00037345,-0.00006291,-0.00011089,-0.00
 022607,-0.00032329,-0.00014652,-0.00052319,-0.00097498,-0.00536955,-0.
 06302449,0.06696751,0.05628864,0.06294124,-0.00072369,-0.00501207,-0.0
 0141505,0.00048609,0.00120247,0.00221356,-0.00013144,-0.00005708,0.000
 02900,-0.00020625,0.00005379,-0.00011566,0.00076551,0.00008542,-0.0002
 2993,0.01142579,-0.00953418,-0.01531863,0.06798142,-0.17480564,-0.1151
 5488,-0.07959743,0.18806729,0.00426375,-0.00078816,0.00769500,-0.00058
 547,0.00011412,-0.00125845,0.00084118,0.00030967,-0.00055477,-0.000243
 37,-0.00001631,-0.00000153,0.00038818,-0.00015721,-0.00000418,-0.00363
 029,0.01216608,0.00532130,0.06266728,-0.14161978,-0.14055327,-0.063701
 27,0.12999159,0.12935591\\-0.00001456,-0.00018986,0.00014007,0.0000682
 4,0.00009076,-0.00003754,-0.00002548,-0.00003891,0.00003834,-0.0000328
 1,0.00002449,-0.00000029,-0.00001529,-0.00003730,-0.00003618,0.0001406
 4,-0.00003862,0.00000918,-0.00017439,0.00024594,-0.00015306,0.00005364
 ,-0.00005649,0.00003950\\\@


 SILVERMAN'S PARADOX - IF MURPHY'S LAW CAN GO WRONG, IT WILL.
 Job cpu time:       0 days  0 hours  3 minutes 46.9 seconds.
 File lengths (MBytes):  RWF=     26 Int=      0 D2E=      0 Chk=      2 Scr=      1
 Normal termination of Gaussian 09 at Sun Mar  4 21:21:03 2018.
