 Entering Gaussian System, Link 0=g09
 Initial command:
 /apl/tryton/gaussian/09/d01/g09/l1.exe "/users/work/eerd/M3C-outputs/ionized/2/Gau-11989.inp" -scrdir="/users/work/eerd/M3C-outputs/ionized/2/"
 Entering Link 1 = /apl/tryton/gaussian/09/d01/g09/l1.exe PID=     11990.
  
 Copyright (c) 1988,1990,1992,1993,1995,1998,2003,2009,2013,
            Gaussian, Inc.  All Rights Reserved.
  
 This is part of the Gaussian(R) 09 program.  It is based on
 the Gaussian(R) 03 system (copyright 2003, Gaussian, Inc.),
 the Gaussian(R) 98 system (copyright 1998, Gaussian, Inc.),
 the Gaussian(R) 94 system (copyright 1995, Gaussian, Inc.),
 the Gaussian 92(TM) system (copyright 1992, Gaussian, Inc.),
 the Gaussian 90(TM) system (copyright 1990, Gaussian, Inc.),
 the Gaussian 88(TM) system (copyright 1988, Gaussian, Inc.),
 the Gaussian 86(TM) system (copyright 1986, Carnegie Mellon
 University), and the Gaussian 82(TM) system (copyright 1983,
 Carnegie Mellon University). Gaussian is a federally registered
 trademark of Gaussian, Inc.
  
 This software contains proprietary and confidential information,
 including trade secrets, belonging to Gaussian, Inc.
  
 This software is provided under written license and may be
 used, copied, transmitted, or stored only in accord with that
 written license.
  
 The following legend is applicable only to US Government
 contracts under FAR:
  
                    RESTRICTED RIGHTS LEGEND
  
 Use, reproduction and disclosure by the US Government is
 subject to restrictions as set forth in subparagraphs (a)
 and (c) of the Commercial Computer Software - Restricted
 Rights clause in FAR 52.227-19.
  
 Gaussian, Inc.
 340 Quinnipiac St., Bldg. 40, Wallingford CT 06492
  
  
 ---------------------------------------------------------------
 Warning -- This program may not be used in any manner that
 competes with the business of Gaussian, Inc. or will provide
 assistance to any competitor of Gaussian, Inc.  The licensee
 of this program is prohibited from giving any competitor of
 Gaussian, Inc. access to this program.  By using this program,
 the user acknowledges that Gaussian, Inc. is engaged in the
 business of creating and licensing software in the field of
 computational chemistry and represents and warrants to the
 licensee that it is not a competitor of Gaussian, Inc. and that
 it will not use this program in any manner prohibited above.
 ---------------------------------------------------------------
  

 Cite this work as:
 Gaussian 09, Revision D.01,
 M. J. Frisch, G. W. Trucks, H. B. Schlegel, G. E. Scuseria, 
 M. A. Robb, J. R. Cheeseman, G. Scalmani, V. Barone, B. Mennucci, 
 G. A. Petersson, H. Nakatsuji, M. Caricato, X. Li, H. P. Hratchian, 
 A. F. Izmaylov, J. Bloino, G. Zheng, J. L. Sonnenberg, M. Hada, 
 M. Ehara, K. Toyota, R. Fukuda, J. Hasegawa, M. Ishida, T. Nakajima, 
 Y. Honda, O. Kitao, H. Nakai, T. Vreven, J. A. Montgomery, Jr., 
 J. E. Peralta, F. Ogliaro, M. Bearpark, J. J. Heyd, E. Brothers, 
 K. N. Kudin, V. N. Staroverov, T. Keith, R. Kobayashi, J. Normand, 
 K. Raghavachari, A. Rendell, J. C. Burant, S. S. Iyengar, J. Tomasi, 
 M. Cossi, N. Rega, J. M. Millam, M. Klene, J. E. Knox, J. B. Cross, 
 V. Bakken, C. Adamo, J. Jaramillo, R. Gomperts, R. E. Stratmann, 
 O. Yazyev, A. J. Austin, R. Cammi, C. Pomelli, J. W. Ochterski, 
 R. L. Martin, K. Morokuma, V. G. Zakrzewski, G. A. Voth, 
 P. Salvador, J. J. Dannenberg, S. Dapprich, A. D. Daniels, 
 O. Farkas, J. B. Foresman, J. V. Ortiz, J. Cioslowski, 
 and D. J. Fox, Gaussian, Inc., Wallingford CT, 2013.
 
 ******************************************
 Gaussian 09:  ES64L-G09RevD.01 24-Apr-2013
                24-Jan-2019 
 ******************************************
 ---------------------------
 #p b3lyp/6-311++g(d,p) freq
 ---------------------------
 1/10=4,30=1,38=1/1,3;
 2/12=2,17=6,18=5,40=1/2;
 3/5=4,6=6,7=1111,11=2,16=1,25=1,30=1,71=2,74=-5,140=1/1,2,3;
 4//1;
 5/5=2,38=5,98=1/2;
 8/6=4,10=90,11=11/1;
 11/6=1,8=1,9=11,15=111,16=1/1,2,10;
 10/6=1/2;
 6/7=2,8=2,9=2,10=2,18=1,28=1/1;
 7/8=1,10=1,25=1/1,2,3,16;
 1/10=4,30=1/3;
 99//99;
 Leave Link    1 at Thu Jan 24 15:29:55 2019, MaxMem=           0 cpu:         0.0
 (Enter /apl/tryton/gaussian/09/d01/g09/l101.exe)
 ---
 min
 ---
 Symbolic Z-matrix:
 Charge =  1 Multiplicity = 1
 C                     0.73611   0.        0. 
 H                     1.87587   0.        0. 
 
 NAtoms=      2 NQM=        2 NQMF=       0 NMMI=      0 NMMIF=      0
                NMic=       0 NMicF=      0.
                    Isotopes and Nuclear Properties:
 (Nuclear quadrupole moments (NQMom) in fm**2, nuclear magnetic moments (NMagM)
  in nuclear magnetons)

  Atom         1           2
 IAtWgt=          12           1
 AtmWgt=  12.0000000   1.0078250
 NucSpn=           0           1
 AtZEff=   0.0000000   0.0000000
 NQMom=    0.0000000   0.0000000
 NMagM=    0.0000000   2.7928460
 AtZNuc=   6.0000000   1.0000000
 Leave Link  101 at Thu Jan 24 15:29:55 2019, MaxMem=    33554432 cpu:         0.0
 (Enter /apl/tryton/gaussian/09/d01/g09/l103.exe)

 GradGradGradGradGradGradGradGradGradGradGradGradGradGradGradGradGradGrad
 Berny optimization.
 Initialization pass.
 Trust Radius=3.00D-01 FncErr=1.00D-07 GrdErr=1.00D-07
 Number of steps in this run=      2 maximum allowed number of steps=      2.
 GradGradGradGradGradGradGradGradGradGradGradGradGradGradGradGradGradGrad

 Leave Link  103 at Thu Jan 24 15:29:55 2019, MaxMem=    33554432 cpu:         0.0
 (Enter /apl/tryton/gaussian/09/d01/g09/l202.exe)
                          Input orientation:                          
 ---------------------------------------------------------------------
 Center     Atomic      Atomic             Coordinates (Angstroms)
 Number     Number       Type             X           Y           Z
 ---------------------------------------------------------------------
      1          6           0        0.736113    0.000000    0.000000
      2          1           0        1.875870    0.000000    0.000000
 ---------------------------------------------------------------------
 Stoichiometry    CH(1+)
 Framework group  C*V[C*(HC)]
 Deg. of freedom     1
 Full point group                 C*V     NOp   4
 Largest Abelian subgroup         C2V     NOp   4
 Largest concise Abelian subgroup C1      NOp   1
                         Standard orientation:                         
 ---------------------------------------------------------------------
 Center     Atomic      Atomic             Coordinates (Angstroms)
 Number     Number       Type             X           Y           Z
 ---------------------------------------------------------------------
      1          6           0        0.000000    0.000000    0.162822
      2          1           0        0.000000    0.000000   -0.976935
 ---------------------------------------------------------------------
 Rotational constants (GHZ):      0.0000000    418.4378455    418.4378455
 Leave Link  202 at Thu Jan 24 15:29:55 2019, MaxMem=    33554432 cpu:         0.0
 (Enter /apl/tryton/gaussian/09/d01/g09/l301.exe)
 Standard basis: 6-311++G(d,p) (5D, 7F)
 Ernie: Thresh=  0.10000D-02 Tol=  0.10000D-05 Strict=F.
 There are    17 symmetry adapted cartesian basis functions of A1  symmetry.
 There are     1 symmetry adapted cartesian basis functions of A2  symmetry.
 There are     6 symmetry adapted cartesian basis functions of B1  symmetry.
 There are     6 symmetry adapted cartesian basis functions of B2  symmetry.
 There are    16 symmetry adapted basis functions of A1  symmetry.
 There are     1 symmetry adapted basis functions of A2  symmetry.
 There are     6 symmetry adapted basis functions of B1  symmetry.
 There are     6 symmetry adapted basis functions of B2  symmetry.
    29 basis functions,    45 primitive gaussians,    30 cartesian basis functions
     3 alpha electrons        3 beta electrons
       nuclear repulsion energy         2.7857370049 Hartrees.
 IExCor=  402 DFT=T Ex+Corr=B3LYP ExCW=0 ScaHFX=  0.200000
 ScaDFX=  0.800000  0.720000  1.000000  0.810000 ScalE2=  1.000000  1.000000
 IRadAn=      0 IRanWt=     -1 IRanGd=            0 ICorTp=0 IEmpDi=  4
 NAtoms=    2 NActive=    2 NUniq=    2 SFac= 1.00D+00 NAtFMM=   60 NAOKFM=F Big=F
 Integral buffers will be    131072 words long.
 Raffenetti 2 integral format.
 Two-electron integral symmetry is turned on.
 Leave Link  301 at Thu Jan 24 15:29:55 2019, MaxMem=    33554432 cpu:         0.0
 (Enter /apl/tryton/gaussian/09/d01/g09/l302.exe)
 NPDir=0 NMtPBC=     1 NCelOv=     1 NCel=       1 NClECP=     1 NCelD=      1
         NCelK=      1 NCelE2=     1 NClLst=     1 CellRange=     0.0.
 One-electron integrals computed using PRISM.
 NBasis=    29 RedAO= T EigKep=  1.46D-02  NBF=    16     1     6     6
 NBsUse=    29 1.00D-06 EigRej= -1.00D+00 NBFU=    16     1     6     6
 Precomputing XC quadrature grid using
 IXCGrd= 4 IRadAn=           0 IRanWt=          -1 IRanGd=           0 AccXCQ= 0.00D+00.
 Generated NRdTot=       0 NPtTot=           0 NUsed=           0 NTot=          32
 NSgBfM=    30    30    30    30    30 MxSgAt=     2 MxSgA2=     2.
 Leave Link  302 at Thu Jan 24 15:29:55 2019, MaxMem=    33554432 cpu:         0.1
 (Enter /apl/tryton/gaussian/09/d01/g09/l303.exe)
 DipDrv:  MaxL=1.
 Leave Link  303 at Thu Jan 24 15:29:55 2019, MaxMem=    33554432 cpu:         0.0
 (Enter /apl/tryton/gaussian/09/d01/g09/l401.exe)
 ExpMin= 3.60D-02 ExpMax= 4.56D+03 ExpMxC= 6.82D+02 IAcc=3 IRadAn=         5 AccDes= 0.00D+00
 Harris functional with IExCor=  402 and IRadAn=       5 diagonalized for initial guess.
 HarFok:  IExCor=  402 AccDes= 0.00D+00 IRadAn=         5 IDoV= 1 UseB2=F ITyADJ=14
 ICtDFT=  3500011 ScaDFX=  1.000000  1.000000  1.000000  1.000000
 FoFCou: FMM=F IPFlag=           0 FMFlag=      100000 FMFlg1=           0
         NFxFlg=           0 DoJE=T BraDBF=F KetDBF=T FulRan=T
         wScrn=  0.000000 ICntrl=     500 IOpCl=  0 I1Cent=   200000004 NGrid=           0
         NMat0=    1 NMatS0=      1 NMatT0=    0 NMatD0=    1 NMtDS0=    0 NMtDT0=    0
 Petite list used in FoFCou.
 Harris En= -38.2653598767745    
 JPrj=0 DoOrth=F DoCkMO=F.
 Initial guess orbital symmetries:
       Occupied  (SG) (SG) (SG)
       Virtual   (PI) (PI) (SG) (SG) (PI) (PI) (SG) (SG) (SG) (PI)
                 (PI) (SG) (SG) (PI) (PI) (DLTA) (DLTA) (SG) (PI)
                 (PI) (SG) (SG) (PI) (PI) (SG) (SG)
 The electronic state of the initial guess is 1-SG.
 Leave Link  401 at Thu Jan 24 15:29:55 2019, MaxMem=    33554432 cpu:         0.1
 (Enter /apl/tryton/gaussian/09/d01/g09/l502.exe)
 Closed shell SCF:
 Using DIIS extrapolation, IDIIS=  1040.
 Integral symmetry usage will be decided dynamically.
 Keep R1 ints in memory in symmetry-blocked form, NReq=978294.
 IVT=       21699 IEndB=       21699 NGot=    33554432 MDV=    33502855
 LenX=    33502855 LenY=    33501514
 Requested convergence on RMS density matrix=1.00D-08 within 128 cycles.
 Requested convergence on MAX density matrix=1.00D-06.
 Requested convergence on             energy=1.00D-06.
 No special actions if energy rises.
 FoFCou: FMM=F IPFlag=           0 FMFlag=           0 FMFlg1=           0
         NFxFlg=           0 DoJE=F BraDBF=F KetDBF=F FulRan=T
         wScrn=  0.000000 ICntrl=     600 IOpCl=  0 I1Cent=           0 NGrid=           0
         NMat0=    1 NMatS0=    435 NMatT0=    0 NMatD0=    1 NMtDS0=    0 NMtDT0=    0
 Petite list used in FoFCou.

 Cycle   1  Pass 1  IDiag  1:
 E= -38.0524045850947    
 DIIS: error= 2.79D-02 at cycle   1 NSaved=   1.
 NSaved= 1 IEnMin= 1 EnMin= -38.0524045850947     IErMin= 1 ErrMin= 2.79D-02
 ErrMax= 2.79D-02  0.00D+00 EMaxC= 1.00D-01 BMatC= 2.57D-02 BMatP= 2.57D-02
 IDIUse=3 WtCom= 7.21D-01 WtEn= 2.79D-01
 Coeff-Com:  0.100D+01
 Coeff-En:   0.100D+01
 Coeff:      0.100D+01
 Gap=     0.166 Goal=   None    Shift=    0.000
 GapD=    0.166 DampG=1.000 DampE=0.500 DampFc=0.5000 IDamp=-1.
 Damping current iteration by 5.00D-01
 RMSDP=9.92D-03 MaxDP=1.69D-01              OVMax= 1.50D-01

 Cycle   2  Pass 1  IDiag  1:
 E= -38.0730185929057     Delta-E=       -0.020614007811 Rises=F Damp=T
 DIIS: error= 8.62D-03 at cycle   2 NSaved=   2.
 NSaved= 2 IEnMin= 2 EnMin= -38.0730185929057     IErMin= 2 ErrMin= 8.62D-03
 ErrMax= 8.62D-03  0.00D+00 EMaxC= 1.00D-01 BMatC= 2.23D-03 BMatP= 2.57D-02
 IDIUse=3 WtCom= 9.14D-01 WtEn= 8.62D-02
 Coeff-Com: -0.302D+00 0.130D+01
 Coeff-En:   0.000D+00 0.100D+01
 Coeff:     -0.276D+00 0.128D+01
 Gap=     0.176 Goal=   None    Shift=    0.000
 RMSDP=2.58D-03 MaxDP=2.75D-02 DE=-2.06D-02 OVMax= 5.18D-02

 Cycle   3  Pass 1  IDiag  1:
 E= -38.0897249006968     Delta-E=       -0.016706307791 Rises=F Damp=F
 DIIS: error= 9.86D-04 at cycle   3 NSaved=   3.
 NSaved= 3 IEnMin= 3 EnMin= -38.0897249006968     IErMin= 3 ErrMin= 9.86D-04
 ErrMax= 9.86D-04  0.00D+00 EMaxC= 1.00D-01 BMatC= 1.71D-05 BMatP= 2.23D-03
 IDIUse=3 WtCom= 9.90D-01 WtEn= 9.86D-03
 Coeff-Com: -0.800D-02 0.507D-01 0.957D+00
 Coeff-En:   0.000D+00 0.000D+00 0.100D+01
 Coeff:     -0.792D-02 0.502D-01 0.958D+00
 Gap=     0.176 Goal=   None    Shift=    0.000
 RMSDP=1.91D-04 MaxDP=1.59D-03 DE=-1.67D-02 OVMax= 2.84D-03

 Cycle   4  Pass 1  IDiag  1:
 E= -38.0897440160018     Delta-E=       -0.000019115305 Rises=F Damp=F
 DIIS: error= 2.88D-04 at cycle   4 NSaved=   4.
 NSaved= 4 IEnMin= 4 EnMin= -38.0897440160018     IErMin= 4 ErrMin= 2.88D-04
 ErrMax= 2.88D-04  0.00D+00 EMaxC= 1.00D-01 BMatC= 6.99D-07 BMatP= 1.71D-05
 IDIUse=3 WtCom= 9.97D-01 WtEn= 2.88D-03
 Coeff-Com:  0.567D-02-0.152D-01 0.122D+00 0.887D+00
 Coeff-En:   0.000D+00 0.000D+00 0.000D+00 0.100D+01
 Coeff:      0.566D-02-0.152D-01 0.122D+00 0.888D+00
 Gap=     0.176 Goal=   None    Shift=    0.000
 RMSDP=3.47D-05 MaxDP=4.03D-04 DE=-1.91D-05 OVMax= 6.30D-04

 Cycle   5  Pass 1  IDiag  1:
 E= -38.0897448587595     Delta-E=       -0.000000842758 Rises=F Damp=F
 DIIS: error= 1.29D-05 at cycle   5 NSaved=   5.
 NSaved= 5 IEnMin= 5 EnMin= -38.0897448587595     IErMin= 5 ErrMin= 1.29D-05
 ErrMax= 1.29D-05  0.00D+00 EMaxC= 1.00D-01 BMatC= 3.04D-09 BMatP= 6.99D-07
 IDIUse=1 WtCom= 1.00D+00 WtEn= 0.00D+00
 Coeff-Com: -0.305D-03 0.342D-03 0.273D-02 0.332D-01 0.964D+00
 Coeff:     -0.305D-03 0.342D-03 0.273D-02 0.332D-01 0.964D+00
 Gap=     0.176 Goal=   None    Shift=    0.000
 RMSDP=2.82D-06 MaxDP=3.94D-05 DE=-8.43D-07 OVMax= 4.02D-05

 Cycle   6  Pass 1  IDiag  1:
 E= -38.0897448630178     Delta-E=       -0.000000004258 Rises=F Damp=F
 DIIS: error= 4.71D-07 at cycle   6 NSaved=   6.
 NSaved= 6 IEnMin= 6 EnMin= -38.0897448630178     IErMin= 6 ErrMin= 4.71D-07
 ErrMax= 4.71D-07  0.00D+00 EMaxC= 1.00D-01 BMatC= 4.23D-12 BMatP= 3.04D-09
 IDIUse=1 WtCom= 1.00D+00 WtEn= 0.00D+00
 Coeff-Com: -0.122D-05 0.917D-05-0.422D-03-0.467D-02-0.288D-01 0.103D+01
 Coeff:     -0.122D-05 0.917D-05-0.422D-03-0.467D-02-0.288D-01 0.103D+01
 Gap=     0.176 Goal=   None    Shift=    0.000
 RMSDP=1.02D-07 MaxDP=8.68D-07 DE=-4.26D-09 OVMax= 1.33D-06

 Cycle   7  Pass 1  IDiag  1:
 E= -38.0897448630218     Delta-E=       -0.000000000004 Rises=F Damp=F
 DIIS: error= 2.66D-08 at cycle   7 NSaved=   7.
 NSaved= 7 IEnMin= 7 EnMin= -38.0897448630218     IErMin= 7 ErrMin= 2.66D-08
 ErrMax= 2.66D-08  0.00D+00 EMaxC= 1.00D-01 BMatC= 1.02D-14 BMatP= 4.23D-12
 IDIUse=1 WtCom= 1.00D+00 WtEn= 0.00D+00
 Coeff-Com: -0.132D-07 0.983D-06-0.927D-05-0.226D-03-0.956D-03 0.412D-01
 Coeff-Com:  0.960D+00
 Coeff:     -0.132D-07 0.983D-06-0.927D-05-0.226D-03-0.956D-03 0.412D-01
 Coeff:      0.960D+00
 Gap=     0.176 Goal=   None    Shift=    0.000
 RMSDP=4.06D-09 MaxDP=3.57D-08 DE=-4.09D-12 OVMax= 7.31D-08

 SCF Done:  E(RB3LYP) =  -38.0897448630     A.U. after    7 cycles
            NFock=  7  Conv=0.41D-08     -V/T= 2.0035
 KE= 3.795604655509D+01 PE=-9.147981320373D+01 EE= 1.264828478068D+01
 Leave Link  502 at Thu Jan 24 15:29:56 2019, MaxMem=    33554432 cpu:         0.3
 (Enter /apl/tryton/gaussian/09/d01/g09/l801.exe)
 DoSCS=F DFT=T ScalE2(SS,OS)=  1.000000  1.000000
 Range of M.O.s used for correlation:     1    29
 NBasis=    29 NAE=     3 NBE=     3 NFC=     0 NFV=     0
 NROrb=     29 NOA=     3 NOB=     3 NVA=    26 NVB=    26
 Leave Link  801 at Thu Jan 24 15:29:56 2019, MaxMem=    33554432 cpu:         0.0
 (Enter /apl/tryton/gaussian/09/d01/g09/l1101.exe)
 Using compressed storage, NAtomX=     2.
 Will process      3 centers per pass.
 Leave Link 1101 at Thu Jan 24 15:29:56 2019, MaxMem=    33554432 cpu:         0.1
 (Enter /apl/tryton/gaussian/09/d01/g09/l1102.exe)
 Symmetrizing basis deriv contribution to polar:
 IMax=3 JMax=2 DiffMx= 0.00D+00
 Leave Link 1102 at Thu Jan 24 15:29:56 2019, MaxMem=    33554432 cpu:         0.0
 (Enter /apl/tryton/gaussian/09/d01/g09/l1110.exe)
 Forming Gx(P) for the SCF density, NAtomX=     2.
 Integral derivatives from FoFJK, PRISM(SPDF).
 Do as many integral derivatives as possible in FoFJK.
 G2DrvN: MDV=      33554312.
 G2DrvN: will do     3 centers at a time, making    1 passes.
 Calling FoFCou, ICntrl=  3107 FMM=F I1Cent=   0 AccDes= 0.00D+00.
 FoFJK:  IHMeth= 1 ICntrl=    3107 DoSepK=F KAlg= 0 I1Cent=   0 FoldK=F
 IRaf=         0 NMat=   1 IRICut=       1 DoRegI=T DoRafI=F ISym2E= 1.
 FoFCou: FMM=F IPFlag=           0 FMFlag=      100000 FMFlg1=           0
         NFxFlg=           0 DoJE=F BraDBF=F KetDBF=F FulRan=T
         wScrn=  0.000000 ICntrl=    3107 IOpCl=  0 I1Cent=           0 NGrid=           0
         NMat0=    1 NMatS0=      1 NMatT0=    0 NMatD0=    1 NMtDS0=    0 NMtDT0=    0
 Petite list used in FoFCou.
 End of G2Drv F.D. properties file   721 does not exist.
 End of G2Drv F.D. properties file   722 does not exist.
 End of G2Drv F.D. properties file   788 does not exist.
 Leave Link 1110 at Thu Jan 24 15:29:56 2019, MaxMem=    33554432 cpu:         0.3
 (Enter /apl/tryton/gaussian/09/d01/g09/l1002.exe)
 Minotr:  Closed shell wavefunction.
          IDoAtm=11
          Direct CPHF calculation.
          Differentiating once with respect to electric field.
                with respect to dipole field.
          Differentiating once with respect to nuclear coordinates.
          Using symmetry in CPHF.
          Requested convergence is 1.0D-08 RMS, and 1.0D-07 maximum.
          Secondary convergence is 1.0D-12 RMS, and 1.0D-12 maximum.
          NewPWx=T KeepS1=F KeepF1=F KeepIn=T MapXYZ=F SortEE=F KeepMc=T.
          MDV=      33554379 using IRadAn=       2.
 Generate precomputed XC quadrature information.
 Keep R1 ints in memory in symmetry-blocked form, NReq=955892.
 FoFCou: FMM=F IPFlag=           0 FMFlag=           0 FMFlg1=           0
         NFxFlg=           0 DoJE=F BraDBF=F KetDBF=F FulRan=T
         wScrn=  0.000000 ICntrl=     600 IOpCl=  0 I1Cent=           0 NGrid=           0
         NMat0=    1 NMatS0=    435 NMatT0=    0 NMatD0=    1 NMtDS0=    0 NMtDT0=    0
 Petite list used in FoFCou.
          Solving linear equations simultaneously, MaxMat=       0.
          There are     9 degrees of freedom in the 1st order CPHF.  IDoFFX=6 NUNeed=     3.
      6 vectors produced by pass  0 Test12= 8.67D-16 1.11D-08 XBig12= 7.65D+00 2.26D+00.
 AX will form     6 AO Fock derivatives at one time.
      6 vectors produced by pass  1 Test12= 8.67D-16 1.11D-08 XBig12= 2.20D-01 2.82D-01.
      6 vectors produced by pass  2 Test12= 8.67D-16 1.11D-08 XBig12= 8.17D-04 1.09D-02.
      6 vectors produced by pass  3 Test12= 8.67D-16 1.11D-08 XBig12= 5.30D-07 2.93D-04.
      6 vectors produced by pass  4 Test12= 8.67D-16 1.11D-08 XBig12= 6.90D-10 1.23D-05.
      3 vectors produced by pass  5 Test12= 8.67D-16 1.11D-08 XBig12= 7.19D-13 5.73D-07.
      1 vectors produced by pass  6 Test12= 8.67D-16 1.11D-08 XBig12= 8.36D-16 1.49D-08.
 InvSVY:  IOpt=1 It=  1 EMax= 5.55D-16
 Solved reduced A of dimension    34 with     6 vectors.
 FullF1:  Do perturbations    1 to     3.
 Isotropic polarizability for W=    0.000000        7.30 Bohr**3.
 End of Minotr F.D. properties file   721 does not exist.
 End of Minotr F.D. properties file   722 does not exist.
 End of Minotr F.D. properties file   788 does not exist.
 Leave Link 1002 at Thu Jan 24 15:29:57 2019, MaxMem=    33554432 cpu:         0.4
 (Enter /apl/tryton/gaussian/09/d01/g09/l601.exe)
 Copying SCF densities to generalized density rwf, IOpCl= 0 IROHF=0.

 **********************************************************************

            Population analysis using the SCF density.

 **********************************************************************

 Orbital symmetries:
       Occupied  (SG) (SG) (SG)
       Virtual   (PI) (PI) (SG) (SG) (PI) (PI) (SG) (SG) (SG) (PI)
                 (PI) (SG) (SG) (PI) (PI) (DLTA) (DLTA) (SG) (PI)
                 (PI) (SG) (SG) (PI) (PI) (SG) (SG)
 The electronic state is 1-SG.
 Alpha  occ. eigenvalues --  -10.79695  -1.05134  -0.72172
 Alpha virt. eigenvalues --   -0.54542  -0.54542  -0.23166  -0.13607  -0.11431
 Alpha virt. eigenvalues --   -0.11431  -0.09980  -0.04946   0.17390   0.23091
 Alpha virt. eigenvalues --    0.23091   0.25841   0.40605   0.68743   0.68743
 Alpha virt. eigenvalues --    0.89114   0.89114   1.16405   1.43513   1.43513
 Alpha virt. eigenvalues --    1.93945   2.13834   2.22404   2.22404   2.71760
 Alpha virt. eigenvalues --   22.91815
          Condensed to atoms (all electrons):
               1          2
     1  C    4.981978   0.265451
     2  H    0.265451   0.487119
 Mulliken charges:
               1
     1  C    0.752570
     2  H    0.247430
 Sum of Mulliken charges =   1.00000
 Mulliken charges with hydrogens summed into heavy atoms:
               1
     1  C    1.000000
 APT charges:
               1
     1  C    0.687482
     2  H    0.312518
 Sum of APT charges =   1.00000
 APT charges with hydrogens summed into heavy atoms:
               1
     1  C    1.000000
 Electronic spatial extent (au):  <R**2>=             13.1022
 Charge=              1.0000 electrons
 Dipole moment (field-independent basis, Debye):
    X=              0.0000    Y=              0.0000    Z=             -1.4694  Tot=              1.4694
 Quadrupole moment (field-independent basis, Debye-Ang):
   XX=             -3.8982   YY=             -3.8982   ZZ=             -4.4783
   XY=              0.0000   XZ=              0.0000   YZ=              0.0000
 Traceless Quadrupole moment (field-independent basis, Debye-Ang):
   XX=              0.1933   YY=              0.1933   ZZ=             -0.3867
   XY=              0.0000   XZ=              0.0000   YZ=              0.0000
 Octapole moment (field-independent basis, Debye-Ang**2):
  XXX=              0.0000  YYY=              0.0000  ZZZ=             -3.4206  XYY=              0.0000
  XXY=              0.0000  XXZ=             -0.3425  XZZ=              0.0000  YZZ=              0.0000
  YYZ=             -0.3425  XYZ=              0.0000
 Hexadecapole moment (field-independent basis, Debye-Ang**3):
 XXXX=             -2.9597 YYYY=             -2.9597 ZZZZ=             -8.0184 XXXY=              0.0000
 XXXZ=              0.0000 YYYX=              0.0000 YYYZ=              0.0000 ZZZX=              0.0000
 ZZZY=              0.0000 XXYY=             -0.9866 XXZZ=             -2.1426 YYZZ=             -2.1426
 XXYZ=              0.0000 YYXZ=              0.0000 ZZXY=              0.0000
 N-N= 2.785737004941D+00 E-N=-9.147981305372D+01  KE= 3.795604655509D+01
 Symmetry A1   KE= 3.795604655509D+01
 Symmetry A2   KE= 0.000000000000D+00
 Symmetry B1   KE= 0.000000000000D+00
 Symmetry B2   KE= 0.000000000000D+00
  Exact polarizability:   6.620  -0.000   6.620   0.000   0.000   8.647
 Approx polarizability:   9.690  -0.000   9.690  -0.000  -0.000  10.095
 No NMR shielding tensors so no spin-rotation constants.
 Leave Link  601 at Thu Jan 24 15:29:57 2019, MaxMem=    33554432 cpu:         0.1
 (Enter /apl/tryton/gaussian/09/d01/g09/l701.exe)
 Compute integral second derivatives.
 ... and contract with generalized density number  0.
 Leave Link  701 at Thu Jan 24 15:29:57 2019, MaxMem=    33554432 cpu:         0.1
 (Enter /apl/tryton/gaussian/09/d01/g09/l702.exe)
 L702 exits ... SP integral derivatives will be done elsewhere.
 Leave Link  702 at Thu Jan 24 15:29:57 2019, MaxMem=    33554432 cpu:         0.0
 (Enter /apl/tryton/gaussian/09/d01/g09/l703.exe)
 Compute integral second derivatives, UseDBF=F ICtDFT=           0.
 Integral derivatives from FoFJK, PRISM(SPDF).
 Calling FoFJK, ICntrl=    100127 FMM=F ISym2X=1 I1Cent= 0 IOpClX= 0 NMat=1 NMatS=1 NMatT=0.
 FoFJK:  IHMeth= 1 ICntrl=  100127 DoSepK=F KAlg= 0 I1Cent=   0 FoldK=F
 IRaf=         0 NMat=   1 IRICut=       1 DoRegI=T DoRafI=F ISym2E= 1.
 FoFCou: FMM=F IPFlag=           0 FMFlag=      100000 FMFlg1=         800
         NFxFlg=           0 DoJE=F BraDBF=F KetDBF=F FulRan=T
         wScrn=  0.000000 ICntrl=  100127 IOpCl=  0 I1Cent=           0 NGrid=           0
         NMat0=    1 NMatS0=      1 NMatT0=    0 NMatD0=    1 NMtDS0=    0 NMtDT0=    0
 Petite list used in FoFCou.
 Leave Link  703 at Thu Jan 24 15:29:57 2019, MaxMem=    33554432 cpu:         0.5
 (Enter /apl/tryton/gaussian/09/d01/g09/l716.exe)
 Dipole        = 0.00000000D+00 0.00000000D+00-5.78091756D-01
 Polarizability= 6.61956839D+00-2.67017060D-11 6.61956839D+00
                 2.02703882D-10 2.71087695D-10 8.64728662D+00
 Full mass-weighted force constant matrix:
 Low frequencies ---    0.0007    0.0007    0.0014   40.1262   40.1262 2806.9700
 Diagonal vibrational polarizability:
        0.0000000       0.0000000       0.0050603
 Harmonic frequencies (cm**-1), IR intensities (KM/Mole), Raman scattering
 activities (A**4/AMU), depolarization ratios for plane and unpolarized
 incident light, reduced masses (AMU), force constants (mDyne/A),
 and normal coordinates:
                      1
                     SG
 Frequencies --   2806.9700
 Red. masses --      1.0848
 Frc consts  --      5.0360
 IR Inten    --      1.4816
  Atom  AN      X      Y      Z
     1   6     0.00   0.00   0.08
     2   1     0.00   0.00  -1.00

 -------------------
 - Thermochemistry -
 -------------------
 Temperature   298.150 Kelvin.  Pressure   1.00000 Atm.
 Atom     1 has atomic number  6 and mass  12.00000
 Atom     2 has atomic number  1 and mass   1.00783
 Molecular mass:    13.00783 amu.
 Principal axes and moments of inertia in atomic units:
                           1         2         3
     Eigenvalues --     0.00000   4.31304   4.31304
           X            0.00000  -0.00000   1.00000
           Y            0.00000   1.00000   0.00000
           Z            1.00000   0.00000   0.00000
 This molecule is a prolate symmetric top.
 Rotational symmetry number  1.
 Rotational temperature (Kelvin)     20.08183
 Rotational constant (GHZ):         418.437845
 Zero-point vibrational energy      16789.4 (Joules/Mol)
                                    4.01276 (Kcal/Mol)
 Vibrational temperatures:   4038.60
          (Kelvin)
 
 Zero-point correction=                           0.006395 (Hartree/Particle)
 Thermal correction to Energy=                    0.008755
 Thermal correction to Enthalpy=                  0.009699
 Thermal correction to Gibbs Free Energy=        -0.009775
 Sum of electronic and zero-point Energies=            -38.083350
 Sum of electronic and thermal Energies=               -38.080990
 Sum of electronic and thermal Enthalpies=             -38.080045
 Sum of electronic and thermal Free Energies=          -38.099520
 
                     E (Thermal)             CV                S
                      KCal/Mol        Cal/Mol-Kelvin    Cal/Mol-Kelvin
 Total                    5.494              4.968             40.987
 Electronic               0.000              0.000              0.000
 Translational            0.889              2.981             33.638
 Rotational               0.592              1.987              7.348
 Vibrational              4.013              0.000              0.000
                       Q            Log10(Q)             Ln(Q)
 Total Bot       0.313344D+05          4.496021         10.352470
 Total V=0       0.273775D+08          7.437394         17.125234
 Vib (Bot)       0.114453D-02         -2.941373         -6.772762
 Vib (V=0)       0.100000D+01          0.000001          0.000001
 Electronic      0.100000D+01          0.000000          0.000000
 Translational   0.184401D+07          6.265762         14.427451
 Rotational      0.148468D+02          1.171632          2.697782
 ***** Axes restored to original set *****
 -------------------------------------------------------------------
 Center     Atomic                   Forces (Hartrees/Bohr)
 Number     Number              X              Y              Z
 -------------------------------------------------------------------
      1        6           0.000142078   -0.000000000   -0.000000000
      2        1          -0.000142078   -0.000000000   -0.000000000
 -------------------------------------------------------------------
 Cartesian Forces:  Max     0.000142078 RMS     0.000082028
 Z-matrix is all fixed cartesians, so copy forces.
 Force constants in Cartesian coordinates: 
                1             2             3             4             5 
      1  0.277223D+00
      2  0.000000D+00  0.566512D-04
      3  0.000000D+00  0.000000D+00  0.566512D-04
      4 -0.277223D+00  0.000000D+00  0.000000D+00  0.277223D+00
      5  0.000000D+00 -0.566512D-04  0.000000D+00  0.000000D+00  0.566512D-04
      6  0.000000D+00  0.000000D+00 -0.566512D-04  0.000000D+00  0.000000D+00
                6 
      6  0.566512D-04
 Leave Link  716 at Thu Jan 24 15:29:57 2019, MaxMem=    33554432 cpu:         0.0
 (Enter /apl/tryton/gaussian/09/d01/g09/l103.exe)

 GradGradGradGradGradGradGradGradGradGradGradGradGradGradGradGradGradGrad
 Berny optimization.
 Search for a local minimum.
 Step number   1 out of a maximum of    2
 All quantities printed in internal units (Hartrees-Bohrs-Radians)
 Second derivative matrix not updated -- analytic derivatives used.
 The second derivative matrix:
                          X1        Y1        Z1        X2        Y2
           X1           0.27722
           Y1          -0.00000   0.00006
           Z1          -0.00000   0.00000   0.00006
           X2          -0.27722   0.00000   0.00000   0.27722
           Y2           0.00000  -0.00006  -0.00000  -0.00000   0.00006
           Z2           0.00000  -0.00000  -0.00006  -0.00000   0.00000
                          Z2
           Z2           0.00006
 ITU=  0
     Eigenvalues ---    0.47124
 Angle between quadratic step and forces=  22.79 degrees.
 ClnCor:  largest displacement from symmetrization is 0.00D+00 for atom     0.
 Linear search not attempted -- first point.
 ClnCor:  largest displacement from symmetrization is 0.00D+00 for atom     0.
 TrRot=  0.000108  0.000000  0.000000  0.000000  0.000000  0.000000
 Variable       Old X    -DE/DX   Delta X   Delta X   Delta X     New X
                                 (Linear)    (Quad)   (Total)
    X1        1.39105   0.00014   0.00000   0.00015   0.00026   1.39131
    Y1        0.00000  -0.00000   0.00000   0.00000   0.00000   0.00000
    Z1        0.00000  -0.00000   0.00000   0.00000   0.00000   0.00000
    X2        3.54488  -0.00014   0.00000  -0.00036  -0.00026   3.54462
    Y2        0.00000  -0.00000   0.00000   0.00000   0.00000   0.00000
    Z2        0.00000  -0.00000   0.00000   0.00000   0.00000   0.00000
         Item               Value     Threshold  Converged?
 Maximum Force            0.000142     0.000450     YES
 RMS     Force            0.000082     0.000300     YES
 Maximum Displacement     0.000256     0.001800     YES
 RMS     Displacement     0.000148     0.001200     YES
 Predicted change in Energy=-3.640759D-08
 Optimization completed.
    -- Stationary point found.
 GradGradGradGradGradGradGradGradGradGradGradGradGradGradGradGradGradGrad

 Leave Link  103 at Thu Jan 24 15:29:58 2019, MaxMem=    33554432 cpu:         0.0
 (Enter /apl/tryton/gaussian/09/d01/g09/l9999.exe)
 1\1\ CITASK-GV1910\Freq\RB3LYP\6-311++G(d,p)\C1H1(1+)\EERD\24-Jan-2019
 \0\\#p b3lyp/6-311++g(d,p) freq\\min\\1,1\C,0.736113,0.,0.\H,1.87587,0
 .,0.\\Version=ES64L-G09RevD.01\State=1-SG\HF=-38.0897449\RMSD=4.055e-0
 9\RMSF=8.203e-05\ZeroPoint=0.0063947\Thermal=0.0087552\Dipole=0.578091
 8,0.,0.\DipoleDeriv=0.8849323,0.,0.,0.,0.5887572,0.,0.,0.,0.5887572,0.
 1150677,0.,0.,0.,0.4112428,0.,0.,0.,0.4112428\Polar=8.6472866,0.,6.619
 5684,0.,0.,6.6195684\PG=C*V [C*(H1C1)]\NImag=0\\0.27722263,0.,0.000056
 65,0.,0.,0.00005665,-0.27722263,0.,0.,0.27722263,0.,-0.00005665,0.,0.,
 0.00005665,0.,0.,-0.00005665,0.,0.,0.00005665\\-0.00014208,0.,0.,0.000
 14208,0.,0.\\\@


 MODELS ARE TO BE USED, NOT BELIEVED.

    -- PARAPHRASED BY H. THIEL IN "PRINCIPLES OF ECONOMETRICS"
 Job cpu time:       0 days  0 hours  0 minutes  2.7 seconds.
 File lengths (MBytes):  RWF=      5 Int=      0 D2E=      0 Chk=      1 Scr=      1
 Normal termination of Gaussian 09 at Thu Jan 24 15:29:58 2019.
