 Entering Gaussian System, Link 0=g09
 Initial command:
 /apl/tryton/gaussian/09/d01/g09/l1.exe "/users/work/eerd/M3C-outputs/ionized/2/Gau-8717.inp" -scrdir="/users/work/eerd/M3C-outputs/ionized/2/"
 Entering Link 1 = /apl/tryton/gaussian/09/d01/g09/l1.exe PID=      8718.
  
 Copyright (c) 1988,1990,1992,1993,1995,1998,2003,2009,2013,
            Gaussian, Inc.  All Rights Reserved.
  
 This is part of the Gaussian(R) 09 program.  It is based on
 the Gaussian(R) 03 system (copyright 2003, Gaussian, Inc.),
 the Gaussian(R) 98 system (copyright 1998, Gaussian, Inc.),
 the Gaussian(R) 94 system (copyright 1995, Gaussian, Inc.),
 the Gaussian 92(TM) system (copyright 1992, Gaussian, Inc.),
 the Gaussian 90(TM) system (copyright 1990, Gaussian, Inc.),
 the Gaussian 88(TM) system (copyright 1988, Gaussian, Inc.),
 the Gaussian 86(TM) system (copyright 1986, Carnegie Mellon
 University), and the Gaussian 82(TM) system (copyright 1983,
 Carnegie Mellon University). Gaussian is a federally registered
 trademark of Gaussian, Inc.
  
 This software contains proprietary and confidential information,
 including trade secrets, belonging to Gaussian, Inc.
  
 This software is provided under written license and may be
 used, copied, transmitted, or stored only in accord with that
 written license.
  
 The following legend is applicable only to US Government
 contracts under FAR:
  
                    RESTRICTED RIGHTS LEGEND
  
 Use, reproduction and disclosure by the US Government is
 subject to restrictions as set forth in subparagraphs (a)
 and (c) of the Commercial Computer Software - Restricted
 Rights clause in FAR 52.227-19.
  
 Gaussian, Inc.
 340 Quinnipiac St., Bldg. 40, Wallingford CT 06492
  
  
 ---------------------------------------------------------------
 Warning -- This program may not be used in any manner that
 competes with the business of Gaussian, Inc. or will provide
 assistance to any competitor of Gaussian, Inc.  The licensee
 of this program is prohibited from giving any competitor of
 Gaussian, Inc. access to this program.  By using this program,
 the user acknowledges that Gaussian, Inc. is engaged in the
 business of creating and licensing software in the field of
 computational chemistry and represents and warrants to the
 licensee that it is not a competitor of Gaussian, Inc. and that
 it will not use this program in any manner prohibited above.
 ---------------------------------------------------------------
  

 Cite this work as:
 Gaussian 09, Revision D.01,
 M. J. Frisch, G. W. Trucks, H. B. Schlegel, G. E. Scuseria, 
 M. A. Robb, J. R. Cheeseman, G. Scalmani, V. Barone, B. Mennucci, 
 G. A. Petersson, H. Nakatsuji, M. Caricato, X. Li, H. P. Hratchian, 
 A. F. Izmaylov, J. Bloino, G. Zheng, J. L. Sonnenberg, M. Hada, 
 M. Ehara, K. Toyota, R. Fukuda, J. Hasegawa, M. Ishida, T. Nakajima, 
 Y. Honda, O. Kitao, H. Nakai, T. Vreven, J. A. Montgomery, Jr., 
 J. E. Peralta, F. Ogliaro, M. Bearpark, J. J. Heyd, E. Brothers, 
 K. N. Kudin, V. N. Staroverov, T. Keith, R. Kobayashi, J. Normand, 
 K. Raghavachari, A. Rendell, J. C. Burant, S. S. Iyengar, J. Tomasi, 
 M. Cossi, N. Rega, J. M. Millam, M. Klene, J. E. Knox, J. B. Cross, 
 V. Bakken, C. Adamo, J. Jaramillo, R. Gomperts, R. E. Stratmann, 
 O. Yazyev, A. J. Austin, R. Cammi, C. Pomelli, J. W. Ochterski, 
 R. L. Martin, K. Morokuma, V. G. Zakrzewski, G. A. Voth, 
 P. Salvador, J. J. Dannenberg, S. Dapprich, A. D. Daniels, 
 O. Farkas, J. B. Foresman, J. V. Ortiz, J. Cioslowski, 
 and D. J. Fox, Gaussian, Inc., Wallingford CT, 2013.
 
 ******************************************
 Gaussian 09:  ES64L-G09RevD.01 24-Apr-2013
                24-Jan-2019 
 ******************************************
 ---------------------------
 #p b3lyp/6-311++g(d,p) freq
 ---------------------------
 1/10=4,30=1,38=1/1,3;
 2/12=2,17=6,18=5,40=1/2;
 3/5=4,6=6,7=1111,11=2,16=1,25=1,30=1,71=2,74=-5,140=1/1,2,3;
 4//1;
 5/5=2,38=5,98=1/2;
 8/6=4,10=90,11=11/1;
 11/6=1,8=1,9=11,15=111,16=1/1,2,10;
 10/6=1/2;
 6/7=2,8=2,9=2,10=2,18=1,28=1/1;
 7/8=1,10=1,25=1/1,2,3,16;
 1/10=4,30=1/3;
 99//99;
 Leave Link    1 at Thu Jan 24 15:29:55 2019, MaxMem=           0 cpu:         0.0
 (Enter /apl/tryton/gaussian/09/d01/g09/l101.exe)
 ---
 min
 ---
 Symbolic Z-matrix:
 Charge =  1 Multiplicity = 3
 C                     1.0198    0.        0. 
 H                     2.16401   0.        0. 
 
 NAtoms=      2 NQM=        2 NQMF=       0 NMMI=      0 NMMIF=      0
                NMic=       0 NMicF=      0.
                    Isotopes and Nuclear Properties:
 (Nuclear quadrupole moments (NQMom) in fm**2, nuclear magnetic moments (NMagM)
  in nuclear magnetons)

  Atom         1           2
 IAtWgt=          12           1
 AtmWgt=  12.0000000   1.0078250
 NucSpn=           0           1
 AtZEff=   0.0000000   0.0000000
 NQMom=    0.0000000   0.0000000
 NMagM=    0.0000000   2.7928460
 AtZNuc=   6.0000000   1.0000000
 Leave Link  101 at Thu Jan 24 15:29:55 2019, MaxMem=    33554432 cpu:         0.1
 (Enter /apl/tryton/gaussian/09/d01/g09/l103.exe)

 GradGradGradGradGradGradGradGradGradGradGradGradGradGradGradGradGradGrad
 Berny optimization.
 Initialization pass.
 Trust Radius=3.00D-01 FncErr=1.00D-07 GrdErr=1.00D-07
 Number of steps in this run=      2 maximum allowed number of steps=      2.
 GradGradGradGradGradGradGradGradGradGradGradGradGradGradGradGradGradGrad

 Leave Link  103 at Thu Jan 24 15:29:55 2019, MaxMem=    33554432 cpu:         0.0
 (Enter /apl/tryton/gaussian/09/d01/g09/l202.exe)
                          Input orientation:                          
 ---------------------------------------------------------------------
 Center     Atomic      Atomic             Coordinates (Angstroms)
 Number     Number       Type             X           Y           Z
 ---------------------------------------------------------------------
      1          6           0        1.019803    0.000000    0.000000
      2          1           0        2.164006    0.000000    0.000000
 ---------------------------------------------------------------------
 Stoichiometry    CH(1+,3)
 Framework group  C*V[C*(HC)]
 Deg. of freedom     1
 Full point group                 C*V     NOp   4
 Largest Abelian subgroup         C2V     NOp   4
 Largest concise Abelian subgroup C1      NOp   1
                         Standard orientation:                         
 ---------------------------------------------------------------------
 Center     Atomic      Atomic             Coordinates (Angstroms)
 Number     Number       Type             X           Y           Z
 ---------------------------------------------------------------------
      1          6           0        0.000000    0.000000    0.163458
      2          1           0        0.000000    0.000000   -0.980745
 ---------------------------------------------------------------------
 Rotational constants (GHZ):      0.0000000    415.1923370    415.1923370
 Leave Link  202 at Thu Jan 24 15:29:55 2019, MaxMem=    33554432 cpu:         0.0
 (Enter /apl/tryton/gaussian/09/d01/g09/l301.exe)
 Standard basis: 6-311++G(d,p) (5D, 7F)
 Ernie: Thresh=  0.10000D-02 Tol=  0.10000D-05 Strict=F.
 There are    17 symmetry adapted cartesian basis functions of A1  symmetry.
 There are     1 symmetry adapted cartesian basis functions of A2  symmetry.
 There are     6 symmetry adapted cartesian basis functions of B1  symmetry.
 There are     6 symmetry adapted cartesian basis functions of B2  symmetry.
 There are    16 symmetry adapted basis functions of A1  symmetry.
 There are     1 symmetry adapted basis functions of A2  symmetry.
 There are     6 symmetry adapted basis functions of B1  symmetry.
 There are     6 symmetry adapted basis functions of B2  symmetry.
    29 basis functions,    45 primitive gaussians,    30 cartesian basis functions
     4 alpha electrons        2 beta electrons
       nuclear repulsion energy         2.7749125387 Hartrees.
 IExCor=  402 DFT=T Ex+Corr=B3LYP ExCW=0 ScaHFX=  0.200000
 ScaDFX=  0.800000  0.720000  1.000000  0.810000 ScalE2=  1.000000  1.000000
 IRadAn=      0 IRanWt=     -1 IRanGd=            0 ICorTp=0 IEmpDi=  4
 NAtoms=    2 NActive=    2 NUniq=    2 SFac= 1.00D+00 NAtFMM=   60 NAOKFM=F Big=F
 Integral buffers will be    131072 words long.
 Raffenetti 2 integral format.
 Two-electron integral symmetry is turned on.
 Leave Link  301 at Thu Jan 24 15:29:55 2019, MaxMem=    33554432 cpu:         0.0
 (Enter /apl/tryton/gaussian/09/d01/g09/l302.exe)
 NPDir=0 NMtPBC=     1 NCelOv=     1 NCel=       1 NClECP=     1 NCelD=      1
         NCelK=      1 NCelE2=     1 NClLst=     1 CellRange=     0.0.
 One-electron integrals computed using PRISM.
 NBasis=    29 RedAO= T EigKep=  1.48D-02  NBF=    16     1     6     6
 NBsUse=    29 1.00D-06 EigRej= -1.00D+00 NBFU=    16     1     6     6
 Precomputing XC quadrature grid using
 IXCGrd= 4 IRadAn=           0 IRanWt=          -1 IRanGd=           0 AccXCQ= 0.00D+00.
 Generated NRdTot=       0 NPtTot=           0 NUsed=           0 NTot=          32
 NSgBfM=    30    30    30    30    30 MxSgAt=     2 MxSgA2=     2.
 Leave Link  302 at Thu Jan 24 15:29:55 2019, MaxMem=    33554432 cpu:         0.1
 (Enter /apl/tryton/gaussian/09/d01/g09/l303.exe)
 DipDrv:  MaxL=1.
 Leave Link  303 at Thu Jan 24 15:29:55 2019, MaxMem=    33554432 cpu:         0.0
 (Enter /apl/tryton/gaussian/09/d01/g09/l401.exe)
 ExpMin= 3.60D-02 ExpMax= 4.56D+03 ExpMxC= 6.82D+02 IAcc=3 IRadAn=         5 AccDes= 0.00D+00
 Harris functional with IExCor=  402 and IRadAn=       5 diagonalized for initial guess.
 HarFok:  IExCor=  402 AccDes= 0.00D+00 IRadAn=         5 IDoV= 1 UseB2=F ITyADJ=14
 ICtDFT=  3500011 ScaDFX=  1.000000  1.000000  1.000000  1.000000
 FoFCou: FMM=F IPFlag=           0 FMFlag=      100000 FMFlg1=           0
         NFxFlg=           0 DoJE=T BraDBF=F KetDBF=T FulRan=T
         wScrn=  0.000000 ICntrl=     500 IOpCl=  0 I1Cent=   200000004 NGrid=           0
         NMat0=    1 NMatS0=      1 NMatT0=    0 NMatD0=    1 NMtDS0=    0 NMtDT0=    0
 Petite list used in FoFCou.
 Harris En= -38.1504374126689    
 JPrj=0 DoOrth=F DoCkMO=F.
 Initial guess orbital symmetries:
 Alpha Orbitals:
       Occupied  (SG) (SG) (SG) (PI)
       Virtual   (PI) (SG) (SG) (PI) (PI) (SG) (SG) (SG) (PI) (PI)
                 (SG) (SG) (PI) (PI) (DLTA) (DLTA) (SG) (PI) (PI)
                 (SG) (SG) (PI) (PI) (SG) (SG)
 Beta  Orbitals:
       Occupied  (SG) (SG)
       Virtual   (SG) (PI) (PI) (SG) (SG) (PI) (PI) (SG) (SG) (SG)
                 (PI) (PI) (SG) (SG) (PI) (PI) (DLTA) (DLTA) (SG)
                 (PI) (PI) (SG) (SG) (PI) (PI) (SG) (SG)
 Initial guess <Sx>= 0.0000 <Sy>= 0.0000 <Sz>= 1.0000 <S**2>= 2.0000 S= 1.0000
 Leave Link  401 at Thu Jan 24 15:29:55 2019, MaxMem=    33554432 cpu:         0.1
 (Enter /apl/tryton/gaussian/09/d01/g09/l502.exe)
 UHF open shell SCF:
 Using DIIS extrapolation, IDIIS=  1040.
 Integral symmetry usage will be decided dynamically.
 Keep R1 and R2 ints in memory in symmetry-blocked form, NReq=978294.
 IVT=       21699 IEndB=       21699 NGot=    33554432 MDV=    33474861
 LenX=    33474861 LenY=    33473520
 Requested convergence on RMS density matrix=1.00D-08 within 128 cycles.
 Requested convergence on MAX density matrix=1.00D-06.
 Requested convergence on             energy=1.00D-06.
 No special actions if energy rises.
 FoFCou: FMM=F IPFlag=           0 FMFlag=           0 FMFlg1=           0
         NFxFlg=           0 DoJE=F BraDBF=F KetDBF=F FulRan=T
         wScrn=  0.000000 ICntrl=     600 IOpCl=  0 I1Cent=           0 NGrid=           0
         NMat0=    1 NMatS0=    435 NMatT0=    0 NMatD0=    1 NMtDS0=    0 NMtDT0=    0
 Petite list used in FoFCou.

 Cycle   1  Pass 1  IDiag  1:
 E= -38.0075481697829    
 DIIS: error= 6.22D-02 at cycle   1 NSaved=   1.
 NSaved= 1 IEnMin= 1 EnMin= -38.0075481697829     IErMin= 1 ErrMin= 6.22D-02
 ErrMax= 6.22D-02  0.00D+00 EMaxC= 1.00D-01 BMatC= 1.08D-01 BMatP= 1.08D-01
 IDIUse=3 WtCom= 3.78D-01 WtEn= 6.22D-01
 Coeff-Com:  0.100D+01
 Coeff-En:   0.100D+01
 Coeff:      0.100D+01
 Gap=     0.110 Goal=   None    Shift=    0.000
 Gap=     0.394 Goal=   None    Shift=    0.000
 GapD=    0.110 DampG=1.000 DampE=0.500 DampFc=0.5000 IDamp=-1.
 Damping current iteration by 5.00D-01
 RMSDP=1.00D-02 MaxDP=1.76D-01              OVMax= 1.98D-01

 Cycle   2  Pass 1  IDiag  1:
 E= -38.0335839673419     Delta-E=       -0.026035797559 Rises=F Damp=T
 DIIS: error= 2.14D-02 at cycle   2 NSaved=   2.
 NSaved= 2 IEnMin= 2 EnMin= -38.0335839673419     IErMin= 2 ErrMin= 2.14D-02
 ErrMax= 2.14D-02  0.00D+00 EMaxC= 1.00D-01 BMatC= 1.29D-02 BMatP= 1.08D-01
 IDIUse=3 WtCom= 7.86D-01 WtEn= 2.14D-01
 Coeff-Com: -0.345D+00 0.134D+01
 Coeff-En:   0.000D+00 0.100D+01
 Coeff:     -0.271D+00 0.127D+01
 Gap=     0.126 Goal=   None    Shift=    0.000
 Gap=     0.408 Goal=   None    Shift=    0.000
 RMSDP=3.47D-03 MaxDP=4.18D-02 DE=-2.60D-02 OVMax= 5.59D-02

 Cycle   3  Pass 1  IDiag  1:
 E= -38.0562522293117     Delta-E=       -0.022668261970 Rises=F Damp=F
 DIIS: error= 1.68D-03 at cycle   3 NSaved=   3.
 NSaved= 3 IEnMin= 3 EnMin= -38.0562522293117     IErMin= 3 ErrMin= 1.68D-03
 ErrMax= 1.68D-03  0.00D+00 EMaxC= 1.00D-01 BMatC= 2.66D-04 BMatP= 1.29D-02
 IDIUse=3 WtCom= 9.83D-01 WtEn= 1.68D-02
 Coeff-Com:  0.422D-01-0.110D+00 0.107D+01
 Coeff-En:   0.000D+00 0.000D+00 0.100D+01
 Coeff:      0.414D-01-0.109D+00 0.107D+01
 Gap=     0.128 Goal=   None    Shift=    0.000
 Gap=     0.406 Goal=   None    Shift=    0.000
 RMSDP=4.21D-04 MaxDP=9.97D-03 DE=-2.27D-02 OVMax= 7.84D-03

 Cycle   4  Pass 1  IDiag  1:
 E= -38.0563660964925     Delta-E=       -0.000113867181 Rises=F Damp=F
 DIIS: error= 6.00D-04 at cycle   4 NSaved=   4.
 NSaved= 4 IEnMin= 4 EnMin= -38.0563660964925     IErMin= 4 ErrMin= 6.00D-04
 ErrMax= 6.00D-04  0.00D+00 EMaxC= 1.00D-01 BMatC= 9.23D-06 BMatP= 2.66D-04
 IDIUse=3 WtCom= 9.94D-01 WtEn= 6.00D-03
 Coeff-Com:  0.229D-02-0.144D-01 0.484D-01 0.964D+00
 Coeff-En:   0.000D+00 0.000D+00 0.000D+00 0.100D+01
 Coeff:      0.228D-02-0.143D-01 0.481D-01 0.964D+00
 Gap=     0.128 Goal=   None    Shift=    0.000
 Gap=     0.408 Goal=   None    Shift=    0.000
 RMSDP=8.60D-05 MaxDP=1.65D-03 DE=-1.14D-04 OVMax= 3.95D-03

 Cycle   5  Pass 1  IDiag  1:
 E= -38.0563742444446     Delta-E=       -0.000008147952 Rises=F Damp=F
 DIIS: error= 2.65D-04 at cycle   5 NSaved=   5.
 NSaved= 5 IEnMin= 5 EnMin= -38.0563742444446     IErMin= 5 ErrMin= 2.65D-04
 ErrMax= 2.65D-04  0.00D+00 EMaxC= 1.00D-01 BMatC= 1.94D-06 BMatP= 9.23D-06
 IDIUse=3 WtCom= 9.97D-01 WtEn= 2.65D-03
 Coeff-Com: -0.555D-02 0.121D-01-0.691D-01 0.834D-01 0.979D+00
 Coeff-En:   0.000D+00 0.000D+00 0.000D+00 0.000D+00 0.100D+01
 Coeff:     -0.553D-02 0.120D-01-0.689D-01 0.832D-01 0.979D+00
 Gap=     0.128 Goal=   None    Shift=    0.000
 Gap=     0.408 Goal=   None    Shift=    0.000
 RMSDP=3.19D-05 MaxDP=4.35D-04 DE=-8.15D-06 OVMax= 7.35D-04

 Cycle   6  Pass 1  IDiag  1:
 E= -38.0563752301445     Delta-E=       -0.000000985700 Rises=F Damp=F
 DIIS: error= 4.35D-05 at cycle   6 NSaved=   6.
 NSaved= 6 IEnMin= 6 EnMin= -38.0563752301445     IErMin= 6 ErrMin= 4.35D-05
 ErrMax= 4.35D-05  0.00D+00 EMaxC= 1.00D-01 BMatC= 7.13D-08 BMatP= 1.94D-06
 IDIUse=1 WtCom= 1.00D+00 WtEn= 0.00D+00
 Coeff-Com:  0.687D-03-0.880D-03 0.351D-02-0.368D-01-0.248D+00 0.128D+01
 Coeff:      0.687D-03-0.880D-03 0.351D-02-0.368D-01-0.248D+00 0.128D+01
 Gap=     0.128 Goal=   None    Shift=    0.000
 Gap=     0.408 Goal=   None    Shift=    0.000
 RMSDP=1.04D-05 MaxDP=1.87D-04 DE=-9.86D-07 OVMax= 3.24D-04

 Cycle   7  Pass 1  IDiag  1:
 E= -38.0563752946204     Delta-E=       -0.000000064476 Rises=F Damp=F
 DIIS: error= 5.13D-06 at cycle   7 NSaved=   7.
 NSaved= 7 IEnMin= 7 EnMin= -38.0563752946204     IErMin= 7 ErrMin= 5.13D-06
 ErrMax= 5.13D-06  0.00D+00 EMaxC= 1.00D-01 BMatC= 1.04D-09 BMatP= 7.13D-08
 IDIUse=1 WtCom= 1.00D+00 WtEn= 0.00D+00
 Coeff-Com: -0.458D-04 0.922D-05 0.480D-03 0.600D-02 0.463D-01-0.310D+00
 Coeff-Com:  0.126D+01
 Coeff:     -0.458D-04 0.922D-05 0.480D-03 0.600D-02 0.463D-01-0.310D+00
 Coeff:      0.126D+01
 Gap=     0.128 Goal=   None    Shift=    0.000
 Gap=     0.408 Goal=   None    Shift=    0.000
 RMSDP=1.03D-06 MaxDP=1.36D-05 DE=-6.45D-08 OVMax= 2.45D-05

 Cycle   8  Pass 1  IDiag  1:
 E= -38.0563752953157     Delta-E=       -0.000000000695 Rises=F Damp=F
 DIIS: error= 5.09D-07 at cycle   8 NSaved=   8.
 NSaved= 8 IEnMin= 8 EnMin= -38.0563752953157     IErMin= 8 ErrMin= 5.09D-07
 ErrMax= 5.09D-07  0.00D+00 EMaxC= 1.00D-01 BMatC= 1.65D-11 BMatP= 1.04D-09
 IDIUse=1 WtCom= 1.00D+00 WtEn= 0.00D+00
 Coeff-Com:  0.140D-05 0.500D-05-0.118D-03-0.103D-02-0.484D-02 0.450D-01
 Coeff-Com: -0.276D+00 0.124D+01
 Coeff:      0.140D-05 0.500D-05-0.118D-03-0.103D-02-0.484D-02 0.450D-01
 Coeff:     -0.276D+00 0.124D+01
 Gap=     0.128 Goal=   None    Shift=    0.000
 Gap=     0.408 Goal=   None    Shift=    0.000
 RMSDP=1.10D-07 MaxDP=1.83D-06 DE=-6.95D-10 OVMax= 2.81D-06

 Cycle   9  Pass 1  IDiag  1:
 E= -38.0563752953253     Delta-E=       -0.000000000010 Rises=F Damp=F
 DIIS: error= 1.50D-08 at cycle   9 NSaved=   9.
 NSaved= 9 IEnMin= 9 EnMin= -38.0563752953253     IErMin= 9 ErrMin= 1.50D-08
 ErrMax= 1.50D-08  0.00D+00 EMaxC= 1.00D-01 BMatC= 2.58D-14 BMatP= 1.65D-11
 IDIUse=1 WtCom= 1.00D+00 WtEn= 0.00D+00
 Coeff-Com:  0.375D-06-0.702D-06 0.588D-05 0.384D-04 0.594D-04-0.126D-02
 Coeff-Com:  0.116D-01-0.888D-01 0.108D+01
 Coeff:      0.375D-06-0.702D-06 0.588D-05 0.384D-04 0.594D-04-0.126D-02
 Coeff:      0.116D-01-0.888D-01 0.108D+01
 Gap=     0.128 Goal=   None    Shift=    0.000
 Gap=     0.408 Goal=   None    Shift=    0.000
 RMSDP=5.01D-09 MaxDP=7.62D-08 DE=-9.56D-12 OVMax= 1.01D-07

 SCF Done:  E(UB3LYP) =  -38.0563752953     A.U. after    9 cycles
            NFock=  9  Conv=0.50D-08     -V/T= 2.0029
 <Sx>= 0.0000 <Sy>= 0.0000 <Sz>= 1.0000 <S**2>= 2.0016 S= 1.0005
 <L.S>= 0.000000000000E+00
 KE= 3.794713119808D+01 PE=-9.151176623912D+01 EE= 1.273334720699D+01
 Annihilation of the first spin contaminant:
 S**2 before annihilation     2.0016,   after     2.0000
 Leave Link  502 at Thu Jan 24 15:29:56 2019, MaxMem=    33554432 cpu:         0.4
 (Enter /apl/tryton/gaussian/09/d01/g09/l801.exe)
 DoSCS=F DFT=T ScalE2(SS,OS)=  1.000000  1.000000
 Range of M.O.s used for correlation:     1    29
 NBasis=    29 NAE=     4 NBE=     2 NFC=     0 NFV=     0
 NROrb=     29 NOA=     4 NOB=     2 NVA=    25 NVB=    27
 Leave Link  801 at Thu Jan 24 15:29:56 2019, MaxMem=    33554432 cpu:         0.0
 (Enter /apl/tryton/gaussian/09/d01/g09/l1101.exe)
 Using compressed storage, NAtomX=     2.
 Will process      3 centers per pass.
 Leave Link 1101 at Thu Jan 24 15:29:56 2019, MaxMem=    33554432 cpu:         0.1
 (Enter /apl/tryton/gaussian/09/d01/g09/l1102.exe)
 Symmetrizing basis deriv contribution to polar:
 IMax=3 JMax=2 DiffMx= 0.00D+00
 Leave Link 1102 at Thu Jan 24 15:29:56 2019, MaxMem=    33554432 cpu:         0.0
 (Enter /apl/tryton/gaussian/09/d01/g09/l1110.exe)
 Forming Gx(P) for the SCF density, NAtomX=     2.
 Integral derivatives from FoFJK, PRISM(SPDF).
 Do as many integral derivatives as possible in FoFJK.
 G2DrvN: MDV=      33554312.
 G2DrvN: will do     3 centers at a time, making    1 passes.
 Calling FoFCou, ICntrl=  3107 FMM=F I1Cent=   0 AccDes= 0.00D+00.
 FoFJK:  IHMeth= 1 ICntrl=    3107 DoSepK=F KAlg= 0 I1Cent=   0 FoldK=F
 IRaf=         0 NMat=   1 IRICut=       1 DoRegI=T DoRafI=F ISym2E= 1.
 FoFCou: FMM=F IPFlag=           0 FMFlag=      100000 FMFlg1=           0
         NFxFlg=           0 DoJE=F BraDBF=F KetDBF=F FulRan=T
         wScrn=  0.000000 ICntrl=    3107 IOpCl=  1 I1Cent=           0 NGrid=           0
         NMat0=    1 NMatS0=      1 NMatT0=    0 NMatD0=    1 NMtDS0=    0 NMtDT0=    0
 Petite list used in FoFCou.
 End of G2Drv F.D. properties file   721 does not exist.
 End of G2Drv F.D. properties file   722 does not exist.
 End of G2Drv F.D. properties file   788 does not exist.
 Leave Link 1110 at Thu Jan 24 15:29:56 2019, MaxMem=    33554432 cpu:         0.3
 (Enter /apl/tryton/gaussian/09/d01/g09/l1002.exe)
 Minotr:  UHF open shell wavefunction.
          IDoAtm=11
          Direct CPHF calculation.
          Differentiating once with respect to electric field.
                with respect to dipole field.
          Differentiating once with respect to nuclear coordinates.
          Using symmetry in CPHF.
          Requested convergence is 1.0D-08 RMS, and 1.0D-07 maximum.
          Secondary convergence is 1.0D-12 RMS, and 1.0D-12 maximum.
          NewPWx=T KeepS1=F KeepF1=F KeepIn=T MapXYZ=F SortEE=F KeepMc=T.
          MDV=      33554350 using IRadAn=       2.
 Generate precomputed XC quadrature information.
 Keep R1 and R2 ints in memory in symmetry-blocked form, NReq=955950.
 FoFCou: FMM=F IPFlag=           0 FMFlag=           0 FMFlg1=           0
         NFxFlg=           0 DoJE=F BraDBF=F KetDBF=F FulRan=T
         wScrn=  0.000000 ICntrl=     600 IOpCl=  0 I1Cent=           0 NGrid=           0
         NMat0=    1 NMatS0=    435 NMatT0=    0 NMatD0=    1 NMtDS0=    0 NMtDT0=    0
 Petite list used in FoFCou.
          Solving linear equations simultaneously, MaxMat=       0.
          There are     9 degrees of freedom in the 1st order CPHF.  IDoFFX=6 NUNeed=     3.
      6 vectors produced by pass  0 Test12= 1.71D-15 1.11D-08 XBig12= 8.49D+00 2.12D+00.
 AX will form     6 AO Fock derivatives at one time.
      6 vectors produced by pass  1 Test12= 1.71D-15 1.11D-08 XBig12= 4.06D-01 2.86D-01.
      6 vectors produced by pass  2 Test12= 1.71D-15 1.11D-08 XBig12= 6.43D-03 5.12D-02.
      6 vectors produced by pass  3 Test12= 1.71D-15 1.11D-08 XBig12= 5.09D-04 1.91D-02.
      6 vectors produced by pass  4 Test12= 1.71D-15 1.11D-08 XBig12= 5.77D-06 9.03D-04.
      6 vectors produced by pass  5 Test12= 1.71D-15 1.11D-08 XBig12= 1.42D-08 3.26D-05.
      4 vectors produced by pass  6 Test12= 1.71D-15 1.11D-08 XBig12= 4.26D-11 2.01D-06.
      1 vectors produced by pass  7 Test12= 1.71D-15 1.11D-08 XBig12= 2.82D-14 6.14D-08.
 InvSVY:  IOpt=1 It=  1 EMax= 3.33D-16
 Solved reduced A of dimension    41 with     6 vectors.
 FullF1:  Do perturbations    1 to     3.
 Isotropic polarizability for W=    0.000000        5.83 Bohr**3.
 End of Minotr F.D. properties file   721 does not exist.
 End of Minotr F.D. properties file   722 does not exist.
 End of Minotr F.D. properties file   788 does not exist.
 Leave Link 1002 at Thu Jan 24 15:29:57 2019, MaxMem=    33554432 cpu:         0.7
 (Enter /apl/tryton/gaussian/09/d01/g09/l601.exe)
 Copying SCF densities to generalized density rwf, IOpCl= 1 IROHF=0.

 **********************************************************************

            Population analysis using the SCF density.

 **********************************************************************

 Orbital symmetries:
 Alpha Orbitals:
       Occupied  (SG) (SG) (SG) (PI)
       Virtual   (PI) (SG) (SG) (PI) (PI) (SG) (SG) (SG) (PI) (SG)
                 (PI) (SG) (PI) (PI) (?A) (?A) (?A) (PI) (PI) (SG)
                 (SG) (PI) (PI) (SG) (SG)
 Beta  Orbitals:
       Occupied  (SG) (SG)
       Virtual   (SG) (PI) (PI) (SG) (SG) (PI) (PI) (SG) (SG) (SG)
                 (PI) (PI) (SG) (SG) (PI) (PI) (?A) (?A) (?A) (PI)
                 (PI) (SG) (SG) (PI) (PI) (SG) (SG)
 Unable to determine electronic state:  partially filled degenerate orbitals.
 Alpha  occ. eigenvalues --  -10.76277  -1.06417  -0.79275  -0.67360
 Alpha virt. eigenvalues --   -0.54546  -0.23562  -0.14827  -0.11784  -0.11293
 Alpha virt. eigenvalues --   -0.10765  -0.04687   0.16414   0.21957   0.23139
 Alpha virt. eigenvalues --    0.23373   0.40770   0.66030   0.66648   0.87122
 Alpha virt. eigenvalues --    0.88214   1.12086   1.40087   1.40376   1.89895
 Alpha virt. eigenvalues --    2.11784   2.21307   2.24005   2.68910  22.94195
  Beta  occ. eigenvalues --  -10.72717  -0.97354
  Beta virt. eigenvalues --   -0.56549  -0.49732  -0.44503  -0.20840  -0.11773
  Beta virt. eigenvalues --   -0.10805  -0.10029  -0.09403  -0.04201   0.18909
  Beta virt. eigenvalues --    0.24997   0.27683   0.28583   0.44353   0.72379
  Beta virt. eigenvalues --    0.75204   0.96547   0.96662   1.20629   1.45939
  Beta virt. eigenvalues --    1.48544   1.96887   2.16445   2.26473   2.31328
  Beta virt. eigenvalues --    2.76482  22.98208
          Condensed to atoms (all electrons):
               1          2
     1  C    5.026493   0.314040
     2  H    0.314040   0.345427
          Atomic-Atomic Spin Densities.
               1          2
     1  C    1.808876   0.027120
     2  H    0.027120   0.136883
 Mulliken charges and spin densities:
               1          2
     1  C    0.659467   1.835996
     2  H    0.340533   0.164004
 Sum of Mulliken charges =   1.00000   2.00000
 Mulliken charges and spin densities with hydrogens summed into heavy atoms:
               1          2
     1  C    1.000000   2.000000
 APT charges:
               1
     1  C    0.603733
     2  H    0.396267
 Sum of APT charges =   1.00000
 APT charges with hydrogens summed into heavy atoms:
               1
     1  C    1.000000
 Electronic spatial extent (au):  <R**2>=             12.5280
 Charge=              1.0000 electrons
 Dipole moment (field-independent basis, Debye):
    X=              0.0000    Y=              0.0000    Z=             -0.7761  Tot=              0.7761
 Quadrupole moment (field-independent basis, Debye-Ang):
   XX=             -5.2611   YY=             -3.7054   ZZ=             -2.4940
   XY=              0.0000   XZ=              0.0000   YZ=              0.0000
 Traceless Quadrupole moment (field-independent basis, Debye-Ang):
   XX=             -1.4410   YY=              0.1147   ZZ=              1.3262
   XY=              0.0000   XZ=              0.0000   YZ=              0.0000
 Octapole moment (field-independent basis, Debye-Ang**2):
  XXX=              0.0000  YYY=              0.0000  ZZZ=             -2.8804  XYY=              0.0000
  XXY=              0.0000  XXZ=             -0.2541  XZZ=              0.0000  YZZ=              0.0000
  YYZ=             -0.0056  XYZ=              0.0000
 Hexadecapole moment (field-independent basis, Debye-Ang**3):
 XXXX=             -5.1021 YYYY=             -2.7276 ZZZZ=             -4.4288 XXXY=              0.0000
 XXXZ=              0.0000 YYYX=              0.0000 YYYZ=              0.0000 ZZZX=              0.0000
 ZZZY=              0.0000 XXYY=             -1.3049 XXZZ=             -2.0700 YYZZ=             -1.6247
 XXYZ=              0.0000 YYXZ=              0.0000 ZZXY=              0.0000
 N-N= 2.774912538719D+00 E-N=-9.151176619210D+01  KE= 3.794713119808D+01
 Symmetry A1   KE= 3.643612315418D+01
 Symmetry A2   KE= 2.360225185250D-35
 Symmetry B1   KE= 1.511008043906D+00
 Symmetry B2   KE= 1.133074547765D-32
  Exact polarizability:   4.640  -0.000   5.144   0.000  -0.000   7.699
 Approx polarizability:   5.001  -0.000   6.973  -0.000  -0.000   9.149
                          Isotropic Fermi Contact Couplings
        Atom                 a.u.       MegaHertz       Gauss      10(-4) cm-1
     1  C(13)              0.87737     493.16742     175.97439     164.50294
     2  H(1)               0.09535     213.10163      76.03996      71.08305
 --------------------------------------------------------
       Center         ----  Spin Dipole Couplings  ----
                      3XX-RR        3YY-RR        3ZZ-RR
 --------------------------------------------------------
     1   Atom        1.190250     -1.346797      0.156547
     2   Atom       -0.054755     -0.116392      0.171147
 --------------------------------------------------------
                        XY            XZ            YZ
 --------------------------------------------------------
     1   Atom        0.000000      0.000000      0.000000
     2   Atom        0.000000      0.000000      0.000000
 --------------------------------------------------------


 ---------------------------------------------------------------------------------
              Anisotropic Spin Dipole Couplings in Principal Axis System
 ---------------------------------------------------------------------------------

       Atom             a.u.   MegaHertz   Gauss  10(-4) cm-1        Axes

              Baa    -1.3468  -180.727   -64.488   -60.284 -0.0000  1.0000  0.0000
     1 C(13)  Bbb     0.1565    21.007     7.496     7.007  0.0000  0.0000  1.0000
              Bcc     1.1902   159.720    56.992    53.277  1.0000  0.0000  0.0000
 
              Baa    -0.1164   -62.101   -22.159   -20.715 -0.0000  1.0000  0.0000
     2 H(1)   Bbb    -0.0548   -29.214   -10.424    -9.745  1.0000  0.0000  0.0000
              Bcc     0.1711    91.316    32.584    30.460  0.0000  0.0000  1.0000
 

 ---------------------------------------------------------------------------------

 No NMR shielding tensors so no spin-rotation constants.
 Leave Link  601 at Thu Jan 24 15:29:57 2019, MaxMem=    33554432 cpu:         0.2
 (Enter /apl/tryton/gaussian/09/d01/g09/l701.exe)
 Compute integral second derivatives.
 ... and contract with generalized density number  0.
 Leave Link  701 at Thu Jan 24 15:29:57 2019, MaxMem=    33554432 cpu:         0.1
 (Enter /apl/tryton/gaussian/09/d01/g09/l702.exe)
 L702 exits ... SP integral derivatives will be done elsewhere.
 Leave Link  702 at Thu Jan 24 15:29:57 2019, MaxMem=    33554432 cpu:         0.0
 (Enter /apl/tryton/gaussian/09/d01/g09/l703.exe)
 Compute integral second derivatives, UseDBF=F ICtDFT=           0.
 Integral derivatives from FoFJK, PRISM(SPDF).
 Calling FoFJK, ICntrl=    100127 FMM=F ISym2X=1 I1Cent= 0 IOpClX= 1 NMat=1 NMatS=1 NMatT=0.
 FoFJK:  IHMeth= 1 ICntrl=  100127 DoSepK=F KAlg= 0 I1Cent=   0 FoldK=F
 IRaf=         0 NMat=   1 IRICut=       1 DoRegI=T DoRafI=F ISym2E= 1.
 FoFCou: FMM=F IPFlag=           0 FMFlag=      100000 FMFlg1=         800
         NFxFlg=           0 DoJE=F BraDBF=F KetDBF=F FulRan=T
         wScrn=  0.000000 ICntrl=  100127 IOpCl=  1 I1Cent=           0 NGrid=           0
         NMat0=    1 NMatS0=      1 NMatT0=    0 NMatD0=    1 NMtDS0=    0 NMtDT0=    0
 Petite list used in FoFCou.
 Leave Link  703 at Thu Jan 24 15:29:58 2019, MaxMem=    33554432 cpu:         0.5
 (Enter /apl/tryton/gaussian/09/d01/g09/l716.exe)
 Dipole        = 0.00000000D+00 0.00000000D+00-3.05360357D-01
 Polarizability= 4.63999519D+00-4.18444656D-08 5.14411436D+00
                 1.23621584D-07-1.71717570D-06 7.69867473D+00
 Full mass-weighted force constant matrix:
 Low frequencies ---   -0.0010   -0.0009   -0.0005  113.4144  114.5773 2615.9361
 Diagonal vibrational polarizability:
        0.0000000       0.0000000       1.2930926
 Harmonic frequencies (cm**-1), IR intensities (KM/Mole), Raman scattering
 activities (A**4/AMU), depolarization ratios for plane and unpolarized
 incident light, reduced masses (AMU), force constants (mDyne/A),
 and normal coordinates:
                      1
                     SG
 Frequencies --   2615.9361
 Red. masses --      1.0848
 Frc consts  --      4.3738
 IR Inten    --    328.8144
  Atom  AN      X      Y      Z
     1   6     0.00   0.00   0.08
     2   1     0.00   0.00  -1.00

 -------------------
 - Thermochemistry -
 -------------------
 Temperature   298.150 Kelvin.  Pressure   1.00000 Atm.
 Atom     1 has atomic number  6 and mass  12.00000
 Atom     2 has atomic number  1 and mass   1.00783
 Molecular mass:    13.00783 amu.
 Principal axes and moments of inertia in atomic units:
                           1         2         3
     Eigenvalues --     0.00000   4.34676   4.34676
           X            0.00000  -0.00000   1.00000
           Y            0.00000   1.00000   0.00000
           Z            1.00000   0.00000   0.00000
 This molecule is a prolate symmetric top.
 Rotational symmetry number  1.
 Rotational temperature (Kelvin)     19.92607
 Rotational constant (GHZ):         415.192337
 Zero-point vibrational energy      15646.8 (Joules/Mol)
                                    3.73967 (Kcal/Mol)
 Vibrational temperatures:   3763.74
          (Kelvin)
 
 Zero-point correction=                           0.005960 (Hartree/Particle)
 Thermal correction to Energy=                    0.008320
 Thermal correction to Enthalpy=                  0.009264
 Thermal correction to Gibbs Free Energy=        -0.011255
 Sum of electronic and zero-point Energies=            -38.050416
 Sum of electronic and thermal Energies=               -38.048055
 Sum of electronic and thermal Enthalpies=             -38.047111
 Sum of electronic and thermal Free Energies=          -38.067630
 
                     E (Thermal)             CV                S
                      KCal/Mol        Cal/Mol-Kelvin    Cal/Mol-Kelvin
 Total                    5.221              4.969             43.185
 Electronic               0.000              0.000              2.183
 Translational            0.889              2.981             33.638
 Rotational               0.592              1.987              7.364
 Vibrational              3.740              0.001              0.000
                       Q            Log10(Q)             Ln(Q)
 Total Bot       0.150212D+06          5.176706         11.919805
 Total V=0       0.827748D+08          7.917898         18.231634
 Vib (Bot)       0.181472D-02         -2.741191         -6.311826
 Vib (V=0)       0.100000D+01          0.000001          0.000003
 Electronic      0.300000D+01          0.477121          1.098612
 Translational   0.184401D+07          6.265762         14.427451
 Rotational      0.149628D+02          1.175013          2.705568
 ***** Axes restored to original set *****
 -------------------------------------------------------------------
 Center     Atomic                   Forces (Hartrees/Bohr)
 Number     Number              X              Y              Z
 -------------------------------------------------------------------
      1        6           0.000010703   -0.000000000   -0.000000000
      2        1          -0.000010703   -0.000000000   -0.000000000
 -------------------------------------------------------------------
 Cartesian Forces:  Max     0.000010703 RMS     0.000006179
 Z-matrix is all fixed cartesians, so copy forces.
 Force constants in Cartesian coordinates: 
                1             2             3             4             5 
      1  0.240773D+00
      2  0.000000D+00  0.461903D-03
      3  0.000000D+00  0.000000D+00  0.452574D-03
      4 -0.240773D+00  0.000000D+00  0.000000D+00  0.240773D+00
      5  0.000000D+00 -0.461903D-03  0.000000D+00  0.000000D+00  0.461903D-03
      6  0.000000D+00  0.000000D+00 -0.452574D-03  0.000000D+00  0.000000D+00
                6 
      6  0.452574D-03
 Leave Link  716 at Thu Jan 24 15:29:58 2019, MaxMem=    33554432 cpu:         0.0
 (Enter /apl/tryton/gaussian/09/d01/g09/l103.exe)

 GradGradGradGradGradGradGradGradGradGradGradGradGradGradGradGradGradGrad
 Berny optimization.
 Search for a local minimum.
 Step number   1 out of a maximum of    2
 All quantities printed in internal units (Hartrees-Bohrs-Radians)
 Second derivative matrix not updated -- analytic derivatives used.
 The second derivative matrix:
                          X1        Y1        Z1        X2        Y2
           X1           0.24077
           Y1          -0.00000   0.00046
           Z1           0.00000   0.00000   0.00045
           X2          -0.24077   0.00000  -0.00000   0.24077
           Y2           0.00000  -0.00046  -0.00000  -0.00000   0.00046
           Z2          -0.00000  -0.00000  -0.00045   0.00000   0.00000
                          Z2
           Z2           0.00045
 ITU=  0
     Eigenvalues ---    0.40928
 Angle between quadratic step and forces=  22.79 degrees.
 ClnCor:  largest displacement from symmetrization is 0.00D+00 for atom     0.
 Linear search not attempted -- first point.
 ClnCor:  largest displacement from symmetrization is 0.00D+00 for atom     0.
 TrRot=  0.000009  0.000000  0.000000  0.000000  0.000000  0.000000
 Variable       Old X    -DE/DX   Delta X   Delta X   Delta X     New X
                                 (Linear)    (Quad)   (Total)
    X1        1.92715   0.00001   0.00000   0.00001   0.00002   1.92717
    Y1        0.00000  -0.00000   0.00000   0.00000   0.00000   0.00000
    Z1        0.00000  -0.00000   0.00000   0.00000   0.00000   0.00000
    X2        4.08938  -0.00001   0.00000  -0.00003  -0.00002   4.08936
    Y2        0.00000  -0.00000   0.00000   0.00000   0.00000   0.00000
    Z2        0.00000  -0.00000   0.00000   0.00000   0.00000   0.00000
         Item               Value     Threshold  Converged?
 Maximum Force            0.000011     0.000450     YES
 RMS     Force            0.000006     0.000300     YES
 Maximum Displacement     0.000022     0.001800     YES
 RMS     Displacement     0.000013     0.001200     YES
 Predicted change in Energy=-2.378676D-10
 Optimization completed.
    -- Stationary point found.
 GradGradGradGradGradGradGradGradGradGradGradGradGradGradGradGradGradGrad

 Leave Link  103 at Thu Jan 24 15:29:58 2019, MaxMem=    33554432 cpu:         0.0
 (Enter /apl/tryton/gaussian/09/d01/g09/l9999.exe)
 1\1\ CITASK-GV0221\Freq\UB3LYP\6-311++G(d,p)\C1H1(1+,3)\EERD\24-Jan-20
 19\0\\#p b3lyp/6-311++g(d,p) freq\\min\\1,3\C,1.019803,0.,0.\H,2.16400
 6,0.,0.\\Version=ES64L-G09RevD.01\HF=-38.0563753\S2=2.001556\S2-1=0.\S
 2A=2.\RMSD=5.006e-09\RMSF=6.179e-06\ZeroPoint=0.0059595\Thermal=0.0083
 2\Dipole=0.3053604,0.,0.\DipoleDeriv=0.3625312,-0.0000003,0.,0.,0.7239
 672,0.,0.,0.,0.724702,0.6374688,0.0000003,0.,0.,0.2760328,0.,0.,0.,0.2
 75298\Polar=7.6986747,0.0000017,5.1441144,-0.0000001,0.,4.6399952\PG=C
 *V [C*(H1C1)]\NImag=0\\0.24077279,-0.00000002,0.00046190,0.,0.,0.00045
 257,-0.24077279,0.00000002,0.,0.24077279,0.00000002,-0.00046190,0.,-0.
 00000002,0.00046190,0.,0.,-0.00045257,0.,0.,0.00045257\\-0.00001070,0.
 ,0.,0.00001070,0.,0.\\\@


 MODELS ARE TO BE USED, NOT BELIEVED.

    -- PARAPHRASED BY H. THIEL IN "PRINCIPLES OF ECONOMETRICS"
 Job cpu time:       0 days  0 hours  0 minutes  3.3 seconds.
 File lengths (MBytes):  RWF=      5 Int=      0 D2E=      0 Chk=      1 Scr=      1
 Normal termination of Gaussian 09 at Thu Jan 24 15:29:58 2019.
