 Entering Gaussian System, Link 0=g09
 Initial command:
 /apl/tryton/gaussian/09/d01/g09/l1.exe "/users/work/eerd/M3C-outputs/4/Gau-22585.inp" -scrdir="/users/work/eerd/M3C-outputs/4/"
 Entering Link 1 = /apl/tryton/gaussian/09/d01/g09/l1.exe PID=     22586.
  
 Copyright (c) 1988,1990,1992,1993,1995,1998,2003,2009,2013,
            Gaussian, Inc.  All Rights Reserved.
  
 This is part of the Gaussian(R) 09 program.  It is based on
 the Gaussian(R) 03 system (copyright 2003, Gaussian, Inc.),
 the Gaussian(R) 98 system (copyright 1998, Gaussian, Inc.),
 the Gaussian(R) 94 system (copyright 1995, Gaussian, Inc.),
 the Gaussian 92(TM) system (copyright 1992, Gaussian, Inc.),
 the Gaussian 90(TM) system (copyright 1990, Gaussian, Inc.),
 the Gaussian 88(TM) system (copyright 1988, Gaussian, Inc.),
 the Gaussian 86(TM) system (copyright 1986, Carnegie Mellon
 University), and the Gaussian 82(TM) system (copyright 1983,
 Carnegie Mellon University). Gaussian is a federally registered
 trademark of Gaussian, Inc.
  
 This software contains proprietary and confidential information,
 including trade secrets, belonging to Gaussian, Inc.
  
 This software is provided under written license and may be
 used, copied, transmitted, or stored only in accord with that
 written license.
  
 The following legend is applicable only to US Government
 contracts under FAR:
  
                    RESTRICTED RIGHTS LEGEND
  
 Use, reproduction and disclosure by the US Government is
 subject to restrictions as set forth in subparagraphs (a)
 and (c) of the Commercial Computer Software - Restricted
 Rights clause in FAR 52.227-19.
  
 Gaussian, Inc.
 340 Quinnipiac St., Bldg. 40, Wallingford CT 06492
  
  
 ---------------------------------------------------------------
 Warning -- This program may not be used in any manner that
 competes with the business of Gaussian, Inc. or will provide
 assistance to any competitor of Gaussian, Inc.  The licensee
 of this program is prohibited from giving any competitor of
 Gaussian, Inc. access to this program.  By using this program,
 the user acknowledges that Gaussian, Inc. is engaged in the
 business of creating and licensing software in the field of
 computational chemistry and represents and warrants to the
 licensee that it is not a competitor of Gaussian, Inc. and that
 it will not use this program in any manner prohibited above.
 ---------------------------------------------------------------
  

 Cite this work as:
 Gaussian 09, Revision D.01,
 M. J. Frisch, G. W. Trucks, H. B. Schlegel, G. E. Scuseria, 
 M. A. Robb, J. R. Cheeseman, G. Scalmani, V. Barone, B. Mennucci, 
 G. A. Petersson, H. Nakatsuji, M. Caricato, X. Li, H. P. Hratchian, 
 A. F. Izmaylov, J. Bloino, G. Zheng, J. L. Sonnenberg, M. Hada, 
 M. Ehara, K. Toyota, R. Fukuda, J. Hasegawa, M. Ishida, T. Nakajima, 
 Y. Honda, O. Kitao, H. Nakai, T. Vreven, J. A. Montgomery, Jr., 
 J. E. Peralta, F. Ogliaro, M. Bearpark, J. J. Heyd, E. Brothers, 
 K. N. Kudin, V. N. Staroverov, T. Keith, R. Kobayashi, J. Normand, 
 K. Raghavachari, A. Rendell, J. C. Burant, S. S. Iyengar, J. Tomasi, 
 M. Cossi, N. Rega, J. M. Millam, M. Klene, J. E. Knox, J. B. Cross, 
 V. Bakken, C. Adamo, J. Jaramillo, R. Gomperts, R. E. Stratmann, 
 O. Yazyev, A. J. Austin, R. Cammi, C. Pomelli, J. W. Ochterski, 
 R. L. Martin, K. Morokuma, V. G. Zakrzewski, G. A. Voth, 
 P. Salvador, J. J. Dannenberg, S. Dapprich, A. D. Daniels, 
 O. Farkas, J. B. Foresman, J. V. Ortiz, J. Cioslowski, 
 and D. J. Fox, Gaussian, Inc., Wallingford CT, 2013.
 
 ******************************************
 Gaussian 09:  ES64L-G09RevD.01 24-Apr-2013
                 4-Mar-2018 
 ******************************************
 ---------------------------
 #p b3lyp/6-311++g(d,p) freq
 ---------------------------
 1/10=4,30=1,38=1/1,3;
 2/12=2,17=6,18=5,40=1/2;
 3/5=4,6=6,7=1111,11=2,16=1,25=1,30=1,71=2,74=-5,140=1/1,2,3;
 4//1;
 5/5=2,38=5,98=1/2;
 8/6=4,10=90,11=11/1;
 11/6=1,8=1,9=11,15=111,16=1/1,2,10;
 10/6=1/2;
 6/7=2,8=2,9=2,10=2,18=1,28=1/1;
 7/8=1,10=1,25=1/1,2,3,16;
 1/10=4,30=1/3;
 99//99;
 Leave Link    1 at Sun Mar  4 20:56:02 2018, MaxMem=           0 cpu:         0.0
 (Enter /apl/tryton/gaussian/09/d01/g09/l101.exe)
 ---
 min
 ---
 Symbolic Z-matrix:
 Charge =  0 Multiplicity = 2
 C                    -0.06703  -0.31826   0.0191 
 C                    -0.24982   0.95293   0.08875 
 H                    -0.93951   1.65464   0.51232 
 O                     0.24725  -1.43785  -0.14251 
 
 NAtoms=      4 NQM=        4 NQMF=       0 NMMI=      0 NMMIF=      0
                NMic=       0 NMicF=      0.
                    Isotopes and Nuclear Properties:
 (Nuclear quadrupole moments (NQMom) in fm**2, nuclear magnetic moments (NMagM)
  in nuclear magnetons)

  Atom         1           2           3           4
 IAtWgt=          12          12           1          16
 AtmWgt=  12.0000000  12.0000000   1.0078250  15.9949146
 NucSpn=           0           0           1           0
 AtZEff=   0.0000000   0.0000000   0.0000000   0.0000000
 NQMom=    0.0000000   0.0000000   0.0000000   0.0000000
 NMagM=    0.0000000   0.0000000   2.7928460   0.0000000
 AtZNuc=   6.0000000   6.0000000   1.0000000   8.0000000
 Leave Link  101 at Sun Mar  4 20:56:02 2018, MaxMem=    33554432 cpu:         0.1
 (Enter /apl/tryton/gaussian/09/d01/g09/l103.exe)

 GradGradGradGradGradGradGradGradGradGradGradGradGradGradGradGradGradGrad
 Berny optimization.
 Initialization pass.
 Trust Radius=3.00D-01 FncErr=1.00D-07 GrdErr=1.00D-07
 Number of steps in this run=      2 maximum allowed number of steps=      2.
 GradGradGradGradGradGradGradGradGradGradGradGradGradGradGradGradGradGrad

 Leave Link  103 at Sun Mar  4 20:56:02 2018, MaxMem=    33554432 cpu:         0.0
 (Enter /apl/tryton/gaussian/09/d01/g09/l202.exe)
                          Input orientation:                          
 ---------------------------------------------------------------------
 Center     Atomic      Atomic             Coordinates (Angstroms)
 Number     Number       Type             X           Y           Z
 ---------------------------------------------------------------------
      1          6           0       -0.067026   -0.318262    0.019096
      2          6           0       -0.249822    0.952934    0.088746
      3          1           0       -0.939515    1.654642    0.512324
      4          8           0        0.247245   -1.437851   -0.142506
 ---------------------------------------------------------------------
                    Distance matrix (angstroms):
                    1          2          3          4
     1  C    0.000000
     2  C    1.286159   0.000000
     3  H    2.212885   1.071209   0.000000
     4  O    1.174037   2.452837   3.376495   0.000000
 Stoichiometry    C2HO(2)
 Framework group  CS[SG(C2HO)]
 Deg. of freedom     5
 Full point group                 CS      NOp   2
 Largest Abelian subgroup         CS      NOp   2
 Largest concise Abelian subgroup C1      NOp   1
                         Standard orientation:                         
 ---------------------------------------------------------------------
 Center     Atomic      Atomic             Coordinates (Angstroms)
 Number     Number       Type             X           Y           Z
 ---------------------------------------------------------------------
      1          6           0        0.000000    0.044071   -0.000000
      2          6           0        1.046753   -0.703267    0.000000
      3          1           0        2.113920   -0.610301   -0.000000
      4          8           0       -1.049304    0.570685   -0.000000
 ---------------------------------------------------------------------
 Rotational constants (GHZ):   1289.9019666     10.9156668     10.8240692
 Leave Link  202 at Sun Mar  4 20:56:02 2018, MaxMem=    33554432 cpu:         0.0
 (Enter /apl/tryton/gaussian/09/d01/g09/l301.exe)
 Standard basis: 6-311++G(d,p) (5D, 7F)
 Ernie: Thresh=  0.10000D-02 Tol=  0.10000D-05 Strict=F.
 There are    57 symmetry adapted cartesian basis functions of A'  symmetry.
 There are    19 symmetry adapted cartesian basis functions of A"  symmetry.
 There are    54 symmetry adapted basis functions of A'  symmetry.
 There are    19 symmetry adapted basis functions of A"  symmetry.
    73 basis functions,   117 primitive gaussians,    76 cartesian basis functions
    11 alpha electrons       10 beta electrons
       nuclear repulsion energy        52.4551929844 Hartrees.
 IExCor=  402 DFT=T Ex+Corr=B3LYP ExCW=0 ScaHFX=  0.200000
 ScaDFX=  0.800000  0.720000  1.000000  0.810000 ScalE2=  1.000000  1.000000
 IRadAn=      0 IRanWt=     -1 IRanGd=            0 ICorTp=0 IEmpDi=  4
 NAtoms=    4 NActive=    4 NUniq=    4 SFac= 1.00D+00 NAtFMM=   60 NAOKFM=F Big=F
 Integral buffers will be    131072 words long.
 Raffenetti 2 integral format.
 Two-electron integral symmetry is turned on.
 Leave Link  301 at Sun Mar  4 20:56:02 2018, MaxMem=    33554432 cpu:         0.0
 (Enter /apl/tryton/gaussian/09/d01/g09/l302.exe)
 NPDir=0 NMtPBC=     1 NCelOv=     1 NCel=       1 NClECP=     1 NCelD=      1
         NCelK=      1 NCelE2=     1 NClLst=     1 CellRange=     0.0.
 One-electron integrals computed using PRISM.
 NBasis=    73 RedAO= T EigKep=  8.10D-05  NBF=    54    19
 NBsUse=    73 1.00D-06 EigRej= -1.00D+00 NBFU=    54    19
 Precomputing XC quadrature grid using
 IXCGrd= 4 IRadAn=           0 IRanWt=          -1 IRanGd=           0 AccXCQ= 0.00D+00.
 Generated NRdTot=       0 NPtTot=           0 NUsed=           0 NTot=          32
 NSgBfM=    76    76    76    76    76 MxSgAt=     4 MxSgA2=     4.
 Leave Link  302 at Sun Mar  4 20:56:02 2018, MaxMem=    33554432 cpu:         0.1
 (Enter /apl/tryton/gaussian/09/d01/g09/l303.exe)
 DipDrv:  MaxL=1.
 Leave Link  303 at Sun Mar  4 20:56:02 2018, MaxMem=    33554432 cpu:         0.0
 (Enter /apl/tryton/gaussian/09/d01/g09/l401.exe)
 ExpMin= 3.60D-02 ExpMax= 8.59D+03 ExpMxC= 1.30D+03 IAcc=3 IRadAn=         5 AccDes= 0.00D+00
 Harris functional with IExCor=  402 and IRadAn=       5 diagonalized for initial guess.
 HarFok:  IExCor=  402 AccDes= 0.00D+00 IRadAn=         5 IDoV= 1 UseB2=F ITyADJ=14
 ICtDFT=  3500011 ScaDFX=  1.000000  1.000000  1.000000  1.000000
 FoFCou: FMM=F IPFlag=           0 FMFlag=      100000 FMFlg1=           0
         NFxFlg=           0 DoJE=T BraDBF=F KetDBF=T FulRan=T
         wScrn=  0.000000 ICntrl=     500 IOpCl=  0 I1Cent=   200000004 NGrid=           0
         NMat0=    1 NMatS0=      1 NMatT0=    0 NMatD0=    1 NMtDS0=    0 NMtDT0=    0
 Petite list used in FoFCou.
 Harris En= -151.967362279665    
 JPrj=0 DoOrth=F DoCkMO=F.
 Initial guess orbital symmetries:
 Alpha Orbitals:
       Occupied  (A') (A') (A') (A') (A') (A') (A') (A") (A') (A')
                 (A")
       Virtual   (A') (A") (A') (A') (A') (A") (A') (A') (A') (A")
                 (A') (A') (A') (A') (A") (A') (A') (A') (A') (A")
                 (A') (A") (A') (A') (A') (A') (A') (A") (A") (A')
                 (A') (A') (A") (A') (A") (A') (A') (A') (A") (A')
                 (A") (A') (A') (A") (A') (A') (A") (A') (A") (A')
                 (A') (A') (A") (A') (A') (A') (A") (A') (A') (A')
                 (A') (A')
 Beta  Orbitals:
       Occupied  (A') (A') (A') (A') (A') (A') (A') (A") (A') (A')
       Virtual   (A") (A') (A") (A') (A') (A') (A") (A') (A') (A')
                 (A") (A') (A') (A') (A') (A") (A') (A') (A') (A')
                 (A") (A') (A") (A') (A') (A') (A') (A') (A") (A")
                 (A') (A') (A') (A") (A') (A") (A') (A') (A') (A")
                 (A') (A") (A') (A') (A") (A') (A') (A") (A') (A")
                 (A') (A') (A') (A") (A') (A') (A') (A") (A') (A')
                 (A') (A') (A')
 The electronic state of the initial guess is 2-A".
 Initial guess <Sx>= 0.0000 <Sy>= 0.0000 <Sz>= 0.5000 <S**2>= 0.7500 S= 0.5000
 Leave Link  401 at Sun Mar  4 20:56:03 2018, MaxMem=    33554432 cpu:         0.4
 (Enter /apl/tryton/gaussian/09/d01/g09/l502.exe)
 UHF open shell SCF:
 Using DIIS extrapolation, IDIIS=  1040.
 Integral symmetry usage will be decided dynamically.
 Keep R1 and R2 ints in memory in symmetry-blocked form, NReq=5834848.
 IVT=       36921 IEndB=       36921 NGot=    33554432 MDV=    29650159
 LenX=    29650159 LenY=    29643942
 Requested convergence on RMS density matrix=1.00D-08 within 128 cycles.
 Requested convergence on MAX density matrix=1.00D-06.
 Requested convergence on             energy=1.00D-06.
 No special actions if energy rises.
 FoFCou: FMM=F IPFlag=           0 FMFlag=           0 FMFlg1=           0
         NFxFlg=           0 DoJE=F BraDBF=F KetDBF=F FulRan=T
         wScrn=  0.000000 ICntrl=     600 IOpCl=  0 I1Cent=           0 NGrid=           0
         NMat0=    1 NMatS0=   2701 NMatT0=    0 NMatD0=    1 NMtDS0=    0 NMtDT0=    0
 Petite list used in FoFCou.

 Cycle   1  Pass 1  IDiag  1:
 E= -151.923618691638    
 DIIS: error= 3.37D-02 at cycle   1 NSaved=   1.
 NSaved= 1 IEnMin= 1 EnMin= -151.923618691638     IErMin= 1 ErrMin= 3.37D-02
 ErrMax= 3.37D-02  0.00D+00 EMaxC= 1.00D-01 BMatC= 2.66D-01 BMatP= 2.66D-01
 IDIUse=3 WtCom= 6.63D-01 WtEn= 3.37D-01
 Coeff-Com:  0.100D+01
 Coeff-En:   0.100D+01
 Coeff:      0.100D+01
 Gap=     0.243 Goal=   None    Shift=    0.000
 Gap=     0.094 Goal=   None    Shift=    0.000
 GapD=    0.094 DampG=0.500 DampE=0.500 DampFc=0.2500 IDamp=-1.
 Damping current iteration by 2.50D-01
 RMSDP=5.66D-03 MaxDP=1.01D-01              OVMax= 1.45D-01

 Cycle   2  Pass 1  IDiag  1:
 E= -151.941527430403     Delta-E=       -0.017908738765 Rises=F Damp=T
 DIIS: error= 1.45D-02 at cycle   2 NSaved=   2.
 NSaved= 2 IEnMin= 2 EnMin= -151.941527430403     IErMin= 2 ErrMin= 1.45D-02
 ErrMax= 1.45D-02  0.00D+00 EMaxC= 1.00D-01 BMatC= 6.75D-02 BMatP= 2.66D-01
 IDIUse=3 WtCom= 8.55D-01 WtEn= 1.45D-01
 Coeff-Com: -0.779D+00 0.178D+01
 Coeff-En:   0.000D+00 0.100D+01
 Coeff:     -0.666D+00 0.167D+01
 Gap=     0.264 Goal=   None    Shift=    0.000
 Gap=     0.091 Goal=   None    Shift=    0.000
 RMSDP=2.17D-03 MaxDP=3.84D-02 DE=-1.79D-02 OVMax= 1.08D-01

 Cycle   3  Pass 1  IDiag  1:
 E= -151.969554179491     Delta-E=       -0.028026749088 Rises=F Damp=F
 DIIS: error= 1.09D-02 at cycle   3 NSaved=   3.
 NSaved= 3 IEnMin= 3 EnMin= -151.969554179491     IErMin= 3 ErrMin= 1.09D-02
 ErrMax= 1.09D-02  0.00D+00 EMaxC= 1.00D-01 BMatC= 2.08D-02 BMatP= 6.75D-02
 IDIUse=3 WtCom= 8.91D-01 WtEn= 1.09D-01
 Coeff-Com: -0.468D+00 0.952D+00 0.516D+00
 Coeff-En:   0.000D+00 0.000D+00 0.100D+01
 Coeff:     -0.417D+00 0.848D+00 0.569D+00
 Gap=     0.279 Goal=   None    Shift=    0.000
 Gap=     0.093 Goal=   None    Shift=    0.000
 RMSDP=1.14D-03 MaxDP=1.44D-02 DE=-2.80D-02 OVMax= 5.29D-02

 Cycle   4  Pass 1  IDiag  1:
 E= -151.971918677090     Delta-E=       -0.002364497599 Rises=F Damp=F
 DIIS: error= 8.29D-03 at cycle   4 NSaved=   4.
 NSaved= 4 IEnMin= 4 EnMin= -151.971918677090     IErMin= 4 ErrMin= 8.29D-03
 ErrMax= 8.29D-03  0.00D+00 EMaxC= 1.00D-01 BMatC= 1.00D-02 BMatP= 2.08D-02
 IDIUse=3 WtCom= 9.17D-01 WtEn= 8.29D-02
 Coeff-Com: -0.154D+00 0.311D+00 0.405D+00 0.437D+00
 Coeff-En:   0.000D+00 0.000D+00 0.355D+00 0.645D+00
 Coeff:     -0.141D+00 0.286D+00 0.401D+00 0.454D+00
 Gap=     0.271 Goal=   None    Shift=    0.000
 Gap=     0.092 Goal=   None    Shift=    0.000
 RMSDP=5.55D-04 MaxDP=7.28D-03 DE=-2.36D-03 OVMax= 2.71D-02

 Cycle   5  Pass 1  IDiag  1:
 E= -151.973877235363     Delta-E=       -0.001958558273 Rises=F Damp=F
 DIIS: error= 2.25D-03 at cycle   5 NSaved=   5.
 NSaved= 5 IEnMin= 5 EnMin= -151.973877235363     IErMin= 5 ErrMin= 2.25D-03
 ErrMax= 2.25D-03  0.00D+00 EMaxC= 1.00D-01 BMatC= 1.10D-03 BMatP= 1.00D-02
 IDIUse=3 WtCom= 9.77D-01 WtEn= 2.25D-02
 Coeff-Com:  0.863D-02-0.212D-01 0.162D+00 0.315D+00 0.536D+00
 Coeff-En:   0.000D+00 0.000D+00 0.000D+00 0.111D+00 0.889D+00
 Coeff:      0.843D-02-0.207D-01 0.158D+00 0.311D+00 0.544D+00
 Gap=     0.272 Goal=   None    Shift=    0.000
 Gap=     0.093 Goal=   None    Shift=    0.000
 RMSDP=2.09D-04 MaxDP=2.92D-03 DE=-1.96D-03 OVMax= 9.45D-03

 Cycle   6  Pass 1  IDiag  1:
 E= -151.974175325614     Delta-E=       -0.000298090251 Rises=F Damp=F
 DIIS: error= 3.51D-04 at cycle   6 NSaved=   6.
 NSaved= 6 IEnMin= 6 EnMin= -151.974175325614     IErMin= 6 ErrMin= 3.51D-04
 ErrMax= 3.51D-04  0.00D+00 EMaxC= 1.00D-01 BMatC= 2.01D-05 BMatP= 1.10D-03
 IDIUse=3 WtCom= 9.96D-01 WtEn= 3.51D-03
 Coeff-Com:  0.795D-02-0.171D-01-0.443D-01-0.707D-01 0.120D-01 0.111D+01
 Coeff-En:   0.000D+00 0.000D+00 0.000D+00 0.000D+00 0.000D+00 0.100D+01
 Coeff:      0.793D-02-0.171D-01-0.441D-01-0.705D-01 0.119D-01 0.111D+01
 Gap=     0.272 Goal=   None    Shift=    0.000
 Gap=     0.093 Goal=   None    Shift=    0.000
 RMSDP=5.74D-05 MaxDP=7.38D-04 DE=-2.98D-04 OVMax= 3.01D-03

 Cycle   7  Pass 1  IDiag  1:
 E= -151.974187720277     Delta-E=       -0.000012394663 Rises=F Damp=F
 DIIS: error= 1.04D-04 at cycle   7 NSaved=   7.
 NSaved= 7 IEnMin= 7 EnMin= -151.974187720277     IErMin= 7 ErrMin= 1.04D-04
 ErrMax= 1.04D-04  0.00D+00 EMaxC= 1.00D-01 BMatC= 1.46D-06 BMatP= 2.01D-05
 IDIUse=3 WtCom= 9.99D-01 WtEn= 1.04D-03
 Coeff-Com: -0.165D-04 0.139D-02-0.165D-01-0.379D-01-0.737D-01-0.513D-01
 Coeff-Com:  0.118D+01
 Coeff-En:   0.000D+00 0.000D+00 0.000D+00 0.000D+00 0.000D+00 0.000D+00
 Coeff-En:   0.100D+01
 Coeff:     -0.165D-04 0.139D-02-0.165D-01-0.379D-01-0.736D-01-0.512D-01
 Coeff:      0.118D+01
 Gap=     0.273 Goal=   None    Shift=    0.000
 Gap=     0.093 Goal=   None    Shift=    0.000
 RMSDP=2.36D-05 MaxDP=3.02D-04 DE=-1.24D-05 OVMax= 1.30D-03

 Cycle   8  Pass 1  IDiag  1:
 E= -151.974189470011     Delta-E=       -0.000001749734 Rises=F Damp=F
 DIIS: error= 3.92D-05 at cycle   8 NSaved=   8.
 NSaved= 8 IEnMin= 8 EnMin= -151.974189470011     IErMin= 8 ErrMin= 3.92D-05
 ErrMax= 3.92D-05  0.00D+00 EMaxC= 1.00D-01 BMatC= 1.61D-07 BMatP= 1.46D-06
 IDIUse=1 WtCom= 1.00D+00 WtEn= 0.00D+00
 Coeff-Com:  0.712D-04 0.295D-03 0.457D-02 0.563D-02-0.314D-02-0.844D-01
 Coeff-Com: -0.398D-01 0.112D+01
 Coeff:      0.712D-04 0.295D-03 0.457D-02 0.563D-02-0.314D-02-0.844D-01
 Coeff:     -0.398D-01 0.112D+01
 Gap=     0.273 Goal=   None    Shift=    0.000
 Gap=     0.093 Goal=   None    Shift=    0.000
 RMSDP=9.52D-06 MaxDP=1.77D-04 DE=-1.75D-06 OVMax= 4.26D-04

 Cycle   9  Pass 1  IDiag  1:
 E= -151.974189635676     Delta-E=       -0.000000165665 Rises=F Damp=F
 DIIS: error= 8.97D-06 at cycle   9 NSaved=   9.
 NSaved= 9 IEnMin= 9 EnMin= -151.974189635676     IErMin= 9 ErrMin= 8.97D-06
 ErrMax= 8.97D-06  0.00D+00 EMaxC= 1.00D-01 BMatC= 1.19D-08 BMatP= 1.61D-07
 IDIUse=1 WtCom= 1.00D+00 WtEn= 0.00D+00
 Coeff-Com:  0.236D-04-0.158D-03 0.230D-02 0.483D-02 0.808D-02-0.167D-02
 Coeff-Com: -0.134D+00 0.792D-01 0.104D+01
 Coeff:      0.236D-04-0.158D-03 0.230D-02 0.483D-02 0.808D-02-0.167D-02
 Coeff:     -0.134D+00 0.792D-01 0.104D+01
 Gap=     0.273 Goal=   None    Shift=    0.000
 Gap=     0.092 Goal=   None    Shift=    0.000
 RMSDP=3.07D-06 MaxDP=4.06D-05 DE=-1.66D-07 OVMax= 1.76D-04

 Cycle  10  Pass 1  IDiag  1:
 E= -151.974189653712     Delta-E=       -0.000000018036 Rises=F Damp=F
 DIIS: error= 4.09D-06 at cycle  10 NSaved=  10.
 NSaved=10 IEnMin=10 EnMin= -151.974189653712     IErMin=10 ErrMin= 4.09D-06
 ErrMax= 4.09D-06  0.00D+00 EMaxC= 1.00D-01 BMatC= 1.40D-09 BMatP= 1.19D-08
 IDIUse=1 WtCom= 1.00D+00 WtEn= 0.00D+00
 Coeff-Com: -0.389D-04 0.354D-04-0.694D-03-0.853D-03-0.348D-03 0.804D-02
 Coeff-Com:  0.172D-01-0.122D+00-0.140D+00 0.124D+01
 Coeff:     -0.389D-04 0.354D-04-0.694D-03-0.853D-03-0.348D-03 0.804D-02
 Coeff:      0.172D-01-0.122D+00-0.140D+00 0.124D+01
 Gap=     0.273 Goal=   None    Shift=    0.000
 Gap=     0.092 Goal=   None    Shift=    0.000
 RMSDP=1.24D-06 MaxDP=1.51D-05 DE=-1.80D-08 OVMax= 7.37D-05

 Cycle  11  Pass 1  IDiag  1:
 E= -151.974189656037     Delta-E=       -0.000000002325 Rises=F Damp=F
 DIIS: error= 9.14D-07 at cycle  11 NSaved=  11.
 NSaved=11 IEnMin=11 EnMin= -151.974189656037     IErMin=11 ErrMin= 9.14D-07
 ErrMax= 9.14D-07  0.00D+00 EMaxC= 1.00D-01 BMatC= 1.06D-10 BMatP= 1.40D-09
 IDIUse=1 WtCom= 1.00D+00 WtEn= 0.00D+00
 Coeff-Com: -0.294D-05 0.107D-04-0.574D-04-0.180D-03-0.301D-03-0.452D-03
 Coeff-Com:  0.432D-02 0.106D-01-0.499D-01-0.181D+00 0.122D+01
 Coeff:     -0.294D-05 0.107D-04-0.574D-04-0.180D-03-0.301D-03-0.452D-03
 Coeff:      0.432D-02 0.106D-01-0.499D-01-0.181D+00 0.122D+01
 Gap=     0.273 Goal=   None    Shift=    0.000
 Gap=     0.092 Goal=   None    Shift=    0.000
 RMSDP=3.35D-07 MaxDP=4.71D-06 DE=-2.33D-09 OVMax= 1.82D-05

 Cycle  12  Pass 1  IDiag  1:
 E= -151.974189656226     Delta-E=       -0.000000000189 Rises=F Damp=F
 DIIS: error= 5.32D-07 at cycle  12 NSaved=  12.
 NSaved=12 IEnMin=12 EnMin= -151.974189656226     IErMin=12 ErrMin= 5.32D-07
 ErrMax= 5.32D-07  0.00D+00 EMaxC= 1.00D-01 BMatC= 2.24D-11 BMatP= 1.06D-10
 IDIUse=1 WtCom= 1.00D+00 WtEn= 0.00D+00
 Coeff-Com: -0.439D-05 0.667D-05 0.825D-04 0.147D-03 0.118D-03-0.748D-03
 Coeff-Com: -0.303D-02 0.123D-01 0.283D-01-0.125D+00-0.178D+00 0.127D+01
 Coeff:     -0.439D-05 0.667D-05 0.825D-04 0.147D-03 0.118D-03-0.748D-03
 Coeff:     -0.303D-02 0.123D-01 0.283D-01-0.125D+00-0.178D+00 0.127D+01
 Gap=     0.273 Goal=   None    Shift=    0.000
 Gap=     0.092 Goal=   None    Shift=    0.000
 RMSDP=1.08D-07 MaxDP=1.74D-06 DE=-1.89D-10 OVMax= 5.07D-06

 Cycle  13  Pass 1  IDiag  1:
 E= -151.974189656247     Delta-E=       -0.000000000021 Rises=F Damp=F
 DIIS: error= 1.17D-07 at cycle  13 NSaved=  13.
 NSaved=13 IEnMin=13 EnMin= -151.974189656247     IErMin=13 ErrMin= 1.17D-07
 ErrMax= 1.17D-07  0.00D+00 EMaxC= 1.00D-01 BMatC= 9.37D-13 BMatP= 2.24D-11
 IDIUse=1 WtCom= 1.00D+00 WtEn= 0.00D+00
 Coeff-Com: -0.850D-06 0.754D-06 0.995D-05 0.317D-04 0.460D-04 0.242D-04
 Coeff-Com: -0.604D-03-0.147D-02 0.706D-02 0.179D-01-0.124D+00 0.186D-01
 Coeff-Com:  0.108D+01
 Coeff:     -0.850D-06 0.754D-06 0.995D-05 0.317D-04 0.460D-04 0.242D-04
 Coeff:     -0.604D-03-0.147D-02 0.706D-02 0.179D-01-0.124D+00 0.186D-01
 Coeff:      0.108D+01
 Gap=     0.273 Goal=   None    Shift=    0.000
 Gap=     0.092 Goal=   None    Shift=    0.000
 RMSDP=2.04D-08 MaxDP=2.79D-07 DE=-2.14D-11 OVMax= 1.07D-06

 Cycle  14  Pass 1  IDiag  1:
 E= -151.974189656248     Delta-E=       -0.000000000001 Rises=F Damp=F
 DIIS: error= 2.08D-08 at cycle  14 NSaved=  14.
 NSaved=14 IEnMin=14 EnMin= -151.974189656248     IErMin=14 ErrMin= 2.08D-08
 ErrMax= 2.08D-08  0.00D+00 EMaxC= 1.00D-01 BMatC= 6.91D-14 BMatP= 9.37D-13
 IDIUse=1 WtCom= 1.00D+00 WtEn= 0.00D+00
 Coeff-Com:  0.394D-06-0.576D-06-0.272D-05-0.648D-05-0.556D-06 0.288D-04
 Coeff-Com:  0.969D-04-0.476D-03-0.122D-02 0.502D-02 0.107D-01-0.538D-01
 Coeff-Com: -0.840D-02 0.105D+01
 Coeff:      0.394D-06-0.576D-06-0.272D-05-0.648D-05-0.556D-06 0.288D-04
 Coeff:      0.969D-04-0.476D-03-0.122D-02 0.502D-02 0.107D-01-0.538D-01
 Coeff:     -0.840D-02 0.105D+01
 Gap=     0.273 Goal=   None    Shift=    0.000
 Gap=     0.092 Goal=   None    Shift=    0.000
 RMSDP=2.74D-09 MaxDP=3.16D-08 DE=-1.02D-12 OVMax= 1.19D-07

 SCF Done:  E(UB3LYP) =  -151.974189656     A.U. after   14 cycles
            NFock= 14  Conv=0.27D-08     -V/T= 2.0035
 <Sx>= 0.0000 <Sy>= 0.0000 <Sz>= 0.5000 <S**2>= 0.7578 S= 0.5039
 <L.S>= 0.000000000000E+00
 KE= 1.514399470700D+02 PE=-4.606486604502D+02 EE= 1.047793307396D+02
 Annihilation of the first spin contaminant:
 S**2 before annihilation     0.7578,   after     0.7500
 Leave Link  502 at Sun Mar  4 20:56:07 2018, MaxMem=    33554432 cpu:         4.6
 (Enter /apl/tryton/gaussian/09/d01/g09/l801.exe)
 DoSCS=F DFT=T ScalE2(SS,OS)=  1.000000  1.000000
 Range of M.O.s used for correlation:     1    73
 NBasis=    73 NAE=    11 NBE=    10 NFC=     0 NFV=     0
 NROrb=     73 NOA=    11 NOB=    10 NVA=    62 NVB=    63

 **** Warning!!: The largest alpha MO coefficient is  0.50115223D+02


 **** Warning!!: The largest beta MO coefficient is  0.50949912D+02


 **** Warning!!: The smallest beta delta epsilon is  0.92480986D-01

 Leave Link  801 at Sun Mar  4 20:56:07 2018, MaxMem=    33554432 cpu:         0.0
 (Enter /apl/tryton/gaussian/09/d01/g09/l1101.exe)
 Using compressed storage, NAtomX=     4.
 Will process      5 centers per pass.
 Leave Link 1101 at Sun Mar  4 20:56:07 2018, MaxMem=    33554432 cpu:         0.1
 (Enter /apl/tryton/gaussian/09/d01/g09/l1102.exe)
 Symmetrizing basis deriv contribution to polar:
 IMax=3 JMax=2 DiffMx= 0.00D+00
 Leave Link 1102 at Sun Mar  4 20:56:07 2018, MaxMem=    33554432 cpu:         0.0
 (Enter /apl/tryton/gaussian/09/d01/g09/l1110.exe)
 Forming Gx(P) for the SCF density, NAtomX=     4.
 Integral derivatives from FoFJK, PRISM(SPDF).
 Do as many integral derivatives as possible in FoFJK.
 G2DrvN: MDV=      33554296.
 G2DrvN: will do     5 centers at a time, making    1 passes.
 Calling FoFCou, ICntrl=  3107 FMM=F I1Cent=   0 AccDes= 0.00D+00.
 FoFJK:  IHMeth= 1 ICntrl=    3107 DoSepK=F KAlg= 0 I1Cent=   0 FoldK=F
 IRaf=         0 NMat=   1 IRICut=       1 DoRegI=T DoRafI=F ISym2E= 1.
 FoFCou: FMM=F IPFlag=           0 FMFlag=      100000 FMFlg1=           0
         NFxFlg=           0 DoJE=F BraDBF=F KetDBF=F FulRan=T
         wScrn=  0.000000 ICntrl=    3107 IOpCl=  1 I1Cent=           0 NGrid=           0
         NMat0=    1 NMatS0=      1 NMatT0=    0 NMatD0=    1 NMtDS0=    0 NMtDT0=    0
 Petite list used in FoFCou.
 End of G2Drv F.D. properties file   721 does not exist.
 End of G2Drv F.D. properties file   722 does not exist.
 End of G2Drv F.D. properties file   788 does not exist.
 Leave Link 1110 at Sun Mar  4 20:56:12 2018, MaxMem=    33554432 cpu:         4.2
 (Enter /apl/tryton/gaussian/09/d01/g09/l1002.exe)
 Minotr:  UHF open shell wavefunction.
          IDoAtm=1111
          Direct CPHF calculation.
          Differentiating once with respect to electric field.
                with respect to dipole field.
          Differentiating once with respect to nuclear coordinates.
          Using symmetry in CPHF.
          Requested convergence is 1.0D-08 RMS, and 1.0D-07 maximum.
          Secondary convergence is 1.0D-12 RMS, and 1.0D-12 maximum.
          NewPWx=T KeepS1=F KeepF1=F KeepIn=T MapXYZ=F SortEE=F KeepMc=T.
          MDV=      33554242 using IRadAn=       2.
 Generate precomputed XC quadrature information.
 Keep R1 and R2 ints in memory in symmetry-blocked form, NReq=5799842.
 FoFCou: FMM=F IPFlag=           0 FMFlag=           0 FMFlg1=           0
         NFxFlg=           0 DoJE=F BraDBF=F KetDBF=F FulRan=T
         wScrn=  0.000000 ICntrl=     600 IOpCl=  0 I1Cent=           0 NGrid=           0
         NMat0=    1 NMatS0=   2701 NMatT0=    0 NMatD0=    1 NMtDS0=    0 NMtDT0=    0
 Petite list used in FoFCou.
          Solving linear equations simultaneously, MaxMat=       0.
          There are    15 degrees of freedom in the 1st order CPHF.  IDoFFX=6 NUNeed=     3.
     12 vectors produced by pass  0 Test12= 8.75D-15 6.67D-09 XBig12= 8.66D+01 4.11D+00.
 AX will form    12 AO Fock derivatives at one time.
     12 vectors produced by pass  1 Test12= 8.75D-15 6.67D-09 XBig12= 3.99D+01 1.23D+00.
     12 vectors produced by pass  2 Test12= 8.75D-15 6.67D-09 XBig12= 1.70D+00 4.47D-01.
     12 vectors produced by pass  3 Test12= 8.75D-15 6.67D-09 XBig12= 2.45D-02 4.68D-02.
     12 vectors produced by pass  4 Test12= 8.75D-15 6.67D-09 XBig12= 3.46D-04 4.09D-03.
     12 vectors produced by pass  5 Test12= 8.75D-15 6.67D-09 XBig12= 4.92D-06 4.86D-04.
     11 vectors produced by pass  6 Test12= 8.75D-15 6.67D-09 XBig12= 4.14D-08 3.55D-05.
      6 vectors produced by pass  7 Test12= 8.75D-15 6.67D-09 XBig12= 2.28D-10 2.46D-06.
      3 vectors produced by pass  8 Test12= 8.75D-15 6.67D-09 XBig12= 1.31D-12 2.46D-07.
      1 vectors produced by pass  9 Test12= 8.75D-15 6.67D-09 XBig12= 1.18D-14 2.98D-08.
 InvSVY:  IOpt=1 It=  1 EMax= 1.44D-15
 Solved reduced A of dimension    93 with    12 vectors.
 FullF1:  Do perturbations    1 to     3.
 Isotropic polarizability for W=    0.000000       25.37 Bohr**3.
 End of Minotr F.D. properties file   721 does not exist.
 End of Minotr F.D. properties file   722 does not exist.
 End of Minotr F.D. properties file   788 does not exist.
 Leave Link 1002 at Sun Mar  4 20:56:21 2018, MaxMem=    33554432 cpu:         8.7
 (Enter /apl/tryton/gaussian/09/d01/g09/l601.exe)
 Copying SCF densities to generalized density rwf, IOpCl= 1 IROHF=0.

 **********************************************************************

            Population analysis using the SCF density.

 **********************************************************************

 Orbital symmetries:
 Alpha Orbitals:
       Occupied  (A') (A') (A') (A') (A') (A') (A') (A") (A') (A")
                 (A')
       Virtual   (A') (A') (A") (A') (A') (A") (A') (A') (A") (A')
                 (A') (A') (A') (A") (A') (A') (A') (A') (A") (A')
                 (A') (A") (A') (A') (A') (A') (A') (A") (A") (A')
                 (A') (A') (A") (A') (A") (A') (A') (A') (A") (A')
                 (A") (A') (A') (A') (A") (A') (A') (A") (A") (A')
                 (A') (A') (A") (A') (A') (A') (A") (A') (A') (A')
                 (A') (A')
 Beta  Orbitals:
       Occupied  (A') (A') (A') (A') (A') (A') (A') (A') (A") (A')
       Virtual   (A") (A') (A') (A') (A") (A') (A") (A') (A') (A')
                 (A") (A') (A') (A') (A') (A") (A') (A') (A') (A")
                 (A') (A') (A") (A') (A') (A') (A') (A') (A") (A")
                 (A') (A') (A') (A") (A') (A") (A') (A') (A') (A")
                 (A') (A") (A') (A') (A') (A") (A') (A') (A") (A")
                 (A') (A') (A') (A") (A') (A') (A') (A") (A') (A')
                 (A') (A') (A')
 The electronic state is 2-A".
 Alpha  occ. eigenvalues --  -19.21084 -10.30164 -10.22956  -1.13854  -0.80500
 Alpha  occ. eigenvalues --   -0.56525  -0.52374  -0.48819  -0.46523  -0.30396
 Alpha  occ. eigenvalues --   -0.28380
 Alpha virt. eigenvalues --   -0.01111  -0.00613   0.01797   0.03227   0.05793
 Alpha virt. eigenvalues --    0.05893   0.08951   0.10227   0.10410   0.11190
 Alpha virt. eigenvalues --    0.14715   0.18138   0.23391   0.25822   0.26016
 Alpha virt. eigenvalues --    0.29895   0.32808   0.43201   0.49672   0.51268
 Alpha virt. eigenvalues --    0.53667   0.56742   0.61610   0.68243   0.77674
 Alpha virt. eigenvalues --    0.84240   0.90857   1.02485   1.07719   1.09619
 Alpha virt. eigenvalues --    1.12240   1.14823   1.18209   1.31705   1.35467
 Alpha virt. eigenvalues --    1.41813   1.63493   1.70918   1.71085   1.90415
 Alpha virt. eigenvalues --    2.06164   2.11824   2.50845   2.59225   2.61189
 Alpha virt. eigenvalues --    2.72138   2.77395   2.77464   2.82135   2.87409
 Alpha virt. eigenvalues --    2.90228   3.17703   3.44422   3.51779   3.63917
 Alpha virt. eigenvalues --    3.82900   4.97909   5.01987   5.58342  23.58574
 Alpha virt. eigenvalues --   24.70200  49.96778
  Beta  occ. eigenvalues --  -19.20259 -10.30206 -10.21932  -1.12421  -0.77464
  Beta  occ. eigenvalues --   -0.55385  -0.51450  -0.46045  -0.44709  -0.26966
  Beta virt. eigenvalues --   -0.17718  -0.00896  -0.00316   0.03266   0.04200
  Beta virt. eigenvalues --    0.05958   0.07247   0.09132   0.10324   0.11480
  Beta virt. eigenvalues --    0.11785   0.14953   0.18687   0.23645   0.26159
  Beta virt. eigenvalues --    0.26417   0.29984   0.33378   0.43822   0.51681
  Beta virt. eigenvalues --    0.51725   0.53785   0.59053   0.62014   0.69083
  Beta virt. eigenvalues --    0.78592   0.84346   0.92485   1.04952   1.09907
  Beta virt. eigenvalues --    1.10154   1.13182   1.16116   1.20466   1.32186
  Beta virt. eigenvalues --    1.37055   1.42967   1.64395   1.73120   1.73319
  Beta virt. eigenvalues --    1.90615   2.08845   2.12400   2.50998   2.59644
  Beta virt. eigenvalues --    2.64077   2.72686   2.79692   2.80193   2.85294
  Beta virt. eigenvalues --    2.88154   2.91315   3.18353   3.46746   3.52194
  Beta virt. eigenvalues --    3.65236   3.84022   5.01374   5.02639   5.59017
  Beta virt. eigenvalues --   23.59309  24.70671  49.97604
          Condensed to atoms (all electrons):
               1          2          3          4
     1  C    5.453588   0.347228  -0.065401   0.137017
     2  C    0.347228   5.312824   0.416578   0.029871
     3  H   -0.065401   0.416578   0.477376   0.002519
     4  O    0.137017   0.029871   0.002519   8.020588
          Atomic-Atomic Spin Densities.
               1          2          3          4
     1  C   -0.012748   0.082179  -0.004061  -0.055112
     2  C    0.082179   0.669187  -0.007775  -0.013204
     3  H   -0.004061  -0.007775  -0.029524  -0.000115
     4  O   -0.055112  -0.013204  -0.000115   0.369261
 Mulliken charges and spin densities:
               1          2
     1  C    0.127567   0.010258
     2  C   -0.106500   0.730387
     3  H    0.168928  -0.041475
     4  O   -0.189995   0.300830
 Sum of Mulliken charges =   0.00000   1.00000
 Mulliken charges and spin densities with hydrogens summed into heavy atoms:
               1          2
     1  C    0.127567   0.010258
     2  C    0.062428   0.688912
     4  O   -0.189995   0.300830
 APT charges:
               1
     1  C    0.851953
     2  C   -0.543342
     3  H    0.289626
     4  O   -0.598238
 Sum of APT charges =  -0.00000
 APT charges with hydrogens summed into heavy atoms:
               1
     1  C    0.851953
     2  C   -0.253715
     4  O   -0.598238
 Electronic spatial extent (au):  <R**2>=            130.2376
 Charge=              0.0000 electrons
 Dipole moment (field-independent basis, Debye):
    X=              1.8378    Y=              0.2423    Z=             -0.0000  Tot=              1.8537
 Quadrupole moment (field-independent basis, Debye-Ang):
   XX=            -15.3117   YY=            -19.4713   ZZ=            -16.4290
   XY=              0.7731   XZ=              0.0000   YZ=              0.0000
 Traceless Quadrupole moment (field-independent basis, Debye-Ang):
   XX=              1.7590   YY=             -2.4007   ZZ=              0.6417
   XY=              0.7731   XZ=              0.0000   YZ=              0.0000
 Octapole moment (field-independent basis, Debye-Ang**2):
  XXX=              4.7980  YYY=              7.8000  ZZZ=             -0.0000  XYY=             -2.7480
  XXY=             -1.3782  XXZ=             -0.0000  XZZ=             -2.1139  YZZ=              1.7024
  YYZ=             -0.0000  XYZ=              0.0000
 Hexadecapole moment (field-independent basis, Debye-Ang**3):
 XXXX=            -87.9572 YYYY=            -56.9371 ZZZZ=            -16.4291 XXXY=             20.8115
 XXXZ=              0.0000 YYYX=             29.0998 YYYZ=              0.0000 ZZZX=              0.0000
 ZZZY=              0.0000 XXYY=            -27.4233 XXZZ=            -20.7005 YYZZ=            -11.4403
 XXYZ=              0.0000 YYXZ=             -0.0000 ZZXY=              8.5498
 N-N= 5.245519298435D+01 E-N=-4.606486610579D+02  KE= 1.514399470700D+02
 Symmetry A'   KE= 1.461913174302D+02
 Symmetry A"   KE= 5.248629639885D+00
  Exact polarizability:  34.496 -12.461  25.060   0.000  -0.000  16.562
 Approx polarizability:  59.699 -29.176  41.264   0.000  -0.000  17.531
                          Isotropic Fermi Contact Couplings
        Atom                 a.u.       MegaHertz       Gauss      10(-4) cm-1
     1  C(13)             -0.04353     -48.93344     -17.46067     -16.32244
     2  C(13)              0.04511      50.70885      18.09418      16.91465
     3  H(1)              -0.01101     -49.20047     -17.55595     -16.41151
     4  O(17)              0.02374     -14.38885      -5.13430      -4.79960
 --------------------------------------------------------
       Center         ----  Spin Dipole Couplings  ----
                      3XX-RR        3YY-RR        3ZZ-RR
 --------------------------------------------------------
     1   Atom        0.008237     -0.073973      0.065736
     2   Atom       -0.420493     -0.390279      0.810772
     3   Atom        0.059931     -0.052819     -0.007112
     4   Atom       -0.649294     -0.661711      1.311005
 --------------------------------------------------------
                        XY            XZ            YZ
 --------------------------------------------------------
     1   Atom       -0.075456     -0.000000      0.000000
     2   Atom        0.000806     -0.000000      0.000000
     3   Atom        0.003040      0.000000      0.000000
     4   Atom       -0.007102      0.000000     -0.000000
 --------------------------------------------------------


 ---------------------------------------------------------------------------------
              Anisotropic Spin Dipole Couplings in Principal Axis System
 ---------------------------------------------------------------------------------

       Atom             a.u.   MegaHertz   Gauss  10(-4) cm-1        Axes

              Baa    -0.1188   -15.941    -5.688    -5.317  0.5107  0.8598 -0.0000
     1 C(13)  Bbb     0.0531     7.120     2.541     2.375  0.8598 -0.5107  0.0000
              Bcc     0.0657     8.821     3.148     2.942  0.0000  0.0000  1.0000
 
              Baa    -0.4205   -56.429   -20.135   -18.823  0.9996 -0.0266  0.0000
     2 C(13)  Bbb    -0.3903   -52.369   -18.687   -17.468  0.0266  0.9996 -0.0000
              Bcc     0.8108   108.798    38.822    36.291  0.0000  0.0000  1.0000
 
              Baa    -0.0529   -28.226   -10.072    -9.415 -0.0269  0.9996 -0.0000
     3 H(1)   Bbb    -0.0071    -3.795    -1.354    -1.266  0.0000  0.0000  1.0000
              Bcc     0.0600    32.020    11.426    10.681  0.9996  0.0269 -0.0000
 
              Baa    -0.6649    48.114    17.168    16.049  0.4134  0.9105 -0.0000
     4 O(17)  Bbb    -0.6461    46.749    16.681    15.594  0.9105 -0.4134  0.0000
              Bcc     1.3110   -94.863   -33.850   -31.643  0.0000  0.0000  1.0000
 

 ---------------------------------------------------------------------------------

 No NMR shielding tensors so no spin-rotation constants.
 Leave Link  601 at Sun Mar  4 20:56:21 2018, MaxMem=    33554432 cpu:         0.2
 (Enter /apl/tryton/gaussian/09/d01/g09/l701.exe)
 Compute integral second derivatives.
 ... and contract with generalized density number  0.
 Leave Link  701 at Sun Mar  4 20:56:21 2018, MaxMem=    33554432 cpu:         0.2
 (Enter /apl/tryton/gaussian/09/d01/g09/l702.exe)
 L702 exits ... SP integral derivatives will be done elsewhere.
 Leave Link  702 at Sun Mar  4 20:56:21 2018, MaxMem=    33554432 cpu:         0.0
 (Enter /apl/tryton/gaussian/09/d01/g09/l703.exe)
 Compute integral second derivatives, UseDBF=F ICtDFT=           0.
 Integral derivatives from FoFJK, PRISM(SPDF).
 Calling FoFJK, ICntrl=    100127 FMM=F ISym2X=1 I1Cent= 0 IOpClX= 1 NMat=1 NMatS=1 NMatT=0.
 FoFJK:  IHMeth= 1 ICntrl=  100127 DoSepK=F KAlg= 0 I1Cent=   0 FoldK=F
 IRaf=         0 NMat=   1 IRICut=       1 DoRegI=T DoRafI=F ISym2E= 1.
 FoFCou: FMM=F IPFlag=           0 FMFlag=      100000 FMFlg1=         800
         NFxFlg=           0 DoJE=F BraDBF=F KetDBF=F FulRan=T
         wScrn=  0.000000 ICntrl=  100127 IOpCl=  1 I1Cent=           0 NGrid=           0
         NMat0=    1 NMatS0=      1 NMatT0=    0 NMatD0=    1 NMtDS0=    0 NMtDT0=    0
 Petite list used in FoFCou.
 Leave Link  703 at Sun Mar  4 20:56:26 2018, MaxMem=    33554432 cpu:         5.3
 (Enter /apl/tryton/gaussian/09/d01/g09/l716.exe)
 Dipole        = 7.23035190D-01 9.53151798D-02-1.23925128D-17
 Polarizability= 3.44956471D+01-1.24614132D+01 2.50596305D+01
                 2.64122662D-07-4.12794169D-07 1.65616503D+01
 Full mass-weighted force constant matrix:
 Low frequencies ---  -15.6252   -7.6567   -6.6869   -0.0010   -0.0008   -0.0004
 Low frequencies ---  426.4648  502.0712  555.8251
 Diagonal vibrational polarizability:
       10.0436702      28.4313070       0.3074437
 Harmonic frequencies (cm**-1), IR intensities (KM/Mole), Raman scattering
 activities (A**4/AMU), depolarization ratios for plane and unpolarized
 incident light, reduced masses (AMU), force constants (mDyne/A),
 and normal coordinates:
                      1                      2                      3
                     A'                     A"                     A'
 Frequencies --    426.4648               502.0711               555.8251
 Red. masses --      1.2365                 4.2952                 7.6034
 Frc consts  --      0.1325                 0.6379                 1.3840
 IR Inten    --    241.5318                 2.8798                 3.7763
  Atom  AN      X      Y      Z        X      Y      Z        X      Y      Z
     1   6    -0.00  -0.05   0.00     0.00   0.00   0.47     0.31   0.58  -0.00
     2   6     0.02   0.13  -0.00    -0.00  -0.00  -0.13    -0.15  -0.19   0.00
     3   1     0.08  -0.99  -0.00    -0.00   0.00  -0.85    -0.10  -0.65   0.00
     4   8    -0.01  -0.00  -0.00     0.00   0.00  -0.20    -0.11  -0.26   0.00
                      4                      5                      6
                     A'                     A'                     A'
 Frequencies --   1268.1950              2086.6363              3354.5463
 Red. masses --      7.8021                 9.7568                 1.1072
 Frc consts  --      7.3933                25.0294                 7.3407
 IR Inten    --      9.1843               344.0896                53.0019
  Atom  AN      X      Y      Z        X      Y      Z        X      Y      Z
     1   6    -0.03   0.05   0.00     0.67  -0.34  -0.00     0.01  -0.01  -0.00
     2   6     0.50  -0.31  -0.00    -0.22   0.11   0.00    -0.09   0.00   0.00
     3   1     0.60  -0.30  -0.00    -0.39   0.31   0.00     0.99   0.07   0.00
     4   8    -0.39   0.21  -0.00    -0.32   0.15   0.00     0.00  -0.00   0.00

 -------------------
 - Thermochemistry -
 -------------------
 Temperature   298.150 Kelvin.  Pressure   1.00000 Atm.
 Atom     1 has atomic number  6 and mass  12.00000
 Atom     2 has atomic number  6 and mass  12.00000
 Atom     3 has atomic number  1 and mass   1.00783
 Atom     4 has atomic number  8 and mass  15.99491
 Molecular mass:    41.00274 amu.
 Principal axes and moments of inertia in atomic units:
                           1         2         3
     Eigenvalues --     1.39913 165.33495 166.73408
           X            0.87022   0.49266   0.00000
           Y           -0.49266   0.87022   0.00000
           Z            0.00000  -0.00000   1.00000
 This molecule is an asymmetric top.
 Rotational symmetry number  1.
 Rotational temperatures (Kelvin)     61.90546     0.52387     0.51947
 Rotational constants (GHZ):        1289.90197    10.91567    10.82407
 Zero-point vibrational energy      49009.4 (Joules/Mol)
                                   11.71354 (Kcal/Mol)
 Warning -- explicit consideration of   3 degrees of freedom as
           vibrations may cause significant error
 Vibrational temperatures:    613.59   722.37   799.71  1824.65  3002.20
          (Kelvin)           4826.44
 
 Zero-point correction=                           0.018667 (Hartree/Particle)
 Thermal correction to Energy=                    0.022205
 Thermal correction to Enthalpy=                  0.023150
 Thermal correction to Gibbs Free Energy=        -0.004798
 Sum of electronic and zero-point Energies=           -151.955523
 Sum of electronic and thermal Energies=              -151.951984
 Sum of electronic and thermal Enthalpies=            -151.951040
 Sum of electronic and thermal Free Energies=         -151.978988
 
                     E (Thermal)             CV                S
                      KCal/Mol        Cal/Mol-Kelvin    Cal/Mol-Kelvin
 Total                   13.934              9.920             58.821
 Electronic               0.000              0.000              1.377
 Translational            0.889              2.981             37.061
 Rotational               0.889              2.981             18.296
 Vibrational             12.157              3.958              2.088
 Vibration     1          0.788              1.413              0.870
 Vibration     2          0.857              1.245              0.653
 Vibration     3          0.911              1.127              0.532
                       Q            Log10(Q)             Ln(Q)
 Total Bot       0.161071D+03          2.207016          5.081843
 Total V=0       0.620996D+11         10.793089         24.852005
 Vib (Bot)       0.351028D-08         -8.454658        -19.467570
 Vib (Bot)    1  0.409690D+00         -0.387545         -0.892355
 Vib (Bot)    2  0.326748D+00         -0.485787         -1.118566
 Vib (Bot)    3  0.280761D+00         -0.551664         -1.270253
 Vib (V=0)       0.135336D+01          0.131414          0.302592
 Vib (V=0)    1  0.114641D+01          0.059340          0.136635
 Vib (V=0)    2  0.109730D+01          0.040324          0.092850
 Vib (V=0)    3  0.107343D+01          0.030775          0.070863
 Electronic      0.200000D+01          0.301030          0.693147
 Translational   0.103199D+08          7.013675         16.149582
 Rotational      0.222316D+04          3.346970          7.706683
 
                                                                 min
                                                             IR Spectrum
 
     3                                                2                             1                                                
     3                                                0                             2                          5 5  4                
     5                                                8                             6                          5 0  2                
     5                                                7                             8                          6 2  6                
 
     X                                                X                             X                          X X  X                
     X                                                X                                                             X                
     X                                                X                                                             X                
                                                      X                                                             X                
                                                      X                                                             X                
                                                      X                                                             X                
                                                      X                                                             X                
                                                      X                                                             X                
                                                      X                                                             X                
                                                      X                                                             X                
                                                      X                                                             X                
                                                      X                                                             X                
                                                      X                                                             X                
                                                      X                                                             X                
                                                      X                                                                              
                                                      X                                                                              
                                                      X                                                                              
                                                      X                                                                              
                                                      X                                                                              
                                                      X                                                                              
 
 ***** Axes restored to original set *****
 -------------------------------------------------------------------
 Center     Atomic                   Forces (Hartrees/Bohr)
 Number     Number              X              Y              Z
 -------------------------------------------------------------------
      1        6           0.000011476   -0.000008025   -0.000007192
      2        6           0.000029945   -0.000046891   -0.000017746
      3        1          -0.000029878    0.000029141    0.000018399
      4        8          -0.000011543    0.000025775    0.000006538
 -------------------------------------------------------------------
 Cartesian Forces:  Max     0.000046891 RMS     0.000023415
 Z-matrix is all fixed cartesians, so copy forces.
 Force constants in Cartesian coordinates: 
                1             2             3             4             5 
      1  0.181734D+00
      2 -0.327159D+00  0.127877D+01
      3 -0.589713D-01  0.166606D+00  0.103969D+00
      4 -0.654574D-01  0.147730D+00  0.241012D-01  0.205713D+00
      5  0.105632D+00 -0.497127D+00 -0.503484D-01 -0.310885D+00  0.773702D+00
      6  0.257543D-01 -0.778852D-01 -0.335303D-01 -0.118824D+00  0.173181D+00
      7 -0.381121D-02 -0.322261D-01 -0.329497D-02 -0.158629D+00  0.189400D+00
      8  0.127177D-01 -0.354331D-01 -0.735080D-02  0.151766D+00 -0.159320D+00
      9 -0.505985D-02  0.220473D-01 -0.833930D-02  0.997429D-01 -0.117515D+00
     10 -0.112465D+00  0.211655D+00  0.381651D-01  0.183734D-01  0.158525D-01
     11  0.208809D+00 -0.746214D+00 -0.108907D+00  0.113883D-01 -0.117256D+00
     12  0.382769D-01 -0.110768D+00 -0.620994D-01 -0.502029D-02 -0.531779D-02
                6             7             8             9            10 
      6  0.763141D-01
      7  0.982651D-01  0.159309D+00
      8 -0.928985D-01 -0.162764D+00  0.182514D+00
      9 -0.576586D-01 -0.967625D-01  0.993613D-01  0.609982D-01
     10 -0.519560D-02  0.313119D-02 -0.171972D-02  0.207938D-02  0.909607D-01
     11 -0.239771D-02  0.559016D-02  0.122387D-01 -0.389343D-02 -0.225788D+00
     12  0.148747D-01  0.179233D-02  0.888020D-03  0.499966D-02 -0.350489D-01
               11            12 
     11  0.851232D+00
     12  0.115198D+00  0.422250D-01
 Leave Link  716 at Sun Mar  4 20:56:26 2018, MaxMem=    33554432 cpu:         0.0
 (Enter /apl/tryton/gaussian/09/d01/g09/l103.exe)

 GradGradGradGradGradGradGradGradGradGradGradGradGradGradGradGradGradGrad
 Berny optimization.
 Search for a local minimum.
 Step number   1 out of a maximum of    2
 All quantities printed in internal units (Hartrees-Bohrs-Radians)
 Second derivative matrix not updated -- analytic derivatives used.
 The second derivative matrix:
                          X1        Y1        Z1        X2        Y2
           X1           0.18173
           Y1          -0.32716   1.27877
           Z1          -0.05897   0.16661   0.10397
           X2          -0.06546   0.14773   0.02410   0.20571
           Y2           0.10563  -0.49713  -0.05035  -0.31088   0.77370
           Z2           0.02575  -0.07789  -0.03353  -0.11882   0.17318
           X3          -0.00381  -0.03223  -0.00329  -0.15863   0.18940
           Y3           0.01272  -0.03543  -0.00735   0.15177  -0.15932
           Z3          -0.00506   0.02205  -0.00834   0.09974  -0.11752
           X4          -0.11247   0.21165   0.03817   0.01837   0.01585
           Y4           0.20881  -0.74621  -0.10891   0.01139  -0.11726
           Z4           0.03828  -0.11077  -0.06210  -0.00502  -0.00532
                          Z2        X3        Y3        Z3        X4
           Z2           0.07631
           X3           0.09827   0.15931
           Y3          -0.09290  -0.16276   0.18251
           Z3          -0.05766  -0.09676   0.09936   0.06100
           X4          -0.00520   0.00313  -0.00172   0.00208   0.09096
           Y4          -0.00240   0.00559   0.01224  -0.00389  -0.22579
           Z4           0.01487   0.00179   0.00089   0.00500  -0.03505
                          Y4        Z4
           Y4           0.85123
           Z4           0.11520   0.04223
 ITU=  0
     Eigenvalues ---    0.01392   0.09907   0.13923   0.38455   1.15725
     Eigenvalues ---    2.14235
 Angle between quadratic step and forces=  61.36 degrees.
 ClnCor:  largest displacement from symmetrization is 7.26D-13 for atom     1.
 Linear search not attempted -- first point.
 ClnCor:  largest displacement from symmetrization is 1.55D-15 for atom     3.
 TrRot=  0.000015  0.000002 -0.000002 -0.000007 -0.000018 -0.000007
 Variable       Old X    -DE/DX   Delta X   Delta X   Delta X     New X
                                 (Linear)    (Quad)   (Total)
    X1       -0.12666   0.00001   0.00000   0.00006   0.00006  -0.12660
    Y1       -0.60143  -0.00001   0.00000   0.00001   0.00002  -0.60141
    Z1        0.03609  -0.00001   0.00000  -0.00004  -0.00004   0.03604
    X2       -0.47210   0.00003   0.00000   0.00005   0.00008  -0.47201
    Y2        1.80078  -0.00005   0.00000  -0.00000   0.00001   1.80079
    Z2        0.16771  -0.00002   0.00000  -0.00003  -0.00004   0.16766
    X3       -1.77543  -0.00003   0.00000  -0.00012  -0.00008  -1.77551
    Y3        3.12682   0.00003   0.00000  -0.00006  -0.00003   3.12679
    Z3        0.96815   0.00002   0.00000   0.00008   0.00005   0.96820
    X4        0.46723  -0.00001   0.00000  -0.00005  -0.00007   0.46716
    Y4       -2.71714   0.00003   0.00000   0.00001   0.00000  -2.71714
    Z4       -0.26930   0.00001   0.00000   0.00003   0.00004  -0.26926
         Item               Value     Threshold  Converged?
 Maximum Force            0.000047     0.000450     YES
 RMS     Force            0.000023     0.000300     YES
 Maximum Displacement     0.000084     0.001800     YES
 RMS     Displacement     0.000050     0.001200     YES
 Predicted change in Energy=-3.728930D-09
 Optimization completed.
    -- Stationary point found.
 GradGradGradGradGradGradGradGradGradGradGradGradGradGradGradGradGradGrad

 Leave Link  103 at Sun Mar  4 20:56:26 2018, MaxMem=    33554432 cpu:         0.0
 (Enter /apl/tryton/gaussian/09/d01/g09/l9999.exe)
 1\1\ CITASK-GV0706\Freq\UB3LYP\6-311++G(d,p)\C2H1O1(2)\EERD\04-Mar-201
 8\0\\#p b3lyp/6-311++g(d,p) freq\\min\\0,2\C,-0.067026,-0.318262,0.019
 096\C,-0.249822,0.952934,0.088746\H,-0.939514912,1.654641883,0.5123242
 19\O,0.247245369,-1.43785118,-0.142506451\\Version=ES64L-G09RevD.01\St
 ate=2-A"\HF=-151.9741897\S2=0.757826\S2-1=0.\S2A=0.750034\RMSD=2.738e-
 09\RMSF=2.341e-05\ZeroPoint=0.0186667\Thermal=0.0222054\Dipole=-0.4863
 201,0.4529528,0.3003188\DipoleDeriv=0.3599749,-0.3617387,0.1139391,-0.
 1311105,1.7594087,0.0367939,0.1048826,0.1876495,0.4364751,-0.3412304,-
 0.1462435,-0.1202999,0.0033708,-0.8331846,0.0095467,-0.1261751,0.10741
 05,-0.4556103,0.2185133,0.137087,0.0510276,0.0136182,0.3785256,-0.0118
 047,0.055876,-0.0925666,0.2718402,-0.2372578,0.3708952,-0.0446667,0.11
 41215,-1.3047498,-0.0345359,-0.0345836,-0.2024935,-0.252705\Polar=17.1
 255654,-4.0699485,42.3577402,-0.2090394,1.6492051,16.6336222\PG=CS [SG
 (C2H1O1)]\NImag=0\\0.18173388,-0.32715907,1.27877421,-0.05897132,0.166
 60630,0.10396899,-0.06545737,0.14773019,0.02410118,0.20571277,0.105632
 02,-0.49712668,-0.05034844,-0.31088468,0.77370238,0.02575432,-0.077885
 17,-0.03353028,-0.11882383,0.17318143,0.07631414,-0.00381121,-0.032226
 09,-0.00329497,-0.15862883,0.18940015,0.09826511,0.15930884,0.01271774
 ,-0.03543313,-0.00735080,0.15176620,-0.15931963,-0.09289855,-0.1627642
 2,0.18251410,-0.00505985,0.02204730,-0.00833930,0.09974294,-0.11751520
 ,-0.05765858,-0.09676247,0.09936133,0.06099822,-0.11246530,0.21165497,
 0.03816511,0.01837343,0.01585251,-0.00519560,0.00313119,-0.00171972,0.
 00207938,0.09096068,0.20880931,-0.74621440,-0.10890706,0.01138829,-0.1
 1725607,-0.00239771,0.00559016,0.01223866,-0.00389343,-0.22578776,0.85
 123180,0.03827685,-0.11076843,-0.06209941,-0.00502029,-0.00531779,0.01
 487472,0.00179233,0.00088802,0.00499966,-0.03504889,0.11519820,0.04222
 503\\-0.00001148,0.00000802,0.00000719,-0.00002994,0.00004689,0.000017
 75,0.00002988,-0.00002914,-0.00001840,0.00001154,-0.00002578,-0.000006
 54\\\@


 THE ... SCIENTISTS WERE WRONG ... THE MOST PERSISTENT PRINCIPLES 
 OF THE UNIVERSE WERE ACCIDENT AND ERROR.

                          -- FRANK HERBERT IN DUNE
 Job cpu time:       0 days  0 hours  0 minutes 24.5 seconds.
 File lengths (MBytes):  RWF=     10 Int=      0 D2E=      0 Chk=      1 Scr=      1
 Normal termination of Gaussian 09 at Sun Mar  4 20:56:26 2018.
