 Entering Gaussian System, Link 0=g09
 Initial command:
 /apl/tryton/gaussian/09/d01/g09/l1.exe "/users/work/eerd/M3C-outputs/ionized/4/Gau-13094.inp" -scrdir="/users/work/eerd/M3C-outputs/ionized/4/"
 Entering Link 1 = /apl/tryton/gaussian/09/d01/g09/l1.exe PID=     13095.
  
 Copyright (c) 1988,1990,1992,1993,1995,1998,2003,2009,2013,
            Gaussian, Inc.  All Rights Reserved.
  
 This is part of the Gaussian(R) 09 program.  It is based on
 the Gaussian(R) 03 system (copyright 2003, Gaussian, Inc.),
 the Gaussian(R) 98 system (copyright 1998, Gaussian, Inc.),
 the Gaussian(R) 94 system (copyright 1995, Gaussian, Inc.),
 the Gaussian 92(TM) system (copyright 1992, Gaussian, Inc.),
 the Gaussian 90(TM) system (copyright 1990, Gaussian, Inc.),
 the Gaussian 88(TM) system (copyright 1988, Gaussian, Inc.),
 the Gaussian 86(TM) system (copyright 1986, Carnegie Mellon
 University), and the Gaussian 82(TM) system (copyright 1983,
 Carnegie Mellon University). Gaussian is a federally registered
 trademark of Gaussian, Inc.
  
 This software contains proprietary and confidential information,
 including trade secrets, belonging to Gaussian, Inc.
  
 This software is provided under written license and may be
 used, copied, transmitted, or stored only in accord with that
 written license.
  
 The following legend is applicable only to US Government
 contracts under FAR:
  
                    RESTRICTED RIGHTS LEGEND
  
 Use, reproduction and disclosure by the US Government is
 subject to restrictions as set forth in subparagraphs (a)
 and (c) of the Commercial Computer Software - Restricted
 Rights clause in FAR 52.227-19.
  
 Gaussian, Inc.
 340 Quinnipiac St., Bldg. 40, Wallingford CT 06492
  
  
 ---------------------------------------------------------------
 Warning -- This program may not be used in any manner that
 competes with the business of Gaussian, Inc. or will provide
 assistance to any competitor of Gaussian, Inc.  The licensee
 of this program is prohibited from giving any competitor of
 Gaussian, Inc. access to this program.  By using this program,
 the user acknowledges that Gaussian, Inc. is engaged in the
 business of creating and licensing software in the field of
 computational chemistry and represents and warrants to the
 licensee that it is not a competitor of Gaussian, Inc. and that
 it will not use this program in any manner prohibited above.
 ---------------------------------------------------------------
  

 Cite this work as:
 Gaussian 09, Revision D.01,
 M. J. Frisch, G. W. Trucks, H. B. Schlegel, G. E. Scuseria, 
 M. A. Robb, J. R. Cheeseman, G. Scalmani, V. Barone, B. Mennucci, 
 G. A. Petersson, H. Nakatsuji, M. Caricato, X. Li, H. P. Hratchian, 
 A. F. Izmaylov, J. Bloino, G. Zheng, J. L. Sonnenberg, M. Hada, 
 M. Ehara, K. Toyota, R. Fukuda, J. Hasegawa, M. Ishida, T. Nakajima, 
 Y. Honda, O. Kitao, H. Nakai, T. Vreven, J. A. Montgomery, Jr., 
 J. E. Peralta, F. Ogliaro, M. Bearpark, J. J. Heyd, E. Brothers, 
 K. N. Kudin, V. N. Staroverov, T. Keith, R. Kobayashi, J. Normand, 
 K. Raghavachari, A. Rendell, J. C. Burant, S. S. Iyengar, J. Tomasi, 
 M. Cossi, N. Rega, J. M. Millam, M. Klene, J. E. Knox, J. B. Cross, 
 V. Bakken, C. Adamo, J. Jaramillo, R. Gomperts, R. E. Stratmann, 
 O. Yazyev, A. J. Austin, R. Cammi, C. Pomelli, J. W. Ochterski, 
 R. L. Martin, K. Morokuma, V. G. Zakrzewski, G. A. Voth, 
 P. Salvador, J. J. Dannenberg, S. Dapprich, A. D. Daniels, 
 O. Farkas, J. B. Foresman, J. V. Ortiz, J. Cioslowski, 
 and D. J. Fox, Gaussian, Inc., Wallingford CT, 2013.
 
 ******************************************
 Gaussian 09:  ES64L-G09RevD.01 24-Apr-2013
                24-Jan-2019 
 ******************************************
 ---------------------------
 #p b3lyp/6-311++g(d,p) freq
 ---------------------------
 1/10=4,30=1,38=1/1,3;
 2/12=2,17=6,18=5,40=1/2;
 3/5=4,6=6,7=1111,11=2,16=1,25=1,30=1,71=2,74=-5,140=1/1,2,3;
 4//1;
 5/5=2,38=5,98=1/2;
 8/6=4,10=90,11=11/1;
 11/6=1,8=1,9=11,15=111,16=1/1,2,10;
 10/6=1/2;
 6/7=2,8=2,9=2,10=2,18=1,28=1/1;
 7/8=1,10=1,25=1/1,2,3,16;
 1/10=4,30=1/3;
 99//99;
 Leave Link    1 at Thu Jan 24 15:35:33 2019, MaxMem=           0 cpu:         0.0
 (Enter /apl/tryton/gaussian/09/d01/g09/l101.exe)
 ---
 min
 ---
 Symbolic Z-matrix:
 Charge =  1 Multiplicity = 3
 C                    -0.13411   0.00683   0.31953 
 C                     0.22446   1.36145  -0.21688 
 H                    -0.72826   0.15248   1.26109 
 O                     0.15917  -1.04175  -0.1668 
 
 NAtoms=      4 NQM=        4 NQMF=       0 NMMI=      0 NMMIF=      0
                NMic=       0 NMicF=      0.
                    Isotopes and Nuclear Properties:
 (Nuclear quadrupole moments (NQMom) in fm**2, nuclear magnetic moments (NMagM)
  in nuclear magnetons)

  Atom         1           2           3           4
 IAtWgt=          12          12           1          16
 AtmWgt=  12.0000000  12.0000000   1.0078250  15.9949146
 NucSpn=           0           0           1           0
 AtZEff=   0.0000000   0.0000000   0.0000000   0.0000000
 NQMom=    0.0000000   0.0000000   0.0000000   0.0000000
 NMagM=    0.0000000   0.0000000   2.7928460   0.0000000
 AtZNuc=   6.0000000   6.0000000   1.0000000   8.0000000
 Leave Link  101 at Thu Jan 24 15:35:33 2019, MaxMem=    33554432 cpu:         0.0
 (Enter /apl/tryton/gaussian/09/d01/g09/l103.exe)

 GradGradGradGradGradGradGradGradGradGradGradGradGradGradGradGradGradGrad
 Berny optimization.
 Initialization pass.
 Trust Radius=3.00D-01 FncErr=1.00D-07 GrdErr=1.00D-07
 Number of steps in this run=      2 maximum allowed number of steps=      2.
 GradGradGradGradGradGradGradGradGradGradGradGradGradGradGradGradGradGrad

 Leave Link  103 at Thu Jan 24 15:35:33 2019, MaxMem=    33554432 cpu:         0.0
 (Enter /apl/tryton/gaussian/09/d01/g09/l202.exe)
                          Input orientation:                          
 ---------------------------------------------------------------------
 Center     Atomic      Atomic             Coordinates (Angstroms)
 Number     Number       Type             X           Y           Z
 ---------------------------------------------------------------------
      1          6           0       -0.134113    0.006828    0.319531
      2          6           0        0.224461    1.361447   -0.216879
      3          1           0       -0.728256    0.152477    1.261086
      4          8           0        0.159170   -1.041748   -0.166796
 ---------------------------------------------------------------------
                    Distance matrix (angstroms):
                    1          2          3          4
     1  C    0.000000
     2  C    1.500434   0.000000
     3  H    1.122829   2.133930   0.000000
     4  O    1.192493   2.404603   2.062169   0.000000
 Stoichiometry    C2HO(1+,3)
 Framework group  CS[SG(C2HO)]
 Deg. of freedom     5
 Full point group                 CS      NOp   2
 Largest Abelian subgroup         CS      NOp   2
 Largest concise Abelian subgroup C1      NOp   1
                         Standard orientation:                         
 ---------------------------------------------------------------------
 Center     Atomic      Atomic             Coordinates (Angstroms)
 Number     Number       Type             X           Y           Z
 ---------------------------------------------------------------------
      1          6           0        0.000000    0.347617    0.000000
      2          6           0        1.364728   -0.275938   -0.000000
      3          1           0        0.128063    1.463119    0.000000
      4          8           0       -1.039554   -0.236649   -0.000000
 ---------------------------------------------------------------------
 Rotational constants (GHZ):     94.2692572     12.7441096     11.2264270
 Leave Link  202 at Thu Jan 24 15:35:33 2019, MaxMem=    33554432 cpu:         0.0
 (Enter /apl/tryton/gaussian/09/d01/g09/l301.exe)
 Standard basis: 6-311++G(d,p) (5D, 7F)
 Ernie: Thresh=  0.10000D-02 Tol=  0.10000D-05 Strict=F.
 There are    57 symmetry adapted cartesian basis functions of A'  symmetry.
 There are    19 symmetry adapted cartesian basis functions of A"  symmetry.
 There are    54 symmetry adapted basis functions of A'  symmetry.
 There are    19 symmetry adapted basis functions of A"  symmetry.
    73 basis functions,   117 primitive gaussians,    76 cartesian basis functions
    11 alpha electrons        9 beta electrons
       nuclear repulsion energy        50.9287191010 Hartrees.
 IExCor=  402 DFT=T Ex+Corr=B3LYP ExCW=0 ScaHFX=  0.200000
 ScaDFX=  0.800000  0.720000  1.000000  0.810000 ScalE2=  1.000000  1.000000
 IRadAn=      0 IRanWt=     -1 IRanGd=            0 ICorTp=0 IEmpDi=  4
 NAtoms=    4 NActive=    4 NUniq=    4 SFac= 1.00D+00 NAtFMM=   60 NAOKFM=F Big=F
 Integral buffers will be    131072 words long.
 Raffenetti 2 integral format.
 Two-electron integral symmetry is turned on.
 Leave Link  301 at Thu Jan 24 15:35:33 2019, MaxMem=    33554432 cpu:         0.1
 (Enter /apl/tryton/gaussian/09/d01/g09/l302.exe)
 NPDir=0 NMtPBC=     1 NCelOv=     1 NCel=       1 NClECP=     1 NCelD=      1
         NCelK=      1 NCelE2=     1 NClLst=     1 CellRange=     0.0.
 One-electron integrals computed using PRISM.
 NBasis=    73 RedAO= T EigKep=  4.48D-04  NBF=    54    19
 NBsUse=    73 1.00D-06 EigRej= -1.00D+00 NBFU=    54    19
 Precomputing XC quadrature grid using
 IXCGrd= 4 IRadAn=           0 IRanWt=          -1 IRanGd=           0 AccXCQ= 0.00D+00.
 Generated NRdTot=       0 NPtTot=           0 NUsed=           0 NTot=          32
 NSgBfM=    76    76    76    76    76 MxSgAt=     4 MxSgA2=     4.
 Leave Link  302 at Thu Jan 24 15:35:33 2019, MaxMem=    33554432 cpu:         0.1
 (Enter /apl/tryton/gaussian/09/d01/g09/l303.exe)
 DipDrv:  MaxL=1.
 Leave Link  303 at Thu Jan 24 15:35:33 2019, MaxMem=    33554432 cpu:         0.0
 (Enter /apl/tryton/gaussian/09/d01/g09/l401.exe)
 ExpMin= 3.60D-02 ExpMax= 8.59D+03 ExpMxC= 1.30D+03 IAcc=3 IRadAn=         5 AccDes= 0.00D+00
 Harris functional with IExCor=  402 and IRadAn=       5 diagonalized for initial guess.
 HarFok:  IExCor=  402 AccDes= 0.00D+00 IRadAn=         5 IDoV= 1 UseB2=F ITyADJ=14
 ICtDFT=  3500011 ScaDFX=  1.000000  1.000000  1.000000  1.000000
 FoFCou: FMM=F IPFlag=           0 FMFlag=      100000 FMFlg1=           0
         NFxFlg=           0 DoJE=T BraDBF=F KetDBF=T FulRan=T
         wScrn=  0.000000 ICntrl=     500 IOpCl=  0 I1Cent=   200000004 NGrid=           0
         NMat0=    1 NMatS0=      1 NMatT0=    0 NMatD0=    1 NMtDS0=    0 NMtDT0=    0
 Petite list used in FoFCou.
 Harris En= -151.568758168042    
 JPrj=0 DoOrth=F DoCkMO=F.
 Initial guess orbital symmetries:
 Alpha Orbitals:
       Occupied  (A') (A') (A') (A') (A') (A') (A') (A") (A') (A')
                 (A")
       Virtual   (A') (A") (A') (A') (A') (A") (A') (A') (A") (A')
                 (A') (A') (A') (A") (A') (A') (A') (A') (A') (A")
                 (A') (A') (A") (A') (A') (A') (A') (A") (A') (A")
                 (A') (A") (A') (A") (A') (A') (A') (A') (A') (A")
                 (A") (A') (A') (A') (A') (A") (A') (A") (A") (A')
                 (A') (A") (A') (A') (A') (A') (A") (A') (A') (A')
                 (A') (A')
 Beta  Orbitals:
       Occupied  (A') (A') (A') (A') (A') (A') (A') (A") (A')
       Virtual   (A') (A") (A') (A") (A') (A') (A') (A") (A') (A')
                 (A") (A') (A') (A') (A') (A") (A') (A') (A') (A')
                 (A') (A") (A') (A') (A") (A') (A') (A') (A') (A")
                 (A') (A") (A') (A") (A') (A") (A') (A') (A') (A')
                 (A') (A") (A") (A') (A') (A') (A') (A") (A') (A")
                 (A") (A') (A') (A") (A') (A') (A') (A') (A") (A')
                 (A') (A') (A') (A')
 The electronic state of the initial guess is 3-A".
 Initial guess <Sx>= 0.0000 <Sy>= 0.0000 <Sz>= 1.0000 <S**2>= 2.0000 S= 1.0000
 Leave Link  401 at Thu Jan 24 15:35:34 2019, MaxMem=    33554432 cpu:         0.5
 (Enter /apl/tryton/gaussian/09/d01/g09/l502.exe)
 UHF open shell SCF:
 Using DIIS extrapolation, IDIIS=  1040.
 Integral symmetry usage will be decided dynamically.
 Keep R1 and R2 ints in memory in symmetry-blocked form, NReq=5834848.
 IVT=       36921 IEndB=       36921 NGot=    33554432 MDV=    29650159
 LenX=    29650159 LenY=    29643942
 Requested convergence on RMS density matrix=1.00D-08 within 128 cycles.
 Requested convergence on MAX density matrix=1.00D-06.
 Requested convergence on             energy=1.00D-06.
 No special actions if energy rises.
 FoFCou: FMM=F IPFlag=           0 FMFlag=           0 FMFlg1=           0
         NFxFlg=           0 DoJE=F BraDBF=F KetDBF=F FulRan=T
         wScrn=  0.000000 ICntrl=     600 IOpCl=  0 I1Cent=           0 NGrid=           0
         NMat0=    1 NMatS0=   2701 NMatT0=    0 NMatD0=    1 NMtDS0=    0 NMtDT0=    0
 Petite list used in FoFCou.

 Cycle   1  Pass 1  IDiag  1:
 E= -151.349499084481    
 DIIS: error= 6.23D-02 at cycle   1 NSaved=   1.
 NSaved= 1 IEnMin= 1 EnMin= -151.349499084481     IErMin= 1 ErrMin= 6.23D-02
 ErrMax= 6.23D-02  0.00D+00 EMaxC= 1.00D-01 BMatC= 4.43D-01 BMatP= 4.43D-01
 IDIUse=3 WtCom= 3.77D-01 WtEn= 6.23D-01
 Coeff-Com:  0.100D+01
 Coeff-En:   0.100D+01
 Coeff:      0.100D+01
 Gap=     0.034 Goal=   None    Shift=    0.000
 Gap=     0.042 Goal=   None    Shift=    0.000
 GapD=    0.034 DampG=0.250 DampE=0.500 DampFc=0.2500 IDamp=-1.
 Damping current iteration by 2.50D-01
 RMSDP=1.44D-02 MaxDP=2.50D-01              OVMax= 7.07D-01

 Cycle   2  Pass 1  IDiag  1:
 E= -151.257560646578     Delta-E=        0.091938437903 Rises=F Damp=T
 DIIS: error= 3.78D-02 at cycle   2 NSaved=   2.
 NSaved= 2 IEnMin= 1 EnMin= -151.349499084481     IErMin= 2 ErrMin= 3.78D-02
 ErrMax= 3.78D-02  0.00D+00 EMaxC= 1.00D-01 BMatC= 1.64D-01 BMatP= 4.43D-01
 IDIUse=3 WtCom= 6.22D-01 WtEn= 3.78D-01
 Coeff-Com:  0.349D+00 0.651D+00
 Coeff-En:   0.687D+00 0.313D+00
 Coeff:      0.477D+00 0.523D+00
 Gap=     0.020 Goal=   None    Shift=    0.000
 Gap=     0.052 Goal=   None    Shift=    0.000
 RMSDP=4.66D-03 MaxDP=7.22D-02 DE= 9.19D-02 OVMax= 9.14D-01

 Cycle   3  Pass 1  IDiag  1:
 E= -151.470906238006     Delta-E=       -0.213345591427 Rises=F Damp=F
 DIIS: error= 9.05D-03 at cycle   3 NSaved=   3.
 NSaved= 3 IEnMin= 3 EnMin= -151.470906238006     IErMin= 3 ErrMin= 9.05D-03
 ErrMax= 9.05D-03  0.00D+00 EMaxC= 1.00D-01 BMatC= 1.79D-02 BMatP= 1.64D-01
 IDIUse=3 WtCom= 9.10D-01 WtEn= 9.05D-02
 Coeff-Com:  0.140D+00 0.787D-02 0.852D+00
 Coeff-En:   0.000D+00 0.000D+00 0.100D+01
 Coeff:      0.127D+00 0.715D-02 0.865D+00
 Gap=     0.132 Goal=   None    Shift=    0.000
 Gap=     0.150 Goal=   None    Shift=    0.000
 RMSDP=1.14D-03 MaxDP=3.26D-02 DE=-2.13D-01 OVMax= 3.10D-02

 Cycle   4  Pass 1  IDiag  1:
 E= -151.476156262588     Delta-E=       -0.005250024583 Rises=F Damp=F
 DIIS: error= 3.37D-03 at cycle   4 NSaved=   4.
 NSaved= 4 IEnMin= 4 EnMin= -151.476156262588     IErMin= 4 ErrMin= 3.37D-03
 ErrMax= 3.37D-03  0.00D+00 EMaxC= 1.00D-01 BMatC= 1.39D-03 BMatP= 1.79D-02
 IDIUse=3 WtCom= 9.66D-01 WtEn= 3.37D-02
 Coeff-Com:  0.152D-01-0.456D-01 0.156D+00 0.874D+00
 Coeff-En:   0.000D+00 0.000D+00 0.000D+00 0.100D+01
 Coeff:      0.147D-01-0.441D-01 0.151D+00 0.879D+00
 Gap=     0.136 Goal=   None    Shift=    0.000
 Gap=     0.153 Goal=   None    Shift=    0.000
 RMSDP=4.78D-04 MaxDP=6.03D-03 DE=-5.25D-03 OVMax= 3.71D-02

 Cycle   5  Pass 1  IDiag  1:
 E= -151.476267345558     Delta-E=       -0.000111082970 Rises=F Damp=F
 DIIS: error= 4.85D-03 at cycle   5 NSaved=   5.
 NSaved= 5 IEnMin= 5 EnMin= -151.476267345558     IErMin= 4 ErrMin= 3.37D-03
 ErrMax= 4.85D-03  0.00D+00 EMaxC= 1.00D-01 BMatC= 2.03D-03 BMatP= 1.39D-03
 IDIUse=3 WtCom= 1.26D-01 WtEn= 8.74D-01
 Coeff-Com:  0.252D-01-0.398D-01-0.107D+00 0.192D+00 0.930D+00
 Coeff-En:   0.000D+00 0.000D+00 0.000D+00 0.352D+00 0.648D+00
 Coeff:      0.316D-02-0.500D-02-0.134D-01 0.332D+00 0.683D+00
 Gap=     0.140 Goal=   None    Shift=    0.000
 Gap=     0.149 Goal=   None    Shift=    0.000
 RMSDP=6.72D-04 MaxDP=1.11D-02 DE=-1.11D-04 OVMax= 4.60D-02

 Cycle   6  Pass 1  IDiag  1:
 E= -151.475215572263     Delta-E=        0.001051773295 Rises=F Damp=F
 DIIS: error= 7.24D-03 at cycle   6 NSaved=   6.
 NSaved= 6 IEnMin= 5 EnMin= -151.476267345558     IErMin= 4 ErrMin= 3.37D-03
 ErrMax= 7.24D-03  0.00D+00 EMaxC= 1.00D-01 BMatC= 6.78D-03 BMatP= 1.39D-03
 IDIUse=3 WtCom= 1.26D-01 WtEn= 8.74D-01
 Coeff-Com: -0.191D-01 0.112D-01-0.536D-01 0.187D+00 0.477D+00 0.398D+00
 Coeff-En:   0.000D+00 0.000D+00 0.000D+00 0.000D+00 0.679D+00 0.321D+00
 Coeff:     -0.240D-02 0.141D-02-0.673D-02 0.234D-01 0.653D+00 0.331D+00
 Gap=     0.138 Goal=   None    Shift=    0.000
 Gap=     0.151 Goal=   None    Shift=    0.000
 RMSDP=3.47D-04 MaxDP=5.78D-03 DE= 1.05D-03 OVMax= 3.00D-02

 Cycle   7  Pass 1  IDiag  1:
 E= -151.476825876481     Delta-E=       -0.001610304217 Rises=F Damp=F
 DIIS: error= 1.36D-03 at cycle   7 NSaved=   7.
 NSaved= 7 IEnMin= 7 EnMin= -151.476825876481     IErMin= 7 ErrMin= 1.36D-03
 ErrMax= 1.36D-03  0.00D+00 EMaxC= 1.00D-01 BMatC= 2.06D-04 BMatP= 1.39D-03
 IDIUse=3 WtCom= 9.86D-01 WtEn= 1.36D-02
 Coeff-Com: -0.643D-02 0.401D-02-0.415D-01-0.543D-01 0.388D+00 0.180D+00
 Coeff-Com:  0.531D+00
 Coeff-En:   0.000D+00 0.000D+00 0.000D+00 0.000D+00 0.120D-01 0.000D+00
 Coeff-En:   0.988D+00
 Coeff:     -0.634D-02 0.396D-02-0.409D-01-0.536D-01 0.383D+00 0.177D+00
 Coeff:      0.537D+00
 Gap=     0.138 Goal=   None    Shift=    0.000
 Gap=     0.152 Goal=   None    Shift=    0.000
 RMSDP=1.09D-04 MaxDP=2.00D-03 DE=-1.61D-03 OVMax= 7.98D-03

 Cycle   8  Pass 1  IDiag  1:
 E= -151.476902873762     Delta-E=       -0.000076997281 Rises=F Damp=F
 DIIS: error= 3.03D-04 at cycle   8 NSaved=   8.
 NSaved= 8 IEnMin= 8 EnMin= -151.476902873762     IErMin= 8 ErrMin= 3.03D-04
 ErrMax= 3.03D-04  0.00D+00 EMaxC= 1.00D-01 BMatC= 1.33D-05 BMatP= 2.06D-04
 IDIUse=3 WtCom= 9.97D-01 WtEn= 3.03D-03
 Coeff-Com: -0.648D-03 0.185D-02-0.244D-02-0.686D-01 0.128D-01-0.185D-01
 Coeff-Com:  0.208D+00 0.868D+00
 Coeff-En:   0.000D+00 0.000D+00 0.000D+00 0.000D+00 0.000D+00 0.000D+00
 Coeff-En:   0.000D+00 0.100D+01
 Coeff:     -0.646D-03 0.185D-02-0.244D-02-0.684D-01 0.128D-01-0.184D-01
 Coeff:      0.207D+00 0.868D+00
 Gap=     0.138 Goal=   None    Shift=    0.000
 Gap=     0.152 Goal=   None    Shift=    0.000
 RMSDP=5.10D-05 MaxDP=6.85D-04 DE=-7.70D-05 OVMax= 3.86D-03

 Cycle   9  Pass 1  IDiag  1:
 E= -151.476912642770     Delta-E=       -0.000009769008 Rises=F Damp=F
 DIIS: error= 2.07D-04 at cycle   9 NSaved=   9.
 NSaved= 9 IEnMin= 9 EnMin= -151.476912642770     IErMin= 9 ErrMin= 2.07D-04
 ErrMax= 2.07D-04  0.00D+00 EMaxC= 1.00D-01 BMatC= 2.86D-06 BMatP= 1.33D-05
 IDIUse=3 WtCom= 9.98D-01 WtEn= 2.07D-03
 Coeff-Com:  0.143D-03-0.125D-03 0.532D-02 0.206D-01-0.854D-01-0.110D-01
 Coeff-Com: -0.170D+00-0.319D-01 0.127D+01
 Coeff-En:   0.000D+00 0.000D+00 0.000D+00 0.000D+00 0.000D+00 0.000D+00
 Coeff-En:   0.000D+00 0.000D+00 0.100D+01
 Coeff:      0.143D-03-0.125D-03 0.531D-02 0.205D-01-0.852D-01-0.109D-01
 Coeff:     -0.170D+00-0.318D-01 0.127D+01
 Gap=     0.138 Goal=   None    Shift=    0.000
 Gap=     0.152 Goal=   None    Shift=    0.000
 RMSDP=3.63D-05 MaxDP=5.33D-04 DE=-9.77D-06 OVMax= 2.53D-03

 Cycle  10  Pass 1  IDiag  1:
 E= -151.476915721197     Delta-E=       -0.000003078427 Rises=F Damp=F
 DIIS: error= 7.53D-05 at cycle  10 NSaved=  10.
 NSaved=10 IEnMin=10 EnMin= -151.476915721197     IErMin=10 ErrMin= 7.53D-05
 ErrMax= 7.53D-05  0.00D+00 EMaxC= 1.00D-01 BMatC= 4.76D-07 BMatP= 2.86D-06
 IDIUse=1 WtCom= 1.00D+00 WtEn= 0.00D+00
 Coeff-Com: -0.332D-03 0.249D-03 0.481D-04 0.540D-02 0.232D-02 0.112D-01
 Coeff-Com:  0.997D-02-0.801D-01-0.272D+00 0.132D+01
 Coeff:     -0.332D-03 0.249D-03 0.481D-04 0.540D-02 0.232D-02 0.112D-01
 Coeff:      0.997D-02-0.801D-01-0.272D+00 0.132D+01
 Gap=     0.138 Goal=   None    Shift=    0.000
 Gap=     0.152 Goal=   None    Shift=    0.000
 RMSDP=1.77D-05 MaxDP=3.36D-04 DE=-3.08D-06 OVMax= 1.15D-03

 Cycle  11  Pass 1  IDiag  1:
 E= -151.476916549232     Delta-E=       -0.000000828036 Rises=F Damp=F
 DIIS: error= 2.18D-05 at cycle  11 NSaved=  11.
 NSaved=11 IEnMin=11 EnMin= -151.476916549232     IErMin=11 ErrMin= 2.18D-05
 ErrMax= 2.18D-05  0.00D+00 EMaxC= 1.00D-01 BMatC= 1.27D-07 BMatP= 4.76D-07
 IDIUse=1 WtCom= 1.00D+00 WtEn= 0.00D+00
 Coeff-Com: -0.611D-05 0.142D-04-0.176D-02-0.653D-02 0.165D-01-0.864D-02
 Coeff-Com:  0.339D-01 0.597D-01-0.794D-01-0.102D+01 0.201D+01
 Coeff:     -0.611D-05 0.142D-04-0.176D-02-0.653D-02 0.165D-01-0.864D-02
 Coeff:      0.339D-01 0.597D-01-0.794D-01-0.102D+01 0.201D+01
 Gap=     0.138 Goal=   None    Shift=    0.000
 Gap=     0.152 Goal=   None    Shift=    0.000
 RMSDP=1.81D-05 MaxDP=4.01D-04 DE=-8.28D-07 OVMax= 1.36D-03

 Cycle  12  Pass 1  IDiag  1:
 E= -151.476917109724     Delta-E=       -0.000000560492 Rises=F Damp=F
 DIIS: error= 1.29D-05 at cycle  12 NSaved=  12.
 NSaved=12 IEnMin=12 EnMin= -151.476917109724     IErMin=12 ErrMin= 1.29D-05
 ErrMax= 1.29D-05  0.00D+00 EMaxC= 1.00D-01 BMatC= 3.62D-08 BMatP= 1.27D-07
 IDIUse=1 WtCom= 1.00D+00 WtEn= 0.00D+00
 Coeff-Com:  0.221D-03-0.166D-03 0.503D-03 0.103D-02-0.947D-02-0.258D-02
 Coeff-Com: -0.172D-01 0.443D-02 0.189D+00-0.227D+00-0.900D+00 0.196D+01
 Coeff:      0.221D-03-0.166D-03 0.503D-03 0.103D-02-0.947D-02-0.258D-02
 Coeff:     -0.172D-01 0.443D-02 0.189D+00-0.227D+00-0.900D+00 0.196D+01
 Gap=     0.138 Goal=   None    Shift=    0.000
 Gap=     0.152 Goal=   None    Shift=    0.000
 RMSDP=1.71D-05 MaxDP=3.79D-04 DE=-5.60D-07 OVMax= 1.27D-03

 Cycle  13  Pass 1  IDiag  1:
 E= -151.476917369397     Delta-E=       -0.000000259673 Rises=F Damp=F
 DIIS: error= 6.89D-06 at cycle  13 NSaved=  13.
 NSaved=13 IEnMin=13 EnMin= -151.476917369397     IErMin=13 ErrMin= 6.89D-06
 ErrMax= 6.89D-06  0.00D+00 EMaxC= 1.00D-01 BMatC= 6.92D-09 BMatP= 3.62D-08
 IDIUse=1 WtCom= 1.00D+00 WtEn= 0.00D+00
 Coeff-Com:  0.249D-04-0.588D-04 0.455D-03 0.184D-02-0.308D-02 0.167D-02
 Coeff-Com: -0.378D-02-0.126D-01-0.880D-02 0.238D+00-0.328D+00-0.245D+00
 Coeff-Com:  0.136D+01
 Coeff:      0.249D-04-0.588D-04 0.455D-03 0.184D-02-0.308D-02 0.167D-02
 Coeff:     -0.378D-02-0.126D-01-0.880D-02 0.238D+00-0.328D+00-0.245D+00
 Coeff:      0.136D+01
 Gap=     0.138 Goal=   None    Shift=    0.000
 Gap=     0.152 Goal=   None    Shift=    0.000
 RMSDP=6.18D-06 MaxDP=1.23D-04 DE=-2.60D-07 OVMax= 4.54D-04

 Cycle  14  Pass 1  IDiag  1:
 E= -151.476917402704     Delta-E=       -0.000000033306 Rises=F Damp=F
 DIIS: error= 3.48D-06 at cycle  14 NSaved=  14.
 NSaved=14 IEnMin=14 EnMin= -151.476917402704     IErMin=14 ErrMin= 3.48D-06
 ErrMax= 3.48D-06  0.00D+00 EMaxC= 1.00D-01 BMatC= 1.57D-09 BMatP= 6.92D-09
 IDIUse=1 WtCom= 1.00D+00 WtEn= 0.00D+00
 Coeff-Com: -0.138D-04-0.823D-05-0.137D-03-0.181D-03 0.252D-02-0.291D-03
 Coeff-Com:  0.284D-02 0.249D-03-0.357D-01 0.208D-01 0.228D+00-0.340D+00
 Coeff-Com: -0.311D+00 0.143D+01
 Coeff:     -0.138D-04-0.823D-05-0.137D-03-0.181D-03 0.252D-02-0.291D-03
 Coeff:      0.284D-02 0.249D-03-0.357D-01 0.208D-01 0.228D+00-0.340D+00
 Coeff:     -0.311D+00 0.143D+01
 Gap=     0.138 Goal=   None    Shift=    0.000
 Gap=     0.152 Goal=   None    Shift=    0.000
 RMSDP=1.89D-06 MaxDP=3.11D-05 DE=-3.33D-08 OVMax= 1.44D-04

 Cycle  15  Pass 1  IDiag  1:
 E= -151.476917406736     Delta-E=       -0.000000004033 Rises=F Damp=F
 DIIS: error= 1.50D-06 at cycle  15 NSaved=  15.
 NSaved=15 IEnMin=15 EnMin= -151.476917406736     IErMin=15 ErrMin= 1.50D-06
 ErrMax= 1.50D-06  0.00D+00 EMaxC= 1.00D-01 BMatC= 2.20D-10 BMatP= 1.57D-09
 IDIUse=1 WtCom= 1.00D+00 WtEn= 0.00D+00
 Coeff-Com: -0.973D-06 0.508D-05-0.103D-03-0.261D-03 0.688D-03-0.420D-03
 Coeff-Com:  0.350D-03 0.227D-02 0.275D-02-0.456D-01 0.557D-01 0.601D-01
 Coeff-Com: -0.289D+00-0.297D-02 0.122D+01
 Coeff:     -0.973D-06 0.508D-05-0.103D-03-0.261D-03 0.688D-03-0.420D-03
 Coeff:      0.350D-03 0.227D-02 0.275D-02-0.456D-01 0.557D-01 0.601D-01
 Coeff:     -0.289D+00-0.297D-02 0.122D+01
 Gap=     0.138 Goal=   None    Shift=    0.000
 Gap=     0.152 Goal=   None    Shift=    0.000
 RMSDP=7.01D-07 MaxDP=1.16D-05 DE=-4.03D-09 OVMax= 5.04D-05

 Cycle  16  Pass 1  IDiag  1:
 E= -151.476917407141     Delta-E=       -0.000000000405 Rises=F Damp=F
 DIIS: error= 2.69D-07 at cycle  16 NSaved=  16.
 NSaved=16 IEnMin=16 EnMin= -151.476917407141     IErMin=16 ErrMin= 2.69D-07
 ErrMax= 2.69D-07  0.00D+00 EMaxC= 1.00D-01 BMatC= 9.97D-12 BMatP= 2.20D-10
 IDIUse=1 WtCom= 1.00D+00 WtEn= 0.00D+00
 Coeff-Com:  0.257D-05-0.113D-05-0.946D-05-0.212D-04-0.585D-04-0.641D-04
 Coeff-Com: -0.128D-03 0.210D-03 0.213D-02-0.481D-02-0.100D-01 0.285D-01
 Coeff-Com: -0.889D-02-0.821D-01 0.106D+00 0.970D+00
 Coeff:      0.257D-05-0.113D-05-0.946D-05-0.212D-04-0.585D-04-0.641D-04
 Coeff:     -0.128D-03 0.210D-03 0.213D-02-0.481D-02-0.100D-01 0.285D-01
 Coeff:     -0.889D-02-0.821D-01 0.106D+00 0.970D+00
 Gap=     0.138 Goal=   None    Shift=    0.000
 Gap=     0.152 Goal=   None    Shift=    0.000
 RMSDP=4.49D-08 MaxDP=7.88D-07 DE=-4.05D-10 OVMax= 3.01D-06

 Cycle  17  Pass 1  IDiag  1:
 E= -151.476917407147     Delta-E=       -0.000000000006 Rises=F Damp=F
 DIIS: error= 4.37D-08 at cycle  17 NSaved=  17.
 NSaved=17 IEnMin=17 EnMin= -151.476917407147     IErMin=17 ErrMin= 4.37D-08
 ErrMax= 4.37D-08  0.00D+00 EMaxC= 1.00D-01 BMatC= 5.11D-13 BMatP= 9.97D-12
 IDIUse=1 WtCom= 1.00D+00 WtEn= 0.00D+00
 Coeff-Com:  0.309D-07-0.176D-08 0.578D-05 0.938D-05-0.385D-04 0.202D-04
 Coeff-Com: -0.157D-04-0.379D-04-0.992D-04 0.189D-02-0.293D-02-0.867D-03
 Coeff-Com:  0.991D-02-0.538D-03-0.624D-01 0.640D-01 0.991D+00
 Coeff:      0.309D-07-0.176D-08 0.578D-05 0.938D-05-0.385D-04 0.202D-04
 Coeff:     -0.157D-04-0.379D-04-0.992D-04 0.189D-02-0.293D-02-0.867D-03
 Coeff:      0.991D-02-0.538D-03-0.624D-01 0.640D-01 0.991D+00
 Gap=     0.138 Goal=   None    Shift=    0.000
 Gap=     0.152 Goal=   None    Shift=    0.000
 RMSDP=1.40D-08 MaxDP=2.26D-07 DE=-5.74D-12 OVMax= 1.02D-06

 Cycle  18  Pass 1  IDiag  1:
 E= -151.476917407147     Delta-E=       -0.000000000000 Rises=F Damp=F
 DIIS: error= 1.67D-08 at cycle  18 NSaved=  18.
 NSaved=18 IEnMin=18 EnMin= -151.476917407147     IErMin=18 ErrMin= 1.67D-08
 ErrMax= 1.67D-08  0.00D+00 EMaxC= 1.00D-01 BMatC= 3.35D-14 BMatP= 5.11D-13
 IDIUse=1 WtCom= 1.00D+00 WtEn= 0.00D+00
 Coeff-Com:  0.500D-08-0.730D-07 0.278D-06-0.781D-06 0.577D-05 0.380D-05
 Coeff-Com:  0.106D-04-0.147D-04-0.161D-03 0.340D-03 0.397D-03-0.118D-02
 Coeff-Com: -0.265D-03 0.668D-02-0.771D-02-0.514D-01 0.970D-03 0.105D+01
 Coeff:      0.500D-08-0.730D-07 0.278D-06-0.781D-06 0.577D-05 0.380D-05
 Coeff:      0.106D-04-0.147D-04-0.161D-03 0.340D-03 0.397D-03-0.118D-02
 Coeff:     -0.265D-03 0.668D-02-0.771D-02-0.514D-01 0.970D-03 0.105D+01
 Gap=     0.138 Goal=   None    Shift=    0.000
 Gap=     0.152 Goal=   None    Shift=    0.000
 RMSDP=2.80D-09 MaxDP=5.17D-08 DE=-2.27D-13 OVMax= 1.79D-07

 SCF Done:  E(UB3LYP) =  -151.476917407     A.U. after   18 cycles
            NFock= 18  Conv=0.28D-08     -V/T= 2.0031
 <Sx>= 0.0000 <Sy>= 0.0000 <Sz>= 1.0000 <S**2>= 2.0191 S= 1.0064
 <L.S>= 0.000000000000E+00
 KE= 1.510092193770D+02 PE=-4.504498112884D+02 EE= 9.703495540319D+01
 Annihilation of the first spin contaminant:
 S**2 before annihilation     2.0191,   after     2.0002
 Leave Link  502 at Thu Jan 24 15:35:40 2019, MaxMem=    33554432 cpu:         5.6
 (Enter /apl/tryton/gaussian/09/d01/g09/l801.exe)
 DoSCS=F DFT=T ScalE2(SS,OS)=  1.000000  1.000000
 Range of M.O.s used for correlation:     1    73
 NBasis=    73 NAE=    11 NBE=     9 NFC=     0 NFV=     0
 NROrb=     73 NOA=    11 NOB=     9 NVA=    62 NVB=    64

 **** Warning!!: The largest alpha MO coefficient is  0.28473024D+02


 **** Warning!!: The largest beta MO coefficient is  0.24436466D+02

 Leave Link  801 at Thu Jan 24 15:35:40 2019, MaxMem=    33554432 cpu:         0.0
 (Enter /apl/tryton/gaussian/09/d01/g09/l1101.exe)
 Using compressed storage, NAtomX=     4.
 Will process      5 centers per pass.
 Leave Link 1101 at Thu Jan 24 15:35:40 2019, MaxMem=    33554432 cpu:         0.1
 (Enter /apl/tryton/gaussian/09/d01/g09/l1102.exe)
 Symmetrizing basis deriv contribution to polar:
 IMax=3 JMax=2 DiffMx= 0.00D+00
 Leave Link 1102 at Thu Jan 24 15:35:40 2019, MaxMem=    33554432 cpu:         0.0
 (Enter /apl/tryton/gaussian/09/d01/g09/l1110.exe)
 Forming Gx(P) for the SCF density, NAtomX=     4.
 Integral derivatives from FoFJK, PRISM(SPDF).
 Do as many integral derivatives as possible in FoFJK.
 G2DrvN: MDV=      33554296.
 G2DrvN: will do     5 centers at a time, making    1 passes.
 Calling FoFCou, ICntrl=  3107 FMM=F I1Cent=   0 AccDes= 0.00D+00.
 FoFJK:  IHMeth= 1 ICntrl=    3107 DoSepK=F KAlg= 0 I1Cent=   0 FoldK=F
 IRaf=         0 NMat=   1 IRICut=       1 DoRegI=T DoRafI=F ISym2E= 1.
 FoFCou: FMM=F IPFlag=           0 FMFlag=      100000 FMFlg1=           0
         NFxFlg=           0 DoJE=F BraDBF=F KetDBF=F FulRan=T
         wScrn=  0.000000 ICntrl=    3107 IOpCl=  1 I1Cent=           0 NGrid=           0
         NMat0=    1 NMatS0=      1 NMatT0=    0 NMatD0=    1 NMtDS0=    0 NMtDT0=    0
 Petite list used in FoFCou.
 End of G2Drv F.D. properties file   721 does not exist.
 End of G2Drv F.D. properties file   722 does not exist.
 End of G2Drv F.D. properties file   788 does not exist.
 Leave Link 1110 at Thu Jan 24 15:35:44 2019, MaxMem=    33554432 cpu:         4.3
 (Enter /apl/tryton/gaussian/09/d01/g09/l1002.exe)
 Minotr:  UHF open shell wavefunction.
          IDoAtm=1111
          Direct CPHF calculation.
          Differentiating once with respect to electric field.
                with respect to dipole field.
          Differentiating once with respect to nuclear coordinates.
          Using symmetry in CPHF.
          Requested convergence is 1.0D-08 RMS, and 1.0D-07 maximum.
          Secondary convergence is 1.0D-12 RMS, and 1.0D-12 maximum.
          NewPWx=T KeepS1=F KeepF1=F KeepIn=T MapXYZ=F SortEE=F KeepMc=T.
          MDV=      33554242 using IRadAn=       2.
 Generate precomputed XC quadrature information.
 Keep R1 and R2 ints in memory in symmetry-blocked form, NReq=5799842.
 FoFCou: FMM=F IPFlag=           0 FMFlag=           0 FMFlg1=           0
         NFxFlg=           0 DoJE=F BraDBF=F KetDBF=F FulRan=T
         wScrn=  0.000000 ICntrl=     600 IOpCl=  0 I1Cent=           0 NGrid=           0
         NMat0=    1 NMatS0=   2701 NMatT0=    0 NMatD0=    1 NMtDS0=    0 NMtDT0=    0
 Petite list used in FoFCou.
          Solving linear equations simultaneously, MaxMat=       0.
          There are    15 degrees of freedom in the 1st order CPHF.  IDoFFX=6 NUNeed=     3.
     12 vectors produced by pass  0 Test12= 8.39D-15 6.67D-09 XBig12= 2.28D+02 1.29D+01.
 AX will form    12 AO Fock derivatives at one time.
     12 vectors produced by pass  1 Test12= 8.39D-15 6.67D-09 XBig12= 1.12D+02 3.34D+00.
     12 vectors produced by pass  2 Test12= 8.39D-15 6.67D-09 XBig12= 9.21D+00 5.70D-01.
     12 vectors produced by pass  3 Test12= 8.39D-15 6.67D-09 XBig12= 3.23D-01 1.27D-01.
     12 vectors produced by pass  4 Test12= 8.39D-15 6.67D-09 XBig12= 4.94D-03 1.88D-02.
     12 vectors produced by pass  5 Test12= 8.39D-15 6.67D-09 XBig12= 1.98D-05 8.09D-04.
     12 vectors produced by pass  6 Test12= 8.39D-15 6.67D-09 XBig12= 8.13D-08 5.84D-05.
      6 vectors produced by pass  7 Test12= 8.39D-15 6.67D-09 XBig12= 2.56D-10 2.59D-06.
      2 vectors produced by pass  8 Test12= 8.39D-15 6.67D-09 XBig12= 1.18D-12 2.61D-07.
      1 vectors produced by pass  9 Test12= 8.39D-15 6.67D-09 XBig12= 4.59D-15 1.67D-08.
 InvSVY:  IOpt=1 It=  1 EMax= 2.00D-15
 Solved reduced A of dimension    93 with    12 vectors.
 FullF1:  Do perturbations    1 to     3.
 Isotropic polarizability for W=    0.000000       25.18 Bohr**3.
 End of Minotr F.D. properties file   721 does not exist.
 End of Minotr F.D. properties file   722 does not exist.
 End of Minotr F.D. properties file   788 does not exist.
 Leave Link 1002 at Thu Jan 24 15:35:54 2019, MaxMem=    33554432 cpu:         9.4
 (Enter /apl/tryton/gaussian/09/d01/g09/l601.exe)
 Copying SCF densities to generalized density rwf, IOpCl= 1 IROHF=0.

 **********************************************************************

            Population analysis using the SCF density.

 **********************************************************************

 Orbital symmetries:
 Alpha Orbitals:
       Occupied  (A') (A') (A') (A') (A') (A') (A') (A") (A') (A')
                 (A")
       Virtual   (A') (A") (A') (A') (A') (A") (A') (A') (A") (A')
                 (A') (A') (A') (A") (A') (A') (A') (A') (A') (A")
                 (A') (A") (A') (A') (A') (A') (A') (A") (A") (A')
                 (A') (A") (A') (A") (A') (A') (A') (A') (A') (A")
                 (A") (A') (A') (A') (A') (A") (A') (A") (A") (A')
                 (A') (A") (A') (A') (A') (A') (A") (A') (A') (A')
                 (A') (A')
 Beta  Orbitals:
       Occupied  (A') (A') (A') (A') (A') (A') (A') (A") (A')
       Virtual   (A') (A") (A') (A") (A') (A') (A') (A") (A') (A')
                 (A") (A') (A') (A') (A') (A") (A') (A') (A') (A')
                 (A') (A") (A') (A') (A") (A') (A') (A') (A') (A")
                 (A') (A") (A') (A") (A') (A") (A') (A') (A') (A')
                 (A') (A") (A") (A') (A') (A') (A') (A") (A') (A")
                 (A') (A") (A') (A") (A') (A') (A') (A') (A") (A')
                 (A') (A') (A') (A')
 The electronic state is 3-A".
 Alpha  occ. eigenvalues --  -19.54793 -10.65984 -10.61636  -1.45889  -1.09103
 Alpha  occ. eigenvalues --   -0.89464  -0.83141  -0.78164  -0.73748  -0.63734
 Alpha  occ. eigenvalues --   -0.60534
 Alpha virt. eigenvalues --   -0.46712  -0.33361  -0.18865  -0.15509  -0.12271
 Alpha virt. eigenvalues --   -0.11804  -0.09098  -0.07393  -0.05612  -0.04725
 Alpha virt. eigenvalues --   -0.04042  -0.03340   0.00564   0.02846   0.03949
 Alpha virt. eigenvalues --    0.07339   0.10280   0.12967   0.24480   0.25254
 Alpha virt. eigenvalues --    0.26402   0.30424   0.30619   0.33424   0.38683
 Alpha virt. eigenvalues --    0.50537   0.55172   0.70371   0.76085   0.77294
 Alpha virt. eigenvalues --    0.85174   0.86339   0.96429   1.00203   1.07186
 Alpha virt. eigenvalues --    1.15709   1.22607   1.29100   1.37474   1.45300
 Alpha virt. eigenvalues --    1.48591   1.69230   1.95892   2.03086   2.23431
 Alpha virt. eigenvalues --    2.24405   2.38932   2.40019   2.49525   2.51012
 Alpha virt. eigenvalues --    2.56810   2.99050   3.08378   3.13520   3.31467
 Alpha virt. eigenvalues --    3.49954   4.61468   4.69720   5.28963  23.04026
 Alpha virt. eigenvalues --   23.51474  49.53053
  Beta  occ. eigenvalues --  -19.52549 -10.64061 -10.61775  -1.41862  -1.04327
  Beta  occ. eigenvalues --   -0.85855  -0.80026  -0.73935  -0.65058
  Beta virt. eigenvalues --   -0.49847  -0.45363  -0.44311  -0.28556  -0.18230
  Beta virt. eigenvalues --   -0.14896  -0.11585  -0.11419  -0.08293  -0.07072
  Beta virt. eigenvalues --   -0.04988  -0.04558  -0.03508  -0.00997   0.01125
  Beta virt. eigenvalues --    0.03433   0.04834   0.07838   0.11013   0.13652
  Beta virt. eigenvalues --    0.26032   0.26202   0.27854   0.31705   0.33569
  Beta virt. eigenvalues --    0.35124   0.39007   0.52770   0.55800   0.73450
  Beta virt. eigenvalues --    0.78557   0.78900   0.88750   0.89326   1.00802
  Beta virt. eigenvalues --    1.05025   1.09529   1.17714   1.25324   1.31676
  Beta virt. eigenvalues --    1.38660   1.48638   1.50943   1.72520   1.97839
  Beta virt. eigenvalues --    2.05145   2.25935   2.27857   2.42195   2.44041
  Beta virt. eigenvalues --    2.54296   2.56116   2.60930   3.01294   3.10355
  Beta virt. eigenvalues --    3.16321   3.34007   3.52059   4.65696   4.76598
  Beta virt. eigenvalues --    5.30758  23.06049  23.51363  49.55285
          Condensed to atoms (all electrons):
               1          2          3          4
     1  C    5.065121   0.268280   0.309048   0.352642
     2  C    0.268280   5.269271  -0.014778  -0.062173
     3  H    0.309048  -0.014778   0.394120   0.004284
     4  O    0.352642  -0.062173   0.004284   7.556881
          Atomic-Atomic Spin Densities.
               1          2          3          4
     1  C   -0.064427   0.173031  -0.001626  -0.122704
     2  C    0.173031   0.949349   0.004133  -0.023291
     3  H   -0.001626   0.004133   0.118921   0.000220
     4  O   -0.122704  -0.023291   0.000220   0.936630
 Mulliken charges and spin densities:
               1          2
     1  C    0.004909  -0.015726
     2  C    0.539400   1.103222
     3  H    0.307326   0.121649
     4  O    0.148365   0.790856
 Sum of Mulliken charges =   1.00000   2.00000
 Mulliken charges and spin densities with hydrogens summed into heavy atoms:
               1          2
     1  C    0.312235   0.105922
     2  C    0.539400   1.103222
     4  O    0.148365   0.790856
 APT charges:
               1
     1  C   -0.028495
     2  C    0.492167
     3  H    0.335654
     4  O    0.200673
 Sum of APT charges =   1.00000
 APT charges with hydrogens summed into heavy atoms:
               1
     1  C    0.307159
     2  C    0.492167
     4  O    0.200673
 Electronic spatial extent (au):  <R**2>=            112.1610
 Charge=              1.0000 electrons
 Dipole moment (field-independent basis, Debye):
    X=              2.1361    Y=              1.8012    Z=              0.0000  Tot=              2.7942
 Quadrupole moment (field-independent basis, Debye-Ang):
   XX=            -12.0948   YY=            -10.5409   ZZ=            -14.8340
   XY=             -0.1337   XZ=             -0.0000   YZ=              0.0000
 Traceless Quadrupole moment (field-independent basis, Debye-Ang):
   XX=              0.3951   YY=              1.9490   ZZ=             -2.3441
   XY=             -0.1337   XZ=             -0.0000   YZ=              0.0000
 Octapole moment (field-independent basis, Debye-Ang**2):
  XXX=             -3.6248  YYY=              4.7050  ZZZ=              0.0000  XYY=             -0.6044
  XXY=              0.7927  XXZ=             -0.0000  XZZ=             -2.4322  YZZ=              0.1797
  YYZ=              0.0000  XYZ=              0.0000
 Hexadecapole moment (field-independent basis, Debye-Ang**3):
 XXXX=            -98.5887 YYYY=            -16.4850 ZZZZ=            -13.0795 XXXY=              3.4270
 XXXZ=             -0.0000 YYYX=              1.8703 YYYZ=              0.0000 ZZZX=             -0.0000
 ZZZY=             -0.0000 XXYY=            -19.9129 XXZZ=            -19.5077 YYZZ=             -6.4646
 XXYZ=              0.0000 YYXZ=              0.0000 ZZXY=              0.7653
 N-N= 5.092871910103D+01 E-N=-4.504498114476D+02  KE= 1.510092193770D+02
 Symmetry A'   KE= 1.455118708436D+02
 Symmetry A"   KE= 5.497348533448D+00
  Exact polarizability:  43.057  -2.662  19.331   0.000   0.000  13.157
 Approx polarizability:  93.229  -3.557  29.852  -0.000   0.000  16.534
                          Isotropic Fermi Contact Couplings
        Atom                 a.u.       MegaHertz       Gauss      10(-4) cm-1
     1  C(13)             -0.08506     -47.81204     -17.06052     -15.94838
     2  C(13)              0.04575      25.71537       9.17588       8.57772
     3  H(1)               0.05811     129.87492      46.34260      43.32161
     4  O(17)              0.04858     -14.72356      -5.25373      -4.91125
 --------------------------------------------------------
       Center         ----  Spin Dipole Couplings  ----
                      3XX-RR        3YY-RR        3ZZ-RR
 --------------------------------------------------------
     1   Atom        0.141956      0.025309     -0.167265
     2   Atom       -0.014992     -0.861509      0.876501
     3   Atom       -0.005063      0.029449     -0.024386
     4   Atom       -0.678431      0.747888     -0.069456
 --------------------------------------------------------
                        XY            XZ            YZ
 --------------------------------------------------------
     1   Atom       -0.069043      0.000000      0.000000
     2   Atom       -0.240713      0.000000     -0.000000
     3   Atom       -0.004361      0.000000      0.000000
     4   Atom       -1.672747      0.000000      0.000000
 --------------------------------------------------------


 ---------------------------------------------------------------------------------
              Anisotropic Spin Dipole Couplings in Principal Axis System
 ---------------------------------------------------------------------------------

       Atom             a.u.   MegaHertz   Gauss  10(-4) cm-1        Axes

              Baa    -0.1673   -22.445    -8.009    -7.487 -0.0000 -0.0000  1.0000
     1 C(13)  Bbb    -0.0067    -0.905    -0.323    -0.302  0.4211  0.9070  0.0000
              Bcc     0.1740    23.351     8.332     7.789  0.9070 -0.4211 -0.0000
 
              Baa    -0.9252  -124.149   -44.299   -41.412  0.2557  0.9668 -0.0000
     2 C(13)  Bbb     0.0487     6.531     2.330     2.178  0.9668 -0.2557  0.0000
              Bcc     0.8765   117.618    41.969    39.233  0.0000  0.0000  1.0000
 
              Baa    -0.0244   -13.011    -4.643    -4.340 -0.0000 -0.0000  1.0000
     3 H(1)   Bbb    -0.0056    -2.991    -1.067    -0.998  0.9923  0.1235  0.0000
              Bcc     0.0300    16.002     5.710     5.338 -0.1235  0.9923  0.0000
 
              Baa    -1.7837   129.067    46.054    43.052  0.8343  0.5513 -0.0000
     4 O(17)  Bbb    -0.0695     5.026     1.793     1.676  0.0000  0.0000  1.0000
              Bcc     1.8532  -134.093   -47.848   -44.729 -0.5513  0.8343  0.0000
 

 ---------------------------------------------------------------------------------

 No NMR shielding tensors so no spin-rotation constants.
 Leave Link  601 at Thu Jan 24 15:35:54 2019, MaxMem=    33554432 cpu:         0.2
 (Enter /apl/tryton/gaussian/09/d01/g09/l701.exe)
 Compute integral second derivatives.
 ... and contract with generalized density number  0.
 Leave Link  701 at Thu Jan 24 15:35:54 2019, MaxMem=    33554432 cpu:         0.2
 (Enter /apl/tryton/gaussian/09/d01/g09/l702.exe)
 L702 exits ... SP integral derivatives will be done elsewhere.
 Leave Link  702 at Thu Jan 24 15:35:54 2019, MaxMem=    33554432 cpu:         0.0
 (Enter /apl/tryton/gaussian/09/d01/g09/l703.exe)
 Compute integral second derivatives, UseDBF=F ICtDFT=           0.
 Integral derivatives from FoFJK, PRISM(SPDF).
 Calling FoFJK, ICntrl=    100127 FMM=F ISym2X=1 I1Cent= 0 IOpClX= 1 NMat=1 NMatS=1 NMatT=0.
 FoFJK:  IHMeth= 1 ICntrl=  100127 DoSepK=F KAlg= 0 I1Cent=   0 FoldK=F
 IRaf=         0 NMat=   1 IRICut=       1 DoRegI=T DoRafI=F ISym2E= 1.
 FoFCou: FMM=F IPFlag=           0 FMFlag=      100000 FMFlg1=         800
         NFxFlg=           0 DoJE=F BraDBF=F KetDBF=F FulRan=T
         wScrn=  0.000000 ICntrl=  100127 IOpCl=  1 I1Cent=           0 NGrid=           0
         NMat0=    1 NMatS0=      1 NMatT0=    0 NMatD0=    1 NMtDS0=    0 NMtDT0=    0
 Petite list used in FoFCou.
 Leave Link  703 at Thu Jan 24 15:35:59 2019, MaxMem=    33554432 cpu:         5.5
 (Enter /apl/tryton/gaussian/09/d01/g09/l716.exe)
 Dipole        = 8.40421864D-01 7.08662609D-01 5.39487574D-17
 Polarizability= 4.30570535D+01-2.66241251D+00 1.93308776D+01
                 3.91756753D-09 8.27813286D-09 1.31567780D+01
 Full mass-weighted force constant matrix:
 Low frequencies ---  -10.6504   -0.0009    0.0001    0.0009    1.5450    6.9199
 Low frequencies ---  188.4893  699.4786  788.2810
 Diagonal vibrational polarizability:
        5.4365535       5.5178515       0.4117597
 Harmonic frequencies (cm**-1), IR intensities (KM/Mole), Raman scattering
 activities (A**4/AMU), depolarization ratios for plane and unpolarized
 incident light, reduced masses (AMU), force constants (mDyne/A),
 and normal coordinates:
                      1                      2                      3
                     A'                     A'                     A"
 Frequencies --    188.4865               699.4786               788.2809
 Red. masses --      7.2838                 7.8034                 1.7114
 Frc consts  --      0.1525                 2.2495                 0.6266
 IR Inten    --      6.2335                38.9562                 9.5076
  Atom  AN      X      Y      Z        X      Y      Z        X      Y      Z
     1   6    -0.10   0.50   0.00    -0.37   0.18   0.00     0.00  -0.00   0.23
     2   6    -0.25  -0.28  -0.00     0.61  -0.22  -0.00    -0.00   0.00  -0.06
     3   1    -0.50   0.47  -0.00    -0.60   0.15  -0.00     0.00  -0.00  -0.97
     4   8     0.29  -0.19  -0.00    -0.15   0.02  -0.00     0.00  -0.00  -0.07
                      4                      5                      6
                     A'                     A'                     A'
 Frequencies --   1056.4987              1617.3813              2783.5722
 Red. masses --      1.1991                10.1144                 1.0772
 Frc consts  --      0.7885                15.5889                 4.9177
 IR Inten    --    132.4971                20.1499               198.1324
  Atom  AN      X      Y      Z        X      Y      Z        X      Y      Z
     1   6    -0.11   0.05  -0.00     0.53   0.36  -0.00    -0.01  -0.08   0.00
     2   6     0.01   0.01   0.00     0.09  -0.02   0.00     0.00  -0.00  -0.00
     3   1     0.99  -0.06   0.00     0.34   0.41   0.00     0.10   0.99  -0.00
     4   8     0.01  -0.04   0.00    -0.48  -0.28   0.00     0.00  -0.00  -0.00

 -------------------
 - Thermochemistry -
 -------------------
 Temperature   298.150 Kelvin.  Pressure   1.00000 Atm.
 Atom     1 has atomic number  6 and mass  12.00000
 Atom     2 has atomic number  6 and mass  12.00000
 Atom     3 has atomic number  1 and mass   1.00783
 Atom     4 has atomic number  8 and mass  15.99491
 Molecular mass:    41.00274 amu.
 Principal axes and moments of inertia in atomic units:
                           1         2         3
     Eigenvalues --    19.14454 141.61375 160.75829
           X            0.99993   0.01165   0.00000
           Y           -0.01165   0.99993   0.00000
           Z           -0.00000  -0.00000   1.00000
 This molecule is an asymmetric top.
 Rotational symmetry number  1.
 Rotational temperatures (Kelvin)      4.52421     0.61162     0.53878
 Rotational constants (GHZ):          94.26926    12.74411    11.22643
 Zero-point vibrational energy      42669.0 (Joules/Mol)
                                   10.19813 (Kcal/Mol)
 Warning -- explicit consideration of   1 degrees of freedom as
           vibrations may cause significant error
 Vibrational temperatures:    271.19  1006.39  1134.16  1520.06  2327.05
          (Kelvin)           4004.93
 
 Zero-point correction=                           0.016252 (Hartree/Particle)
 Thermal correction to Energy=                    0.019891
 Thermal correction to Enthalpy=                  0.020835
 Thermal correction to Gibbs Free Energy=        -0.009002
 Sum of electronic and zero-point Energies=           -151.460666
 Sum of electronic and thermal Energies=              -151.457027
 Sum of electronic and thermal Enthalpies=            -151.456083
 Sum of electronic and thermal Free Energies=         -151.485919
 
                     E (Thermal)             CV                S
                      KCal/Mol        Cal/Mol-Kelvin    Cal/Mol-Kelvin
 Total                   12.482              9.687             62.797
 Electronic               0.000              0.000              2.183
 Translational            0.889              2.981             37.061
 Rotational               0.889              2.981             20.705
 Vibrational             10.704              3.725              2.848
 Vibration     1          0.633              1.856              2.243
                       Q            Log10(Q)             Ln(Q)
 Total Bot       0.138220D+05          4.140572          9.534018
 Total V=0       0.412902D+12         11.615847         26.746475
 Vib (Bot)       0.597403D-07         -7.223732        -16.633259
 Vib (Bot)    1  0.106241D+01          0.026293          0.060541
 Vib (V=0)       0.178461D+01          0.251542          0.579198
 Vib (V=0)    1  0.167419D+01          0.223804          0.515328
 Electronic      0.300000D+01          0.477121          1.098612
 Translational   0.103199D+08          7.013675         16.149582
 Rotational      0.747323D+04          3.873508          8.919082
 
                                                                 min
                                                             IR Spectrum
 
     2                                                     1                        1                                                
     7                                                     6                        0            7   6                      1        
     8                                                     1                        5            8   9                      8        
     4                                                     7                        6            8   9                      8        
 
     X                                                     X                        X            X   X                      X        
     X                                                     X                        X                X                               
     X                                                                              X                X                               
     X                                                                              X                X                               
     X                                                                              X                                                
     X                                                                              X                                                
     X                                                                              X                                                
     X                                                                              X                                                
     X                                                                              X                                                
     X                                                                              X                                                
     X                                                                              X                                                
     X                                                                              X                                                
     X                                                                              X                                                
     X                                                                                                                               
     X                                                                                                                               
     X                                                                                                                               
     X                                                                                                                               
     X                                                                                                                               
     X                                                                                                                               
     X                                                                                                                               
 
 ***** Axes restored to original set *****
 -------------------------------------------------------------------
 Center     Atomic                   Forces (Hartrees/Bohr)
 Number     Number              X              Y              Z
 -------------------------------------------------------------------
      1        6          -0.000010889    0.000019327    0.000017624
      2        6          -0.000007143   -0.000038360    0.000010434
      3        1           0.000000252    0.000014580   -0.000000077
      4        8           0.000017780    0.000004453   -0.000027982
 -------------------------------------------------------------------
 Cartesian Forces:  Max     0.000038360 RMS     0.000017714
 Z-matrix is all fixed cartesians, so copy forces.
 Force constants in Cartesian coordinates: 
                1             2             3             4             5 
      1  0.200184D+00
      2 -0.131652D+00  0.509417D+00
      3 -0.150073D+00  0.216801D+00  0.348797D+00
      4 -0.245437D-01 -0.276679D-02 -0.565544D-02  0.121676D-01
      5 -0.412568D-01 -0.195923D-01  0.653450D-01  0.268964D-01  0.139412D+00
      6 -0.650481D-02  0.455707D-02 -0.177122D-01 -0.697927D-02 -0.395642D-01
      7 -0.945816D-01  0.115381D-01  0.905388D-01  0.198823D-02 -0.481275D-02
      8 -0.234990D-02 -0.222379D-01  0.404616D-02 -0.370547D-02 -0.909323D-03
      9  0.902323D-01 -0.178874D-01 -0.180316D+00  0.122865D-01  0.736412D-02
     10 -0.810582D-01  0.122881D+00  0.651900D-01  0.103878D-01  0.191732D-01
     11  0.175259D+00 -0.467587D+00 -0.286193D+00 -0.204241D-01 -0.118910D+00
     12  0.663458D-01 -0.203471D+00 -0.150769D+00  0.348176D-03 -0.331450D-01
                6             7             8             9            10 
      6  0.175220D-01
      7  0.122621D-01  0.872247D-01
      8  0.561537D-02 -0.151851D-01  0.405137D-01
      9 -0.942221D-02 -0.117439D+00  0.245876D-01  0.199093D+00
     10  0.122198D-02  0.536868D-02  0.212404D-01  0.149204D-01  0.653017D-01
     11  0.293918D-01  0.845974D-02 -0.173665D-01 -0.140643D-01 -0.163295D+00
     12  0.961235D-02  0.146384D-01 -0.342491D-01 -0.935522D-02 -0.813324D-01
               11            12 
     11  0.603863D+00
     12  0.270865D+00  0.150512D+00
 Leave Link  716 at Thu Jan 24 15:36:00 2019, MaxMem=    33554432 cpu:         0.0
 (Enter /apl/tryton/gaussian/09/d01/g09/l103.exe)

 GradGradGradGradGradGradGradGradGradGradGradGradGradGradGradGradGradGrad
 Berny optimization.
 Search for a local minimum.
 Step number   1 out of a maximum of    2
 All quantities printed in internal units (Hartrees-Bohrs-Radians)
 Second derivative matrix not updated -- analytic derivatives used.
 The second derivative matrix:
                          X1        Y1        Z1        X2        Y2
           X1           0.20018
           Y1          -0.13165   0.50942
           Z1          -0.15007   0.21680   0.34880
           X2          -0.02454  -0.00277  -0.00566   0.01217
           Y2          -0.04126  -0.01959   0.06535   0.02690   0.13941
           Z2          -0.00650   0.00456  -0.01771  -0.00698  -0.03956
           X3          -0.09458   0.01154   0.09054   0.00199  -0.00481
           Y3          -0.00235  -0.02224   0.00405  -0.00371  -0.00091
           Z3           0.09023  -0.01789  -0.18032   0.01229   0.00736
           X4          -0.08106   0.12288   0.06519   0.01039   0.01917
           Y4           0.17526  -0.46759  -0.28619  -0.02042  -0.11891
           Z4           0.06635  -0.20347  -0.15077   0.00035  -0.03314
                          Z2        X3        Y3        Z3        X4
           Z2           0.01752
           X3           0.01226   0.08722
           Y3           0.00562  -0.01519   0.04051
           Z3          -0.00942  -0.11744   0.02459   0.19909
           X4           0.00122   0.00537   0.02124   0.01492   0.06530
           Y4           0.02939   0.00846  -0.01737  -0.01406  -0.16329
           Z4           0.00961   0.01464  -0.03425  -0.00936  -0.08133
                          Y4        Z4
           Y4           0.60386
           Z4           0.27087   0.15051
 ITU=  0
     Eigenvalues ---    0.01076   0.08169   0.12545   0.23667   0.43374
     Eigenvalues ---    1.41860
 Angle between quadratic step and forces=  60.13 degrees.
 ClnCor:  largest displacement from symmetrization is 1.37D-12 for atom     1.
 Linear search not attempted -- first point.
 ClnCor:  largest displacement from symmetrization is 2.10D-15 for atom     3.
 TrRot=  0.000055  0.000049 -0.000086 -0.000001  0.000000 -0.000001
 Variable       Old X    -DE/DX   Delta X   Delta X   Delta X     New X
                                 (Linear)    (Quad)   (Total)
    X1       -0.25344  -0.00001   0.00000  -0.00036  -0.00030  -0.25374
    Y1        0.01290   0.00002   0.00000  -0.00000   0.00005   0.01295
    Z1        0.60383   0.00002   0.00000   0.00056   0.00048   0.60430
    X2        0.42417  -0.00001   0.00000   0.00024   0.00030   0.42447
    Y2        2.57276  -0.00004   0.00000  -0.00051  -0.00047   2.57230
    Z2       -0.40984   0.00001   0.00000  -0.00038  -0.00047  -0.41031
    X3       -1.37620   0.00000   0.00000  -0.00032  -0.00026  -1.37647
    Y3        0.28814   0.00001   0.00000  -0.00020  -0.00015   0.28799
    Z3        2.38311  -0.00000   0.00000   0.00050   0.00041   2.38352
    X4        0.30079   0.00002   0.00000   0.00022   0.00027   0.30105
    Y4       -1.96862   0.00000   0.00000   0.00052   0.00057  -1.96805
    Z4       -0.31520  -0.00003   0.00000  -0.00033  -0.00042  -0.31561
         Item               Value     Threshold  Converged?
 Maximum Force            0.000038     0.000450     YES
 RMS     Force            0.000018     0.000300     YES
 Maximum Displacement     0.000565     0.001800     YES
 RMS     Displacement     0.000373     0.001200     YES
 Predicted change in Energy=-2.001730D-08
 Optimization completed.
    -- Stationary point found.
 GradGradGradGradGradGradGradGradGradGradGradGradGradGradGradGradGradGrad

 Leave Link  103 at Thu Jan 24 15:36:00 2019, MaxMem=    33554432 cpu:         0.0
 (Enter /apl/tryton/gaussian/09/d01/g09/l9999.exe)
 1\1\ CITASK-GV0239\Freq\UB3LYP\6-311++G(d,p)\C2H1O1(1+,3)\EERD\24-Jan-
 2019\0\\#p b3lyp/6-311++g(d,p) freq\\min\\1,3\C,-0.134113,0.006828,0.3
 19531\C,0.224461,1.361447,-0.216879\H,-0.7282556081,0.152476757,1.2610
 86013\O,0.159169913,-1.041747985,-0.166795688\\Version=ES64L-G09RevD.0
 1\State=3-A"\HF=-151.4769174\S2=2.019118\S2-1=0.\S2A=2.000156\RMSD=2.8
 03e-09\RMSF=1.771e-05\ZeroPoint=0.0162518\Thermal=0.0198906\Dipole=-0.
 3634699,0.8514463,0.5928242\DipoleDeriv=0.3457962,-0.146541,0.1426153,
 -0.0478586,-0.6453318,0.0516745,0.144793,0.2075255,0.2140507,0.3368199
 ,0.1514093,-0.019037,0.0782487,0.7894664,-0.1132782,-0.0206515,-0.2288
 222,0.3502162,0.2921908,0.045462,-0.1182032,-0.0092629,0.3110109,0.016
 71,-0.1194108,-0.069718,0.4037605,0.025193,-0.0503303,-0.0053751,-0.02
 11272,0.5448546,0.0448937,-0.0047307,0.0910148,0.0319726\Polar=14.9848
 154,1.9211195,42.9629266,-2.8446609,-2.3763182,17.596967\PG=CS [SG(C2H
 1O1)]\NImag=0\\0.20018353,-0.13165229,0.50941685,-0.15007335,0.2168013
 0,0.34879698,-0.02454365,-0.00276679,-0.00565544,0.01216761,-0.0412567
 7,-0.01959228,0.06534505,0.02689637,0.13941187,-0.00650481,0.00455707,
 -0.01771219,-0.00697927,-0.03956420,0.01752205,-0.09458163,0.01153809,
 0.09053880,0.00198823,-0.00481275,0.01226210,0.08722472,-0.00234990,-0
 .02223788,0.00404616,-0.00370547,-0.00090932,0.00561537,-0.01518508,0.
 04051368,0.09023233,-0.01788740,-0.18031551,0.01228653,0.00736412,-0.0
 0942221,-0.11743931,0.02458756,0.19909295,-0.08105824,0.12288099,0.065
 18998,0.01038782,0.01917315,0.00122198,0.00536868,0.02124045,0.0149204
 4,0.06530174,0.17525895,-0.46758669,-0.28619251,-0.02042411,-0.1189102
 6,0.02939176,0.00845974,-0.01736648,-0.01406427,-0.16329458,0.60386343
 ,0.06634583,-0.20347097,-0.15076927,0.00034818,-0.03314496,0.00961235,
 0.01463841,-0.03424908,-0.00935522,-0.08133241,0.27086502,0.15051214\\
 0.00001089,-0.00001933,-0.00001762,0.00000714,0.00003836,-0.00001043,-
 0.00000025,-0.00001458,0.00000008,-0.00001778,-0.00000445,0.00002798\\
 \@


 ADAM SMITH SAID, "THE REAL PRICE OF ANYTHING IS THE TOIL AND TROUBLE
 OF ACQUIRING IT."  BUT IN ALL UNDERTAKINGS WITH NATURE WE SHOULD FIRST
 READ CAREFULLY THE SMALL PRINT IN THE CONTRACT. THIS MIGHT DISCLOSE
 THAT THE REAL PRICE IS TO BE PAID BY THOSE WHO INHERIT THE DEPLETION
 AND DESPOILATION THAT FOLLOWS.
                               -- E. R. HARRISON IN "COSMOLOGY" (1980)
 Job cpu time:       0 days  0 hours  0 minutes 26.5 seconds.
 File lengths (MBytes):  RWF=     10 Int=      0 D2E=      0 Chk=      1 Scr=      1
 Normal termination of Gaussian 09 at Thu Jan 24 15:36:00 2019.
