 Entering Gaussian System, Link 0=g09
 Initial command:
 /apl/tryton/gaussian/09/d01/g09/l1.exe "/users/work/eerd/M3C-outputs/ionized/4/Gau-954.inp" -scrdir="/users/work/eerd/M3C-outputs/ionized/4/"
 Entering Link 1 = /apl/tryton/gaussian/09/d01/g09/l1.exe PID=       955.
  
 Copyright (c) 1988,1990,1992,1993,1995,1998,2003,2009,2013,
            Gaussian, Inc.  All Rights Reserved.
  
 This is part of the Gaussian(R) 09 program.  It is based on
 the Gaussian(R) 03 system (copyright 2003, Gaussian, Inc.),
 the Gaussian(R) 98 system (copyright 1998, Gaussian, Inc.),
 the Gaussian(R) 94 system (copyright 1995, Gaussian, Inc.),
 the Gaussian 92(TM) system (copyright 1992, Gaussian, Inc.),
 the Gaussian 90(TM) system (copyright 1990, Gaussian, Inc.),
 the Gaussian 88(TM) system (copyright 1988, Gaussian, Inc.),
 the Gaussian 86(TM) system (copyright 1986, Carnegie Mellon
 University), and the Gaussian 82(TM) system (copyright 1983,
 Carnegie Mellon University). Gaussian is a federally registered
 trademark of Gaussian, Inc.
  
 This software contains proprietary and confidential information,
 including trade secrets, belonging to Gaussian, Inc.
  
 This software is provided under written license and may be
 used, copied, transmitted, or stored only in accord with that
 written license.
  
 The following legend is applicable only to US Government
 contracts under FAR:
  
                    RESTRICTED RIGHTS LEGEND
  
 Use, reproduction and disclosure by the US Government is
 subject to restrictions as set forth in subparagraphs (a)
 and (c) of the Commercial Computer Software - Restricted
 Rights clause in FAR 52.227-19.
  
 Gaussian, Inc.
 340 Quinnipiac St., Bldg. 40, Wallingford CT 06492
  
  
 ---------------------------------------------------------------
 Warning -- This program may not be used in any manner that
 competes with the business of Gaussian, Inc. or will provide
 assistance to any competitor of Gaussian, Inc.  The licensee
 of this program is prohibited from giving any competitor of
 Gaussian, Inc. access to this program.  By using this program,
 the user acknowledges that Gaussian, Inc. is engaged in the
 business of creating and licensing software in the field of
 computational chemistry and represents and warrants to the
 licensee that it is not a competitor of Gaussian, Inc. and that
 it will not use this program in any manner prohibited above.
 ---------------------------------------------------------------
  

 Cite this work as:
 Gaussian 09, Revision D.01,
 M. J. Frisch, G. W. Trucks, H. B. Schlegel, G. E. Scuseria, 
 M. A. Robb, J. R. Cheeseman, G. Scalmani, V. Barone, B. Mennucci, 
 G. A. Petersson, H. Nakatsuji, M. Caricato, X. Li, H. P. Hratchian, 
 A. F. Izmaylov, J. Bloino, G. Zheng, J. L. Sonnenberg, M. Hada, 
 M. Ehara, K. Toyota, R. Fukuda, J. Hasegawa, M. Ishida, T. Nakajima, 
 Y. Honda, O. Kitao, H. Nakai, T. Vreven, J. A. Montgomery, Jr., 
 J. E. Peralta, F. Ogliaro, M. Bearpark, J. J. Heyd, E. Brothers, 
 K. N. Kudin, V. N. Staroverov, T. Keith, R. Kobayashi, J. Normand, 
 K. Raghavachari, A. Rendell, J. C. Burant, S. S. Iyengar, J. Tomasi, 
 M. Cossi, N. Rega, J. M. Millam, M. Klene, J. E. Knox, J. B. Cross, 
 V. Bakken, C. Adamo, J. Jaramillo, R. Gomperts, R. E. Stratmann, 
 O. Yazyev, A. J. Austin, R. Cammi, C. Pomelli, J. W. Ochterski, 
 R. L. Martin, K. Morokuma, V. G. Zakrzewski, G. A. Voth, 
 P. Salvador, J. J. Dannenberg, S. Dapprich, A. D. Daniels, 
 O. Farkas, J. B. Foresman, J. V. Ortiz, J. Cioslowski, 
 and D. J. Fox, Gaussian, Inc., Wallingford CT, 2013.
 
 ******************************************
 Gaussian 09:  ES64L-G09RevD.01 24-Apr-2013
                24-Jan-2019 
 ******************************************
 ---------------------------
 #p b3lyp/6-311++g(d,p) freq
 ---------------------------
 1/10=4,30=1,38=1/1,3;
 2/12=2,17=6,18=5,40=1/2;
 3/5=4,6=6,7=1111,11=2,16=1,25=1,30=1,71=2,74=-5,140=1/1,2,3;
 4//1;
 5/5=2,38=5,98=1/2;
 8/6=4,10=90,11=11/1;
 11/6=1,8=1,9=11,15=111,16=1/1,2,10;
 10/6=1/2;
 6/7=2,8=2,9=2,10=2,18=1,28=1/1;
 7/8=1,10=1,25=1/1,2,3,16;
 1/10=4,30=1/3;
 99//99;
 Leave Link    1 at Thu Jan 24 15:35:33 2019, MaxMem=           0 cpu:         0.0
 (Enter /apl/tryton/gaussian/09/d01/g09/l101.exe)
 ---
 min
 ---
 Symbolic Z-matrix:
 Charge =  1 Multiplicity = 1
 C                    -0.71503  -0.58417  -0.54397 
 C                    -0.31109   0.20041   0.6189 
 H                    -0.29697   0.77955   1.54537 
 O                     0.60935  -0.15281  -0.16894 
 
 NAtoms=      4 NQM=        4 NQMF=       0 NMMI=      0 NMMIF=      0
                NMic=       0 NMicF=      0.
                    Isotopes and Nuclear Properties:
 (Nuclear quadrupole moments (NQMom) in fm**2, nuclear magnetic moments (NMagM)
  in nuclear magnetons)

  Atom         1           2           3           4
 IAtWgt=          12          12           1          16
 AtmWgt=  12.0000000  12.0000000   1.0078250  15.9949146
 NucSpn=           0           0           1           0
 AtZEff=   0.0000000   0.0000000   0.0000000   0.0000000
 NQMom=    0.0000000   0.0000000   0.0000000   0.0000000
 NMagM=    0.0000000   0.0000000   2.7928460   0.0000000
 AtZNuc=   6.0000000   6.0000000   1.0000000   8.0000000
 Leave Link  101 at Thu Jan 24 15:35:33 2019, MaxMem=    33554432 cpu:         0.1
 (Enter /apl/tryton/gaussian/09/d01/g09/l103.exe)

 GradGradGradGradGradGradGradGradGradGradGradGradGradGradGradGradGradGrad
 Berny optimization.
 Initialization pass.
 Trust Radius=3.00D-01 FncErr=1.00D-07 GrdErr=1.00D-07
 Number of steps in this run=      2 maximum allowed number of steps=      2.
 GradGradGradGradGradGradGradGradGradGradGradGradGradGradGradGradGradGrad

 Leave Link  103 at Thu Jan 24 15:35:33 2019, MaxMem=    33554432 cpu:         0.0
 (Enter /apl/tryton/gaussian/09/d01/g09/l202.exe)
                          Input orientation:                          
 ---------------------------------------------------------------------
 Center     Atomic      Atomic             Coordinates (Angstroms)
 Number     Number       Type             X           Y           Z
 ---------------------------------------------------------------------
      1          6           0       -0.715029   -0.584174   -0.543974
      2          6           0       -0.311094    0.200414    0.618896
      3          1           0       -0.296966    0.779555    1.545371
      4          8           0        0.609352   -0.152807   -0.168940
 ---------------------------------------------------------------------
                    Distance matrix (angstroms):
                    1          2          3          4
     1  C    0.000000
     2  C    1.459797   0.000000
     3  H    2.529802   1.092685   0.000000
     4  O    1.442467   1.262011   2.151645   0.000000
 Stoichiometry    C2HO(1+)
 Framework group  CS[SG(C2HO)]
 Deg. of freedom     5
 Full point group                 CS      NOp   2
 Largest Abelian subgroup         CS      NOp   2
 Largest concise Abelian subgroup C1      NOp   1
                         Standard orientation:                         
 ---------------------------------------------------------------------
 Center     Atomic      Atomic             Coordinates (Angstroms)
 Number     Number       Type             X           Y           Z
 ---------------------------------------------------------------------
      1          6           0       -0.867349   -0.439191   -0.000000
      2          6           0        0.591953   -0.401190    0.000000
      3          1           0        1.652377   -0.664745    0.000000
      4          8           0        0.000000    0.713379   -0.000000
 ---------------------------------------------------------------------
 Rotational constants (GHZ):     39.8134612     31.4959337     17.5848096
 Leave Link  202 at Thu Jan 24 15:35:33 2019, MaxMem=    33554432 cpu:         0.0
 (Enter /apl/tryton/gaussian/09/d01/g09/l301.exe)
 Standard basis: 6-311++G(d,p) (5D, 7F)
 Ernie: Thresh=  0.10000D-02 Tol=  0.10000D-05 Strict=F.
 There are    57 symmetry adapted cartesian basis functions of A'  symmetry.
 There are    19 symmetry adapted cartesian basis functions of A"  symmetry.
 There are    54 symmetry adapted basis functions of A'  symmetry.
 There are    19 symmetry adapted basis functions of A"  symmetry.
    73 basis functions,   117 primitive gaussians,    76 cartesian basis functions
    10 alpha electrons       10 beta electrons
       nuclear repulsion energy        56.9144308397 Hartrees.
 IExCor=  402 DFT=T Ex+Corr=B3LYP ExCW=0 ScaHFX=  0.200000
 ScaDFX=  0.800000  0.720000  1.000000  0.810000 ScalE2=  1.000000  1.000000
 IRadAn=      0 IRanWt=     -1 IRanGd=            0 ICorTp=0 IEmpDi=  4
 NAtoms=    4 NActive=    4 NUniq=    4 SFac= 1.00D+00 NAtFMM=   60 NAOKFM=F Big=F
 Integral buffers will be    131072 words long.
 Raffenetti 2 integral format.
 Two-electron integral symmetry is turned on.
 Leave Link  301 at Thu Jan 24 15:35:33 2019, MaxMem=    33554432 cpu:         0.0
 (Enter /apl/tryton/gaussian/09/d01/g09/l302.exe)
 NPDir=0 NMtPBC=     1 NCelOv=     1 NCel=       1 NClECP=     1 NCelD=      1
         NCelK=      1 NCelE2=     1 NClLst=     1 CellRange=     0.0.
 One-electron integrals computed using PRISM.
 NBasis=    73 RedAO= T EigKep=  2.11D-04  NBF=    54    19
 NBsUse=    73 1.00D-06 EigRej= -1.00D+00 NBFU=    54    19
 Precomputing XC quadrature grid using
 IXCGrd= 4 IRadAn=           0 IRanWt=          -1 IRanGd=           0 AccXCQ= 0.00D+00.
 Generated NRdTot=       0 NPtTot=           0 NUsed=           0 NTot=          32
 NSgBfM=    76    76    76    76    76 MxSgAt=     4 MxSgA2=     4.
 Leave Link  302 at Thu Jan 24 15:35:33 2019, MaxMem=    33554432 cpu:         0.1
 (Enter /apl/tryton/gaussian/09/d01/g09/l303.exe)
 DipDrv:  MaxL=1.
 Leave Link  303 at Thu Jan 24 15:35:33 2019, MaxMem=    33554432 cpu:         0.0
 (Enter /apl/tryton/gaussian/09/d01/g09/l401.exe)
 ExpMin= 3.60D-02 ExpMax= 8.59D+03 ExpMxC= 1.30D+03 IAcc=3 IRadAn=         5 AccDes= 0.00D+00
 Harris functional with IExCor=  402 and IRadAn=       5 diagonalized for initial guess.
 HarFok:  IExCor=  402 AccDes= 0.00D+00 IRadAn=         5 IDoV= 1 UseB2=F ITyADJ=14
 ICtDFT=  3500011 ScaDFX=  1.000000  1.000000  1.000000  1.000000
 FoFCou: FMM=F IPFlag=           0 FMFlag=      100000 FMFlg1=           0
         NFxFlg=           0 DoJE=T BraDBF=F KetDBF=T FulRan=T
         wScrn=  0.000000 ICntrl=     500 IOpCl=  0 I1Cent=   200000004 NGrid=           0
         NMat0=    1 NMatS0=      1 NMatT0=    0 NMatD0=    1 NMtDS0=    0 NMtDT0=    0
 Petite list used in FoFCou.
 Harris En= -151.637241535164    
 JPrj=0 DoOrth=F DoCkMO=F.
 Initial guess orbital symmetries:
       Occupied  (A') (A') (A') (A') (A') (A') (A') (A") (A') (A')
       Virtual   (A") (A") (A') (A') (A') (A') (A") (A') (A') (A")
                 (A') (A') (A') (A') (A") (A') (A') (A') (A') (A')
                 (A") (A') (A") (A') (A') (A') (A') (A') (A') (A")
                 (A") (A') (A') (A") (A") (A') (A") (A') (A') (A')
                 (A') (A') (A") (A') (A') (A") (A') (A") (A') (A')
                 (A") (A') (A") (A') (A') (A') (A') (A") (A') (A')
                 (A') (A') (A')
 The electronic state of the initial guess is 1-A'.
 Leave Link  401 at Thu Jan 24 15:35:34 2019, MaxMem=    33554432 cpu:         0.4
 (Enter /apl/tryton/gaussian/09/d01/g09/l502.exe)
 Closed shell SCF:
 Using DIIS extrapolation, IDIIS=  1040.
 Integral symmetry usage will be decided dynamically.
 Keep R1 ints in memory in symmetry-blocked form, NReq=5622897.
 IVT=       36921 IEndB=       36921 NGot=    33554432 MDV=    31580660
 LenX=    31580660 LenY=    31574443
 Requested convergence on RMS density matrix=1.00D-08 within 128 cycles.
 Requested convergence on MAX density matrix=1.00D-06.
 Requested convergence on             energy=1.00D-06.
 No special actions if energy rises.
 FoFCou: FMM=F IPFlag=           0 FMFlag=           0 FMFlg1=           0
         NFxFlg=           0 DoJE=F BraDBF=F KetDBF=F FulRan=T
         wScrn=  0.000000 ICntrl=     600 IOpCl=  0 I1Cent=           0 NGrid=           0
         NMat0=    1 NMatS0=   2701 NMatT0=    0 NMatD0=    1 NMtDS0=    0 NMtDT0=    0
 Petite list used in FoFCou.

 Cycle   1  Pass 1  IDiag  1:
 E= -151.503729804338    
 DIIS: error= 1.71D-02 at cycle   1 NSaved=   1.
 NSaved= 1 IEnMin= 1 EnMin= -151.503729804338     IErMin= 1 ErrMin= 1.71D-02
 ErrMax= 1.71D-02  0.00D+00 EMaxC= 1.00D-01 BMatC= 2.24D-02 BMatP= 2.24D-02
 IDIUse=3 WtCom= 8.29D-01 WtEn= 1.71D-01
 Coeff-Com:  0.100D+01
 Coeff-En:   0.100D+01
 Coeff:      0.100D+01
 Gap=     0.144 Goal=   None    Shift=    0.000
 GapD=    0.144 DampG=1.000 DampE=0.500 DampFc=0.5000 IDamp=-1.
 Damping current iteration by 5.00D-01
 RMSDP=4.82D-03 MaxDP=1.09D-01              OVMax= 8.44D-02

 Cycle   2  Pass 1  IDiag  1:
 E= -151.515240613674     Delta-E=       -0.011510809335 Rises=F Damp=T
 DIIS: error= 5.44D-03 at cycle   2 NSaved=   2.
 NSaved= 2 IEnMin= 2 EnMin= -151.515240613674     IErMin= 2 ErrMin= 5.44D-03
 ErrMax= 5.44D-03  0.00D+00 EMaxC= 1.00D-01 BMatC= 3.69D-03 BMatP= 2.24D-02
 IDIUse=3 WtCom= 9.46D-01 WtEn= 5.44D-02
 Coeff-Com: -0.267D+00 0.127D+01
 Coeff-En:   0.000D+00 0.100D+01
 Coeff:     -0.252D+00 0.125D+01
 Gap=     0.173 Goal=   None    Shift=    0.000
 RMSDP=2.02D-03 MaxDP=3.29D-02 DE=-1.15D-02 OVMax= 3.97D-02

 Cycle   3  Pass 1  IDiag  1:
 E= -151.523509082887     Delta-E=       -0.008268469213 Rises=F Damp=F
 DIIS: error= 1.03D-02 at cycle   3 NSaved=   3.
 NSaved= 3 IEnMin= 3 EnMin= -151.523509082887     IErMin= 2 ErrMin= 5.44D-03
 ErrMax= 1.03D-02  0.00D+00 EMaxC= 1.00D-01 BMatC= 3.36D-03 BMatP= 3.69D-03
 IDIUse=3 WtCom= 8.97D-01 WtEn= 1.03D-01
 Coeff-Com: -0.219D+00 0.729D+00 0.491D+00
 Coeff-En:   0.000D+00 0.000D+00 0.100D+01
 Coeff:     -0.197D+00 0.654D+00 0.543D+00
 Gap=     0.159 Goal=   None    Shift=    0.000
 RMSDP=8.20D-04 MaxDP=1.95D-02 DE=-8.27D-03 OVMax= 3.09D-02

 Cycle   4  Pass 1  IDiag  1:
 E= -151.524842833675     Delta-E=       -0.001333750788 Rises=F Damp=F
 DIIS: error= 6.07D-03 at cycle   4 NSaved=   4.
 NSaved= 4 IEnMin= 4 EnMin= -151.524842833675     IErMin= 2 ErrMin= 5.44D-03
 ErrMax= 6.07D-03  0.00D+00 EMaxC= 1.00D-01 BMatC= 1.55D-03 BMatP= 3.36D-03
 IDIUse=3 WtCom= 9.39D-01 WtEn= 6.07D-02
 Coeff-Com: -0.827D-01 0.209D+00 0.407D+00 0.467D+00
 Coeff-En:   0.000D+00 0.000D+00 0.357D+00 0.643D+00
 Coeff:     -0.777D-01 0.196D+00 0.404D+00 0.478D+00
 Gap=     0.162 Goal=   None    Shift=    0.000
 RMSDP=3.77D-04 MaxDP=4.98D-03 DE=-1.33D-03 OVMax= 1.50D-02

 Cycle   5  Pass 1  IDiag  1:
 E= -151.525937047070     Delta-E=       -0.001094213396 Rises=F Damp=F
 DIIS: error= 9.83D-04 at cycle   5 NSaved=   5.
 NSaved= 5 IEnMin= 5 EnMin= -151.525937047070     IErMin= 5 ErrMin= 9.83D-04
 ErrMax= 9.83D-04  0.00D+00 EMaxC= 1.00D-01 BMatC= 5.10D-05 BMatP= 1.55D-03
 IDIUse=3 WtCom= 9.90D-01 WtEn= 9.83D-03
 Coeff-Com: -0.324D-01 0.708D-01 0.202D+00 0.284D+00 0.475D+00
 Coeff-En:   0.000D+00 0.000D+00 0.000D+00 0.000D+00 0.100D+01
 Coeff:     -0.321D-01 0.701D-01 0.200D+00 0.282D+00 0.480D+00
 Gap=     0.163 Goal=   None    Shift=    0.000
 RMSDP=1.03D-04 MaxDP=2.46D-03 DE=-1.09D-03 OVMax= 2.62D-03

 Cycle   6  Pass 1  IDiag  1:
 E= -151.525983128564     Delta-E=       -0.000046081494 Rises=F Damp=F
 DIIS: error= 1.42D-04 at cycle   6 NSaved=   6.
 NSaved= 6 IEnMin= 6 EnMin= -151.525983128564     IErMin= 6 ErrMin= 1.42D-04
 ErrMax= 1.42D-04  0.00D+00 EMaxC= 1.00D-01 BMatC= 7.93D-07 BMatP= 5.10D-05
 IDIUse=3 WtCom= 9.99D-01 WtEn= 1.42D-03
 Coeff-Com: -0.421D-02 0.694D-02 0.223D-01 0.458D-01 0.150D+00 0.780D+00
 Coeff-En:   0.000D+00 0.000D+00 0.000D+00 0.000D+00 0.000D+00 0.100D+01
 Coeff:     -0.421D-02 0.693D-02 0.223D-01 0.457D-01 0.149D+00 0.780D+00
 Gap=     0.163 Goal=   None    Shift=    0.000
 RMSDP=2.42D-05 MaxDP=7.21D-04 DE=-4.61D-05 OVMax= 3.34D-04

 Cycle   7  Pass 1  IDiag  1:
 E= -151.525984004961     Delta-E=       -0.000000876396 Rises=F Damp=F
 DIIS: error= 7.25D-06 at cycle   7 NSaved=   7.
 NSaved= 7 IEnMin= 7 EnMin= -151.525984004961     IErMin= 7 ErrMin= 7.25D-06
 ErrMax= 7.25D-06  0.00D+00 EMaxC= 1.00D-01 BMatC= 4.35D-09 BMatP= 7.93D-07
 IDIUse=1 WtCom= 1.00D+00 WtEn= 0.00D+00
 Coeff-Com: -0.486D-03 0.899D-03 0.392D-03 0.168D-02 0.157D-01 0.117D+00
 Coeff-Com:  0.865D+00
 Coeff:     -0.486D-03 0.899D-03 0.392D-03 0.168D-02 0.157D-01 0.117D+00
 Coeff:      0.865D+00
 Gap=     0.163 Goal=   None    Shift=    0.000
 RMSDP=1.74D-06 MaxDP=3.51D-05 DE=-8.76D-07 OVMax= 2.92D-05

 Cycle   8  Pass 1  IDiag  1:
 E= -151.525984009406     Delta-E=       -0.000000004446 Rises=F Damp=F
 DIIS: error= 9.43D-07 at cycle   8 NSaved=   8.
 NSaved= 8 IEnMin= 8 EnMin= -151.525984009406     IErMin= 8 ErrMin= 9.43D-07
 ErrMax= 9.43D-07  0.00D+00 EMaxC= 1.00D-01 BMatC= 9.00D-11 BMatP= 4.35D-09
 IDIUse=1 WtCom= 1.00D+00 WtEn= 0.00D+00
 Coeff-Com: -0.873D-05 0.156D-04-0.361D-03-0.634D-03-0.522D-03 0.512D-02
 Coeff-Com:  0.168D+00 0.829D+00
 Coeff:     -0.873D-05 0.156D-04-0.361D-03-0.634D-03-0.522D-03 0.512D-02
 Coeff:      0.168D+00 0.829D+00
 Gap=     0.163 Goal=   None    Shift=    0.000
 RMSDP=2.03D-07 MaxDP=3.08D-06 DE=-4.45D-09 OVMax= 4.92D-06

 Cycle   9  Pass 1  IDiag  1:
 E= -151.525984009491     Delta-E=       -0.000000000085 Rises=F Damp=F
 DIIS: error= 3.79D-07 at cycle   9 NSaved=   9.
 NSaved= 9 IEnMin= 9 EnMin= -151.525984009491     IErMin= 9 ErrMin= 3.79D-07
 ErrMax= 3.79D-07  0.00D+00 EMaxC= 1.00D-01 BMatC= 4.28D-12 BMatP= 9.00D-11
 IDIUse=1 WtCom= 1.00D+00 WtEn= 0.00D+00
 Coeff-Com:  0.971D-05-0.184D-04-0.672D-04-0.180D-03-0.428D-03-0.155D-02
 Coeff-Com:  0.135D-01 0.127D+00 0.862D+00
 Coeff:      0.971D-05-0.184D-04-0.672D-04-0.180D-03-0.428D-03-0.155D-02
 Coeff:      0.135D-01 0.127D+00 0.862D+00
 Gap=     0.163 Goal=   None    Shift=    0.000
 RMSDP=3.25D-08 MaxDP=5.11D-07 DE=-8.49D-11 OVMax= 7.58D-07

 Cycle  10  Pass 1  IDiag  1:
 E= -151.525984009494     Delta-E=       -0.000000000003 Rises=F Damp=F
 DIIS: error= 2.87D-08 at cycle  10 NSaved=  10.
 NSaved=10 IEnMin=10 EnMin= -151.525984009494     IErMin=10 ErrMin= 2.87D-08
 ErrMax= 2.87D-08  0.00D+00 EMaxC= 1.00D-01 BMatC= 5.72D-14 BMatP= 4.28D-12
 IDIUse=1 WtCom= 1.00D+00 WtEn= 0.00D+00
 Coeff-Com:  0.122D-05-0.208D-05 0.344D-05-0.301D-05-0.284D-04-0.318D-03
 Coeff-Com: -0.402D-02-0.170D-01 0.733D-01 0.948D+00
 Coeff:      0.122D-05-0.208D-05 0.344D-05-0.301D-05-0.284D-04-0.318D-03
 Coeff:     -0.402D-02-0.170D-01 0.733D-01 0.948D+00
 Gap=     0.163 Goal=   None    Shift=    0.000
 RMSDP=4.18D-09 MaxDP=7.65D-08 DE=-2.84D-12 OVMax= 8.79D-08

 SCF Done:  E(RB3LYP) =  -151.525984009     A.U. after   10 cycles
            NFock= 10  Conv=0.42D-08     -V/T= 2.0031
 KE= 1.510575183532D+02 PE=-4.618020833876D+02 EE= 1.023041501853D+02
 Leave Link  502 at Thu Jan 24 15:35:36 2019, MaxMem=    33554432 cpu:         2.3
 (Enter /apl/tryton/gaussian/09/d01/g09/l801.exe)
 DoSCS=F DFT=T ScalE2(SS,OS)=  1.000000  1.000000
 Range of M.O.s used for correlation:     1    73
 NBasis=    73 NAE=    10 NBE=    10 NFC=     0 NFV=     0
 NROrb=     73 NOA=    10 NOB=    10 NVA=    63 NVB=    63

 **** Warning!!: The largest alpha MO coefficient is  0.39181026D+02

 Leave Link  801 at Thu Jan 24 15:35:36 2019, MaxMem=    33554432 cpu:         0.0
 (Enter /apl/tryton/gaussian/09/d01/g09/l1101.exe)
 Using compressed storage, NAtomX=     4.
 Will process      5 centers per pass.
 Leave Link 1101 at Thu Jan 24 15:35:36 2019, MaxMem=    33554432 cpu:         0.1
 (Enter /apl/tryton/gaussian/09/d01/g09/l1102.exe)
 Symmetrizing basis deriv contribution to polar:
 IMax=3 JMax=2 DiffMx= 0.00D+00
 Leave Link 1102 at Thu Jan 24 15:35:36 2019, MaxMem=    33554432 cpu:         0.0
 (Enter /apl/tryton/gaussian/09/d01/g09/l1110.exe)
 Forming Gx(P) for the SCF density, NAtomX=     4.
 Integral derivatives from FoFJK, PRISM(SPDF).
 Do as many integral derivatives as possible in FoFJK.
 G2DrvN: MDV=      33554296.
 G2DrvN: will do     5 centers at a time, making    1 passes.
 Calling FoFCou, ICntrl=  3107 FMM=F I1Cent=   0 AccDes= 0.00D+00.
 FoFJK:  IHMeth= 1 ICntrl=    3107 DoSepK=F KAlg= 0 I1Cent=   0 FoldK=F
 IRaf=         0 NMat=   1 IRICut=       1 DoRegI=T DoRafI=F ISym2E= 1.
 FoFCou: FMM=F IPFlag=           0 FMFlag=      100000 FMFlg1=           0
         NFxFlg=           0 DoJE=F BraDBF=F KetDBF=F FulRan=T
         wScrn=  0.000000 ICntrl=    3107 IOpCl=  0 I1Cent=           0 NGrid=           0
         NMat0=    1 NMatS0=      1 NMatT0=    0 NMatD0=    1 NMtDS0=    0 NMtDT0=    0
 Petite list used in FoFCou.
 End of G2Drv F.D. properties file   721 does not exist.
 End of G2Drv F.D. properties file   722 does not exist.
 End of G2Drv F.D. properties file   788 does not exist.
 Leave Link 1110 at Thu Jan 24 15:35:40 2019, MaxMem=    33554432 cpu:         3.2
 (Enter /apl/tryton/gaussian/09/d01/g09/l1002.exe)
 Minotr:  Closed shell wavefunction.
          IDoAtm=1111
          Direct CPHF calculation.
          Differentiating once with respect to electric field.
                with respect to dipole field.
          Differentiating once with respect to nuclear coordinates.
          Using symmetry in CPHF.
          Requested convergence is 1.0D-08 RMS, and 1.0D-07 maximum.
          Secondary convergence is 1.0D-12 RMS, and 1.0D-12 maximum.
          NewPWx=T KeepS1=F KeepF1=F KeepIn=T MapXYZ=F SortEE=F KeepMc=T.
          MDV=      33554315 using IRadAn=       2.
 Generate precomputed XC quadrature information.
 Keep R1 ints in memory in symmetry-blocked form, NReq=5587745.
 FoFCou: FMM=F IPFlag=           0 FMFlag=           0 FMFlg1=           0
         NFxFlg=           0 DoJE=F BraDBF=F KetDBF=F FulRan=T
         wScrn=  0.000000 ICntrl=     600 IOpCl=  0 I1Cent=           0 NGrid=           0
         NMat0=    1 NMatS0=   2701 NMatT0=    0 NMatD0=    1 NMtDS0=    0 NMtDT0=    0
 Petite list used in FoFCou.
          Solving linear equations simultaneously, MaxMat=       0.
          There are    15 degrees of freedom in the 1st order CPHF.  IDoFFX=6 NUNeed=     3.
     12 vectors produced by pass  0 Test12= 4.20D-15 6.67D-09 XBig12= 1.65D+01 2.65D+00.
 AX will form    12 AO Fock derivatives at one time.
     12 vectors produced by pass  1 Test12= 4.20D-15 6.67D-09 XBig12= 9.76D+00 9.48D-01.
     12 vectors produced by pass  2 Test12= 4.20D-15 6.67D-09 XBig12= 1.32D-01 1.15D-01.
     12 vectors produced by pass  3 Test12= 4.20D-15 6.67D-09 XBig12= 1.46D-03 9.75D-03.
     12 vectors produced by pass  4 Test12= 4.20D-15 6.67D-09 XBig12= 2.08D-06 4.04D-04.
     11 vectors produced by pass  5 Test12= 4.20D-15 6.67D-09 XBig12= 4.60D-09 2.34D-05.
      4 vectors produced by pass  6 Test12= 4.20D-15 6.67D-09 XBig12= 8.82D-12 8.80D-07.
      2 vectors produced by pass  7 Test12= 4.20D-15 6.67D-09 XBig12= 8.94D-15 2.02D-08.
 InvSVY:  IOpt=1 It=  1 EMax= 1.11D-15
 Solved reduced A of dimension    77 with    12 vectors.
 FullF1:  Do perturbations    1 to     3.
 Isotropic polarizability for W=    0.000000       17.57 Bohr**3.
 End of Minotr F.D. properties file   721 does not exist.
 End of Minotr F.D. properties file   722 does not exist.
 End of Minotr F.D. properties file   788 does not exist.
 Leave Link 1002 at Thu Jan 24 15:35:45 2019, MaxMem=    33554432 cpu:         4.9
 (Enter /apl/tryton/gaussian/09/d01/g09/l601.exe)
 Copying SCF densities to generalized density rwf, IOpCl= 0 IROHF=0.

 **********************************************************************

            Population analysis using the SCF density.

 **********************************************************************

 Orbital symmetries:
       Occupied  (A') (A') (A') (A') (A') (A') (A') (A") (A') (A')
       Virtual   (A") (A") (A') (A') (A') (A') (A") (A') (A') (A')
                 (A") (A') (A') (A") (A') (A') (A') (A') (A') (A")
                 (A') (A') (A") (A') (A') (A') (A') (A') (A") (A")
                 (A') (A') (A') (A") (A") (A') (A") (A') (A') (A')
                 (A') (A') (A") (A') (A') (A") (A') (A") (A') (A')
                 (A") (A') (A") (A') (A') (A') (A') (A") (A') (A')
                 (A') (A') (A')
 The electronic state is 1-A'.
 Alpha  occ. eigenvalues --  -19.60540 -10.65323 -10.62955  -1.55768  -1.01466
 Alpha  occ. eigenvalues --   -0.98334  -0.84914  -0.83210  -0.70915  -0.61484
 Alpha virt. eigenvalues --   -0.45185  -0.36997  -0.23744  -0.20454  -0.17760
 Alpha virt. eigenvalues --   -0.15771  -0.12353  -0.08637  -0.06387  -0.05640
 Alpha virt. eigenvalues --   -0.05064  -0.04065  -0.02069  -0.00088   0.00149
 Alpha virt. eigenvalues --    0.01743   0.07218   0.10114   0.13073   0.24196
 Alpha virt. eigenvalues --    0.24623   0.31536   0.31755   0.33182   0.36847
 Alpha virt. eigenvalues --    0.39336   0.53651   0.56467   0.68347   0.71543
 Alpha virt. eigenvalues --    0.71624   0.81521   0.83634   0.96642   1.01510
 Alpha virt. eigenvalues --    1.06015   1.22509   1.23331   1.27409   1.40518
 Alpha virt. eigenvalues --    1.49185   1.66353   1.72881   1.87670   2.21183
 Alpha virt. eigenvalues --    2.26366   2.33448   2.34412   2.38786   2.51474
 Alpha virt. eigenvalues --    2.64841   2.73893   2.86961   3.01812   3.18395
 Alpha virt. eigenvalues --    3.28310   3.59049   4.54042   4.84209   5.15543
 Alpha virt. eigenvalues --   23.11669  23.62708  49.41959
          Condensed to atoms (all electrons):
               1          2          3          4
     1  C    5.649128   0.141932   0.014096   0.025414
     2  C    0.141932   5.172956   0.331795   0.155689
     3  H    0.014096   0.331795   0.348298  -0.019300
     4  O    0.025414   0.155689  -0.019300   7.530364
 Mulliken charges:
               1
     1  C    0.169429
     2  C    0.197627
     3  H    0.325110
     4  O    0.307833
 Sum of Mulliken charges =   1.00000
 Mulliken charges with hydrogens summed into heavy atoms:
               1
     1  C    0.169429
     2  C    0.522738
     4  O    0.307833
 APT charges:
               1
     1  C    0.600738
     2  C    0.355658
     3  H    0.273212
     4  O   -0.229609
 Sum of APT charges =   1.00000
 APT charges with hydrogens summed into heavy atoms:
               1
     1  C    0.600738
     2  C    0.628870
     4  O   -0.229609
 Electronic spatial extent (au):  <R**2>=             85.2020
 Charge=              1.0000 electrons
 Dipole moment (field-independent basis, Debye):
    X=              2.7756    Y=             -1.4501    Z=              0.0000  Tot=              3.1316
 Quadrupole moment (field-independent basis, Debye-Ang):
   XX=            -10.7038   YY=            -13.9182   ZZ=            -13.2090
   XY=             -2.0167   XZ=             -0.0000   YZ=             -0.0000
 Traceless Quadrupole moment (field-independent basis, Debye-Ang):
   XX=              1.9066   YY=             -1.3079   ZZ=             -0.5987
   XY=             -2.0167   XZ=             -0.0000   YZ=             -0.0000
 Octapole moment (field-independent basis, Debye-Ang**2):
  XXX=             12.6453  YYY=              2.9469  ZZZ=              0.0000  XYY=              2.2757
  XXY=             -1.2877  XXZ=              0.0000  XZZ=              0.9366  YZZ=              0.7312
  YYZ=              0.0000  XYZ=             -0.0000
 Hexadecapole moment (field-independent basis, Debye-Ang**3):
 XXXX=            -45.4416 YYYY=            -38.5152 ZZZZ=            -10.4044 XXXY=             -7.7820
 XXXZ=             -0.0000 YYYX=             -2.3451 YYYZ=              0.0000 ZZZX=             -0.0000
 ZZZY=              0.0000 XXYY=            -13.6032 XXZZ=            -10.4637 YYZZ=             -7.8874
 XXYZ=             -0.0000 YYXZ=             -0.0000 ZZXY=             -0.4257
 N-N= 5.691443083967D+01 E-N=-4.618020832734D+02  KE= 1.510575183532D+02
 Symmetry A'   KE= 1.472048516732D+02
 Symmetry A"   KE= 3.852666679964D+00
  Exact polarizability:  22.126  -0.558  17.575  -0.000  -0.000  13.020
 Approx polarizability:  32.867  -1.287  32.389   0.000  -0.000  20.413
 No NMR shielding tensors so no spin-rotation constants.
 Leave Link  601 at Thu Jan 24 15:35:45 2019, MaxMem=    33554432 cpu:         0.1
 (Enter /apl/tryton/gaussian/09/d01/g09/l701.exe)
 Compute integral second derivatives.
 ... and contract with generalized density number  0.
 Leave Link  701 at Thu Jan 24 15:35:45 2019, MaxMem=    33554432 cpu:         0.2
 (Enter /apl/tryton/gaussian/09/d01/g09/l702.exe)
 L702 exits ... SP integral derivatives will be done elsewhere.
 Leave Link  702 at Thu Jan 24 15:35:45 2019, MaxMem=    33554432 cpu:         0.0
 (Enter /apl/tryton/gaussian/09/d01/g09/l703.exe)
 Compute integral second derivatives, UseDBF=F ICtDFT=           0.
 Integral derivatives from FoFJK, PRISM(SPDF).
 Calling FoFJK, ICntrl=    100127 FMM=F ISym2X=1 I1Cent= 0 IOpClX= 0 NMat=1 NMatS=1 NMatT=0.
 FoFJK:  IHMeth= 1 ICntrl=  100127 DoSepK=F KAlg= 0 I1Cent=   0 FoldK=F
 IRaf=         0 NMat=   1 IRICut=       1 DoRegI=T DoRafI=F ISym2E= 1.
 FoFCou: FMM=F IPFlag=           0 FMFlag=      100000 FMFlg1=         800
         NFxFlg=           0 DoJE=F BraDBF=F KetDBF=F FulRan=T
         wScrn=  0.000000 ICntrl=  100127 IOpCl=  0 I1Cent=           0 NGrid=           0
         NMat0=    1 NMatS0=      1 NMatT0=    0 NMatD0=    1 NMtDS0=    0 NMtDT0=    0
 Petite list used in FoFCou.
 Leave Link  703 at Thu Jan 24 15:35:50 2019, MaxMem=    33554432 cpu:         4.7
 (Enter /apl/tryton/gaussian/09/d01/g09/l716.exe)
 Dipole        = 1.09199707D+00-5.70510632D-01 2.25892130D-16
 Polarizability= 2.21263307D+01-5.58405884D-01 1.75745214D+01
                -3.18740426D-10-3.21248685D-09 1.30201175D+01
 Full mass-weighted force constant matrix:
 Low frequencies ---  -15.5304   -0.0009    0.0007    0.0010    3.3098    4.0012
 Low frequencies ---  674.7171  924.9680  978.4081
 Diagonal vibrational polarizability:
        4.1834956       4.2718198       0.1487834
 Harmonic frequencies (cm**-1), IR intensities (KM/Mole), Raman scattering
 activities (A**4/AMU), depolarization ratios for plane and unpolarized
 incident light, reduced masses (AMU), force constants (mDyne/A),
 and normal coordinates:
                      1                      2                      3
                     A'                     A"                     A'
 Frequencies --    674.7171               924.9680               978.4081
 Red. masses --      4.8780                 1.3074                 1.8668
 Frc consts  --      1.3084                 0.6590                 1.0529
 IR Inten    --     88.1856                 4.7301                71.5634
  Atom  AN      X      Y      Z        X      Y      Z        X      Y      Z
     1   6     0.03   0.39   0.00     0.00  -0.00   0.05     0.22   0.07  -0.00
     2   6     0.21  -0.14  -0.00    -0.00  -0.00  -0.16    -0.02  -0.02   0.00
     3   1     0.43   0.70   0.00    -0.00  -0.00   0.99    -0.26  -0.93  -0.00
     4   8    -0.21  -0.23   0.00    -0.00   0.00   0.02    -0.13   0.02  -0.00
                      4                      5                      6
                     A'                     A'                     A'
 Frequencies --   1237.0693              1578.7473              3162.4351
 Red. masses --      3.2182                 8.6183                 1.1154
 Frc consts  --      2.9017                12.6560                 6.5722
 IR Inten    --     23.4099                39.6324               145.2849
  Atom  AN      X      Y      Z        X      Y      Z        X      Y      Z
     1   6     0.27   0.00  -0.00     0.19   0.10  -0.00     0.01   0.00   0.00
     2   6    -0.27  -0.21   0.00    -0.34   0.48   0.00    -0.09   0.03  -0.00
     3   1    -0.04   0.90  -0.00    -0.58   0.22  -0.00     0.97  -0.24   0.00
     4   8     0.01   0.10  -0.00     0.15  -0.45  -0.00     0.00  -0.01   0.00

 -------------------
 - Thermochemistry -
 -------------------
 Temperature   298.150 Kelvin.  Pressure   1.00000 Atm.
 Atom     1 has atomic number  6 and mass  12.00000
 Atom     2 has atomic number  6 and mass  12.00000
 Atom     3 has atomic number  1 and mass   1.00783
 Atom     4 has atomic number  8 and mass  15.99491
 Molecular mass:    41.00274 amu.
 Principal axes and moments of inertia in atomic units:
                           1         2         3
     Eigenvalues --    45.32992  57.30077 102.63069
           X            0.98084  -0.19483  -0.00000
           Y            0.19483   0.98084   0.00000
           Z            0.00000  -0.00000   1.00000
 This molecule is an asymmetric top.
 Rotational symmetry number  1.
 Rotational temperatures (Kelvin)      1.91074     1.51156     0.84394
 Rotational constants (GHZ):          39.81346    31.49593    17.58481
 Zero-point vibrational energy      51178.3 (Joules/Mol)
                                   12.23191 (Kcal/Mol)
 Vibrational temperatures:    970.77  1330.82  1407.71  1779.86  2271.46
          (Kelvin)           4550.03
 
 Zero-point correction=                           0.019493 (Hartree/Particle)
 Thermal correction to Energy=                    0.022556
 Thermal correction to Enthalpy=                  0.023500
 Thermal correction to Gibbs Free Energy=        -0.004004
 Sum of electronic and zero-point Energies=           -151.506491
 Sum of electronic and thermal Energies=              -151.503428
 Sum of electronic and thermal Enthalpies=            -151.502484
 Sum of electronic and thermal Free Energies=         -151.529988
 
                     E (Thermal)             CV                S
                      KCal/Mol        Cal/Mol-Kelvin    Cal/Mol-Kelvin
 Total                   14.154              7.947             57.887
 Electronic               0.000              0.000              0.000
 Translational            0.889              2.981             37.061
 Rotational               0.889              2.981             20.216
 Vibrational             12.376              1.985              0.610
                       Q            Log10(Q)             Ln(Q)
 Total Bot       0.694548D+02          1.841702          4.240676
 Total V=0       0.642308D+11         10.807743         24.885748
 Vib (Bot)       0.115152D-08         -8.938730        -20.582187
 Vib (V=0)       0.106490D+01          0.027311          0.062886
 Electronic      0.100000D+01          0.000000          0.000000
 Translational   0.103199D+08          7.013675         16.149582
 Rotational      0.584464D+04          3.766758          8.673280
 
                                                                 min
                                                             IR Spectrum
 
     3                                                               1             1                                                 
     1                                                               5             2         9 9         6                           
     6                                                               7             3         7 2         7                           
     2                                                               9             7         8 5         5                           
 
     X                                                               X             X         X X         X                           
     X                                                               X             X         X           X                           
     X                                                               X             X         X           X                           
     X                                                               X                       X           X                           
     X                                                               X                       X           X                           
     X                                                                                       X           X                           
     X                                                                                       X           X                           
     X                                                                                       X           X                           
     X                                                                                       X           X                           
     X                                                                                       X           X                           
     X                                                                                                   X                           
     X                                                                                                   X                           
     X                                                                                                                               
     X                                                                                                                               
     X                                                                                                                               
     X                                                                                                                               
     X                                                                                                                               
     X                                                                                                                               
     X                                                                                                                               
     X                                                                                                                               
 
 ***** Axes restored to original set *****
 -------------------------------------------------------------------
 Center     Atomic                   Forces (Hartrees/Bohr)
 Number     Number              X              Y              Z
 -------------------------------------------------------------------
      1        6           0.000017971    0.000016077    0.000021505
      2        6           0.000056287   -0.000050632   -0.000094791
      3        1          -0.000001746    0.000005554    0.000009336
      4        8          -0.000072512    0.000029001    0.000063950
 -------------------------------------------------------------------
 Cartesian Forces:  Max     0.000094791 RMS     0.000046611
 Z-matrix is all fixed cartesians, so copy forces.
 Force constants in Cartesian coordinates: 
                1             2             3             4             5 
      1  0.161606D+00
      2  0.873362D-01  0.112919D+00
      3  0.103734D+00  0.145236D+00  0.217735D+00
      4  0.150152D-01 -0.459668D-01 -0.842730D-01  0.415479D+00
      5 -0.549338D-01 -0.116504D+00 -0.127892D+00 -0.404014D-01  0.308482D+00
      6 -0.986703D-01 -0.130042D+00 -0.213781D+00 -0.143744D+00  0.366052D+00
      7 -0.305774D-03  0.257282D-03  0.413889D-02 -0.442890D-01 -0.198890D-01
      8 -0.480226D-03  0.124512D-01 -0.435043D-02 -0.993079D-03 -0.132985D+00
      9  0.295475D-02 -0.452727D-02  0.725498D-02 -0.200695D-02 -0.134878D+00
     10 -0.176315D+00 -0.416267D-01 -0.236002D-01 -0.386206D+00  0.115224D+00
     11 -0.319222D-01 -0.886623D-02 -0.129934D-01  0.873613D-01 -0.589935D-01
     12 -0.801885D-02 -0.106665D-01 -0.112095D-01  0.230024D+00 -0.103281D+00
                6             7             8             9            10 
      6  0.708727D+00
      7 -0.323460D-01  0.339151D-01
      8 -0.139409D+00  0.203882D-02  0.114932D+00
      9 -0.262087D+00  0.100751D-02  0.144764D+00  0.256656D+00
     10  0.274761D+00  0.106797D-01 -0.565514D-03 -0.195531D-02  0.551841D+00
     11 -0.966003D-01  0.175929D-01  0.560160D-02 -0.535885D-02 -0.730320D-01
     12 -0.232859D+00  0.271996D-01 -0.100477D-02 -0.182341D-02 -0.249205D+00
               11            12 
     11  0.622581D-01
     12  0.114953D+00  0.245892D+00
 Leave Link  716 at Thu Jan 24 15:35:50 2019, MaxMem=    33554432 cpu:         0.0
 (Enter /apl/tryton/gaussian/09/d01/g09/l103.exe)

 GradGradGradGradGradGradGradGradGradGradGradGradGradGradGradGradGradGrad
 Berny optimization.
 Search for a local minimum.
 Step number   1 out of a maximum of    2
 All quantities printed in internal units (Hartrees-Bohrs-Radians)
 Second derivative matrix not updated -- analytic derivatives used.
 The second derivative matrix:
                          X1        Y1        Z1        X2        Y2
           X1           0.16161
           Y1           0.08734   0.11292
           Z1           0.10373   0.14524   0.21774
           X2           0.01502  -0.04597  -0.08427   0.41548
           Y2          -0.05493  -0.11650  -0.12789  -0.04040   0.30848
           Z2          -0.09867  -0.13004  -0.21378  -0.14374   0.36605
           X3          -0.00031   0.00026   0.00414  -0.04429  -0.01989
           Y3          -0.00048   0.01245  -0.00435  -0.00099  -0.13298
           Z3           0.00295  -0.00453   0.00725  -0.00201  -0.13488
           X4          -0.17632  -0.04163  -0.02360  -0.38621   0.11522
           Y4          -0.03192  -0.00887  -0.01299   0.08736  -0.05899
           Z4          -0.00802  -0.01067  -0.01121   0.23002  -0.10328
                          Z2        X3        Y3        Z3        X4
           Z2           0.70873
           X3          -0.03235   0.03392
           Y3          -0.13941   0.00204   0.11493
           Z3          -0.26209   0.00101   0.14476   0.25666
           X4           0.27476   0.01068  -0.00057  -0.00196   0.55184
           Y4          -0.09660   0.01759   0.00560  -0.00536  -0.07303
           Z4          -0.23286   0.02720  -0.00100  -0.00182  -0.24921
                          Y4        Z4
           Y4           0.06226
           Z4           0.11495   0.24589
 ITU=  0
     Eigenvalues ---    0.07060   0.10144   0.21959   0.40590   0.80271
     Eigenvalues ---    1.50580
 Angle between quadratic step and forces=  40.10 degrees.
 ClnCor:  largest displacement from symmetrization is 5.78D-14 for atom     3.
 Linear search not attempted -- first point.
 ClnCor:  largest displacement from symmetrization is 1.60D-15 for atom     3.
 TrRot=  0.000002  0.000006  0.000009 -0.000001  0.000002 -0.000001
 Variable       Old X    -DE/DX   Delta X   Delta X   Delta X     New X
                                 (Linear)    (Quad)   (Total)
    X1       -1.35121   0.00002   0.00000  -0.00003  -0.00003  -1.35124
    Y1       -1.10393   0.00002   0.00000   0.00002   0.00003  -1.10390
    Z1       -1.02796   0.00002   0.00000   0.00004   0.00005  -1.02791
    X2       -0.58788   0.00006   0.00000   0.00006   0.00007  -0.58782
    Y2        0.37873  -0.00005   0.00000  -0.00004  -0.00004   0.37869
    Z2        1.16954  -0.00009   0.00000  -0.00008  -0.00007   1.16947
    X3       -0.56118  -0.00000   0.00000  -0.00002  -0.00002  -0.56120
    Y3        1.47315   0.00001   0.00000  -0.00004  -0.00003   1.47312
    Z3        2.92033   0.00001   0.00000  -0.00005  -0.00004   2.92029
    X4        1.15151  -0.00007   0.00000  -0.00002  -0.00002   1.15149
    Y4       -0.28876   0.00003   0.00000   0.00003   0.00004  -0.28873
    Z4       -0.31925   0.00006   0.00000   0.00006   0.00007  -0.31919
         Item               Value     Threshold  Converged?
 Maximum Force            0.000095     0.000450     YES
 RMS     Force            0.000047     0.000300     YES
 Maximum Displacement     0.000074     0.001800     YES
 RMS     Displacement     0.000045     0.001200     YES
 Predicted change in Energy=-9.673342D-09
 Optimization completed.
    -- Stationary point found.
 GradGradGradGradGradGradGradGradGradGradGradGradGradGradGradGradGradGrad

 Leave Link  103 at Thu Jan 24 15:35:50 2019, MaxMem=    33554432 cpu:         0.0
 (Enter /apl/tryton/gaussian/09/d01/g09/l9999.exe)
 1\1\ CITASK-GV0222\Freq\RB3LYP\6-311++G(d,p)\C2H1O1(1+)\EERD\24-Jan-20
 19\0\\#p b3lyp/6-311++g(d,p) freq\\min\\1,1\C,-0.715029,-0.584174,-0.5
 43974\C,-0.311094,0.200414,0.618896\H,-0.2969661,0.7795548851,1.545371
 2649\O,0.609351756,-0.152807368,-0.168940017\\Version=ES64L-G09RevD.01
 \State=1-A'\HF=-151.525984\RMSD=4.176e-09\RMSF=4.661e-05\ZeroPoint=0.0
 194928\Thermal=0.0225557\Dipole=-0.272467,0.6056383,1.0377398\DipoleDe
 riv=0.8510638,0.3251055,0.3372416,0.3125114,0.3576122,0.3698362,0.3170
 206,0.3668163,0.5935386,0.4062654,-0.1872326,-0.2504593,-0.0853794,0.4
 30115,-0.2771035,-0.0869249,-0.2526809,0.2305937,0.2382621,-0.0487725,
 -0.0943037,0.0096466,0.2328665,0.0961269,-0.0005065,0.1101349,0.348508
 6,-0.4955913,-0.0891004,0.0075214,-0.2367786,-0.0205937,-0.1888596,-0.
 2295892,-0.2242703,-0.1726409\Polar=17.5212616,0.8153203,15.6832464,0.
 2297722,4.0803935,19.5164616\PG=CS [SG(C2H1O1)]\NImag=0\\0.16160608,0.
 08733619,0.11291906,0.10373438,0.14523607,0.21773540,0.01501519,-0.045
 96682,-0.08427302,0.41547941,-0.05493378,-0.11650399,-0.12789221,-0.04
 040137,0.30848241,-0.09867028,-0.13004233,-0.21378093,-0.14374448,0.36
 605186,0.70872693,-0.00030577,0.00025728,0.00413889,-0.04428900,-0.019
 88899,-0.03234604,0.03391511,-0.00048023,0.01245116,-0.00435043,-0.000
 99308,-0.13298492,-0.13940926,0.00203882,0.11493216,0.00295475,-0.0045
 2727,0.00725498,-0.00200695,-0.13487834,-0.26208729,0.00100751,0.14476
 446,0.25665571,-0.17631550,-0.04162665,-0.02360025,-0.38620560,0.11522
 414,0.27476080,0.01067966,-0.00056551,-0.00195531,0.55184143,-0.031922
 18,-0.00886623,-0.01299343,0.08736127,-0.05899349,-0.09660027,0.017592
 89,0.00560160,-0.00535885,-0.07303198,0.06225812,-0.00801885,-0.010666
 46,-0.01120945,0.23002445,-0.10328131,-0.23285871,0.02719965,-0.001004
 77,-0.00182341,-0.24920524,0.11495254,0.24589157\\-0.00001797,-0.00001
 608,-0.00002150,-0.00005629,0.00005063,0.00009479,0.00000175,-0.000005
 55,-0.00000934,0.00007251,-0.00002900,-0.00006395\\\@


 GARLIC THEN HAVE POWER TO SAVE FROM DEATH
 BEAR WITH IT THOUGH IT MAKETH UNSAVORY BREATH,
 AND SCORN NOT GARLIC LIKE SOME THAT THINK
 IT ONLY MAKETH MEN WINK AND DRINK AND STINK.
   --  SIR JOHN HARRINGTON,
       "THE ENGLISHMAN'S DOCTOR", 1609
 Job cpu time:       0 days  0 hours  0 minutes 16.7 seconds.
 File lengths (MBytes):  RWF=      6 Int=      0 D2E=      0 Chk=      1 Scr=      1
 Normal termination of Gaussian 09 at Thu Jan 24 15:35:50 2019.
