 Entering Gaussian System, Link 0=g09
 Initial command:
 /apl/tryton/gaussian/09/d01/g09/l1.exe "/users/work/eerd/M3C-outputs/3/Gau-32039.inp" -scrdir="/users/work/eerd/M3C-outputs/3/"
 Entering Link 1 = /apl/tryton/gaussian/09/d01/g09/l1.exe PID=     32040.
  
 Copyright (c) 1988,1990,1992,1993,1995,1998,2003,2009,2013,
            Gaussian, Inc.  All Rights Reserved.
  
 This is part of the Gaussian(R) 09 program.  It is based on
 the Gaussian(R) 03 system (copyright 2003, Gaussian, Inc.),
 the Gaussian(R) 98 system (copyright 1998, Gaussian, Inc.),
 the Gaussian(R) 94 system (copyright 1995, Gaussian, Inc.),
 the Gaussian 92(TM) system (copyright 1992, Gaussian, Inc.),
 the Gaussian 90(TM) system (copyright 1990, Gaussian, Inc.),
 the Gaussian 88(TM) system (copyright 1988, Gaussian, Inc.),
 the Gaussian 86(TM) system (copyright 1986, Carnegie Mellon
 University), and the Gaussian 82(TM) system (copyright 1983,
 Carnegie Mellon University). Gaussian is a federally registered
 trademark of Gaussian, Inc.
  
 This software contains proprietary and confidential information,
 including trade secrets, belonging to Gaussian, Inc.
  
 This software is provided under written license and may be
 used, copied, transmitted, or stored only in accord with that
 written license.
  
 The following legend is applicable only to US Government
 contracts under FAR:
  
                    RESTRICTED RIGHTS LEGEND
  
 Use, reproduction and disclosure by the US Government is
 subject to restrictions as set forth in subparagraphs (a)
 and (c) of the Commercial Computer Software - Restricted
 Rights clause in FAR 52.227-19.
  
 Gaussian, Inc.
 340 Quinnipiac St., Bldg. 40, Wallingford CT 06492
  
  
 ---------------------------------------------------------------
 Warning -- This program may not be used in any manner that
 competes with the business of Gaussian, Inc. or will provide
 assistance to any competitor of Gaussian, Inc.  The licensee
 of this program is prohibited from giving any competitor of
 Gaussian, Inc. access to this program.  By using this program,
 the user acknowledges that Gaussian, Inc. is engaged in the
 business of creating and licensing software in the field of
 computational chemistry and represents and warrants to the
 licensee that it is not a competitor of Gaussian, Inc. and that
 it will not use this program in any manner prohibited above.
 ---------------------------------------------------------------
  

 Cite this work as:
 Gaussian 09, Revision D.01,
 M. J. Frisch, G. W. Trucks, H. B. Schlegel, G. E. Scuseria, 
 M. A. Robb, J. R. Cheeseman, G. Scalmani, V. Barone, B. Mennucci, 
 G. A. Petersson, H. Nakatsuji, M. Caricato, X. Li, H. P. Hratchian, 
 A. F. Izmaylov, J. Bloino, G. Zheng, J. L. Sonnenberg, M. Hada, 
 M. Ehara, K. Toyota, R. Fukuda, J. Hasegawa, M. Ishida, T. Nakajima, 
 Y. Honda, O. Kitao, H. Nakai, T. Vreven, J. A. Montgomery, Jr., 
 J. E. Peralta, F. Ogliaro, M. Bearpark, J. J. Heyd, E. Brothers, 
 K. N. Kudin, V. N. Staroverov, T. Keith, R. Kobayashi, J. Normand, 
 K. Raghavachari, A. Rendell, J. C. Burant, S. S. Iyengar, J. Tomasi, 
 M. Cossi, N. Rega, J. M. Millam, M. Klene, J. E. Knox, J. B. Cross, 
 V. Bakken, C. Adamo, J. Jaramillo, R. Gomperts, R. E. Stratmann, 
 O. Yazyev, A. J. Austin, R. Cammi, C. Pomelli, J. W. Ochterski, 
 R. L. Martin, K. Morokuma, V. G. Zakrzewski, G. A. Voth, 
 P. Salvador, J. J. Dannenberg, S. Dapprich, A. D. Daniels, 
 O. Farkas, J. B. Foresman, J. V. Ortiz, J. Cioslowski, 
 and D. J. Fox, Gaussian, Inc., Wallingford CT, 2013.
 
 ******************************************
 Gaussian 09:  ES64L-G09RevD.01 24-Apr-2013
                 4-Mar-2018 
 ******************************************
 ---------------------------
 #p b3lyp/6-311++g(d,p) freq
 ---------------------------
 1/10=4,30=1,38=1/1,3;
 2/12=2,17=6,18=5,40=1/2;
 3/5=4,6=6,7=1111,11=2,16=1,25=1,30=1,71=2,74=-5,140=1/1,2,3;
 4//1;
 5/5=2,38=5,98=1/2;
 8/6=4,10=90,11=11/1;
 11/6=1,8=1,9=11,15=111,16=1/1,2,10;
 10/6=1/2;
 6/7=2,8=2,9=2,10=2,18=1,28=1/1;
 7/8=1,10=1,25=1/1,2,3,16;
 1/10=4,30=1/3;
 99//99;
 Leave Link    1 at Sun Mar  4 20:55:19 2018, MaxMem=           0 cpu:         0.0
 (Enter /apl/tryton/gaussian/09/d01/g09/l101.exe)
 ---
 min
 ---
 Symbolic Z-matrix:
 Charge =  0 Multiplicity = 2
 C                    -0.79348  -0.23792   0. 
 H                    -1.17244  -1.29638   0. 
 O                     0.34089   0.0647    0. 
 
 NAtoms=      3 NQM=        3 NQMF=       0 NMMI=      0 NMMIF=      0
                NMic=       0 NMicF=      0.
                    Isotopes and Nuclear Properties:
 (Nuclear quadrupole moments (NQMom) in fm**2, nuclear magnetic moments (NMagM)
  in nuclear magnetons)

  Atom         1           2           3
 IAtWgt=          12           1          16
 AtmWgt=  12.0000000   1.0078250  15.9949146
 NucSpn=           0           1           0
 AtZEff=   0.0000000   0.0000000   0.0000000
 NQMom=    0.0000000   0.0000000   0.0000000
 NMagM=    0.0000000   2.7928460   0.0000000
 AtZNuc=   6.0000000   1.0000000   8.0000000
 Leave Link  101 at Sun Mar  4 20:55:19 2018, MaxMem=    33554432 cpu:         0.1
 (Enter /apl/tryton/gaussian/09/d01/g09/l103.exe)

 GradGradGradGradGradGradGradGradGradGradGradGradGradGradGradGradGradGrad
 Berny optimization.
 Initialization pass.
 Trust Radius=3.00D-01 FncErr=1.00D-07 GrdErr=1.00D-07
 Number of steps in this run=      2 maximum allowed number of steps=      2.
 GradGradGradGradGradGradGradGradGradGradGradGradGradGradGradGradGradGrad

 Leave Link  103 at Sun Mar  4 20:55:19 2018, MaxMem=    33554432 cpu:         0.0
 (Enter /apl/tryton/gaussian/09/d01/g09/l202.exe)
                          Input orientation:                          
 ---------------------------------------------------------------------
 Center     Atomic      Atomic             Coordinates (Angstroms)
 Number     Number       Type             X           Y           Z
 ---------------------------------------------------------------------
      1          6           0       -0.793481   -0.237924    0.000000
      2          1           0       -1.172439   -1.296375    0.000000
      3          8           0        0.340890    0.064695    0.000000
 ---------------------------------------------------------------------
                    Distance matrix (angstroms):
                    1          2          3
     1  C    0.000000
     2  H    1.124245   0.000000
     3  O    1.174043   2.035357   0.000000
 Stoichiometry    CHO(2)
 Framework group  CS[SG(CHO)]
 Deg. of freedom     3
 Full point group                 CS      NOp   2
 Largest Abelian subgroup         CS      NOp   2
 Largest concise Abelian subgroup C1      NOp   1
                         Standard orientation:                         
 ---------------------------------------------------------------------
 Center     Atomic      Atomic             Coordinates (Angstroms)
 Number     Number       Type             X           Y           Z
 ---------------------------------------------------------------------
      1          6           0        0.061667    0.583558    0.000000
      2          1           0       -0.863339    1.222535    0.000000
      3          8           0        0.061667   -0.590485    0.000000
 ---------------------------------------------------------------------
 Rotational constants (GHZ):    722.9414916     44.9123020     42.2853503
 Leave Link  202 at Sun Mar  4 20:55:19 2018, MaxMem=    33554432 cpu:         0.0
 (Enter /apl/tryton/gaussian/09/d01/g09/l301.exe)
 Standard basis: 6-311++G(d,p) (5D, 7F)
 Ernie: Thresh=  0.10000D-02 Tol=  0.10000D-05 Strict=F.
 There are    40 symmetry adapted cartesian basis functions of A'  symmetry.
 There are    13 symmetry adapted cartesian basis functions of A"  symmetry.
 There are    38 symmetry adapted basis functions of A'  symmetry.
 There are    13 symmetry adapted basis functions of A"  symmetry.
    51 basis functions,    81 primitive gaussians,    53 cartesian basis functions
     8 alpha electrons        7 beta electrons
       nuclear repulsion energy        26.5391938892 Hartrees.
 IExCor=  402 DFT=T Ex+Corr=B3LYP ExCW=0 ScaHFX=  0.200000
 ScaDFX=  0.800000  0.720000  1.000000  0.810000 ScalE2=  1.000000  1.000000
 IRadAn=      0 IRanWt=     -1 IRanGd=            0 ICorTp=0 IEmpDi=  4
 NAtoms=    3 NActive=    3 NUniq=    3 SFac= 1.00D+00 NAtFMM=   60 NAOKFM=F Big=F
 Integral buffers will be    131072 words long.
 Raffenetti 2 integral format.
 Two-electron integral symmetry is turned on.
 Leave Link  301 at Sun Mar  4 20:55:19 2018, MaxMem=    33554432 cpu:         0.0
 (Enter /apl/tryton/gaussian/09/d01/g09/l302.exe)
 NPDir=0 NMtPBC=     1 NCelOv=     1 NCel=       1 NClECP=     1 NCelD=      1
         NCelK=      1 NCelE2=     1 NClLst=     1 CellRange=     0.0.
 One-electron integrals computed using PRISM.
 NBasis=    51 RedAO= T EigKep=  3.71D-03  NBF=    38    13
 NBsUse=    51 1.00D-06 EigRej= -1.00D+00 NBFU=    38    13
 Precomputing XC quadrature grid using
 IXCGrd= 4 IRadAn=           0 IRanWt=          -1 IRanGd=           0 AccXCQ= 0.00D+00.
 Generated NRdTot=       0 NPtTot=           0 NUsed=           0 NTot=          32
 NSgBfM=    53    53    53    53    53 MxSgAt=     3 MxSgA2=     3.
 Leave Link  302 at Sun Mar  4 20:55:19 2018, MaxMem=    33554432 cpu:         0.1
 (Enter /apl/tryton/gaussian/09/d01/g09/l303.exe)
 DipDrv:  MaxL=1.
 Leave Link  303 at Sun Mar  4 20:55:19 2018, MaxMem=    33554432 cpu:         0.0
 (Enter /apl/tryton/gaussian/09/d01/g09/l401.exe)
 ExpMin= 3.60D-02 ExpMax= 8.59D+03 ExpMxC= 1.30D+03 IAcc=3 IRadAn=         5 AccDes= 0.00D+00
 Harris functional with IExCor=  402 and IRadAn=       5 diagonalized for initial guess.
 HarFok:  IExCor=  402 AccDes= 0.00D+00 IRadAn=         5 IDoV= 1 UseB2=F ITyADJ=14
 ICtDFT=  3500011 ScaDFX=  1.000000  1.000000  1.000000  1.000000
 FoFCou: FMM=F IPFlag=           0 FMFlag=      100000 FMFlg1=           0
         NFxFlg=           0 DoJE=T BraDBF=F KetDBF=T FulRan=T
         wScrn=  0.000000 ICntrl=     500 IOpCl=  0 I1Cent=   200000004 NGrid=           0
         NMat0=    1 NMatS0=      1 NMatT0=    0 NMatD0=    1 NMtDS0=    0 NMtDT0=    0
 Petite list used in FoFCou.
 Harris En= -113.871027460575    
 JPrj=0 DoOrth=F DoCkMO=F.
 Initial guess orbital symmetries:
 Alpha Orbitals:
       Occupied  (A') (A') (A') (A') (A') (A") (A') (A')
       Virtual   (A") (A') (A') (A') (A") (A') (A') (A') (A") (A')
                 (A') (A') (A') (A") (A') (A') (A') (A') (A") (A')
                 (A") (A') (A") (A') (A') (A') (A") (A') (A') (A')
                 (A") (A') (A") (A') (A") (A') (A') (A') (A") (A')
                 (A') (A') (A')
 Beta  Orbitals:
       Occupied  (A') (A') (A') (A') (A') (A") (A')
       Virtual   (A') (A") (A') (A') (A') (A") (A') (A') (A') (A")
                 (A') (A') (A') (A') (A") (A') (A') (A') (A') (A")
                 (A') (A") (A') (A") (A') (A') (A') (A") (A') (A')
                 (A') (A") (A') (A") (A') (A") (A') (A') (A') (A")
                 (A') (A') (A') (A')
 The electronic state of the initial guess is 2-A'.
 Initial guess <Sx>= 0.0000 <Sy>= 0.0000 <Sz>= 0.5000 <S**2>= 0.7500 S= 0.5000
 Leave Link  401 at Sun Mar  4 20:55:20 2018, MaxMem=    33554432 cpu:         0.3
 (Enter /apl/tryton/gaussian/09/d01/g09/l502.exe)
 UHF open shell SCF:
 Using DIIS extrapolation, IDIIS=  1040.
 Integral symmetry usage will be decided dynamically.
 Keep R1 and R2 ints in memory in symmetry-blocked form, NReq=1841625.
 IVT=       27708 IEndB=       27708 NGot=    33554432 MDV=    32585824
 LenX=    32585824 LenY=    32582574
 Requested convergence on RMS density matrix=1.00D-08 within 128 cycles.
 Requested convergence on MAX density matrix=1.00D-06.
 Requested convergence on             energy=1.00D-06.
 No special actions if energy rises.
 FoFCou: FMM=F IPFlag=           0 FMFlag=           0 FMFlg1=           0
         NFxFlg=           0 DoJE=F BraDBF=F KetDBF=F FulRan=T
         wScrn=  0.000000 ICntrl=     600 IOpCl=  0 I1Cent=           0 NGrid=           0
         NMat0=    1 NMatS0=   1326 NMatT0=    0 NMatD0=    1 NMtDS0=    0 NMtDT0=    0
 Petite list used in FoFCou.

 Cycle   1  Pass 1  IDiag  1:
 E= -113.858053165600    
 DIIS: error= 3.58D-02 at cycle   1 NSaved=   1.
 NSaved= 1 IEnMin= 1 EnMin= -113.858053165600     IErMin= 1 ErrMin= 3.58D-02
 ErrMax= 3.58D-02  0.00D+00 EMaxC= 1.00D-01 BMatC= 2.08D-01 BMatP= 2.08D-01
 IDIUse=3 WtCom= 6.42D-01 WtEn= 3.58D-01
 Coeff-Com:  0.100D+01
 Coeff-En:   0.100D+01
 Coeff:      0.100D+01
 Gap=     0.171 Goal=   None    Shift=    0.000
 Gap=     0.265 Goal=   None    Shift=    0.000
 GapD=    0.171 DampG=1.000 DampE=0.500 DampFc=0.5000 IDamp=-1.
 Damping current iteration by 5.00D-01
 RMSDP=8.02D-03 MaxDP=1.06D-01              OVMax= 2.06D-01

 Cycle   2  Pass 1  IDiag  1:
 E= -113.851910255291     Delta-E=        0.006142910309 Rises=F Damp=T
 DIIS: error= 2.65D-02 at cycle   2 NSaved=   2.
 NSaved= 2 IEnMin= 1 EnMin= -113.858053165600     IErMin= 2 ErrMin= 2.65D-02
 ErrMax= 2.65D-02  0.00D+00 EMaxC= 1.00D-01 BMatC= 7.58D-02 BMatP= 2.08D-01
 IDIUse=3 WtCom= 7.35D-01 WtEn= 2.65D-01
 Coeff-Com:  0.350D+00 0.650D+00
 Coeff-En:   0.558D+00 0.442D+00
 Coeff:      0.405D+00 0.595D+00
 Gap=     0.169 Goal=   None    Shift=    0.000
 Gap=     0.299 Goal=   None    Shift=    0.000
 RMSDP=1.87D-03 MaxDP=2.89D-02 DE= 6.14D-03 OVMax= 1.67D-01

 Cycle   3  Pass 1  IDiag  1:
 E= -113.889093902562     Delta-E=       -0.037183647270 Rises=F Damp=F
 DIIS: error= 6.63D-03 at cycle   3 NSaved=   3.
 NSaved= 3 IEnMin= 3 EnMin= -113.889093902562     IErMin= 3 ErrMin= 6.63D-03
 ErrMax= 6.63D-03  0.00D+00 EMaxC= 1.00D-01 BMatC= 9.03D-03 BMatP= 7.58D-02
 IDIUse=3 WtCom= 9.34D-01 WtEn= 6.63D-02
 Coeff-Com:  0.858D-01 0.264D+00 0.651D+00
 Coeff-En:   0.000D+00 0.000D+00 0.100D+01
 Coeff:      0.801D-01 0.246D+00 0.674D+00
 Gap=     0.163 Goal=   None    Shift=    0.000
 Gap=     0.309 Goal=   None    Shift=    0.000
 RMSDP=1.26D-03 MaxDP=2.04D-02 DE=-3.72D-02 OVMax= 2.19D-02

 Cycle   4  Pass 1  IDiag  1:
 E= -113.891095542625     Delta-E=       -0.002001640063 Rises=F Damp=F
 DIIS: error= 2.42D-03 at cycle   4 NSaved=   4.
 NSaved= 4 IEnMin= 4 EnMin= -113.891095542625     IErMin= 4 ErrMin= 2.42D-03
 ErrMax= 2.42D-03  0.00D+00 EMaxC= 1.00D-01 BMatC= 9.38D-04 BMatP= 9.03D-03
 IDIUse=3 WtCom= 9.76D-01 WtEn= 2.42D-02
 Coeff-Com: -0.668D-02 0.708D-02 0.248D+00 0.751D+00
 Coeff-En:   0.000D+00 0.000D+00 0.139D-01 0.986D+00
 Coeff:     -0.652D-02 0.691D-02 0.243D+00 0.757D+00
 Gap=     0.164 Goal=   None    Shift=    0.000
 Gap=     0.308 Goal=   None    Shift=    0.000
 RMSDP=2.93D-04 MaxDP=5.11D-03 DE=-2.00D-03 OVMax= 6.68D-03

 Cycle   5  Pass 1  IDiag  1:
 E= -113.891326711949     Delta-E=       -0.000231169324 Rises=F Damp=F
 DIIS: error= 3.24D-04 at cycle   5 NSaved=   5.
 NSaved= 5 IEnMin= 5 EnMin= -113.891326711949     IErMin= 5 ErrMin= 3.24D-04
 ErrMax= 3.24D-04  0.00D+00 EMaxC= 1.00D-01 BMatC= 1.40D-05 BMatP= 9.38D-04
 IDIUse=3 WtCom= 9.97D-01 WtEn= 3.24D-03
 Coeff-Com: -0.159D-02-0.127D-01 0.102D-01 0.113D+00 0.891D+00
 Coeff-En:   0.000D+00 0.000D+00 0.000D+00 0.000D+00 0.100D+01
 Coeff:     -0.158D-02-0.127D-01 0.102D-01 0.112D+00 0.892D+00
 Gap=     0.164 Goal=   None    Shift=    0.000
 Gap=     0.309 Goal=   None    Shift=    0.000
 RMSDP=5.18D-05 MaxDP=6.84D-04 DE=-2.31D-04 OVMax= 1.14D-03

 Cycle   6  Pass 1  IDiag  1:
 E= -113.891330925113     Delta-E=       -0.000004213164 Rises=F Damp=F
 DIIS: error= 5.60D-05 at cycle   6 NSaved=   6.
 NSaved= 6 IEnMin= 6 EnMin= -113.891330925113     IErMin= 6 ErrMin= 5.60D-05
 ErrMax= 5.60D-05  0.00D+00 EMaxC= 1.00D-01 BMatC= 3.08D-07 BMatP= 1.40D-05
 IDIUse=1 WtCom= 1.00D+00 WtEn= 0.00D+00
 Coeff-Com:  0.851D-04 0.364D-03-0.127D-01-0.335D-01-0.378D-01 0.108D+01
 Coeff:      0.851D-04 0.364D-03-0.127D-01-0.335D-01-0.378D-01 0.108D+01
 Gap=     0.164 Goal=   None    Shift=    0.000
 Gap=     0.309 Goal=   None    Shift=    0.000
 RMSDP=1.20D-05 MaxDP=1.76D-04 DE=-4.21D-06 OVMax= 3.31D-04

 Cycle   7  Pass 1  IDiag  1:
 E= -113.891331111644     Delta-E=       -0.000000186531 Rises=F Damp=F
 DIIS: error= 2.45D-05 at cycle   7 NSaved=   7.
 NSaved= 7 IEnMin= 7 EnMin= -113.891331111644     IErMin= 7 ErrMin= 2.45D-05
 ErrMax= 2.45D-05  0.00D+00 EMaxC= 1.00D-01 BMatC= 3.38D-08 BMatP= 3.08D-07
 IDIUse=1 WtCom= 1.00D+00 WtEn= 0.00D+00
 Coeff-Com: -0.120D-03 0.511D-03-0.942D-03-0.387D-02-0.178D-01 0.379D-01
 Coeff-Com:  0.984D+00
 Coeff:     -0.120D-03 0.511D-03-0.942D-03-0.387D-02-0.178D-01 0.379D-01
 Coeff:      0.984D+00
 Gap=     0.164 Goal=   None    Shift=    0.000
 Gap=     0.309 Goal=   None    Shift=    0.000
 RMSDP=2.59D-06 MaxDP=3.33D-05 DE=-1.87D-07 OVMax= 1.02D-04

 Cycle   8  Pass 1  IDiag  1:
 E= -113.891331127230     Delta-E=       -0.000000015586 Rises=F Damp=F
 DIIS: error= 7.70D-06 at cycle   8 NSaved=   8.
 NSaved= 8 IEnMin= 8 EnMin= -113.891331127230     IErMin= 8 ErrMin= 7.70D-06
 ErrMax= 7.70D-06  0.00D+00 EMaxC= 1.00D-01 BMatC= 2.90D-09 BMatP= 3.38D-08
 IDIUse=1 WtCom= 1.00D+00 WtEn= 0.00D+00
 Coeff-Com: -0.176D-04-0.270D-04 0.146D-02 0.420D-02 0.596D-02-0.120D+00
 Coeff-Com: -0.398D-01 0.115D+01
 Coeff:     -0.176D-04-0.270D-04 0.146D-02 0.420D-02 0.596D-02-0.120D+00
 Coeff:     -0.398D-01 0.115D+01
 Gap=     0.164 Goal=   None    Shift=    0.000
 Gap=     0.309 Goal=   None    Shift=    0.000
 RMSDP=1.18D-06 MaxDP=1.64D-05 DE=-1.56D-08 OVMax= 5.96D-05

 Cycle   9  Pass 1  IDiag  1:
 E= -113.891331130565     Delta-E=       -0.000000003335 Rises=F Damp=F
 DIIS: error= 2.52D-06 at cycle   9 NSaved=   9.
 NSaved= 9 IEnMin= 9 EnMin= -113.891331130565     IErMin= 9 ErrMin= 2.52D-06
 ErrMax= 2.52D-06  0.00D+00 EMaxC= 1.00D-01 BMatC= 3.92D-10 BMatP= 2.90D-09
 IDIUse=1 WtCom= 1.00D+00 WtEn= 0.00D+00
 Coeff-Com:  0.258D-04-0.742D-04-0.129D-03-0.374D-04 0.159D-02 0.179D-01
 Coeff-Com: -0.129D+00-0.205D+00 0.132D+01
 Coeff:      0.258D-04-0.742D-04-0.129D-03-0.374D-04 0.159D-02 0.179D-01
 Coeff:     -0.129D+00-0.205D+00 0.132D+01
 Gap=     0.164 Goal=   None    Shift=    0.000
 Gap=     0.309 Goal=   None    Shift=    0.000
 RMSDP=5.04D-07 MaxDP=8.20D-06 DE=-3.33D-09 OVMax= 2.97D-05

 Cycle  10  Pass 1  IDiag  1:
 E= -113.891331131159     Delta-E=       -0.000000000594 Rises=F Damp=F
 DIIS: error= 1.06D-06 at cycle  10 NSaved=  10.
 NSaved=10 IEnMin=10 EnMin= -113.891331131159     IErMin=10 ErrMin= 1.06D-06
 ErrMax= 1.06D-06  0.00D+00 EMaxC= 1.00D-01 BMatC= 4.05D-11 BMatP= 3.92D-10
 IDIUse=1 WtCom= 1.00D+00 WtEn= 0.00D+00
 Coeff-Com: -0.646D-05 0.178D-04-0.136D-03-0.434D-03-0.664D-03 0.116D-01
 Coeff-Com:  0.162D-01-0.935D-01-0.166D+00 0.123D+01
 Coeff:     -0.646D-05 0.178D-04-0.136D-03-0.434D-03-0.664D-03 0.116D-01
 Coeff:      0.162D-01-0.935D-01-0.166D+00 0.123D+01
 Gap=     0.164 Goal=   None    Shift=    0.000
 Gap=     0.309 Goal=   None    Shift=    0.000
 RMSDP=1.47D-07 MaxDP=2.67D-06 DE=-5.94D-10 OVMax= 9.69D-06

 Cycle  11  Pass 1  IDiag  1:
 E= -113.891331131206     Delta-E=       -0.000000000047 Rises=F Damp=F
 DIIS: error= 2.00D-07 at cycle  11 NSaved=  11.
 NSaved=11 IEnMin=11 EnMin= -113.891331131206     IErMin=11 ErrMin= 2.00D-07
 ErrMax= 2.00D-07  0.00D+00 EMaxC= 1.00D-01 BMatC= 2.11D-12 BMatP= 4.05D-11
 IDIUse=1 WtCom= 1.00D+00 WtEn= 0.00D+00
 Coeff-Com: -0.592D-06 0.115D-05 0.257D-04 0.462D-04 0.345D-04-0.276D-02
 Coeff-Com:  0.748D-02 0.275D-01-0.891D-01-0.117D+00 0.117D+01
 Coeff:     -0.592D-06 0.115D-05 0.257D-04 0.462D-04 0.345D-04-0.276D-02
 Coeff:      0.748D-02 0.275D-01-0.891D-01-0.117D+00 0.117D+01
 Gap=     0.164 Goal=   None    Shift=    0.000
 Gap=     0.309 Goal=   None    Shift=    0.000
 RMSDP=3.81D-08 MaxDP=4.59D-07 DE=-4.71D-11 OVMax= 1.79D-06

 Cycle  12  Pass 1  IDiag  1:
 E= -113.891331131208     Delta-E=       -0.000000000002 Rises=F Damp=F
 DIIS: error= 3.98D-08 at cycle  12 NSaved=  12.
 NSaved=12 IEnMin=12 EnMin= -113.891331131208     IErMin=12 ErrMin= 3.98D-08
 ErrMax= 3.98D-08  0.00D+00 EMaxC= 1.00D-01 BMatC= 1.07D-13 BMatP= 2.11D-12
 IDIUse=1 WtCom= 1.00D+00 WtEn= 0.00D+00
 Coeff-Com:  0.481D-06-0.882D-06 0.467D-05 0.149D-04 0.157D-04-0.385D-03
 Coeff-Com: -0.152D-03 0.282D-02 0.779D-02-0.503D-01-0.402D-01 0.108D+01
 Coeff:      0.481D-06-0.882D-06 0.467D-05 0.149D-04 0.157D-04-0.385D-03
 Coeff:     -0.152D-03 0.282D-02 0.779D-02-0.503D-01-0.402D-01 0.108D+01
 Gap=     0.164 Goal=   None    Shift=    0.000
 Gap=     0.309 Goal=   None    Shift=    0.000
 RMSDP=4.95D-09 MaxDP=6.45D-08 DE=-1.93D-12 OVMax= 2.52D-07

 SCF Done:  E(UB3LYP) =  -113.891331131     A.U. after   12 cycles
            NFock= 12  Conv=0.49D-08     -V/T= 2.0032
 <Sx>= 0.0000 <Sy>= 0.0000 <Sz>= 0.5000 <S**2>= 0.7531 S= 0.5016
 <L.S>= 0.000000000000E+00
 KE= 1.135228203403D+02 PE=-3.206664730161D+02 EE= 6.671312765536D+01
 Annihilation of the first spin contaminant:
 S**2 before annihilation     0.7531,   after     0.7500
 Leave Link  502 at Sun Mar  4 20:55:22 2018, MaxMem=    33554432 cpu:         2.0
 (Enter /apl/tryton/gaussian/09/d01/g09/l801.exe)
 DoSCS=F DFT=T ScalE2(SS,OS)=  1.000000  1.000000
 Range of M.O.s used for correlation:     1    51
 NBasis=    51 NAE=     8 NBE=     7 NFC=     0 NFV=     0
 NROrb=     51 NOA=     8 NOB=     7 NVA=    43 NVB=    44
 Leave Link  801 at Sun Mar  4 20:55:22 2018, MaxMem=    33554432 cpu:         0.0
 (Enter /apl/tryton/gaussian/09/d01/g09/l1101.exe)
 Using compressed storage, NAtomX=     3.
 Will process      4 centers per pass.
 Leave Link 1101 at Sun Mar  4 20:55:22 2018, MaxMem=    33554432 cpu:         0.1
 (Enter /apl/tryton/gaussian/09/d01/g09/l1102.exe)
 Symmetrizing basis deriv contribution to polar:
 IMax=3 JMax=2 DiffMx= 0.00D+00
 Leave Link 1102 at Sun Mar  4 20:55:22 2018, MaxMem=    33554432 cpu:         0.0
 (Enter /apl/tryton/gaussian/09/d01/g09/l1110.exe)
 Forming Gx(P) for the SCF density, NAtomX=     3.
 Integral derivatives from FoFJK, PRISM(SPDF).
 Do as many integral derivatives as possible in FoFJK.
 G2DrvN: MDV=      33554304.
 G2DrvN: will do     4 centers at a time, making    1 passes.
 Calling FoFCou, ICntrl=  3107 FMM=F I1Cent=   0 AccDes= 0.00D+00.
 FoFJK:  IHMeth= 1 ICntrl=    3107 DoSepK=F KAlg= 0 I1Cent=   0 FoldK=F
 IRaf=         0 NMat=   1 IRICut=       1 DoRegI=T DoRafI=F ISym2E= 1.
 FoFCou: FMM=F IPFlag=           0 FMFlag=      100000 FMFlg1=           0
         NFxFlg=           0 DoJE=F BraDBF=F KetDBF=F FulRan=T
         wScrn=  0.000000 ICntrl=    3107 IOpCl=  1 I1Cent=           0 NGrid=           0
         NMat0=    1 NMatS0=      1 NMatT0=    0 NMatD0=    1 NMtDS0=    0 NMtDT0=    0
 Petite list used in FoFCou.
 End of G2Drv F.D. properties file   721 does not exist.
 End of G2Drv F.D. properties file   722 does not exist.
 End of G2Drv F.D. properties file   788 does not exist.
 Leave Link 1110 at Sun Mar  4 20:55:24 2018, MaxMem=    33554432 cpu:         1.6
 (Enter /apl/tryton/gaussian/09/d01/g09/l1002.exe)
 Minotr:  UHF open shell wavefunction.
          IDoAtm=111
          Direct CPHF calculation.
          Differentiating once with respect to electric field.
                with respect to dipole field.
          Differentiating once with respect to nuclear coordinates.
          Using symmetry in CPHF.
          Requested convergence is 1.0D-08 RMS, and 1.0D-07 maximum.
          Secondary convergence is 1.0D-12 RMS, and 1.0D-12 maximum.
          NewPWx=T KeepS1=F KeepF1=F KeepIn=T MapXYZ=F SortEE=F KeepMc=T.
          MDV=      33554296 using IRadAn=       2.
 Generate precomputed XC quadrature information.
 Keep R1 and R2 ints in memory in symmetry-blocked form, NReq=1813678.
 FoFCou: FMM=F IPFlag=           0 FMFlag=           0 FMFlg1=           0
         NFxFlg=           0 DoJE=F BraDBF=F KetDBF=F FulRan=T
         wScrn=  0.000000 ICntrl=     600 IOpCl=  0 I1Cent=           0 NGrid=           0
         NMat0=    1 NMatS0=   1326 NMatT0=    0 NMatD0=    1 NMtDS0=    0 NMtDT0=    0
 Petite list used in FoFCou.
          Solving linear equations simultaneously, MaxMat=       0.
          There are    12 degrees of freedom in the 1st order CPHF.  IDoFFX=6 NUNeed=     3.
      9 vectors produced by pass  0 Test12= 5.43D-15 8.33D-09 XBig12= 3.80D+01 3.26D+00.
 AX will form     9 AO Fock derivatives at one time.
      9 vectors produced by pass  1 Test12= 5.43D-15 8.33D-09 XBig12= 1.86D+01 9.96D-01.
      9 vectors produced by pass  2 Test12= 5.43D-15 8.33D-09 XBig12= 4.95D-01 2.00D-01.
      9 vectors produced by pass  3 Test12= 5.43D-15 8.33D-09 XBig12= 1.11D-02 3.12D-02.
      9 vectors produced by pass  4 Test12= 5.43D-15 8.33D-09 XBig12= 6.39D-05 2.26D-03.
      9 vectors produced by pass  5 Test12= 5.43D-15 8.33D-09 XBig12= 2.83D-07 1.42D-04.
      8 vectors produced by pass  6 Test12= 5.43D-15 8.33D-09 XBig12= 1.29D-09 9.62D-06.
      3 vectors produced by pass  7 Test12= 5.43D-15 8.33D-09 XBig12= 6.24D-12 7.01D-07.
      2 vectors produced by pass  8 Test12= 5.43D-15 8.33D-09 XBig12= 3.39D-14 4.45D-08.
 InvSVY:  IOpt=1 It=  1 EMax= 8.88D-16
 Solved reduced A of dimension    67 with     9 vectors.
 FullF1:  Do perturbations    1 to     3.
 Isotropic polarizability for W=    0.000000       15.06 Bohr**3.
 End of Minotr F.D. properties file   721 does not exist.
 End of Minotr F.D. properties file   722 does not exist.
 End of Minotr F.D. properties file   788 does not exist.
 Leave Link 1002 at Sun Mar  4 20:55:27 2018, MaxMem=    33554432 cpu:         3.5
 (Enter /apl/tryton/gaussian/09/d01/g09/l601.exe)
 Copying SCF densities to generalized density rwf, IOpCl= 1 IROHF=0.

 **********************************************************************

            Population analysis using the SCF density.

 **********************************************************************

 Orbital symmetries:
 Alpha Orbitals:
       Occupied  (A') (A') (A') (A') (A') (A') (A") (A')
       Virtual   (A") (A') (A') (A') (A") (A') (A') (A') (A") (A')
                 (A') (A') (A') (A") (A') (A') (A') (A') (A") (A')
                 (A") (A') (A") (A') (A') (A') (A") (A') (A') (A')
                 (A") (A') (A") (A') (A") (A') (A') (A') (A") (A')
                 (A') (A') (A')
 Beta  Orbitals:
       Occupied  (A') (A') (A') (A') (A') (A") (A')
       Virtual   (A') (A") (A') (A') (A') (A") (A') (A') (A') (A")
                 (A') (A') (A') (A') (A") (A') (A') (A') (A') (A")
                 (A') (A") (A') (A") (A') (A') (A') (A") (A') (A')
                 (A') (A") (A') (A") (A') (A") (A') (A') (A') (A")
                 (A') (A') (A') (A')
 The electronic state is 2-A'.
 Alpha  occ. eigenvalues --  -19.20038 -10.28699  -1.12705  -0.62869  -0.51566
 Alpha  occ. eigenvalues --   -0.45325  -0.44870  -0.22894
 Alpha virt. eigenvalues --   -0.06487  -0.00178   0.03937   0.05821   0.06606
 Alpha virt. eigenvalues --    0.11319   0.14983   0.18053   0.21215   0.22604
 Alpha virt. eigenvalues --    0.26833   0.38028   0.45410   0.51178   0.54015
 Alpha virt. eigenvalues --    0.64927   0.82527   1.00346   1.02475   1.05254
 Alpha virt. eigenvalues --    1.07850   1.18747   1.34531   1.39083   1.49004
 Alpha virt. eigenvalues --    1.64484   1.76036   2.10709   2.28281   2.47296
 Alpha virt. eigenvalues --    2.61444   2.73450   2.80130   2.86031   3.32019
 Alpha virt. eigenvalues --    3.39013   3.48386   3.74489   4.93024   4.96575
 Alpha virt. eigenvalues --    5.57519  23.81700  49.85582
  Beta  occ. eigenvalues --  -19.19165 -10.27730  -1.11096  -0.60136  -0.49278
  Beta  occ. eigenvalues --   -0.44073  -0.40125
  Beta virt. eigenvalues --   -0.09216  -0.04992   0.00100   0.04021   0.06707
  Beta virt. eigenvalues --    0.06792   0.11586   0.16753   0.18179   0.21247
  Beta virt. eigenvalues --    0.23050   0.27128   0.39286   0.47566   0.51995
  Beta virt. eigenvalues --    0.56938   0.66441   0.83667   1.01073   1.02978
  Beta virt. eigenvalues --    1.07342   1.10109   1.22685   1.37247   1.40113
  Beta virt. eigenvalues --    1.51591   1.66818   1.78318   2.13845   2.31332
  Beta virt. eigenvalues --    2.50187   2.62529   2.77063   2.82678   2.89501
  Beta virt. eigenvalues --    3.32621   3.41026   3.50260   3.75726   4.93592
  Beta virt. eigenvalues --    5.00162   5.58438  23.82774  49.86445
          Condensed to atoms (all electrons):
               1          2          3
     1  C    5.487121   0.135463   0.382343
     2  H    0.135463   0.797232  -0.066599
     3  O    0.382343  -0.066599   7.813235
          Atomic-Atomic Spin Densities.
               1          2          3
     1  C    1.004486  -0.244719  -0.168856
     2  H   -0.244719   0.446242  -0.038184
     3  O   -0.168856  -0.038184   0.452790
 Mulliken charges and spin densities:
               1          2
     1  C   -0.004927   0.590910
     2  H    0.133905   0.163340
     3  O   -0.128978   0.245750
 Sum of Mulliken charges =  -0.00000   1.00000
 Mulliken charges and spin densities with hydrogens summed into heavy atoms:
               1          2
     1  C    0.128978   0.754250
     3  O   -0.128978   0.245750
 APT charges:
               1
     1  C    0.366596
     2  H    0.054185
     3  O   -0.420782
 Sum of APT charges =   0.00000
 APT charges with hydrogens summed into heavy atoms:
               1
     1  C    0.420782
     3  O   -0.420782
 Electronic spatial extent (au):  <R**2>=             51.1282
 Charge=             -0.0000 electrons
 Dipole moment (field-independent basis, Debye):
    X=             -1.0357    Y=              1.3772    Z=              0.0000  Tot=              1.7231
 Quadrupole moment (field-independent basis, Debye-Ang):
   XX=            -11.6183   YY=            -11.8980   ZZ=            -11.0262
   XY=             -1.1716   XZ=              0.0000   YZ=              0.0000
 Traceless Quadrupole moment (field-independent basis, Debye-Ang):
   XX=             -0.1041   YY=             -0.3838   ZZ=              0.4879
   XY=             -1.1716   XZ=              0.0000   YZ=              0.0000
 Octapole moment (field-independent basis, Debye-Ang**2):
  XXX=             -1.2930  YYY=             -2.4615  ZZZ=              0.0000  XYY=             -1.8109
  XXY=             -0.9726  XXZ=              0.0000  XZZ=             -0.2793  YZZ=             -0.9445
  YYZ=              0.0000  XYZ=              0.0000
 Hexadecapole moment (field-independent basis, Debye-Ang**3):
 XXXX=            -16.3778 YYYY=            -41.7716 ZZZZ=            -10.2195 XXXY=              1.0458
 XXXZ=              0.0000 YYYX=             -0.1359 YYYZ=              0.0000 ZZZX=              0.0000
 ZZZY=              0.0000 XXYY=             -9.7823 XXZZ=             -4.5052 YYZZ=             -8.6312
 XXYZ=              0.0000 YYXZ=              0.0000 ZZXY=              0.5151
 N-N= 2.653919388918D+01 E-N=-3.206664734769D+02  KE= 1.135228203403D+02
 Symmetry A'   KE= 1.095926031970D+02
 Symmetry A"   KE= 3.930217143342D+00
  Exact polarizability:  14.796  -1.835  20.678  -0.000  -0.000   9.707
 Approx polarizability:  16.094  -2.114  32.204  -0.000  -0.000  11.875
                          Isotropic Fermi Contact Couplings
        Atom                 a.u.       MegaHertz       Gauss      10(-4) cm-1
     1  C(13)              0.33346     374.87627     133.76517     125.04526
     2  H(1)               0.07791     348.25205     124.26499     116.16438
     3  O(17)              0.04743     -28.74946     -10.25852      -9.58979
 --------------------------------------------------------
       Center         ----  Spin Dipole Couplings  ----
                      3XX-RR        3YY-RR        3ZZ-RR
 --------------------------------------------------------
     1   Atom        0.413958     -0.105420     -0.308538
     2   Atom        0.017729      0.011434     -0.029163
     3   Atom        1.394149     -0.598277     -0.795872
 --------------------------------------------------------
                        XY            XZ            YZ
 --------------------------------------------------------
     1   Atom        0.423755      0.000000      0.000000
     2   Atom       -0.027571      0.000000      0.000000
     3   Atom        0.457503      0.000000      0.000000
 --------------------------------------------------------


 ---------------------------------------------------------------------------------
              Anisotropic Spin Dipole Couplings in Principal Axis System
 ---------------------------------------------------------------------------------

       Atom             a.u.   MegaHertz   Gauss  10(-4) cm-1        Axes

              Baa    -0.3427   -45.991   -16.411   -15.341 -0.4886  0.8725 -0.0000
     1 C(13)  Bbb    -0.3085   -41.403   -14.774   -13.810  0.0000  0.0000  1.0000
              Bcc     0.6513    87.394    31.184    29.151  0.8725  0.4886  0.0000
 
              Baa    -0.0292   -15.560    -5.552    -5.190  0.0000  0.0000  1.0000
     2 H(1)   Bbb    -0.0132    -7.026    -2.507    -2.344  0.6658  0.7461  0.0000
              Bcc     0.0423    22.586     8.059     7.534  0.7461 -0.6658 -0.0000
 
              Baa    -0.7959    57.589    20.549    19.210  0.0000  0.0000  1.0000
     3 O(17)  Bbb    -0.6983    50.529    18.030    16.855 -0.2136  0.9769 -0.0000
              Bcc     1.4942  -108.118   -38.579   -36.064  0.9769  0.2136  0.0000
 

 ---------------------------------------------------------------------------------

 No NMR shielding tensors so no spin-rotation constants.
 Leave Link  601 at Sun Mar  4 20:55:28 2018, MaxMem=    33554432 cpu:         0.2
 (Enter /apl/tryton/gaussian/09/d01/g09/l701.exe)
 Compute integral second derivatives.
 ... and contract with generalized density number  0.
 Leave Link  701 at Sun Mar  4 20:55:28 2018, MaxMem=    33554432 cpu:         0.2
 (Enter /apl/tryton/gaussian/09/d01/g09/l702.exe)
 L702 exits ... SP integral derivatives will be done elsewhere.
 Leave Link  702 at Sun Mar  4 20:55:28 2018, MaxMem=    33554432 cpu:         0.0
 (Enter /apl/tryton/gaussian/09/d01/g09/l703.exe)
 Compute integral second derivatives, UseDBF=F ICtDFT=           0.
 Integral derivatives from FoFJK, PRISM(SPDF).
 Calling FoFJK, ICntrl=    100127 FMM=F ISym2X=1 I1Cent= 0 IOpClX= 1 NMat=1 NMatS=1 NMatT=0.
 FoFJK:  IHMeth= 1 ICntrl=  100127 DoSepK=F KAlg= 0 I1Cent=   0 FoldK=F
 IRaf=         0 NMat=   1 IRICut=       1 DoRegI=T DoRafI=F ISym2E= 1.
 FoFCou: FMM=F IPFlag=           0 FMFlag=      100000 FMFlg1=         800
         NFxFlg=           0 DoJE=F BraDBF=F KetDBF=F FulRan=T
         wScrn=  0.000000 ICntrl=  100127 IOpCl=  1 I1Cent=           0 NGrid=           0
         NMat0=    1 NMatS0=      1 NMatT0=    0 NMatD0=    1 NMtDS0=    0 NMtDT0=    0
 Petite list used in FoFCou.
 Leave Link  703 at Sun Mar  4 20:55:30 2018, MaxMem=    33554432 cpu:         2.1
 (Enter /apl/tryton/gaussian/09/d01/g09/l716.exe)
 Dipole        =-4.07470758D-01 5.41817019D-01 0.00000000D+00
 Polarizability= 1.47960008D+01-1.83526657D+00 2.06783395D+01
                -3.93742004D-09-4.81265089D-09 9.70708663D+00
 Full mass-weighted force constant matrix:
 Low frequencies ---  -77.3788  -25.8623  -19.5395   -0.0018   -0.0017   -0.0009
 Low frequencies --- 1098.6155 1935.4806 2661.3337
 Diagonal vibrational polarizability:
        0.2408854       1.6778266       0.0000000
 Harmonic frequencies (cm**-1), IR intensities (KM/Mole), Raman scattering
 activities (A**4/AMU), depolarization ratios for plane and unpolarized
 incident light, reduced masses (AMU), force constants (mDyne/A),
 and normal coordinates:
                      1                      2                      3
                     A'                     A'                     A'
 Frequencies --   1098.6149              1935.4806              2661.3337
 Red. masses --      1.2528                11.4622                 1.0807
 Frc consts  --      0.8909                25.2987                 4.5098
 IR Inten    --     35.7100               108.7410                89.8311
  Atom  AN      X      Y      Z        X      Y      Z        X      Y      Z
     1   6     0.12   0.03   0.00     0.03   0.73   0.00    -0.06   0.05   0.00
     2   1    -0.52  -0.84   0.00    -0.34   0.21   0.00     0.80  -0.59   0.00
     3   8    -0.06   0.03   0.00    -0.00  -0.56   0.00    -0.00   0.00   0.00

 -------------------
 - Thermochemistry -
 -------------------
 Temperature   298.150 Kelvin.  Pressure   1.00000 Atm.
 Atom     1 has atomic number  6 and mass  12.00000
 Atom     2 has atomic number  1 and mass   1.00783
 Atom     3 has atomic number  8 and mass  15.99491
 Molecular mass:    29.00274 amu.
 Principal axes and moments of inertia in atomic units:
                           1         2         3
     Eigenvalues --     2.49639  40.18367  42.68006
           X           -0.11239   0.99366   0.00000
           Y            0.99366   0.11239   0.00000
           Z           -0.00000   0.00000   1.00000
 This molecule is an asymmetric top.
 Rotational symmetry number  1.
 Rotational temperatures (Kelvin)     34.69568     2.15545     2.02937
 Rotational constants (GHZ):         722.94149    44.91230    42.28535
 Zero-point vibrational energy      34066.2 (Joules/Mol)
                                    8.14202 (Kcal/Mol)
 Vibrational temperatures:   1580.66  2784.72  3829.06
          (Kelvin)
 
 Zero-point correction=                           0.012975 (Hartree/Particle)
 Thermal correction to Energy=                    0.015834
 Thermal correction to Enthalpy=                  0.016778
 Thermal correction to Gibbs Free Energy=        -0.008681
 Sum of electronic and zero-point Energies=           -113.878356
 Sum of electronic and thermal Energies=              -113.875498
 Sum of electronic and thermal Enthalpies=            -113.874553
 Sum of electronic and thermal Free Energies=         -113.900012
 
                     E (Thermal)             CV                S
                      KCal/Mol        Cal/Mol-Kelvin    Cal/Mol-Kelvin
 Total                    9.936              6.259             53.582
 Electronic               0.000              0.000              1.377
 Translational            0.889              2.981             36.028
 Rotational               0.889              2.981             16.111
 Vibrational              8.158              0.297              0.065
                       Q            Log10(Q)             Ln(Q)
 Total Bot       0.983680D+04          3.992854          9.193886
 Total V=0       0.914097D+10          9.960993         22.936033
 Vib (Bot)       0.108161D-05         -5.965929        -13.737060
 Vib (V=0)       0.100510D+01          0.002209          0.005087
 Electronic      0.200000D+01          0.301030          0.693147
 Translational   0.613923D+07          6.788114         15.630210
 Rotational      0.740695D+03          2.869640          6.607589
 
                                                                 min
                                                             IR Spectrum
 
     2                                  1                                       1                                                    
     6                                  9                                       0                                                    
     6                                  3                                       9                                                    
     1                                  5                                       9                                                    
 
     X                                  X                                       X                                                    
     X                                  X                                       X                                                    
     X                                  X                                       X                                                    
     X                                  X                                       X                                                    
     X                                  X                                       X                                                    
     X                                  X                                       X                                                    
     X                                  X                                       X                                                    
     X                                  X                                                                                            
     X                                  X                                                                                            
     X                                  X                                                                                            
     X                                  X                                                                                            
     X                                  X                                                                                            
     X                                  X                                                                                            
     X                                  X                                                                                            
     X                                  X                                                                                            
     X                                  X                                                                                            
     X                                  X                                                                                            
                                        X                                                                                            
                                        X                                                                                            
                                        X                                                                                            
 
 ***** Axes restored to original set *****
 -------------------------------------------------------------------
 Center     Atomic                   Forces (Hartrees/Bohr)
 Number     Number              X              Y              Z
 -------------------------------------------------------------------
      1        6          -0.000241219    0.000413565   -0.000000000
      2        1          -0.000025992   -0.000388132   -0.000000000
      3        8           0.000267211   -0.000025432   -0.000000000
 -------------------------------------------------------------------
 Cartesian Forces:  Max     0.000413565 RMS     0.000224250
 Z-matrix is all fixed cartesians, so copy forces.
 Force constants in Cartesian coordinates: 
                1             2             3             4             5 
      1  0.946665D+00
      2  0.247793D+00  0.312937D+00
      3  0.000000D+00  0.000000D+00 -0.427267D-03
      4 -0.458723D-01 -0.328790D-01  0.000000D+00  0.669881D-01
      5 -0.378400D-01 -0.214647D+00  0.000000D+00  0.758381D-01  0.221522D+00
      6  0.000000D+00  0.000000D+00  0.251604D-03  0.000000D+00  0.000000D+00
      7 -0.900792D+00 -0.214914D+00  0.000000D+00 -0.211157D-01 -0.379981D-01
      8 -0.209953D+00 -0.982905D-01  0.000000D+00 -0.429591D-01 -0.687525D-02
      9  0.000000D+00  0.000000D+00  0.175663D-03  0.000000D+00  0.000000D+00
                6             7             8             9 
      6 -0.199267D-03
      7  0.000000D+00  0.921908D+00
      8  0.000000D+00  0.252912D+00  0.105166D+00
      9 -0.523373D-04  0.000000D+00  0.000000D+00 -0.123326D-03
 Leave Link  716 at Sun Mar  4 20:55:30 2018, MaxMem=    33554432 cpu:         0.0
 (Enter /apl/tryton/gaussian/09/d01/g09/l103.exe)

 GradGradGradGradGradGradGradGradGradGradGradGradGradGradGradGradGradGrad
 Berny optimization.
 Search for a local minimum.
 Step number   1 out of a maximum of    2
 All quantities printed in internal units (Hartrees-Bohrs-Radians)
 Second derivative matrix not updated -- analytic derivatives used.
 The second derivative matrix:
                          X1        Y1        Z1        X2        Y2
           X1           0.94666
           Y1           0.24779   0.31294
           Z1           0.00000   0.00000  -0.00043
           X2          -0.04587  -0.03288  -0.00000   0.06699
           Y2          -0.03784  -0.21465   0.00000   0.07584   0.22152
           Z2          -0.00000  -0.00000   0.00025   0.00000  -0.00000
           X3          -0.90079  -0.21491  -0.00000  -0.02112  -0.03800
           Y3          -0.20995  -0.09829  -0.00000  -0.04296  -0.00688
           Z3          -0.00000   0.00000   0.00018   0.00000  -0.00000
                          Z2        X3        Y3        Z3
           Z2          -0.00020
           X3           0.00000   0.92191
           Y3           0.00000   0.25291   0.10517
           Z3          -0.00005   0.00000  -0.00000  -0.00012
 ITU=  0
     Eigenvalues ---    0.11919   0.40427   1.95828
 Angle between quadratic step and forces=  37.49 degrees.
 ClnCor:  largest displacement from symmetrization is 2.17D-19 for atom     2.
 Linear search not attempted -- first point.
 ClnCor:  largest displacement from symmetrization is 4.44D-16 for atom     2.
 TrRot=  0.000037 -0.000003  0.000000 -0.000107  0.000000 -0.000107
 Variable       Old X    -DE/DX   Delta X   Delta X   Delta X     New X
                                 (Linear)    (Quad)   (Total)
    X1       -1.49946  -0.00024   0.00000  -0.00048  -0.00054  -1.50000
    Y1       -0.44961   0.00041   0.00000   0.00094   0.00126  -0.44836
    Z1        0.00000  -0.00000   0.00000   0.00000   0.00000   0.00000
    X2       -2.21559  -0.00003   0.00000   0.00085   0.00036  -2.21523
    Y2       -2.44979  -0.00039   0.00000  -0.00120  -0.00073  -2.45052
    Z2        0.00000  -0.00000   0.00000   0.00000   0.00000   0.00000
    X3        0.64419   0.00027   0.00000   0.00012   0.00018   0.64437
    Y3        0.12226  -0.00003   0.00000  -0.00039  -0.00053   0.12173
    Z3        0.00000  -0.00000   0.00000   0.00000   0.00000   0.00000
         Item               Value     Threshold  Converged?
 Maximum Force            0.000414     0.000450     YES
 RMS     Force            0.000224     0.000300     YES
 Maximum Displacement     0.001256     0.001800     YES
 RMS     Displacement     0.000562     0.001200     YES
 Predicted change in Energy=-4.900246D-07
 Optimization completed.
    -- Stationary point found.
 GradGradGradGradGradGradGradGradGradGradGradGradGradGradGradGradGradGrad

 Leave Link  103 at Sun Mar  4 20:55:30 2018, MaxMem=    33554432 cpu:         0.0
 (Enter /apl/tryton/gaussian/09/d01/g09/l9999.exe)
 1\1\ CITASK-GV2631\Freq\UB3LYP\6-311++G(d,p)\C1H1O1(2)\EERD\04-Mar-201
 8\0\\#p b3lyp/6-311++g(d,p) freq\\min\\0,2\C,-0.793481,-0.237924,0.\H,
 -1.172439,-1.296375,0.\O,0.34089,0.064695,0.\\Version=ES64L-G09RevD.01
 \State=2-A'\HF=-113.8913311\S2=0.753111\S2-1=0.\S2A=0.750006\RMSD=4.94
 8e-09\RMSF=2.243e-04\ZeroPoint=0.0129751\Thermal=0.0158336\Dipole=-0.4
 184798,-0.5333598,0.\DipoleDeriv=0.6884134,0.4726954,0.,0.335452,0.527
 1159,0.,0.,0.,-0.1157405,0.1429433,-0.0658943,0.,-0.1717119,-0.2134852
 ,0.,0.,0.,0.2330982,-0.8313567,-0.4068011,0.,-0.1637401,-0.3136307,0.,
 0.,0.,-0.1173577\Polar=19.3733811,3.0563858,16.1009592,0.,0.,9.7070866
 \PG=CS [SG(C1H1O1)]\NImag=0\\0.94666475,0.24779334,0.31293723,0.,0.,-0
 .00042727,-0.04587234,-0.03287898,0.,0.06698808,-0.03784005,-0.2146466
 8,0.,0.07583810,0.22152194,0.,0.,0.00025160,0.,0.,-0.00019927,-0.90079
 241,-0.21491436,0.,-0.02111573,-0.03799805,0.,0.92190814,-0.20995330,-
 0.09829054,0.,-0.04295912,-0.00687525,0.,0.25291241,0.10516579,0.,0.,0
 .00017566,0.,0.,-0.00005234,0.,0.,-0.00012333\\0.00024122,-0.00041356,
 0.,0.00002599,0.00038813,0.,-0.00026721,0.00002543,0.\\\@


 THE MORE ACCURATE THE CALCULATIONS BECOME, THE MORE THE CONCEPTS
 TEND TO VANISH INTO THIN AIR.
     -- R.S. MULLIKEN, J.C.P. 43,S2(1965)
 Job cpu time:       0 days  0 hours  0 minutes 10.9 seconds.
 File lengths (MBytes):  RWF=      5 Int=      0 D2E=      0 Chk=      1 Scr=      1
 Normal termination of Gaussian 09 at Sun Mar  4 20:55:30 2018.
