4
Energy =   -168.785166182     
    C    1.061118    0.623647    0.916011
    N    1.290458   -0.142596    2.029783
    C   -0.076585   -0.046061    2.076423
    C   -0.154183   -0.130666    0.620360

FREQUENCIES 6
-401.5291
624.1235
780.3206
781.5099
1142.3381
1367.4148

SYMMETRY C1
ELECTRONIC_STATE 2-A
