5
Energy =   -206.736781466     
    N    0.921771    0.284470   -0.249542
    C    0.128216   -0.975226    0.346623
    C   -0.089470    0.280203    1.002136
    C   -0.371587   -0.422269   -0.877814
    C   -0.588983    0.832807   -0.221386

FREQUENCIES 9
-312.3246
-311.9379
414.2130
787.5991
903.2461
1205.9462
1206.2113
1276.9431
1371.9914

SYMMETRY C1
ELECTRONIC_STATE 4-A
