2
Energy =   -75.4523762674     
    C    0.658460    0.000000    0.000000
    C   -0.658460    0.000000    0.000000

FREQUENCIES   1
1598.9117

SYMMETRY D*H
ELECTRONIC_STATE ??
