3
Energy =   -76.6359721237     
    C    0.061694    0.351314    0.052579
    C   -0.733531   -0.524878   -0.155123
    H    0.768743    1.131154    0.237468

FREQUENCIES   3
348.8848
2076.6587
3397.9870

SYMMETRY C*V
ELECTRONIC_STATE 2-SG
