3
Energy =   -76.1567268127     
    C   -0.231764   -0.205026    0.042621
    C    0.688730    0.755845    0.049003
    H   -0.477027   -1.269569    0.080603

FREQUENCIES   3
645.2154
1385.1557
3136.7717

SYMMETRY CS
ELECTRONIC_STATE 1-A'
