3
Energy =   -76.5020129950     
    C   -0.381195    0.007108    0.000884
    C    1.033863    0.335844    0.000015
    H   -0.672729   -1.061702   -0.001462

FREQUENCIES   3
868.3941
1171.8274
2874.0977

SYMMETRY CS
ELECTRONIC_STATE 4-A"
