4
Energy =   -77.3620094498     
    C    0.316473    0.578012   -0.011110
    C   -0.455283   -0.279748    0.304446
    H    1.001501    1.339775   -0.291609
    H   -1.140411   -1.041509    0.584709

FREQUENCIES   6
659.4393
765.5414
765.5414
2066.1167
3408.1288
3508.7083

SYMMETRY C*V
ELECTRONIC_STATE 1-SG
