4
Energy =   -76.9475534322     
    C    0.331059    0.595003   -0.017249
    C   -0.469942   -0.296718    0.310467
    H    1.026741    1.369298   -0.301927
    H   -1.165579   -1.071053    0.595146

FREQUENCIES   6
717.6596
755.1764
788.6343
1892.0498
3249.7737
3350.8218

SYMMETRY C*V
ELECTRONIC_STATE --
