3
Energy =   -113.637650789     
  C           -1.27320647          0.00000000         -0.00000000
  C           -0.03288631         -0.00000000          0.00000000
  C            1.30609278          0.00000000         -0.00000000

FREQUENCIES 4
20.4031
20.4032
1197.1842
2024.2584

SYMMETRY C*V
ELECTRONIC_STATE 2-SG
