3
Energy =   -113.647971083     
    C   -0.584355   -0.436532    0.000000
    C    0.723064   -0.358523    0.000000
    C   -0.138710    0.795054    0.000000

FREQUENCIES   3
732.2030
1238.7890
1661.0458

SYMMETRY C2V
ELECTRONIC_STATE ??
