3
Energy =   -113.584387442     
  C           -0.00002282          0.00000000          0.00000000
  C           -1.26608594         -0.00000000         -0.00000000
  C            1.26610876         -0.00000000         -0.00000000

FREQUENCIES   4
284.6737
397.1638
1330.4800
1890.9833

SYMMETRY D*H
ELECTRONIC_STATE --
