3
Energy =   -113.623576990     
    C   -0.166441   -0.783825    0.000000
    C   -0.595589    0.536053    0.000005
    C    0.762030    0.247772    0.000000

FREQUENCIES 3
1181.9041
1181.9041
1556.3674

SYMMETRY D3H
ELECTRONIC_STATE 4-A1'
