4
Energy =   -151.685413082     
    C    0.134159    0.081154    1.169830
    C   -0.866197   -0.682571   -1.253959
    C    0.883716    0.720666    0.303973
    C   -0.151677   -0.119249   -0.219845

FREQUENCIES   6
227.5580
333.6475
840.1378
851.0534
1327.8711
1690.6811

SYMMETRY C1
ELECTRONIC_STATE 4-A
