4
Energy =   -152.081034107     
    C    0.869400    0.710122    0.245330
    C    0.129315    0.075690    1.233817
    C   -0.158553   -0.124736   -0.218934
    C   -1.019889   -0.815918   -0.951827

FREQUENCIES   6
107.0576
229.0300
702.3081
882.4500
1292.9447
1678.3416

SYMMETRY C1
ELECTRONIC_STATE 1-A
