4
Energy =   -151.726920453     
    C    0.000000   -0.000000    1.990369
    C    0.000000   -0.000000    0.627228
    C   -0.000000    0.000000   -0.627228
    C    0.000000   -0.000000   -1.990369

FREQUENCIES   7
118.8641
143.6185
252.0041
333.1988
891.0222
1325.1768
2140.3362

SYMMETRY D*H
ELECTRONIC_STATE --
