4
Energy =   -152.073084617     
    C    0.856213    0.470516    0.186789
    C   -0.311959    0.725092   -0.604976
    C    0.384846   -0.882249    0.251221
    C   -0.929101   -0.313359    0.166966

FREQUENCIES   6
615.0837
636.6151
643.9804
705.7202
708.0708
1318.0692

SYMMETRY C1
ELECTRONIC_STATE 3-A
