5
Energy =   -189.688728837     
    C    0.208203    0.601871    0.845299
    C   -0.797025   -0.472523    0.585272
    C   -0.609197    0.201139   -0.705931
    C    0.385288   -0.848481   -0.203096
    C    0.812731    0.517993   -0.521544

FREQUENCIES   9
423.4919
449.3021
592.0145
747.7041
834.1148
956.7616
958.9566
1258.4135
1305.3815
