5
Energy =   -189.755387079     
    C   -0.021990    0.767306    0.117653
    C   -1.339448    0.413049   -0.156669
    C   -0.667665   -0.785150    0.187008
    C    0.692000   -0.773685   -0.167591
    C    1.337102    0.378480    0.019599

FREQUENCIES   9
221.2465
451.6989
484.1306
573.3106
805.3745
936.8857
1086.6389
1181.7790
1497.9841
