5
Energy =   -190.171809834     
    C    1.822092    0.202895   -0.015737
    C   -0.610217   -0.833461    0.012830
    C   -1.903918   -0.244526    0.017542
    C   -0.786218    0.633995   -0.000636
    C    0.520269    0.046692   -0.005529

FREQUENCIES   9
174.8041
237.3021
381.5795
540.6666
792.3998
909.2373
1103.9903
1417.0270
1808.0493

SYMMETRY C1
ELECTRONIC_STATE 1-A
