5
Energy =   -189.793003851     
    C    2.024068   -0.001165    0.000245
    C   -0.534236   -0.761569   -0.000073
    C   -1.641205    0.001001    0.000170
    C   -0.534159    0.761630   -0.000073
    C    0.685532    0.000002   -0.000268

FREQUENCIES   9
197.2918
215.0828
477.5934
649.6588
718.9667
1011.5662
1047.0579
1650.5743
1758.1326

SYMMETRY C1
ELECTRONIC_STATE 2-A
