5
Energy =   -189.813936778     
    C    2.530455    0.000000   -0.000000
    C    1.291314   -0.000000    0.000000
    C    0.000000   -0.000000    0.000000
    C   -1.291314   -0.000000    0.000000
    C   -2.530455    0.000000   -0.000000

FREQUENCIES   10
147.3924
156.1175
294.2668
372.0761
471.8886
630.8143
807.6466
1600.7663
1946.0969
2053.7372

SYMMETRY D*H
ELECTRONIC_STATE ??
