5
Energy =   -189.778631658     
C  0.000666836  0.606758231  0.000346600
C -1.467174972  0.388049519 -0.007719592
C -0.719774023 -0.689018031 -0.004284612
C  0.718256944 -0.690603369  0.003495673
C  1.468024215  0.384813649  0.008160931

FREQUENCIES 9
289.2825
365.9671
378.1384
587.3711
597.4006
838.5339
1246.9886
1461.3551
1673.2459

SYMMETRY C2V
ELECTRONIC_STATE 2-A1
