6
Energy =   -228.139351675     
    C   -0.860881   -0.084902   -1.085180
    C    0.451753    1.180982    0.204613
    C   -0.507522    0.595626    1.014037
    C    0.894820   -1.008644    0.334642
    C    0.566177   -0.003553   -0.701341
    C   -0.544347   -0.679510    0.233229

FREQUENCIES   12
65.2008
126.9813
312.3004
585.7464
648.8538
809.5081
915.0261
934.4859
1074.2507
1135.6162
1175.4806
1392.4733

SYMMETRY C1
ELECTRONIC_STATE 3-A
