6
Energy =   -228.324791174     
    C    0.000000    1.095800    0.000000
    C    1.267852    0.731552    0.000000
    C   -1.267491    0.732194    0.000000
    C    0.949346   -0.548055    0.000000
    C   -0.949601   -0.548232    0.000000
    C   -0.000105   -1.463259    0.000000

FREQUENCIES   12
440.0788
537.2532
537.4393
643.4468
644.0748
646.1649
1221.6978
1229.7801
1230.5929
1409.7782
1756.7083
1757.7515

SYMMETRY CS
ELECTRONIC_STATE 1-A'
