6
Energy =   -228.176624460     
C -0.054084695 -0.063934973 -0.052421899
C  1.518362271  0.437828045  1.466188878
C  0.139659178 -0.051858117  1.399270324
C -0.976973501  0.190787324 -0.943845277
C  1.403465328 -0.052171905  0.090764728
C  2.269097418  1.226598627  2.191089247

FREQUENCIES 12
116.4117
250.4364
300.8662
328.2737
466.1918
598.5739
661.3877
760.2846
908.9385
1009.7124
1673.8801
1762.8237

SYMMETRY C2V
ELECTRONIC_STATE 1-A1
