6
Energy =   -228.239751765     
    C    0.161916   -0.008143   -0.091426
    C   -1.539763    0.028136    3.470743
    C   -0.758505    0.010189    2.457707
    C    0.099057   -0.009645    1.478733
    C    1.278420   -0.038111    0.743468
    C   -0.795907    0.017891   -0.987589

FREQUENCIES   12
142.1645
153.6033
244.3449
246.8995
440.7360
489.0740
510.0243
807.8708
994.4827
1469.7988
1716.7416
2064.8606

SYMMETRY C1
ELECTRONIC_STATE 1-A
