6
Energy =   -228.313125421     
    C    0.000000    0.000000    3.215441
    C    0.000000    0.000000    1.921567
    C    0.000000    0.000000    0.635632
    C    0.000000    0.000000   -0.635632
    C    0.000000    0.000000   -1.921567
    C    0.000000    0.000000   -3.215441

FREQUENCIES   13
93.9240
110.9406
186.8296
237.9946
348.6680
450.2448
540.7731
664.0993
669.0784
1233.0611
1744.3434
2041.4863
2181.5786

SYMMETRY D*H
ELECTRONIC_STATE ??
