6
Energy =   -228.155990557     
    C    0.863363   -0.205745   -0.000000
    C   -0.347566    0.649867   -0.000000
    C    2.143981   -0.455885    0.000000
    C   -1.002511    1.773474    0.000000
    C   -1.206711   -1.907007    0.000000
    C   -0.450557   -0.788568   -0.000000

FREQUENCIES   12
64.8851
164.9796
184.7215
315.2592
367.5445
386.4764
607.4021
656.2609
822.6649
1249.8841
1488.8753
1849.8272
