6
Energy =   -228.334387164     
    C    0.000000    0.000000    3.213900
    C    0.000000    0.000000    1.918800
    C    0.000000    0.000000    0.635400
    C    0.000000    0.000000   -0.635400
    C    0.000000    0.000000   -1.918800
    C    0.000000    0.000000   -3.213900

FREQUENCIES 13
103.4839
103.4839
218.8032
218.8032
400.7173
400.7173
595.5559
595.5559
670.7114
1230.8526
1735.0700
2029.6912
2178.1824

SYMMETRY D*H
ELECTRONIC_STATE 3-SGG
