6
Energy =   -228.231522439     
C -1.207439011 -0.037054784  0.903603169
C  2.556769760  0.024459664  0.892912398
C  0.011659118 -0.098478456  0.150660465
C  1.205836681  0.002382806  0.896749198
C  0.013257188  0.064239843  1.649616587
C  3.776164264  0.044386927  0.889449182

FREQUENCIES 12
147.6392
153.8089
383.9290
402.9131
500.9414
623.8417
677.5314
746.1682
1017.9234
1302.5416
1550.1227
2057.5325

SYMMETRY C2V
ELECTRONIC_STATE 3-B1
