6
Energy =   -228.170149459     
    C   -0.162749    1.244827    0.839669
    C   -0.076205    0.000103    1.663950
    C    0.001566   -0.000517    0.039504
    C    1.660167    0.002554   -0.156926
    C    1.282016   -0.000706    1.126658
    C   -0.160224   -1.245633    0.840180

FREQUENCIES   12
-104.6204
251.9750
354.8054
479.2214
571.0742
583.8284
787.8824
848.0017
988.0334
1163.5790
1235.0644
1472.6942

SYMMETRY C1
ELECTRONIC_STATE 1-A
