6
Energy =   -228.278547609     
  C            0.60247368         -0.90672500          0.00000000
  C            1.56457816          0.00000000          0.00000000
  C           -0.70689784         -1.20676850          0.00000000
  C            0.60247368          0.90672500          0.00000000
  C           -1.35572983          0.00000000          0.00000000
  C           -0.70689784          1.20676850          0.00000000

FREQUENCIES 12
417.3819
431.1725
474.2727
510.3519
535.2687
607.4805
1062.1967
1069.6142
1162.1520
1287.8643
1511.4639
1745.8998

SYMMETRY C2V
ELECTRONIC_STATE 3-B2
