6
Energy =   -228.231522637     
    C   -1.207431   -0.037508    0.903816
    C    2.556764    0.024799    0.892837
    C    0.011643   -0.098792    0.150741
    C    1.205839    0.002248    0.896790
    C    0.013284    0.063927    1.649697
    C    3.776149    0.045262    0.889110

FREQUENCIES   12
147.5792
153.8441
384.0083
402.9054
500.6859
623.8339
677.5327
746.1676
1017.9236
1302.5404
1550.1224
2057.5312

SYMMETRY C1
ELECTRONIC_STATE 3-A
