6
Energy =   -228.278547592     
    C    0.602392   -0.906755    0.000135
    C    1.564578   -0.000090   -0.000118
    C   -0.706968   -1.206735   -0.000143
    C    0.602555    0.906695    0.000136
    C   -1.355730    0.000085    0.000134
    C   -0.706828    1.206802   -0.000143

FREQUENCIES   12
417.3811
431.1728
474.2729
510.3519
535.2688
607.4805
1062.1966
1069.6142
1162.1518
1287.8641
1511.4637
1745.8996

SYMMETRY C1
ELECTRONIC_STATE 3-A
