7
Energy =   -266.334792383     
    C   -1.396662    0.005525   -2.104460
    C   -2.155938    0.007781   -3.145524
    C   -0.756514   -0.013830    2.444301
    C    1.310618    0.001841    0.697785
    C    0.125769    0.001071   -0.030607
    C   -0.646941    0.003289   -1.074064
    C    0.094259   -0.006114    1.457338

FREQUENCIES   15
84.3248
138.1622
167.5645
289.4462
296.2582
343.4847
551.0846
571.7388
602.4665
807.9549
893.6041
1279.1405
1674.8944
1840.6276
2142.8013

SYMMETRY C1
ELECTRONIC_STATE 1-A
