7
Energy =   -266.399270625     
    C   -1.862703   -0.389287   -0.000000
    C    1.126322    0.696563   -0.000000
    C   -1.348794    0.902332    0.000000
    C    0.351511   -1.437130    0.000000
    C    1.443377   -0.654539    0.000000
    C   -0.081066    1.143731   -0.000000
    C   -0.908308   -1.330312   -0.000000

FREQUENCIES   15
53.0599
291.8536
306.9593
376.2974
485.7693
499.1743
500.5272
574.1068
1017.1488
1038.2421
1225.8912
1341.9298
1494.9019
1706.9008
1893.9461

SYMMETRY CS
ELECTRONIC_STATE 3-A'
