7
Energy =   -266.386641710     
C -0.000666243 -0.039946875  3.848414841
C  0.000489489  0.145944327  2.564724974
C  0.000343127  0.131039095  1.276326213
C  0.000255544  0.125127451  0.000001899
C  0.000245481  0.131171958 -1.276321796
C  0.000293272  0.146211308 -2.564719006
C -0.000960671 -0.039546263 -3.848428125

FREQUENCIES 15
75.6323
130.2875
150.1397
190.2420
261.7740
432.5410
437.3635
477.2454
577.7000
639.4960
1065.9887
1488.4163
1528.9920
1844.8629
1956.4035

SYMMETRY C2V
ELECTRONIC_STATE 3-A2
