7
Energy =   -266.407783266     
    C   -1.543987   -0.000025    0.000000
    C   -0.737674   -1.038710    0.000000
    C    0.365912   -1.785670    0.000000
    C    1.143756   -0.627225    0.000000
    C    1.143756    0.627233    0.000000
    C    0.365912    1.785678    0.000000
    C   -0.737674    1.038718    0.000000

FREQUENCIES   15
283.3801
303.1306
396.6431
440.7738
496.2530
514.2007
529.4525
596.2963
957.1016
1026.3006
1148.2312
1174.0231
1613.7455
1667.4442
1945.2109

SYMMETRY CS
ELECTRONIC_STATE 1-A'
