7
Energy =   -266.274513482     
C -0.871941717 -0.362248195 -1.231321615
C -0.734883463  0.998264745 -1.025309067
C  1.347135128 -0.243531780  1.928929543
C  0.051370759 -0.024705387  1.397188905
C -0.027356052  0.230749320 -0.024140974
C -1.036063485 -1.627763547 -1.475104632
C  1.284863830 -0.017775155  0.530789840

FREQUENCIES 15
154.5234
155.8912
257.8481
334.5885
359.1436
498.4355
569.7017
583.7981
708.2768
955.9389
956.8027
1045.5946
1376.9323
1442.0148
1777.9893

SYMMETRY CS
ELECTRONIC_STATE 1-A'
